Protein in INSANE! Membrane UpperLeaflet>POPC=1.0 LowerLeaflet>POPC=1.0
246639
    1AU     AUC    1  18.337  29.163   7.496
    1AU     AUC    2  18.620  29.170   7.317
    1AU     AUC    3  18.604  29.144   7.666
    1AU     AUC    4  18.050  29.159   7.329
    1AU     AUC    5  18.069  29.194   7.681
    1AU     AUC    6  18.169  29.442   7.496
    1AU     AUC    7  18.522  29.444   7.485
    1AU     AUC    8  18.148  28.894   7.505
    1AU     AUC    9  18.501  28.872   7.490
    1AU     AUC   10  18.339  28.984   7.771
    1AU     AUC   11  18.334  29.350   7.759
    1AU     AUC   12  18.329  28.998   7.220
    1AU     AUC   13  18.350  29.321   7.218
    1AU     AUC   14  18.929  29.180   7.146
    1AU     AUC   15  18.944  29.135   7.504
    1AU     AUC   16  18.894  29.118   7.855
    1AU     AUC   17  17.751  29.148   7.160
    1AU     AUC   18  17.730  29.190   7.524
    1AU     AUC   19  17.788  29.223   7.866
    1AU     AUC   20  18.007  29.748   7.482
    1AU     AUC   21  18.372  29.784   7.457
    1AU     AUC   22  18.704  29.732   7.482
    1AU     AUC   23  17.947  28.617   7.514
    1AU     AUC   24  18.298  28.561   7.488
    1AU     AUC   25  18.665  28.571   7.469
    1AU     AUC   26  18.325  28.805   8.062
    1AU     AUC   27  18.338  29.168   8.091
    1AU     AUC   28  18.360  29.524   8.057
    1AU     AUC   29  18.350  28.823   6.945
    1AU     AUC   30  18.341  29.162   6.884
    1AU     AUC   31  18.330  29.489   6.917
    1AU     AUC   32  18.613  28.932   7.982
    1AU     AUC   33  18.647  29.314   7.982
    1AU     AUC   34  18.659  29.021   6.988
    1AU     AUC   35  18.654  29.349   7.025
    1AU     AUC   36  18.035  29.035   8.015
    1AU     AUC   37  18.060  29.410   7.993
    1AU     AUC   38  18.030  28.973   7.039
    1AU     AUC   39  18.014  29.299   6.991
    1AU     AUC   40  18.867  29.455   7.340
    1AU     AUC   41  18.812  29.422   7.687
    1AU     AUC   42  17.855  29.459   7.309
    1AU     AUC   43  17.867  29.505   7.675
    1AU     AUC   44  18.808  28.859   7.305
    1AU     AUC   45  18.794  28.818   7.660
    1AU     AUC   46  17.813  28.859   7.361
    1AU     AUC   47  17.868  28.910   7.717
    1AU     AUC   48  18.184  29.686   7.767
    1AU     AUC   49  18.534  29.643   7.772
    1AU     AUC   50  18.142  28.689   7.801
    1AU     AUC   51  18.471  28.639   7.766
    1AU     AUC   52  18.163  29.604   7.183
    1AU     AUC   53  18.536  29.648   7.196
    1AU     AUC   54  18.135  28.687   7.208
    1AU     AUC   55  18.525  28.703   7.194
    1AU    AUSL   56  18.872  29.046   8.223
    1AU    AUSL   57  18.623  28.637   8.146
    1AU     AUL   58  18.876  28.645   8.428
    1AU       S   59  18.994  28.349   8.098
    1AU     LIG   60  18.857  28.138   8.468
    1AU     LIG   61  19.027  27.787   8.689
    1AU     LIG   62  19.232  27.527   9.021
    1AU     LIG   63  19.151  27.574   9.491
    1AU       S   64  19.081  29.026   8.305
    1AU     LIG   65  18.959  29.031   8.768
    1AU     LIG   66  19.156  29.016   9.200
    1AU     LIG   67  19.467  28.875   9.538
    1AU     LIG   68  19.903  28.930   9.738
    1AU    AUSL   69  18.470  28.967   8.385
    1AU    AUSL   70  18.222  29.353   8.419
    1AU     AUL   71  18.439  29.283   8.739
    1AU       S   72  18.516  28.905   8.511
    1AU     LIG   73  18.517  28.796   8.924
    1AU     LIG   74  18.793  28.655   9.286
    1AU     LIG   75  19.011  28.513   9.690
    1AU     LIG   76  19.250  28.519  10.097
    1AU       S   77  18.033  29.102   8.649
    1AU     LIG   78  17.913  29.138   9.105
    1AU     LIG   79  17.757  29.115   9.552
    1AU     LIG   80  17.608  29.177   9.988
    1AU     LIG   81  17.650  29.465  10.373
    1AU    AUSL   82  18.540  29.339   8.152
    1AU    AUSL   83  18.976  29.447   8.099
    1AU     AUL   84  18.778  29.350   8.435
    1AU       S   85  18.429  29.734   8.579
    1AU     LIG   86  18.811  29.627   8.861
    1AU     LIG   87  19.003  29.737   9.284
    1AU     LIG   88  18.974  29.933   9.736
    1AU     LIG   89  18.927  30.209  10.142
    1AU       S   90  19.149  29.591   8.277
    1AU     LIG   91  19.581  29.649   8.226
    1AU     LIG   92  19.888  29.863   8.514
    1AU     LIG   93  20.142  30.154   8.810
    1AU     LIG   94  20.546  30.159   9.078
    1AU    AUSL   95  18.871  29.302   6.768
    1AU    AUSL   96  18.649  29.625   6.957
    1AU     AUL   97  18.803  29.672   6.616
    1AU       S   98  18.819  29.325   6.316
    1AU     LIG   99  19.232  29.222   6.134
    1AU     LIG  100  19.346  28.991   5.748
    1AU     LIG  101  19.502  28.908   5.315
    1AU     LIG  102  19.812  28.789   4.977
    1AU       S  103  19.124  29.876   6.884
    1AU     LIG  104  19.261  30.058   6.496
    1AU     LIG  105  19.531  30.259   6.167
    1AU     LIG  106  19.774  30.486   5.830
    1AU     LIG  107  19.746  30.793   5.456
    1AU    AUSL  108  18.641  28.978   6.606
    1AU    AUSL  109  18.984  28.908   6.894
    1AU     AUL  110  19.090  29.096   6.643
    1AU       S  111  19.012  28.635   6.629
    1AU     LIG  112  19.351  28.427   6.345
    1AU     LIG  113  19.596  28.042   6.463
    1AU     LIG  114  19.937  27.737   6.469
    1AU     LIG  115  20.118  27.619   6.096
    1AU       S  116  18.778  29.112   6.298
    1AU     LIG  117  18.678  28.742   6.077
    1AU     LIG  118  18.732  28.535   5.647
    1AU     LIG  119  18.879  28.543   5.185
    1AU     LIG  120  18.966  28.466   4.708
    1AU    AUSL  121  18.448  29.360   6.683
    1AU    AUSL  122  18.228  28.961   6.724
    1AU     AUL  123  18.366  28.980   6.435
    1AU       S  124  17.927  28.989   6.301
    1AU     LIG  125  18.134  28.797   5.992
    1AU     LIG  126  17.883  28.668   5.627
    1AU     LIG  127  17.645  28.631   5.213
    1AU     LIG  128  17.379  28.640   4.815
    1AU       S  129  18.509  29.412   6.356
    1AU     LIG  130  18.477  29.197   5.921
    1AU     LIG  131  18.829  29.042   5.612
    1AU     LIG  132  19.020  29.051   5.163
    1AU     LIG  133  19.106  29.271   4.744
    1AU    AUSL  134  17.815  29.294   8.261
    1AU    AUSL  135  18.083  29.662   8.161
    1AU     AUL  136  17.953  29.564   8.501
    1AU       S  137  17.850  29.093   8.605
    1AU     LIG  138  17.498  29.067   8.778
    1AU     LIG  139  17.392  28.982   9.214
    1AU     LIG  140  17.244  28.973   9.655
    1AU     LIG  141  16.868  28.888   9.930
    1AU       S  142  17.722  29.880   8.233
    1AU     LIG  143  17.811  30.051   8.616
    1AU     LIG  144  17.646  30.374   8.908
    1AU     LIG  145  17.323  30.631   9.133
    1AU     LIG  146  17.013  30.745   9.454
    1AU    AUSL  147  18.113  29.013   8.161
    1AU    AUSL  148  17.696  28.886   8.138
    1AU     AUL  149  17.572  29.134   8.249
    1AU       S  150  17.604  28.683   8.390
    1AU     LIG  151  17.165  28.575   8.223
    1AU     LIG  152  16.937  28.187   8.355
    1AU     LIG  153  16.771  27.918   8.695
    1AU     LIG  154  16.569  27.643   9.002
    1AU       S  155  18.009  28.953   8.546
    1AU     LIG  156  17.998  28.672   8.906
    1AU     LIG  157  17.786  28.657   9.310
    1AU     LIG  158  17.634  28.643   9.754
    1AU     LIG  159  17.554  28.343  10.115
    1AU    AUSL  160  17.808  29.027   6.775
    1AU    AUSL  161  18.013  28.677   6.953
    1AU     AUL  162  18.053  28.665   6.619
    1AU       S  163  17.757  28.910   6.366
    1AU     LIG  164  17.509  28.804   6.039
    1AU     LIG  165  17.376  28.814   5.620
    1AU     LIG  166  17.197  28.914   5.218
    1AU     LIG  167  16.878  28.823   4.888
    1AU       S  168  17.629  28.559   6.768
    1AU     LIG  169  17.450  28.228   6.521
    1AU     LIG  170  17.106  27.920   6.405
    1AU     LIG  171  16.923  27.668   6.042
    1AU     LIG  172  16.613  27.462   5.760
    1AU    AUSL  173  18.036  29.343   6.594
    1AU    AUSL  174  17.680  29.425   6.900
    1AU     AUL  175  17.602  29.251   6.621
    1AU       S  176  17.686  29.694   6.649
    1AU     LIG  177  17.245  29.842   6.620
    1AU     LIG  178  16.984  30.160   6.368
    1AU     LIG  179  16.828  30.313   5.951
    1AU     LIG  180  16.428  30.280   5.695
    1AU       S  181  17.984  29.260   6.328
    1AU     LIG  182  17.819  29.187   5.860
    1AU     LIG  183  17.729  29.113   5.400
    1AU     LIG  184  17.596  29.112   4.948
    1AU     LIG  185  17.531  29.387   4.560
    1AU    AUSL  186  19.133  29.654   7.521
    1AU    AUSL  187  19.038  29.469   7.120
    1AU     AUL  188  19.408  29.740   7.289
    1AU       S  189  19.145  29.638   6.939
    1AU     LIG  190  19.332  29.550   6.543
    1AU     LIG  191  19.697  29.785   6.318
    1AU     LIG  192  20.010  30.079   6.089
    1AU     LIG  193  20.277  30.335   5.804
    1AU       S  194  19.506  29.533   7.703
    1AU     LIG  195  19.865  29.848   7.659
    1AU     LIG  196  20.187  30.170   7.860
    1AU     LIG  197  20.563  30.476   7.810
    1AU     LIG  198  20.886  30.810   7.645
    1AU    AUSL  199  19.308  29.259   7.373
    1AU    AUSL  200  19.253  28.926   7.678
    1AU     AUL  201  19.631  29.029   7.705
    1AU       S  202  19.433  29.302   7.410
    1AU     LIG  203  19.871  29.395   7.369
    1AU     LIG  204  20.297  29.609   7.278
    1AU     LIG  205  20.722  29.538   7.051
    1AU     LIG  206  21.190  29.414   7.054
    1AU       S  207  19.486  28.647   7.483
    1AU     LIG  208  19.783  28.525   7.791
    1AU     LIG  209  20.168  28.252   7.851
    1AU     LIG  210  20.657  28.356   7.842
    1AU     LIG  211  21.033  28.181   8.089
    1AU    AUSL  212  19.039  29.286   7.721
    1AU    AUSL  213  18.792  29.680   7.779
    1AU     AUL  214  19.106  29.734   7.827
    1AU       S  215  19.111  29.902   8.248
    1AU     LIG  216  19.496  30.146   8.298
    1AU     LIG  217  19.901  30.366   8.392
    1AU     LIG  218  20.078  30.712   8.621
    1AU     LIG  219  20.457  30.974   8.632
    1AU       S  220  19.370  29.362   7.852
    1AU     LIG  221  19.927  29.393   7.898
    1AU     LIG  222  20.336  29.666   7.809
    1AU     LIG  223  20.764  29.927   7.890
    1AU     LIG  224  21.115  29.813   8.213
    1AU    AUSL  225  17.684  29.721   7.514
    1AU    AUSL  226  17.755  29.514   7.909
    1AU     AUL  227  17.454  29.835   7.756
    1AU       S  228  17.584  29.680   8.171
    1AU     LIG  229  17.454  29.653   8.598
    1AU     LIG  230  17.271  30.036   8.817
    1AU     LIG  231  16.971  30.252   9.124
    1AU     LIG  232  16.648  30.346   9.465
    1AU       S  233  17.692  30.120   7.448
    1AU     LIG  234  17.211  30.110   7.386
    1AU     LIG  235  16.805  30.331   7.580
    1AU     LIG  236  16.402  30.577   7.565
    1AU     LIG  237  15.943  30.675   7.550
    1AU    AUSL  238  17.622  29.345   7.304
    1AU    AUSL  239  17.766  29.799   7.110
    1AU     AUL  240  17.463  29.658   7.157
    1AU       S  241  17.282  29.184   6.981
    1AU     LIG  242  16.951  29.550   7.042
    1AU     LIG  243  16.467  29.662   7.049
    1AU     LIG  244  15.983  29.712   7.110
    1AU     LIG  245  15.567  29.672   6.845
    1AU       S  246  17.579  30.071   6.911
    1AU     LIG  247  17.369  30.409   6.624
    1AU     LIG  248  17.328  30.830   6.365
    1AU     LIG  249  17.018  31.128   6.168
    1AU     LIG  250  16.528  31.152   6.159
    1AU    AUSL  251  17.424  29.385   7.694
    1AU    AUSL  252  17.383  29.018   7.410
    1AU     AUL  253  17.229  29.351   7.419
    1AU       S  254  17.183  28.945   7.679
    1AU     LIG  255  16.840  28.983   7.365
    1AU     LIG  256  16.446  28.753   7.146
    1AU     LIG  257  15.930  28.608   7.069
    1AU     LIG  258  15.553  28.261   6.997
    1AU       S  259  17.264  29.416   7.912
    1AU     LIG  260  16.833  29.473   7.746
    1AU     LIG  261  16.447  29.736   7.895
    1AU     LIG  262  15.972  29.690   7.909
    1AU     LIG  263  15.605  29.953   8.061
    1AU    AUSL  264  19.023  28.589   7.510
    1AU    AUSL  265  18.887  28.829   7.865
    1AU     AUL  266  19.221  28.731   7.899
    1AU       S  267  19.290  28.468   7.490
    1AU     LIG  268  19.660  28.160   7.456
    1AU     LIG  269  19.979  27.827   7.588
    1AU     LIG  270  20.351  27.511   7.554
    1AU     LIG  271  20.815  27.438   7.511
    1AU       S  272  19.103  28.293   7.939
    1AU     LIG  273  19.349  28.077   8.327
    1AU     LIG  274  19.548  27.800   8.659
    1AU     LIG  275  19.969  27.687   8.830
    1AU     LIG  276  20.410  27.525   8.906
    1AU    AUSL  277  19.021  28.966   7.305
    1AU    AUSL  278  18.924  28.527   7.101
    1AU     AUL  279  19.174  28.700   7.098
    1AU       S  280  19.543  28.816   7.306
    1AU     LIG  281  19.967  28.787   7.374
    1AU     LIG  282  20.133  28.372   7.353
    1AU     LIG  283  20.480  28.243   7.079
    1AU     LIG  284  20.915  28.274   7.035
    1AU       S  285  19.091  28.401   6.750
    1AU     LIG  286  19.233  27.955   6.820
    1AU     LIG  287  19.496  27.546   6.664
    1AU     LIG  288  19.804  27.232   6.404
    1AU     LIG  289  20.152  27.121   6.083
    1AU    AUSL  290  17.584  28.654   7.560
    1AU    AUSL  291  17.684  28.885   7.150
    1AU     AUL  292  17.332  28.719   7.281
    1AU       S  293  17.496  28.695   6.852
    1AU     LIG  294  17.076  28.484   6.803
    1AU     LIG  295  16.747  28.145   6.714
    1AU     LIG  296  16.423  27.968   6.414
    1AU     LIG  297  16.443  27.932   5.956
    1AU       S  298  17.156  28.710   7.722
    1AU     LIG  299  16.742  28.527   7.596
    1AU     LIG  300  16.485  28.159   7.744
    1AU     LIG  301  16.023  28.044   7.783
    1AU     LIG  302  15.703  27.713   7.966
    1AU    AUSL  303  17.651  29.036   7.751
    1AU    AUSL  304  17.905  28.662   7.839
    1AU     AUL  305  17.575  28.619   7.900
    1AU       S  306  17.626  28.451   8.325
    1AU     LIG  307  17.409  28.085   8.157
    1AU     LIG  308  17.058  27.722   8.149
    1AU     LIG  309  16.697  27.511   8.385
    1AU     LIG  310  16.445  27.234   8.714
    1AU       S  311  17.252  28.947   7.869
    1AU     LIG  312  16.745  28.970   7.895
    1AU     LIG  313  16.366  28.703   7.927
    1AU     LIG  314  15.910  28.601   7.897
    1AU     LIG  315  15.451  28.572   7.993
    1AU    AUSL  316  18.373  29.840   7.904
    1AU    AUSL  317  17.933  29.888   7.819
    1AU     AUL  318  18.188  29.977   8.178
    1AU       S  319  17.793  30.103   7.956
    1AU     LIG  320  17.485  30.309   8.302
    1AU     LIG  321  17.261  30.594   8.626
    1AU     LIG  322  17.057  31.009   8.819
    1AU     LIG  323  16.659  31.296   8.764
    1AU       S  324  18.410  30.331   7.965
    1AU     LIG  325  18.564  30.508   8.308
    1AU     LIG  326  18.580  30.959   8.418
    1AU     LIG  327  18.444  31.405   8.546
    1AU     LIG  328  18.508  31.856   8.684
    1AU    AUSL  329  18.210  30.102   7.597
    1AU    AUSL  330  18.496  30.064   7.231
    1AU     AUL  331  18.189  30.325   7.354
    1AU       S  332  18.250  30.322   7.819
    1AU     LIG  333  18.266  30.812   7.973
    1AU     LIG  334  18.411  31.275   8.044
    1AU     LIG  335  18.287  31.726   8.149
    1AU     LIG  336  17.841  31.893   8.204
    1AU       S  337  18.465  30.389   6.984
    1AU     LIG  338  18.803  30.647   6.930
    1AU     LIG  339  18.853  31.087   6.820
    1AU     LIG  340  18.803  31.528   6.817
    1AU     LIG  341  18.748  31.818   6.486
    1AU    AUSL  342  18.648  30.041   7.629
    1AU    AUSL  343  18.659  29.738   8.191
    1AU     AUL  344  18.734  30.005   7.977
    1AU       S  345  18.897  29.823   8.401
    1AU     LIG  346  19.288  29.862   8.706
    1AU     LIG  347  19.617  30.195   8.812
    1AU     LIG  348  19.852  30.533   9.050
    1AU     LIG  349  19.777  30.875   9.370
    1AU       S  350  18.598  30.368   7.686
    1AU     LIG  351  18.775  30.785   7.921
    1AU     LIG  352  18.920  31.221   8.119
    1AU     LIG  353  18.800  31.678   8.279
    1AU     LIG  354  18.929  32.109   8.451
    1AU    AUSL  355  18.293  28.464   7.932
    1AU    AUSL  356  18.701  28.456   7.755
    1AU     AUL  357  18.527  28.317   8.131
    1AU       S  358  18.257  27.964   7.991
    1AU     LIG  359  18.087  27.546   8.166
    1AU     LIG  360  18.069  27.102   8.302
    1AU     LIG  361  18.382  26.855   8.496
    1AU     LIG  362  18.430  26.453   8.693
    1AU       S  363  18.868  28.232   7.804
    1AU     LIG  364  18.978  27.813   8.087
    1AU     LIG  365  19.259  27.469   8.370
    1AU     LIG  366  19.574  27.262   8.710
    1AU     LIG  367  20.029  27.174   8.837
    1AU    AUSL  368  17.964  28.291   7.666
    1AU    AUSL  369  18.070  28.612   8.250
    1AU     AUL  370  17.959  28.330   8.024
    1AU       S  371  18.061  27.912   7.822
    1AU     LIG  372  17.919  27.476   7.688
    1AU     LIG  373  17.763  27.097   7.896
    1AU     LIG  374  17.628  26.774   8.201
    1AU     LIG  375  17.401  26.389   8.354
    1AU       S  376  17.857  28.504   8.459
    1AU     LIG  377  17.591  28.135   8.684
    1AU     LIG  378  17.267  27.811   8.605
    1AU     LIG  379  17.021  27.452   8.773
    1AU     LIG  380  16.863  27.248   9.158
    1AU    AUSL  381  18.392  28.212   7.604
    1AU    AUSL  382  18.155  28.457   7.322
    1AU     AUL  383  18.040  28.114   7.405
    1AU       S  384  18.417  27.997   7.180
    1AU     LIG  385  18.087  27.640   7.230
    1AU     LIG  386  17.860  27.259   7.053
    1AU     LIG  387  17.848  26.839   6.852
    1AU     LIG  388  18.101  26.566   6.589
    1AU       S  389  18.398  28.007   7.733
    1AU     LIG  390  18.423  27.535   7.731
    1AU     LIG  391  18.325  27.083   7.855
    1AU     LIG  392  18.478  26.654   8.034
    1AU     LIG  393  18.469  26.227   8.237
    1AU    AUSL  394  18.330  29.884   6.867
    1AU    AUSL  395  18.845  29.833   7.273
    1AU     AUL  396  18.674  29.990   6.928
    1AU       S  397  18.308  30.159   6.679
    1AU     LIG  398  18.561  30.512   6.487
    1AU     LIG  399  18.595  30.983   6.380
    1AU     LIG  400  18.477  31.421   6.224
    1AU     LIG  401  18.316  31.841   6.071
    1AU       S  402  19.067  30.012   7.158
    1AU     LIG  403  19.545  30.111   6.937
    1AU     LIG  404  19.863  30.230   6.568
    1AU     LIG  405  20.154  30.541   6.297
    1AU     LIG  406  20.223  31.030   6.273
    1AU    AUSL  407  18.143  29.836   7.286
    1AU    AUSL  408  18.088  29.558   6.947
    1AU     AUL  409  18.021  29.997   7.030
    1AU       S  410  18.255  30.361   6.890
    1AU     LIG  411  18.326  30.841   6.810
    1AU     LIG  412  18.352  31.299   6.729
    1AU     LIG  413  18.213  31.717   6.567
    1AU     LIG  414  17.954  32.118   6.494
    1AU       S  415  17.887  29.801   6.636
    1AU     LIG  416  17.631  30.078   6.331
    1AU     LIG  417  17.346  30.381   6.089
    1AU     LIG  418  17.197  30.622   5.713
    1AU     LIG  419  17.331  30.696   5.254
    1AU    AUSL  420  18.335  28.400   6.930
    1AU    AUSL  421  17.749  28.457   7.223
    1AU     AUL  422  18.001  28.302   6.975
    1AU       S  423  17.544  28.408   6.999
    1AU     LIG  424  17.257  28.025   6.955
    1AU     LIG  425  16.946  27.678   6.840
    1AU     LIG  426  16.706  27.542   6.473
    1AU     LIG  427  16.335  27.483   6.194
    1AU       S  428  18.376  28.003   6.993
    1AU     LIG  429  18.348  27.581   6.790
    1AU     LIG  430  18.205  27.157   6.638
    1AU     LIG  431  18.178  26.915   6.238
    1AU     LIG  432  18.049  26.489   6.080
    1AU    AUSL  433  18.579  28.433   7.304
    1AU    AUSL  434  18.580  28.738   6.942
    1AU     AUL  435  18.671  28.358   6.939
    1AU       S  436  18.665  28.032   7.269
    1AU     LIG  437  18.588  27.536   7.241
    1AU     LIG  438  18.351  27.120   7.142
    1AU     LIG  439  18.265  26.633   7.063
    1AU     LIG  440  18.492  26.292   6.790
    1AU       S  441  18.804  28.551   6.550
    1AU     LIG  442  18.802  28.078   6.517
    1AU     LIG  443  19.139  27.790   6.344
    1AU     LIG  444  19.538  27.622   6.152
    1AU     LIG  445  19.738  27.323   5.870
    2AU     AUC  446   6.168  18.449   7.489
    2AU     AUC  447   6.449  18.453   7.316
    2AU     AUC  448   6.433  18.424   7.667
    2AU     AUC  449   5.885  18.450   7.316
    2AU     AUC  450   5.897  18.490   7.665
    2AU     AUC  451   6.008  18.739   7.478
    2AU     AUC  452   6.362  18.725   7.479
    2AU     AUC  453   5.975  18.182   7.494
    2AU     AUC  454   6.329  18.152   7.489
    2AU     AUC  455   6.162  18.273   7.764
    2AU     AUC  456   6.167  18.641   7.749
    2AU     AUC  457   6.165  18.281   7.214
    2AU     AUC  458   6.191  18.602   7.213
    2AU     AUC  459   6.763  18.457   7.152
    2AU     AUC  460   6.773  18.409   7.512
    2AU     AUC  461   6.718  18.392   7.865
    2AU     AUC  462   5.588  18.442   7.142
    2AU     AUC  463   5.561  18.491   7.504
    2AU     AUC  464   5.611  18.529   7.847
    2AU     AUC  465   5.852  19.048   7.453
    2AU     AUC  466   6.223  19.070   7.445
    2AU     AUC  467   6.556  19.002   7.477
    2AU     AUC  468   5.771  17.913   7.501
    2AU     AUC  469   6.123  17.846   7.482
    2AU     AUC  470   6.490  17.849   7.474
    2AU     AUC  471   6.134  18.099   8.056
    2AU     AUC  472   6.158  18.461   8.083
    2AU     AUC  473   6.195  18.817   8.041
    2AU     AUC  474   6.192  18.105   6.939
    2AU     AUC  475   6.185  18.439   6.878
    2AU     AUC  476   6.176  18.768   6.912
    2AU     AUC  477   6.429  18.213   7.985
    2AU     AUC  478   6.474  18.591   7.982
    2AU     AUC  479   6.502  18.302   6.988
    2AU     AUC  480   6.497  18.627   7.022
    2AU     AUC  481   5.854  18.337   7.997
    2AU     AUC  482   5.891  18.712   7.969
    2AU     AUC  483   5.869  18.260   7.027
    2AU     AUC  484   5.857  18.581   6.978
    2AU     AUC  485   6.710  18.728   7.340
    2AU     AUC  486   6.649  18.694   7.689
    2AU     AUC  487   5.692  18.756   7.292
    2AU     AUC  488   5.705  18.809   7.648
    2AU     AUC  489   6.639  18.134   7.320
    2AU     AUC  490   6.614  18.090   7.679
    2AU     AUC  491   5.642  18.156   7.346
    2AU     AUC  492   5.691  18.211   7.700
    2AU     AUC  493   6.035  18.985   7.743
    2AU     AUC  494   6.376  18.926   7.765
    2AU     AUC  495   5.958  17.986   7.792
    2AU     AUC  496   6.286  17.925   7.766
    2AU     AUC  497   6.009  18.893   7.175
    2AU     AUC  498   6.378  18.931   7.189
    2AU     AUC  499   5.968  17.975   7.199
    2AU     AUC  500   6.361  17.983   7.194
    2AU    AUSL  501   6.678  18.317   8.240
    2AU    AUSL  502   6.425  17.927   8.147
    2AU     AUL  503   6.656  17.908   8.447
    2AU       S  504   6.801  17.643   8.103
    2AU     LIG  505   6.691  17.336   8.391
    2AU     LIG  506   6.941  17.120   8.717
    2AU     LIG  507   7.252  16.868   8.936
    2AU     LIG  508   7.491  16.648   9.252
    2AU       S  509   6.872  18.289   8.337
    2AU     LIG  510   6.744  18.317   8.790
    2AU     LIG  511   6.930  18.356   9.223
    2AU     LIG  512   7.180  18.130   9.566
    2AU     LIG  513   7.497  18.008   9.904
    2AU    AUSL  514   6.269  18.255   8.388
    2AU    AUSL  515   6.036  18.659   8.404
    2AU     AUL  516   6.229  18.571   8.733
    2AU       S  517   6.305  18.185   8.516
    2AU     LIG  518   6.300  18.105   8.940
    2AU     LIG  519   6.580  17.986   9.293
    2AU     LIG  520   6.762  17.839   9.706
    2AU     LIG  521   6.770  17.640  10.139
    2AU       S  522   5.819  18.408   8.617
    2AU     LIG  523   5.876  18.418   9.085
    2AU     LIG  524   5.603  18.423   9.463
    2AU     LIG  525   5.448  18.449   9.903
    2AU     LIG  526   5.345  18.669  10.303
    2AU    AUSL  527   6.361  18.619   8.148
    2AU    AUSL  528   6.803  18.708   8.104
    2AU     AUL  529   6.583  18.629   8.441
    2AU       S  530   6.272  19.019   8.580
    2AU     LIG  531   6.632  18.867   8.888
    2AU     LIG  532   6.743  18.837   9.371
    2AU     LIG  533   6.699  18.931   9.867
    2AU     LIG  534   6.731  19.014  10.355
    2AU       S  535   6.975  18.838   8.290
    2AU     LIG  536   7.406  18.930   8.323
    2AU     LIG  537   7.683  19.197   8.590
    2AU     LIG  538   7.922  19.509   8.855
    2AU     LIG  539   8.120  19.729   9.218
    2AU    AUSL  540   6.717  18.582   6.759
    2AU    AUSL  541   6.496  18.904   6.959
    2AU     AUL  542   6.625  18.961   6.621
    2AU       S  543   6.680  18.629   6.313
    2AU     LIG  544   7.060  18.470   6.135
    2AU     LIG  545   7.110  18.186   5.808
    2AU     LIG  546   7.158  18.083   5.380
    2AU     LIG  547   7.356  18.117   4.968
    2AU       S  548   6.968  19.147   6.871
    2AU     LIG  549   7.004  19.384   6.478
    2AU     LIG  550   7.218  19.612   6.082
    2AU     LIG  551   7.514  19.821   5.743
    2AU     LIG  552   7.869  20.008   5.464
    2AU    AUSL  553   6.489  18.253   6.603
    2AU    AUSL  554   6.839  18.203   6.917
    2AU     AUL  555   6.906  18.337   6.612
    2AU       S  556   6.963  17.880   6.686
    2AU     LIG  557   7.170  17.576   6.373
    2AU     LIG  558   7.456  17.180   6.330
    2AU     LIG  559   7.893  17.058   6.139
    2AU     LIG  560   8.261  17.320   5.940
    2AU       S  561   6.586  18.485   6.296
    2AU     LIG  562   6.678  18.096   6.114
    2AU     LIG  563   6.716  17.880   5.676
    2AU     LIG  564   6.745  17.849   5.194
    2AU     LIG  565   6.946  17.877   4.761
    2AU    AUSL  566   6.294  18.633   6.687
    2AU    AUSL  567   6.075  18.236   6.717
    2AU     AUL  568   6.226  18.245   6.433
    2AU       S  569   5.795  18.268   6.280
    2AU     LIG  570   5.907  18.114   5.893
    2AU     LIG  571   5.702  17.860   5.567
    2AU     LIG  572   5.538  17.847   5.137
    2AU     LIG  573   5.249  17.931   4.776
    2AU       S  574   6.343  18.692   6.349
    2AU     LIG  575   6.374  18.468   5.866
    2AU     LIG  576   6.690  18.353   5.486
    2AU     LIG  577   6.864  18.328   5.033
    2AU     LIG  578   6.918  18.454   4.586
    2AU    AUSL  579   5.637  18.615   8.229
    2AU    AUSL  580   5.923  18.962   8.123
    2AU     AUL  581   5.795  18.899   8.463
    2AU       S  582   5.621  18.502   8.656
    2AU     LIG  583   5.390  18.260   8.933
    2AU     LIG  584   5.149  18.206   9.336
    2AU     LIG  585   4.973  18.272   9.766
    2AU     LIG  586   4.635  18.405  10.078
    2AU       S  587   5.563  19.194   8.174
    2AU     LIG  588   5.652  19.413   8.527
    2AU     LIG  589   5.477  19.504   8.945
    2AU     LIG  590   5.150  19.671   9.233
    2AU     LIG  591   4.922  19.669   9.649
    2AU    AUSL  592   5.929  18.318   8.147
    2AU    AUSL  593   5.511  18.202   8.120
    2AU     AUL  594   5.417  18.436   8.250
    2AU       S  595   5.407  17.987   8.393
    2AU     LIG  596   4.953  18.016   8.254
    2AU     LIG  597   4.592  17.700   8.341
    2AU     LIG  598   4.540  17.350   8.680
    2AU     LIG  599   4.287  17.011   8.913
    2AU       S  600   5.800  18.270   8.534
    2AU     LIG  601   5.811  17.965   8.876
    2AU     LIG  602   5.608  17.940   9.281
    2AU     LIG  603   5.430  17.971   9.709
    2AU     LIG  604   5.553  17.891  10.150
    2AU    AUSL  605   5.653  18.307   6.754
    2AU    AUSL  606   5.846  17.963   6.945
    2AU     AUL  607   5.890  17.944   6.612
    2AU       S  608   5.629  18.198   6.335
    2AU     LIG  609   5.259  18.146   6.170
    2AU     LIG  610   5.236  18.060   5.726
    2AU     LIG  611   5.124  18.117   5.287
    2AU     LIG  612   4.805  18.148   4.958
    2AU       S  613   5.463  17.856   6.763
    2AU     LIG  614   5.452  17.499   6.528
    2AU     LIG  615   5.118  17.212   6.366
    2AU     LIG  616   4.887  16.813   6.244
    2AU     LIG  617   4.530  16.611   6.019
    2AU    AUSL  618   5.887  18.621   6.582
    2AU    AUSL  619   5.528  18.703   6.878
    2AU     AUL  620   5.444  18.513   6.601
    2AU       S  621   5.525  18.955   6.631
    2AU     LIG  622   5.117  19.057   6.553
    2AU     LIG  623   4.905  19.308   6.206
    2AU     LIG  624   4.620  19.572   5.926
    2AU     LIG  625   4.142  19.633   5.827
    2AU       S  626   5.842  18.543   6.330
    2AU     LIG  627   5.565  18.507   5.915
    2AU     LIG  628   5.576  18.349   5.465
    2AU     LIG  629   5.487  18.351   5.001
    2AU     LIG  630   5.362  18.410   4.553
    2AU    AUSL  631   6.979  18.915   7.525
    2AU    AUSL  632   6.881  18.738   7.116
    2AU     AUL  633   7.250  19.000   7.284
    2AU       S  634   6.994  18.914   6.923
    2AU     LIG  635   7.119  18.848   6.497
    2AU     LIG  636   7.404  19.141   6.256
    2AU     LIG  637   7.709  19.448   6.077
    2AU     LIG  638   8.015  19.654   5.799
    2AU       S  639   7.348  18.780   7.690
    2AU     LIG  640   7.753  18.919   7.541
    2AU     LIG  641   8.197  19.090   7.510
    2AU     LIG  642   8.565  19.376   7.526
    2AU     LIG  643   8.645  19.840   7.576
    2AU    AUSL  644   7.138  18.515   7.367
    2AU    AUSL  645   7.086  18.192   7.691
    2AU     AUL  646   7.473  18.289   7.649
    2AU       S  647   7.248  18.556   7.381
    2AU     LIG  648   7.627  18.596   7.150
    2AU     LIG  649   8.088  18.756   7.117
    2AU     LIG  650   8.541  18.984   7.114
    2AU     LIG  651   8.925  19.074   6.849
    2AU       S  652   7.317  17.851   7.610
    2AU     LIG  653   7.650  17.790   7.857
    2AU     LIG  654   8.114  17.730   7.857
    2AU     LIG  655   8.564  17.843   7.920
    2AU     LIG  656   8.934  17.804   8.232
    2AU    AUSL  657   6.874  18.552   7.725
    2AU    AUSL  658   6.636  18.947   7.779
    2AU     AUL  659   6.958  18.987   7.838
    2AU       S  660   6.952  19.150   8.264
    2AU     LIG  661   7.291  19.446   8.354
    2AU     LIG  662   7.643  19.741   8.487
    2AU     LIG  663   7.957  20.048   8.668
    2AU     LIG  664   8.090  20.221   9.068
    2AU       S  665   7.209  18.607   7.857
    2AU     LIG  666   7.690  18.626   8.000
    2AU     LIG  667   8.132  18.747   7.895
    2AU     LIG  668   8.592  18.877   7.908
    2AU     LIG  669   8.984  19.135   8.006
    2AU    AUSL  670   5.509  19.033   7.483
    2AU    AUSL  671   5.593  18.827   7.871
    2AU     AUL  672   5.288  19.138   7.743
    2AU       S  673   5.413  19.011   8.167
    2AU     LIG  674   5.309  19.033   8.612
    2AU     LIG  675   5.008  19.295   8.879
    2AU     LIG  676   4.692  19.638   8.998
    2AU     LIG  677   4.380  20.016   9.031
    2AU       S  678   5.501  19.401   7.404
    2AU     LIG  679   5.006  19.292   7.355
    2AU     LIG  680   4.540  19.503   7.443
    2AU     LIG  681   4.211  19.883   7.541
    2AU     LIG  682   4.010  20.241   7.803
    2AU    AUSL  683   5.461  18.649   7.285
    2AU    AUSL  684   5.610  19.082   7.077
    2AU     AUL  685   5.307  18.949   7.114
    2AU       S  686   5.118  18.494   6.956
    2AU     LIG  687   4.798  18.845   6.921
    2AU     LIG  688   4.317  18.964   6.841
    2AU     LIG  689   3.888  19.201   6.802
    2AU     LIG  690   3.495  19.465   6.869
    2AU       S  691   5.417  19.351   6.861
    2AU     LIG  692   5.245  19.579   6.481
    2AU     LIG  693   4.954  19.865   6.208
    2AU     LIG  694   4.726  20.286   6.099
    2AU     LIG  695   4.637  20.771   6.135
    2AU    AUSL  696   5.254  18.692   7.673
    2AU    AUSL  697   5.212  18.327   7.382
    2AU     AUL  698   5.071  18.671   7.400
    2AU       S  699   4.960  18.250   7.626
    2AU     LIG  700   4.586  17.992   7.373
    2AU     LIG  701   4.177  17.910   7.156
    2AU     LIG  702   3.759  17.783   7.286
    2AU     LIG  703   3.341  17.908   7.109
    2AU       S  704   5.126  18.696   7.908
    2AU     LIG  705   4.731  18.845   7.769
    2AU     LIG  706   4.304  19.002   7.954
    2AU     LIG  707   3.993  19.358   8.121
    2AU     LIG  708   3.522  19.531   8.188
    2AU    AUSL  709   6.852  17.859   7.538
    2AU    AUSL  710   6.711  18.110   7.878
    2AU     AUL  711   7.039  18.034   7.939
    2AU       S  712   7.080  17.732   7.530
    2AU     LIG  713   7.438  17.394   7.498
    2AU     LIG  714   7.916  17.401   7.471
    2AU     LIG  715   8.214  17.045   7.612
    2AU     LIG  716   8.352  16.681   7.940
    2AU       S  717   6.900  17.604   7.974
    2AU     LIG  718   7.193  17.427   8.327
    2AU     LIG  719   7.476  17.173   8.596
    2AU     LIG  720   7.745  16.848   8.808
    2AU     LIG  721   8.000  16.734   9.178
    2AU    AUSL  722   6.833  18.236   7.333
    2AU    AUSL  723   6.771  17.823   7.125
    2AU     AUL  724   7.050  18.044   7.153
    2AU       S  725   7.355  17.883   7.428
    2AU     LIG  726   7.620  17.693   7.101
    2AU     LIG  727   8.100  17.659   7.016
    2AU     LIG  728   8.439  17.676   6.691
    2AU     LIG  729   8.935  17.721   6.743
    2AU       S  730   6.984  17.678   6.850
    2AU     LIG  731   7.093  17.230   6.739
    2AU     LIG  732   7.116  16.763   6.614
    2AU     LIG  733   7.416  16.410   6.433
    2AU     LIG  734   7.700  16.263   6.077
    2AU    AUSL  735   5.396  17.958   7.543
    2AU    AUSL  736   5.520  18.185   7.133
    2AU     AUL  737   5.163  18.038   7.246
    2AU       S  738   5.324  17.990   6.819
    2AU     LIG  739   5.013  17.810   6.516
    2AU     LIG  740   4.675  17.479   6.448
    2AU     LIG  741   4.439  17.077   6.294
    2AU     LIG  742   4.064  16.823   6.113
    2AU       S  743   4.976  17.978   7.674
    2AU     LIG  744   4.679  17.588   7.676
    2AU     LIG  745   4.344  17.452   7.356
    2AU     LIG  746   3.954  17.262   7.141
    2AU     LIG  747   3.560  17.059   7.401
    2AU    AUSL  748   5.471  18.341   7.729
    2AU    AUSL  749   5.714  17.964   7.827
    2AU     AUL  750   5.376  17.957   7.894
    2AU       S  751   5.405  17.767   8.307
    2AU     LIG  752   5.038  17.535   8.104
    2AU     LIG  753   4.658  17.226   8.162
    2AU     LIG  754   4.390  16.909   8.408
    2AU     LIG  755   4.100  16.605   8.654
    2AU       S  756   5.019  18.244   7.812
    2AU     LIG  757   4.556  18.013   7.913
    2AU     LIG  758   4.187  17.843   7.665
    2AU     LIG  759   3.736  17.821   7.806
    2AU     LIG  760   3.267  17.812   7.952
    2AU    AUSL  761   6.227  19.150   7.892
    2AU    AUSL  762   5.798  19.185   7.765
    2AU     AUL  763   6.026  19.269   8.157
    2AU       S  764   5.663  19.387   7.885
    2AU     LIG  765   5.305  19.601   8.159
    2AU     LIG  766   5.145  19.713   8.602
    2AU     LIG  767   4.933  20.067   8.847
    2AU     LIG  768   4.625  20.423   8.812
    2AU       S  769   6.272  19.602   7.959
    2AU     LIG  770   6.300  19.697   8.351
    2AU     LIG  771   6.318  20.143   8.480
    2AU     LIG  772   6.364  20.611   8.548
    2AU     LIG  773   6.633  20.934   8.749
    2AU    AUSL  774   6.091  19.411   7.566
    2AU    AUSL  775   6.355  19.315   7.219
    2AU     AUL  776   6.366  19.669   7.367
    2AU       S  777   6.098  19.623   7.768
    2AU     LIG  778   6.204  20.096   7.961
    2AU     LIG  779   6.210  20.569   8.059
    2AU     LIG  780   5.912  20.875   8.236
    2AU     LIG  781   5.705  21.210   8.453
    2AU       S  782   6.147  19.608   6.973
    2AU     LIG  783   6.606  19.781   6.946
    2AU     LIG  784   6.730  20.230   6.872
    2AU     LIG  785   6.795  20.687   6.756
    2AU     LIG  786   7.111  21.058   6.818
    2AU    AUSL  787   6.522  19.315   7.620
    2AU    AUSL  788   6.492  19.013   8.186
    2AU     AUL  789   6.599  19.267   7.977
    2AU       S  790   6.738  19.087   8.411
    2AU     LIG  791   7.100  19.140   8.736
    2AU     LIG  792   7.383  19.509   8.872
    2AU     LIG  793   7.628  19.884   9.047
    2AU     LIG  794   7.744  19.942   9.493
    2AU       S  795   6.458  19.674   7.817
    2AU     LIG  796   6.680  19.939   8.098
    2AU     LIG  797   6.680  20.381   8.202
    2AU     LIG  798   6.694  20.841   8.197
    2AU     LIG  799   6.964  21.197   8.310
    2AU    AUSL  800   6.096  17.753   7.929
    2AU    AUSL  801   6.509  17.746   7.759
    2AU     AUL  802   6.334  17.606   8.136
    2AU       S  803   6.040  17.279   7.988
    2AU     LIG  804   6.185  17.094   8.350
    2AU     LIG  805   6.178  16.640   8.441
    2AU     LIG  806   5.971  16.225   8.480
    2AU     LIG  807   6.047  15.774   8.473
    2AU       S  808   6.681  17.509   7.821
    2AU     LIG  809   7.010  17.134   7.943
    2AU     LIG  810   7.159  16.878   8.326
    2AU     LIG  811   7.395  16.535   8.570
    2AU     LIG  812   7.683  16.324   8.895
    2AU    AUSL  813   5.779  17.595   7.651
    2AU    AUSL  814   5.871  17.919   8.240
    2AU     AUL  815   5.741  17.644   8.009
    2AU       S  816   5.856  17.224   7.837
    2AU     LIG  817   5.605  16.828   7.799
    2AU     LIG  818   5.574  16.366   7.892
    2AU     LIG  819   5.651  15.959   8.101
    2AU     LIG  820   5.628  15.538   8.299
    2AU       S  821   5.659  17.817   8.440
    2AU     LIG  822   5.443  17.410   8.625
    2AU     LIG  823   5.025  17.203   8.545
    2AU     LIG  824   4.765  16.881   8.770
    2AU     LIG  825   4.614  16.707   9.190
    2AU    AUSL  826   6.208  17.499   7.602
    2AU    AUSL  827   5.987  17.736   7.305
    2AU     AUL  828   5.848  17.401   7.407
    2AU       S  829   6.198  17.286   7.147
    2AU     LIG  830   5.856  16.960   7.134
    2AU     LIG  831   5.722  16.488   7.125
    2AU     LIG  832   5.522  16.126   6.882
    2AU     LIG  833   5.378  15.682   6.749
    2AU       S  834   6.193  17.301   7.734
    2AU     LIG  835   6.112  16.813   7.743
    2AU     LIG  836   6.069  16.393   7.998
    2AU     LIG  837   6.384  16.081   8.198
    2AU     LIG  838   6.534  15.626   8.334
    2AU    AUSL  839   6.180  19.157   6.847
    2AU    AUSL  840   6.714  19.111   7.266
    2AU     AUL  841   6.515  19.290   6.928
    2AU       S  842   6.148  19.541   6.747
    2AU     LIG  843   6.358  19.887   6.522
    2AU     LIG  844   6.472  20.333   6.441
    2AU     LIG  845   6.309  20.760   6.319
    2AU     LIG  846   6.195  20.954   5.887
    2AU       S  847   6.904  19.274   7.165
    2AU     LIG  848   7.235  19.551   6.930
    2AU     LIG  849   7.480  19.630   6.526
    2AU     LIG  850   7.666  19.950   6.218
    2AU     LIG  851   7.825  20.289   5.918
    2AU    AUSL  852   5.972  19.142   7.270
    2AU    AUSL  853   5.937  18.833   6.937
    2AU     AUL  854   5.859  19.220   6.919
    2AU       S  855   5.947  19.611   7.139
    2AU     LIG  856   6.183  20.090   6.985
    2AU     LIG  857   6.260  20.563   6.846
    2AU     LIG  858   6.048  20.998   6.743
    2AU     LIG  859   5.683  21.245   6.540
    2AU       S  860   5.671  19.049   6.549
    2AU     LIG  861   5.448  19.213   6.178
    2AU     LIG  862   5.258  19.561   5.922
    2AU     LIG  863   5.094  19.894   5.620
    2AU     LIG  864   5.208  20.247   5.303
    2AU    AUSL  865   6.176  17.697   6.914
    2AU    AUSL  866   5.578  17.757   7.218
    2AU     AUL  867   5.826  17.590   6.971
    2AU       S  868   5.369  17.710   6.985
    2AU     LIG  869   5.031  17.412   6.844
    2AU     LIG  870   4.762  17.016   6.706
    2AU     LIG  871   4.503  16.613   6.554
    2AU     LIG  872   4.179  16.354   6.304
    2AU       S  873   6.207  17.311   6.927
    2AU     LIG  874   6.105  17.016   6.664
    2AU     LIG  875   5.993  16.602   6.697
    2AU     LIG  876   6.015  16.155   6.614
    2AU     LIG  877   6.056  15.870   6.235
    2AU    AUSL  878   6.413  17.697   7.295
    2AU    AUSL  879   6.433  18.024   6.947
    2AU     AUL  880   6.528  17.644   6.937
    2AU       S  881   6.373  17.302   7.213
    2AU     LIG  882   6.334  16.810   7.097
    2AU     LIG  883   6.258  16.348   7.054
    2AU     LIG  884   6.280  15.876   6.968
    2AU     LIG  885   6.414  15.451   6.811
    2AU       S  886   6.734  17.856   6.591
    2AU     LIG  887   6.682  17.437   6.467
    2AU     LIG  888   6.941  17.097   6.264
    2AU     LIG  889   7.226  16.775   6.086
    2AU     LIG  890   7.294  16.459   5.756
    3AU     AUC  891  10.800   0.173   7.491
    3AU     AUC  892  11.088   0.188   7.327
    3AU     AUC  893  11.057   0.162   7.676
    3AU     AUC  894  10.521   0.159   7.316
    3AU     AUC  895  10.523   0.204   7.665
    3AU     AUC  896  10.625   0.454   7.478
    3AU     AUC  897  10.981   0.457   7.483
    3AU     AUC  898  10.618  44.898   7.492
    3AU     AUC  899  10.972  44.881   7.498
    3AU     AUC  900  10.792  44.996   7.768
    3AU     AUC  901  10.781   0.364   7.751
    3AU     AUC  902  10.815   0.004   7.215
    3AU     AUC  903  10.827   0.330   7.213
    3AU     AUC  904  11.412   0.203   7.177
    3AU     AUC  905  11.405   0.158   7.534
    3AU     AUC  906  11.333   0.143   7.884
    3AU     AUC  907  10.222   0.145   7.139
    3AU     AUC  908  10.191   0.188   7.502
    3AU     AUC  909  10.228   0.233   7.841
    3AU     AUC  910  10.457   0.755   7.445
    3AU     AUC  911  10.824   0.787   7.435
    3AU     AUC  912  11.163   0.741   7.477
    3AU     AUC  913  10.426  44.621   7.489
    3AU     AUC  914  10.779  44.568   7.484
    3AU     AUC  915  11.145  44.582   7.492
    3AU     AUC  916  10.762  44.819   8.059
    3AU     AUC  917  10.769   0.185   8.086
    3AU     AUC  918  10.794   0.543   8.041
    3AU     AUC  919  10.858  44.834   6.941
    3AU     AUC  920  10.844   0.161   6.882
    3AU     AUC  921  10.815   0.480   6.918
    3AU     AUC  922  11.048  44.950   7.999
    3AU     AUC  923  11.083   0.333   7.992
    3AU     AUC  924  11.166   0.034   7.007
    3AU     AUC  925  11.148   0.365   7.039
    3AU     AUC  926  10.476   0.044   7.993
    3AU     AUC  927  10.495   0.423   7.968
    3AU     AUC  928  10.522  44.977   7.023
    3AU     AUC  929  10.493   0.289   6.977
    3AU     AUC  930  11.336   0.477   7.354
    3AU     AUC  931  11.260   0.440   7.701
    3AU     AUC  932  10.304   0.457   7.302
    3AU     AUC  933  10.318   0.519   7.654
    3AU     AUC  934  11.293  44.874   7.345
    3AU     AUC  935  11.246  44.829   7.701
    3AU     AUC  936  10.289  44.861   7.333
    3AU     AUC  937  10.327  44.914   7.693
    3AU     AUC  938  10.633   0.703   7.738
    3AU     AUC  939  10.976   0.660   7.765
    3AU     AUC  940  10.602  44.696   7.790
    3AU     AUC  941  10.927  44.648   7.776
    3AU     AUC  942  10.620   0.603   7.167
    3AU     AUC  943  11.003   0.653   7.186
    3AU     AUC  944  10.627  44.697   7.194
    3AU     AUC  945  11.022  44.717   7.205
    3AU    AUSL  946  11.287   0.067   8.263
    3AU    AUSL  947  11.047  44.665   8.165
    3AU     AUL  948  11.263  44.665   8.494
    3AU       S  949  11.435  44.414   8.157
    3AU     LIG  950  11.587  44.206   8.527
    3AU     LIG  951  11.711  43.775   8.558
    3AU     LIG  952  11.704  43.520   8.942
    3AU     LIG  953  11.865  43.774   9.291
    3AU       S  954  11.471   0.043   8.361
    3AU     LIG  955  11.385   0.074   8.817
    3AU     LIG  956  11.642   0.006   9.237
    3AU     LIG  957  11.944  44.860   9.594
    3AU     LIG  958  12.165  44.882  10.017
    3AU    AUSL  959  10.878  44.990   8.397
    3AU    AUSL  960  10.626   0.372   8.404
    3AU     AUL  961  10.813   0.311   8.739
    3AU       S  962  10.901  44.930   8.519
    3AU     LIG  963  10.932  44.852   8.926
    3AU     LIG  964  11.223  44.711   9.229
    3AU     LIG  965  11.470  44.645   9.615
    3AU     LIG  966  11.706  44.630  10.017
    3AU       S  967  10.421   0.113   8.609
    3AU     LIG  968  10.468   0.106   9.067
    3AU     LIG  969  10.190   0.113   9.429
    3AU     LIG  970   9.998   0.169   9.849
    3AU     LIG  971   9.933   0.489  10.193
    3AU    AUSL  972  10.961   0.356   8.158
    3AU    AUSL  973  11.400   0.459   8.119
    3AU     AUL  974  11.173   0.377   8.455
    3AU       S  975  10.835   0.755   8.572
    3AU     LIG  976  11.199   0.647   8.880
    3AU     LIG  977  11.387   0.705   9.318
    3AU     LIG  978  11.380   0.815   9.798
    3AU     LIG  979  11.401   1.064  10.210
    3AU       S  980  11.565   0.596   8.320
    3AU     LIG  981  11.983   0.734   8.236
    3AU     LIG  982  12.202   1.015   8.538
    3AU     LIG  983  12.441   1.296   8.838
    3AU     LIG  984  12.658   1.372   9.252
    3AU    AUSL  985  11.382   0.313   6.790
    3AU    AUSL  986  11.153   0.653   6.955
    3AU     AUL  987  11.297   0.677   6.632
    3AU       S  988  11.365   0.357   6.313
    3AU     LIG  989  11.731   0.174   6.154
    3AU     LIG  990  11.818  44.820   5.896
    3AU     LIG  991  11.899  44.748   5.447
    3AU     LIG  992  12.070  44.839   5.017
    3AU       S  993  11.598   0.922   6.884
    3AU     LIG  994  11.633   1.072   6.465
    3AU     LIG  995  11.846   1.260   6.083
    3AU     LIG  996  12.193   1.516   5.943
    3AU     LIG  997  12.396   1.864   5.722
    3AU    AUSL  998  11.164  44.984   6.614
    3AU    AUSL  999  11.522  44.944   6.954
    3AU     AUL 1000  11.572   0.076   6.636
    3AU       S 1001  11.683  44.639   6.752
    3AU     LIG 1002  11.959  44.427   6.456
    3AU     LIG 1003  12.099  44.023   6.253
    3AU     LIG 1004  12.243  43.814   5.836
    3AU     LIG 1005  12.643  43.611   5.680
    3AU       S 1006  11.251   0.234   6.328
    3AU     LIG 1007  11.338  44.830   6.151
    3AU     LIG 1008  11.379  44.610   5.733
    3AU     LIG 1009  11.419  44.665   5.276
    3AU     LIG 1010  11.594  44.713   4.843
    3AU    AUSL 1011  10.959   0.350   6.724
    3AU    AUSL 1012  10.744  44.956   6.711
    3AU     AUL 1013  10.901  44.967   6.438
    3AU       S 1014  10.455  44.983   6.283
    3AU     LIG 1015  10.582  44.793   5.937
    3AU     LIG 1016  10.282  44.665   5.617
    3AU     LIG 1017  10.078  44.639   5.198
    3AU     LIG 1018  10.025  44.649   4.725
    3AU       S 1019  11.021   0.416   6.359
    3AU     LIG 1020  11.032   0.178   5.906
    3AU     LIG 1021  11.434   0.100   5.623
    3AU     LIG 1022  11.648   0.124   5.185
    3AU     LIG 1023  11.770   0.187   4.723
    3AU    AUSL 1024  10.235   0.307   8.216
    3AU    AUSL 1025  10.527   0.675   8.121
    3AU     AUL 1026  10.377   0.598   8.447
    3AU       S 1027  10.209   0.197   8.642
    3AU     LIG 1028  10.010  44.871   8.881
    3AU     LIG 1029   9.789  44.806   9.299
    3AU     LIG 1030   9.594  44.853   9.731
    3AU     LIG 1031   9.186  44.821   9.982
    3AU       S 1032  10.150   0.929   8.180
    3AU     LIG 1033  10.313   1.096   8.558
    3AU     LIG 1034  10.173   1.360   8.902
    3AU     LIG 1035   9.901   1.678   9.078
    3AU     LIG 1036   9.771   1.905   9.464
    3AU    AUSL 1037  10.544   0.028   8.143
    3AU    AUSL 1038  10.134  44.886   8.104
    3AU     AUL 1039  10.022   0.112   8.230
    3AU       S 1040  10.034  44.659   8.367
    3AU     LIG 1041   9.683  44.477   8.637
    3AU     LIG 1042   9.190  44.470   8.682
    3AU     LIG 1043   8.788  44.395   8.952
    3AU     LIG 1044   8.608  44.016   9.183
    3AU       S 1045  10.400  44.972   8.525
    3AU     LIG 1046  10.474  44.654   8.846
    3AU     LIG 1047  10.288  44.629   9.266
    3AU     LIG 1048  10.097  44.672   9.693
    3AU     LIG 1049   9.870  44.572  10.082
    3AU    AUSL 1050  10.330   0.059   6.751
    3AU    AUSL 1051  10.506  44.690   6.935
    3AU     AUL 1052  10.554  44.675   6.608
    3AU       S 1053  10.240  44.964   6.424
    3AU     LIG 1054   9.936  44.774   6.177
    3AU     LIG 1055   9.793  44.815   5.728
    3AU     LIG 1056   9.656  44.918   5.286
    3AU     LIG 1057   9.595  44.918   4.816
    3AU       S 1058  10.125  44.553   6.727
    3AU     LIG 1059   9.966  44.161   6.495
    3AU     LIG 1060   9.749  43.901   6.160
    3AU     LIG 1061   9.445  43.522   6.051
    3AU     LIG 1062   9.331  43.151   5.767
    3AU    AUSL 1063  10.583   0.355   6.550
    3AU    AUSL 1064  10.099   0.394   6.887
    3AU     AUL 1065  10.231   0.400   6.564
    3AU       S 1066   9.815   0.571   6.705
    3AU     LIG 1067   9.511   0.915   6.679
    3AU     LIG 1068   9.268   1.055   6.302
    3AU     LIG 1069   9.107   1.128   5.845
    3AU     LIG 1070   8.866   1.039   5.435
    3AU       S 1071  10.533   0.218   6.255
    3AU     LIG 1072  10.197   0.147   5.897
    3AU     LIG 1073  10.107   0.122   5.441
    3AU     LIG 1074  10.056   0.109   4.981
    3AU     LIG 1075  10.071   0.274   4.551
    3AU    AUSL 1076  11.580   0.673   7.548
    3AU    AUSL 1077  11.525   0.506   7.137
    3AU     AUL 1078  11.829   0.814   7.341
    3AU       S 1079  11.651   0.664   6.952
    3AU     LIG 1080  11.785   0.564   6.539
    3AU     LIG 1081  12.054   0.815   6.248
    3AU     LIG 1082  12.363   1.038   5.955
    3AU     LIG 1083  12.611   1.358   5.682
    3AU       S 1084  11.974   0.565   7.723
    3AU     LIG 1085  12.380   0.678   7.554
    3AU     LIG 1086  12.801   0.845   7.552
    3AU     LIG 1087  13.061   1.155   7.801
    3AU     LIG 1088  13.244   1.618   7.885
    3AU    AUSL 1089  11.768   0.279   7.395
    3AU    AUSL 1090  11.710  44.945   7.733
    3AU     AUL 1091  12.032  44.981   7.584
    3AU       S 1092  11.963   0.405   7.484
    3AU     LIG 1093  12.389   0.224   7.331
    3AU     LIG 1094  12.831   0.370   7.239
    3AU     LIG 1095  13.282   0.463   7.151
    3AU     LIG 1096  13.679   0.678   7.016
    3AU       S 1097  11.948  44.531   7.740
    3AU     LIG 1098  12.392  44.477   7.750
    3AU     LIG 1099  12.816  44.333   7.750
    3AU     LIG 1100  13.246  44.349   7.923
    3AU     LIG 1101  13.645  44.276   8.148
    3AU    AUSL 1102  11.494   0.305   7.744
    3AU    AUSL 1103  11.234   0.698   7.790
    3AU     AUL 1104  11.564   0.727   7.867
    3AU       S 1105  11.521   0.912   8.281
    3AU     LIG 1106  11.776   1.271   8.352
    3AU     LIG 1107  12.121   1.535   8.497
    3AU     LIG 1108  12.275   1.826   8.798
    3AU     LIG 1109  12.536   2.211   8.794
    3AU       S 1110  11.851   0.362   7.873
    3AU     LIG 1111  12.322   0.268   7.900
    3AU     LIG 1112  12.751   0.326   7.732
    3AU     LIG 1113  13.176   0.521   7.663
    3AU     LIG 1114  13.481   0.782   7.892
    3AU    AUSL 1115  10.131   0.735   7.480
    3AU    AUSL 1116  10.193   0.543   7.876
    3AU     AUL 1117   9.894   0.837   7.721
    3AU       S 1118  10.016   0.710   8.147
    3AU     LIG 1119   9.921   0.743   8.605
    3AU     LIG 1120   9.749   1.027   8.947
    3AU     LIG 1121   9.385   1.150   9.235
    3AU     LIG 1122   8.999   1.157   9.520
    3AU       S 1123  10.116   1.106   7.396
    3AU     LIG 1124   9.640   1.029   7.330
    3AU     LIG 1125   9.243   1.220   7.503
    3AU     LIG 1126   8.823   1.441   7.463
    3AU     LIG 1127   8.355   1.483   7.420
    3AU    AUSL 1128  10.097   0.340   7.297
    3AU    AUSL 1129  10.209   0.774   7.067
    3AU     AUL 1130   9.910   0.646   7.163
    3AU       S 1131   9.716   0.144   6.946
    3AU     LIG 1132   9.413   0.533   7.017
    3AU     LIG 1133   8.987   0.735   6.863
    3AU     LIG 1134   8.483   0.834   6.853
    3AU     LIG 1135   7.999   0.908   6.972
    3AU       S 1136  10.037   1.032   6.897
    3AU     LIG 1137   9.846   1.317   6.561
    3AU     LIG 1138   9.890   1.754   6.358
    3AU     LIG 1139   9.706   2.215   6.288
    3AU     LIG 1140   9.307   2.476   6.198
    3AU    AUSL 1141   9.871   0.383   7.667
    3AU    AUSL 1142   9.853   0.007   7.367
    3AU     AUL 1143   9.685   0.320   7.390
    3AU       S 1144   9.637  44.913   7.633
    3AU     LIG 1145   9.343  44.881   7.248
    3AU     LIG 1146   8.831  44.752   7.178
    3AU     LIG 1147   8.354  44.546   7.149
    3AU     LIG 1148   7.938  44.637   6.881
    3AU       S 1149   9.724   0.402   7.888
    3AU     LIG 1150   9.416   0.700   7.730
    3AU     LIG 1151   8.986   0.906   7.832
    3AU     LIG 1152   8.560   1.122   7.777
    3AU     LIG 1153   8.145   1.299   7.921
    3AU    AUSL 1154  11.492  44.609   7.575
    3AU    AUSL 1155  11.327  44.862   7.900
    3AU     AUL 1156  11.660  44.807   7.976
    3AU       S 1157  11.688  44.469   7.585
    3AU     LIG 1158  11.917  44.113   7.306
    3AU     LIG 1159  12.154  43.744   7.221
    3AU     LIG 1160  12.533  43.535   7.368
    3AU     LIG 1161  12.875  43.309   7.613
    3AU       S 1162  11.524  44.383   8.051
    3AU     LIG 1163  11.961  44.383   8.229
    3AU     LIG 1164  12.109  44.122   8.587
    3AU     LIG 1165  12.151  43.763   8.862
    3AU     LIG 1166  12.383  43.647   9.250
    3AU    AUSL 1167  11.476  44.984   7.367
    3AU    AUSL 1168  11.446  44.566   7.159
    3AU     AUL 1169  11.730  44.806   7.230
    3AU       S 1170  11.942  44.530   7.517
    3AU     LIG 1171  12.299  44.510   7.239
    3AU     LIG 1172  12.746  44.387   7.202
    3AU     LIG 1173  13.036  44.176   6.875
    3AU     LIG 1174  13.496  44.221   6.854
    3AU       S 1175  11.686  44.447   6.924
    3AU     LIG 1176  11.985  44.044   6.808
    3AU     LIG 1177  11.813  43.677   6.514
    3AU     LIG 1178  12.033  43.320   6.307
    3AU     LIG 1179  12.403  42.936   6.284
    3AU    AUSL 1180  10.061  44.656   7.522
    3AU    AUSL 1181  10.158  44.889   7.100
    3AU     AUL 1182   9.819  44.701   7.237
    3AU       S 1183  10.007  44.724   6.815
    3AU     LIG 1184   9.617  44.543   6.579
    3AU     LIG 1185   9.314  44.475   6.185
    3AU     LIG 1186   8.865  44.247   6.081
    3AU     LIG 1187   8.444  43.943   6.070
    3AU       S 1188   9.609  44.684   7.658
    3AU     LIG 1189   9.136  44.523   7.529
    3AU     LIG 1190   8.688  44.322   7.482
    3AU     LIG 1191   8.360  43.999   7.265
    3AU     LIG 1192   8.402  43.525   7.314
    3AU    AUSL 1193  10.106   0.038   7.718
    3AU    AUSL 1194  10.364  44.664   7.818
    3AU     AUL 1195  10.025  44.625   7.862
    3AU       S 1196  10.051  44.443   8.283
    3AU     LIG 1197   9.602  44.465   8.128
    3AU     LIG 1198   9.258  44.139   8.239
    3AU     LIG 1199   9.147  43.716   8.406
    3AU     LIG 1200   8.898  43.403   8.651
    3AU       S 1201   9.688  44.936   7.820
    3AU     LIG 1202   9.211  44.807   7.937
    3AU     LIG 1203   8.749  44.796   7.720
    3AU     LIG 1204   8.266  44.734   7.655
    3AU     LIG 1205   7.889  44.529   7.900
    3AU    AUSL 1206  10.817   0.879   7.884
    3AU    AUSL 1207  10.388   0.908   7.777
    3AU     AUL 1208  10.619   0.990   8.161
    3AU       S 1209  10.263   1.090   7.877
    3AU     LIG 1210  10.307   1.452   8.175
    3AU     LIG 1211  10.048   1.717   8.541
    3AU     LIG 1212   9.702   2.023   8.722
    3AU     LIG 1213   9.390   2.404   8.773
    3AU       S 1214  10.834   1.321   7.925
    3AU     LIG 1215  10.961   1.384   8.299
    3AU     LIG 1216  11.040   1.812   8.450
    3AU     LIG 1217  11.171   2.221   8.591
    3AU     LIG 1218  10.962   2.490   8.911
    3AU    AUSL 1219  10.665   1.110   7.536
    3AU    AUSL 1220  10.952   1.024   7.196
    3AU     AUL 1221  10.873   1.379   7.326
    3AU       S 1222  10.690   1.347   7.765
    3AU     LIG 1223  10.879   1.804   7.953
    3AU     LIG 1224  10.841   2.213   8.142
    3AU     LIG 1225  10.546   2.552   8.282
    3AU     LIG 1226  10.556   2.967   8.506
    3AU       S 1227  10.673   1.250   6.940
    3AU     LIG 1228  11.130   1.495   6.931
    3AU     LIG 1229  11.258   1.919   6.992
    3AU     LIG 1230  11.581   2.248   6.880
    3AU     LIG 1231  11.662   2.719   6.923
    3AU    AUSL 1232  11.100   1.051   7.606
    3AU    AUSL 1233  11.076   0.756   8.190
    3AU     AUL 1234  11.184   1.013   7.973
    3AU       S 1235  11.306   0.842   8.415
    3AU     LIG 1236  11.661   0.918   8.749
    3AU     LIG 1237  11.923   1.278   8.898
    3AU     LIG 1238  12.161   1.519   9.225
    3AU     LIG 1239  12.280   1.545   9.686
    3AU       S 1240  11.057   1.389   7.746
    3AU     LIG 1241  11.343   1.587   8.012
    3AU     LIG 1242  11.366   2.037   8.110
    3AU     LIG 1243  11.581   2.419   8.302
    3AU     LIG 1244  11.553   2.915   8.273
    3AU    AUSL 1245  10.743  44.457   7.934
    3AU    AUSL 1246  11.156  44.475   7.788
    3AU     AUL 1247  10.967  44.351   8.174
    3AU       S 1248  10.727  43.999   7.996
    3AU     LIG 1249  10.569  43.805   8.388
    3AU     LIG 1250  10.564  43.315   8.492
    3AU     LIG 1251  10.585  42.899   8.646
    3AU     LIG 1252  10.621  42.721   9.073
    3AU       S 1253  11.337  44.282   7.887
    3AU     LIG 1254  11.823  44.055   7.879
    3AU     LIG 1255  12.057  43.794   8.198
    3AU     LIG 1256  12.412  43.630   8.449
    3AU     LIG 1257  12.531  43.391   8.832
    3AU    AUSL 1258  10.445  44.300   7.637
    3AU    AUSL 1259  10.508  44.626   8.235
    3AU     AUL 1260  10.397  44.335   7.994
    3AU       S 1261  10.551  43.928   7.815
    3AU     LIG 1262  10.547  43.543   7.538
    3AU     LIG 1263  10.299  43.227   7.789
    3AU     LIG 1264  10.209  43.018   8.213
    3AU     LIG 1265  10.035  42.685   8.501
    3AU       S 1266  10.296  44.513   8.419
    3AU     LIG 1267  10.182  44.085   8.609
    3AU     LIG 1268   9.848  43.792   8.762
    3AU     LIG 1269   9.417  43.540   8.847
    3AU     LIG 1270   9.431  43.183   9.107
    3AU    AUSL 1271  10.878  44.223   7.598
    3AU    AUSL 1272  10.649  44.455   7.295
    3AU     AUL 1273  10.528  44.117   7.396
    3AU       S 1274  10.873  44.022   7.121
    3AU     LIG 1275  10.505  43.734   7.071
    3AU     LIG 1276  10.295  43.312   7.042
    3AU     LIG 1277  10.251  42.860   6.886
    3AU     LIG 1278  10.150  42.478   6.622
    3AU       S 1279  10.871  43.981   7.758
    3AU     LIG 1280  10.695  43.505   8.013
    3AU     LIG 1281  10.724  43.051   8.065
    3AU     LIG 1282  10.903  42.706   8.285
    3AU     LIG 1283  10.837  42.215   8.360
    3AU    AUSL 1284  10.785   0.813   6.834
    3AU    AUSL 1285  11.334   0.874   7.271
    3AU     AUL 1286  11.111   1.010   6.904
    3AU       S 1287  10.699   1.179   6.739
    3AU     LIG 1288  10.840   1.527   6.523
    3AU     LIG 1289  10.903   1.926   6.327
    3AU     LIG 1290  10.976   2.154   5.939
    3AU     LIG 1291  10.899   2.460   5.597
    3AU       S 1292  11.502   1.048   7.130
    3AU     LIG 1293  11.668   1.427   6.864
    3AU     LIG 1294  11.965   1.580   6.487
    3AU     LIG 1295  12.301   1.884   6.283
    3AU     LIG 1296  12.697   2.086   6.089
    3AU    AUSL 1297  10.580   0.833   7.232
    3AU    AUSL 1298  10.521   0.498   6.936
    3AU     AUL 1299  10.446   0.796   6.799
    3AU       S 1300  10.500   1.185   7.076
    3AU     LIG 1301  10.671   1.729   6.984
    3AU     LIG 1302  10.655   2.143   6.731
    3AU     LIG 1303  10.493   2.624   6.787
    3AU     LIG 1304  10.686   3.095   6.847
    3AU       S 1305  10.013   0.809   6.646
    3AU     LIG 1306  10.290   1.109   6.428
    3AU     LIG 1307  10.153   1.392   6.083
    3AU     LIG 1308   9.918   1.710   5.821
    3AU     LIG 1309   9.877   1.951   5.406
    3AU    AUSL 1310  10.852  44.441   6.908
    3AU    AUSL 1311  10.243  44.464   7.194
    3AU     AUL 1312  10.497  44.313   6.957
    3AU       S 1313  10.038  44.419   6.934
    3AU     LIG 1314   9.653  44.137   6.925
    3AU     LIG 1315   9.290  43.855   6.789
    3AU     LIG 1316   9.126  43.519   6.443
    3AU     LIG 1317   8.672  43.406   6.259
    3AU       S 1318  10.890  44.063   6.905
    3AU     LIG 1319  10.653  43.905   6.617
    3AU     LIG 1320  10.592  43.469   6.596
    3AU     LIG 1321  10.726  43.132   6.313
    3AU     LIG 1322  10.535  42.905   5.942
    3AU    AUSL 1323  11.076  44.437   7.299
    3AU    AUSL 1324  11.114  44.762   6.961
    3AU     AUL 1325  11.215  44.385   6.959
    3AU       S 1326  11.029  44.017   7.196
    3AU     LIG 1327  10.945  43.531   7.014
    3AU     LIG 1328  10.768  43.092   6.879
    3AU     LIG 1329  11.079  42.751   6.716
    3AU     LIG 1330  10.943  42.313   6.648
    3AU       S 1331  11.435  44.599   6.625
    3AU     LIG 1332  11.117  44.264   6.446
    3AU     LIG 1333  11.377  43.888   6.181
    3AU     LIG 1334  11.756  43.678   6.004
    3AU     LIG 1335  11.915  43.404   5.672
    4AU     AUC 1336  21.157  39.760   7.506
    4AU     AUC 1337  21.452  39.750   7.330
    4AU     AUC 1338  21.429  39.745   7.677
    4AU     AUC 1339  20.860  39.765   7.350
    4AU     AUC 1340  20.908  39.806   7.695
    4AU     AUC 1341  20.996  40.051   7.505
    4AU     AUC 1342  21.344  40.030   7.490
    4AU     AUC 1343  20.956  39.488   7.512
    4AU     AUC 1344  21.315  39.474   7.510
    4AU     AUC 1345  21.156  39.591   7.786
    4AU     AUC 1346  21.166  39.956   7.768
    4AU     AUC 1347  21.144  39.588   7.237
    4AU     AUC 1348  21.179  39.909   7.230
    4AU     AUC 1349  21.771  39.740   7.168
    4AU     AUC 1350  21.772  39.725   7.517
    4AU     AUC 1351  21.720  39.724   7.869
    4AU     AUC 1352  20.552  39.773   7.203
    4AU     AUC 1353  20.546  39.818   7.548
    4AU     AUC 1354  20.619  39.844   7.894
    4AU     AUC 1355  20.846  40.363   7.481
    4AU     AUC 1356  21.195  40.378   7.446
    4AU     AUC 1357  21.519  40.314   7.472
    4AU     AUC 1358  20.744  39.213   7.517
    4AU     AUC 1359  21.085  39.153   7.490
    4AU     AUC 1360  21.473  39.161   7.495
    4AU     AUC 1361  21.136  39.416   8.080
    4AU     AUC 1362  21.169  39.774   8.104
    4AU     AUC 1363  21.202  40.139   8.053
    4AU     AUC 1364  21.162  39.410   6.956
    4AU     AUC 1365  21.165  39.735   6.904
    4AU     AUC 1366  21.168  40.054   6.929
    4AU     AUC 1367  21.438  39.536   7.996
    4AU     AUC 1368  21.475  39.922   7.990
    4AU     AUC 1369  21.490  39.578   7.017
    4AU     AUC 1370  21.497  39.926   7.035
    4AU     AUC 1371  20.854  39.637   8.014
    4AU     AUC 1372  20.905  40.013   7.999
    4AU     AUC 1373  20.842  39.573   7.055
    4AU     AUC 1374  20.828  39.884   7.020
    4AU     AUC 1375  21.691  40.025   7.335
    4AU     AUC 1376  21.637  40.023   7.691
    4AU     AUC 1377  20.662  40.075   7.355
    4AU     AUC 1378  20.714  40.137   7.706
    4AU     AUC 1379  21.645  39.431   7.339
    4AU     AUC 1380  21.615  39.417   7.678
    4AU     AUC 1381  20.619  39.466   7.359
    4AU     AUC 1382  20.687  39.519   7.715
    4AU     AUC 1383  21.035  40.309   7.762
    4AU     AUC 1384  21.360  40.251   7.770
    4AU     AUC 1385  20.933  39.305   7.805
    4AU     AUC 1386  21.280  39.250   7.780
    4AU     AUC 1387  20.982  40.190   7.192
    4AU     AUC 1388  21.362  40.211   7.166
    4AU     AUC 1389  20.935  39.276   7.221
    4AU     AUC 1390  21.321  39.294   7.219
    4AU    AUSL 1391  21.716  39.665   8.224
    4AU    AUSL 1392  21.439  39.232   8.164
    4AU     AUL 1393  21.770  39.251   8.331
    4AU       S 1394  21.757  38.856   8.094
    4AU     LIG 1395  21.716  38.718   8.463
    4AU     LIG 1396  22.021  38.481   8.702
    4AU     LIG 1397  22.295  38.142   8.864
    4AU     LIG 1398  22.542  37.793   9.050
    4AU       S 1399  21.951  39.668   8.341
    4AU     LIG 1400  21.875  39.675   8.783
    4AU     LIG 1401  22.088  39.474   9.148
    4AU     LIG 1402  22.388  39.447   9.507
    4AU     LIG 1403  22.532  39.542   9.944
    4AU    AUSL 1404  21.318  39.574   8.396
    4AU    AUSL 1405  21.055  39.964   8.430
    4AU     AUL 1406  21.268  39.863   8.733
    4AU       S 1407  21.467  39.485   8.577
    4AU     LIG 1408  21.241  39.353   8.914
    4AU     LIG 1409  21.215  39.267   9.382
    4AU     LIG 1410  21.472  39.113   9.769
    4AU     LIG 1411  21.690  39.047  10.189
    4AU       S 1412  20.842  39.726   8.665
    4AU     LIG 1413  20.908  39.659   9.136
    4AU     LIG 1414  20.656  39.666   9.523
    4AU     LIG 1415  20.366  39.709   9.885
    4AU     LIG 1416  20.247  40.022  10.228
    4AU    AUSL 1417  21.373  39.944   8.162
    4AU    AUSL 1418  21.802  40.068   8.103
    4AU     AUL 1419  21.612  39.965   8.442
    4AU       S 1420  21.283  40.326   8.603
    4AU     LIG 1421  21.637  40.226   8.883
    4AU     LIG 1422  21.731  40.267   9.359
    4AU     LIG 1423  21.686  40.334   9.848
    4AU     LIG 1424  21.706  40.523  10.294
    4AU       S 1425  21.968  40.223   8.280
    4AU     LIG 1426  22.386  40.338   8.199
    4AU     LIG 1427  22.599  40.550   8.545
    4AU     LIG 1428  22.806  40.801   8.890
    4AU     LIG 1429  23.023  41.050   9.213
    4AU    AUSL 1430  21.693  39.802   6.838
    4AU    AUSL 1431  21.567  40.224   6.837
    4AU     AUL 1432  21.838  40.083   6.591
    4AU       S 1433  21.514  39.919   6.330
    4AU     LIG 1434  21.973  39.901   6.114
    4AU     LIG 1435  22.026  39.610   5.746
    4AU     LIG 1436  22.167  39.425   5.335
    4AU     LIG 1437  22.450  39.396   4.964
    4AU       S 1438  21.925  40.464   6.872
    4AU     LIG 1439  22.002  40.686   6.479
    4AU     LIG 1440  22.202  40.975   6.131
    4AU     LIG 1441  22.446  41.157   5.766
    4AU     LIG 1442  22.707  41.274   5.391
    4AU    AUSL 1443  21.448  39.531   6.606
    4AU    AUSL 1444  21.851  39.418   6.920
    4AU     AUL 1445  21.857  39.592   6.617
    4AU       S 1446  21.939  39.132   6.689
    4AU     LIG 1447  22.247  38.916   6.389
    4AU     LIG 1448  22.609  38.604   6.316
    4AU     LIG 1449  22.805  38.318   5.990
    4AU     LIG 1450  23.256  38.370   5.803
    4AU       S 1451  21.563  39.741   6.296
    4AU     LIG 1452  21.480  39.355   6.099
    4AU     LIG 1453  21.504  39.131   5.682
    4AU     LIG 1454  21.640  39.129   5.232
    4AU     LIG 1455  21.870  39.204   4.835
    4AU    AUSL 1456  21.285  39.911   6.757
    4AU    AUSL 1457  21.039  39.538   6.739
    4AU     AUL 1458  21.171  39.573   6.452
    4AU       S 1459  20.719  39.596   6.314
    4AU     LIG 1460  20.933  39.335   6.050
    4AU     LIG 1461  20.747  39.220   5.633
    4AU     LIG 1462  20.475  39.163   5.242
    4AU     LIG 1463  20.202  39.123   4.858
    4AU       S 1464  21.356  40.016   6.449
    4AU     LIG 1465  21.196  39.796   5.979
    4AU     LIG 1466  21.503  39.645   5.638
    4AU     LIG 1467  21.723  39.640   5.203
    4AU     LIG 1468  21.933  39.705   4.771
    4AU    AUSL 1469  20.658  39.930   8.252
    4AU    AUSL 1470  20.961  40.264   8.140
    4AU     AUL 1471  20.817  40.213   8.472
    4AU       S 1472  20.679  39.844   8.732
    4AU     LIG 1473  20.412  39.603   9.008
    4AU     LIG 1474  20.220  39.418   9.396
    4AU     LIG 1475  19.994  39.341   9.801
    4AU     LIG 1476  19.595  39.439  10.036
    4AU       S 1477  20.546  40.512   8.232
    4AU     LIG 1478  20.520  40.669   8.633
    4AU     LIG 1479  20.260  40.931   8.936
    4AU     LIG 1480  20.044  41.093   9.328
    4AU     LIG 1481  19.862  41.197   9.753
    4AU    AUSL 1482  20.947  39.614   8.194
    4AU    AUSL 1483  20.509  39.548   8.112
    4AU     AUL 1484  20.489  39.673   8.351
    4AU       S 1485  20.338  39.220   8.304
    4AU     LIG 1486  19.909  39.123   8.211
    4AU     LIG 1487  19.677  38.718   8.280
    4AU     LIG 1488  19.429  38.460   8.608
    4AU     LIG 1489  18.973  38.316   8.725
    4AU       S 1490  20.880  39.543   8.579
    4AU     LIG 1491  20.740  39.240   8.862
    4AU     LIG 1492  20.695  39.198   9.323
    4AU     LIG 1493  20.513  39.210   9.767
    4AU     LIG 1494  20.458  38.998  10.190
    4AU    AUSL 1495  20.635  39.664   6.791
    4AU    AUSL 1496  20.808  39.275   6.973
    4AU     AUL 1497  20.831  39.280   6.632
    4AU       S 1498  20.506  39.566   6.450
    4AU     LIG 1499  20.257  39.659   6.084
    4AU     LIG 1500  20.239  39.465   5.646
    4AU     LIG 1501  19.964  39.284   5.299
    4AU     LIG 1502  19.666  39.282   4.928
    4AU       S 1503  20.421  39.168   6.808
    4AU     LIG 1504  20.434  38.787   6.599
    4AU     LIG 1505  20.158  38.420   6.488
    4AU     LIG 1506  19.855  38.261   6.168
    4AU     LIG 1507  19.803  38.397   5.710
    4AU    AUSL 1508  20.905  39.946   6.583
    4AU    AUSL 1509  20.428  39.985   6.993
    4AU     AUL 1510  20.537  39.984   6.640
    4AU       S 1511  20.166  40.231   6.770
    4AU     LIG 1512  20.141  40.385   6.291
    4AU     LIG 1513  20.029  40.782   6.080
    4AU     LIG 1514  19.706  41.083   5.959
    4AU     LIG 1515  19.366  41.263   5.690
    4AU       S 1516  20.798  39.828   6.284
    4AU     LIG 1517  20.696  39.729   5.818
    4AU     LIG 1518  20.636  39.645   5.357
    4AU     LIG 1519  20.540  39.575   4.899
    4AU     LIG 1520  20.460  39.851   4.512
    4AU    AUSL 1521  21.938  40.255   7.509
    4AU    AUSL 1522  21.904  40.055   7.103
    4AU     AUL 1523  22.217  40.387   7.326
    4AU       S 1524  22.020  40.171   6.993
    4AU     LIG 1525  22.321  40.261   6.651
    4AU     LIG 1526  22.489  40.571   6.342
    4AU     LIG 1527  22.731  40.831   6.047
    4AU     LIG 1528  22.973  41.172   5.833
    4AU       S 1529  22.341  40.130   7.703
    4AU     LIG 1530  22.763  40.301   7.605
    4AU     LIG 1531  23.174  40.567   7.602
    4AU     LIG 1532  23.518  40.784   7.874
    4AU     LIG 1533  23.837  41.138   7.776
    4AU    AUSL 1534  22.130  39.845   7.391
    4AU    AUSL 1535  22.073  39.527   7.705
    4AU     AUL 1536  22.455  39.633   7.704
    4AU       S 1537  22.268  39.932   7.425
    4AU     LIG 1538  22.701  39.903   7.294
    4AU     LIG 1539  23.166  40.119   7.304
    4AU     LIG 1540  23.620  40.273   7.269
    4AU     LIG 1541  23.939  40.349   6.943
    4AU       S 1542  22.323  39.232   7.521
    4AU     LIG 1543  22.653  39.162   7.787
    4AU     LIG 1544  23.058  38.942   7.909
    4AU     LIG 1545  23.536  38.846   7.881
    4AU     LIG 1546  23.958  38.796   8.125
    4AU    AUSL 1547  21.864  39.893   7.732
    4AU    AUSL 1548  21.610  40.284   7.780
    4AU     AUL 1549  21.939  40.336   7.820
    4AU       S 1550  21.927  40.520   8.244
    4AU     LIG 1551  22.204  40.876   8.347
    4AU     LIG 1552  22.609  41.059   8.495
    4AU     LIG 1553  22.806  41.355   8.801
    4AU     LIG 1554  23.064  41.766   8.849
    4AU       S 1555  22.194  39.962   7.867
    4AU     LIG 1556  22.690  39.958   8.010
    4AU     LIG 1557  23.110  40.185   7.967
    4AU     LIG 1558  23.528  40.253   7.772
    4AU     LIG 1559  23.896  40.426   7.955
    4AU    AUSL 1560  20.553  40.405   7.527
    4AU    AUSL 1561  20.620  40.149   7.889
    4AU     AUL 1562  20.294  40.425   7.743
    4AU       S 1563  20.445  40.323   8.164
    4AU     LIG 1564  20.309  40.164   8.549
    4AU     LIG 1565  20.161  40.400   8.920
    4AU     LIG 1566  19.848  40.633   9.180
    4AU     LIG 1567  19.563  40.888   9.451
    4AU       S 1568  20.522  40.724   7.443
    4AU     LIG 1569  20.059  40.758   7.439
    4AU     LIG 1570  19.564  40.817   7.521
    4AU     LIG 1571  19.233  41.154   7.703
    4AU     LIG 1572  18.792  41.410   7.670
    4AU    AUSL 1573  20.401  40.025   7.410
    4AU    AUSL 1574  20.580  40.379   7.110
    4AU     AUL 1575  20.276  40.311   7.246
    4AU       S 1576  19.953  39.992   7.122
    4AU     LIG 1577  19.764  40.450   7.176
    4AU     LIG 1578  19.233  40.543   7.153
    4AU     LIG 1579  18.758  40.351   7.064
    4AU     LIG 1580  18.218  40.503   7.015
    4AU       S 1581  20.418  40.649   6.938
    4AU     LIG 1582  20.124  40.844   6.595
    4AU     LIG 1583  20.023  41.247   6.353
    4AU     LIG 1584  19.818  41.581   6.082
    4AU     LIG 1585  19.364  41.707   5.963
    4AU    AUSL 1586  20.245  39.982   7.842
    4AU    AUSL 1587  20.187  39.668   7.396
    4AU     AUL 1588  20.065  40.012   7.566
    4AU       S 1589  19.905  39.552   7.612
    4AU     LIG 1590  19.490  39.305   7.436
    4AU     LIG 1591  19.055  39.157   7.269
    4AU     LIG 1592  18.700  38.860   7.224
    4AU     LIG 1593  18.327  38.605   7.079
    4AU       S 1594  20.147  39.929   8.058
    4AU     LIG 1595  19.679  40.039   7.934
    4AU     LIG 1596  19.264  40.335   8.042
    4AU     LIG 1597  18.802  40.536   8.174
    4AU     LIG 1598  18.338  40.378   8.231
    4AU    AUSL 1599  21.858  39.172   7.555
    4AU    AUSL 1600  21.699  39.431   7.880
    4AU     AUL 1601  22.042  39.341   7.936
    4AU       S 1602  22.165  39.056   7.570
    4AU     LIG 1603  22.189  38.686   7.328
    4AU     LIG 1604  22.565  38.400   7.184
    4AU     LIG 1605  23.013  38.228   7.312
    4AU     LIG 1606  23.398  38.187   7.609
    4AU       S 1607  21.892  38.916   7.977
    4AU     LIG 1608  22.217  38.788   8.305
    4AU     LIG 1609  22.464  38.412   8.450
    4AU     LIG 1610  22.758  38.358   8.795
    4AU     LIG 1611  23.058  38.704   8.893
    4AU    AUSL 1612  21.859  39.535   7.319
    4AU    AUSL 1613  21.719  39.074   7.162
    4AU     AUL 1614  21.989  39.192   7.163
    4AU       S 1615  22.344  39.406   7.316
    4AU     LIG 1616  22.546  38.982   7.142
    4AU     LIG 1617  22.961  38.717   7.094
    4AU     LIG 1618  23.433  38.877   7.150
    4AU     LIG 1619  23.839  38.792   6.946
    4AU       S 1620  21.915  38.898   6.806
    4AU     LIG 1621  22.294  38.640   6.810
    4AU     LIG 1622  22.473  38.234   6.664
    4AU     LIG 1623  22.468  37.920   6.317
    4AU     LIG 1624  22.764  37.566   6.198
    4AU    AUSL 1625  20.344  39.294   7.570
    4AU    AUSL 1626  20.497  39.513   7.159
    4AU     AUL 1627  20.140  39.387   7.247
    4AU       S 1628  20.339  39.295   6.848
    4AU     LIG 1629  19.949  39.021   6.726
    4AU     LIG 1630  19.697  38.647   6.532
    4AU     LIG 1631  19.370  38.412   6.264
    4AU     LIG 1632  18.988  38.165   6.134
    4AU       S 1633  19.942  39.283   7.667
    4AU     LIG 1634  19.650  38.986   7.802
    4AU     LIG 1635  19.300  38.835   7.584
    4AU     LIG 1636  18.984  38.560   7.573
    4AU     LIG 1637  18.893  38.120   7.582
    4AU    AUSL 1638  20.491  39.678   7.710
    4AU    AUSL 1639  20.670  39.272   7.836
    4AU     AUL 1640  20.295  39.458   7.906
    4AU       S 1641  20.375  39.038   8.064
    4AU     LIG 1642  20.099  38.673   7.966
    4AU     LIG 1643  19.868  38.250   8.054
    4AU     LIG 1644  19.543  38.041   8.346
    4AU     LIG 1645  19.349  37.957   8.772
    4AU       S 1646  19.895  39.602   7.763
    4AU     LIG 1647  19.507  39.494   7.926
    4AU     LIG 1648  19.156  39.222   7.878
    4AU     LIG 1649  18.773  39.019   7.715
    4AU     LIG 1650  18.433  38.817   7.956
    4AU    AUSL 1651  21.222  40.501   7.896
    4AU    AUSL 1652  20.792  40.539   7.846
    4AU     AUL 1653  21.023  40.590   8.200
    4AU       S 1654  20.652  40.708   7.926
    4AU     LIG 1655  20.689  41.016   8.246
    4AU     LIG 1656  20.481  41.326   8.563
    4AU     LIG 1657  20.122  41.595   8.761
    4AU     LIG 1658  19.666  41.699   8.836
    4AU       S 1659  21.219  40.923   7.940
    4AU     LIG 1660  21.399  40.908   8.347
    4AU     LIG 1661  21.444  41.333   8.583
    4AU     LIG 1662  21.475  41.799   8.732
    4AU     LIG 1663  21.372  42.153   9.025
    4AU    AUSL 1664  21.047  40.702   7.547
    4AU    AUSL 1665  21.330  40.632   7.180
    4AU     AUL 1666  21.251  40.972   7.332
    4AU       S 1667  21.064  40.963   7.768
    4AU     LIG 1668  21.226  41.457   7.765
    4AU     LIG 1669  21.010  41.872   7.945
    4AU     LIG 1670  20.812  42.182   8.281
    4AU     LIG 1671  20.657  42.645   8.388
    4AU       S 1672  21.066  40.814   6.945
    4AU     LIG 1673  21.498  41.053   6.911
    4AU     LIG 1674  21.561  41.478   6.756
    4AU     LIG 1675  21.590  41.937   6.696
    4AU     LIG 1676  21.518  42.411   6.615
    4AU    AUSL 1677  21.490  40.632   7.581
    4AU    AUSL 1678  21.475  40.348   8.191
    4AU     AUL 1679  21.578  40.615   7.950
    4AU       S 1680  21.700  40.448   8.385
    4AU     LIG 1681  21.885  40.678   8.722
    4AU     LIG 1682  22.287  40.844   8.868
    4AU     LIG 1683  22.503  41.135   9.157
    4AU     LIG 1684  22.698  41.250   9.567
    4AU       S 1685  21.426  41.002   7.759
    4AU     LIG 1686  21.591  41.289   8.076
    4AU     LIG 1687  21.435  41.701   8.210
    4AU     LIG 1688  21.388  42.154   8.300
    4AU     LIG 1689  21.629  42.601   8.222
    4AU    AUSL 1690  21.093  39.118   7.936
    4AU    AUSL 1691  21.503  39.067   7.764
    4AU     AUL 1692  21.306  38.936   8.140
    4AU       S 1693  21.083  38.549   8.012
    4AU     LIG 1694  20.932  38.110   8.196
    4AU     LIG 1695  20.831  37.673   8.371
    4AU     LIG 1696  20.826  37.238   8.534
    4AU     LIG 1697  20.992  36.996   8.898
    4AU       S 1698  21.665  38.812   7.823
    4AU     LIG 1699  21.936  38.408   8.058
    4AU     LIG 1700  22.103  38.070   8.367
    4AU     LIG 1701  22.451  37.767   8.528
    4AU     LIG 1702  22.670  37.394   8.748
    4AU    AUSL 1703  20.774  38.905   7.683
    4AU    AUSL 1704  20.823  39.223   8.243
    4AU     AUL 1705  20.816  38.936   8.044
    4AU       S 1706  20.872  38.510   7.871
    4AU     LIG 1707  20.526  38.230   7.887
    4AU     LIG 1708  20.578  37.782   7.944
    4AU     LIG 1709  20.716  37.335   7.989
    4AU     LIG 1710  20.615  36.949   8.175
    4AU       S 1711  20.562  39.144   8.386
    4AU     LIG 1712  20.262  38.745   8.456
    4AU     LIG 1713  19.974  38.379   8.535
    4AU     LIG 1714  19.819  38.111   8.852
    4AU     LIG 1715  19.803  37.953   9.285
    4AU    AUSL 1716  21.193  38.818   7.633
    4AU    AUSL 1717  20.938  38.953   7.288
    4AU     AUL 1718  20.807  38.681   7.449
    4AU       S 1719  21.158  38.628   7.163
    4AU     LIG 1720  20.742  38.385   7.051
    4AU     LIG 1721  20.653  37.917   7.062
    4AU     LIG 1722  20.599  37.491   6.865
    4AU     LIG 1723  20.513  37.093   6.607
    4AU       S 1724  21.192  38.612   7.753
    4AU     LIG 1725  21.148  38.115   7.732
    4AU     LIG 1726  21.097  37.666   7.913
    4AU     LIG 1727  21.203  37.212   8.091
    4AU     LIG 1728  21.448  36.782   7.996
    4AU    AUSL 1729  21.161  40.360   6.861
    4AU    AUSL 1730  21.612  40.335   7.248
    4AU     AUL 1731  21.466  40.548   6.865
    4AU       S 1732  21.063  40.761   6.730
    4AU     LIG 1733  21.168  41.178   6.531
    4AU     LIG 1734  21.189  41.648   6.455
    4AU     LIG 1735  21.347  42.031   6.231
    4AU     LIG 1736  21.216  42.258   5.845
    4AU       S 1737  21.827  40.552   7.145
    4AU     LIG 1738  22.059  40.931   6.937
    4AU     LIG 1739  22.402  41.020   6.600
    4AU     LIG 1740  22.604  41.292   6.250
    4AU     LIG 1741  22.905  41.622   6.075
    4AU    AUSL 1742  20.966  40.423   7.248
    4AU    AUSL 1743  20.859  40.082   6.972
    4AU     AUL 1744  20.810  40.383   6.822
    4AU       S 1745  20.879  40.775   7.084
    4AU     LIG 1746  21.032  41.296   7.003
    4AU     LIG 1747  21.137  41.760   6.963
    4AU     LIG 1748  21.094  42.115   6.664
    4AU     LIG 1749  20.705  42.327   6.527
    4AU       S 1750  20.360  40.408   6.714
    4AU     LIG 1751  20.597  40.689   6.455
    4AU     LIG 1752  20.473  41.059   6.197
    4AU     LIG 1753  20.209  41.283   5.872
    4AU     LIG 1754  19.869  41.403   5.574
    4AU    AUSL 1755  21.148  39.032   6.912
    4AU    AUSL 1756  20.546  39.086   7.262
    4AU     AUL 1757  20.788  38.901   6.971
    4AU       S 1758  20.346  39.016   7.060
    4AU     LIG 1759  20.142  38.601   6.979
    4AU     LIG 1760  19.817  38.255   6.860
    4AU     LIG 1761  19.422  38.089   6.663
    4AU     LIG 1762  19.406  37.877   6.241
    4AU       S 1763  21.175  38.622   6.934
    4AU     LIG 1764  21.107  38.223   6.723
    4AU     LIG 1765  20.969  37.786   6.662
    4AU     LIG 1766  20.864  37.407   6.417
    4AU     LIG 1767  20.751  37.370   5.982
    4AU    AUSL 1768  21.342  39.059   7.322
    4AU    AUSL 1769  21.423  39.342   6.976
    4AU     AUL 1770  21.480  38.970   6.954
    4AU       S 1771  21.372  38.625   7.247
    4AU     LIG 1772  21.164  38.134   7.223
    4AU     LIG 1773  21.108  37.639   7.135
    4AU     LIG 1774  21.362  37.238   6.984
    4AU     LIG 1775  21.514  36.787   6.900
    4AU       S 1776  21.683  39.120   6.575
    4AU     LIG 1777  21.778  38.706   6.367
    4AU     LIG 1778  22.132  38.399   6.273
    4AU     LIG 1779  22.289  38.164   5.888
    4AU     LIG 1780  22.193  37.957   5.451
    5AU     AUC 1781  16.337  20.925   7.501
    5AU     AUC 1782  16.616  20.932   7.324
    5AU     AUC 1783  16.602  20.906   7.673
    5AU     AUC 1784  16.054  20.923   7.334
    5AU     AUC 1785  16.070  20.964   7.682
    5AU     AUC 1786  16.174  21.215   7.491
    5AU     AUC 1787  16.528  21.204   7.485
    5AU     AUC 1788  16.148  20.656   7.510
    5AU     AUC 1789  16.499  20.628   7.500
    5AU     AUC 1790  16.335  20.748   7.775
    5AU     AUC 1791  16.337  21.116   7.760
    5AU     AUC 1792  16.332  20.757   7.227
    5AU     AUC 1793  16.355  21.079   7.224
    5AU     AUC 1794  16.926  20.938   7.158
    5AU     AUC 1795  16.942  20.888   7.517
    5AU     AUC 1796  16.889  20.872   7.869
    5AU     AUC 1797  15.753  20.911   7.166
    5AU     AUC 1798  15.732  20.960   7.529
    5AU     AUC 1799  15.784  21.002   7.867
    5AU     AUC 1800  16.018  21.520   7.466
    5AU     AUC 1801  16.384  21.543   7.453
    5AU     AUC 1802  16.722  21.481   7.475
    5AU     AUC 1803  15.949  20.385   7.519
    5AU     AUC 1804  16.299  20.320   7.495
    5AU     AUC 1805  16.660  20.323   7.486
    5AU     AUC 1806  16.314  20.572   8.069
    5AU     AUC 1807  16.335  20.937   8.096
    5AU     AUC 1808  16.370  21.294   8.051
    5AU     AUC 1809  16.358  20.582   6.952
    5AU     AUC 1810  16.346  20.915   6.891
    5AU     AUC 1811  16.334  21.241   6.924
    5AU     AUC 1812  16.599  20.692   7.995
    5AU     AUC 1813  16.648  21.069   7.988
    5AU     AUC 1814  16.668  20.782   6.998
    5AU     AUC 1815  16.658  21.105   7.029
    5AU     AUC 1816  16.034  20.808   8.014
    5AU     AUC 1817  16.062  21.184   7.983
    5AU     AUC 1818  16.034  20.732   7.046
    5AU     AUC 1819  16.016  21.054   6.996
    5AU     AUC 1820  16.875  21.211   7.341
    5AU     AUC 1821  16.816  21.172   7.691
    5AU     AUC 1822  15.855  21.226   7.312
    5AU     AUC 1823  15.874  21.282   7.670
    5AU     AUC 1824  16.809  20.614   7.332
    5AU     AUC 1825  16.776  20.563   7.688
    5AU     AUC 1826  15.815  20.625   7.370
    5AU     AUC 1827  15.865  20.680   7.723
    5AU     AUC 1828  16.202  21.459   7.754
    5AU     AUC 1829  16.544  21.404   7.771
    5AU     AUC 1830  16.138  20.454   7.808
    5AU     AUC 1831  16.456  20.391   7.777
    5AU     AUC 1832  16.166  21.370   7.187
    5AU     AUC 1833  16.540  21.409   7.194
    5AU     AUC 1834  16.140  20.450   7.214
    5AU     AUC 1835  16.534  20.465   7.206
    5AU    AUSL 1836  16.859  20.801   8.240
    5AU    AUSL 1837  16.584  20.406   8.154
    5AU     AUL 1838  16.867  20.393   8.371
    5AU       S 1839  16.953  20.019   8.116
    5AU     LIG 1840  16.811  19.744   8.407
    5AU     LIG 1841  16.995  19.463   8.710
    5AU     LIG 1842  17.246  19.248   9.012
    5AU     LIG 1843  17.333  18.808   9.073
    5AU       S 1844  17.080  20.791   8.375
    5AU     LIG 1845  16.923  20.809   8.812
    5AU     LIG 1846  17.098  20.832   9.246
    5AU     LIG 1847  17.374  20.682   9.605
    5AU     LIG 1848  17.578  20.439   9.962
    5AU    AUSL 1849  16.454  20.736   8.401
    5AU    AUSL 1850  16.212  21.133   8.417
    5AU     AUL 1851  16.411  21.046   8.736
    5AU       S 1852  16.530  20.651   8.548
    5AU     LIG 1853  16.464  20.579   8.962
    5AU     LIG 1854  16.752  20.456   9.320
    5AU     LIG 1855  17.019  20.319   9.703
    5AU     LIG 1856  17.162  20.184  10.144
    5AU       S 1857  16.000  20.878   8.631
    5AU     LIG 1858  16.051  20.880   9.091
    5AU     LIG 1859  15.807  20.837   9.481
    5AU     LIG 1860  15.547  20.883   9.863
    5AU     LIG 1861  15.447  21.117  10.259
    5AU    AUSL 1862  16.537  21.101   8.158
    5AU    AUSL 1863  16.982  21.188   8.102
    5AU     AUL 1864  16.763  21.112   8.443
    5AU       S 1865  16.443  21.499   8.581
    5AU     LIG 1866  16.807  21.360   8.880
    5AU     LIG 1867  16.971  21.332   9.337
    5AU     LIG 1868  17.006  21.387   9.829
    5AU     LIG 1869  17.035  21.560  10.283
    5AU       S 1870  17.159  21.326   8.302
    5AU     LIG 1871  17.591  21.437   8.179
    5AU     LIG 1872  17.907  21.684   8.459
    5AU     LIG 1873  18.122  21.972   8.796
    5AU     LIG 1874  18.299  22.085   9.220
    5AU    AUSL 1875  16.871  21.061   6.763
    5AU    AUSL 1876  16.656  21.383   6.969
    5AU     AUL 1877  16.774  21.441   6.635
    5AU       S 1878  16.816  21.102   6.331
    5AU     LIG 1879  17.233  21.025   6.162
    5AU     LIG 1880  17.443  20.742   5.869
    5AU     LIG 1881  17.497  20.663   5.426
    5AU     LIG 1882  17.575  20.558   4.982
    5AU       S 1883  17.143  21.612   6.839
    5AU     LIG 1884  17.383  21.813   6.512
    5AU     LIG 1885  17.628  22.058   6.207
    5AU     LIG 1886  17.788  22.246   5.797
    5AU     LIG 1887  18.121  22.299   5.461
    5AU    AUSL 1888  16.646  20.729   6.610
    5AU    AUSL 1889  17.012  20.692   6.931
    5AU     AUL 1890  17.070  20.830   6.626
    5AU       S 1891  17.152  20.380   6.706
    5AU     LIG 1892  17.267  20.078   6.367
    5AU     LIG 1893  17.546  19.744   6.246
    5AU     LIG 1894  17.908  19.488   6.100
    5AU     LIG 1895  18.249  19.637   5.794
    5AU       S 1896  16.759  20.901   6.283
    5AU     LIG 1897  16.994  20.564   6.110
    5AU     LIG 1898  17.107  20.399   5.668
    5AU     LIG 1899  17.131  20.367   5.189
    5AU     LIG 1900  17.187  20.328   4.710
    5AU    AUSL 1901  16.449  21.111   6.699
    5AU    AUSL 1902  16.235  20.714   6.735
    5AU     AUL 1903  16.369  20.738   6.446
    5AU       S 1904  15.932  20.734   6.297
    5AU     LIG 1905  15.906  20.486   5.920
    5AU     LIG 1906  15.652  20.332   5.576
    5AU     LIG 1907  15.679  20.306   5.119
    5AU     LIG 1908  15.532  20.363   4.687
    5AU       S 1909  16.505  21.173   6.354
    5AU     LIG 1910  16.617  21.097   5.863
    5AU     LIG 1911  16.992  20.906   5.625
    5AU     LIG 1912  17.122  20.883   5.161
    5AU     LIG 1913  17.098  20.959   4.698
    5AU    AUSL 1914  15.812  21.080   8.243
    5AU    AUSL 1915  16.101  21.428   8.131
    5AU     AUL 1916  15.965  21.370   8.465
    5AU       S 1917  15.807  20.965   8.660
    5AU     LIG 1918  15.496  20.874   8.929
    5AU     LIG 1919  15.350  20.665   9.317
    5AU     LIG 1920  15.176  20.540   9.729
    5AU     LIG 1921  14.992  20.445  10.145
    5AU       S 1922  15.718  21.677   8.194
    5AU     LIG 1923  15.766  21.832   8.591
    5AU     LIG 1924  15.616  22.105   8.938
    5AU     LIG 1925  15.422  22.329   9.291
    5AU     LIG 1926  15.551  22.529   9.698
    5AU    AUSL 1927  16.110  20.792   8.162
    5AU    AUSL 1928  15.696  20.663   8.143
    5AU     AUL 1929  15.588  20.898   8.264
    5AU       S 1930  15.617  20.449   8.411
    5AU     LIG 1931  15.164  20.435   8.265
    5AU     LIG 1932  14.781  20.142   8.319
    5AU     LIG 1933  14.584  19.788   8.571
    5AU     LIG 1934  14.340  19.505   8.826
    5AU       S 1935  15.989  20.741   8.550
    5AU     LIG 1936  15.813  20.474   8.899
    5AU     LIG 1937  15.757  20.346   9.342
    5AU     LIG 1938  15.660  20.377   9.803
    5AU     LIG 1939  15.534  20.245  10.250
    5AU    AUSL 1940  15.814  20.783   6.778
    5AU    AUSL 1941  16.010  20.433   6.958
    5AU     AUL 1942  16.053  20.423   6.626
    5AU       S 1943  15.738  20.646   6.373
    5AU     LIG 1944  15.399  20.556   6.127
    5AU     LIG 1945  15.240  20.621   5.705
    5AU     LIG 1946  15.259  20.562   5.244
    5AU     LIG 1947  15.070  20.563   4.815
    5AU       S 1948  15.633  20.328   6.792
    5AU     LIG 1949  15.697  20.021   6.542
    5AU     LIG 1950  15.375  19.728   6.402
    5AU     LIG 1951  15.076  19.536   6.096
    5AU     LIG 1952  15.103  19.283   5.681
    5AU    AUSL 1953  16.042  21.098   6.591
    5AU    AUSL 1954  15.673  21.172   6.908
    5AU     AUL 1955  15.630  21.008   6.622
    5AU       S 1956  15.490  21.436   6.685
    5AU     LIG 1957  15.146  21.680   6.655
    5AU     LIG 1958  14.893  21.916   6.330
    5AU     LIG 1959  14.520  21.972   6.022
    5AU     LIG 1960  14.101  21.795   5.850
    5AU       S 1961  15.984  21.000   6.311
    5AU     LIG 1962  15.684  20.951   5.920
    5AU     LIG 1963  15.660  20.829   5.458
    5AU     LIG 1964  15.624  20.808   4.980
    5AU     LIG 1965  15.439  20.856   4.555
    5AU    AUSL 1966  17.129  21.395   7.520
    5AU    AUSL 1967  17.040  21.225   7.114
    5AU     AUL 1968  17.356  21.525   7.302
    5AU       S 1969  17.184  21.376   6.903
    5AU     LIG 1970  17.603  21.392   6.701
    5AU     LIG 1971  17.886  21.564   6.339
    5AU     LIG 1972  18.075  21.893   6.033
    5AU     LIG 1973  18.289  22.314   5.957
    5AU       S 1974  17.532  21.279   7.668
    5AU     LIG 1975  17.650  21.730   7.719
    5AU     LIG 1976  18.046  21.951   7.468
    5AU     LIG 1977  18.452  22.195   7.322
    5AU     LIG 1978  18.837  22.367   7.585
    5AU    AUSL 1979  17.301  20.999   7.354
    5AU    AUSL 1980  17.248  20.657   7.704
    5AU     AUL 1981  17.562  20.687   7.511
    5AU       S 1982  17.507  21.122   7.444
    5AU     LIG 1983  17.891  20.997   7.251
    5AU     LIG 1984  18.323  21.179   7.245
    5AU     LIG 1985  18.760  21.123   7.080
    5AU     LIG 1986  19.183  21.317   7.041
    5AU       S 1987  17.465  20.257   7.693
    5AU     LIG 1988  17.907  20.302   7.730
    5AU     LIG 1989  18.252  20.066   7.976
    5AU     LIG 1990  18.657  19.871   8.056
    5AU     LIG 1991  19.108  19.808   7.978
    5AU    AUSL 1992  17.051  21.028   7.723
    5AU    AUSL 1993  16.801  21.425   7.784
    5AU     AUL 1994  17.142  21.440   7.844
    5AU       S 1995  17.129  21.636   8.255
    5AU     LIG 1996  17.476  21.929   8.302
    5AU     LIG 1997  17.849  22.205   8.428
    5AU     LIG 1998  18.060  22.497   8.734
    5AU     LIG 1999  18.152  22.922   8.864
    5AU       S 2000  17.433  21.073   7.820
    5AU     LIG 2001  17.964  21.123   7.788
    5AU     LIG 2002  18.355  21.402   7.720
    5AU     LIG 2003  18.818  21.479   7.901
    5AU     LIG 2004  19.285  21.543   8.038
    5AU    AUSL 2005  15.693  21.501   7.497
    5AU    AUSL 2006  15.755  21.307   7.896
    5AU     AUL 2007  15.459  21.618   7.727
    5AU       S 2008  15.596  21.468   8.138
    5AU     LIG 2009  15.465  21.380   8.546
    5AU     LIG 2010  15.286  21.734   8.802
    5AU     LIG 2011  15.038  22.069   9.030
    5AU     LIG 2012  14.618  22.152   9.234
    5AU       S 2013  15.704  21.892   7.424
    5AU     LIG 2014  15.255  21.928   7.355
    5AU     LIG 2015  14.901  22.238   7.515
    5AU     LIG 2016  14.439  22.294   7.560
    5AU     LIG 2017  14.046  22.435   7.372
    5AU    AUSL 2018  15.630  21.112   7.315
    5AU    AUSL 2019  15.763  21.560   7.084
    5AU     AUL 2020  15.462  21.424   7.168
    5AU       S 2021  15.283  20.928   6.977
    5AU     LIG 2022  14.927  21.230   7.034
    5AU     LIG 2023  14.528  21.479   6.979
    5AU     LIG 2024  14.153  21.632   6.753
    5AU     LIG 2025  13.768  21.858   6.659
    5AU       S 2026  15.599  21.834   6.919
    5AU     LIG 2027  15.445  22.108   6.581
    5AU     LIG 2028  15.470  22.521   6.361
    5AU     LIG 2029  15.292  22.866   6.089
    5AU     LIG 2030  15.185  23.311   5.942
    5AU    AUSL 2031  15.423  21.164   7.694
    5AU    AUSL 2032  15.384  20.788   7.413
    5AU     AUL 2033  15.231  21.113   7.416
    5AU       S 2034  15.181  20.723   7.691
    5AU     LIG 2035  14.859  20.759   7.353
    5AU     LIG 2036  14.464  20.500   7.236
    5AU     LIG 2037  13.993  20.468   7.321
    5AU     LIG 2038  13.636  20.442   7.019
    5AU       S 2039  15.234  21.220   7.906
    5AU     LIG 2040  14.732  21.294   7.916
    5AU     LIG 2041  14.272  21.494   8.014
    5AU     LIG 2042  13.848  21.727   8.183
    5AU     LIG 2043  13.392  21.577   8.158
    5AU    AUSL 2044  17.007  20.334   7.548
    5AU    AUSL 2045  16.865  20.590   7.880
    5AU     AUL 2046  17.175  20.502   7.960
    5AU       S 2047  17.190  20.180   7.544
    5AU     LIG 2048  17.504  19.770   7.581
    5AU     LIG 2049  17.976  19.774   7.637
    5AU     LIG 2050  18.430  19.720   7.613
    5AU     LIG 2051  18.851  19.538   7.582
    5AU       S 2052  17.073  20.067   8.008
    5AU     LIG 2053  17.324  19.794   8.360
    5AU     LIG 2054  17.541  19.455   8.619
    5AU     LIG 2055  17.958  19.356   8.849
    5AU     LIG 2056  18.262  19.624   9.105
    5AU    AUSL 2057  16.999  20.713   7.348
    5AU    AUSL 2058  16.947  20.307   7.131
    5AU     AUL 2059  17.233  20.532   7.185
    5AU       S 2060  17.447  20.232   7.441
    5AU     LIG 2061  17.786  20.032   7.234
    5AU     LIG 2062  18.202  19.832   7.162
    5AU     LIG 2063  18.662  19.736   7.140
    5AU     LIG 2064  19.086  19.962   7.099
    5AU       S 2065  17.157  20.176   6.871
    5AU     LIG 2066  17.315  19.727   6.789
    5AU     LIG 2067  17.597  19.373   6.584
    5AU     LIG 2068  17.778  19.015   6.326
    5AU     LIG 2069  17.824  18.624   6.052
    5AU    AUSL 2070  15.578  20.426   7.572
    5AU    AUSL 2071  15.690  20.653   7.159
    5AU     AUL 2072  15.329  20.491   7.296
    5AU       S 2073  15.494  20.456   6.866
    5AU     LIG 2074  15.180  20.113   6.720
    5AU     LIG 2075  14.887  19.937   6.414
    5AU     LIG 2076  14.508  19.741   6.223
    5AU     LIG 2077  14.074  19.600   6.048
    5AU       S 2078  15.151  20.503   7.741
    5AU     LIG 2079  14.810  20.292   7.560
    5AU     LIG 2080  14.656  19.913   7.314
    5AU     LIG 2081  14.296  19.608   7.433
    5AU     LIG 2082  13.859  19.456   7.536
    5AU    AUSL 2083  15.649  20.814   7.757
    5AU    AUSL 2084  15.901  20.432   7.848
    5AU     AUL 2085  15.563  20.406   7.921
    5AU       S 2086  15.628  20.242   8.356
    5AU     LIG 2087  15.322  19.948   8.180
    5AU     LIG 2088  14.963  19.617   8.272
    5AU     LIG 2089  14.647  19.273   8.453
    5AU     LIG 2090  14.474  18.831   8.591
    5AU       S 2091  15.251  20.745   7.876
    5AU     LIG 2092  14.725  20.768   7.860
    5AU     LIG 2093  14.308  20.625   7.707
    5AU     LIG 2094  13.821  20.595   7.828
    5AU     LIG 2095  13.461  20.258   8.000
    5AU    AUSL 2096  16.398  21.630   7.903
    5AU    AUSL 2097  15.963  21.663   7.789
    5AU     AUL 2098  16.185  21.739   8.174
    5AU       S 2099  15.818  21.871   7.912
    5AU     LIG 2100  15.531  22.130   8.224
    5AU     LIG 2101  15.254  22.264   8.600
    5AU     LIG 2102  14.914  22.598   8.743
    5AU     LIG 2103  14.651  22.978   8.536
    5AU       S 2104  16.438  22.064   7.971
    5AU     LIG 2105  16.355  22.220   8.344
    5AU     LIG 2106  16.400  22.654   8.472
    5AU     LIG 2107  16.385  23.097   8.607
    5AU     LIG 2108  16.272  23.343   8.983
    5AU    AUSL 2109  16.251  21.878   7.572
    5AU    AUSL 2110  16.511  21.777   7.224
    5AU     AUL 2111  16.507  22.138   7.365
    5AU       S 2112  16.256  22.082   7.776
    5AU     LIG 2113  16.247  22.542   7.950
    5AU     LIG 2114  16.439  22.970   8.061
    5AU     LIG 2115  16.268  23.401   8.195
    5AU     LIG 2116  16.012  23.830   8.159
    5AU       S 2117  16.248  22.055   7.002
    5AU     LIG 2118  16.683  22.310   6.928
    5AU     LIG 2119  16.751  22.803   6.876
    5AU     LIG 2120  16.810  23.288   6.868
    5AU     LIG 2121  16.927  23.696   6.638
    5AU    AUSL 2122  16.686  21.789   7.617
    5AU    AUSL 2123  16.671  21.495   8.190
    5AU     AUL 2124  16.783  21.747   7.961
    5AU       S 2125  16.906  21.572   8.401
    5AU     LIG 2126  17.257  21.626   8.727
    5AU     LIG 2127  17.599  21.924   8.818
    5AU     LIG 2128  17.777  22.092   9.206
    5AU     LIG 2129  17.708  22.129   9.681
    5AU       S 2130  16.602  22.152   7.819
    5AU     LIG 2131  16.740  22.500   8.088
    5AU     LIG 2132  17.029  22.862   8.150
    5AU     LIG 2133  17.040  23.311   8.184
    5AU     LIG 2134  16.812  23.678   8.379
    5AU    AUSL 2135  16.271  20.202   7.941
    5AU    AUSL 2136  16.684  20.205   7.784
    5AU     AUL 2137  16.497  20.087   8.168
    5AU       S 2138  16.230  19.750   7.992
    5AU     LIG 2139  16.279  19.572   8.342
    5AU     LIG 2140  16.164  19.151   8.453
    5AU     LIG 2141  16.391  18.802   8.650
    5AU     LIG 2142  16.387  18.403   8.895
    5AU       S 2143  16.837  19.976   7.839
    5AU     LIG 2144  17.170  19.599   7.915
    5AU     LIG 2145  17.165  19.289   8.258
    5AU     LIG 2146  17.338  18.983   8.569
    5AU     LIG 2147  17.753  18.838   8.733
    5AU    AUSL 2148  15.955  20.066   7.658
    5AU    AUSL 2149  16.074  20.392   8.255
    5AU     AUL 2150  15.923  20.106   8.021
    5AU       S 2151  16.039  19.686   7.847
    5AU     LIG 2152  15.841  19.362   8.104
    5AU     LIG 2153  15.896  18.873   8.095
    5AU     LIG 2154  15.817  18.384   8.051
    5AU     LIG 2155  15.618  18.030   8.290
    5AU       S 2156  15.919  20.277   8.457
    5AU     LIG 2157  15.807  19.793   8.415
    5AU     LIG 2158  15.391  19.608   8.569
    5AU     LIG 2159  14.983  19.474   8.791
    5AU     LIG 2160  14.834  19.142   9.098
    5AU    AUSL 2161  16.387  19.967   7.602
    5AU    AUSL 2162  16.165  20.213   7.316
    5AU     AUL 2163  16.034  19.873   7.419
    5AU       S 2164  16.379  19.770   7.145
    5AU     LIG 2165  15.979  19.537   7.057
    5AU     LIG 2166  15.888  19.117   6.893
    5AU     LIG 2167  15.904  18.643   6.823
    5AU     LIG 2168  15.901  18.233   6.606
    5AU       S 2169  16.365  19.751   7.757
    5AU     LIG 2170  16.293  19.241   7.913
    5AU     LIG 2171  16.413  18.829   8.133
    5AU     LIG 2172  16.306  18.384   8.323
    5AU     LIG 2173  16.415  17.904   8.417
    5AU    AUSL 2174  16.333  21.621   6.853
    5AU    AUSL 2175  16.893  21.614   7.245
    5AU     AUL 2176  16.669  21.779   6.939
    5AU       S 2177  16.281  22.015   6.783
    5AU     LIG 2178  16.387  22.352   6.520
    5AU     LIG 2179  16.648  22.703   6.366
    5AU     LIG 2180  16.567  23.143   6.329
    5AU     LIG 2181  16.790  23.516   6.172
    5AU       S 2182  17.123  21.783   7.007
    5AU     LIG 2183  17.598  21.834   6.985
    5AU     LIG 2184  17.893  21.964   6.655
    5AU     LIG 2185  18.129  22.327   6.462
    5AU     LIG 2186  18.051  22.749   6.244
    5AU    AUSL 2187  16.126  21.614   7.271
    5AU    AUSL 2188  16.086  21.298   6.952
    5AU     AUL 2189  16.019  21.643   6.871
    5AU       S 2190  16.083  22.018   7.139
    5AU     LIG 2191  16.245  22.533   7.019
    5AU     LIG 2192  16.265  22.838   6.666
    5AU     LIG 2193  16.132  23.285   6.692
    5AU     LIG 2194  15.881  23.591   6.986
    5AU       S 2195  15.723  21.498   6.570
    5AU     LIG 2196  15.896  21.897   6.457
    5AU     LIG 2197  15.728  22.147   6.121
    5AU     LIG 2198  15.593  22.498   5.845
    5AU     LIG 2199  15.394  22.640   5.439
    5AU    AUSL 2200  16.351  20.182   6.922
    5AU    AUSL 2201  15.754  20.225   7.242
    5AU     AUL 2202  16.009  20.061   6.984
    5AU       S 2203  15.564  20.187   7.032
    5AU     LIG 2204  15.498  19.770   6.946
    5AU     LIG 2205  15.082  19.596   6.799
    5AU     LIG 2206  14.783  19.386   6.507
    5AU     LIG 2207  14.533  18.981   6.422
    5AU       S 2208  16.392  19.784   6.892
    5AU     LIG 2209  16.235  19.433   6.629
    5AU     LIG 2210  16.297  18.965   6.613
    5AU     LIG 2211  16.225  18.566   6.393
    5AU     LIG 2212  16.009  18.240   6.100
    5AU    AUSL 2213  16.592  20.179   7.306
    5AU    AUSL 2214  16.607  20.509   6.960
    5AU     AUL 2215  16.700  20.128   6.954
    5AU       S 2216  16.566  19.766   7.212
    5AU     LIG 2217  16.443  19.286   7.080
    5AU     LIG 2218  16.284  18.851   7.115
    5AU     LIG 2219  16.393  18.450   6.887
    5AU     LIG 2220  16.762  18.139   6.784
    5AU       S 2221  16.906  20.339   6.609
    5AU     LIG 2222  16.855  19.845   6.577
    5AU     LIG 2223  17.105  19.498   6.376
    5AU     LIG 2224  17.395  19.275   6.085
    5AU     LIG 2225  17.452  19.013   5.697
    6AU     AUC 2226  28.824  33.776   7.499
    6AU     AUC 2227  29.109  33.780   7.325
    6AU     AUC 2228  29.081  33.757   7.671
    6AU     AUC 2229  28.541  33.776   7.331
    6AU     AUC 2230  28.554  33.810   7.680
    6AU     AUC 2231  28.665  34.060   7.497
    6AU     AUC 2232  29.023  34.060   7.493
    6AU     AUC 2233  28.629  33.504   7.506
    6AU     AUC 2234  28.985  33.479   7.494
    6AU     AUC 2235  28.818  33.596   7.772
    6AU     AUC 2236  28.824  33.961   7.763
    6AU     AUC 2237  28.819  33.609   7.225
    6AU     AUC 2238  28.843  33.931   7.223
    6AU     AUC 2239  29.418  33.787   7.162
    6AU     AUC 2240  29.427  33.744   7.519
    6AU     AUC 2241  29.369  33.724   7.873
    6AU     AUC 2242  28.242  33.769   7.157
    6AU     AUC 2243  28.219  33.815   7.521
    6AU     AUC 2244  28.267  33.844   7.867
    6AU     AUC 2245  28.507  34.367   7.479
    6AU     AUC 2246  28.879  34.393   7.455
    6AU     AUC 2247  29.218  34.337   7.487
    6AU     AUC 2248  28.426  33.230   7.512
    6AU     AUC 2249  28.783  33.170   7.481
    6AU     AUC 2250  29.151  33.179   7.478
    6AU     AUC 2251  28.795  33.415   8.061
    6AU     AUC 2252  28.817  33.776   8.094
    6AU     AUC 2253  28.855  34.130   8.058
    6AU     AUC 2254  28.845  33.430   6.950
    6AU     AUC 2255  28.834  33.768   6.891
    6AU     AUC 2256  28.824  34.098   6.921
    6AU     AUC 2257  29.084  33.534   7.993
    6AU     AUC 2258  29.135  33.925   7.988
    6AU     AUC 2259  29.154  33.632   6.999
    6AU     AUC 2260  29.147  33.954   7.028
    6AU     AUC 2261  28.510  33.641   8.005
    6AU     AUC 2262  28.549  34.024   7.991
    6AU     AUC 2263  28.523  33.585   7.039
    6AU     AUC 2264  28.509  33.910   6.993
    6AU     AUC 2265  29.364  34.067   7.339
    6AU     AUC 2266  29.302  34.040   7.694
    6AU     AUC 2267  28.351  34.081   7.310
    6AU     AUC 2268  28.361  34.128   7.675
    6AU     AUC 2269  29.300  33.467   7.325
    6AU     AUC 2270  29.269  33.424   7.677
    6AU     AUC 2271  28.301  33.477   7.357
    6AU     AUC 2272  28.347  33.525   7.710
    6AU     AUC 2273  28.689  34.299   7.764
    6AU     AUC 2274  29.044  34.249   7.777
    6AU     AUC 2275  28.608  33.306   7.794
    6AU     AUC 2276  28.945  33.248   7.767
    6AU     AUC 2277  28.662  34.218   7.184
    6AU     AUC 2278  29.035  34.256   7.199
    6AU     AUC 2279  28.626  33.298   7.209
    6AU     AUC 2280  29.019  33.311   7.203
    6AU    AUSL 2281  29.341  33.631   8.252
    6AU    AUSL 2282  29.098  33.231   8.159
    6AU     AUL 2283  29.324  33.222   8.467
    6AU       S 2284  29.443  32.947   8.120
    6AU     LIG 2285  29.332  32.657   8.404
    6AU     LIG 2286  29.576  32.342   8.629
    6AU     LIG 2287  29.866  32.048   8.865
    6AU     LIG 2288  30.183  32.045   9.204
    6AU       S 2289  29.533  33.599   8.338
    6AU     LIG 2290  29.419  33.635   8.795
    6AU     LIG 2291  29.671  33.677   9.188
    6AU     LIG 2292  30.066  33.557   9.426
    6AU     LIG 2293  30.348  33.632   9.794
    6AU    AUSL 2294  28.933  33.565   8.390
    6AU    AUSL 2295  28.697  33.959   8.419
    6AU     AUL 2296  28.901  33.877   8.743
    6AU       S 2297  28.965  33.494   8.519
    6AU     LIG 2298  28.979  33.401   8.943
    6AU     LIG 2299  29.265  33.369   9.330
    6AU     LIG 2300  29.372  33.201   9.783
    6AU     LIG 2301  29.360  32.987  10.229
    6AU       S 2302  28.494  33.706   8.629
    6AU     LIG 2303  28.567  33.690   9.095
    6AU     LIG 2304  28.310  33.760   9.477
    6AU     LIG 2305  28.014  33.814   9.828
    6AU     LIG 2306  27.881  34.110  10.167
    6AU    AUSL 2307  29.023  33.939   8.162
    6AU    AUSL 2308  29.465  34.017   8.113
    6AU     AUL 2309  29.247  33.942   8.447
    6AU       S 2310  28.928  34.327   8.587
    6AU     LIG 2311  29.298  34.191   8.877
    6AU     LIG 2312  29.465  34.143   9.326
    6AU     LIG 2313  29.439  34.188   9.815
    6AU     LIG 2314  29.493  34.344  10.268
    6AU       S 2315  29.619  34.200   8.332
    6AU     LIG 2316  30.033  34.152   8.301
    6AU     LIG 2317  30.366  34.350   8.572
    6AU     LIG 2318  30.630  34.646   8.867
    6AU     LIG 2319  30.837  35.052   9.052
    6AU    AUSL 2320  29.363  33.922   6.758
    6AU    AUSL 2321  29.138  34.230   6.965
    6AU     AUL 2322  29.220  34.314   6.605
    6AU       S 2323  29.349  33.943   6.353
    6AU     LIG 2324  29.777  33.797   6.213
    6AU     LIG 2325  29.969  33.506   5.902
    6AU     LIG 2326  29.931  33.453   5.441
    6AU     LIG 2327  29.927  33.438   4.971
    6AU       S 2328  29.600  34.456   6.845
    6AU     LIG 2329  29.734  34.594   6.445
    6AU     LIG 2330  29.920  34.797   6.059
    6AU     LIG 2331  30.083  35.112   5.753
    6AU     LIG 2332  29.980  35.373   5.359
    6AU    AUSL 2333  29.143  33.581   6.622
    6AU    AUSL 2334  29.480  33.538   6.925
    6AU     AUL 2335  29.602  33.721   6.686
    6AU       S 2336  29.545  33.264   6.676
    6AU     LIG 2337  30.006  33.226   6.591
    6AU     LIG 2338  30.103  32.811   6.440
    6AU     LIG 2339  30.333  32.469   6.230
    6AU     LIG 2340  30.481  32.210   5.859
    6AU       S 2341  29.297  33.682   6.330
    6AU     LIG 2342  29.499  33.364   6.107
    6AU     LIG 2343  29.568  33.176   5.677
    6AU     LIG 2344  29.519  33.203   5.200
    6AU     LIG 2345  29.429  33.127   4.729
    6AU    AUSL 2346  28.940  33.959   6.691
    6AU    AUSL 2347  28.723  33.565   6.729
    6AU     AUL 2348  28.867  33.579   6.447
    6AU       S 2349  28.437  33.596   6.290
    6AU     LIG 2350  28.412  33.378   5.893
    6AU     LIG 2351  28.162  33.190   5.555
    6AU     LIG 2352  28.064  33.230   5.101
    6AU     LIG 2353  28.141  33.366   4.651
    6AU       S 2354  29.037  33.987   6.331
    6AU     LIG 2355  29.112  33.808   5.900
    6AU     LIG 2356  29.493  33.687   5.662
    6AU     LIG 2357  29.563  33.729   5.204
    6AU     LIG 2358  29.506  33.900   4.773
    6AU    AUSL 2359  28.298  33.921   8.252
    6AU    AUSL 2360  28.586  34.276   8.153
    6AU     AUL 2361  28.453  34.199   8.490
    6AU       S 2362  28.297  33.790   8.679
    6AU     LIG 2363  28.052  33.660   9.016
    6AU     LIG 2364  27.823  33.572   9.407
    6AU     LIG 2365  27.614  33.446   9.811
    6AU     LIG 2366  27.259  33.211  10.028
    6AU       S 2367  28.237  34.519   8.213
    6AU     LIG 2368  28.359  34.842   8.444
    6AU     LIG 2369  28.099  34.986   8.749
    6AU     LIG 2370  27.763  35.213   8.982
    6AU     LIG 2371  27.592  35.387   9.363
    6AU    AUSL 2372  28.587  33.624   8.158
    6AU    AUSL 2373  28.166  33.516   8.128
    6AU     AUL 2374  28.083  33.734   8.276
    6AU       S 2375  28.052  33.267   8.376
    6AU     LIG 2376  27.616  33.123   8.213
    6AU     LIG 2377  27.267  32.824   8.262
    6AU     LIG 2378  26.895  32.733   8.546
    6AU     LIG 2379  26.872  32.843   9.021
    6AU       S 2380  28.459  33.561   8.543
    6AU     LIG 2381  28.375  33.273   8.871
    6AU     LIG 2382  28.261  33.279   9.306
    6AU     LIG 2383  28.109  33.291   9.739
    6AU     LIG 2384  28.073  33.050  10.134
    6AU    AUSL 2385  28.298  33.632   6.769
    6AU    AUSL 2386  28.503  33.282   6.953
    6AU     AUL 2387  28.536  33.274   6.624
    6AU       S 2388  28.258  33.536   6.369
    6AU     LIG 2389  27.943  33.395   6.120
    6AU     LIG 2390  27.751  33.468   5.721
    6AU     LIG 2391  27.669  33.523   5.277
    6AU     LIG 2392  27.659  33.428   4.818
    6AU       S 2393  28.122  33.129   6.772
    6AU     LIG 2394  27.885  32.733   6.668
    6AU     LIG 2395  27.545  32.498   6.450
    6AU     LIG 2396  27.431  32.161   6.145
    6AU     LIG 2397  27.263  32.316   5.755
    6AU    AUSL 2398  28.531  33.949   6.599
    6AU    AUSL 2399  28.182  34.033   6.902
    6AU     AUL 2400  28.091  33.867   6.629
    6AU       S 2401  28.199  34.310   6.634
    6AU     LIG 2402  27.916  34.593   6.400
    6AU     LIG 2403  27.635  34.791   6.057
    6AU     LIG 2404  27.195  34.852   5.862
    6AU     LIG 2405  26.754  34.664   5.764
    6AU       S 2406  28.485  33.875   6.349
    6AU     LIG 2407  28.184  33.842   5.942
    6AU     LIG 2408  28.146  33.697   5.484
    6AU     LIG 2409  28.063  33.742   5.021
    6AU     LIG 2410  28.110  33.900   4.586
    6AU    AUSL 2411  29.648  34.259   7.519
    6AU    AUSL 2412  29.527  34.050   7.124
    6AU     AUL 2413  29.897  34.257   7.193
    6AU       S 2414  29.606  34.297   6.864
    6AU     LIG 2415  29.922  34.127   6.619
    6AU     LIG 2416  30.173  34.349   6.292
    6AU     LIG 2417  30.418  34.673   6.042
    6AU     LIG 2418  30.576  34.952   5.700
    6AU       S 2419  30.050  34.340   7.622
    6AU     LIG 2420  30.347  34.549   7.340
    6AU     LIG 2421  30.826  34.635   7.399
    6AU     LIG 2422  31.244  34.720   7.642
    6AU     LIG 2423  31.661  34.903   7.822
    6AU    AUSL 2424  29.801  33.860   7.399
    6AU    AUSL 2425  29.722  33.539   7.728
    6AU     AUL 2426  29.939  33.752   7.843
    6AU       S 2427  30.106  33.938   7.446
    6AU     LIG 2428  30.374  34.094   7.081
    6AU     LIG 2429  30.844  34.206   7.076
    6AU     LIG 2430  31.214  34.499   7.081
    6AU     LIG 2431  31.617  34.656   6.901
    6AU       S 2432  29.976  33.358   7.576
    6AU     LIG 2433  30.341  33.157   7.741
    6AU     LIG 2434  30.756  32.972   7.715
    6AU     LIG 2435  31.160  32.796   7.822
    6AU     LIG 2436  31.376  32.829   8.296
    6AU    AUSL 2437  29.508  33.896   7.714
    6AU    AUSL 2438  29.337  34.300   7.806
    6AU     AUL 2439  29.695  34.167   7.871
    6AU       S 2440  29.630  34.484   8.204
    6AU     LIG 2441  30.016  34.663   8.339
    6AU     LIG 2442  30.406  34.870   8.466
    6AU     LIG 2443  30.613  35.247   8.635
    6AU     LIG 2444  30.626  35.701   8.745
    6AU       S 2445  30.102  34.131   7.642
    6AU     LIG 2446  30.402  34.035   7.970
    6AU     LIG 2447  30.854  33.972   7.922
    6AU     LIG 2448  31.245  34.150   8.052
    6AU     LIG 2449  31.622  34.350   7.895
    6AU    AUSL 2450  28.168  34.358   7.515
    6AU    AUSL 2451  28.249  34.142   7.902
    6AU     AUL 2452  27.945  34.458   7.781
    6AU       S 2453  28.078  34.324   8.200
    6AU     LIG 2454  27.988  34.477   8.637
    6AU     LIG 2455  27.681  34.717   8.895
    6AU     LIG 2456  27.405  34.892   9.234
    6AU     LIG 2457  27.013  34.785   9.494
    6AU       S 2458  28.155  34.725   7.447
    6AU     LIG 2459  27.707  34.914   7.607
    6AU     LIG 2460  27.326  35.266   7.663
    6AU     LIG 2461  26.872  35.486   7.794
    6AU     LIG 2462  26.406  35.651   7.669
    6AU    AUSL 2463  28.120  33.980   7.310
    6AU    AUSL 2464  28.267  34.411   7.109
    6AU     AUL 2465  27.964  34.284   7.150
    6AU       S 2466  27.748  33.863   6.978
    6AU     LIG 2467  27.318  34.151   6.970
    6AU     LIG 2468  26.914  34.475   6.886
    6AU     LIG 2469  26.475  34.633   6.683
    6AU     LIG 2470  26.032  34.818   6.755
    6AU       S 2471  28.089  34.686   6.895
    6AU     LIG 2472  28.000  35.055   6.618
    6AU     LIG 2473  27.666  35.212   6.348
    6AU     LIG 2474  27.293  35.480   6.361
    6AU     LIG 2475  27.103  35.906   6.316
    6AU    AUSL 2476  27.911  34.013   7.697
    6AU    AUSL 2477  27.870  33.656   7.386
    6AU     AUL 2478  27.724  33.996   7.429
    6AU       S 2479  27.621  33.562   7.617
    6AU     LIG 2480  27.208  33.384   7.422
    6AU     LIG 2481  26.889  33.084   7.319
    6AU     LIG 2482  26.471  33.000   7.210
    6AU     LIG 2483  26.054  32.849   7.139
    6AU       S 2484  27.790  34.002   7.942
    6AU     LIG 2485  27.379  34.125   7.815
    6AU     LIG 2486  26.908  34.246   7.914
    6AU     LIG 2487  26.434  34.355   7.993
    6AU     LIG 2488  25.968  34.485   8.150
    6AU    AUSL 2489  29.523  33.194   7.543
    6AU    AUSL 2490  29.342  33.447   7.877
    6AU     AUL 2491  29.670  33.332   7.946
    6AU       S 2492  29.816  33.096   7.537
    6AU     LIG 2493  29.883  32.666   7.710
    6AU     LIG 2494  30.146  32.278   7.674
    6AU     LIG 2495  30.535  32.101   7.487
    6AU     LIG 2496  30.960  32.056   7.595
    6AU       S 2497  29.545  32.900   7.976
    6AU     LIG 2498  29.841  32.678   8.252
    6AU     LIG 2499  30.074  32.432   8.563
    6AU     LIG 2500  30.419  32.339   8.842
    6AU     LIG 2501  30.855  32.191   8.879
    6AU    AUSL 2502  29.509  33.572   7.340
    6AU    AUSL 2503  29.426  33.155   7.131
    6AU     AUL 2504  29.703  33.345   7.149
    6AU       S 2505  30.051  33.433   7.417
    6AU     LIG 2506  30.206  33.124   7.133
    6AU     LIG 2507  30.586  32.884   7.019
    6AU     LIG 2508  31.010  32.680   6.905
    6AU     LIG 2509  31.467  32.731   7.026
    6AU       S 2510  29.608  33.041   6.809
    6AU     LIG 2511  29.929  32.736   6.911
    6AU     LIG 2512  30.077  32.344   6.678
    6AU     LIG 2513  30.386  32.019   6.500
    6AU     LIG 2514  30.547  31.722   6.158
    6AU    AUSL 2515  28.044  33.283   7.543
    6AU    AUSL 2516  28.187  33.506   7.152
    6AU     AUL 2517  27.823  33.393   7.218
    6AU       S 2518  28.020  33.265   6.826
    6AU     LIG 2519  27.581  33.145   6.709
    6AU     LIG 2520  27.186  32.882   6.583
    6AU     LIG 2521  26.735  32.843   6.372
    6AU     LIG 2522  26.514  32.905   5.989
    6AU       S 2523  27.634  33.268   7.627
    6AU     LIG 2524  27.406  32.879   7.760
    6AU     LIG 2525  26.989  32.679   7.852
    6AU     LIG 2526  26.617  32.645   7.597
    6AU     LIG 2527  26.353  32.257   7.598
    6AU    AUSL 2528  28.129  33.661   7.737
    6AU    AUSL 2529  28.351  33.265   7.838
    6AU     AUL 2530  27.996  33.323   7.899
    6AU       S 2531  28.086  33.023   8.225
    6AU     LIG 2532  27.822  32.669   8.053
    6AU     LIG 2533  27.705  32.220   8.165
    6AU     LIG 2534  27.408  31.954   8.419
    6AU     LIG 2535  27.203  31.551   8.520
    6AU       S 2536  27.631  33.579   7.787
    6AU     LIG 2537  27.263  33.340   7.939
    6AU     LIG 2538  26.882  33.183   7.809
    6AU     LIG 2539  26.581  32.962   8.027
    6AU     LIG 2540  26.084  32.997   8.039
    6AU    AUSL 2541  28.887  34.445   7.901
    6AU    AUSL 2542  28.449  34.501   7.804
    6AU     AUL 2543  28.706  34.588   8.168
    6AU       S 2544  28.329  34.707   7.916
    6AU     LIG 2545  27.967  34.933   8.094
    6AU     LIG 2546  27.734  35.175   8.440
    6AU     LIG 2547  27.684  35.602   8.639
    6AU     LIG 2548  27.358  35.873   8.856
    6AU       S 2549  28.930  34.944   7.965
    6AU     LIG 2550  28.999  35.170   8.343
    6AU     LIG 2551  29.039  35.586   8.587
    6AU     LIG 2552  28.943  36.012   8.760
    6AU     LIG 2553  29.001  36.463   8.909
    6AU    AUSL 2554  28.731  34.720   7.595
    6AU    AUSL 2555  29.011  34.659   7.229
    6AU     AUL 2556  28.771  34.934   7.331
    6AU       S 2557  28.789  34.931   7.802
    6AU     LIG 2558  28.961  35.415   7.873
    6AU     LIG 2559  28.929  35.846   7.953
    6AU     LIG 2560  28.623  36.063   8.195
    6AU     LIG 2561  28.671  36.383   8.515
    6AU       S 2562  28.932  34.986   6.893
    6AU     LIG 2563  29.108  35.279   7.179
    6AU     LIG 2564  29.309  35.678   7.061
    6AU     LIG 2565  29.457  36.134   6.984
    6AU     LIG 2566  29.404  36.400   6.616
    6AU    AUSL 2567  29.164  34.634   7.625
    6AU    AUSL 2568  29.158  34.333   8.199
    6AU     AUL 2569  29.242  34.610   7.982
    6AU       S 2570  29.390  34.413   8.401
    6AU     LIG 2571  29.729  34.467   8.733
    6AU     LIG 2572  30.108  34.690   8.862
    6AU     LIG 2573  30.314  35.049   9.056
    6AU     LIG 2574  30.186  35.326   9.419
    6AU       S 2575  29.143  34.953   7.660
    6AU     LIG 2576  29.384  35.361   7.625
    6AU     LIG 2577  29.407  35.679   7.987
    6AU     LIG 2578  29.410  36.092   8.243
    6AU     LIG 2579  29.463  36.588   8.224
    6AU    AUSL 2580  28.764  33.104   7.920
    6AU    AUSL 2581  29.177  33.070   7.758
    6AU     AUL 2582  28.977  32.929   8.129
    6AU       S 2583  28.753  32.548   7.988
    6AU     LIG 2584  28.677  32.109   8.199
    6AU     LIG 2585  28.464  31.693   8.320
    6AU     LIG 2586  28.422  31.283   8.575
    6AU     LIG 2587  28.730  30.979   8.736
    6AU       S 2588  29.335  32.846   7.817
    6AU     LIG 2589  29.454  32.405   7.963
    6AU     LIG 2590  29.845  32.188   8.120
    6AU     LIG 2591  30.096  31.928   8.419
    6AU     LIG 2592  30.384  31.822   8.777
    6AU    AUSL 2593  28.446  32.905   7.659
    6AU    AUSL 2594  28.528  33.222   8.243
    6AU     AUL 2595  28.477  32.928   8.013
    6AU       S 2596  28.546  32.497   7.825
    6AU     LIG 2597  28.245  32.131   7.899
    6AU     LIG 2598  28.114  31.678   7.912
    6AU     LIG 2599  28.165  31.285   8.145
    6AU     LIG 2600  27.920  31.070   8.448
    6AU       S 2601  28.280  33.109   8.414
    6AU     LIG 2602  27.883  32.774   8.570
    6AU     LIG 2603  27.515  32.477   8.595
    6AU     LIG 2604  27.393  32.333   9.042
    6AU     LIG 2605  27.613  32.432   9.455
    6AU    AUSL 2606  28.872  32.822   7.613
    6AU    AUSL 2607  28.650  33.063   7.319
    6AU     AUL 2608  28.519  32.722   7.417
    6AU       S 2609  28.881  32.606   7.174
    6AU     LIG 2610  28.546  32.255   7.195
    6AU     LIG 2611  28.498  31.779   7.047
    6AU     LIG 2612  28.345  31.370   6.792
    6AU     LIG 2613  28.189  30.985   6.523
    6AU       S 2614  28.880  32.613   7.738
    6AU     LIG 2615  28.931  32.127   7.760
    6AU     LIG 2616  28.700  31.697   7.850
    6AU     LIG 2617  28.722  31.287   8.123
    6AU     LIG 2618  29.111  31.116   8.333
    6AU    AUSL 2619  28.829  34.497   6.868
    6AU    AUSL 2620  29.364  34.433   7.266
    6AU     AUL 2621  29.184  34.613   6.960
    6AU       S 2622  28.822  34.705   6.672
    6AU     LIG 2623  28.910  35.022   6.363
    6AU     LIG 2624  29.081  35.431   6.203
    6AU     LIG 2625  28.898  35.845   6.289
    6AU     LIG 2626  29.062  36.270   6.248
    6AU       S 2627  29.601  34.607   7.152
    6AU     LIG 2628  30.039  34.657   6.900
    6AU     LIG 2629  30.206  34.847   6.491
    6AU     LIG 2630  30.411  35.176   6.189
    6AU     LIG 2631  30.744  35.553   6.167
    6AU    AUSL 2632  28.643  34.456   7.287
    6AU    AUSL 2633  28.589  34.172   6.948
    6AU     AUL 2634  28.522  34.616   7.040
    6AU       S 2635  28.731  34.972   6.858
    6AU     LIG 2636  28.935  35.437   6.700
    6AU     LIG 2637  28.936  35.894   6.799
    6AU     LIG 2638  28.725  36.272   6.663
    6AU     LIG 2639  28.499  36.693   6.649
    6AU       S 2640  28.399  34.407   6.646
    6AU     LIG 2641  28.400  34.811   6.440
    6AU     LIG 2642  28.134  34.960   6.101
    6AU     LIG 2643  27.876  35.229   5.822
    6AU     LIG 2644  27.761  35.348   5.380
    6AU    AUSL 2645  28.832  33.014   6.926
    6AU    AUSL 2646  28.241  33.075   7.233
    6AU     AUL 2647  28.499  32.906   6.984
    6AU       S 2648  28.046  33.017   7.052
    6AU     LIG 2649  27.613  32.832   7.117
    6AU     LIG 2650  27.362  32.472   6.926
    6AU     LIG 2651  27.246  32.119   6.632
    6AU     LIG 2652  26.876  32.022   6.339
    6AU       S 2653  28.874  32.600   6.961
    6AU     LIG 2654  28.835  32.117   6.790
    6AU     LIG 2655  28.771  31.643   6.634
    6AU     LIG 2656  28.559  31.336   6.325
    6AU     LIG 2657  28.622  31.183   5.881
    6AU    AUSL 2658  29.075  33.022   7.306
    6AU    AUSL 2659  29.080  33.348   6.960
    6AU     AUL 2660  29.172  32.965   6.948
    6AU       S 2661  29.121  32.626   7.265
    6AU     LIG 2662  29.037  32.134   7.257
    6AU     LIG 2663  29.015  31.661   7.096
    6AU     LIG 2664  29.296  31.351   6.837
    6AU     LIG 2665  29.323  30.953   6.581
    6AU       S 2666  29.356  33.174   6.586
    6AU     LIG 2667  29.482  32.739   6.446
    6AU     LIG 2668  29.789  32.458   6.240
    6AU     LIG 2669  30.003  32.438   5.832
    6AU     LIG 2670  30.177  32.346   5.414
    7AU     AUC 2671   0.995  33.977   7.499
    7AU     AUC 2672   1.280  33.988   7.322
    7AU     AUC 2673   1.262  33.966   7.670
    7AU     AUC 2674   0.707  33.969   7.334
    7AU     AUC 2675   0.726  34.006   7.684
    7AU     AUC 2676   0.822  34.255   7.499
    7AU     AUC 2677   1.176  34.263   7.488
    7AU     AUC 2678   0.810  33.704   7.505
    7AU     AUC 2679   1.163  33.688   7.492
    7AU     AUC 2680   0.999  33.800   7.774
    7AU     AUC 2681   0.988  34.166   7.763
    7AU     AUC 2682   0.988  33.812   7.224
    7AU     AUC 2683   1.004  34.134   7.222
    7AU     AUC 2684   1.585  34.004   7.153
    7AU     AUC 2685   1.603  33.962   7.510
    7AU     AUC 2686   1.550  33.947   7.861
    7AU     AUC 2687   0.407  33.956   7.165
    7AU     AUC 2688   0.387  33.999   7.529
    7AU     AUC 2689   0.443  34.032   7.871
    7AU     AUC 2690   0.656  34.559   7.482
    7AU     AUC 2691   1.021  34.600   7.455
    7AU     AUC 2692   1.355  34.556   7.481
    7AU     AUC 2693   0.612  33.424   7.516
    7AU     AUC 2694   0.963  33.372   7.490
    7AU     AUC 2695   1.330  33.391   7.472
    7AU     AUC 2696   0.987  33.621   8.068
    7AU     AUC 2697   0.995  33.984   8.095
    7AU     AUC 2698   1.009  34.342   8.058
    7AU     AUC 2699   1.011  33.637   6.948
    7AU     AUC 2700   0.996  33.974   6.890
    7AU     AUC 2701   0.980  34.301   6.923
    7AU     AUC 2702   1.273  33.755   7.985
    7AU     AUC 2703   1.299  34.139   7.987
    7AU     AUC 2704   1.318  33.841   6.993
    7AU     AUC 2705   1.306  34.167   7.030
    7AU     AUC 2706   0.694  33.845   8.018
    7AU     AUC 2707   0.714  34.220   7.995
    7AU     AUC 2708   0.689  33.783   7.043
    7AU     AUC 2709   0.667  34.106   6.995
    7AU     AUC 2710   1.521  34.281   7.348
    7AU     AUC 2711   1.464  34.249   7.695
    7AU     AUC 2712   0.507  34.268   7.314
    7AU     AUC 2713   0.520  34.317   7.678
    7AU     AUC 2714   1.473  33.681   7.309
    7AU     AUC 2715   1.457  33.643   7.663
    7AU     AUC 2716   0.473  33.668   7.367
    7AU     AUC 2717   0.529  33.720   7.719
    7AU     AUC 2718   0.835  34.502   7.766
    7AU     AUC 2719   1.181  34.464   7.774
    7AU     AUC 2720   0.806  33.502   7.803
    7AU     AUC 2721   1.135  33.457   7.770
    7AU     AUC 2722   0.814  34.412   7.186
    7AU     AUC 2723   1.188  34.466   7.198
    7AU     AUC 2724   0.798  33.496   7.212
    7AU     AUC 2725   1.186  33.518   7.195
    7AU    AUSL 2726   1.534  33.880   8.220
    7AU    AUSL 2727   1.286  33.462   8.148
    7AU     AUL 2728   1.575  33.479   8.382
    7AU       S 2729   1.657  33.139   8.088
    7AU     LIG 2730   1.555  32.934   8.456
    7AU     LIG 2731   1.735  32.652   8.769
    7AU     LIG 2732   2.027  32.330   8.964
    7AU     LIG 2733   2.352  32.398   9.289
    7AU       S 2734   1.765  33.881   8.308
    7AU     LIG 2735   1.727  33.926   8.753
    7AU     LIG 2736   1.859  33.797   9.191
    7AU     LIG 2737   2.175  33.707   9.542
    7AU     LIG 2738   2.414  33.697   9.953
    7AU    AUSL 2739   1.133  33.787   8.389
    7AU    AUSL 2740   0.869  34.165   8.420
    7AU     AUL 2741   1.075  34.099   8.732
    7AU       S 2742   1.220  33.723   8.531
    7AU     LIG 2743   1.083  33.624   8.914
    7AU     LIG 2744   1.383  33.561   9.261
    7AU     LIG 2745   1.712  33.469   9.585
    7AU     LIG 2746   2.031  33.346   9.913
    7AU       S 2747   0.680  33.894   8.638
    7AU     LIG 2748   0.692  33.942   9.107
    7AU     LIG 2749   0.409  34.007   9.488
    7AU     LIG 2750   0.269  34.069   9.939
    7AU     LIG 2751   0.304  34.091  10.415
    7AU    AUSL 2752   1.192  34.161   8.158
    7AU    AUSL 2753   1.623  34.286   8.107
    7AU     AUL 2754   1.429  34.175   8.442
    7AU       S 2755   1.064  34.553   8.585
    7AU     LIG 2756   1.420  34.445   8.875
    7AU     LIG 2757   1.688  34.579   9.247
    7AU     LIG 2758   1.751  34.670   9.720
    7AU     LIG 2759   1.742  34.800  10.185
    7AU       S 2760   1.772  34.443   8.276
    7AU     LIG 2761   2.082  34.270   8.440
    7AU     LIG 2762   2.391  34.524   8.652
    7AU     LIG 2763   2.615  34.865   8.878
    7AU     LIG 2764   2.794  35.221   9.110
    7AU    AUSL 2765   1.524  34.133   6.769
    7AU    AUSL 2766   1.297  34.444   6.969
    7AU     AUL 2767   1.409  34.514   6.628
    7AU       S 2768   1.495  34.166   6.339
    7AU     LIG 2769   1.892  34.004   6.156
    7AU     LIG 2770   2.004  33.713   5.848
    7AU     LIG 2771   2.039  33.672   5.404
    7AU     LIG 2772   2.072  33.695   4.940
    7AU       S 2773   1.768  34.670   6.861
    7AU     LIG 2774   1.783  34.847   6.465
    7AU     LIG 2775   1.996  34.910   6.081
    7AU     LIG 2776   2.177  35.239   5.841
    7AU     LIG 2777   2.238  35.428   5.445
    7AU    AUSL 2778   1.302  33.802   6.613
    7AU    AUSL 2779   1.641  33.740   6.901
    7AU     AUL 2780   1.755  33.921   6.658
    7AU       S 2781   1.650  33.468   6.627
    7AU     LIG 2782   2.153  33.412   6.718
    7AU     LIG 2783   2.401  32.999   6.730
    7AU     LIG 2784   2.702  32.776   6.458
    7AU     LIG 2785   2.894  32.860   6.037
    7AU       S 2786   1.432  33.956   6.321
    7AU     LIG 2787   1.548  33.588   6.112
    7AU     LIG 2788   1.621  33.413   5.663
    7AU     LIG 2789   1.619  33.485   5.181
    7AU     LIG 2790   1.733  33.364   4.729
    7AU    AUSL 2791   1.097  34.174   6.695
    7AU    AUSL 2792   0.887  33.769   6.727
    7AU     AUL 2793   1.030  33.785   6.442
    7AU       S 2794   0.593  33.795   6.299
    7AU     LIG 2795   0.681  33.622   5.916
    7AU     LIG 2796   0.405  33.443   5.592
    7AU     LIG 2797   0.159  33.483   5.204
    7AU     LIG 2798   0.019  33.551   4.768
    7AU       S 2799   1.166  34.220   6.353
    7AU     LIG 2800   1.206  34.002   5.900
    7AU     LIG 2801   1.573  33.915   5.592
    7AU     LIG 2802   1.713  34.005   5.147
    7AU     LIG 2803   1.816  34.327   4.817
    7AU    AUSL 2804   0.469  34.101   8.257
    7AU    AUSL 2805   0.737  34.476   8.160
    7AU     AUL 2806   0.604  34.377   8.498
    7AU       S 2807   0.479  33.940   8.653
    7AU     LIG 2808   0.197  33.819   8.949
    7AU     LIG 2809  44.953  33.810   9.341
    7AU     LIG 2810  44.795  33.961   9.754
    7AU     LIG 2811  44.410  34.084  10.015
    7AU       S 2812   0.374  34.689   8.229
    7AU     LIG 2813   0.487  34.903   8.556
    7AU     LIG 2814   0.325  35.075   8.939
    7AU     LIG 2815  44.968  35.289   9.133
    7AU     LIG 2816  44.834  35.568   9.472
    7AU    AUSL 2817   0.774  33.822   8.165
    7AU    AUSL 2818   0.359  33.687   8.140
    7AU     AUL 2819   0.244  33.923   8.262
    7AU       S 2820   0.257  33.471   8.398
    7AU     LIG 2821  44.802  33.360   8.238
    7AU     LIG 2822  44.489  32.994   8.389
    7AU     LIG 2823  44.167  32.678   8.599
    7AU     LIG 2824  43.745  32.537   8.836
    7AU       S 2825   0.666  33.758   8.548
    7AU     LIG 2826   0.583  33.479   8.913
    7AU     LIG 2827   0.400  33.515   9.327
    7AU     LIG 2828   0.196  33.590   9.741
    7AU     LIG 2829   0.189  33.622  10.206
    7AU    AUSL 2830   0.465  33.830   6.779
    7AU    AUSL 2831   0.676  33.485   6.961
    7AU     AUL 2832   0.710  33.472   6.625
    7AU       S 2833   0.417  33.717   6.364
    7AU     LIG 2834   0.159  33.640   6.009
    7AU     LIG 2835  44.903  33.642   5.625
    7AU     LIG 2836  44.737  33.790   5.214
    7AU     LIG 2837  44.366  33.910   4.957
    7AU       S 2838   0.292  33.365   6.780
    7AU     LIG 2839   0.335  32.977   6.584
    7AU     LIG 2840  44.980  32.691   6.450
    7AU     LIG 2841  44.619  32.569   6.164
    7AU     LIG 2842  44.337  32.446   5.801
    7AU    AUSL 2843   0.688  34.150   6.598
    7AU    AUSL 2844   0.332  34.226   6.904
    7AU     AUL 2845   0.255  34.050   6.626
    7AU       S 2846   0.327  34.497   6.651
    7AU     LIG 2847  44.894  34.657   6.633
    7AU     LIG 2848  44.726  34.960   6.302
    7AU     LIG 2849  44.559  34.874   5.873
    7AU     LIG 2850  44.203  34.779   5.564
    7AU       S 2851   0.647  34.071   6.351
    7AU     LIG 2852   0.425  34.078   5.922
    7AU     LIG 2853   0.300  33.937   5.483
    7AU     LIG 2854   0.176  33.985   5.027
    7AU     LIG 2855   0.024  34.174   4.616
    7AU    AUSL 2856   1.772  34.482   7.531
    7AU    AUSL 2857   1.679  34.286   7.131
    7AU     AUL 2858   1.999  34.587   7.310
    7AU       S 2859   1.816  34.454   6.915
    7AU     LIG 2860   1.962  34.370   6.511
    7AU     LIG 2861   2.311  34.550   6.269
    7AU     LIG 2862   2.517  34.871   5.967
    7AU     LIG 2863   2.685  35.257   5.735
    7AU       S 2864   2.156  34.366   7.709
    7AU     LIG 2865   2.542  34.544   7.699
    7AU     LIG 2866   2.760  34.920   7.742
    7AU     LIG 2867   3.170  35.129   7.719
    7AU     LIG 2868   3.625  35.174   7.844
    7AU    AUSL 2869   1.962  34.095   7.383
    7AU    AUSL 2870   1.916  33.759   7.689
    7AU     AUL 2871   2.291  33.881   7.700
    7AU       S 2872   2.089  34.150   7.407
    7AU     LIG 2873   2.536  34.165   7.333
    7AU     LIG 2874   2.987  34.024   7.181
    7AU     LIG 2875   3.424  34.050   7.003
    7AU     LIG 2876   3.733  34.375   6.759
    7AU       S 2877   2.156  33.480   7.507
    7AU     LIG 2878   2.499  33.235   7.647
    7AU     LIG 2879   2.863  33.069   7.890
    7AU     LIG 2880   3.337  33.051   7.799
    7AU     LIG 2881   3.785  33.018   7.959
    7AU    AUSL 2882   1.694  34.115   7.734
    7AU    AUSL 2883   1.434  34.507   7.786
    7AU     AUL 2884   1.753  34.571   7.827
    7AU       S 2885   1.752  34.742   8.250
    7AU     LIG 2886   2.208  34.664   8.139
    7AU     LIG 2887   2.577  34.889   8.327
    7AU     LIG 2888   2.601  35.301   8.582
    7AU     LIG 2889   2.617  35.668   8.903
    7AU       S 2890   2.012  34.194   7.868
    7AU     LIG 2891   2.467  34.189   8.068
    7AU     LIG 2892   2.929  34.241   7.900
    7AU     LIG 2893   3.395  34.281   8.025
    7AU     LIG 2894   3.618  34.561   8.324
    7AU    AUSL 2895   0.329  34.533   7.517
    7AU    AUSL 2896   0.411  34.325   7.909
    7AU     AUL 2897   0.104  34.642   7.764
    7AU       S 2898   0.237  34.494   8.183
    7AU     LIG 2899   0.124  34.526   8.636
    7AU     LIG 2900  44.883  34.807   8.931
    7AU     LIG 2901  44.596  34.945   9.285
    7AU     LIG 2902  44.217  34.939   9.574
    7AU       S 2903   0.339  34.928   7.446
    7AU     LIG 2904  44.933  35.090   7.566
    7AU     LIG 2905  44.498  35.246   7.484
    7AU     LIG 2906  44.066  35.472   7.532
    7AU     LIG 2907  43.697  35.694   7.742
    7AU    AUSL 2908   0.280  34.154   7.310
    7AU    AUSL 2909   0.413  34.603   7.112
    7AU     AUL 2910   0.114  34.463   7.159
    7AU       S 2911  44.935  33.988   6.987
    7AU     LIG 2912  44.631  34.376   7.027
    7AU     LIG 2913  44.232  34.663   7.070
    7AU     LIG 2914  43.754  34.819   6.967
    7AU     LIG 2915  43.322  34.935   6.722
    7AU       S 2916   0.233  34.871   6.924
    7AU     LIG 2917  44.986  35.169   6.719
    7AU     LIG 2918  44.999  35.410   6.344
    7AU     LIG 2919  44.864  35.748   6.084
    7AU     LIG 2920  44.463  35.905   5.935
    7AU    AUSL 2921   0.078  34.192   7.700
    7AU    AUSL 2922   0.042  33.827   7.416
    7AU     AUL 2923  44.892  34.158   7.425
    7AU       S 2924  44.840  33.754   7.694
    7AU     LIG 2925  44.525  33.818   7.385
    7AU     LIG 2926  44.147  33.634   7.216
    7AU     LIG 2927  43.708  33.490   7.238
    7AU     LIG 2928  43.301  33.458   7.095
    7AU       S 2929  44.929  34.218   7.924
    7AU     LIG 2930  44.510  34.193   7.751
    7AU     LIG 2931  44.114  34.449   7.668
    7AU     LIG 2932  43.758  34.735   7.846
    7AU     LIG 2933  43.426  34.829   8.156
    7AU    AUSL 2934   1.692  33.415   7.518
    7AU    AUSL 2935   1.547  33.656   7.867
    7AU     AUL 2936   1.872  33.557   7.918
    7AU       S 2937   1.953  33.314   7.500
    7AU     LIG 2938   2.160  32.959   7.347
    7AU     LIG 2939   2.560  32.743   7.448
    7AU     LIG 2940   3.010  32.736   7.520
    7AU     LIG 2941   3.453  32.614   7.490
    7AU       S 2942   1.776  33.112   7.924
    7AU     LIG 2943   2.065  33.016   8.331
    7AU     LIG 2944   2.244  32.675   8.634
    7AU     LIG 2945   2.544  32.333   8.816
    7AU     LIG 2946   2.790  32.133   9.159
    7AU    AUSL 2947   1.691  33.789   7.310
    7AU    AUSL 2948   1.588  33.360   7.109
    7AU     AUL 2949   1.834  33.505   7.092
    7AU       S 2950   2.190  33.646   7.312
    7AU     LIG 2951   2.468  33.304   7.132
    7AU     LIG 2952   2.809  32.989   7.074
    7AU     LIG 2953   3.273  32.983   7.141
    7AU     LIG 2954   3.692  32.807   7.075
    7AU       S 2955   1.674  33.288   6.691
    7AU     LIG 2956   1.902  32.988   6.890
    7AU     LIG 2957   2.065  32.558   6.728
    7AU     LIG 2958   2.269  32.183   6.468
    7AU     LIG 2959   2.620  31.861   6.312
    7AU    AUSL 2960   0.241  33.463   7.566
    7AU    AUSL 2961   0.346  33.695   7.157
    7AU     AUL 2962  44.988  33.536   7.290
    7AU       S 2963   0.152  33.494   6.860
    7AU     LIG 2964  44.837  33.112   6.733
    7AU     LIG 2965  44.472  32.827   6.597
    7AU     LIG 2966  44.128  32.642   6.313
    7AU     LIG 2967  43.985  32.809   5.889
    7AU       S 2968  44.822  33.516   7.734
    7AU     LIG 2969  44.456  33.338   7.541
    7AU     LIG 2970  44.054  33.153   7.410
    7AU     LIG 2971  43.659  32.937   7.399
    7AU     LIG 2972  43.669  32.512   7.606
    7AU    AUSL 2973   0.310  33.846   7.758
    7AU    AUSL 2974   0.571  33.474   7.835
    7AU     AUL 2975   0.241  33.428   7.903
    7AU       S 2976   0.275  33.235   8.315
    7AU     LIG 2977  44.955  32.860   8.200
    7AU     LIG 2978  44.561  32.504   8.225
    7AU     LIG 2979  44.289  32.190   8.495
    7AU     LIG 2980  44.182  31.775   8.741
    7AU       S 2981  44.909  33.750   7.879
    7AU     LIG 2982  44.393  33.709   7.904
    7AU     LIG 2983  43.972  33.577   7.702
    7AU     LIG 2984  43.504  33.428   7.709
    7AU     LIG 2985  43.080  33.467   7.933
    7AU    AUSL 2986   1.019  34.665   7.901
    7AU    AUSL 2987   0.584  34.701   7.817
    7AU     AUL 2988   0.838  34.793   8.179
    7AU       S 2989   0.454  34.905   7.939
    7AU     LIG 2990   0.089  35.082   8.178
    7AU     LIG 2991  44.973  35.261   8.603
    7AU     LIG 2992  44.876  35.696   8.794
    7AU     LIG 2993  44.674  36.137   8.744
    7AU       S 2994   1.044  35.151   7.958
    7AU     LIG 2995   1.293  35.202   8.312
    7AU     LIG 2996   1.283  35.655   8.454
    7AU     LIG 2997   1.101  36.052   8.636
    7AU     LIG 2998   0.994  36.442   8.877
    7AU    AUSL 2999   0.852  34.921   7.588
    7AU    AUSL 3000   1.142  34.872   7.226
    7AU     AUL 3001   0.886  35.153   7.333
    7AU       S 3002   0.892  35.134   7.801
    7AU     LIG 3003   0.848  35.625   7.860
    7AU     LIG 3004   0.946  36.025   8.132
    7AU     LIG 3005   0.940  36.452   8.344
    7AU     LIG 3006   0.740  36.891   8.311
    7AU       S 3007   1.032  35.173   6.892
    7AU     LIG 3008   1.329  35.366   7.102
    7AU     LIG 3009   1.403  35.841   7.060
    7AU     LIG 3010   1.520  36.272   6.866
    7AU     LIG 3011   1.641  36.724   6.701
    7AU    AUSL 3012   1.293  34.863   7.623
    7AU    AUSL 3013   1.295  34.564   8.198
    7AU     AUL 3014   1.373  34.827   7.978
    7AU       S 3015   1.525  34.659   8.409
    7AU     LIG 3016   1.874  34.628   8.746
    7AU     LIG 3017   2.159  34.765   9.110
    7AU     LIG 3018   2.397  35.044   9.414
    7AU     LIG 3019   2.476  35.522   9.409
    7AU       S 3020   1.252  35.173   7.672
    7AU     LIG 3021   1.343  35.544   7.939
    7AU     LIG 3022   1.461  35.956   8.055
    7AU     LIG 3023   1.457  36.400   8.149
    7AU     LIG 3024   1.693  36.742   8.358
    7AU    AUSL 3025   0.960  33.280   7.936
    7AU    AUSL 3026   1.366  33.282   7.758
    7AU     AUL 3027   1.192  33.153   8.156
    7AU       S 3028   0.944  32.794   8.003
    7AU     LIG 3029   1.029  32.502   8.318
    7AU     LIG 3030   0.767  32.196   8.566
    7AU     LIG 3031   0.865  31.743   8.673
    7AU     LIG 3032   1.293  31.517   8.743
    7AU       S 3033   1.520  33.087   7.824
    7AU     LIG 3034   1.497  32.670   8.018
    7AU     LIG 3035   1.884  32.536   8.268
    7AU     LIG 3036   2.207  32.181   8.481
    7AU     LIG 3037   2.362  31.826   8.772
    7AU    AUSL 3038   0.637  33.099   7.673
    7AU    AUSL 3039   0.725  33.420   8.250
    7AU     AUL 3040   0.625  33.144   8.024
    7AU       S 3041   0.750  32.724   7.851
    7AU     LIG 3042   0.605  32.349   7.623
    7AU     LIG 3043   0.389  31.935   7.717
    7AU     LIG 3044   0.318  31.520   7.945
    7AU     LIG 3045   0.245  31.072   8.121
    7AU       S 3046   0.508  33.301   8.460
    7AU     LIG 3047   0.231  32.900   8.657
    7AU     LIG 3048  44.820  32.632   8.651
    7AU     LIG 3049  44.505  32.408   8.918
    7AU     LIG 3050  44.402  32.539   9.361
    7AU    AUSL 3051   1.067  33.025   7.610
    7AU    AUSL 3052   0.820  33.252   7.319
    7AU     AUL 3053   0.707  32.918   7.428
    7AU       S 3054   1.022  32.797   7.127
    7AU     LIG 3055   0.634  32.522   7.127
    7AU     LIG 3056   0.574  32.041   7.195
    7AU     LIG 3057   0.408  31.629   6.983
    7AU     LIG 3058   0.140  31.360   6.652
    7AU       S 3059   1.078  32.821   7.747
    7AU     LIG 3060   1.071  32.339   7.820
    7AU     LIG 3061   0.924  32.006   8.103
    7AU     LIG 3062   1.150  31.621   8.242
    7AU     LIG 3063   1.474  31.284   8.295
    7AU    AUSL 3064   0.976  34.691   6.863
    7AU    AUSL 3065   1.511  34.671   7.261
    7AU     AUL 3066   1.330  34.831   6.962
    7AU       S 3067   0.972  34.902   6.658
    7AU     LIG 3068   1.389  35.191   6.574
    7AU     LIG 3069   1.254  35.652   6.532
    7AU     LIG 3070   1.265  36.051   6.300
    7AU     LIG 3071   1.372  36.371   5.996
    7AU       S 3072   1.784  34.840   6.998
    7AU     LIG 3073   2.229  34.774   6.776
    7AU     LIG 3074   2.362  35.047   6.424
    7AU     LIG 3075   2.511  35.430   6.194
    7AU     LIG 3076   2.903  35.689   6.056
    7AU    AUSL 3077   0.790  34.645   7.286
    7AU    AUSL 3078   0.737  34.366   6.951
    7AU     AUL 3079   0.673  34.803   7.037
    7AU       S 3080   0.851  35.170   6.856
    7AU     LIG 3081   0.924  35.664   6.929
    7AU     LIG 3082   1.019  36.105   6.766
    7AU     LIG 3083   0.680  36.462   6.738
    7AU     LIG 3084   0.614  36.831   6.477
    7AU       S 3085   0.530  34.608   6.642
    7AU     LIG 3086   0.263  34.916   6.360
    7AU     LIG 3087   0.100  35.101   5.934
    7AU     LIG 3088   0.248  35.288   5.513
    7AU     LIG 3089   0.285  35.520   5.096
    7AU    AUSL 3090   1.004  33.216   6.924
    7AU    AUSL 3091   0.413  33.267   7.233
    7AU     AUL 3092   0.663  33.106   6.987
    7AU       S 3093   0.219  33.234   7.022
    7AU     LIG 3094   0.167  32.803   7.032
    7AU     LIG 3095  44.788  32.541   6.904
    7AU     LIG 3096  44.486  32.311   6.606
    7AU     LIG 3097  44.289  32.151   6.213
    7AU       S 3098   1.036  32.832   6.883
    7AU     LIG 3099   0.765  32.573   6.641
    7AU     LIG 3100   0.717  32.095   6.692
    7AU     LIG 3101   0.775  31.620   6.608
    7AU     LIG 3102   0.936  31.189   6.431
    7AU    AUSL 3103   1.243  33.244   7.305
    7AU    AUSL 3104   1.242  33.555   6.947
    7AU     AUL 3105   1.365  33.146   6.997
    7AU       S 3106   1.167  32.793   7.221
    7AU     LIG 3107   1.071  32.301   7.230
    7AU     LIG 3108   1.042  31.851   7.034
    7AU     LIG 3109   1.109  31.368   6.909
    7AU     LIG 3110   1.381  31.062   6.653
    7AU       S 3111   1.364  33.349   6.583
    7AU     LIG 3112   1.572  33.042   6.272
    7AU     LIG 3113   1.755  32.590   6.258
    7AU     LIG 3114   1.607  32.185   6.060
    7AU     LIG 3115   1.613  31.907   5.666
    8AU     AUC 3116  15.456   9.114   7.504
    8AU     AUC 3117  15.740   9.126   7.330
    8AU     AUC 3118  15.710   9.099   7.674
    8AU     AUC 3119  15.173   9.110   7.337
    8AU     AUC 3120  15.186   9.140   7.689
    8AU     AUC 3121  15.292   9.393   7.507
    8AU     AUC 3122  15.649   9.401   7.501
    8AU     AUC 3123  15.268   8.841   7.508
    8AU     AUC 3124  15.620   8.819   7.496
    8AU     AUC 3125  15.454   8.928   7.776
    8AU     AUC 3126  15.453   9.296   7.772
    8AU     AUC 3127  15.452   8.951   7.228
    8AU     AUC 3128  15.473   9.273   7.229
    8AU     AUC 3129  16.051   9.138   7.168
    8AU     AUC 3130  16.057   9.091   7.526
    8AU     AUC 3131  16.001   9.067   7.876
    8AU     AUC 3132  14.876   9.102   7.164
    8AU     AUC 3133  14.852   9.139   7.531
    8AU     AUC 3134  14.906   9.167   7.875
    8AU     AUC 3135  15.130   9.696   7.495
    8AU     AUC 3136  15.498   9.732   7.470
    8AU     AUC 3137  15.838   9.683   7.499
    8AU     AUC 3138  15.071   8.566   7.510
    8AU     AUC 3139  15.423   8.507   7.484
    8AU     AUC 3140  15.790   8.519   7.475
    8AU     AUC 3141  15.438   8.742   8.065
    8AU     AUC 3142  15.456   9.109   8.101
    8AU     AUC 3143  15.484   9.464   8.069
    8AU     AUC 3144  15.481   8.779   6.949
    8AU     AUC 3145  15.466   9.114   6.894
    8AU     AUC 3146  15.452   9.442   6.928
    8AU     AUC 3147  15.718   8.874   7.992
    8AU     AUC 3148  15.766   9.266   7.992
    8AU     AUC 3149  15.790   8.983   7.001
    8AU     AUC 3150  15.777   9.302   7.034
    8AU     AUC 3151  15.153   8.975   8.019
    8AU     AUC 3152  15.179   9.353   8.004
    8AU     AUC 3153  15.156   8.926   7.042
    8AU     AUC 3154  15.139   9.251   6.998
    8AU     AUC 3155  15.990   9.415   7.347
    8AU     AUC 3156  15.929   9.385   7.700
    8AU     AUC 3157  14.979   9.411   7.319
    8AU     AUC 3158  14.988   9.453   7.687
    8AU     AUC 3159  15.937   8.815   7.331
    8AU     AUC 3160  15.900   8.762   7.677
    8AU     AUC 3161  14.937   8.811   7.364
    8AU     AUC 3162  14.985   8.854   7.720
    8AU     AUC 3163  15.309   9.629   7.780
    8AU     AUC 3164  15.667   9.590   7.787
    8AU     AUC 3165  15.260   8.630   7.800
    8AU     AUC 3166  15.577   8.573   7.766
    8AU     AUC 3167  15.288   9.555   7.195
    8AU     AUC 3168  15.659   9.600   7.209
    8AU     AUC 3169  15.263   8.641   7.206
    8AU     AUC 3170  15.657   8.660   7.203
    8AU    AUSL 3171  15.986   8.975   8.239
    8AU    AUSL 3172  15.717   8.570   8.146
    8AU     AUL 3173  15.997   8.561   8.366
    8AU       S 3174  16.106   8.221   8.075
    8AU     LIG 3175  16.016   8.018   8.425
    8AU     LIG 3176  16.282   7.732   8.656
    8AU     LIG 3177  16.575   7.409   8.826
    8AU     LIG 3178  16.741   7.231   9.215
    8AU       S 3179  16.205   8.962   8.378
    8AU     LIG 3180  16.041   8.983   8.816
    8AU     LIG 3181  16.218   9.080   9.227
    8AU     LIG 3182  16.469   8.968   9.598
    8AU     LIG 3183  16.832   8.861   9.873
    8AU    AUSL 3184  15.583   8.901   8.395
    8AU    AUSL 3185  15.337   9.289   8.429
    8AU     AUL 3186  15.545   9.207   8.741
    8AU       S 3187  15.658   8.813   8.545
    8AU     LIG 3188  15.554   8.758   8.965
    8AU     LIG 3189  15.856   8.726   9.329
    8AU     LIG 3190  16.078   8.651   9.747
    8AU     LIG 3191  16.120   8.532  10.210
    8AU       S 3192  15.143   9.021   8.647
    8AU     LIG 3193  15.099   9.074   9.108
    8AU     LIG 3194  14.853   9.081   9.515
    8AU     LIG 3195  14.716   9.120   9.955
    8AU     LIG 3196  14.440   9.345  10.262
    8AU    AUSL 3197  15.660   9.279   8.167
    8AU    AUSL 3198  16.101   9.368   8.119
    8AU     AUL 3199  15.890   9.284   8.447
    8AU       S 3200  15.555   9.663   8.595
    8AU     LIG 3201  15.924   9.534   8.882
    8AU     LIG 3202  16.080   9.566   9.331
    8AU     LIG 3203  16.074   9.646   9.807
    8AU     LIG 3204  16.192   9.606  10.269
    8AU       S 3205  16.264   9.548   8.345
    8AU     LIG 3206  16.707   9.623   8.254
    8AU     LIG 3207  16.988   9.866   8.557
    8AU     LIG 3208  17.191  10.170   8.866
    8AU     LIG 3209  17.457  10.516   9.059
    8AU    AUSL 3210  15.996   9.272   6.762
    8AU    AUSL 3211  15.765   9.575   6.971
    8AU     AUL 3212  15.850   9.665   6.615
    8AU       S 3213  15.963   9.313   6.342
    8AU     LIG 3214  16.349   9.182   6.130
    8AU     LIG 3215  16.493   8.885   5.825
    8AU     LIG 3216  16.518   8.792   5.380
    8AU     LIG 3217  16.660   8.934   4.957
    8AU       S 3218  16.223   9.813   6.866
    8AU     LIG 3219  16.292  10.042   6.487
    8AU     LIG 3220  16.486  10.210   6.082
    8AU     LIG 3221  16.710  10.425   5.725
    8AU     LIG 3222  16.820  10.765   5.418
    8AU    AUSL 3223  15.776   8.931   6.616
    8AU    AUSL 3224  16.125   8.896   6.932
    8AU     AUL 3225  16.203   9.035   6.638
    8AU       S 3226  16.265   8.577   6.693
    8AU     LIG 3227  16.483   8.314   6.371
    8AU     LIG 3228  16.830   7.991   6.286
    8AU     LIG 3229  17.304   7.912   6.230
    8AU     LIG 3230  17.753   8.070   6.146
    8AU       S 3231  15.886   9.111   6.300
    8AU     LIG 3232  16.060   8.751   6.107
    8AU     LIG 3233  16.116   8.563   5.665
    8AU     LIG 3234  16.099   8.559   5.184
    8AU     LIG 3235  16.290   8.641   4.750
    8AU    AUSL 3236  15.571   9.306   6.696
    8AU    AUSL 3237  15.358   8.912   6.731
    8AU     AUL 3238  15.502   8.923   6.450
    8AU       S 3239  15.074   8.946   6.288
    8AU     LIG 3240  14.981   8.724   5.890
    8AU     LIG 3241  14.835   8.530   5.508
    8AU     LIG 3242  14.675   8.574   5.087
    8AU     LIG 3243  14.593   8.467   4.649
    8AU       S 3244  15.636   9.354   6.337
    8AU     LIG 3245  15.771   9.258   5.855
    8AU     LIG 3246  16.078   9.064   5.546
    8AU     LIG 3247  16.170   9.059   5.086
    8AU     LIG 3248  16.197   9.156   4.635
    8AU    AUSL 3249  14.932   9.234   8.269
    8AU    AUSL 3250  15.208   9.603   8.173
    8AU     AUL 3251  15.077   9.503   8.514
    8AU       S 3252  14.959   9.048   8.625
    8AU     LIG 3253  14.612   8.985   8.782
    8AU     LIG 3254  14.455   8.947   9.200
    8AU     LIG 3255  14.336   8.947   9.639
    8AU     LIG 3256  14.279   8.870  10.089
    8AU       S 3257  14.860   9.827   8.250
    8AU     LIG 3258  14.799  10.045   8.609
    8AU     LIG 3259  14.651  10.306   8.963
    8AU     LIG 3260  14.367  10.629   9.110
    8AU     LIG 3261  14.087  10.671   9.462
    8AU    AUSL 3262  15.231   8.954   8.166
    8AU    AUSL 3263  14.818   8.824   8.143
    8AU     AUL 3264  14.692   9.063   8.256
    8AU       S 3265  14.736   8.615   8.408
    8AU     LIG 3266  14.295   8.552   8.230
    8AU     LIG 3267  13.950   8.237   8.235
    8AU     LIG 3268  13.701   7.874   8.411
    8AU     LIG 3269  13.491   7.497   8.629
    8AU       S 3270  15.127   8.886   8.550
    8AU     LIG 3271  15.022   8.612   8.911
    8AU     LIG 3272  14.833   8.609   9.324
    8AU     LIG 3273  14.708   8.625   9.779
    8AU     LIG 3274  14.601   8.483  10.217
    8AU    AUSL 3275  14.934   8.980   6.774
    8AU    AUSL 3276  15.135   8.628   6.949
    8AU     AUL 3277  15.172   8.623   6.621
    8AU       S 3278  14.897   8.886   6.368
    8AU     LIG 3279  14.541   8.765   6.177
    8AU     LIG 3280  14.420   8.746   5.737
    8AU     LIG 3281  14.302   8.855   5.302
    8AU     LIG 3282  14.247   8.805   4.831
    8AU       S 3283  14.752   8.497   6.767
    8AU     LIG 3284  14.495   8.263   6.460
    8AU     LIG 3285  14.264   7.838   6.380
    8AU     LIG 3286  14.067   7.513   6.091
    8AU     LIG 3287  14.051   7.499   5.615
    8AU    AUSL 3288  15.162   9.297   6.602
    8AU    AUSL 3289  14.807   9.375   6.908
    8AU     AUL 3290  14.722   9.213   6.624
    8AU       S 3291  14.830   9.652   6.663
    8AU     LIG 3292  14.397   9.721   6.646
    8AU     LIG 3293  14.116  10.068   6.441
    8AU     LIG 3294  13.959  10.340   6.079
    8AU     LIG 3295  13.872  10.406   5.620
    8AU       S 3296  15.120   9.224   6.353
    8AU     LIG 3297  14.810   9.206   5.956
    8AU     LIG 3298  14.762   9.047   5.488
    8AU     LIG 3299  14.664   9.083   5.006
    8AU     LIG 3300  14.541   9.097   4.533
    8AU    AUSL 3301  16.272   9.609   7.525
    8AU    AUSL 3302  16.156   9.401   7.132
    8AU     AUL 3303  16.535   9.604   7.197
    8AU       S 3304  16.228   9.652   6.883
    8AU     LIG 3305  16.418   9.527   6.510
    8AU     LIG 3306  16.736   9.806   6.300
    8AU     LIG 3307  17.002  10.121   6.047
    8AU     LIG 3308  17.224  10.353   5.692
    8AU       S 3309  16.664   9.702   7.629
    8AU     LIG 3310  17.063   9.704   7.355
    8AU     LIG 3311  17.509   9.857   7.241
    8AU     LIG 3312  17.847  10.190   7.269
    8AU     LIG 3313  17.882  10.661   7.221
    8AU    AUSL 3314  16.430   9.212   7.410
    8AU    AUSL 3315  16.350   8.885   7.740
    8AU     AUL 3316  16.551   9.092   7.869
    8AU       S 3317  16.708   9.295   7.487
    8AU     LIG 3318  16.986   9.222   7.170
    8AU     LIG 3319  17.442   9.351   7.163
    8AU     LIG 3320  17.910   9.492   7.214
    8AU     LIG 3321  18.313   9.419   6.941
    8AU       S 3322  16.633   8.669   7.634
    8AU     LIG 3323  17.063   8.456   7.762
    8AU     LIG 3324  17.515   8.258   7.782
    8AU     LIG 3325  17.949   8.452   7.911
    8AU     LIG 3326  18.380   8.617   8.055
    8AU    AUSL 3327  16.135   9.243   7.721
    8AU    AUSL 3328  15.960   9.645   7.812
    8AU     AUL 3329  16.314   9.524   7.880
    8AU       S 3330  16.254   9.841   8.215
    8AU     LIG 3331  16.575  10.125   8.388
    8AU     LIG 3332  16.861  10.465   8.570
    8AU     LIG 3333  17.054  10.911   8.558
    8AU     LIG 3334  17.450  11.150   8.644
    8AU       S 3335  16.726   9.476   7.678
    8AU     LIG 3336  17.112   9.698   7.881
    8AU     LIG 3337  17.574   9.654   7.701
    8AU     LIG 3338  18.023   9.500   7.749
    8AU     LIG 3339  18.505   9.592   7.796
    8AU    AUSL 3340  14.800   9.675   7.530
    8AU    AUSL 3341  14.873   9.461   7.923
    8AU     AUL 3342  14.572   9.779   7.781
    8AU       S 3343  14.710   9.627   8.191
    8AU     LIG 3344  14.569   9.556   8.592
    8AU     LIG 3345  14.344   9.906   8.823
    8AU     LIG 3346  14.081  10.206   9.069
    8AU     LIG 3347  13.676  10.288   9.300
    8AU       S 3348  14.794  10.060   7.464
    8AU     LIG 3349  14.283  10.079   7.498
    8AU     LIG 3350  13.859  10.311   7.628
    8AU     LIG 3351  13.446  10.584   7.507
    8AU     LIG 3352  13.144  10.910   7.286
    8AU    AUSL 3353  14.749   9.303   7.313
    8AU    AUSL 3354  14.889   9.745   7.126
    8AU     AUL 3355  14.585   9.605   7.168
    8AU       S 3356  14.401   9.151   6.985
    8AU     LIG 3357  14.062   9.509   7.036
    8AU     LIG 3358  13.588   9.692   6.977
    8AU     LIG 3359  13.219  10.006   6.855
    8AU     LIG 3360  12.765  10.156   6.832
    8AU       S 3361  14.699  10.012   6.935
    8AU     LIG 3362  14.616  10.196   6.541
    8AU     LIG 3363  14.364  10.539   6.344
    8AU     LIG 3364  14.068  10.840   6.171
    8AU     LIG 3365  13.865  11.223   6.292
    8AU    AUSL 3366  14.546   9.331   7.702
    8AU    AUSL 3367  14.509   8.974   7.407
    8AU     AUL 3368  14.347   9.304   7.430
    8AU       S 3369  14.286   8.890   7.672
    8AU     LIG 3370  13.931   8.791   7.381
    8AU     LIG 3371  13.449   8.679   7.350
    8AU     LIG 3372  12.972   8.660   7.326
    8AU     LIG 3373  12.611   8.689   7.044
    8AU       S 3374  14.388   9.349   7.931
    8AU     LIG 3375  14.074   9.696   7.899
    8AU     LIG 3376  13.679   9.952   8.048
    8AU     LIG 3377  13.217  10.138   8.118
    8AU     LIG 3378  12.766   9.958   8.194
    8AU    AUSL 3379  16.160   8.541   7.544
    8AU    AUSL 3380  15.965   8.783   7.869
    8AU     AUL 3381  16.279   8.665   7.962
    8AU       S 3382  16.440   8.456   7.537
    8AU     LIG 3383  16.693   8.127   7.610
    8AU     LIG 3384  17.129   7.985   7.535
    8AU     LIG 3385  17.465   7.750   7.755
    8AU     LIG 3386  17.685   7.375   7.813
    8AU       S 3387  16.225   8.217   7.912
    8AU     LIG 3388  16.525   8.026   8.264
    8AU     LIG 3389  16.803   7.806   8.592
    8AU     LIG 3390  17.118   7.514   8.806
    8AU     LIG 3391  17.582   7.355   8.856
    8AU    AUSL 3392  16.140   8.923   7.348
    8AU    AUSL 3393  16.071   8.509   7.131
    8AU     AUL 3394  16.348   8.715   7.160
    8AU       S 3395  16.693   8.783   7.442
    8AU     LIG 3396  16.969   8.434   7.250
    8AU     LIG 3397  17.419   8.351   7.051
    8AU     LIG 3398  17.795   8.576   6.820
    8AU     LIG 3399  18.272   8.481   6.741
    8AU       S 3400  16.280   8.367   6.849
    8AU     LIG 3401  16.521   7.967   6.754
    8AU     LIG 3402  16.793   7.583   6.606
    8AU     LIG 3403  17.061   7.175   6.583
    8AU     LIG 3404  17.074   6.855   6.225
    8AU    AUSL 3405  14.699   8.603   7.557
    8AU    AUSL 3406  14.815   8.841   7.151
    8AU     AUL 3407  14.461   8.699   7.257
    8AU       S 3408  14.636   8.636   6.839
    8AU     LIG 3409  14.205   8.513   6.810
    8AU     LIG 3410  13.950   8.173   6.611
    8AU     LIG 3411  13.556   8.047   6.369
    8AU     LIG 3412  13.434   7.665   6.109
    8AU       S 3413  14.310   8.654   7.696
    8AU     LIG 3414  14.225   8.263   7.785
    8AU     LIG 3415  13.817   8.065   7.751
    8AU     LIG 3416  13.441   7.816   7.619
    8AU     LIG 3417  13.003   7.783   7.739
    8AU    AUSL 3418  14.766   8.979   7.759
    8AU    AUSL 3419  15.022   8.604   7.837
    8AU     AUL 3420  14.696   8.566   7.915
    8AU       S 3421  14.752   8.397   8.345
    8AU     LIG 3422  14.533   8.068   8.121
    8AU     LIG 3423  14.126   7.771   8.100
    8AU     LIG 3424  13.855   7.391   8.265
    8AU     LIG 3425  13.798   7.076   8.620
    8AU       S 3426  14.360   8.881   7.857
    8AU     LIG 3427  13.894   8.624   7.904
    8AU     LIG 3428  13.526   8.498   7.837
    8AU     LIG 3429  13.146   8.687   7.813
    8AU     LIG 3430  12.742   8.489   7.780
    8AU    AUSL 3431  15.505   9.774   7.917
    8AU    AUSL 3432  15.062   9.829   7.831
    8AU     AUL 3433  15.324   9.916   8.191
    8AU       S 3434  14.937  10.029   7.951
    8AU     LIG 3435  14.517  10.164   8.160
    8AU     LIG 3436  14.366  10.414   8.551
    8AU     LIG 3437  14.177  10.851   8.673
    8AU     LIG 3438  13.755  11.029   8.764
    8AU       S 3439  15.537  10.271   7.977
    8AU     LIG 3440  15.698  10.332   8.345
    8AU     LIG 3441  15.755  10.775   8.478
    8AU     LIG 3442  15.793  11.224   8.621
    8AU     LIG 3443  15.703  11.535   8.983
    8AU    AUSL 3444  15.339  10.046   7.614
    8AU    AUSL 3445  15.623  10.012   7.248
    8AU     AUL 3446  15.318  10.272   7.370
    8AU       S 3447  15.401  10.264   7.832
    8AU     LIG 3448  15.548  10.752   7.977
    8AU     LIG 3449  15.479  11.167   8.187
    8AU     LIG 3450  15.109  11.493   8.213
    8AU     LIG 3451  14.773  11.714   8.457
    8AU       S 3452  15.553  10.335   6.976
    8AU     LIG 3453  15.916  10.563   6.989
    8AU     LIG 3454  15.985  11.027   6.918
    8AU     LIG 3455  15.982  11.492   6.788
    8AU     LIG 3456  15.842  11.904   6.603
    8AU    AUSL 3457  15.775   9.978   7.643
    8AU    AUSL 3458  15.788   9.675   8.208
    8AU     AUL 3459  15.862   9.951   7.994
    8AU       S 3460  16.018   9.760   8.411
    8AU     LIG 3461  16.343   9.832   8.748
    8AU     LIG 3462  16.677  10.108   8.918
    8AU     LIG 3463  16.900  10.333   9.273
    8AU     LIG 3464  16.932  10.461   9.735
    8AU       S 3465  15.741  10.289   7.676
    8AU     LIG 3466  16.005  10.519   7.977
    8AU     LIG 3467  16.056  10.974   8.117
    8AU     LIG 3468  16.214  11.363   8.322
    8AU     LIG 3469  16.482  11.742   8.424
    8AU    AUSL 3470  15.401   8.384   7.925
    8AU    AUSL 3471  15.817   8.396   7.755
    8AU     AUL 3472  15.646   8.251   8.130
    8AU       S 3473  15.362   7.919   7.974
    8AU     LIG 3474  15.296   7.665   8.326
    8AU     LIG 3475  15.109   7.249   8.447
    8AU     LIG 3476  15.155   6.785   8.583
    8AU     LIG 3477  15.073   6.410   8.862
    8AU       S 3478  15.979   8.155   7.788
    8AU     LIG 3479  16.177   7.727   8.019
    8AU     LIG 3480  16.538   7.487   8.277
    8AU     LIG 3481  16.877   7.176   8.476
    8AU     LIG 3482  17.062   7.007   8.887
    8AU    AUSL 3483  15.083   8.241   7.646
    8AU    AUSL 3484  15.194   8.550   8.245
    8AU     AUL 3485  15.056   8.272   8.011
    8AU       S 3486  15.172   7.862   7.818
    8AU     LIG 3487  14.863   7.625   8.059
    8AU     LIG 3488  14.731   7.171   8.097
    8AU     LIG 3489  14.819   6.736   8.217
    8AU     LIG 3490  14.958   6.321   8.384
    8AU       S 3491  15.017   8.429   8.453
    8AU     LIG 3492  14.871   7.948   8.489
    8AU     LIG 3493  14.408   7.794   8.536
    8AU     LIG 3494  14.026   7.582   8.713
    8AU     LIG 3495  13.969   7.298   9.069
    8AU    AUSL 3496  15.515   8.153   7.587
    8AU    AUSL 3497  15.288   8.405   7.308
    8AU     AUL 3498  15.166   8.060   7.398
    8AU       S 3499  15.522   7.962   7.137
    8AU     LIG 3500  15.128   7.665   7.088
    8AU     LIG 3501  14.937   7.217   6.971
    8AU     LIG 3502  14.771   6.772   6.790
    8AU     LIG 3503  14.872   6.304   6.658
    8AU       S 3504  15.512   7.925   7.727
    8AU     LIG 3505  15.430   7.434   7.854
    8AU     LIG 3506  15.231   7.012   8.005
    8AU     LIG 3507  15.308   6.556   8.106
    8AU     LIG 3508  15.518   6.184   8.326
    8AU    AUSL 3509  15.452   9.841   6.883
    8AU    AUSL 3510  15.975   9.779   7.282
    8AU     AUL 3511  15.802   9.959   6.969
    8AU       S 3512  15.438  10.083   6.689
    8AU     LIG 3513  15.755  10.398   6.524
    8AU     LIG 3514  15.825  10.872   6.454
    8AU     LIG 3515  15.731  11.336   6.358
    8AU     LIG 3516  15.486  11.674   6.143
    8AU       S 3517  16.219   9.947   7.165
    8AU     LIG 3518  16.633  10.072   6.897
    8AU     LIG 3519  16.804  10.302   6.498
    8AU     LIG 3520  17.099  10.616   6.244
    8AU     LIG 3521  17.464  10.938   6.121
    8AU    AUSL 3522  15.266   9.788   7.299
    8AU    AUSL 3523  15.214   9.512   6.957
    8AU     AUL 3524  15.142   9.948   7.046
    8AU       S 3525  15.362  10.314   6.898
    8AU     LIG 3526  15.474  10.793   6.820
    8AU     LIG 3527  15.517  11.255   6.816
    8AU     LIG 3528  15.362  11.664   6.646
    8AU     LIG 3529  15.044  11.895   6.370
    8AU       S 3530  15.014   9.755   6.648
    8AU     LIG 3531  14.804   9.849   6.213
    8AU     LIG 3532  14.465  10.136   6.034
    8AU     LIG 3533  14.342  10.543   5.804
    8AU     LIG 3534  14.236  10.733   5.377
    8AU    AUSL 3535  15.475   8.376   6.914
    8AU    AUSL 3536  14.878   8.411   7.225
    8AU     AUL 3537  15.135   8.255   6.970
    8AU       S 3538  14.679   8.365   7.010
    8AU     LIG 3539  14.403   8.031   6.906
    8AU     LIG 3540  14.073   7.721   6.844
    8AU     LIG 3541  13.784   7.600   6.518
    8AU     LIG 3542  13.660   7.222   6.281
    8AU       S 3543  15.523   7.971   6.923
    8AU     LIG 3544  15.454   7.531   6.725
    8AU     LIG 3545  15.219   7.140   6.549
    8AU     LIG 3546  15.134   6.691   6.423
    8AU     LIG 3547  15.272   6.322   6.157
    8AU    AUSL 3548  15.715   8.375   7.294
    8AU    AUSL 3549  15.725   8.706   6.961
    8AU     AUL 3550  15.820   8.333   6.930
    8AU       S 3551  15.759   7.976   7.227
    8AU     LIG 3552  15.597   7.484   7.228
    8AU     LIG 3553  15.447   7.059   7.005
    8AU     LIG 3554  15.460   6.580   6.827
    8AU     LIG 3555  15.718   6.169   6.696
    8AU       S 3556  16.043   8.548   6.597
    8AU     LIG 3557  16.037   8.090   6.510
    8AU     LIG 3558  16.344   7.790   6.304
    8AU     LIG 3559  16.635   7.537   6.031
    8AU     LIG 3560  16.747   7.304   5.620
    9AU     AUC 3561  31.727  25.649   7.491
    9AU     AUC 3562  32.029  25.641   7.319
    9AU     AUC 3563  31.993  25.631   7.665
    9AU     AUC 3564  31.442  25.646   7.328
    9AU     AUC 3565  31.456  25.690   7.676
    9AU     AUC 3566  31.562  25.935   7.486
    9AU     AUC 3567  31.915  25.921   7.479
    9AU     AUC 3568  31.529  25.376   7.495
    9AU     AUC 3569  31.887  25.365   7.495
    9AU     AUC 3570  31.723  25.472   7.764
    9AU     AUC 3571  31.722  25.842   7.750
    9AU     AUC 3572  31.724  25.480   7.219
    9AU     AUC 3573  31.758  25.800   7.217
    9AU     AUC 3574  32.353  25.635   7.166
    9AU     AUC 3575  32.342  25.616   7.514
    9AU     AUC 3576  32.279  25.606   7.865
    9AU     AUC 3577  31.140  25.652   7.163
    9AU     AUC 3578  31.121  25.688   7.528
    9AU     AUC 3579  31.175  25.731   7.864
    9AU     AUC 3580  31.407  26.249   7.457
    9AU     AUC 3581  31.767  26.268   7.432
    9AU     AUC 3582  32.089  26.205   7.467
    9AU     AUC 3583  31.328  25.102   7.496
    9AU     AUC 3584  31.658  25.041   7.472
    9AU     AUC 3585  32.045  25.048   7.475
    9AU     AUC 3586  31.706  25.296   8.056
    9AU     AUC 3587  31.722  25.660   8.085
    9AU     AUC 3588  31.748  26.021   8.039
    9AU     AUC 3589  31.747  25.311   6.938
    9AU     AUC 3590  31.752  25.629   6.887
    9AU     AUC 3591  31.761  25.952   6.915
    9AU     AUC 3592  31.994  25.415   7.980
    9AU     AUC 3593  32.027  25.799   7.980
    9AU     AUC 3594  32.076  25.470   7.008
    9AU     AUC 3595  32.085  25.820   7.027
    9AU     AUC 3596  31.425  25.533   8.006
    9AU     AUC 3597  31.449  25.912   7.979
    9AU     AUC 3598  31.423  25.471   7.035
    9AU     AUC 3599  31.417  25.782   6.991
    9AU     AUC 3600  32.265  25.920   7.331
    9AU     AUC 3601  32.198  25.908   7.688
    9AU     AUC 3602  31.243  25.957   7.320
    9AU     AUC 3603  31.263  26.014   7.673
    9AU     AUC 3604  32.220  25.321   7.327
    9AU     AUC 3605  32.182  25.303   7.663
    9AU     AUC 3606  31.190  25.361   7.358
    9AU     AUC 3607  31.252  25.406   7.713
    9AU     AUC 3608  31.585  26.189   7.743
    9AU     AUC 3609  31.921  26.131   7.759
    9AU     AUC 3610  31.523  25.182   7.792
    9AU     AUC 3611  31.845  25.124   7.760
    9AU     AUC 3612  31.565  26.081   7.178
    9AU     AUC 3613  31.947  26.107   7.156
    9AU     AUC 3614  31.507  25.171   7.200
    9AU     AUC 3615  31.896  25.190   7.201
    9AU    AUSL 3616  32.255  25.535   8.222
    9AU    AUSL 3617  31.986  25.122   8.136
    9AU     AUL 3618  32.286  25.126   8.340
    9AU       S 3619  32.359  24.770   8.062
    9AU     LIG 3620  32.254  24.608   8.451
    9AU     LIG 3621  32.457  24.293   8.721
    9AU     LIG 3622  32.713  23.959   8.936
    9AU     LIG 3623  32.902  23.768   9.308
    9AU       S 3624  32.480  25.535   8.354
    9AU     LIG 3625  32.337  25.549   8.797
    9AU     LIG 3626  32.506  25.607   9.222
    9AU     LIG 3627  32.847  25.444   9.505
    9AU     LIG 3628  33.267  25.443   9.734
    9AU    AUSL 3629  31.850  25.450   8.384
    9AU    AUSL 3630  31.599  25.857   8.407
    9AU     AUL 3631  31.789  25.748   8.720
    9AU       S 3632  31.950  25.363   8.540
    9AU     LIG 3633  31.887  25.315   8.959
    9AU     LIG 3634  32.157  25.227   9.311
    9AU     LIG 3635  32.244  25.016   9.721
    9AU     LIG 3636  32.179  24.932  10.182
    9AU       S 3637  31.372  25.591   8.623
    9AU     LIG 3638  31.426  25.608   9.097
    9AU     LIG 3639  31.157  25.624   9.488
    9AU     LIG 3640  30.990  25.668   9.928
    9AU     LIG 3641  30.955  25.932  10.325
    9AU    AUSL 3642  31.919  25.818   8.146
    9AU    AUSL 3643  32.350  25.939   8.110
    9AU     AUL 3644  32.144  25.837   8.435
    9AU       S 3645  31.829  26.207   8.604
    9AU     LIG 3646  32.201  26.067   8.873
    9AU     LIG 3647  32.391  26.115   9.295
    9AU     LIG 3648  32.380  26.236   9.760
    9AU     LIG 3649  32.259  26.404  10.198
    9AU       S 3650  32.516  26.082   8.283
    9AU     LIG 3651  32.931  26.038   8.440
    9AU     LIG 3652  33.157  26.288   8.774
    9AU     LIG 3653  33.477  26.595   8.945
    9AU     LIG 3654  33.654  26.979   9.172
    9AU    AUSL 3655  32.289  25.695   6.839
    9AU    AUSL 3656  32.167  26.116   6.817
    9AU     AUL 3657  32.478  25.948   6.597
    9AU       S 3658  32.115  25.857   6.344
    9AU     LIG 3659  32.539  25.758   6.071
    9AU     LIG 3660  32.640  25.504   5.696
    9AU     LIG 3661  32.867  25.377   5.308
    9AU     LIG 3662  33.321  25.302   5.134
    9AU       S 3663  32.511  26.354   6.850
    9AU     LIG 3664  32.747  26.472   6.490
    9AU     LIG 3665  32.926  26.721   6.133
    9AU     LIG 3666  33.104  26.760   5.701
    9AU     LIG 3667  33.219  26.977   5.288
    9AU    AUSL 3668  32.045  25.436   6.594
    9AU    AUSL 3669  32.435  25.304   6.917
    9AU     AUL 3670  32.450  25.468   6.609
    9AU       S 3671  32.498  25.004   6.688
    9AU     LIG 3672  32.791  24.706   6.439
    9AU     LIG 3673  32.975  24.281   6.340
    9AU     LIG 3674  33.270  23.954   6.147
    9AU     LIG 3675  33.635  23.974   5.841
    9AU       S 3676  32.152  25.691   6.337
    9AU     LIG 3677  32.201  25.332   6.089
    9AU     LIG 3678  32.295  25.122   5.659
    9AU     LIG 3679  32.396  25.126   5.190
    9AU     LIG 3680  32.316  25.053   4.715
    9AU    AUSL 3681  31.877  25.804   6.759
    9AU    AUSL 3682  31.631  25.429   6.709
    9AU     AUL 3683  31.773  25.464   6.433
    9AU       S 3684  31.319  25.500   6.298
    9AU     LIG 3685  31.475  25.202   6.058
    9AU     LIG 3686  31.250  25.056   5.671
    9AU     LIG 3687  30.990  25.019   5.272
    9AU     LIG 3688  30.813  25.151   4.853
    9AU       S 3689  31.952  25.920   6.442
    9AU     LIG 3690  31.824  25.699   5.974
    9AU     LIG 3691  32.137  25.612   5.631
    9AU     LIG 3692  32.365  25.646   5.208
    9AU     LIG 3693  32.310  25.821   4.754
    9AU    AUSL 3694  31.201  25.804   8.235
    9AU    AUSL 3695  31.498  26.169   8.131
    9AU     AUL 3696  31.353  26.089   8.464
    9AU       S 3697  31.192  25.686   8.659
    9AU     LIG 3698  30.961  25.404   8.907
    9AU     LIG 3699  30.737  25.371   9.319
    9AU     LIG 3700  30.558  25.438   9.749
    9AU     LIG 3701  30.215  25.538  10.055
    9AU       S 3702  31.138  26.428   8.210
    9AU     LIG 3703  30.880  26.540   8.556
    9AU     LIG 3704  30.690  26.727   8.926
    9AU     LIG 3705  30.537  27.063   9.201
    9AU     LIG 3706  30.435  27.431   9.479
    9AU    AUSL 3707  31.500  25.515   8.155
    9AU    AUSL 3708  31.087  25.385   8.141
    9AU     AUL 3709  30.979  25.623   8.259
    9AU       S 3710  30.999  25.176   8.410
    9AU     LIG 3711  30.559  25.066   8.248
    9AU     LIG 3712  30.378  24.621   8.352
    9AU     LIG 3713  30.072  24.364   8.634
    9AU     LIG 3714  29.731  24.088   8.853
    9AU       S 3715  31.389  25.456   8.538
    9AU     LIG 3716  31.407  25.152   8.885
    9AU     LIG 3717  31.213  25.145   9.301
    9AU     LIG 3718  31.011  25.174   9.726
    9AU     LIG 3719  30.815  25.016  10.121
    9AU    AUSL 3720  31.232  25.570   6.771
    9AU    AUSL 3721  31.395  25.192   6.965
    9AU     AUL 3722  31.412  25.182   6.615
    9AU       S 3723  31.098  25.481   6.439
    9AU     LIG 3724  30.949  25.199   6.114
    9AU     LIG 3725  30.779  25.277   5.686
    9AU     LIG 3726  30.640  25.418   5.266
    9AU     LIG 3727  30.445  25.536   4.859
    9AU       S 3728  30.989  25.084   6.763
    9AU     LIG 3729  30.905  24.759   6.486
    9AU     LIG 3730  30.571  24.434   6.387
    9AU     LIG 3731  30.361  24.033   6.242
    9AU     LIG 3732  30.202  23.731   5.910
    9AU    AUSL 3733  31.510  25.844   6.562
    9AU    AUSL 3734  31.025  25.916   6.912
    9AU     AUL 3735  31.161  25.912   6.585
    9AU       S 3736  30.761  26.103   6.734
    9AU     LIG 3737  30.385  26.298   6.559
    9AU     LIG 3738  30.211  26.397   6.123
    9AU     LIG 3739  29.863  26.469   5.809
    9AU     LIG 3740  29.521  26.690   5.551
    9AU       S 3741  31.406  25.709   6.247
    9AU     LIG 3742  31.202  25.576   5.824
    9AU     LIG 3743  31.144  25.496   5.375
    9AU     LIG 3744  31.005  25.634   4.949
    9AU     LIG 3745  31.077  26.033   4.708
    9AU    AUSL 3746  32.494  26.150   7.512
    9AU    AUSL 3747  32.488  25.957   7.105
    9AU     AUL 3748  32.792  26.283   7.353
    9AU       S 3749  32.601  26.093   7.004
    9AU     LIG 3750  33.002  26.155   6.818
    9AU     LIG 3751  33.265  26.334   6.456
    9AU     LIG 3752  33.435  26.647   6.147
    9AU     LIG 3753  33.573  26.927   5.788
    9AU       S 3754  32.898  26.021   7.730
    9AU     LIG 3755  33.292  26.192   7.567
    9AU     LIG 3756  33.563  26.599   7.649
    9AU     LIG 3757  33.883  26.961   7.577
    9AU     LIG 3758  34.002  27.402   7.380
    9AU    AUSL 3759  32.701  25.746   7.402
    9AU    AUSL 3760  32.639  25.419   7.710
    9AU     AUL 3761  33.024  25.531   7.719
    9AU       S 3762  32.829  25.831   7.449
    9AU     LIG 3763  33.172  25.824   7.197
    9AU     LIG 3764  33.577  25.998   7.096
    9AU     LIG 3765  34.041  26.089   6.906
    9AU     LIG 3766  34.474  26.315   6.885
    9AU       S 3767  32.897  25.134   7.529
    9AU     LIG 3768  33.345  24.999   7.602
    9AU     LIG 3769  33.701  24.747   7.802
    9AU     LIG 3770  34.048  24.859   8.077
    9AU     LIG 3771  34.493  24.806   8.170
    9AU    AUSL 3772  32.424  25.783   7.733
    9AU    AUSL 3773  32.172  26.165   7.788
    9AU     AUL 3774  32.490  26.223   7.827
    9AU       S 3775  32.489  26.378   8.258
    9AU     LIG 3776  32.923  26.524   8.308
    9AU     LIG 3777  33.317  26.695   8.464
    9AU     LIG 3778  33.414  27.078   8.713
    9AU     LIG 3779  33.413  27.561   8.718
    9AU       S 3780  32.752  25.854   7.881
    9AU     LIG 3781  33.254  25.882   8.040
    9AU     LIG 3782  33.730  25.808   8.128
    9AU     LIG 3783  34.149  26.015   8.046
    9AU     LIG 3784  34.596  26.118   8.040
    9AU    AUSL 3785  31.075  26.235   7.505
    9AU    AUSL 3786  31.144  26.050   7.904
    9AU     AUL 3787  30.836  26.347   7.745
    9AU       S 3788  30.999  26.212   8.153
    9AU     LIG 3789  30.680  26.077   8.421
    9AU     LIG 3790  30.400  26.320   8.727
    9AU     LIG 3791  30.199  26.613   9.039
    9AU     LIG 3792  29.937  26.772   9.387
    9AU       S 3793  31.073  26.613   7.423
    9AU     LIG 3794  30.596  26.566   7.338
    9AU     LIG 3795  30.134  26.706   7.420
    9AU     LIG 3796  29.703  26.910   7.449
    9AU     LIG 3797  29.323  27.084   7.214
    9AU    AUSL 3798  31.026  25.844   7.320
    9AU    AUSL 3799  31.170  26.283   7.096
    9AU     AUL 3800  30.853  26.163   7.196
    9AU       S 3801  30.639  25.676   6.987
    9AU     LIG 3802  30.381  26.093   7.047
    9AU     LIG 3803  29.993  26.378   7.012
    9AU     LIG 3804  29.502  26.315   7.036
    9AU     LIG 3805  29.080  26.522   6.931
    9AU       S 3806  31.004  26.528   6.925
    9AU     LIG 3807  30.761  26.817   6.640
    9AU     LIG 3808  30.706  27.208   6.369
    9AU     LIG 3809  30.439  27.611   6.310
    9AU     LIG 3810  30.371  28.044   6.132
    9AU    AUSL 3811  30.818  25.891   7.701
    9AU    AUSL 3812  30.774  25.522   7.413
    9AU     AUL 3813  30.622  25.843   7.430
    9AU       S 3814  30.563  25.434   7.687
    9AU     LIG 3815  30.150  25.264   7.460
    9AU     LIG 3816  29.692  25.071   7.324
    9AU     LIG 3817  29.303  25.025   7.089
    9AU     LIG 3818  28.831  24.967   7.097
    9AU       S 3819  30.674  25.914   7.923
    9AU     LIG 3820  30.361  26.208   8.019
    9AU     LIG 3821  29.999  26.486   7.902
    9AU     LIG 3822  29.539  26.642   7.901
    9AU     LIG 3823  29.091  26.816   7.906
    9AU    AUSL 3824  32.430  25.064   7.544
    9AU    AUSL 3825  32.260  25.313   7.867
    9AU     AUL 3826  32.586  25.211   7.941
    9AU       S 3827  32.745  24.958   7.563
    9AU     LIG 3828  33.023  24.630   7.425
    9AU     LIG 3829  33.481  24.513   7.402
    9AU     LIG 3830  33.888  24.324   7.531
    9AU     LIG 3831  34.031  23.930   7.370
    9AU       S 3832  32.464  24.768   7.932
    9AU     LIG 3833  32.707  24.460   8.238
    9AU     LIG 3834  32.952  24.233   8.568
    9AU     LIG 3835  33.249  24.035   8.877
    9AU     LIG 3836  33.715  23.986   8.984
    9AU    AUSL 3837  32.439  25.431   7.315
    9AU    AUSL 3838  32.292  24.960   7.153
    9AU     AUL 3839  32.572  25.088   7.157
    9AU       S 3840  32.913  25.325   7.315
    9AU     LIG 3841  33.160  25.016   7.107
    9AU     LIG 3842  33.615  24.945   7.128
    9AU     LIG 3843  34.009  24.715   7.222
    9AU     LIG 3844  34.382  24.677   6.908
    9AU       S 3845  32.488  24.772   6.822
    9AU     LIG 3846  32.606  24.314   6.745
    9AU     LIG 3847  32.778  23.877   6.592
    9AU     LIG 3848  33.018  23.526   6.347
    9AU     LIG 3849  33.135  23.269   5.960
    9AU    AUSL 3850  30.959  25.154   7.567
    9AU    AUSL 3851  31.052  25.407   7.119
    9AU     AUL 3852  30.706  25.236   7.273
    9AU       S 3853  30.896  25.247   6.850
    9AU     LIG 3854  30.488  24.996   6.703
    9AU     LIG 3855  30.152  24.639   6.649
    9AU     LIG 3856  29.926  24.270   6.448
    9AU     LIG 3857  29.890  24.125   5.997
    9AU       S 3858  30.554  25.190   7.721
    9AU     LIG 3859  30.290  24.841   7.880
    9AU     LIG 3860  29.874  24.605   7.891
    9AU     LIG 3861  29.606  24.503   7.541
    9AU     LIG 3862  29.316  24.168   7.400
    9AU    AUSL 3863  31.037  25.537   7.757
    9AU    AUSL 3864  31.287  25.160   7.837
    9AU     AUL 3865  30.961  25.129   7.919
    9AU       S 3866  31.022  24.955   8.344
    9AU     LIG 3867  30.828  24.645   8.048
    9AU     LIG 3868  30.636  24.217   8.141
    9AU     LIG 3869  30.263  23.978   8.357
    9AU     LIG 3870  29.953  23.691   8.581
    9AU       S 3871  30.633  25.448   7.872
    9AU     LIG 3872  30.166  25.347   7.992
    9AU     LIG 3873  29.806  25.113   7.819
    9AU     LIG 3874  29.374  24.966   7.720
    9AU     LIG 3875  28.933  24.865   7.872
    9AU    AUSL 3876  31.778  26.367   7.876
    9AU    AUSL 3877  31.348  26.404   7.788
    9AU     AUL 3878  31.602  26.501   8.145
    9AU       S 3879  31.215  26.599   7.898
    9AU     LIG 3880  30.967  26.897   8.166
    9AU     LIG 3881  30.807  27.098   8.571
    9AU     LIG 3882  30.516  27.418   8.811
    9AU     LIG 3883  30.254  27.823   8.926
    9AU       S 3884  31.842  26.833   7.887
    9AU     LIG 3885  31.868  26.935   8.285
    9AU     LIG 3886  31.874  27.367   8.449
    9AU     LIG 3887  31.834  27.785   8.624
    9AU     LIG 3888  31.849  28.093   8.945
    9AU    AUSL 3889  31.622  26.601   7.537
    9AU    AUSL 3890  31.909  26.543   7.182
    9AU     AUL 3891  31.780  26.912   7.334
    9AU       S 3892  31.653  26.835   7.775
    9AU     LIG 3893  31.740  27.319   7.952
    9AU     LIG 3894  31.782  27.770   8.116
    9AU     LIG 3895  31.605  28.219   8.165
    9AU     LIG 3896  31.467  28.706   8.129
    9AU       S 3897  31.675  26.719   6.939
    9AU     LIG 3898  32.134  26.963   6.995
    9AU     LIG 3899  32.387  27.410   7.029
    9AU     LIG 3900  32.398  27.905   6.949
    9AU     LIG 3901  32.185  28.295   6.740
    9AU    AUSL 3902  32.064  26.509   7.581
    9AU    AUSL 3903  32.016  26.220   8.191
    9AU     AUL 3904  32.120  26.479   7.987
    9AU       S 3905  32.273  26.309   8.416
    9AU     LIG 3906  32.631  26.375   8.732
    9AU     LIG 3907  32.929  26.745   8.805
    9AU     LIG 3908  33.139  26.953   9.148
    9AU     LIG 3909  33.314  27.151   9.544
    9AU       S 3910  32.077  26.790   7.658
    9AU     LIG 3911  32.145  27.228   7.662
    9AU     LIG 3912  32.238  27.563   7.996
    9AU     LIG 3913  32.250  28.005   8.172
    9AU     LIG 3914  32.161  28.472   8.086
    9AU    AUSL 3915  31.664  24.939   7.920
    9AU    AUSL 3916  32.070  24.947   7.741
    9AU     AUL 3917  31.904  24.810   8.129
    9AU       S 3918  31.624  24.473   7.985
    9AU     LIG 3919  31.555  24.151   8.290
    9AU     LIG 3920  31.438  23.733   8.401
    9AU     LIG 3921  31.522  23.290   8.452
    9AU     LIG 3922  31.417  22.877   8.659
    9AU       S 3923  32.228  24.694   7.787
    9AU     LIG 3924  32.254  24.270   8.057
    9AU     LIG 3925  32.562  23.959   8.335
    9AU     LIG 3926  32.952  23.706   8.549
    9AU     LIG 3927  33.186  23.539   8.958
    9AU    AUSL 3928  31.342  24.799   7.643
    9AU    AUSL 3929  31.463  25.112   8.242
    9AU     AUL 3930  31.321  24.832   8.010
    9AU       S 3931  31.454  24.417   7.843
    9AU     LIG 3932  31.137  24.198   7.988
    9AU     LIG 3933  31.324  23.821   7.914
    9AU     LIG 3934  31.279  23.376   8.004
    9AU     LIG 3935  31.248  22.941   8.181
    9AU       S 3936  31.255  24.984   8.453
    9AU     LIG 3937  30.996  24.501   8.513
    9AU     LIG 3938  30.635  24.184   8.650
    9AU     LIG 3939  30.288  23.968   8.891
    9AU     LIG 3940  30.057  24.034   9.278
    9AU    AUSL 3941  31.768  24.693   7.586
    9AU    AUSL 3942  31.509  24.841   7.252
    9AU     AUL 3943  31.381  24.564   7.413
    9AU       S 3944  31.728  24.524   7.118
    9AU     LIG 3945  31.330  24.255   7.029
    9AU     LIG 3946  31.244  23.801   7.016
    9AU     LIG 3947  31.083  23.354   7.011
    9AU     LIG 3948  31.047  22.897   6.884
    9AU       S 3949  31.766  24.488   7.721
    9AU     LIG 3950  31.811  24.035   7.864
    9AU     LIG 3951  31.782  23.610   8.045
    9AU     LIG 3952  31.954  23.188   8.079
    9AU     LIG 3953  31.946  22.719   8.005
    9AU    AUSL 3954  31.764  26.262   6.861
    9AU    AUSL 3955  32.182  26.230   7.231
    9AU     AUL 3956  32.058  26.449   6.860
    9AU       S 3957  31.658  26.676   6.743
    9AU     LIG 3958  31.976  26.881   6.512
    9AU     LIG 3959  32.079  27.205   6.178
    9AU     LIG 3960  31.987  27.603   5.948
    9AU     LIG 3961  31.922  27.944   5.638
    9AU       S 3962  32.421  26.452   7.138
    9AU     LIG 3963  32.877  26.648   6.981
    9AU     LIG 3964  33.140  26.823   6.599
    9AU     LIG 3965  33.286  27.129   6.241
    9AU     LIG 3966  33.646  27.379   6.024
    9AU    AUSL 3967  31.553  26.313   7.242
    9AU    AUSL 3968  31.454  25.988   6.948
    9AU     AUL 3969  31.413  26.290   6.809
    9AU       S 3970  31.453  26.677   7.077
    9AU     LIG 3971  31.511  27.178   6.961
    9AU     LIG 3972  31.513  27.652   6.776
    9AU     LIG 3973  31.218  28.070   6.846
    9AU     LIG 3974  31.017  28.541   6.776
    9AU       S 3975  30.974  26.336   6.672
    9AU     LIG 3976  31.229  26.699   6.483
    9AU     LIG 3977  31.182  27.062   6.164
    9AU     LIG 3978  31.067  27.216   5.714
    9AU     LIG 3979  30.821  27.318   5.309
    9AU    AUSL 3980  31.722  24.935   6.883
    9AU    AUSL 3981  31.118  24.982   7.218
    9AU     AUL 3982  31.358  24.809   6.933
    9AU       S 3983  30.910  24.931   6.984
    9AU     LIG 3984  30.648  24.533   6.898
    9AU     LIG 3985  30.344  24.168   6.776
    9AU     LIG 3986  30.117  23.781   6.612
    9AU     LIG 3987  29.848  23.590   6.264
    9AU       S 3988  31.742  24.525   6.885
    9AU     LIG 3989  31.777  24.077   6.835
    9AU     LIG 3990  31.615  23.697   6.632
    9AU     LIG 3991  31.787  23.384   6.326
    9AU     LIG 3992  31.786  23.111   5.923
    9AU    AUSL 3993  31.907  24.960   7.297
    9AU    AUSL 3994  32.006  25.235   6.956
    9AU     AUL 3995  32.050  24.867   6.935
    9AU       S 3996  31.943  24.506   7.201
    9AU     LIG 3997  31.707  24.084   7.348
    9AU     LIG 3998  31.734  23.638   7.135
    9AU     LIG 3999  32.044  23.248   7.056
    9AU     LIG 4000  32.263  22.835   6.876
    9AU       S 4001  32.261  25.012   6.562
    9AU     LIG 4002  32.193  24.547   6.497
    9AU     LIG 4003  32.456  24.215   6.263
    9AU     LIG 4004  32.751  23.889   6.074
    9AU     LIG 4005  33.027  23.714   5.744
   10AU     AUC 4006  30.143  14.507   7.504
   10AU     AUC 4007  30.433  14.513   7.330
   10AU     AUC 4008  30.408  14.499   7.676
   10AU     AUC 4009  29.857  14.499   7.336
   10AU     AUC 4010  29.872  14.537   7.687
   10AU     AUC 4011  29.975  14.786   7.499
   10AU     AUC 4012  30.330  14.791   7.492
   10AU     AUC 4013  29.955  14.229   7.509
   10AU     AUC 4014  30.308  14.220   7.504
   10AU     AUC 4015  30.143  14.331   7.780
   10AU     AUC 4016  30.137  14.698   7.765
   10AU     AUC 4017  30.138  14.340   7.233
   10AU     AUC 4018  30.161  14.661   7.225
   10AU     AUC 4019  30.746  14.520   7.165
   10AU     AUC 4020  30.753  14.487   7.522
   10AU     AUC 4021  30.696  14.477   7.874
   10AU     AUC 4022  29.559  14.487   7.165
   10AU     AUC 4023  29.534  14.533   7.529
   10AU     AUC 4024  29.587  14.568   7.873
   10AU     AUC 4025  29.813  15.090   7.477
   10AU     AUC 4026  30.178  15.128   7.454
   10AU     AUC 4027  30.510  15.080   7.487
   10AU     AUC 4028  29.758  13.949   7.517
   10AU     AUC 4029  30.100  13.896   7.494
   10AU     AUC 4030  30.475  13.914   7.491
   10AU     AUC 4031  30.128  14.155   8.074
   10AU     AUC 4032  30.140  14.519   8.100
   10AU     AUC 4033  30.160  14.876   8.058
   10AU     AUC 4034  30.166  14.163   6.955
   10AU     AUC 4035  30.156  14.496   6.893
   10AU     AUC 4036  30.144  14.823   6.921
   10AU     AUC 4037  30.414  14.287   7.995
   10AU     AUC 4038  30.446  14.673   7.991
   10AU     AUC 4039  30.476  14.361   7.004
   10AU     AUC 4040  30.469  14.687   7.037
   10AU     AUC 4041  29.839  14.380   8.020
   10AU     AUC 4042  29.861  14.754   7.994
   10AU     AUC 4043  29.842  14.313   7.048
   10AU     AUC 4044  29.827  14.632   6.994
   10AU     AUC 4045  30.678  14.801   7.354
   10AU     AUC 4046  30.617  14.778   7.700
   10AU     AUC 4047  29.665  14.798   7.308
   10AU     AUC 4048  29.670  14.850   7.676
   10AU     AUC 4049  30.626  14.204   7.328
   10AU     AUC 4050  30.599  14.169   7.676
   10AU     AUC 4051  29.620  14.201   7.371
   10AU     AUC 4052  29.673  14.253   7.724
   10AU     AUC 4053  29.986  15.034   7.764
   10AU     AUC 4054  30.335  14.997   7.776
   10AU     AUC 4055  29.949  14.034   7.809
   10AU     AUC 4056  30.276  13.983   7.779
   10AU     AUC 4057  29.973  14.941   7.181
   10AU     AUC 4058  30.347  14.988   7.199
   10AU     AUC 4059  29.945  14.018   7.220
   10AU     AUC 4060  30.327  14.047   7.209
   10AU    AUSL 4061  30.678  14.413   8.230
   10AU    AUSL 4062  30.418  13.992   8.161
   10AU     AUL 4063  30.734  14.007   8.328
   10AU       S 4064  30.766  13.597   8.115
   10AU     LIG 4065  30.668  13.516   8.519
   10AU     LIG 4066  30.885  13.186   8.747
   10AU     LIG 4067  31.037  12.756   8.859
   10AU     LIG 4068  31.129  12.495   9.252
   10AU       S 4069  30.913  14.419   8.392
   10AU     LIG 4070  30.771  14.466   8.836
   10AU     LIG 4071  30.914  14.439   9.266
   10AU     LIG 4072  31.200  14.430   9.621
   10AU     LIG 4073  31.492  14.296   9.957
   10AU    AUSL 4074  30.277  14.322   8.398
   10AU    AUSL 4075  30.014  14.703   8.423
   10AU     AUL 4076  30.215  14.613   8.728
   10AU       S 4077  30.420  14.230   8.579
   10AU     LIG 4078  30.233  14.169   8.958
   10AU     LIG 4079  30.493  14.149   9.339
   10AU     LIG 4080  30.842  14.055   9.640
   10AU     LIG 4081  31.013  14.086  10.070
   10AU       S 4082  29.801  14.439   8.647
   10AU     LIG 4083  29.786  14.453   9.127
   10AU     LIG 4084  29.454  14.447   9.466
   10AU     LIG 4085  29.334  14.476   9.919
   10AU     LIG 4086  29.152  14.726  10.271
   10AU    AUSL 4087  30.338  14.696   8.162
   10AU    AUSL 4088  30.774  14.814   8.115
   10AU     AUL 4089  30.566  14.714   8.445
   10AU       S 4090  30.231  15.075   8.594
   10AU     LIG 4091  30.592  14.960   8.881
   10AU     LIG 4092  30.844  14.949   9.283
   10AU     LIG 4093  30.948  14.964   9.754
   10AU     LIG 4094  30.929  15.037  10.232
   10AU       S 4095  30.937  14.960   8.294
   10AU     LIG 4096  31.371  15.048   8.263
   10AU     LIG 4097  31.692  15.284   8.529
   10AU     LIG 4098  31.946  15.545   8.846
   10AU     LIG 4099  32.317  15.800   9.010
   10AU    AUSL 4100  30.691  14.634   6.786
   10AU    AUSL 4101  30.466  14.961   6.963
   10AU     AUL 4102  30.619  15.004   6.625
   10AU       S 4103  30.647  14.662   6.328
   10AU     LIG 4104  31.054  14.586   6.180
   10AU     LIG 4105  31.182  14.310   5.857
   10AU     LIG 4106  31.232  14.207   5.417
   10AU     LIG 4107  31.394  14.043   5.012
   10AU       S 4108  30.938  15.211   6.900
   10AU     LIG 4109  30.929  15.501   6.591
   10AU     LIG 4110  31.254  15.686   6.290
   10AU     LIG 4111  31.497  15.793   5.891
   10AU     LIG 4112  31.632  16.077   5.527
   10AU    AUSL 4113  30.461  14.313   6.619
   10AU    AUSL 4114  30.807  14.241   6.915
   10AU     AUL 4115  30.901  14.406   6.645
   10AU       S 4116  30.803  13.947   6.657
   10AU     LIG 4117  30.988  13.654   6.298
   10AU     LIG 4118  31.310  13.297   6.294
   10AU     LIG 4119  31.693  13.147   6.062
   10AU     LIG 4120  31.890  13.223   5.624
   10AU       S 4121  30.577  14.488   6.318
   10AU     LIG 4122  30.765  14.132   6.160
   10AU     LIG 4123  30.838  13.950   5.721
   10AU     LIG 4124  30.813  13.977   5.240
   10AU     LIG 4125  30.929  14.048   4.777
   10AU    AUSL 4126  30.265  14.692   6.694
   10AU    AUSL 4127  30.046  14.288   6.731
   10AU     AUL 4128  30.185  14.306   6.448
   10AU       S 4129  29.752  14.309   6.293
   10AU     LIG 4130  29.639  14.085   5.900
   10AU     LIG 4131  29.360  13.893   5.592
   10AU     LIG 4132  29.249  13.922   5.150
   10AU     LIG 4133  29.334  13.936   4.681
   10AU       S 4134  30.324  14.744   6.361
   10AU     LIG 4135  30.422  14.588   5.871
   10AU     LIG 4136  30.759  14.436   5.550
   10AU     LIG 4137  30.910  14.465   5.093
   10AU     LIG 4138  30.857  14.580   4.633
   10AU    AUSL 4139  29.615  14.642   8.256
   10AU    AUSL 4140  29.890  15.007   8.153
   10AU     AUL 4141  29.762  14.929   8.487
   10AU       S 4142  29.614  14.515   8.668
   10AU     LIG 4143  29.296  14.264   8.807
   10AU     LIG 4144  29.027  14.270   9.179
   10AU     LIG 4145  28.970  14.247   9.636
   10AU     LIG 4146  28.836  14.357  10.072
   10AU       S 4147  29.514  15.238   8.227
   10AU     LIG 4148  29.533  15.374   8.636
   10AU     LIG 4149  29.345  15.652   8.960
   10AU     LIG 4150  29.060  15.969   9.142
   10AU     LIG 4151  28.999  16.404   9.300
   10AU    AUSL 4152  29.918  14.359   8.172
   10AU    AUSL 4153  29.503  14.226   8.143
   10AU     AUL 4154  29.394  14.462   8.271
   10AU       S 4155  29.417  14.009   8.391
   10AU     LIG 4156  28.988  14.085   8.333
   10AU     LIG 4157  28.646  13.796   8.483
   10AU     LIG 4158  28.382  13.420   8.641
   10AU     LIG 4159  28.161  13.030   8.840
   10AU       S 4160  29.809  14.301   8.552
   10AU     LIG 4161  29.733  14.005   8.907
   10AU     LIG 4162  29.452  13.979   9.249
   10AU     LIG 4163  29.406  13.983   9.716
   10AU     LIG 4164  29.212  13.999  10.136
   10AU    AUSL 4165  29.625  14.356   6.780
   10AU    AUSL 4166  29.832  14.021   6.980
   10AU     AUL 4167  29.857  13.999   6.636
   10AU       S 4168  29.572  14.242   6.372
   10AU     LIG 4169  29.164  14.243   6.239
   10AU     LIG 4170  28.997  14.206   5.810
   10AU     LIG 4171  28.942  14.292   5.354
   10AU     LIG 4172  28.730  14.319   4.943
   10AU       S 4173  29.427  13.919   6.784
   10AU     LIG 4174  29.445  13.553   6.553
   10AU     LIG 4175  29.067  13.328   6.418
   10AU     LIG 4176  28.696  13.113   6.236
   10AU     LIG 4177  28.476  12.938   5.867
   10AU    AUSL 4178  29.855  14.666   6.596
   10AU    AUSL 4179  29.494  14.753   6.901
   10AU     AUL 4180  29.408  14.571   6.634
   10AU       S 4181  29.513  15.013   6.634
   10AU     LIG 4182  29.079  15.105   6.580
   10AU     LIG 4183  28.800  15.360   6.257
   10AU     LIG 4184  28.505  15.534   5.916
   10AU     LIG 4185  28.029  15.646   5.919
   10AU       S 4186  29.795  14.591   6.350
   10AU     LIG 4187  29.474  14.571   5.970
   10AU     LIG 4188  29.415  14.399   5.522
   10AU     LIG 4189  29.339  14.419   5.042
   10AU     LIG 4190  29.402  14.672   4.649
   10AU    AUSL 4191  30.939  15.006   7.535
   10AU    AUSL 4192  30.851  14.808   7.137
   10AU     AUL 4193  31.212  15.087   7.303
   10AU       S 4194  30.964  14.979   6.944
   10AU     LIG 4195  31.169  15.008   6.511
   10AU     LIG 4196  31.540  15.260   6.295
   10AU     LIG 4197  31.807  15.375   5.900
   10AU     LIG 4198  32.260  15.504   5.799
   10AU       S 4199  31.328  14.895   7.722
   10AU     LIG 4200  31.789  15.048   7.613
   10AU     LIG 4201  32.220  15.258   7.574
   10AU     LIG 4202  32.364  15.676   7.396
   10AU     LIG 4203  32.511  16.096   7.298
   10AU    AUSL 4204  31.119  14.609   7.403
   10AU    AUSL 4205  31.054  14.282   7.710
   10AU     AUL 4206  31.415  14.370   7.758
   10AU       S 4207  31.263  14.662   7.455
   10AU     LIG 4208  31.638  14.783   7.206
   10AU     LIG 4209  32.135  14.856   7.251
   10AU     LIG 4210  32.597  14.907   7.075
   10AU     LIG 4211  33.070  14.994   6.992
   10AU       S 4212  31.300  13.987   7.523
   10AU     LIG 4213  31.709  13.943   7.707
   10AU     LIG 4214  32.036  13.650   7.773
   10AU     LIG 4215  32.421  13.498   7.998
   10AU     LIG 4216  32.784  13.311   8.267
   10AU    AUSL 4217  30.842  14.644   7.743
   10AU    AUSL 4218  30.595  15.038   7.788
   10AU     AUL 4219  30.912  15.092   7.839
   10AU       S 4220  30.901  15.269   8.260
   10AU     LIG 4221  31.250  15.540   8.416
   10AU     LIG 4222  31.593  15.827   8.602
   10AU     LIG 4223  31.984  16.093   8.737
   10AU     LIG 4224  32.455  16.189   8.683
   10AU       S 4225  31.177  14.726   7.883
   10AU     LIG 4226  31.710  14.720   7.992
   10AU     LIG 4227  32.172  14.948   8.024
   10AU     LIG 4228  32.678  14.949   8.086
   10AU     LIG 4229  33.128  15.125   8.200
   10AU    AUSL 4230  29.494  15.065   7.508
   10AU    AUSL 4231  29.555  14.865   7.908
   10AU     AUL 4232  29.256  15.182   7.744
   10AU       S 4233  29.395  15.033   8.158
   10AU     LIG 4234  29.260  14.914   8.559
   10AU     LIG 4235  29.072  15.224   8.861
   10AU     LIG 4236  28.810  15.504   9.147
   10AU     LIG 4237  28.449  15.552   9.469
   10AU       S 4238  29.498  15.459   7.432
   10AU     LIG 4239  29.024  15.429   7.356
   10AU     LIG 4240  28.643  15.712   7.523
   10AU     LIG 4241  28.315  16.031   7.682
   10AU     LIG 4242  27.889  16.103   7.611
   10AU    AUSL 4243  29.426  14.688   7.306
   10AU    AUSL 4244  29.575  15.132   7.102
   10AU     AUL 4245  29.276  14.995   7.155
   10AU       S 4246  29.076  14.555   6.989
   10AU     LIG 4247  28.788  14.989   7.047
   10AU     LIG 4248  28.383  15.297   7.008
   10AU     LIG 4249  27.895  15.384   6.932
   10AU     LIG 4250  27.429  15.330   6.724
   10AU       S 4251  29.389  15.387   6.888
   10AU     LIG 4252  29.119  15.620   6.579
   10AU     LIG 4253  28.885  15.894   6.278
   10AU     LIG 4254  28.621  16.282   6.260
   10AU     LIG 4255  28.180  16.416   6.287
   10AU    AUSL 4256  29.227  14.731   7.694
   10AU    AUSL 4257  29.186  14.361   7.412
   10AU     AUL 4258  29.029  14.703   7.427
   10AU       S 4259  28.968  14.296   7.677
   10AU     LIG 4260  28.715  14.213   7.250
   10AU     LIG 4261  28.260  14.158   7.196
   10AU     LIG 4262  27.836  14.050   7.352
   10AU     LIG 4263  27.431  14.073   7.194
   10AU       S 4264  29.059  14.769   7.923
   10AU     LIG 4265  28.675  14.946   7.725
   10AU     LIG 4266  28.235  15.141   7.761
   10AU     LIG 4267  27.921  15.184   8.103
   10AU     LIG 4268  27.481  15.344   8.117
   10AU    AUSL 4269  30.836  13.939   7.541
   10AU    AUSL 4270  30.678  14.188   7.878
   10AU     AUL 4271  31.015  14.098   7.933
   10AU       S 4272  31.076  13.824   7.536
   10AU     LIG 4273  31.365  13.486   7.613
   10AU     LIG 4274  31.764  13.258   7.508
   10AU     LIG 4275  32.020  12.868   7.512
   10AU     LIG 4276  32.473  12.839   7.555
   10AU       S 4277  30.902  13.669   7.998
   10AU     LIG 4278  31.163  13.451   8.374
   10AU     LIG 4279  31.381  13.120   8.639
   10AU     LIG 4280  31.555  12.787   8.929
   10AU     LIG 4281  31.938  12.778   9.190
   10AU    AUSL 4282  30.841  14.310   7.324
   10AU    AUSL 4283  30.734  13.870   7.136
   10AU     AUL 4284  30.992  14.027   7.122
   10AU       S 4285  31.345  14.166   7.348
   10AU     LIG 4286  31.724  13.969   7.203
   10AU     LIG 4287  32.037  13.633   7.238
   10AU     LIG 4288  32.467  13.561   7.073
   10AU     LIG 4289  32.564  13.392   6.640
   10AU       S 4290  30.889  13.728   6.770
   10AU     LIG 4291  30.968  13.250   6.722
   10AU     LIG 4292  31.154  12.844   6.504
   10AU     LIG 4293  31.515  12.671   6.218
   10AU     LIG 4294  31.825  12.383   6.003
   10AU    AUSL 4295  29.388  13.998   7.572
   10AU    AUSL 4296  29.493  14.231   7.159
   10AU     AUL 4297  29.153  14.042   7.315
   10AU       S 4298  29.265  14.076   6.866
   10AU     LIG 4299  28.994  13.851   6.533
   10AU     LIG 4300  28.608  13.609   6.401
   10AU     LIG 4301  28.227  13.344   6.244
   10AU     LIG 4302  27.976  13.177   5.881
   10AU       S 4303  28.955  14.077   7.748
   10AU     LIG 4304  28.922  13.640   7.657
   10AU     LIG 4305  28.504  13.347   7.676
   10AU     LIG 4306  28.072  13.094   7.630
   10AU     LIG 4307  27.625  13.194   7.529
   10AU    AUSL 4308  29.450  14.382   7.760
   10AU    AUSL 4309  29.712  14.006   7.844
   10AU     AUL 4310  29.377  13.963   7.903
   10AU       S 4311  29.420  13.777   8.318
   10AU     LIG 4312  29.017  13.608   8.161
   10AU     LIG 4313  28.634  13.322   8.201
   10AU     LIG 4314  28.409  12.922   8.392
   10AU     LIG 4315  28.217  12.488   8.553
   10AU       S 4316  29.064  14.301   7.877
   10AU     LIG 4317  28.591  14.296   8.031
   10AU     LIG 4318  28.177  14.144   7.796
   10AU     LIG 4319  27.788  13.889   7.886
   10AU     LIG 4320  27.308  13.833   8.022
   10AU    AUSL 4321  30.173  15.199   7.900
   10AU    AUSL 4322  29.734  15.239   7.818
   10AU     AUL 4323  29.982  15.326   8.178
   10AU       S 4324  29.598  15.452   7.938
   10AU     LIG 4325  29.319  15.694   8.269
   10AU     LIG 4326  29.084  15.946   8.612
   10AU     LIG 4327  28.834  16.311   8.811
   10AU     LIG 4328  28.505  16.434   9.144
   10AU       S 4329  30.198  15.674   7.950
   10AU     LIG 4330  30.349  15.721   8.326
   10AU     LIG 4331  30.398  16.169   8.464
   10AU     LIG 4332  30.419  16.619   8.620
   10AU     LIG 4333  30.313  17.081   8.708
   10AU    AUSL 4334  30.007  15.445   7.583
   10AU    AUSL 4335  30.304  15.403   7.223
   10AU     AUL 4336  29.996  15.667   7.342
   10AU       S 4337  30.048  15.676   7.809
   10AU     LIG 4338  30.112  16.153   8.013
   10AU     LIG 4339  30.153  16.610   8.175
   10AU     LIG 4340  29.890  17.007   8.174
   10AU     LIG 4341  29.514  17.073   7.922
   10AU       S 4342  30.249  15.707   6.959
   10AU     LIG 4343  30.642  15.865   6.979
   10AU     LIG 4344  30.732  16.339   6.922
   10AU     LIG 4345  30.717  16.764   6.705
   10AU     LIG 4346  30.458  17.153   6.643
   10AU    AUSL 4347  30.448  15.393   7.623
   10AU    AUSL 4348  30.448  15.098   8.196
   10AU     AUL 4349  30.534  15.362   7.977
   10AU       S 4350  30.682  15.190   8.413
   10AU     LIG 4351  31.050  15.180   8.739
   10AU     LIG 4352  31.395  15.459   8.918
   10AU     LIG 4353  31.611  15.819   9.139
   10AU     LIG 4354  31.653  15.982   9.583
   10AU       S 4355  30.398  15.705   7.668
   10AU     LIG 4356  30.603  16.014   7.979
   10AU     LIG 4357  30.657  16.484   8.135
   10AU     LIG 4358  30.589  16.944   8.261
   10AU     LIG 4359  30.799  17.352   8.379
   10AU    AUSL 4360  30.100  13.807   7.939
   10AU    AUSL 4361  30.511  13.803   7.777
   10AU     AUL 4362  30.318  13.687   8.169
   10AU       S 4363  30.086  13.319   8.017
   10AU     LIG 4364  30.106  13.026   8.365
   10AU     LIG 4365  30.167  12.565   8.425
   10AU     LIG 4366  29.979  12.141   8.504
   10AU     LIG 4367  29.855  11.859   8.858
   10AU       S 4368  30.678  13.596   7.854
   10AU     LIG 4369  31.050  13.211   7.941
   10AU     LIG 4370  31.051  12.909   8.299
   10AU     LIG 4371  31.365  12.631   8.476
   10AU     LIG 4372  31.732  12.354   8.630
   10AU    AUSL 4373  29.782  13.634   7.677
   10AU    AUSL 4374  29.874  13.956   8.256
   10AU     AUL 4375  29.766  13.673   8.028
   10AU       S 4376  29.909  13.251   7.869
   10AU     LIG 4377  29.785  12.822   7.832
   10AU     LIG 4378  29.709  12.527   8.166
   10AU     LIG 4379  29.584  12.112   8.182
   10AU     LIG 4380  29.606  11.753   8.417
   10AU       S 4381  29.657  13.852   8.456
   10AU     LIG 4382  29.290  13.689   8.773
   10AU     LIG 4383  28.922  13.390   8.652
   10AU     LIG 4384  28.682  13.025   8.829
   10AU     LIG 4385  28.618  12.770   9.223
   10AU    AUSL 4386  30.215  13.549   7.617
   10AU    AUSL 4387  29.958  13.729   7.302
   10AU     AUL 4388  29.839  13.425   7.443
   10AU       S 4389  30.146  13.334   7.118
   10AU     LIG 4390  29.749  13.120   7.043
   10AU     LIG 4391  29.700  12.646   6.970
   10AU     LIG 4392  29.785  12.212   6.813
   10AU     LIG 4393  29.866  11.762   6.751
   10AU       S 4394  30.220  13.340   7.769
   10AU     LIG 4395  30.277  12.843   7.934
   10AU     LIG 4396  30.154  12.413   7.943
   10AU     LIG 4397  30.026  11.973   8.009
   10AU     LIG 4398  30.267  11.678   8.230
   10AU    AUSL 4399  30.145  15.213   6.861
   10AU    AUSL 4400  30.653  15.176   7.279
   10AU     AUL 4401  30.489  15.326   6.928
   10AU       S 4402  30.123  15.475   6.663
   10AU     LIG 4403  30.416  15.842   6.512
   10AU     LIG 4404  30.453  16.325   6.484
   10AU     LIG 4405  30.314  16.757   6.348
   10AU     LIG 4406  30.436  17.072   6.029
   10AU       S 4407  30.872  15.361   7.171
   10AU     LIG 4408  31.327  15.498   6.965
   10AU     LIG 4409  31.658  15.688   6.664
   10AU     LIG 4410  31.957  16.051   6.538
   10AU     LIG 4411  31.919  16.383   6.227
   10AU    AUSL 4412  29.952  15.173   7.277
   10AU    AUSL 4413  29.900  14.891   6.945
   10AU     AUL 4414  29.831  15.331   7.021
   10AU       S 4415  30.060  15.694   6.874
   10AU     LIG 4416  30.205  16.189   6.911
   10AU     LIG 4417  30.237  16.666   6.855
   10AU     LIG 4418  29.950  17.035   6.770
   10AU     LIG 4419  29.622  17.361   6.607
   10AU       S 4420  29.710  15.118   6.633
   10AU     LIG 4421  29.551  15.439   6.360
   10AU     LIG 4422  29.223  15.568   6.055
   10AU     LIG 4423  28.932  15.799   5.759
   10AU     LIG 4424  28.944  15.938   5.309
   10AU    AUSL 4425  30.158  13.754   6.917
   10AU    AUSL 4426  29.554  13.804   7.234
   10AU     AUL 4427  29.796  13.640   6.978
   10AU       S 4428  29.351  13.788   6.982
   10AU     LIG 4429  29.021  13.507   6.913
   10AU     LIG 4430  28.673  13.231   6.753
   10AU     LIG 4431  28.328  12.969   6.587
   10AU     LIG 4432  28.110  12.811   6.215
   10AU       S 4433  30.179  13.380   6.859
   10AU     LIG 4434  29.990  13.085   6.574
   10AU     LIG 4435  30.059  12.607   6.519
   10AU     LIG 4436  30.056  12.136   6.370
   10AU     LIG 4437  29.935  11.694   6.225
   10AU    AUSL 4438  30.372  13.796   7.321
   10AU    AUSL 4439  30.401  14.087   6.966
   10AU     AUL 4440  30.503  13.677   7.016
   10AU       S 4441  30.272  13.332   7.210
   10AU     LIG 4442  30.175  12.862   6.975
   10AU     LIG 4443  30.250  12.450   6.967
   10AU     LIG 4444  30.322  12.069   6.797
   10AU     LIG 4445  30.325  11.695   6.559
   10AU       S 4446  30.572  13.870   6.610
   10AU     LIG 4447  30.543  13.458   6.482
   10AU     LIG 4448  30.814  13.145   6.236
   10AU     LIG 4449  31.127  12.913   5.987
   10AU     LIG 4450  31.490  12.863   5.697
   11POPC   NC3 4451  11.513  10.563   9.418
   11POPC   PO4 4452  11.075  10.113   9.402
   11POPC   GL1 4453  11.227  10.372   9.023
   11POPC   GL2 4454  11.182  10.715   9.057
   11POPC   C1A 4455  11.205  10.539   8.583
   11POPC   D2A 4456  10.887  10.442   8.279
   11POPC   C3A 4457  11.027  10.404   7.856
   11POPC   C4A 4458  11.471  10.406   7.692
   11POPC   C1B 4459  11.509  10.925   8.799
   11POPC   C2B 4460  11.611  11.009   8.357
   11POPC   C3B 4461  11.391  10.740   8.054
   11POPC   C4B 4462  11.152  10.846   7.664
   12POPC   NC3 4463  11.804   9.996   9.513
   12POPC   PO4 4464  12.412   9.701   9.448
   12POPC   GL1 4465  12.145   9.755   9.114
   12POPC   GL2 4466  11.955  10.050   9.033
   12POPC   C1A 4467  12.276   9.829   8.693
   12POPC   D2A 4468  12.128   9.642   8.328
   12POPC   C3A 4469  12.293   9.858   8.008
   12POPC   C4A 4470  12.414   9.743   7.632
   12POPC   C1B 4471  11.765   9.742   8.724
   12POPC   C2B 4472  11.672   9.833   8.280
   12POPC   C3B 4473  11.808   9.852   7.854
   12POPC   C4B 4474  11.699   9.989   7.486
   13POPC   NC3 4475  32.276  35.020   9.513
   13POPC   PO4 4476  32.352  35.664   9.653
   13POPC   GL1 4477  32.252  35.441   9.212
   13POPC   GL2 4478  32.488  35.404   8.961
   13POPC   C1A 4479  32.058  35.264   8.790
   13POPC   D2A 4480  31.962  35.450   8.365
   13POPC   C3A 4481  32.059  35.298   7.931
   13POPC   C4A 4482  32.036  35.102   7.525
   13POPC   C1B 4483  32.440  35.483   8.552
   13POPC   C2B 4484  32.548  35.287   8.210
   13POPC   C3B 4485  32.523  35.143   7.816
   13POPC   C4B 4486  32.456  35.352   7.437
   14POPC   NC3 4487  24.847  28.146   9.453
   14POPC   PO4 4488  24.190  28.128   9.333
   14POPC   GL1 4489  24.262  28.224   8.946
   14POPC   GL2 4490  24.613  28.193   8.995
   14POPC   C1A 4491  24.253  28.566   8.680
   14POPC   D2A 4492  24.396  28.549   8.246
   14POPC   C3A 4493  24.482  28.242   7.960
   14POPC   C4A 4494  24.275  28.231   7.541
   14POPC   C1B 4495  24.748  28.462   8.672
   14POPC   C2B 4496  24.853  28.746   8.305
   14POPC   C3B 4497  24.780  28.674   7.846
   14POPC   C4B 4498  24.453  28.711   7.547
   15POPC   NC3 4499   3.087  31.374   9.595
   15POPC   PO4 4500   2.431  31.386   9.404
   15POPC   GL1 4501   2.804  31.296   9.166
   15POPC   GL2 4502   2.888  31.632   9.199
   15POPC   C1A 4503   2.884  31.259   8.724
   15POPC   D2A 4504   2.683  31.455   8.343
   15POPC   C3A 4505   2.716  31.269   7.920
   15POPC   C4A 4506   2.546  31.240   7.483
   15POPC   C1B 4507   2.883  31.782   8.791
   15POPC   C2B 4508   2.699  31.965   8.414
   15POPC   C3B 4509   2.861  31.897   7.974
   15POPC   C4B 4510   2.940  31.650   7.621
   16POPC   NC3 4511   5.460  31.053   9.758
   16POPC   PO4 4512   4.929  31.402   9.490
   16POPC   GL1 4513   5.008  31.566   9.107
   16POPC   GL2 4514   4.893  31.261   8.954
   16POPC   C1A 4515   5.193  31.705   8.733
   16POPC   D2A 4516   5.438  31.472   8.454
   16POPC   C3A 4517   5.250  31.472   8.040
   16POPC   C4A 4518   5.052  31.813   7.803
   16POPC   C1B 4519   4.815  31.382   8.563
   16POPC   C2B 4520   4.802  31.633   8.218
   16POPC   C3B 4521   4.759  31.405   7.842
   16POPC   C4B 4522   4.575  31.003   7.826
   17POPC   NC3 4523  38.793  37.352   9.290
   17POPC   PO4 4524  38.429  37.913   9.540
   17POPC   GL1 4525  38.515  37.806   9.180
   17POPC   GL2 4526  38.322  37.555   9.162
   17POPC   C1A 4527  38.643  37.746   8.763
   17POPC   D2A 4528  38.757  37.925   8.382
   17POPC   C3A 4529  38.690  37.650   8.029
   17POPC   C4A 4530  38.714  37.882   7.642
   17POPC   C1B 4531  38.146  37.632   8.778
   17POPC   C2B 4532  38.303  37.472   8.376
   17POPC   C3B 4533  38.190  37.596   7.957
   17POPC   C4B 4534  38.280  37.533   7.532
   18POPC   NC3 4535   8.483   7.706   9.793
   18POPC   PO4 4536   8.047   7.341   9.472
   18POPC   GL1 4537   8.131   7.630   9.149
   18POPC   GL2 4538   8.483   7.667   9.207
   18POPC   C1A 4539   8.052   7.514   8.701
   18POPC   D2A 4540   7.854   7.207   8.395
   18POPC   C3A 4541   8.080   7.184   8.004
   18POPC   C4A 4542   8.269   7.362   7.639
   18POPC   C1B 4543   8.558   7.497   8.763
   18POPC   C2B 4544   8.464   7.435   8.277
   18POPC   C3B 4545   8.502   7.738   7.876
   18POPC   C4B 4546   8.368   7.797   7.410
   19POPC   NC3 4547  32.361  29.414   9.540
   19POPC   PO4 4548  31.784  29.267   9.399
   19POPC   GL1 4549  32.099  29.225   9.104
   19POPC   GL2 4550  32.470  29.230   9.091
   19POPC   C1A 4551  32.152  29.036   8.710
   19POPC   D2A 4552  31.949  28.916   8.320
   19POPC   C3A 4553  32.248  28.991   8.001
   19POPC   C4A 4554  32.201  29.118   7.592
   19POPC   C1B 4555  32.661  29.277   8.718
   19POPC   C2B 4556  32.681  29.183   8.306
   19POPC   C3B 4557  32.687  29.262   7.897
   19POPC   C4B 4558  32.654  28.904   7.668
   20POPC   NC3 4559  20.977  25.571   9.459
   20POPC   PO4 4560  20.369  25.201   9.535
   20POPC   GL1 4561  20.627  25.289   9.128
   20POPC   GL2 4562  20.962  25.459   8.977
   20POPC   C1A 4563  20.800  25.047   8.749
   20POPC   D2A 4564  20.575  24.948   8.393
   20POPC   C3A 4565  20.697  25.088   7.999
   20POPC   C4A 4566  20.398  25.298   7.743
   20POPC   C1B 4567  20.612  25.542   8.700
   20POPC   C2B 4568  20.445  25.454   8.318
   20POPC   C3B 4569  20.724  25.602   8.022
   20POPC   C4B 4570  20.834  25.498   7.605
   21POPC   NC3 4571  42.722  23.701   9.322
   21POPC   PO4 4572  42.088  24.036   9.467
   21POPC   GL1 4573  42.195  23.773   9.134
   21POPC   GL2 4574  42.071  23.441   9.150
   21POPC   C1A 4575  42.415  23.852   8.752
   21POPC   D2A 4576  42.323  24.056   8.354
   21POPC   C3A 4577  42.239  23.749   8.016
   21POPC   C4A 4578  42.349  23.760   7.580
   21POPC   C1B 4579  42.240  23.348   8.772
   21POPC   C2B 4580  42.419  23.468   8.413
   21POPC   C3B 4581  42.625  23.254   8.129
   21POPC   C4B 4582  42.450  23.286   7.744
   22POPC   NC3 4583  23.095  28.673   9.570
   22POPC   PO4 4584  22.667  29.128   9.745
   22POPC   GL1 4585  22.879  29.104   9.379
   22POPC   GL2 4586  22.569  29.106   9.237
   22POPC   C1A 4587  22.999  29.073   8.959
   22POPC   D2A 4588  22.892  29.213   8.564
   22POPC   C3A 4589  22.907  29.032   8.165
   22POPC   C4A 4590  23.115  29.226   7.817
   22POPC   C1B 4591  22.502  28.976   8.844
   22POPC   C2B 4592  22.471  28.842   8.438
   22POPC   C3B 4593  22.394  28.963   8.050
   22POPC   C4B 4594  22.643  29.023   7.728
   23POPC   NC3 4595   2.484  30.923   9.352
   23POPC   PO4 4596   3.149  30.939   9.445
   23POPC   GL1 4597   2.903  30.778   9.115
   23POPC   GL2 4598   2.684  30.476   9.162
   23POPC   C1A 4599   2.720  30.751   8.713
   23POPC   D2A 4600   2.687  30.943   8.343
   23POPC   C3A 4601   2.361  30.853   8.103
   23POPC   C4A 4602   2.543  30.811   7.739
   23POPC   C1B 4603   3.014  30.364   8.860
   23POPC   C2B 4604   3.126  30.502   8.437
   23POPC   C3B 4605   3.138  30.365   8.002
   23POPC   C4B 4606   2.813  30.399   7.684
   24POPC   NC3 4607  38.457  23.851   9.523
   24POPC   PO4 4608  38.696  23.228   9.310
   24POPC   GL1 4609  38.659  23.649   9.068
   24POPC   GL2 4610  38.332  23.805   9.048
   24POPC   C1A 4611  38.577  23.737   8.607
   24POPC   D2A 4612  38.590  23.362   8.320
   24POPC   C3A 4613  38.581  23.437   7.894
   24POPC   C4A 4614  38.720  23.851   7.714
   24POPC   C1B 4615  38.092  24.057   8.818
   24POPC   C2B 4616  38.016  23.914   8.434
   24POPC   C3B 4617  38.303  23.788   8.131
   24POPC   C4B 4618  38.210  23.745   7.693
   25POPC   NC3 4619  43.805  13.988   9.529
   25POPC   PO4 4620  44.095  13.384   9.315
   25POPC   GL1 4621  43.890  13.727   9.096
   25POPC   GL2 4622  43.557  13.869   9.106
   25POPC   C1A 4623  43.801  13.545   8.728
   25POPC   D2A 4624  44.081  13.317   8.486
   25POPC   C3A 4625  43.999  13.234   8.071
   25POPC   C4A 4626  43.885  13.374   7.668
   25POPC   C1B 4627  43.418  13.880   8.707
   25POPC   C2B 4628  43.499  14.082   8.334
   25POPC   C3B 4629  43.341  13.964   7.953
   25POPC   C4B 4630  43.600  13.792   7.649
   26POPC   NC3 4631  23.541  27.121   9.456
   26POPC   PO4 4632  23.556  27.774   9.403
   26POPC   GL1 4633  23.633  27.488   9.080
   26POPC   GL2 4634  23.438  27.736   8.871
   26POPC   C1A 4635  23.697  27.379   8.647
   26POPC   D2A 4636  23.665  27.692   8.340
   26POPC   C3A 4637  23.654  27.552   7.920
   26POPC   C4A 4638  23.320  27.469   7.644
   26POPC   C1B 4639  23.921  27.837   8.758
   26POPC   C2B 4640  24.164  28.040   8.411
   26POPC   C3B 4641  24.073  27.888   7.991
   26POPC   C4B 4642  24.003  27.744   7.577
   27POPC   NC3 4643  15.051  36.278   9.858
   27POPC   PO4 4644  15.062  36.635   9.325
   27POPC   GL1 4645  15.034  36.268   9.109
   27POPC   GL2 4646  14.795  36.032   9.079
   27POPC   C1A 4647  15.199  36.090   8.735
   27POPC   D2A 4648  15.282  36.374   8.406
   27POPC   C3A 4649  15.339  36.144   8.052
   27POPC   C4A 4650  15.297  36.363   7.689
   27POPC   C1B 4651  14.658  36.016   8.659
   27POPC   C2B 4652  14.941  35.929   8.298
   27POPC   C3B 4653  15.036  35.783   7.862
   27POPC   C4B 4654  14.798  35.914   7.471
   28POPC   NC3 4655   4.159  27.337   9.541
   28POPC   PO4 4656   4.671  27.718   9.714
   28POPC   GL1 4657   4.545  27.529   9.278
   28POPC   GL2 4658   4.637  27.185   9.375
   28POPC   C1A 4659   4.276  27.443   8.875
   28POPC   D2A 4660   4.132  27.243   8.448
   28POPC   C3A 4661   4.043  27.524   8.094
   28POPC   C4A 4662   3.929  27.511   7.684
   28POPC   C1B 4663   4.722  27.186   8.931
   28POPC   C2B 4664   4.660  27.332   8.522
   28POPC   C3B 4665   4.509  27.293   8.116
   28POPC   C4B 4666   4.429  27.449   7.715
   29POPC   NC3 4667  41.782  27.405   9.467
   29POPC   PO4 4668  41.174  27.738   9.465
   29POPC   GL1 4669  41.383  27.717   9.045
   29POPC   GL2 4670  41.760  27.632   9.017
   29POPC   C1A 4671  41.509  27.716   8.602
   29POPC   D2A 4672  41.908  27.714   8.373
   29POPC   C3A 4673  41.821  27.727   7.935
   29POPC   C4A 4674  41.483  27.774   7.667
   29POPC   C1B 4675  41.610  27.241   8.763
   29POPC   C2B 4676  41.591  27.091   8.325
   29POPC   C3B 4677  41.485  27.313   7.931
   29POPC   C4B 4678  41.660  27.331   7.479
   30POPC   NC3 4679  25.186   7.723   9.387
   30POPC   PO4 4680  25.633   7.238   9.536
   30POPC   GL1 4681  25.305   7.210   9.215
   30POPC   GL2 4682  25.480   7.457   9.012
   30POPC   C1A 4683  25.116   7.147   8.786
   30POPC   D2A 4684  25.229   7.370   8.394
   30POPC   C3A 4685  25.053   7.298   7.985
   30POPC   C4A 4686  25.313   7.282   7.612
   30POPC   C1B 4687  25.271   7.763   8.736
   30POPC   C2B 4688  25.089   7.863   8.316
   30POPC   C3B 4689  25.309   7.758   7.928
   30POPC   C4B 4690  25.358   8.058   7.591
   31POPC   NC3 4691   3.833  13.802   9.499
   31POPC   PO4 4692   4.476  13.655   9.380
   31POPC   GL1 4693   4.336  13.454   9.041
   31POPC   GL2 4694   4.220  13.804   8.954
   31POPC   C1A 4695   4.301  13.378   8.615
   31POPC   D2A 4696   4.380  13.642   8.264
   31POPC   C3A 4697   4.508  13.503   7.819
   31POPC   C4A 4698   4.202  13.595   7.423
   31POPC   C1B 4699   4.629  13.781   8.744
   31POPC   C2B 4700   4.862  13.778   8.364
   31POPC   C3B 4701   4.721  13.943   7.983
   31POPC   C4B 4702   4.534  13.940   7.577
   32POPC   NC3 4703  14.041  22.494   9.432
   32POPC   PO4 4704  13.696  21.937   9.467
   32POPC   GL1 4705  13.597  22.282   9.153
   32POPC   GL2 4706  13.555  21.994   8.945
   32POPC   C1A 4707  13.546  22.423   8.686
   32POPC   D2A 4708  13.879  22.267   8.386
   32POPC   C3A 4709  13.835  22.382   7.937
   32POPC   C4A 4710  14.007  22.052   7.680
   32POPC   C1B 4711  13.398  21.900   8.558
   32POPC   C2B 4712  13.416  22.139   8.220
   32POPC   C3B 4713  13.536  21.977   7.847
   32POPC   C4B 4714  13.397  21.659   7.626
   33POPC   NC3 4715   9.599  43.586   9.616
   33POPC   PO4 4716   9.493  44.202   9.581
   33POPC   GL1 4717   9.574  43.899   9.191
   33POPC   GL2 4718   9.870  43.568   9.197
   33POPC   C1A 4719   9.422  44.025   8.728
   33POPC   D2A 4720   9.742  44.029   8.346
   33POPC   C3A 4721   9.624  43.897   7.947
   33POPC   C4A 4722   9.477  44.206   7.707
   33POPC   C1B 4723  10.254  43.520   8.874
   33POPC   C2B 4724  10.133  43.542   8.411
   33POPC   C3B 4725  10.131  43.811   8.066
   33POPC   C4B 4726  10.100  43.722   7.631
   34POPC   NC3 4727  34.315   1.144   9.543
   34POPC   PO4 4728  33.819   1.636   9.569
   34POPC   GL1 4729  33.923   1.423   9.141
   34POPC   GL2 4730  33.975   1.080   9.179
   34POPC   C1A 4731  33.731   1.400   8.690
   34POPC   D2A 4732  33.429   1.513   8.325
   34POPC   C3A 4733  33.657   1.487   7.912
   34POPC   C4A 4734  34.036   1.324   7.690
   34POPC   C1B 4735  33.565   1.024   9.001
   34POPC   C2B 4736  33.526   0.930   8.554
   34POPC   C3B 4737  33.505   1.038   8.140
   34POPC   C4B 4738  33.634   1.001   7.751
   35POPC   NC3 4739  11.796   7.474   9.444
   35POPC   PO4 4740  12.471   7.766   9.467
   35POPC   GL1 4741  12.149   7.605   9.114
   35POPC   GL2 4742  12.144   7.252   9.010
   35POPC   C1A 4743  11.777   7.645   8.796
   35POPC   D2A 4744  11.643   7.520   8.353
   35POPC   C3A 4745  11.938   7.371   7.975
   35POPC   C4A 4746  12.036   7.613   7.548
   35POPC   C1B 4747  12.062   7.298   8.563
   35POPC   C2B 4748  12.164   7.671   8.315
   35POPC   C3B 4749  12.387   7.613   7.920
   35POPC   C4B 4750  12.406   7.142   7.845
   36POPC   NC3 4751   7.894  14.714   9.494
   36POPC   PO4 4752   7.880  15.416   9.470
   36POPC   GL1 4753   7.734  15.175   9.127
   36POPC   GL2 4754   7.391  15.100   9.221
   36POPC   C1A 4755   7.490  15.281   8.718
   36POPC   D2A 4756   7.588  15.317   8.288
   36POPC   C3A 4757   7.321  15.353   7.942
   36POPC   C4A 4758   7.607  15.341   7.657
   36POPC   C1B 4759   7.482  14.809   8.879
   36POPC   C2B 4760   7.565  14.812   8.431
   36POPC   C3B 4761   7.548  14.866   7.980
   36POPC   C4B 4762   7.186  14.637   7.819
   37POPC   NC3 4763  39.387  24.219   9.503
   37POPC   PO4 4764  38.890  24.611   9.261
   37POPC   GL1 4765  39.291  24.554   9.096
   37POPC   GL2 4766  39.214  24.211   9.041
   37POPC   C1A 4767  39.509  24.439   8.716
   37POPC   D2A 4768  39.408  24.249   8.367
   37POPC   C3A 4769  39.269  24.553   8.100
   37POPC   C4A 4770  39.344  24.514   7.678
   37POPC   C1B 4771  39.036  24.086   8.680
   37POPC   C2B 4772  38.895  24.227   8.279
   37POPC   C3B 4773  39.132  24.098   7.915
   37POPC   C4B 4774  39.048  24.156   7.476
   38POPC   NC3 4775  40.629   0.548   9.414
   38POPC   PO4 4776  41.149   0.223   9.574
   38POPC   GL1 4777  41.017   0.319   9.125
   38POPC   GL2 4778  40.927   0.653   8.998
   38POPC   C1A 4779  40.927   0.273   8.654
   38POPC   D2A 4780  40.575   0.097   8.372
   38POPC   C3A 4781  40.618   0.260   7.916
   38POPC   C4A 4782  41.038   0.251   7.703
   38POPC   C1B 4783  40.548   0.577   8.774
   38POPC   C2B 4784  40.552   0.606   8.321
   38POPC   C3B 4785  40.871   0.705   7.966
   38POPC   C4B 4786  40.794   0.653   7.514
   39POPC   NC3 4787   4.340  24.097   9.460
   39POPC   PO4 4788   4.479  23.481   9.641
   39POPC   GL1 4789   4.340  23.477   9.206
   39POPC   GL2 4790   4.081  23.706   9.067
   39POPC   C1A 4791   4.284  23.385   8.752
   39POPC   D2A 4792   4.185  23.670   8.399
   39POPC   C3A 4793   4.397  23.576   8.018
   39POPC   C4A 4794   4.558  23.827   7.664
   39POPC   C1B 4795   4.141  24.069   8.739
   39POPC   C2B 4796   4.142  24.224   8.299
   39POPC   C3B 4797   4.049  23.943   7.938
   39POPC   C4B 4798   4.027  23.949   7.468
   40POPC   NC3 4799  10.370  30.264   9.543
   40POPC   PO4 4800  10.747  29.637   9.541
   40POPC   GL1 4801  10.611  29.958   9.232
   40POPC   GL2 4802  10.880  30.128   9.108
   40POPC   C1A 4803  10.329  29.988   8.855
   40POPC   D2A 4804  10.501  29.969   8.452
   40POPC   C3A 4805  10.284  29.874   8.070
   40POPC   C4A 4806  10.497  29.988   7.681
   40POPC   C1B 4807  10.827  29.758   8.824
   40POPC   C2B 4808  10.938  29.709   8.419
   40POPC   C3B 4809  10.770  29.731   8.023
   40POPC   C4B 4810  10.929  29.626   7.617
   41POPC   NC3 4811   9.475  20.035   9.571
   41POPC   PO4 4812  10.114  19.725   9.501
   41POPC   GL1 4813   9.972  19.801   9.113
   41POPC   GL2 4814   9.900  20.124   9.024
   41POPC   C1A 4815   9.797  19.688   8.714
   41POPC   D2A 4816   9.807  19.411   8.351
   41POPC   C3A 4817   9.553  19.514   8.003
   41POPC   C4A 4818   9.881  19.717   7.800
   41POPC   C1B 4819   9.874  20.339   8.616
   41POPC   C2B 4820   9.708  20.357   8.198
   41POPC   C3B 4821   9.890  20.220   7.813
   41POPC   C4B 4822   9.867  20.075   7.372
   42POPC   NC3 4823  14.994  22.886   9.473
   42POPC   PO4 4824  14.362  22.805   9.321
   42POPC   GL1 4825  14.052  23.042   9.079
   42POPC   GL2 4826  13.785  22.821   9.146
   42POPC   C1A 4827  14.126  23.147   8.635
   42POPC   D2A 4828  14.158  23.057   8.192
   42POPC   C3A 4829  14.548  23.065   7.985
   42POPC   C4A 4830  14.714  22.694   7.750
   42POPC   C1B 4831  14.007  22.620   8.786
   42POPC   C2B 4832  14.276  22.633   8.466
   42POPC   C3B 4833  14.311  22.541   8.055
   42POPC   C4B 4834  14.197  22.770   7.737
   43POPC   NC3 4835  44.922  16.847   9.399
   43POPC   PO4 4836  44.307  17.226   9.593
   43POPC   GL1 4837  44.447  17.003   9.194
   43POPC   GL2 4838  44.745  17.124   9.011
   43POPC   C1A 4839  44.461  16.740   8.794
   43POPC   D2A 4840  44.692  16.432   8.528
   43POPC   C3A 4841  44.695  16.603   8.098
   43POPC   C4A 4842  44.728  16.637   7.651
   43POPC   C1B 4843  44.989  16.816   8.740
   43POPC   C2B 4844   0.181  16.868   8.338
   43POPC   C3B 4845   0.089  17.211   8.028
   43POPC   C4B 4846  44.692  17.135   7.835
   44POPC   NC3 4847  39.405  40.340   9.736
   44POPC   PO4 4848  39.235  40.970   9.633
   44POPC   GL1 4849  39.165  40.787   9.265
   44POPC   GL2 4850  38.968  41.032   9.093
   44POPC   C1A 4851  39.154  40.612   8.858
   44POPC   D2A 4852  39.008  40.904   8.514
   44POPC   C3A 4853  39.172  40.832   8.094
   44POPC   C4A 4854  39.198  40.461   7.809
   44POPC   C1B 4855  39.361  41.100   8.847
   44POPC   C2B 4856  39.409  41.250   8.405
   44POPC   C3B 4857  39.605  41.160   8.001
   44POPC   C4B 4858  39.429  40.937   7.657
   45POPC   NC3 4859  28.397  38.420   9.635
   45POPC   PO4 4860  28.042  38.968   9.429
   45POPC   GL1 4861  28.235  38.627   9.174
   45POPC   GL2 4862  28.142  38.281   9.158
   45POPC   C1A 4863  28.486  38.662   8.772
   45POPC   D2A 4864  28.624  38.867   8.388
   45POPC   C3A 4865  28.449  38.785   7.989
   45POPC   C4A 4866  28.584  38.626   7.608
   45POPC   C1B 4867  28.217  38.233   8.727
   45POPC   C2B 4868  28.460  38.353   8.367
   45POPC   C3B 4869  28.521  38.252   7.978
   45POPC   C4B 4870  28.268  38.254   7.654
   46POPC   NC3 4871   4.189  29.749   9.323
   46POPC   PO4 4872   4.629  30.070   9.720
   46POPC   GL1 4873   4.491  30.163   9.231
   46POPC   GL2 4874   4.779  30.316   9.197
   46POPC   C1A 4875   4.308  30.038   8.781
   46POPC   D2A 4876   4.408  29.895   8.336
   46POPC   C3A 4877   4.134  29.938   7.970
   46POPC   C4A 4878   4.188  29.784   7.544
   46POPC   C1B 4879   4.812  30.143   8.786
   46POPC   C2B 4880   4.594  30.344   8.489
   46POPC   C3B 4881   4.613  30.305   8.069
   46POPC   C4B 4882   4.483  30.187   7.664
   47POPC   NC3 4883  13.690  26.548   9.368
   47POPC   PO4 4884  13.574  27.089   9.719
   47POPC   GL1 4885  13.426  27.020   9.205
   47POPC   GL2 4886  13.360  26.688   9.019
   47POPC   C1A 4887  13.556  27.084   8.712
   47POPC   D2A 4888  13.952  26.989   8.404
   47POPC   C3A 4889  13.896  27.006   7.925
   47POPC   C4A 4890  13.570  27.189   7.634
   47POPC   C1B 4891  13.674  26.548   8.683
   47POPC   C2B 4892  13.709  26.310   8.279
   47POPC   C3B 4893  13.478  26.415   7.898
   47POPC   C4B 4894  13.712  26.654   7.573
   48POPC   NC3 4895  37.643  41.794   9.532
   48POPC   PO4 4896  37.587  41.139   9.446
   48POPC   GL1 4897  37.632  41.467   9.091
   48POPC   GL2 4898  37.531  41.852   9.042
   48POPC   C1A 4899  37.961  41.492   8.748
   48POPC   D2A 4900  38.020  41.727   8.349
   48POPC   C3A 4901  38.052  41.481   7.969
   48POPC   C4A 4902  37.963  41.459   7.490
   48POPC   C1B 4903  37.560  41.772   8.588
   48POPC   C2B 4904  37.518  41.823   8.135
   48POPC   C3B 4905  37.773  41.858   7.755
   48POPC   C4B 4906  37.618  41.820   7.334
   49POPC   NC3 4907   9.328   3.724   9.891
   49POPC   PO4 4908   9.883   3.626   9.525
   49POPC   GL1 4909   9.745   3.615   9.094
   49POPC   GL2 4910   9.886   3.957   9.049
   49POPC   C1A 4911   9.630   3.365   8.723
   49POPC   D2A 4912   9.771   3.243   8.307
   49POPC   C3A 4913   9.548   3.396   7.915
   49POPC   C4A 4914   9.559   3.215   7.505
   49POPC   C1B 4915   9.573   3.891   8.712
   49POPC   C2B 4916   9.570   3.724   8.329
   49POPC   C3B 4917   9.926   3.698   8.076
   49POPC   C4B 4918   9.882   3.769   7.644
   50POPC   NC3 4919  24.817  14.274   9.416
   50POPC   PO4 4920  25.222  14.605   9.936
   50POPC   GL1 4921  25.338  14.402   9.388
   50POPC   GL2 4922  25.110  14.449   9.062
   50POPC   C1A 4923  25.529  14.323   8.880
   50POPC   D2A 4924  25.325  14.444   8.474
   50POPC   C3A 4925  25.469  14.447   8.049
   50POPC   C4A 4926  25.357  14.757   7.691
   50POPC   C1B 4927  25.025  14.132   8.757
   50POPC   C2B 4928  24.872  14.211   8.355
   50POPC   C3B 4929  24.955  14.508   8.049
   50POPC   C4B 4930  25.117  14.320   7.701
   51POPC   NC3 4931  16.118  33.334   9.498
   51POPC   PO4 4932  15.933  33.916   9.611
   51POPC   GL1 4933  15.845  33.833   9.187
   51POPC   GL2 4934  15.841  33.483   9.080
   51POPC   C1A 4935  15.852  33.882   8.736
   51POPC   D2A 4936  16.016  33.912   8.325
   51POPC   C3A 4937  15.771  34.064   7.992
   51POPC   C4A 4938  16.055  34.163   7.657
   51POPC   C1B 4939  16.015  33.382   8.668
   51POPC   C2B 4940  16.248  33.466   8.294
   51POPC   C3B 4941  15.872  33.482   8.061
   51POPC   C4B 4942  15.884  33.673   7.687
   52POPC   NC3 4943  17.703  36.194   9.577
   52POPC   PO4 4944  17.019  36.284   9.329
   52POPC   GL1 4945  17.310  36.007   9.132
   52POPC   GL2 4946  17.662  36.112   9.068
   52POPC   C1A 4947  17.350  35.962   8.688
   52POPC   D2A 4948  17.517  36.161   8.313
   52POPC   C3A 4949  17.421  36.042   7.895
   52POPC   C4A 4950  17.127  36.263   7.684
   52POPC   C1B 4951  17.658  36.404   8.744
   52POPC   C2B 4952  17.849  36.548   8.351
   52POPC   C3B 4953  17.835  36.337   7.934
   52POPC   C4B 4954  17.878  36.017   7.596
   53POPC   NC3 4955  26.806   9.624   9.564
   53POPC   PO4 4956  27.152  10.199   9.566
   53POPC   GL1 4957  26.946   9.953   9.168
   53POPC   GL2 4958  26.830   9.567   9.067
   53POPC   C1A 4959  26.759  10.052   8.742
   53POPC   D2A 4960  26.828  10.015   8.256
   53POPC   C3A 4961  26.708   9.803   7.853
   53POPC   C4A 4962  26.730   9.922   7.386
   53POPC   C1B 4963  26.536   9.605   8.721
   53POPC   C2B 4964  26.720   9.518   8.299
   53POPC   C3B 4965  26.741   9.308   7.885
   53POPC   C4B 4966  26.530   9.460   7.483
   54POPC   NC3 4967   6.904  14.774   9.623
   54POPC   PO4 4968   6.567  15.310   9.502
   54POPC   GL1 4969   6.672  15.021   9.129
   54POPC   GL2 4970   6.976  14.802   9.104
   54POPC   C1A 4971   6.512  15.081   8.695
   54POPC   D2A 4972   6.615  15.082   8.234
   54POPC   C3A 4973   6.525  15.380   7.869
   54POPC   C4A 4974   6.486  15.414   7.399
   54POPC   C1B 4975   7.041  14.964   8.663
   54POPC   C2B 4976   7.104  14.971   8.208
   54POPC   C3B 4977   6.910  15.049   7.769
   54POPC   C4B 4978   6.867  14.804   7.356
   55POPC   NC3 4979  28.731  27.938   9.667
   55POPC   PO4 4980  29.273  27.566   9.625
   55POPC   GL1 4981  29.066  27.773   9.284
   55POPC   GL2 4982  28.751  27.690   9.202
   55POPC   C1A 4983  29.097  27.903   8.841
   55POPC   D2A 4984  29.198  28.054   8.424
   55POPC   C3A 4985  29.279  27.793   8.073
   55POPC   C4A 4986  28.905  27.826   7.889
   55POPC   C1B 4987  28.918  27.419   8.819
   55POPC   C2B 4988  29.023  27.425   8.331
   55POPC   C3B 4989  29.103  27.336   7.839
   55POPC   C4B 4990  28.860  27.173   7.447
   56POPC   NC3 4991  20.541  26.789   9.808
   56POPC   PO4 4992  21.056  27.033   9.863
   56POPC   GL1 4993  20.881  26.919   9.421
   56POPC   GL2 4994  20.678  26.597   9.344
   56POPC   C1A 4995  20.558  27.020   9.063
   56POPC   D2A 4996  20.448  26.951   8.604
   56POPC   C3A 4997  20.760  27.015   8.267
   56POPC   C4A 4998  20.737  26.997   7.793
   56POPC   C1B 4999  20.529  26.520   8.900
   56POPC   C2B 5000  20.396  26.429   8.480
   56POPC   C3B 5001  20.437  26.653   8.116
   56POPC   C4B 5002  20.548  26.527   7.718
   57POPC   NC3 5003  15.784   3.102   9.542
   57POPC   PO4 5004  16.128   2.584   9.686
   57POPC   GL1 5005  15.949   2.696   9.212
   57POPC   GL2 5006  15.847   2.986   9.065
   57POPC   C1A 5007  16.135   2.743   8.751
   57POPC   D2A 5008  16.008   2.569   8.358
   57POPC   C3A 5009  15.955   2.643   7.926
   57POPC   C4A 5010  15.975   2.782   7.522
   57POPC   C1B 5011  15.667   2.920   8.654
   57POPC   C2B 5012  15.700   2.978   8.205
   57POPC   C3B 5013  15.566   3.009   7.755
   57POPC   C4B 5014  15.585   3.177   7.321
   58POPC   NC3 5015  34.081   4.538   9.563
   58POPC   PO4 5016  33.554   4.176   9.676
   58POPC   GL1 5017  33.772   4.249   9.251
   58POPC   GL2 5018  33.795   4.603   9.133
   58POPC   C1A 5019  33.967   4.237   8.812
   58POPC   D2A 5020  33.806   4.293   8.404
   58POPC   C3A 5021  33.652   4.382   8.009
   58POPC   C4A 5022  33.402   4.156   7.718
   58POPC   C1B 5023  34.108   4.718   8.760
   58POPC   C2B 5024  34.287   4.544   8.377
   58POPC   C3B 5025  34.135   4.611   7.928
   58POPC   C4B 5026  33.959   4.354   7.597
   59POPC   NC3 5027  15.147  26.501   9.597
   59POPC   PO4 5028  14.951  25.907   9.494
   59POPC   GL1 5029  15.121  26.120   9.142
   59POPC   GL2 5030  14.984  26.443   9.106
   59POPC   C1A 5031  14.987  26.087   8.711
   59POPC   D2A 5032  15.230  25.924   8.378
   59POPC   C3A 5033  15.195  26.007   7.978
   59POPC   C4A 5034  15.463  25.842   7.671
   59POPC   C1B 5035  15.294  26.490   8.738
   59POPC   C2B 5036  15.526  26.400   8.323
   59POPC   C3B 5037  15.574  26.329   7.885
   59POPC   C4B 5038  15.182  26.447   7.745
   60POPC   NC3 5039  24.823  38.166   9.663
   60POPC   PO4 5040  24.176  38.228   9.732
   60POPC   GL1 5041  24.352  38.192   9.292
   60POPC   GL2 5042  24.707  38.337   9.194
   60POPC   C1A 5043  24.275  38.426   8.901
   60POPC   D2A 5044  24.261  38.396   8.444
   60POPC   C3A 5045  24.474  38.654   8.142
   60POPC   C4A 5046  24.660  38.691   7.745
   60POPC   C1B 5047  24.658  38.095   8.793
   60POPC   C2B 5048  24.594  37.982   8.343
   60POPC   C3B 5049  24.489  38.163   7.938
   60POPC   C4B 5050  24.754  38.189   7.547
   61POPC   NC3 5051  28.166   7.748   9.816
   61POPC   PO4 5052  28.538   7.319   9.544
   61POPC   GL1 5053  28.464   7.518   9.194
   61POPC   GL2 5054  28.224   7.781   9.301
   61POPC   C1A 5055  28.347   7.331   8.809
   61POPC   D2A 5056  28.317   7.518   8.407
   61POPC   C3A 5057  28.409   7.234   8.064
   61POPC   C4A 5058  28.431   7.405   7.664
   61POPC   C1B 5059  28.156   7.806   8.847
   61POPC   C2B 5060  27.861   7.766   8.483
   61POPC   C3B 5061  27.869   7.885   8.060
   61POPC   C4B 5062  28.049   7.746   7.677
   62POPC   NC3 5063  30.985   1.647   9.423
   62POPC   PO4 5064  30.799   2.346   9.579
   62POPC   GL1 5065  30.639   2.130   9.150
   62POPC   GL2 5066  30.635   1.801   9.097
   62POPC   C1A 5067  30.664   2.124   8.694
   62POPC   D2A 5068  30.411   2.051   8.340
   62POPC   C3A 5069  30.524   2.206   7.929
   62POPC   C4A 5070  30.987   2.137   7.818
   62POPC   C1B 5071  30.879   1.636   8.736
   62POPC   C2B 5072  30.917   1.794   8.332
   62POPC   C3B 5073  30.657   1.728   8.002
   62POPC   C4B 5074  30.691   1.816   7.565
   63POPC   NC3 5075  38.607  30.541   9.469
   63POPC   PO4 5076  38.063  30.891   9.422
   63POPC   GL1 5077  38.293  30.698   9.103
   63POPC   GL2 5078  38.261  30.318   9.143
   63POPC   C1A 5079  38.612  30.877   8.804
   63POPC   D2A 5080  38.719  31.078   8.406
   63POPC   C3A 5081  38.592  30.880   8.038
   63POPC   C4A 5082  38.489  30.882   7.637
   63POPC   C1B 5083  38.603  30.389   8.838
   63POPC   C2B 5084  38.597  30.540   8.412
   63POPC   C3B 5085  38.667  30.364   7.997
   63POPC   C4B 5086  38.631  30.398   7.542
   64POPC   NC3 5087   9.592  32.781   9.786
   64POPC   PO4 5088   9.981  33.204   9.523
   64POPC   GL1 5089   9.893  32.964   9.181
   64POPC   GL2 5090   9.545  33.002   9.123
   64POPC   C1A 5091   9.945  32.903   8.749
   64POPC   D2A 5092   9.720  32.982   8.343
   64POPC   C3A 5093   9.928  32.863   7.963
   64POPC   C4A 5094   9.977  33.208   7.697
   64POPC   C1B 5095   9.432  32.775   8.711
   64POPC   C2B 5096   9.421  32.580   8.256
   64POPC   C3B 5097   9.416  32.848   7.868
   64POPC   C4B 5098   9.483  33.163   7.511
   65POPC   NC3 5099   8.069   4.450   9.841
   65POPC   PO4 5100   8.069   4.022   9.315
   65POPC   GL1 5101   8.216   4.195   9.012
   65POPC   GL2 5102   8.231   4.505   9.168
   65POPC   C1A 5103   8.232   4.207   8.598
   65POPC   D2A 5104   8.099   4.465   8.312
   65POPC   C3A 5105   8.145   4.232   7.972
   65POPC   C4A 5106   8.077   3.920   7.718
   65POPC   C1B 5107   8.259   4.694   8.767
   65POPC   C2B 5108   8.400   4.863   8.367
   65POPC   C3B 5109   8.375   4.711   7.961
   65POPC   C4B 5110   8.029   4.627   7.688
   66POPC   NC3 5111   9.360   8.931   9.610
   66POPC   PO4 5112  10.006   8.882   9.505
   66POPC   GL1 5113   9.806   8.855   9.131
   66POPC   GL2 5114   9.456   8.969   9.097
   66POPC   C1A 5115   9.847   9.079   8.756
   66POPC   D2A 5116   9.598   9.073   8.414
   66POPC   C3A 5117   9.773   8.862   8.103
   66POPC   C4A 5118   9.938   8.758   7.712
   66POPC   C1B 5119   9.361   9.349   8.821
   66POPC   C2B 5120   9.293   9.494   8.357
   66POPC   C3B 5121   9.569   9.367   8.007
   66POPC   C4B 5122   9.534   9.077   7.678
   67POPC   NC3 5123  32.349  17.736   9.388
   67POPC   PO4 5124  31.946  17.220   9.573
   67POPC   GL1 5125  32.074  17.328   9.159
   67POPC   GL2 5126  31.928  17.634   9.120
   67POPC   C1A 5127  32.288  17.294   8.727
   67POPC   D2A 5128  32.371  17.630   8.398
   67POPC   C3A 5129  32.498  17.534   7.964
   67POPC   C4A 5130  32.366  17.770   7.630
   67POPC   C1B 5131  31.930  17.643   8.724
   67POPC   C2B 5132  31.837  17.452   8.354
   67POPC   C3B 5133  31.962  17.596   7.963
   67POPC   C4B 5134  31.883  17.912   7.685
   68POPC   NC3 5135  13.097  25.064   9.491
   68POPC   PO4 5136  12.585  25.466   9.422
   68POPC   GL1 5137  12.847  25.419   9.081
   68POPC   GL2 5138  13.128  25.199   9.016
   68POPC   C1A 5139  12.733  25.293   8.676
   68POPC   D2A 5140  12.807  25.147   8.287
   68POPC   C3A 5141  12.889  25.335   7.918
   68POPC   C4A 5142  12.688  25.280   7.540
   68POPC   C1B 5143  13.046  24.888   8.675
   68POPC   C2B 5144  13.181  24.783   8.276
   68POPC   C3B 5145  12.955  24.819   7.902
   68POPC   C4B 5146  12.973  24.875   7.479
   69POPC   NC3 5147  22.973   6.268   9.366
   69POPC   PO4 5148  23.254   6.818   9.424
   69POPC   GL1 5149  22.897   6.724   9.122
   69POPC   GL2 5150  23.178   6.540   8.980
   69POPC   C1A 5151  22.749   6.464   8.746
   69POPC   D2A 5152  22.917   6.226   8.390
   69POPC   C3A 5153  22.770   6.295   7.975
   69POPC   C4A 5154  22.762   6.734   7.800
   69POPC   C1B 5155  23.173   6.916   8.732
   69POPC   C2B 5156  23.307   6.813   8.327
   69POPC   C3B 5157  23.225   6.958   7.912
   69POPC   C4B 5158  23.113   6.990   7.430
   70POPC   NC3 5159   1.649   6.639   9.430
   70POPC   PO4 5160   1.006   6.889   9.392
   70POPC   GL1 5161   1.319   6.827   9.077
   70POPC   GL2 5162   1.334   6.490   9.020
   70POPC   C1A 5163   1.466   6.992   8.679
   70POPC   D2A 5164   1.247   6.924   8.239
   70POPC   C3A 5165   1.417   6.655   7.888
   70POPC   C4A 5166   1.487   6.810   7.363
   70POPC   C1B 5167   1.087   6.650   8.659
   70POPC   C2B 5168   0.936   6.450   8.289
   70POPC   C3B 5169   0.811   6.678   7.942
   70POPC   C4B 5170   1.033   6.685   7.577
   71POPC   NC3 5171  17.176  16.558   9.396
   71POPC   PO4 5172  16.546  16.703   9.521
   71POPC   GL1 5173  16.822  16.891   9.241
   71POPC   GL2 5174  16.803  16.581   9.034
   71POPC   C1A 5175  16.775  17.043   8.830
   71POPC   D2A 5176  16.782  16.853   8.403
   71POPC   C3A 5177  16.769  17.080   8.010
   71POPC   C4A 5178  16.573  17.104   7.601
   71POPC   C1B 5179  16.403  16.439   8.820
   71POPC   C2B 5180  16.389  16.185   8.438
   71POPC   C3B 5181  16.628  16.239   8.069
   71POPC   C4B 5182  16.581  16.634   7.850
   72POPC   NC3 5183  25.278  34.943   9.834
   72POPC   PO4 5184  25.299  35.563   9.487
   72POPC   GL1 5185  25.332  35.654   9.101
   72POPC   GL2 5186  25.187  35.356   8.907
   72POPC   C1A 5187  25.453  35.727   8.701
   72POPC   D2A 5188  25.226  35.522   8.368
   72POPC   C3A 5189  25.439  35.604   7.957
   72POPC   C4A 5190  25.499  35.309   7.613
   72POPC   C1B 5191  25.310  34.971   8.708
   72POPC   C2B 5192  25.378  35.043   8.271
   72POPC   C3B 5193  25.121  35.213   7.932
   72POPC   C4B 5194  25.180  34.915   7.566
   73POPC   NC3 5195  13.806   9.344   9.391
   73POPC   PO4 5196  13.232   9.132   9.394
   73POPC   GL1 5197  13.411   8.892   9.077
   73POPC   GL2 5198  13.691   9.071   8.968
   73POPC   C1A 5199  13.464   8.735   8.652
   73POPC   D2A 5200  13.839   8.756   8.388
   73POPC   C3A 5201  13.875   9.096   8.064
   73POPC   C4A 5202  13.608   9.004   7.724
   73POPC   C1B 5203  13.691   9.226   8.545
   73POPC   C2B 5204  13.530   9.466   8.196
   73POPC   C3B 5205  13.606   9.516   7.769
   73POPC   C4B 5206  13.819   9.780   7.447
   74POPC   NC3 5207  13.739  36.489   9.574
   74POPC   PO4 5208  13.321  36.922   9.446
   74POPC   GL1 5209  13.468  36.625   9.148
   74POPC   GL2 5210  13.824  36.470   9.076
   74POPC   C1A 5211  13.487  36.705   8.734
   74POPC   D2A 5212  13.447  36.970   8.396
   74POPC   C3A 5213  13.479  36.740   8.033
   74POPC   C4A 5214  13.316  36.840   7.663
   74POPC   C1B 5215  13.995  36.719   8.774
   74POPC   C2B 5216  13.920  36.787   8.353
   74POPC   C3B 5217  13.832  37.109   8.050
   74POPC   C4B 5218  13.833  36.904   7.674
   75POPC   NC3 5219  38.778  21.656   9.640
   75POPC   PO4 5220  39.194  21.154   9.653
   75POPC   GL1 5221  39.196  21.447   9.310
   75POPC   GL2 5222  39.244  21.167   9.126
   75POPC   C1A 5223  39.323  21.559   8.838
   75POPC   D2A 5224  39.379  21.312   8.442
   75POPC   C3A 5225  39.285  21.557   8.084
   75POPC   C4A 5226  39.125  21.643   7.677
   75POPC   C1B 5227  38.941  20.979   8.874
   75POPC   C2B 5228  39.086  20.894   8.504
   75POPC   C3B 5229  39.021  21.109   8.119
   75POPC   C4B 5230  39.287  21.133   7.774
   76POPC   NC3 5231   5.428   5.888   9.552
   76POPC   PO4 5232   6.042   6.047   9.401
   76POPC   GL1 5233   5.676   6.046   9.104
   76POPC   GL2 5234   5.468   5.792   9.069
   76POPC   C1A 5235   5.732   6.122   8.690
   76POPC   D2A 5236   6.077   6.111   8.403
   76POPC   C3A 5237   5.852   6.189   8.034
   76POPC   C4A 5238   6.048   6.149   7.650
   76POPC   C1B 5239   5.536   5.652   8.684
   76POPC   C2B 5240   5.769   5.715   8.288
   76POPC   C3B 5241   6.074   5.717   7.934
   76POPC   C4B 5242   5.972   5.694   7.475
   77POPC   NC3 5243   5.631  21.827   9.491
   77POPC   PO4 5244   6.210  22.137   9.420
   77POPC   GL1 5245   5.843  22.274   9.194
   77POPC   GL2 5246   5.721  21.975   9.030
   77POPC   C1A 5247   5.918  22.413   8.783
   77POPC   D2A 5248   6.192  22.403   8.409
   77POPC   C3A 5249   6.002  22.420   7.989
   77POPC   C4A 5250   5.908  22.256   7.534
   77POPC   C1B 5251   5.799  21.936   8.624
   77POPC   C2B 5252   5.846  22.013   8.220
   77POPC   C3B 5253   5.785  21.856   7.818
   77POPC   C4B 5254   5.790  21.797   7.343
   78POPC   NC3 5255   8.729  20.885   9.427
   78POPC   PO4 5256   9.146  20.388   9.585
   78POPC   GL1 5257   9.240  20.455   9.158
   78POPC   GL2 5258   9.110  20.781   9.110
   78POPC   C1A 5259   8.997  20.476   8.732
   78POPC   D2A 5260   8.795  20.401   8.349
   78POPC   C3A 5261   9.002  20.356   7.945
   78POPC   C4A 5262   8.920  20.282   7.517
   78POPC   C1B 5263   8.867  20.995   8.773
   78POPC   C2B 5264   8.822  20.970   8.340
   78POPC   C3B 5265   8.639  20.742   8.029
   78POPC   C4B 5266   8.683  20.720   7.637
   79POPC   NC3 5267  28.112  42.652   9.561
   79POPC   PO4 5268  27.509  42.217   9.411
   79POPC   GL1 5269  27.867  42.270   9.181
   79POPC   GL2 5270  27.771  42.593   9.196
   79POPC   C1A 5271  27.840  42.105   8.759
   79POPC   D2A 5272  27.671  42.113   8.338
   79POPC   C3A 5273  27.946  42.212   7.973
   79POPC   C4A 5274  27.740  42.266   7.578
   79POPC   C1B 5275  27.535  42.530   8.839
   79POPC   C2B 5276  27.408  42.642   8.462
   79POPC   C3B 5277  27.601  42.568   8.082
   79POPC   C4B 5278  27.444  42.666   7.703
   80POPC   NC3 5279  44.227  15.354   9.595
   80POPC   PO4 5280  43.550  15.163   9.558
   80POPC   GL1 5281  43.805  15.433   9.284
   80POPC   GL2 5282  44.032  15.149   9.167
   80POPC   C1A 5283  43.744  15.458   8.838
   80POPC   D2A 5284  43.833  15.140   8.520
   80POPC   C3A 5285  43.723  15.243   8.093
   80POPC   C4A 5286  43.769  15.264   7.660
   80POPC   C1B 5287  44.253  15.320   8.809
   80POPC   C2B 5288  44.341  15.190   8.376
   80POPC   C3B 5289  44.232  15.271   7.918
   80POPC   C4B 5290  44.158  14.961   7.563
   81POPC   NC3 5291   3.385   4.088   9.395
   81POPC   PO4 5292   3.961   4.505   9.408
   81POPC   GL1 5293   3.593   4.511   9.177
   81POPC   GL2 5294   3.721   4.221   9.033
   81POPC   C1A 5295   3.325   4.498   8.806
   81POPC   D2A 5296   3.478   4.567   8.350
   81POPC   C3A 5297   3.355   4.259   8.020
   81POPC   C4A 5298   3.170   4.422   7.644
   81POPC   C1B 5299   3.846   4.438   8.683
   81POPC   C2B 5300   3.905   4.237   8.284
   81POPC   C3B 5301   3.925   4.300   7.856
   81POPC   C4B 5302   3.654   4.302   7.508
   82POPC   NC3 5303  10.814   7.660   9.454
   82POPC   PO4 5304  11.344   7.317   9.511
   82POPC   GL1 5305  11.346   7.329   9.103
   82POPC   GL2 5306  10.978   7.275   9.097
   82POPC   C1A 5307  11.349   7.174   8.682
   82POPC   D2A 5308  11.181   7.064   8.264
   82POPC   C3A 5309  11.414   7.286   7.965
   82POPC   C4A 5310  11.612   7.723   7.867
   82POPC   C1B 5311  11.073   7.663   8.840
   82POPC   C2B 5312  11.133   7.564   8.415
   82POPC   C3B 5313  11.126   7.763   8.040
   82POPC   C4B 5314  11.175   7.622   7.660
   83POPC   NC3 5315  16.126  34.323   9.645
   83POPC   PO4 5316  15.546  34.615   9.651
   83POPC   GL1 5317  15.661  34.484   9.271
   83POPC   GL2 5318  15.776  34.810   9.179
   83POPC   C1A 5319  15.840  34.378   8.890
   83POPC   D2A 5320  15.743  34.326   8.455
   83POPC   C3A 5321  16.055  34.472   8.126
   83POPC   C4A 5322  16.088  34.674   7.718
   83POPC   C1B 5323  15.563  34.850   8.786
   83POPC   C2B 5324  15.682  34.936   8.342
   83POPC   C3B 5325  15.597  34.885   7.888
   83POPC   C4B 5326  15.632  34.647   7.476
   84POPC   NC3 5327  26.653  21.090   9.480
   84POPC   PO4 5328  27.034  21.576   9.330
   84POPC   GL1 5329  26.836  21.318   9.068
   84POPC   GL2 5330  26.615  21.529   8.916
   84POPC   C1A 5331  26.708  21.059   8.753
   84POPC   D2A 5332  26.702  21.351   8.428
   84POPC   C3A 5333  26.581  21.189   8.086
   84POPC   C4A 5334  26.664  21.152   7.703
   84POPC   C1B 5335  26.987  21.704   8.687
   84POPC   C2B 5336  27.200  21.546   8.309
   84POPC   C3B 5337  26.940  21.544   7.962
   84POPC   C4B 5338  26.730  21.933   7.859
   85POPC   NC3 5339  41.324   9.335   9.573
   85POPC   PO4 5340  41.664   8.865   9.249
   85POPC   GL1 5341  41.440   9.090   9.010
   85POPC   GL2 5342  41.221   8.837   8.947
   85POPC   C1A 5343  41.533   9.125   8.577
   85POPC   D2A 5344  41.844   8.932   8.304
   85POPC   C3A 5345  41.694   8.948   7.901
   85POPC   C4A 5346  41.441   9.231   7.675
   85POPC   C1B 5347  41.488   8.613   8.670
   85POPC   C2B 5348  41.431   8.607   8.257
   85POPC   C3B 5349  41.203   8.865   8.010
   85POPC   C4B 5350  41.276   8.752   7.633
   86POPC   NC3 5351  41.644  25.131   9.546
   86POPC   PO4 5352  41.666  25.711   9.232
   86POPC   GL1 5353  41.535  25.304   9.073
   86POPC   GL2 5354  41.854  25.078   9.093
   86POPC   C1A 5355  41.377  25.117   8.673
   86POPC   D2A 5356  41.266  25.328   8.280
   86POPC   C3A 5357  41.277  25.079   7.912
   86POPC   C4A 5358  41.433  24.822   7.592
   86POPC   C1B 5359  41.890  25.227   8.689
   86POPC   C2B 5360  41.925  25.107   8.273
   86POPC   C3B 5361  41.713  25.385   8.016
   86POPC   C4B 5362  41.839  25.777   7.888
   87POPC   NC3 5363  37.128  21.845   9.453
   87POPC   PO4 5364  36.881  22.536   9.464
   87POPC   GL1 5365  36.997  22.392   9.091
   87POPC   GL2 5366  36.851  22.063   9.090
   87POPC   C1A 5367  37.186  22.266   8.723
   87POPC   D2A 5368  36.986  22.157   8.373
   87POPC   C3A 5369  37.124  22.306   7.989
   87POPC   C4A 5370  36.780  22.301   7.731
   87POPC   C1B 5371  36.630  21.979   8.720
   87POPC   C2B 5372  36.489  22.002   8.270
   87POPC   C3B 5373  36.583  21.855   7.849
   87POPC   C4B 5374  36.384  21.593   7.531
   88POPC   NC3 5375  22.928  31.095   9.611
   88POPC   PO4 5376  23.348  30.508   9.467
   88POPC   GL1 5377  23.053  30.620   9.120
   88POPC   GL2 5378  22.795  30.871   9.174
   88POPC   C1A 5379  23.002  30.753   8.707
   88POPC   D2A 5380  22.799  30.663   8.354
   88POPC   C3A 5381  23.038  30.743   8.012
   88POPC   C4A 5382  23.047  30.379   7.817
   88POPC   C1B 5383  22.523  30.840   8.808
   88POPC   C2B 5384  22.418  31.032   8.436
   88POPC   C3B 5385  22.489  30.894   8.010
   88POPC   C4B 5386  22.713  30.829   7.604
   89POPC   NC3 5387   6.074  26.087   9.500
   89POPC   PO4 5388   5.551  25.740   9.264
   89POPC   GL1 5389   5.893  25.952   9.040
   89POPC   GL2 5390   5.831  26.298   9.115
   89POPC   C1A 5391   5.843  25.907   8.621
   89POPC   D2A 5392   5.427  25.919   8.407
   89POPC   C3A 5393   5.541  25.957   7.981
   89POPC   C4A 5394   5.887  25.746   7.841
   89POPC   C1B 5395   6.070  26.375   8.751
   89POPC   C2B 5396   6.138  26.233   8.348
   89POPC   C3B 5397   6.195  26.182   7.945
   89POPC   C4B 5398   6.239  26.456   7.625
   90POPC   NC3 5399  35.350   3.267   9.441
   90POPC   PO4 5400  35.101   3.884   9.546
   90POPC   GL1 5401  35.200   3.655   9.145
   90POPC   GL2 5402  35.575   3.557   9.083
   90POPC   C1A 5403  35.229   3.494   8.713
   90POPC   D2A 5404  35.343   3.476   8.296
   90POPC   C3A 5405  35.013   3.448   7.999
   90POPC   C4A 5406  35.007   3.334   7.591
   90POPC   C1B 5407  35.721   3.262   8.755
   90POPC   C2B 5408  35.921   3.314   8.367
   90POPC   C3B 5409  35.726   3.334   7.989
   90POPC   C4B 5410  35.461   3.529   7.729
   91POPC   NC3 5411   4.328  11.279   9.767
   91POPC   PO4 5412   4.525  10.689   9.431
   91POPC   GL1 5413   4.324  10.466   9.120
   91POPC   GL2 5414   4.079  10.726   9.134
   91POPC   C1A 5415   4.310  10.582   8.681
   91POPC   D2A 5416   4.391  10.921   8.402
   91POPC   C3A 5417   4.384  10.737   8.002
   91POPC   C4A 5418   4.366  10.360   7.760
   91POPC   C1B 5419   4.044  11.016   8.816
   91POPC   C2B 5420   3.882  10.795   8.483
   91POPC   C3B 5421   3.882  10.825   8.076
   91POPC   C4B 5422   3.963  10.662   7.703
   92POPC   NC3 5423   9.822  24.775   9.296
   92POPC   PO4 5424  10.256  24.394   9.647
   92POPC   GL1 5425  10.186  24.416   9.179
   92POPC   GL2 5426  10.244  24.695   8.896
   92POPC   C1A 5427   9.897  24.344   8.794
   92POPC   D2A 5428  10.055  24.485   8.365
   92POPC   C3A 5429  10.041  24.223   8.017
   92POPC   C4A 5430   9.708  23.947   7.884
   92POPC   C1B 5431   9.857  24.849   8.660
   92POPC   C2B 5432   9.531  24.568   8.509
   92POPC   C3B 5433   9.475  24.365   8.101
   92POPC   C4B 5434   9.687  24.430   7.701
   93POPC   NC3 5435  40.530  35.395   9.512
   93POPC   PO4 5436  41.168  35.225   9.404
   93POPC   GL1 5437  40.875  35.466   9.109
   93POPC   GL2 5438  40.486  35.401   9.025
   93POPC   C1A 5439  40.809  35.508   8.643
   93POPC   D2A 5440  40.729  35.320   8.223
   93POPC   C3A 5441  40.970  35.350   7.835
   93POPC   C4A 5442  40.950  35.646   7.510
   93POPC   C1B 5443  40.306  35.604   8.685
   93POPC   C2B 5444  40.414  35.748   8.286
   93POPC   C3B 5445  40.596  35.718   7.877
   93POPC   C4B 5446  40.424  35.516   7.512
   94POPC   NC3 5447  21.688  11.522   9.256
   94POPC   PO4 5448  22.282  11.352   9.630
   94POPC   GL1 5449  22.294  11.452   9.165
   94POPC   GL2 5450  22.606  11.621   9.022
   94POPC   C1A 5451  22.082  11.307   8.773
   94POPC   D2A 5452  22.067  11.492   8.370
   94POPC   C3A 5453  22.190  11.264   8.039
   94POPC   C4A 5454  22.008  11.483   7.704
   94POPC   C1B 5455  22.477  11.606   8.667
   94POPC   C2B 5456  22.599  11.432   8.317
   94POPC   C3B 5457  22.472  11.699   8.009
   94POPC   C4B 5458  22.532  11.541   7.657
   95POPC   NC3 5459   6.052  14.226   9.562
   95POPC   PO4 5460   5.318  14.229   9.357
   95POPC   GL1 5461   5.594  14.417   9.068
   95POPC   GL2 5462   5.980  14.398   9.086
   95POPC   C1A 5463   5.691  14.250   8.689
   95POPC   D2A 5464   5.636  14.397   8.297
   95POPC   C3A 5465   5.554  14.336   7.870
   95POPC   C4A 5466   5.677  14.526   7.493
   95POPC   C1B 5467   6.167  14.674   8.811
   95POPC   C2B 5468   6.255  14.747   8.399
   95POPC   C3B 5469   6.030  14.574   8.042
   95POPC   C4B 5470   6.160  14.494   7.667
   96POPC   NC3 5471  11.811  30.516   9.611
   96POPC   PO4 5472  12.393  30.805   9.457
   96POPC   GL1 5473  12.155  30.921   9.138
   96POPC   GL2 5474  11.868  30.725   9.125
   96POPC   C1A 5475  12.138  30.885   8.706
   96POPC   D2A 5476  11.931  30.744   8.390
   96POPC   C3A 5477  12.154  30.842   8.064
   96POPC   C4A 5478  12.136  30.703   7.674
   96POPC   C1B 5479  11.926  30.411   8.794
   96POPC   C2B 5480  12.076  30.267   8.404
   96POPC   C3B 5481  11.925  30.303   7.963
   96POPC   C4B 5482  12.148  30.204   7.553
   97POPC   NC3 5483   9.273  18.528   9.629
   97POPC   PO4 5484   9.797  18.041   9.520
   97POPC   GL1 5485   9.616  18.242   9.104
   97POPC   GL2 5486   9.891  18.418   9.033
   97POPC   C1A 5487   9.585  18.380   8.618
   97POPC   D2A 5488   9.551  18.420   8.139
   97POPC   C3A 5489   9.701  18.045   7.852
   97POPC   C4A 5490   9.742  17.846   7.382
   97POPC   C1B 5491  10.100  18.300   8.619
   97POPC   C2B 5492  10.070  18.457   8.184
   97POPC   C3B 5493   9.856  18.633   7.806
   97POPC   C4B 5494   9.761  18.353   7.457
   98POPC   NC3 5495  30.464  40.277   9.441
   98POPC   PO4 5496  31.012  39.847   9.533
   98POPC   GL1 5497  30.753  39.850   9.190
   98POPC   GL2 5498  30.436  39.728   9.283
   98POPC   C1A 5499  30.694  40.099   8.806
   98POPC   D2A 5500  30.859  40.369   8.489
   98POPC   C3A 5501  30.681  40.231   8.123
   98POPC   C4A 5502  30.286  40.246   7.938
   98POPC   C1B 5503  30.329  39.738   8.862
   98POPC   C2B 5504  30.544  39.610   8.490
   98POPC   C3B 5505  30.503  39.733   8.061
   98POPC   C4B 5506  30.884  39.684   7.821
   99POPC   NC3 5507   4.891  10.568   9.673
   99POPC   PO4 5508   5.481  10.413   9.773
   99POPC   GL1 5509   5.223  10.413   9.314
   99POPC   GL2 5510   4.868  10.389   9.176
   99POPC   C1A 5511   5.271  10.430   8.842
   99POPC   D2A 5512   5.236  10.789   8.549
   99POPC   C3A 5513   5.254  10.767   8.122
   99POPC   C4A 5514   5.385  10.416   7.936
   99POPC   C1B 5515   4.799  10.641   8.811
   99POPC   C2B 5516   4.800  10.634   8.345
   99POPC   C3B 5517   4.834  10.378   7.966
   99POPC   C4B 5518   4.960  10.114   7.617
  100POPC   NC3 5519  17.155   2.160   9.520
  100POPC   PO4 5520  17.838   2.255   9.388
  100POPC   GL1 5521  17.726   2.021   9.025
  100POPC   GL2 5522  17.439   1.992   9.148
  100POPC   C1A 5523  17.706   1.870   8.620
  100POPC   D2A 5524  17.658   2.129   8.267
  100POPC   C3A 5525  17.635   2.084   7.840
  100POPC   C4A 5526  17.732   1.721   7.609
  100POPC   C1B 5527  17.225   1.836   8.852
  100POPC   C2B 5528  17.207   1.774   8.443
  100POPC   C3B 5529  17.391   1.694   8.066
  100POPC   C4B 5530  17.213   1.815   7.680
  101POPC   NC3 5531  35.859  17.679   9.979
  101POPC   PO4 5532  36.253  17.616   9.431
  101POPC   GL1 5533  35.883  17.489   9.141
  101POPC   GL2 5534  35.765  17.730   8.942
  101POPC   C1A 5535  35.888  17.254   8.778
  101POPC   D2A 5536  36.051  17.333   8.369
  101POPC   C3A 5537  35.883  17.516   7.993
  101POPC   C4A 5538  36.060  17.506   7.558
  101POPC   C1B 5539  36.217  17.678   8.774
  101POPC   C2B 5540  36.411  17.736   8.363
  101POPC   C3B 5541  36.402  17.686   7.894
  101POPC   C4B 5542  36.357  17.949   7.487
  102POPC   NC3 5543  14.993  32.985   9.641
  102POPC   PO4 5544  15.452  32.491   9.840
  102POPC   GL1 5545  15.389  32.732   9.357
  102POPC   GL2 5546  15.052  32.890   9.158
  102POPC   C1A 5547  15.430  32.787   8.865
  102POPC   D2A 5548  15.555  33.123   8.569
  102POPC   C3A 5549  15.436  33.073   8.145
  102POPC   C4A 5550  15.342  32.893   7.739
  102POPC   C1B 5551  15.071  33.139   8.809
  102POPC   C2B 5552  15.079  32.881   8.458
  102POPC   C3B 5553  14.928  33.016   8.057
  102POPC   C4B 5554  14.978  33.292   7.703
  103POPC   NC3 5555  44.151  17.967   9.473
  103POPC   PO4 5556  44.000  18.628   9.502
  103POPC   GL1 5557  44.089  18.361   9.150
  103POPC   GL2 5558  43.775  18.164   9.114
  103POPC   C1A 5559  44.090  18.177   8.744
  103POPC   D2A 5560  43.895  18.352   8.407
  103POPC   C3A 5561  44.013  18.117   8.063
  103POPC   C4A 5562  44.005  18.205   7.643
  103POPC   C1B 5563  43.592  17.977   8.739
  103POPC   C2B 5564  43.515  18.036   8.271
  103POPC   C3B 5565  43.514  18.162   7.824
  103POPC   C4B 5566  43.473  17.916   7.433
  104POPC   NC3 5567  23.920   8.605   9.485
  104POPC   PO4 5568  23.355   8.381   9.642
  104POPC   GL1 5569  23.479   8.296   9.203
  104POPC   GL2 5570  23.226   8.068   9.156
  104POPC   C1A 5571  23.754   8.291   8.813
  104POPC   D2A 5572  24.004   8.040   8.459
  104POPC   C3A 5573  23.863   8.153   8.008
  104POPC   C4A 5574  23.654   8.556   7.889
  104POPC   C1B 5575  23.337   7.950   8.759
  104POPC   C2B 5576  23.504   8.161   8.409
  104POPC   C3B 5577  23.357   8.086   8.075
  104POPC   C4B 5578  23.388   8.145   7.691
  105POPC   NC3 5579  16.468   5.459   9.399
  105POPC   PO4 5580  16.749   4.789   9.422
  105POPC   GL1 5581  16.715   5.092   9.134
  105POPC   GL2 5582  16.931   5.409   9.137
  105POPC   C1A 5583  16.405   5.146   8.816
  105POPC   D2A 5584  16.303   4.981   8.449
  105POPC   C3A 5585  16.606   5.077   8.130
  105POPC   C4A 5586  16.762   5.154   7.696
  105POPC   C1B 5587  16.913   5.206   8.701
  105POPC   C2B 5588  16.883   5.446   8.333
  105POPC   C3B 5589  17.158   5.397   8.027
  105POPC   C4B 5590  17.224   5.297   7.585
  106POPC   NC3 5591  41.417  34.867   9.576
  106POPC   PO4 5592  42.023  34.703   9.343
  106POPC   GL1 5593  41.617  34.563   9.216
  106POPC   GL2 5594  41.632  34.211   9.270
  106POPC   C1A 5595  41.400  34.493   8.825
  106POPC   D2A 5596  41.493  34.693   8.418
  106POPC   C3A 5597  41.369  34.587   7.975
  106POPC   C4A 5598  41.178  34.893   7.687
  106POPC   C1B 5599  41.854  34.250   8.880
  106POPC   C2B 5600  41.949  34.472   8.567
  106POPC   C3B 5601  41.877  34.471   8.136
  106POPC   C4B 5602  41.793  34.362   7.721
  107POPC   NC3 5603  43.389   9.676   9.557
  107POPC   PO4 5604  42.720   9.778   9.698
  107POPC   GL1 5605  42.902   9.766   9.268
  107POPC   GL2 5606  43.113  10.077   9.199
  107POPC   C1A 5607  42.720   9.785   8.843
  107POPC   D2A 5608  42.904   9.927   8.447
  107POPC   C3A 5609  42.755   9.901   8.056
  107POPC   C4A 5610  42.916  10.029   7.673
  107POPC   C1B 5611  43.230   9.856   8.818
  107POPC   C2B 5612  43.402   9.803   8.388
  107POPC   C3B 5613  43.324   9.830   7.949
  107POPC   C4B 5614  43.298   9.718   7.538
  108POPC   NC3 5615  39.035   7.031   9.489
  108POPC   PO4 5616  39.495   7.505   9.441
  108POPC   GL1 5617  39.406   7.251   9.060
  108POPC   GL2 5618  39.042   7.323   9.068
  108POPC   C1A 5619  39.570   7.302   8.605
  108POPC   D2A 5620  39.700   7.644   8.296
  108POPC   C3A 5621  39.342   7.698   8.067
  108POPC   C4A 5622  39.368   7.471   7.698
  108POPC   C1B 5623  39.022   7.238   8.643
  108POPC   C2B 5624  38.925   7.366   8.222
  108POPC   C3B 5625  38.934   7.102   7.855
  108POPC   C4B 5626  38.889   7.195   7.417
  109POPC   NC3 5627  26.904  32.556   9.871
  109POPC   PO4 5628  27.101  32.047   9.622
  109POPC   GL1 5629  26.884  32.281   9.277
  109POPC   GL2 5630  26.903  31.989   9.046
  109POPC   C1A 5631  26.650  32.406   8.890
  109POPC   D2A 5632  26.559  32.311   8.449
  109POPC   C3A 5633  26.653  32.173   8.024
  109POPC   C4A 5634  26.876  32.190   7.612
  109POPC   C1B 5635  27.062  32.248   8.671
  109POPC   C2B 5636  27.106  32.332   8.225
  109POPC   C3B 5637  27.330  32.250   7.820
  109POPC   C4B 5638  27.386  32.164   7.359
  110POPC   NC3 5639  24.402  20.904   9.486
  110POPC   PO4 5640  24.193  20.323   9.403
  110POPC   GL1 5641  24.466  20.557   9.064
  110POPC   GL2 5642  24.656  20.895   9.026
  110POPC   C1A 5643  24.521  20.433   8.647
  110POPC   D2A 5644  24.547  20.111   8.330
  110POPC   C3A 5645  24.382  20.300   7.953
  110POPC   C4A 5646  24.475  20.471   7.514
  110POPC   C1B 5647  24.451  20.966   8.649
  110POPC   C2B 5648  24.524  20.769   8.248
  110POPC   C3B 5649  24.336  20.815   7.863
  110POPC   C4B 5650  24.658  20.962   7.581
  111POPC   NC3 5651  41.495   1.024   9.497
  111POPC   PO4 5652  41.611   1.717   9.456
  111POPC   GL1 5653  41.510   1.446   9.138
  111POPC   GL2 5654  41.792   1.225   9.141
  111POPC   C1A 5655  41.523   1.351   8.699
  111POPC   D2A 5656  41.677   1.115   8.358
  111POPC   C3A 5657  41.509   1.220   7.962
  111POPC   C4A 5658  41.464   1.651   7.820
  111POPC   C1B 5659  41.972   1.047   8.787
  111POPC   C2B 5660  42.002   0.729   8.476
  111POPC   C3B 5661  41.875   0.781   8.011
  111POPC   C4B 5662  41.899   1.088   7.676
  112POPC   NC3 5663  18.380  18.598   9.438
  112POPC   PO4 5664  17.926  18.299   9.868
  112POPC   GL1 5665  18.089  18.152   9.380
  112POPC   GL2 5666  18.453  18.045   9.297
  112POPC   C1A 5667  18.120  18.277   8.897
  112POPC   D2A 5668  18.324  18.481   8.567
  112POPC   C3A 5669  18.232  18.427   8.144
  112POPC   C4A 5670  18.483  18.512   7.808
  112POPC   C1B 5671  18.294  17.810   8.918
  112POPC   C2B 5672  18.187  17.949   8.488
  112POPC   C3B 5673  18.330  17.946   8.070
  112POPC   C4B 5674  18.187  18.133   7.673
  113POPC   NC3 5675  14.646  13.229   9.376
  113POPC   PO4 5676  14.191  12.718   9.399
  113POPC   GL1 5677  14.387  12.877   9.068
  113POPC   GL2 5678  14.654  12.713   9.156
  113POPC   C1A 5679  14.385  12.978   8.649
  113POPC   D2A 5680  14.158  12.854   8.258
  113POPC   C3A 5681  14.321  13.014   7.881
  113POPC   C4A 5682  14.439  12.942   7.448
  113POPC   C1B 5683  14.634  12.532   8.757
  113POPC   C2B 5684  14.648  12.699   8.339
  113POPC   C3B 5685  14.612  12.599   7.923
  113POPC   C4B 5686  14.821  12.350   7.682
  114POPC   NC3 5687  19.652  17.518  10.081
  114POPC   PO4 5688  20.134  17.740   9.702
  114POPC   GL1 5689  20.030  17.503   9.318
  114POPC   GL2 5690  19.699  17.489   9.205
  114POPC   C1A 5691  20.073  17.457   8.849
  114POPC   D2A 5692  19.835  17.468   8.457
  114POPC   C3A 5693  20.075  17.401   8.083
  114POPC   C4A 5694  20.316  17.509   7.697
  114POPC   C1B 5695  19.471  17.625   8.842
  114POPC   C2B 5696  19.476  17.831   8.437
  114POPC   C3B 5697  19.570  17.655   8.022
  114POPC   C4B 5698  19.809  17.517   7.649
  115POPC   NC3 5699  19.215  15.518   9.568
  115POPC   PO4 5700  18.730  15.047   9.479
  115POPC   GL1 5701  18.833  15.364   9.167
  115POPC   GL2 5702  19.086  15.207   9.121
  115POPC   C1A 5703  18.750  15.316   8.718
  115POPC   D2A 5704  18.933  15.124   8.323
  115POPC   C3A 5705  18.620  15.112   7.985
  115POPC   C4A 5706  18.646  15.327   7.587
  115POPC   C1B 5707  19.284  15.210   8.735
  115POPC   C2B 5708  19.426  14.890   8.438
  115POPC   C3B 5709  19.336  14.801   8.016
  115POPC   C4B 5710  19.104  15.076   7.744
  116POPC   NC3 5711   6.331  44.211   9.473
  116POPC   PO4 5712   5.728  44.611   9.497
  116POPC   GL1 5713   5.757  44.655   9.103
  116POPC   GL2 5714   6.059  44.439   9.125
  116POPC   C1A 5715   6.009  44.810   8.781
  116POPC   D2A 5716   6.208  44.920   8.425
  116POPC   C3A 5717   6.033  44.831   8.042
  116POPC   C4A 5718   5.847   0.030   7.728
  116POPC   C1B 5719   5.857  44.287   8.774
  116POPC   C2B 5720   5.826  44.508   8.407
  116POPC   C3B 5721   5.845  44.362   7.977
  116POPC   C4B 5722   5.859  44.331   7.536
  117POPC   NC3 5723   1.819  15.207   9.565
  117POPC   PO4 5724   2.283  15.619   9.321
  117POPC   GL1 5725   1.992  15.397   9.122
  117POPC   GL2 5726   1.989  15.014   9.107
  117POPC   C1A 5727   1.804  15.343   8.768
  117POPC   D2A 5728   1.696  15.070   8.493
  117POPC   C3A 5729   1.697  15.390   8.193
  117POPC   C4A 5730   1.853  15.306   7.805
  117POPC   C1B 5731   2.282  14.869   8.780
  117POPC   C2B 5732   2.349  14.796   8.352
  117POPC   C3B 5733   1.962  14.843   8.098
  117POPC   C4B 5734   1.929  14.809   7.677
  118POPC   NC3 5735   8.999  22.545   9.401
  118POPC   PO4 5736   8.736  23.243   9.593
  118POPC   GL1 5737   8.910  23.009   9.223
  118POPC   GL2 5738   8.644  22.715   9.100
  118POPC   C1A 5739   9.143  22.925   8.846
  118POPC   D2A 5740   9.012  22.960   8.425
  118POPC   C3A 5741   9.253  23.013   8.061
  118POPC   C4A 5742   9.156  23.224   7.662
  118POPC   C1B 5743   8.844  22.529   8.707
  118POPC   C2B 5744   8.730  22.570   8.279
  118POPC   C3B 5745   8.725  22.815   7.913
  118POPC   C4B 5746   8.984  22.744   7.586
  119POPC   NC3 5747  36.919  37.051   9.537
  119POPC   PO4 5748  36.368  36.609   9.443
  119POPC   GL1 5749  36.803  36.631   9.172
  119POPC   GL2 5750  37.015  36.942   9.063
  119POPC   C1A 5751  36.873  36.625   8.705
  119POPC   D2A 5752  36.575  36.646   8.350
  119POPC   C3A 5753  36.741  36.763   7.984
  119POPC   C4A 5754  37.184  36.831   7.858
  119POPC   C1B 5755  36.819  37.141   8.717
  119POPC   C2B 5756  36.975  37.077   8.324
  119POPC   C3B 5757  36.880  37.243   7.942
  119POPC   C4B 5758  37.088  37.270   7.579
  120POPC   NC3 5759  38.107  21.646   9.507
  120POPC   PO4 5760  37.834  21.001   9.515
  120POPC   GL1 5761  37.919  21.309   9.150
  120POPC   GL2 5762  37.915  21.713   9.052
  120POPC   C1A 5763  37.927  21.326   8.700
  120POPC   D2A 5764  37.890  21.614   8.334
  120POPC   C3A 5765  37.834  21.402   7.944
  120POPC   C4A 5766  37.981  21.148   7.599
  120POPC   C1B 5767  37.575  21.716   8.754
  120POPC   C2B 5768  37.442  21.919   8.357
  120POPC   C3B 5769  37.553  21.820   7.927
  120POPC   C4B 5770  37.390  21.465   7.681
  121POPC   NC3 5771  22.082   0.833   9.613
  121POPC   PO4 5772  22.499   0.308   9.595
  121POPC   GL1 5773  22.356   0.558   9.253
  121POPC   GL2 5774  22.532   0.896   9.312
  121POPC   C1A 5775  22.184   0.440   8.817
  121POPC   D2A 5776  21.832   0.417   8.489
  121POPC   C3A 5777  21.980   0.357   8.057
  121POPC   C4A 5778  22.332   0.276   7.799
  121POPC   C1B 5779  22.545   0.823   8.859
  121POPC   C2B 5780  22.289   0.830   8.465
  121POPC   C3B 5781  22.368   0.746   8.036
  121POPC   C4B 5782  22.590   0.772   7.648
  122POPC   NC3 5783   2.973  24.062   9.428
  122POPC   PO4 5784   3.299  23.481   9.391
  122POPC   GL1 5785   3.054  23.667   9.094
  122POPC   GL2 5786   2.884  23.347   9.086
  122POPC   C1A 5787   2.919  23.939   8.743
  122POPC   D2A 5788   2.852  23.755   8.355
  122POPC   C3A 5789   2.769  23.932   7.982
  122POPC   C4A 5790   3.078  23.994   7.704
  122POPC   C1B 5791   2.639  23.496   8.749
  122POPC   C2B 5792   2.507  23.401   8.346
  122POPC   C3B 5793   2.673  23.430   7.937
  122POPC   C4B 5794   2.726  23.543   7.522
  123POPC   NC3 5795  27.074   6.791   9.368
  123POPC   PO4 5796  27.760   6.691   9.520
  123POPC   GL1 5797  27.765   6.431   9.188
  123POPC   GL2 5798  27.477   6.647   9.038
  123POPC   C1A 5799  27.858   6.459   8.772
  123POPC   D2A 5800  27.655   6.723   8.460
  123POPC   C3A 5801  27.623   6.510   8.051
  123POPC   C4A 5802  27.797   6.631   7.651
  123POPC   C1B 5803  27.411   7.062   8.823
  123POPC   C2B 5804  27.250   7.145   8.396
  123POPC   C3B 5805  27.501   7.030   8.017
  123POPC   C4B 5806  27.528   7.070   7.563
  124POPC   NC3 5807   9.506  29.761   9.565
  124POPC   PO4 5808  10.170  29.836   9.523
  124POPC   GL1 5809   9.903  29.787   9.206
  124POPC   GL2 5810   9.684  30.100   9.205
  124POPC   C1A 5811   9.824  29.716   8.779
  124POPC   D2A 5812   9.567  29.803   8.420
  124POPC   C3A 5813   9.760  29.690   8.043
  124POPC   C4A 5814   9.966  29.766   7.684
  124POPC   C1B 5815   9.887  30.273   8.832
  124POPC   C2B 5816   9.981  30.104   8.433
  124POPC   C3B 5817   9.868  30.199   8.019
  124POPC   C4B 5818  10.090  30.280   7.653
  125POPC   NC3 5819  32.833  43.079   9.574
  125POPC   PO4 5820  33.454  43.352   9.507
  125POPC   GL1 5821  33.239  43.087   9.228
  125POPC   GL2 5822  33.030  43.340   9.176
  125POPC   C1A 5823  33.185  42.800   8.880
  125POPC   D2A 5824  33.444  42.766   8.512
  125POPC   C3A 5825  33.299  42.754   8.090
  125POPC   C4A 5826  33.290  43.091   7.790
  125POPC   C1B 5827  32.756  43.093   8.905
  125POPC   C2B 5828  32.935  43.027   8.501
  125POPC   C3B 5829  32.869  43.027   8.062
  125POPC   C4B 5830  32.779  43.090   7.615
  126POPC   NC3 5831  42.836  14.544   9.156
  126POPC   PO4 5832  43.466  14.327   9.429
  126POPC   GL1 5833  43.419  14.351   9.013
  126POPC   GL2 5834  43.115  14.204   8.927
  126POPC   C1A 5835  43.370  14.669   8.697
  126POPC   D2A 5836  43.548  14.755   8.301
  126POPC   C3A 5837  43.293  14.555   8.005
  126POPC   C4A 5838  43.235  14.764   7.631
  126POPC   C1B 5839  42.799  14.160   8.587
  126POPC   C2B 5840  42.853  14.127   8.148
  126POPC   C3B 5841  42.711  14.233   7.762
  126POPC   C4B 5842  43.021  14.341   7.444
  127POPC   NC3 5843  32.761  35.511   9.400
  127POPC   PO4 5844  33.189  35.011   9.633
  127POPC   GL1 5845  33.279  35.181   9.127
  127POPC   GL2 5846  32.974  35.293   8.941
  127POPC   C1A 5847  33.343  35.344   8.630
  127POPC   D2A 5848  33.058  35.430   8.252
  127POPC   C3A 5849  33.019  35.130   7.890
  127POPC   C4A 5850  32.875  35.031   7.454
  127POPC   C1B 5851  32.877  35.701   8.665
  127POPC   C2B 5852  32.666  35.810   8.255
  127POPC   C3B 5853  32.696  35.633   7.845
  127POPC   C4B 5854  33.129  35.609   7.769
  128POPC   NC3 5855  11.066  20.798   9.492
  128POPC   PO4 5856  11.453  20.313   9.673
  128POPC   GL1 5857  11.430  20.458   9.238
  128POPC   GL2 5858  11.692  20.218   9.213
  128POPC   C1A 5859  11.330  20.713   8.821
  128POPC   D2A 5860  11.271  20.890   8.375
  128POPC   C3A 5861  11.198  20.710   7.938
  128POPC   C4A 5862  11.014  20.902   7.531
  128POPC   C1B 5863  11.788  20.484   8.862
  128POPC   C2B 5864  11.602  20.478   8.443
  128POPC   C3B 5865  11.640  20.319   8.049
  128POPC   C4B 5866  11.368  20.239   7.712
  129POPC   NC3 5867  44.075  25.903   9.592
  129POPC   PO4 5868  43.448  26.184   9.518
  129POPC   GL1 5869  43.711  25.983   9.221
  129POPC   GL2 5870  43.958  26.236   9.213
  129POPC   C1A 5871  44.001  25.801   8.917
  129POPC   D2A 5872  44.009  25.749   8.485
  129POPC   C3A 5873  44.060  25.943   8.076
  129POPC   C4A 5874  43.866  26.045   7.683
  129POPC   C1B 5875  43.790  26.274   8.810
  129POPC   C2B 5876  43.645  26.607   8.565
  129POPC   C3B 5877  43.574  26.614   8.154
  129POPC   C4B 5878  43.721  26.536   7.754
  130POPC   NC3 5879  21.952  23.481   9.452
  130POPC   PO4 5880  21.322  23.768   9.517
  130POPC   GL1 5881  21.496  23.507   9.185
  130POPC   GL2 5882  21.645  23.783   9.057
  130POPC   C1A 5883  21.588  23.372   8.746
  130POPC   D2A 5884  21.562  23.745   8.482
  130POPC   C3A 5885  21.460  23.762   8.059
  130POPC   C4A 5886  21.473  23.468   7.751
  130POPC   C1B 5887  21.866  24.053   8.759
  130POPC   C2B 5888  21.724  24.259   8.419
  130POPC   C3B 5889  21.636  24.257   7.985
  130POPC   C4B 5890  21.505  24.057   7.596
  131POPC   NC3 5891   4.570  21.395   9.340
  131POPC   PO4 5892   3.847  21.414   9.471
  131POPC   GL1 5893   3.995  21.311   9.066
  131POPC   GL2 5894   4.112  21.666   9.015
  131POPC   C1A 5895   3.970  21.333   8.612
  131POPC   D2A 5896   4.035  21.741   8.410
  131POPC   C3A 5897   4.246  21.583   8.068
  131POPC   C4A 5898   4.262  21.203   7.845
  131POPC   C1B 5899   4.430  21.553   8.688
  131POPC   C2B 5900   4.532  21.238   8.345
  131POPC   C3B 5901   4.741  21.357   7.957
  131POPC   C4B 5902   4.659  21.782   7.816
  132POPC   NC3 5903  14.675  35.471   9.551
  132POPC   PO4 5904  14.074  35.382   9.471
  132POPC   GL1 5905  14.355  35.321   9.150
  132POPC   GL2 5906  14.432  35.661   9.131
  132POPC   C1A 5907  14.467  35.122   8.754
  132POPC   D2A 5908  14.560  35.090   8.305
  132POPC   C3A 5909  14.286  35.278   7.975
  132POPC   C4A 5910  14.373  35.119   7.576
  132POPC   C1B 5911  14.270  35.610   8.721
  132POPC   C2B 5912  14.479  35.627   8.336
  132POPC   C3B 5913  14.544  35.776   7.941
  132POPC   C4B 5914  14.392  35.623   7.551
  133POPC   NC3 5915  23.760  41.483   9.511
  133POPC   PO4 5916  23.306  41.910   9.483
  133POPC   GL1 5917  23.543  41.927   9.098
  133POPC   GL2 5918  23.907  41.929   9.211
  133POPC   C1A 5919  23.546  41.598   8.728
  133POPC   D2A 5920  23.692  41.354   8.326
  133POPC   C3A 5921  23.403  41.393   7.957
  133POPC   C4A 5922  23.230  41.808   7.826
  133POPC   C1B 5923  23.916  41.934   8.749
  133POPC   C2B 5924  23.737  41.881   8.329
  133POPC   C3B 5925  23.835  41.665   7.936
  133POPC   C4B 5926  23.982  41.832   7.552
  134POPC   NC3 5927   3.108  28.875   9.271
  134POPC   PO4 5928   3.540  29.277   9.693
  134POPC   GL1 5929   3.571  29.043   9.310
  134POPC   GL2 5930   3.335  29.318   9.161
  134POPC   C1A 5931   3.596  28.891   8.858
  134POPC   D2A 5932   3.390  28.985   8.464
  134POPC   C3A 5933   3.723  29.141   8.204
  134POPC   C4A 5934   3.730  29.109   7.789
  134POPC   C1B 5935   3.490  29.416   8.735
  134POPC   C2B 5936   3.378  29.511   8.350
  134POPC   C3B 5937   3.284  29.324   7.950
  134POPC   C4B 5938   3.029  29.519   7.635
  135POPC   NC3 5939  32.418  36.719   9.503
  135POPC   PO4 5940  31.898  37.059   9.385
  135POPC   GL1 5941  32.102  36.818   9.058
  135POPC   GL2 5942  32.436  36.704   9.009
  135POPC   C1A 5943  32.044  36.868   8.640
  135POPC   D2A 5944  32.126  37.273   8.439
  135POPC   C3A 5945  32.070  37.145   8.020
  135POPC   C4A 5946  31.949  36.756   7.796
  135POPC   C1B 5947  32.529  37.004   8.711
  135POPC   C2B 5948  32.484  36.948   8.292
  135POPC   C3B 5949  32.453  36.754   7.920
  135POPC   C4B 5950  32.518  36.631   7.513
  136POPC   NC3 5951  41.874  17.458   9.527
  136POPC   PO4 5952  41.301  17.157   9.517
  136POPC   GL1 5953  41.320  17.516   9.186
  136POPC   GL2 5954  41.662  17.535   9.083
  136POPC   C1A 5955  41.344  17.782   8.767
  136POPC   D2A 5956  41.490  17.644   8.335
  136POPC   C3A 5957  41.401  17.441   7.913
  136POPC   C4A 5958  41.420  17.044   7.763
  136POPC   C1B 5959  41.849  17.585   8.713
  136POPC   C2B 5960  42.005  17.692   8.318
  136POPC   C3B 5961  41.803  17.754   7.940
  136POPC   C4B 5962  41.758  17.708   7.533
  137POPC   NC3 5963  31.644   9.575   9.551
  137POPC   PO4 5964  31.147   9.926   9.403
  137POPC   GL1 5965  31.477   9.807   9.084
  137POPC   GL2 5966  31.670   9.508   9.057
  137POPC   C1A 5967  31.608   9.841   8.642
  137POPC   D2A 5968  31.533  10.143   8.298
  137POPC   C3A 5969  31.382   9.928   7.943
  137POPC   C4A 5970  31.664   9.625   7.773
  137POPC   C1B 5971  31.356   9.411   8.753
  137POPC   C2B 5972  31.175   9.552   8.393
  137POPC   C3B 5973  31.285   9.392   8.032
  137POPC   C4B 5974  31.409   9.209   7.667
  138POPC   NC3 5975  38.000  22.412   9.830
  138POPC   PO4 5976  37.651  21.973   9.455
  138POPC   GL1 5977  37.519  22.113   9.078
  138POPC   GL2 5978  37.525  22.454   9.138
  138POPC   C1A 5979  37.725  22.208   8.672
  138POPC   D2A 5980  37.907  22.158   8.245
  138POPC   C3A 5981  37.678  22.308   7.900
  138POPC   C4A 5982  37.526  22.155   7.529
  138POPC   C1B 5983  37.523  22.673   8.752
  138POPC   C2B 5984  37.466  22.513   8.327
  138POPC   C3B 5985  37.430  22.727   7.904
  138POPC   C4B 5986  37.481  22.639   7.404
  139POPC   NC3 5987  10.666   5.403   9.612
  139POPC   PO4 5988  10.085   5.073   9.772
  139POPC   GL1 5989  10.313   5.168   9.352
  139POPC   GL2 5990  10.399   4.930   9.169
  139POPC   C1A 5991  10.441   5.404   8.941
  139POPC   D2A 5992  10.178   5.432   8.534
  139POPC   C3A 5993  10.377   5.446   8.100
  139POPC   C4A 5994  10.770   5.219   8.000
  139POPC   C1B 5995  10.242   4.959   8.772
  139POPC   C2B 5996  10.491   5.027   8.414
  139POPC   C3B 5997  10.339   4.939   8.012
  139POPC   C4B 5998  10.265   4.600   7.785
  140POPC   NC3 5999   2.082  38.885   9.383
  140POPC   PO4 6000   1.600  38.460   9.491
  140POPC   GL1 6001   1.820  38.311   9.159
  140POPC   GL2 6002   2.166  38.385   9.245
  140POPC   C1A 6003   1.762  38.419   8.744
  140POPC   D2A 6004   2.022  38.650   8.507
  140POPC   C3A 6005   1.918  38.815   8.124
  140POPC   C4A 6006   2.044  38.775   7.719
  140POPC   C1B 6007   2.234  38.225   8.831
  140POPC   C2B 6008   2.024  38.115   8.430
  140POPC   C3B 6009   2.169  38.312   8.075
  140POPC   C4B 6010   2.401  38.385   7.704
  141POPC   NC3 6011  15.826  38.190   9.576
  141POPC   PO4 6012  16.368  38.592   9.576
  141POPC   GL1 6013  16.112  38.558   9.210
  141POPC   GL2 6014  16.120  38.235   9.172
  141POPC   C1A 6015  16.233  38.509   8.754
  141POPC   D2A 6016  16.044  38.274   8.384
  141POPC   C3A 6017  16.124  38.446   7.967
  141POPC   C4A 6018  15.841  38.568   7.641
  141POPC   C1B 6019  15.778  38.223   8.845
  141POPC   C2B 6020  15.558  38.116   8.420
  141POPC   C3B 6021  15.683  38.141   7.937
  141POPC   C4B 6022  15.609  38.125   7.468
  142POPC   NC3 6023   9.064  25.217   9.544
  142POPC   PO4 6024   8.557  24.838   9.378
  142POPC   GL1 6025   8.757  25.184   9.136
  142POPC   GL2 6026   8.653  25.491   9.306
  142POPC   C1A 6027   8.915  25.266   8.724
  142POPC   D2A 6028   8.826  25.129   8.309
  142POPC   C3A 6029   9.109  25.250   7.983
  142POPC   C4A 6030   9.316  25.563   7.733
  142POPC   C1B 6031   8.532  25.582   8.877
  142POPC   C2B 6032   8.682  25.670   8.473
  142POPC   C3B 6033   8.609  25.525   8.087
  142POPC   C4B 6034   8.643  25.359   7.716
  143POPC   NC3 6035  31.198   8.690   9.432
  143POPC   PO4 6036  30.567   9.072   9.429
  143POPC   GL1 6037  30.733   9.152   9.055
  143POPC   GL2 6038  30.864   8.823   9.053
  143POPC   C1A 6039  30.888   9.208   8.656
  143POPC   D2A 6040  30.900   9.033   8.236
  143POPC   C3A 6041  30.904   9.148   7.787
  143POPC   C4A 6042  31.091   8.944   7.413
  143POPC   C1B 6043  30.849   8.674   8.636
  143POPC   C2B 6044  30.577   8.419   8.387
  143POPC   C3B 6045  30.383   8.504   7.978
  143POPC   C4B 6046  30.328   8.523   7.520
  144POPC   NC3 6047  28.739  11.239   9.378
  144POPC   PO4 6048  29.360  11.546   9.543
  144POPC   GL1 6049  29.148  11.422   9.150
  144POPC   GL2 6050  29.266  11.136   9.145
  144POPC   C1A 6051  28.983  11.245   8.727
  144POPC   D2A 6052  29.078  11.341   8.300
  144POPC   C3A 6053  28.892  11.186   7.960
  144POPC   C4A 6054  29.099  11.431   7.758
  144POPC   C1B 6055  29.348  10.912   8.751
  144POPC   C2B 6056  29.206  10.843   8.350
  144POPC   C3B 6057  29.348  10.971   7.948
  144POPC   C4B 6058  29.174  10.985   7.511
  145POPC   NC3 6059  33.809  28.401   9.675
  145POPC   PO4 6060  33.863  27.733   9.468
  145POPC   GL1 6061  33.798  28.214   9.187
  145POPC   GL2 6062  33.878  28.628   9.229
  145POPC   C1A 6063  33.718  28.496   8.765
  145POPC   D2A 6064  33.658  28.735   8.341
  145POPC   C3A 6065  33.508  28.547   7.944
  145POPC   C4A 6066  33.574  28.214   7.625
  145POPC   C1B 6067  34.168  28.742   8.884
  145POPC   C2B 6068  34.149  28.567   8.465
  145POPC   C3B 6069  34.274  28.433   8.059
  145POPC   C4B 6070  34.063  28.417   7.689
  146POPC   NC3 6071  19.938   8.560   9.576
  146POPC   PO4 6072  19.742   9.140   9.380
  146POPC   GL1 6073  19.927   8.845   9.123
  146POPC   GL2 6074  20.266   8.726   9.217
  146POPC   C1A 6075  19.816   8.921   8.723
  146POPC   D2A 6076  19.704   9.268   8.478
  146POPC   C3A 6077  19.736   9.091   8.088
  146POPC   C4A 6078  19.758   9.071   7.654
  146POPC   C1B 6079  20.342   8.801   8.779
  146POPC   C2B 6080  20.172   8.837   8.359
  146POPC   C3B 6081  20.142   8.842   7.886
  146POPC   C4B 6082  20.093   8.731   7.442
  147POPC   NC3 6083   7.596  40.386   9.362
  147POPC   PO4 6084   7.147  40.839   9.549
  147POPC   GL1 6085   7.239  40.759   9.138
  147POPC   GL2 6086   7.141  40.408   9.105
  147POPC   C1A 6087   7.438  40.986   8.778
  147POPC   D2A 6088   7.553  41.180   8.371
  147POPC   C3A 6089   7.341  40.975   8.037
  147POPC   C4A 6090   7.293  40.676   7.689
  147POPC   C1B 6091   7.379  40.471   8.730
  147POPC   C2B 6092   7.554  40.673   8.388
  147POPC   C3B 6093   7.683  40.557   7.993
  147POPC   C4B 6094   7.701  40.347   7.574
  148POPC   NC3 6095  10.870  23.436   9.482
  148POPC   PO4 6096  10.643  24.004   9.375
  148POPC   GL1 6097  10.454  23.723   9.142
  148POPC   GL2 6098  10.726  23.600   9.013
  148POPC   C1A 6099  10.269  23.665   8.752
  148POPC   D2A 6100  10.494  23.530   8.419
  148POPC   C3A 6101  10.542  23.677   7.993
  148POPC   C4A 6102  10.278  23.894   7.702
  148POPC   C1B 6103  10.964  23.495   8.651
  148POPC   C2B 6104  10.916  23.343   8.230
  148POPC   C3B 6105  10.928  23.403   7.805
  148POPC   C4B 6106  10.657  23.602   7.493
  149POPC   NC3 6107  34.246   7.856   9.208
  149POPC   PO4 6108  34.801   8.178   9.426
  149POPC   GL1 6109  34.621   8.225   9.066
  149POPC   GL2 6110  34.691   7.917   8.983
  149POPC   C1A 6111  34.480   8.475   8.724
  149POPC   D2A 6112  34.282   8.550   8.340
  149POPC   C3A 6113  34.544   8.405   8.006
  149POPC   C4A 6114  34.530   8.540   7.604
  149POPC   C1B 6115  34.567   7.955   8.610
  149POPC   C2B 6116  34.767   7.890   8.269
  149POPC   C3B 6117  34.655   7.911   7.869
  149POPC   C4B 6118  34.292   7.845   7.706
  150POPC   NC3 6119  20.602  17.729   9.626
  150POPC   PO4 6120  20.446  17.108   9.378
  150POPC   GL1 6121  20.528  17.529   9.151
  150POPC   GL2 6122  20.334  17.894   9.222
  150POPC   C1A 6123  20.790  17.520   8.784
  150POPC   D2A 6124  20.914  17.424   8.364
  150POPC   C3A 6125  20.587  17.293   8.118
  150POPC   C4A 6126  20.645  17.132   7.762
  150POPC   C1B 6127  20.397  17.885   8.796
  150POPC   C2B 6128  20.392  17.621   8.461
  150POPC   C3B 6129  20.521  17.800   8.099
  150POPC   C4B 6130  20.776  17.708   7.766
  151POPC   NC3 6131  26.786  11.413   9.466
  151POPC   PO4 6132  26.416  10.867   9.453
  151POPC   GL1 6133  26.687  11.063   9.106
  151POPC   GL2 6134  27.045  11.053   9.178
  151POPC   C1A 6135  26.881  11.390   8.812
  151POPC   D2A 6136  27.212  11.581   8.531
  151POPC   C3A 6137  27.140  11.511   8.081
  151POPC   C4A 6138  26.792  11.460   7.794
  151POPC   C1B 6139  27.069  10.918   8.767
  151POPC   C2B 6140  26.935  11.118   8.371
  151POPC   C3B 6141  26.817  10.967   7.968
  151POPC   C4B 6142  27.055  10.718   7.694
  152POPC   NC3 6143  20.876  14.172   9.428
  152POPC   PO4 6144  20.347  14.662   9.476
  152POPC   GL1 6145  20.456  14.649   9.041
  152POPC   GL2 6146  20.779  14.497   9.041
  152POPC   C1A 6147  20.469  14.476   8.615
  152POPC   D2A 6148  20.489  14.110   8.346
  152POPC   C3A 6149  20.372  14.228   7.962
  152POPC   C4A 6150  20.497  14.490   7.661
  152POPC   C1B 6151  20.772  14.096   8.800
  152POPC   C2B 6152  21.002  14.054   8.448
  152POPC   C3B 6153  20.898  14.253   8.056
  152POPC   C4B 6154  20.821  14.044   7.672
  153POPC   NC3 6155   1.765  27.733   9.569
  153POPC   PO4 6156   2.276  27.305   9.445
  153POPC   GL1 6157   2.048  27.639   9.166
  153POPC   GL2 6158   1.658  27.580   9.103
  153POPC   C1A 6159   1.988  27.824   8.765
  153POPC   D2A 6160   2.060  27.636   8.392
  153POPC   C3A 6161   2.130  27.867   8.057
  153POPC   C4A 6162   2.170  27.685   7.667
  153POPC   C1B 6163   1.802  27.328   8.738
  153POPC   C2B 6164   1.607  27.420   8.332
  153POPC   C3B 6165   1.715  27.566   7.905
  153POPC   C4B 6166   1.676  27.410   7.454
  154POPC   NC3 6167  32.707  42.358   9.516
  154POPC   PO4 6168  32.118  42.659   9.598
  154POPC   GL1 6169  32.188  42.339   9.262
  154POPC   GL2 6170  32.032  42.609   9.108
  154POPC   C1A 6171  32.117  42.206   8.799
  154POPC   D2A 6172  31.913  42.259   8.384
  154POPC   C3A 6173  32.256  42.411   8.133
  154POPC   C4A 6174  32.360  42.386   7.691
  154POPC   C1B 6175  31.827  42.629   8.754
  154POPC   C2B 6176  31.933  42.805   8.375
  154POPC   C3B 6177  31.816  42.655   7.991
  154POPC   C4B 6178  31.940  42.665   7.596
  155POPC   NC3 6179  21.579  12.501   9.414
  155POPC   PO4 6180  21.374  11.755   9.523
  155POPC   GL1 6181  21.556  12.022   9.180
  155POPC   GL2 6182  21.302  12.213   9.052
  155POPC   C1A 6183  21.727  12.297   8.783
  155POPC   D2A 6184  21.418  12.336   8.426
  155POPC   C3A 6185  21.517  12.192   7.977
  155POPC   C4A 6186  21.837  12.316   7.655
  155POPC   C1B 6187  21.483  11.857   8.714
  155POPC   C2B 6188  21.640  11.762   8.280
  155POPC   C3B 6189  21.485  11.644   7.852
  155POPC   C4B 6190  21.208  11.773   7.489
  156POPC   NC3 6191  14.824  38.402   9.507
  156POPC   PO4 6192  15.405  38.091   9.446
  156POPC   GL1 6193  15.218  38.333   9.115
  156POPC   GL2 6194  15.074  38.651   9.146
  156POPC   C1A 6195  15.333  38.480   8.703
  156POPC   D2A 6196  15.162  38.441   8.284
  156POPC   C3A 6197  15.391  38.623   7.919
  156POPC   C4A 6198  15.493  39.008   7.665
  156POPC   C1B 6199  14.986  38.848   8.767
  156POPC   C2B 6200  14.829  38.832   8.379
  156POPC   C3B 6201  14.879  38.702   7.946
  156POPC   C4B 6202  14.954  38.747   7.524
  157POPC   NC3 6203  14.524   1.007   9.544
  157POPC   PO4 6204  14.514   1.677   9.704
  157POPC   GL1 6205  14.597   1.426   9.233
  157POPC   GL2 6206  14.831   1.147   9.170
  157POPC   C1A 6207  14.492   1.248   8.782
  157POPC   D2A 6208  14.381   1.244   8.331
  157POPC   C3A 6209  14.406   0.922   8.008
  157POPC   C4A 6210  14.337   0.951   7.534
  157POPC   C1B 6211  14.951   0.991   8.753
  157POPC   C2B 6212  14.831   0.912   8.314
  157POPC   C3B 6213  14.812   1.230   8.017
  157POPC   C4B 6214  14.645   1.362   7.642
  158POPC   NC3 6215  36.642  22.908   9.617
  158POPC   PO4 6216  37.109  23.335   9.426
  158POPC   GL1 6217  36.927  23.115   9.063
  158POPC   GL2 6218  36.710  22.842   9.108
  158POPC   C1A 6219  37.026  22.842   8.700
  158POPC   D2A 6220  37.222  22.961   8.327
  158POPC   C3A 6221  37.048  23.101   7.953
  158POPC   C4A 6222  37.012  22.753   7.657
  158POPC   C1B 6223  36.535  23.002   8.737
  158POPC   C2B 6224  36.691  22.976   8.305
  158POPC   C3B 6225  36.571  22.946   7.869
  158POPC   C4B 6226  36.583  22.771   7.425
  159POPC   NC3 6227  19.717  19.469   9.526
  159POPC   PO4 6228  19.894  20.126   9.489
  159POPC   GL1 6229  19.829  19.823   9.147
  159POPC   GL2 6230  20.136  19.667   8.961
  159POPC   C1A 6231  19.703  19.841   8.712
  159POPC   D2A 6232  19.932  19.841   8.332
  159POPC   C3A 6233  19.727  19.793   7.924
  159POPC   C4A 6234  19.611  19.459   7.618
  159POPC   C1B 6235  20.113  20.122   8.837
  159POPC   C2B 6236  20.156  20.320   8.425
  159POPC   C3B 6237  20.207  20.317   7.982
  159POPC   C4B 6238  19.869  20.238   7.703
  160POPC   NC3 6239  39.308  31.929   9.379
  160POPC   PO4 6240  38.727  31.631   9.318
  160POPC   GL1 6241  38.923  31.993   9.032
  160POPC   GL2 6242  39.166  32.309   9.079
  160POPC   C1A 6243  39.087  32.119   8.633
  160POPC   D2A 6244  39.387  32.282   8.398
  160POPC   C3A 6245  39.375  32.111   8.018
  160POPC   C4A 6246  39.043  32.031   7.741
  160POPC   C1B 6247  39.492  32.547   8.835
  160POPC   C2B 6248  39.624  32.721   8.451
  160POPC   C3B 6249  39.516  32.626   8.035
  160POPC   C4B 6250  39.714  32.356   7.744
  161POPC   NC3 6251  41.150   3.591   9.485
  161POPC   PO4 6252  40.618   3.343   9.559
  161POPC   GL1 6253  40.742   3.522   9.191
  161POPC   GL2 6254  40.438   3.669   9.081
  161POPC   C1A 6255  40.961   3.494   8.792
  161POPC   D2A 6256  40.697   3.614   8.438
  161POPC   C3A 6257  40.722   3.605   8.006
  161POPC   C4A 6258  41.062   3.576   7.709
  161POPC   C1B 6259  40.511   3.265   8.827
  161POPC   C2B 6260  40.528   3.098   8.408
  161POPC   C3B 6261  40.355   3.174   8.017
  161POPC   C4B 6262  40.578   3.259   7.658
  162POPC   NC3 6263  25.568  25.013   9.596
  162POPC   PO4 6264  25.264  25.623   9.519
  162POPC   GL1 6265  25.288  25.290   9.227
  162POPC   GL2 6266  25.344  25.551   8.996
  162POPC   C1A 6267  25.504  25.020   8.912
  162POPC   D2A 6268  25.592  25.020   8.479
  162POPC   C3A 6269  25.477  25.010   8.050
  162POPC   C4A 6270  25.534  25.181   7.654
  162POPC   C1B 6271  25.154  25.308   8.667
  162POPC   C2B 6272  25.004  25.131   8.298
  162POPC   C3B 6273  25.067  25.323   7.915
  162POPC   C4B 6274  25.280  25.602   7.592
  163POPC   NC3 6275   6.985  25.940   9.417
  163POPC   PO4 6276   7.670  25.699   9.472
  163POPC   GL1 6277   7.407  25.935   9.084
  163POPC   GL2 6278   7.088  26.196   8.981
  163POPC   C1A 6279   7.276  25.914   8.614
  163POPC   D2A 6280   7.138  25.624   8.269
  163POPC   C3A 6281   7.467  25.670   7.993
  163POPC   C4A 6282   7.504  26.014   7.693
  163POPC   C1B 6283   7.428  26.408   8.764
  163POPC   C2B 6284   7.551  26.381   8.324
  163POPC   C3B 6285   7.242  26.375   7.971
  163POPC   C4B 6286   7.142  26.362   7.532
  164POPC   NC3 6287  38.721  11.114   9.834
  164POPC   PO4 6288  39.338  11.186   9.506
  164POPC   GL1 6289  39.394  11.266   9.078
  164POPC   GL2 6290  39.041  11.191   9.061
  164POPC   C1A 6291  39.698  11.247   8.727
  164POPC   D2A 6292  39.642  11.139   8.305
  164POPC   C3A 6293  39.222  11.195   8.122
  164POPC   C4A 6294  39.374  11.276   7.706
  164POPC   C1B 6295  39.021  11.195   8.655
  164POPC   C2B 6296  38.838  11.460   8.434
  164POPC   C3B 6297  38.876  11.593   8.067
  164POPC   C4B 6298  38.879  11.360   7.710
  165POPC   NC3 6299   0.884  24.752   9.521
  165POPC   PO4 6300   0.243  24.580   9.632
  165POPC   GL1 6301   0.279  24.703   9.223
  165POPC   GL2 6302   0.570  24.526   9.176
  165POPC   C1A 6303   0.177  24.553   8.786
  165POPC   D2A 6304   0.219  24.288   8.421
  165POPC   C3A 6305   0.183  24.426   7.993
  165POPC   C4A 6306   0.601  24.479   7.782
  165POPC   C1B 6307   0.637  24.337   8.793
  165POPC   C2B 6308   0.755  24.303   8.393
  165POPC   C3B 6309   1.001  24.301   8.042
  165POPC   C4B 6310   1.087  24.219   7.612
  166POPC   NC3 6311  32.425  41.654   9.473
  166POPC   PO4 6312  31.841  41.925   9.490
  166POPC   GL1 6313  32.048  41.795   9.110
  166POPC   GL2 6314  32.431  41.899   9.049
  166POPC   C1A 6315  31.886  41.512   8.781
  166POPC   D2A 6316  31.756  41.497   8.339
  166POPC   C3A 6317  32.048  41.196   8.163
  166POPC   C4A 6318  32.410  41.149   7.870
  166POPC   C1B 6319  32.390  41.501   8.818
  166POPC   C2B 6320  32.270  41.607   8.414
  166POPC   C3B 6321  32.384  41.879   8.083
  166POPC   C4B 6322  32.279  41.661   7.737
  167POPC   NC3 6323   8.341  40.480   9.614
  167POPC   PO4 6324   8.606  39.842   9.507
  167POPC   GL1 6325   8.947  39.919   9.181
  167POPC   GL2 6326   9.202  39.651   9.111
  167POPC   C1A 6327   9.230  40.117   8.876
  167POPC   D2A 6328   9.320  40.105   8.446
  167POPC   C3A 6329   8.938  40.047   8.214
  167POPC   C4A 6330   8.900  40.152   7.802
  167POPC   C1B 6331   9.065  39.674   8.634
  167POPC   C2B 6332   9.154  39.599   8.159
  167POPC   C3B 6333   9.123  39.705   7.702
  167POPC   C4B 6334   9.056  39.455   7.288
  168POPC   NC3 6335  37.791  31.263   9.453
  168POPC   PO4 6336  37.246  31.731   9.482
  168POPC   GL1 6337  37.600  31.683   9.174
  168POPC   GL2 6338  37.686  31.361   8.974
  168POPC   C1A 6339  37.583  31.767   8.731
  168POPC   D2A 6340  37.747  31.449   8.412
  168POPC   C3A 6341  37.672  31.397   7.963
  168POPC   C4A 6342  37.554  31.602   7.567
  168POPC   C1B 6343  38.028  31.118   8.731
  168POPC   C2B 6344  38.219  31.218   8.316
  168POPC   C3B 6345  38.071  31.044   7.910
  168POPC   C4B 6346  38.036  31.016   7.440
  169POPC   NC3 6347  16.929  14.053   9.503
  169POPC   PO4 6348  16.584  13.544   9.644
  169POPC   GL1 6349  16.656  13.668   9.178
  169POPC   GL2 6350  16.752  14.031   9.045
  169POPC   C1A 6351  16.689  13.674   8.701
  169POPC   D2A 6352  16.807  13.454   8.338
  169POPC   C3A 6353  16.642  13.595   7.962
  169POPC   C4A 6354  16.312  13.919   7.916
  169POPC   C1B 6355  17.134  13.927   8.820
  169POPC   C2B 6356  17.206  13.800   8.461
  169POPC   C3B 6357  17.067  13.874   8.102
  169POPC   C4B 6358  17.097  13.668   7.723
  170POPC   NC3 6359  27.041  29.353   9.580
  170POPC   PO4 6360  26.368  29.182   9.582
  170POPC   GL1 6361  26.589  29.050   9.255
  170POPC   GL2 6362  26.700  29.388   9.211
  170POPC   C1A 6363  26.881  29.028   8.922
  170POPC   D2A 6364  26.888  28.923   8.469
  170POPC   C3A 6365  26.785  29.136   8.109
  170POPC   C4A 6366  26.949  29.181   7.685
  170POPC   C1B 6367  26.686  29.499   8.809
  170POPC   C2B 6368  26.840  29.544   8.408
  170POPC   C3B 6369  26.921  29.604   7.997
  170POPC   C4B 6370  26.642  29.592   7.614
  171POPC   NC3 6371  14.498   3.943   9.405
  171POPC   PO4 6372  14.560   3.237   9.438
  171POPC   GL1 6373  14.469   3.471   9.121
  171POPC   GL2 6374  14.786   3.636   9.106
  171POPC   C1A 6375  14.206   3.411   8.765
  171POPC   D2A 6376  14.142   3.546   8.321
  171POPC   C3A 6377  14.212   3.294   7.949
  171POPC   C4A 6378  14.034   2.999   7.633
  171POPC   C1B 6379  14.621   3.735   8.707
  171POPC   C2B 6380  14.330   3.977   8.503
  171POPC   C3B 6381  14.237   4.011   8.086
  171POPC   C4B 6382  14.293   3.784   7.750
  172POPC   NC3 6383  15.216  35.873   9.384
  172POPC   PO4 6384  15.050  35.176   9.541
  172POPC   GL1 6385  15.246  35.371   9.232
  172POPC   GL2 6386  14.945  35.527   9.106
  172POPC   C1A 6387  15.418  35.420   8.834
  172POPC   D2A 6388  15.364  35.645   8.447
  172POPC   C3A 6389  15.451  35.372   8.101
  172POPC   C4A 6390  15.295  35.348   7.681
  172POPC   C1B 6391  14.890  35.525   8.665
  172POPC   C2B 6392  14.937  35.433   8.224
  172POPC   C3B 6393  14.781  35.324   7.835
  172POPC   C4B 6394  14.855  35.420   7.410
  173POPC   NC3 6395  28.393   5.237   9.529
  173POPC   PO4 6396  28.568   4.586   9.572
  173POPC   GL1 6397  28.505   4.861   9.194
  173POPC   GL2 6398  28.605   5.235   9.077
  173POPC   C1A 6399  28.301   4.928   8.807
  173POPC   D2A 6400  28.431   5.058   8.407
  173POPC   C3A 6401  28.269   4.881   8.055
  173POPC   C4A 6402  28.519   4.696   7.755
  173POPC   C1B 6403  28.455   5.451   8.712
  173POPC   C2B 6404  28.549   5.557   8.280
  173POPC   C3B 6405  28.396   5.360   7.925
  173POPC   C4B 6406  28.295   5.522   7.494
  174POPC   NC3 6407  27.267  39.753   9.628
  174POPC   PO4 6408  27.590  40.183   9.256
  174POPC   GL1 6409  27.501  40.015   8.954
  174POPC   GL2 6410  27.486  39.666   9.002
  174POPC   C1A 6411  27.734  40.048   8.624
  174POPC   D2A 6412  28.079  40.176   8.402
  174POPC   C3A 6413  27.838  40.103   8.055
  174POPC   C4A 6414  27.519  40.418   7.904
  174POPC   C1B 6415  27.293  39.746   8.598
  174POPC   C2B 6416  27.354  40.025   8.262
  174POPC   C3B 6417  27.406  39.901   7.849
  174POPC   C4B 6418  27.346  39.764   7.431
  175POPC   NC3 6419  43.959  30.481   9.586
  175POPC   PO4 6420  43.961  29.808   9.454
  175POPC   GL1 6421  43.693  30.021   9.180
  175POPC   GL2 6422  43.536  29.672   9.101
  175POPC   C1A 6423  43.777  30.163   8.755
  175POPC   D2A 6424  43.984  29.928   8.374
  175POPC   C3A 6425  43.882  29.923   7.917
  175POPC   C4A 6426  43.852  30.179   7.564
  175POPC   C1B 6427  43.548  29.727   8.656
  175POPC   C2B 6428  43.499  29.764   8.222
  175POPC   C3B 6429  43.543  29.533   7.813
  175POPC   C4B 6430  43.630  29.757   7.422
  176POPC   NC3 6431  10.382  36.673   9.463
  176POPC   PO4 6432  10.996  36.917   9.692
  176POPC   GL1 6433  10.795  36.923   9.229
  176POPC   GL2 6434  10.508  36.841   9.005
  176POPC   C1A 6435  10.785  37.231   8.829
  176POPC   D2A 6436  10.762  37.085   8.419
  176POPC   C3A 6437  10.467  37.151   8.098
  176POPC   C4A 6438  10.640  36.959   7.749
  176POPC   C1B 6439  10.073  36.781   8.826
  176POPC   C2B 6440  10.030  36.758   8.374
  176POPC   C3B 6441  10.323  36.626   8.045
  176POPC   C4B 6442  10.300  36.604   7.589
  177POPC   NC3 6443   8.739  36.972   9.560
  177POPC   PO4 6444   9.367  37.206   9.456
  177POPC   GL1 6445   8.982  37.164   9.172
  177POPC   GL2 6446   8.893  36.743   9.160
  177POPC   C1A 6447   8.908  37.031   8.769
  177POPC   D2A 6448   9.203  36.991   8.460
  177POPC   C3A 6449   9.154  37.087   8.047
  177POPC   C4A 6450   9.209  37.333   7.647
  177POPC   C1B 6451   8.673  36.555   8.825
  177POPC   C2B 6452   8.790  36.675   8.420
  177POPC   C3B 6453   8.632  36.795   8.050
  177POPC   C4B 6454   8.891  36.832   7.703
  178POPC   NC3 6455   2.661  22.013   9.482
  178POPC   PO4 6456   2.529  21.388   9.501
  178POPC   GL1 6457   2.736  21.509   9.128
  178POPC   GL2 6458   3.036  21.479   9.265
  178POPC   C1A 6459   2.905  21.208   8.804
  178POPC   D2A 6460   2.813  21.071   8.403
  178POPC   C3A 6461   2.727  21.369   8.078
  178POPC   C4A 6462   2.850  21.241   7.685
  178POPC   C1B 6463   3.155  21.643   8.846
  178POPC   C2B 6464   3.073  21.525   8.430
  178POPC   C3B 6465   3.227  21.358   8.052
  178POPC   C4B 6466   3.199  21.612   7.767
  179POPC   NC3 6467   9.469   6.453   9.440
  179POPC   PO4 6468  10.096   6.409   9.233
  179POPC   GL1 6469   9.845   6.767   9.122
  179POPC   GL2 6470  10.119   6.994   9.041
  179POPC   C1A 6471   9.570   6.844   8.780
  179POPC   D2A 6472   9.599   6.570   8.405
  179POPC   C3A 6473   9.520   6.728   7.961
  179POPC   C4A 6474   9.621   6.496   7.599
  179POPC   C1B 6475  10.079   6.728   8.663
  179POPC   C2B 6476  10.073   6.371   8.406
  179POPC   C3B 6477   9.992   6.592   8.044
  179POPC   C4B 6478   9.970   6.959   7.837
  180POPC   NC3 6479   7.143  33.328   9.485
  180POPC   PO4 6480   7.222  34.030   9.477
  180POPC   GL1 6481   7.415  33.736   9.209
  180POPC   GL2 6482   7.110  33.642   9.052
  180POPC   C1A 6483   7.585  33.671   8.797
  180POPC   D2A 6484   7.472  33.662   8.373
  180POPC   C3A 6485   7.657  34.015   8.182
  180POPC   C4A 6486   7.707  34.152   7.780
  180POPC   C1B 6487   7.205  34.011   8.732
  180POPC   C2B 6488   7.210  34.258   8.328
  180POPC   C3B 6489   7.203  34.057   7.925
  180POPC   C4B 6490   7.393  33.683   7.831
  181POPC   NC3 6491   2.812  34.393   9.480
  181POPC   PO4 6492   2.890  33.776   9.466
  181POPC   GL1 6493   2.989  33.891   9.052
  181POPC   GL2 6494   3.156  34.199   9.091
  181POPC   C1A 6495   2.723  33.948   8.637
  181POPC   D2A 6496   2.295  33.813   8.406
  181POPC   C3A 6497   2.378  33.545   8.056
  181POPC   C4A 6498   2.806  33.592   7.892
  181POPC   C1B 6499   3.235  34.085   8.660
  181POPC   C2B 6500   3.108  33.914   8.256
  181POPC   C3B 6501   3.260  33.823   7.843
  181POPC   C4B 6502   3.336  34.126   7.541
  182POPC   NC3 6503  18.735  44.282   9.393
  182POPC   PO4 6504  19.345  44.149   9.620
  182POPC   GL1 6505  19.163  44.092   9.199
  182POPC   GL2 6506  19.257  43.819   9.003
  182POPC   C1A 6507  18.955  44.198   8.805
  182POPC   D2A 6508  19.094  44.091   8.443
  182POPC   C3A 6509  18.815  43.920   8.193
  182POPC   C4A 6510  18.866  44.150   7.824
  182POPC   C1B 6511  18.967  43.661   8.701
  182POPC   C2B 6512  19.024  43.450   8.321
  182POPC   C3B 6513  19.286  43.353   7.960
  182POPC   C4B 6514  19.501  43.358   7.564
  183POPC   NC3 6515  13.917  23.519   9.503
  183POPC   PO4 6516  13.419  23.100   9.475
  183POPC   GL1 6517  13.379  23.108   9.057
  183POPC   GL2 6518  13.291  22.752   9.028
  183POPC   C1A 6519  13.641  22.949   8.681
  183POPC   D2A 6520  13.769  22.745   8.309
  183POPC   C3A 6521  13.728  22.927   7.896
  183POPC   C4A 6522  13.956  23.296   7.795
  183POPC   C1B 6523  13.153  22.939   8.638
  183POPC   C2B 6524  13.328  22.994   8.227
  183POPC   C3B 6525  13.203  22.960   7.803
  183POPC   C4B 6526  13.415  22.786   7.457
  184POPC   NC3 6527  22.440  43.594   9.670
  184POPC   PO4 6528  21.905  43.822   9.405
  184POPC   GL1 6529  22.092  44.001   9.023
  184POPC   GL2 6530  22.143  43.666   8.950
  184POPC   C1A 6531  22.169  43.994   8.539
  184POPC   D2A 6532  22.522  44.028   8.210
  184POPC   C3A 6533  22.456  44.238   7.841
  184POPC   C4A 6534  22.147  43.945   7.751
  184POPC   C1B 6535  22.139  43.473   8.582
  184POPC   C2B 6536  22.161  43.614   8.185
  184POPC   C3B 6537  22.087  43.447   7.827
  184POPC   C4B 6538  22.317  43.231   7.545
  185POPC   NC3 6539   5.071  33.589   9.407
  185POPC   PO4 6540   5.573  34.095   9.426
  185POPC   GL1 6541   5.264  33.975   9.084
  185POPC   GL2 6542   4.878  33.995   9.082
  185POPC   C1A 6543   5.126  33.717   8.733
  185POPC   D2A 6544   4.885  33.731   8.367
  185POPC   C3A 6545   5.111  33.617   7.980
  185POPC   C4A 6546   5.156  33.674   7.557
  185POPC   C1B 6547   4.949  34.196   8.687
  185POPC   C2B 6548   4.970  34.247   8.252
  185POPC   C3B 6549   4.764  33.994   7.941
  185POPC   C4B 6550   4.641  33.771   7.594
  186POPC   NC3 6551  22.053   5.489   9.580
  186POPC   PO4 6552  22.200   4.868   9.515
  186POPC   GL1 6553  22.142   4.988   9.078
  186POPC   GL2 6554  21.936   5.266   9.106
  186POPC   C1A 6555  22.163   4.959   8.623
  186POPC   D2A 6556  22.019   5.166   8.244
  186POPC   C3A 6557  22.142   4.885   7.913
  186POPC   C4A 6558  22.115   4.732   7.485
  186POPC   C1B 6559  22.073   5.443   8.703
  186POPC   C2B 6560  22.175   5.674   8.352
  186POPC   C3B 6561  21.967   5.609   7.978
  186POPC   C4B 6562  21.967   5.279   7.654
  187POPC   NC3 6563  30.681   4.709   9.407
  187POPC   PO4 6564  30.387   5.242   9.279
  187POPC   GL1 6565  30.828   5.125   9.146
  187POPC   GL2 6566  31.124   5.324   9.110
  187POPC   C1A 6567  30.906   4.904   8.761
  187POPC   D2A 6568  30.587   4.784   8.438
  187POPC   C3A 6569  30.707   4.901   8.026
  187POPC   C4A 6570  30.753   4.946   7.572
  187POPC   C1B 6571  30.890   5.469   8.754
  187POPC   C2B 6572  30.726   5.343   8.322
  187POPC   C3B 6573  30.687   5.398   7.856
  187POPC   C4B 6574  30.590   5.386   7.393
  188POPC   NC3 6575  22.574  33.824   9.413
  188POPC   PO4 6576  23.049  34.156   9.733
  188POPC   GL1 6577  23.098  33.894   9.276
  188POPC   GL2 6578  22.963  33.570   9.181
  188POPC   C1A 6579  23.105  33.929   8.775
  188POPC   D2A 6580  23.241  33.779   8.325
  188POPC   C3A 6581  22.923  33.823   7.946
  188POPC   C4A 6582  22.518  33.972   7.788
  188POPC   C1B 6583  22.833  33.479   8.761
  188POPC   C2B 6584  22.730  33.604   8.364
  188POPC   C3B 6585  22.715  33.362   7.989
  188POPC   C4B 6586  22.940  33.387   7.621
  189POPC   NC3 6587  18.558  44.961   9.395
  189POPC   PO4 6588  18.254  44.393   9.511
  189POPC   GL1 6589  18.392  44.544   9.133
  189POPC   GL2 6590  18.123  44.727   9.115
  189POPC   C1A 6591  18.609  44.609   8.751
  189POPC   D2A 6592  18.671  44.383   8.363
  189POPC   C3A 6593  18.607  44.597   7.970
  189POPC   C4A 6594  18.212  44.610   7.819
  189POPC   C1B 6595  18.067  44.524   8.736
  189POPC   C2B 6596  18.251  44.693   8.373
  189POPC   C3B 6597  18.256   0.054   8.163
  189POPC   C4B 6598  18.289   0.123   7.757
  190POPC   NC3 6599  29.492  22.540   9.514
  190POPC   PO4 6600  29.191  23.188   9.432
  190POPC   GL1 6601  29.239  22.817   9.150
  190POPC   GL2 6602  28.959  22.603   9.026
  190POPC   C1A 6603  29.256  22.943   8.734
  190POPC   D2A 6604  29.146  23.160   8.363
  190POPC   C3A 6605  29.245  23.054   7.924
  190POPC   C4A 6606  29.030  23.235   7.532
  190POPC   C1B 6607  28.762  22.911   8.810
  190POPC   C2B 6608  28.661  22.887   8.428
  190POPC   C3B 6609  28.777  22.945   8.052
  190POPC   C4B 6610  28.850  22.787   7.674
  191POPC   NC3 6611  24.195   4.582   9.486
  191POPC   PO4 6612  24.383   3.942   9.613
  191POPC   GL1 6613  24.548   4.145   9.207
  191POPC   GL2 6614  24.606   4.494   9.226
  191POPC   C1A 6615  24.370   4.318   8.781
  191POPC   D2A 6616  24.489   4.373   8.338
  191POPC   C3A 6617  24.336   4.397   7.957
  191POPC   C4A 6618  24.211   4.035   7.790
  191POPC   C1B 6619  24.683   4.722   8.871
  191POPC   C2B 6620  24.738   4.768   8.467
  191POPC   C3B 6621  24.679   4.777   8.039
  191POPC   C4B 6622  24.787   4.720   7.598
  192POPC   NC3 6623   5.016  21.559   9.638
  192POPC   PO4 6624   4.818  21.033   9.196
  192POPC   GL1 6625   5.194  21.297   9.138
  192POPC   GL2 6626   5.229  21.657   9.192
  192POPC   C1A 6627   5.285  21.236   8.727
  192POPC   D2A 6628   5.064  21.363   8.382
  192POPC   C3A 6629   5.295  21.263   8.032
  192POPC   C4A 6630   5.141  21.077   7.698
  192POPC   C1B 6631   5.339  21.744   8.765
  192POPC   C2B 6632   5.484  21.650   8.334
  192POPC   C3B 6633   5.292  21.761   7.945
  192POPC   C4B 6634   5.447  21.521   7.604
  193POPC   NC3 6635  30.192  22.505   9.290
  193POPC   PO4 6636  29.685  22.049   9.483
  193POPC   GL1 6637  29.737  22.259   9.110
  193POPC   GL2 6638  29.723  22.595   9.071
  193POPC   C1A 6639  29.791  22.127   8.709
  193POPC   D2A 6640  29.709  21.866   8.394
  193POPC   C3A 6641  29.772  21.989   7.970
  193POPC   C4A 6642  30.053  22.268   7.742
  193POPC   C1B 6643  29.612  22.592   8.668
  193POPC   C2B 6644  29.625  22.431   8.251
  193POPC   C3B 6645  29.678  22.636   7.838
  193POPC   C4B 6646  29.579  22.309   7.558
  194POPC   NC3 6647  14.192   2.063   9.460
  194POPC   PO4 6648  13.546   1.927   9.692
  194POPC   GL1 6649  13.679   2.010   9.249
  194POPC   GL2 6650  13.926   2.174   9.060
  194POPC   C1A 6651  13.491   2.020   8.813
  194POPC   D2A 6652  13.548   1.758   8.413
  194POPC   C3A 6653  13.708   1.872   7.993
  194POPC   C4A 6654  13.466   2.152   7.749
  194POPC   C1B 6655  13.961   1.913   8.695
  194POPC   C2B 6656  14.111   1.888   8.311
  194POPC   C3B 6657  14.178   2.120   7.903
  194POPC   C4B 6658  13.963   2.116   7.499
  195POPC   NC3 6659  29.977  36.364   9.434
  195POPC   PO4 6660  29.634  35.964   9.301
  195POPC   GL1 6661  29.802  36.290   8.960
  195POPC   GL2 6662  30.071  36.582   8.991
  195POPC   C1A 6663  29.842  36.271   8.515
  195POPC   D2A 6664  30.078  35.996   8.216
  195POPC   C3A 6665  29.800  35.979   7.867
  195POPC   C4A 6666  29.491  36.295   7.791
  195POPC   C1B 6667  30.328  36.322   8.734
  195POPC   C2B 6668  30.269  36.464   8.334
  195POPC   C3B 6669  29.957  36.449   8.029
  195POPC   C4B 6670  30.189  36.264   7.720
  196POPC   NC3 6671  44.004   0.284   9.539
  196POPC   PO4 6672  43.663   0.915   9.535
  196POPC   GL1 6673  43.796   0.642   9.197
  196POPC   GL2 6674  43.485   0.545   8.997
  196POPC   C1A 6675  44.044   0.449   8.861
  196POPC   D2A 6676  44.008   0.559   8.439
  196POPC   C3A 6677  44.054   0.293   8.092
  196POPC   C4A 6678  44.035   0.438   7.721
  196POPC   C1B 6679  43.592   0.288   8.663
  196POPC   C2B 6680  43.577   0.204   8.261
  196POPC   C3B 6681  43.596   0.216   7.843
  196POPC   C4B 6682  43.617   0.022   7.381
  197POPC   NC3 6683   9.634  25.691   9.615
  197POPC   PO4 6684   9.886  26.277   9.502
  197POPC   GL1 6685   9.707  26.037   9.164
  197POPC   GL2 6686   9.565  25.721   9.090
  197POPC   C1A 6687   9.785  26.008   8.736
  197POPC   D2A 6688   9.613  26.078   8.361
  197POPC   C3A 6689   9.932  26.189   8.083
  197POPC   C4A 6690  10.110  26.234   7.680
  197POPC   C1B 6691   9.391  25.529   8.684
  197POPC   C2B 6692   9.432  25.587   8.253
  197POPC   C3B 6693   9.738  25.737   7.995
  197POPC   C4B 6694   9.747  25.831   7.591
  198POPC   NC3 6695   6.858  41.151   9.373
  198POPC   PO4 6696   6.775  41.890   9.530
  198POPC   GL1 6697   6.853  41.626   9.165
  198POPC   GL2 6698   6.517  41.426   9.118
  198POPC   C1A 6699   6.779  41.579   8.716
  198POPC   D2A 6700   6.616  41.710   8.337
  198POPC   C3A 6701   6.877  41.637   8.014
  198POPC   C4A 6702   6.941  41.238   7.827
  198POPC   C1B 6703   6.557  41.105   8.742
  198POPC   C2B 6704   6.630  41.169   8.308
  198POPC   C3B 6705   6.470  41.045   7.938
  198POPC   C4B 6706   6.359  41.180   7.556
  199POPC   NC3 6707  37.929  30.452   9.538
  199POPC   PO4 6708  37.332  30.767   9.928
  199POPC   GL1 6709  37.540  30.752   9.423
  199POPC   GL2 6710  37.614  30.443   9.152
  199POPC   C1A 6711  37.585  30.885   8.938
  199POPC   D2A 6712  37.601  30.943   8.479
  199POPC   C3A 6713  37.648  30.651   8.133
  199POPC   C4A 6714  37.698  30.731   7.705
  199POPC   C1B 6715  37.940  30.550   8.793
  199POPC   C2B 6716  38.104  30.710   8.407
  199POPC   C3B 6717  38.183  30.540   8.022
  199POPC   C4B 6718  38.140  30.496   7.605
  200POPC   NC3 6719  36.020  12.074   9.488
  200POPC   PO4 6720  36.513  12.589   9.509
  200POPC   GL1 6721  36.343  12.286   9.145
  200POPC   GL2 6722  35.981  12.280   9.055
  200POPC   C1A 6723  36.312  12.030   8.744
  200POPC   D2A 6724  36.129  11.793   8.388
  200POPC   C3A 6725  36.127  11.979   7.979
  200POPC   C4A 6726  36.380  12.224   7.707
  200POPC   C1B 6727  35.826  11.922   8.813
  200POPC   C2B 6728  35.640  11.917   8.426
  200POPC   C3B 6729  35.724  11.644   8.083
  200POPC   C4B 6730  35.815  11.713   7.673
  201POPC   NC3 6731   0.886  29.770   9.617
  201POPC   PO4 6732   1.539  29.819   9.457
  201POPC   GL1 6733   1.226  29.752   9.184
  201POPC   GL2 6734   1.011  30.053   9.216
  201POPC   C1A 6735   1.411  29.792   8.759
  201POPC   D2A 6736   1.629  29.669   8.378
  201POPC   C3A 6737   1.328  29.636   8.049
  201POPC   C4A 6738   1.272  29.780   7.642
  201POPC   C1B 6739   0.986  30.071   8.785
  201POPC   C2B 6740   1.166  30.007   8.361
  201POPC   C3B 6741   0.939  30.039   7.958
  201POPC   C4B 6742   1.046  30.220   7.549
  202POPC   NC3 6743  43.283  15.510   9.390
  202POPC   PO4 6744  43.270  16.120   9.489
  202POPC   GL1 6745  43.077  15.899   9.126
  202POPC   GL2 6746  43.368  15.808   8.968
  202POPC   C1A 6747  42.941  15.634   8.773
  202POPC   D2A 6748  42.723  15.475   8.433
  202POPC   C3A 6749  42.944  15.667   8.070
  202POPC   C4A 6750  43.160  15.941   7.755
  202POPC   C1B 6751  43.212  16.107   8.652
  202POPC   C2B 6752  43.309  16.186   8.215
  202POPC   C3B 6753  43.569  16.275   7.866
  202POPC   C4B 6754  43.456  16.211   7.433
  203POPC   NC3 6755  25.720  19.786   9.597
  203POPC   PO4 6756  25.059  19.946   9.401
  203POPC   GL1 6757  25.276  19.725   9.116
  203POPC   GL2 6758  25.573  19.872   9.127
  203POPC   C1A 6759  25.341  19.828   8.673
  203POPC   D2A 6760  25.432  19.579   8.328
  203POPC   C3A 6761  25.290  19.762   7.954
  203POPC   C4A 6762  25.197  19.859   7.539
  203POPC   C1B 6763  25.747  20.116   8.821
  203POPC   C2B 6764  25.838  20.068   8.415
  203POPC   C3B 6765  25.582  20.169   8.079
  203POPC   C4B 6766  25.564  20.251   7.658
  204POPC   NC3 6767   3.251  13.655   9.568
  204POPC   PO4 6768   3.883  13.343   9.579
  204POPC   GL1 6769   3.835  13.484   9.110
  204POPC   GL2 6770   3.578  13.711   9.066
  204POPC   C1A 6771   3.861  13.653   8.654
  204POPC   D2A 6772   3.744  13.810   8.249
  204POPC   C3A 6773   3.716  13.482   7.907
  204POPC   C4A 6774   3.689  13.496   7.435
  204POPC   C1B 6775   3.348  13.580   8.715
  204POPC   C2B 6776   3.391  13.449   8.341
  204POPC   C3B 6777   3.283  13.701   8.035
  204POPC   C4B 6778   3.243  13.528   7.676
  205POPC   NC3 6779  36.842  41.904   9.258
  205POPC   PO4 6780  36.743  41.316   9.551
  205POPC   GL1 6781  36.817  41.393   9.123
  205POPC   GL2 6782  37.145  41.182   9.019
  205POPC   C1A 6783  36.648  41.597   8.743
  205POPC   D2A 6784  36.559  41.504   8.346
  205POPC   C3A 6785  36.484  41.808   8.046
  205POPC   C4A 6786  36.544  41.652   7.641
  205POPC   C1B 6787  37.181  41.547   8.818
  205POPC   C2B 6788  37.054  41.750   8.454
  205POPC   C3B 6789  36.993  41.610   8.050
  205POPC   C4B 6790  37.271  41.655   7.706
  206POPC   NC3 6791  30.217  12.999   9.855
  206POPC   PO4 6792  30.402  12.581   9.470
  206POPC   GL1 6793  30.559  12.618   9.012
  206POPC   GL2 6794  30.736  12.325   8.941
  206POPC   C1A 6795  30.585  12.826   8.559
  206POPC   D2A 6796  30.585  13.140   8.181
  206POPC   C3A 6797  30.647  13.102   7.697
  206POPC   C4A 6798  30.733  13.439   7.397
  206POPC   C1B 6799  30.869  12.400   8.506
  206POPC   C2B 6800  30.697  12.575   8.125
  206POPC   C3B 6801  30.647  12.518   7.709
  206POPC   C4B 6802  30.669  12.593   7.286
  207POPC   NC3 6803  13.542  11.686   9.480
  207POPC   PO4 6804  13.866  12.246   9.596
  207POPC   GL1 6805  13.822  12.012   9.188
  207POPC   GL2 6806  13.481  11.899   9.038
  207POPC   C1A 6807  13.895  11.884   8.757
  207POPC   D2A 6808  13.823  12.088   8.386
  207POPC   C3A 6809  13.931  11.910   8.004
  207POPC   C4A 6810  13.865  12.164   7.668
  207POPC   C1B 6811  13.252  11.915   8.663
  207POPC   C2B 6812  13.026  11.987   8.316
  207POPC   C3B 6813  13.250  12.146   7.983
  207POPC   C4B 6814  13.462  11.881   7.746
  208POPC   NC3 6815  35.024   1.725   9.408
  208POPC   PO4 6816  34.762   1.058   9.394
  208POPC   GL1 6817  34.473   1.183   9.071
  208POPC   GL2 6818  34.438   1.523   9.071
  208POPC   C1A 6819  34.193   1.088   8.718
  208POPC   D2A 6820  34.017   1.108   8.281
  208POPC   C3A 6821  34.307   0.955   7.948
  208POPC   C4A 6822  34.773   0.977   7.798
  208POPC   C1B 6823  34.668   1.389   8.676
  208POPC   C2B 6824  34.599   1.212   8.293
  208POPC   C3B 6825  34.512   1.406   7.908
  208POPC   C4B 6826  34.749   1.499   7.557
  209POPC   NC3 6827  27.063   1.275   9.797
  209POPC   PO4 6828  26.650   1.445   9.274
  209POPC   GL1 6829  26.910   1.128   9.073
  209POPC   GL2 6830  26.645   0.965   8.910
  209POPC   C1A 6831  26.974   1.256   8.641
  209POPC   D2A 6832  26.724   1.078   8.309
  209POPC   C3A 6833  26.837   1.228   7.929
  209POPC   C4A 6834  26.623   1.573   7.735
  209POPC   C1B 6835  26.936   0.741   8.636
  209POPC   C2B 6836  26.770   0.573   8.263
  209POPC   C3B 6837  26.560   0.751   7.901
  209POPC   C4B 6838  26.412   1.112   7.678
  210POPC   NC3 6839   6.497  44.978   9.641
  210POPC   PO4 6840   6.649  44.355   9.789
  210POPC   GL1 6841   6.567  44.636   9.272
  210POPC   GL2 6842   6.788  44.504   8.930
  210POPC   C1A 6843   6.514  44.896   8.860
  210POPC   D2A 6844   6.663  44.697   8.448
  210POPC   C3A 6845   6.537  44.849   8.035
  210POPC   C4A 6846   6.716  44.829   7.636
  210POPC   C1B 6847   6.365  44.411   8.721
  210POPC   C2B 6848   6.292  44.396   8.266
  210POPC   C3B 6849   6.481  44.370   7.866
  210POPC   C4B 6850   6.813  44.316   7.550
  211POPC   NC3 6851  40.173  40.249   9.413
  211POPC   PO4 6852  39.772  39.654   9.464
  211POPC   GL1 6853  39.854  39.941   9.146
  211POPC   GL2 6854  40.162  39.789   9.107
  211POPC   C1A 6855  39.809  39.910   8.692
  211POPC   D2A 6856  39.777  40.153   8.321
  211POPC   C3A 6857  39.948  39.957   7.985
  211POPC   C4A 6858  39.922  39.545   7.796
  211POPC   C1B 6859  40.285  40.033   8.794
  211POPC   C2B 6860  40.298  39.999   8.372
  211POPC   C3B 6861  40.451  40.116   7.967
  211POPC   C4B 6862  40.201  40.293   7.642
  212POPC   NC3 6863  16.140   1.449   9.372
  212POPC   PO4 6864  15.809   0.824   9.482
  212POPC   GL1 6865  15.916   0.866   9.038
  212POPC   GL2 6866  16.203   1.065   9.028
  212POPC   C1A 6867  15.868   1.202   8.701
  212POPC   D2A 6868  15.640   1.149   8.357
  212POPC   C3A 6869  15.689   0.899   8.028
  212POPC   C4A 6870  15.825   1.182   7.730
  212POPC   C1B 6871  16.325   1.434   8.758
  212POPC   C2B 6872  16.197   1.537   8.366
  212POPC   C3B 6873  16.404   1.447   7.991
  212POPC   C4B 6874  16.344   1.185   7.632
  213POPC   NC3 6875   5.331  23.123   9.447
  213POPC   PO4 6876   4.760  22.831   9.507
  213POPC   GL1 6877   4.942  22.923   9.161
  213POPC   GL2 6878   5.196  22.669   9.174
  213POPC   C1A 6879   5.122  23.083   8.790
  213POPC   D2A 6880   4.971  23.084   8.378
  213POPC   C3A 6881   5.236  23.159   8.038
  213POPC   C4A 6882   5.035  23.200   7.674
  213POPC   C1B 6883   4.977  22.580   8.782
  213POPC   C2B 6884   5.183  22.623   8.399
  213POPC   C3B 6885   5.022  22.683   7.976
  213POPC   C4B 6886   5.250  22.581   7.620
  214POPC   NC3 6887   6.090  31.222   9.343
  214POPC   PO4 6888   5.710  31.605   9.785
  214POPC   GL1 6889   5.618  31.573   9.275
  214POPC   GL2 6890   5.448  31.347   9.000
  214POPC   C1A 6891   5.732  31.697   8.825
  214POPC   D2A 6892   5.958  31.545   8.448
  214POPC   C3A 6893   5.749  31.564   8.052
  214POPC   C4A 6894   5.920  31.546   7.641
  214POPC   C1B 6895   5.789  31.179   8.744
  214POPC   C2B 6896   5.777  31.069   8.343
  214POPC   C3B 6897   6.026  31.151   8.031
  214POPC   C4B 6898   5.828  31.062   7.706
  215POPC   NC3 6899  17.341  32.569   9.384
  215POPC   PO4 6900  17.267  31.943   9.199
  215POPC   GL1 6901  17.566  32.099   8.987
  215POPC   GL2 6902  17.619  32.413   8.993
  215POPC   C1A 6903  17.530  31.997   8.591
  215POPC   D2A 6904  17.156  32.050   8.371
  215POPC   C3A 6905  17.221  31.930   7.952
  215POPC   C4A 6906  17.421  32.049   7.578
  215POPC   C1B 6907  17.491  32.503   8.595
  215POPC   C2B 6908  17.534  32.352   8.185
  215POPC   C3B 6909  17.696  32.551   7.855
  215POPC   C4B 6910  17.805  32.409   7.487
  216POPC   NC3 6911  24.251  31.918   9.350
  216POPC   PO4 6912  24.584  32.473   9.264
  216POPC   GL1 6913  24.471  32.255   8.960
  216POPC   GL2 6914  24.608  31.966   8.964
  216POPC   C1A 6915  24.460  32.257   8.553
  216POPC   D2A 6916  24.385  32.528   8.283
  216POPC   C3A 6917  24.418  32.201   7.968
  216POPC   C4A 6918  24.535  32.175   7.560
  216POPC   C1B 6919  24.318  31.785   8.661
  216POPC   C2B 6920  24.097  31.926   8.304
  216POPC   C3B 6921  24.092  31.709   7.921
  216POPC   C4B 6922  24.257  31.746   7.520
  217POPC   NC3 6923  24.262   9.287   9.451
  217POPC   PO4 6924  23.638   9.003   9.477
  217POPC   GL1 6925  23.746   8.912   9.103
  217POPC   GL2 6926  23.897   9.228   9.075
  217POPC   C1A 6927  23.466   8.892   8.757
  217POPC   D2A 6928  23.539   8.752   8.372
  217POPC   C3A 6929  23.512   9.141   8.169
  217POPC   C4A 6930  23.327   9.008   7.810
  217POPC   C1B 6931  23.950   9.066   8.645
  217POPC   C2B 6932  24.040   9.042   8.198
  217POPC   C3B 6933  23.845   9.048   7.799
  217POPC   C4B 6934  23.864   9.344   7.444
  218POPC   NC3 6935   3.090  29.320   9.698
  218POPC   PO4 6936   2.657  28.906   9.405
  218POPC   GL1 6937   2.680  29.097   9.042
  218POPC   GL2 6938   2.811  29.433   9.134
  218POPC   C1A 6939   2.790  28.883   8.647
  218POPC   D2A 6940   2.945  28.842   8.214
  218POPC   C3A 6941   2.827  29.104   7.862
  218POPC   C4A 6942   2.815  28.995   7.411
  218POPC   C1B 6943   2.986  29.353   8.710
  218POPC   C2B 6944   2.882  29.419   8.273
  218POPC   C3B 6945   2.548  29.499   7.980
  218POPC   C4B 6946   2.548  29.462   7.526
  219POPC   NC3 6947  22.273  36.899   9.488
  219POPC   PO4 6948  21.667  36.711   9.405
  219POPC   GL1 6949  22.022  36.736   9.055
  219POPC   GL2 6950  22.362  36.916   8.999
  219POPC   C1A 6951  22.201  36.610   8.640
  219POPC   D2A 6952  22.027  36.752   8.256
  219POPC   C3A 6953  22.307  36.753   7.937
  219POPC   C4A 6954  22.410  36.605   7.571
  219POPC   C1B 6955  22.277  37.116   8.581
  219POPC   C2B 6956  22.208  37.220   8.131
  219POPC   C3B 6957  21.898  37.068   7.803
  219POPC   C4B 6958  21.674  37.227   7.414
  220POPC   NC3 6959   2.123  42.018   9.384
  220POPC   PO4 6960   1.897  42.662   9.428
  220POPC   GL1 6961   1.995  42.435   9.130
  220POPC   GL2 6962   1.659  42.431   8.999
  220POPC   C1A 6963   2.163  42.440   8.751
  220POPC   D2A 6964   1.962  42.206   8.429
  220POPC   C3A 6965   2.057  42.235   8.006
  220POPC   C4A 6966   2.288  42.392   7.686
  220POPC   C1B 6967   1.670  42.020   8.805
  220POPC   C2B 6968   1.601  41.744   8.480
  220POPC   C3B 6969   1.606  41.873   8.060
  220POPC   C4B 6970   1.861  41.826   7.715
  221POPC   NC3 6971   5.366  41.062   9.555
  221POPC   PO4 6972   4.906  40.617   9.569
  221POPC   GL1 6973   5.096  40.809   9.195
  221POPC   GL2 6974   4.849  41.097   9.203
  221POPC   C1A 6975   5.316  40.859   8.757
  221POPC   D2A 6976   5.576  40.815   8.382
  221POPC   C3A 6977   5.400  41.029   8.062
  221POPC   C4A 6978   5.206  40.809   7.772
  221POPC   C1B 6979   4.813  40.909   8.772
  221POPC   C2B 6980   4.962  40.918   8.336
  221POPC   C3B 6981   4.742  40.877   7.943
  221POPC   C4B 6982   4.779  40.881   7.500
  222POPC   NC3 6983  23.549  21.383   9.701
  222POPC   PO4 6984  23.895  21.934   9.682
  222POPC   GL1 6985  23.924  21.471   9.400
  222POPC   GL2 6986  23.545  21.499   9.217
  222POPC   C1A 6987  23.898  21.257   8.963
  222POPC   D2A 6988  23.939  21.286   8.503
  222POPC   C3A 6989  23.879  21.496   8.108
  222POPC   C4A 6990  23.863  21.240   7.764
  222POPC   C1B 6991  23.370  21.278   8.847
  222POPC   C2B 6992  23.352  21.123   8.414
  222POPC   C3B 6993  23.407  21.295   7.997
  222POPC   C4B 6994  23.544  21.602   7.647
  223POPC   NC3 6995  41.982  16.486   9.545
  223POPC   PO4 6996  42.707  16.597   9.459
  223POPC   GL1 6997  42.552  16.457   9.099
  223POPC   GL2 6998  42.272  16.301   9.181
  223POPC   C1A 6999  42.444  16.511   8.650
  223POPC   D2A 7000  42.149  16.804   8.438
  223POPC   C3A 7001  42.236  16.935   8.038
  223POPC   C4A 7002  42.407  17.064   7.627
  223POPC   C1B 7003  41.987  16.481   8.870
  223POPC   C2B 7004  41.999  16.329   8.454
  223POPC   C3B 7005  42.305  16.415   8.135
  223POPC   C4B 7006  42.349  16.544   7.709
  224POPC   NC3 7007  17.873  17.275   9.404
  224POPC   PO4 7008  18.557  17.392   9.510
  224POPC   GL1 7009  18.339  17.368   9.167
  224POPC   GL2 7010  18.516  17.131   9.033
  224POPC   C1A 7011  18.092  17.361   8.801
  224POPC   D2A 7012  17.931  17.498   8.476
  224POPC   C3A 7013  18.014  17.423   8.061
  224POPC   C4A 7014  18.182  17.629   7.703
  224POPC   C1B 7015  18.591  17.415   8.670
  224POPC   C2B 7016  18.528  17.507   8.232
  224POPC   C3B 7017  18.614  17.370   7.809
  224POPC   C4B 7018  18.476  17.306   7.368
  225POPC   NC3 7019  26.158  27.068   9.513
  225POPC   PO4 7020  25.952  26.388   9.514
  225POPC   GL1 7021  26.123  26.639   9.217
  225POPC   GL2 7022  25.811  26.590   9.022
  225POPC   C1A 7023  26.248  26.803   8.829
  225POPC   D2A 7024  26.149  27.055   8.486
  225POPC   C3A 7025  26.206  26.878   8.070
  225POPC   C4A 7026  25.971  26.787   7.743
  225POPC   C1B 7027  25.837  26.348   8.644
  225POPC   C2B 7028  25.914  26.460   8.205
  225POPC   C3B 7029  25.801  26.323   7.811
  225POPC   C4B 7030  25.759  26.474   7.364
  226POPC   NC3 7031  13.913  39.739   9.553
  226POPC   PO4 7032  14.390  40.177   9.696
  226POPC   GL1 7033  14.302  40.204   9.256
  226POPC   GL2 7034  14.201  39.882   9.175
  226POPC   C1A 7035  14.435  40.142   8.804
  226POPC   D2A 7036  14.644  39.828   8.493
  226POPC   C3A 7037  14.714  40.050   8.087
  226POPC   C4A 7038  14.436  40.354   7.896
  226POPC   C1B 7039  14.020  39.815   8.792
  226POPC   C2B 7040  14.132  39.638   8.414
  226POPC   C3B 7041  14.188  39.919   8.070
  226POPC   C4B 7042  14.409  39.869   7.696
  227POPC   NC3 7043  27.237  24.893   9.473
  227POPC   PO4 7044  26.612  24.962   9.399
  227POPC   GL1 7045  26.902  25.191   9.137
  227POPC   GL2 7046  26.975  25.552   9.160
  227POPC   C1A 7047  26.699  25.340   8.769
  227POPC   D2A 7048  26.822  25.321   8.368
  227POPC   C3A 7049  26.572  25.299   7.989
  227POPC   C4A 7050  26.876  25.061   7.776
  227POPC   C1B 7051  27.144  25.610   8.725
  227POPC   C2B 7052  27.322  25.490   8.311
  227POPC   C3B 7053  27.067  25.495   7.959
  227POPC   C4B 7054  26.833  25.630   7.613
  228POPC   NC3 7055  35.261  12.406   9.556
  228POPC   PO4 7056  35.647  11.875   9.672
  228POPC   GL1 7057  35.554  11.881   9.232
  228POPC   GL2 7058  35.490  12.214   9.147
  228POPC   C1A 7059  35.294  11.921   8.816
  228POPC   D2A 7060  35.036  11.832   8.472
  228POPC   C3A 7061  35.255  11.881   8.081
  228POPC   C4A 7062  35.288  11.743   7.661
  228POPC   C1B 7063  35.603  12.377   8.729
  228POPC   C2B 7064  35.515  12.411   8.306
  228POPC   C3B 7065  35.652  12.183   7.971
  228POPC   C4B 7066  35.418  12.243   7.642
  229POPC   NC3 7067  42.980  11.835   9.534
  229POPC   PO4 7068  43.196  12.312   9.947
  229POPC   GL1 7069  43.214  12.211   9.334
  229POPC   GL2 7070  43.341  11.905   9.102
  229POPC   C1A 7071  43.190  12.304   8.840
  229POPC   D2A 7072  43.312  12.095   8.447
  229POPC   C3A 7073  43.093  12.246   8.066
  229POPC   C4A 7074  43.251  12.176   7.660
  229POPC   C1B 7075  42.949  11.845   8.871
  229POPC   C2B 7076  42.713  11.720   8.517
  229POPC   C3B 7077  42.902  11.788   8.175
  229POPC   C4B 7078  42.879  11.870   7.775
  230POPC   NC3 7079  24.688   0.290   9.488
  230POPC   PO4 7080  24.198   0.707   9.482
  230POPC   GL1 7081  24.279   0.384   9.176
  230POPC   GL2 7082  24.361   0.002   9.157
  230POPC   C1A 7083  24.484   0.372   8.801
  230POPC   D2A 7084  24.444   0.690   8.529
  230POPC   C3A 7085  24.600   0.567   8.155
  230POPC   C4A 7086  24.483   0.628   7.728
  230POPC   C1B 7087  24.040   0.122   8.796
  230POPC   C2B 7088  24.123   0.330   8.369
  230POPC   C3B 7089  24.353   0.155   7.987
  230POPC   C4B 7090  24.358   0.160   7.507
  231POPC   NC3 7091  36.173  42.678   9.594
  231POPC   PO4 7092  36.581  42.155   9.541
  231POPC   GL1 7093  36.213  42.254   9.244
  231POPC   GL2 7094  35.970  42.534   9.144
  231POPC   C1A 7095  36.284  42.337   8.809
  231POPC   D2A 7096  36.462  42.575   8.471
  231POPC   C3A 7097  36.391  42.305   8.139
  231POPC   C4A 7098  36.439  42.268   7.728
  231POPC   C1B 7099  36.039  42.782   8.784
  231POPC   C2B 7100  35.970  42.608   8.377
  231POPC   C3B 7101  36.086  42.661   7.965
  231POPC   C4B 7102  35.928  42.367   7.719
  232POPC   NC3 7103  25.939  32.142   9.615
  232POPC   PO4 7104  26.508  32.576   9.651
  232POPC   GL1 7105  26.318  32.370   9.266
  232POPC   GL2 7106  26.183  32.040   9.173
  232POPC   C1A 7107  26.155  32.452   8.825
  232POPC   D2A 7108  25.894  32.751   8.611
  232POPC   C3A 7109  25.821  32.603   8.203
  232POPC   C4A 7110  25.892  32.272   7.898
  232POPC   C1B 7111  25.931  32.015   8.795
  232POPC   C2B 7112  26.097  32.098   8.357
  232POPC   C3B 7113  26.209  31.878   7.949
  232POPC   C4B 7114  25.924  31.565   7.762
  233POPC   NC3 7115  34.882  32.258   9.345
  233POPC   PO4 7116  34.395  31.883   9.667
  233POPC   GL1 7117  34.413  32.086   9.218
  233POPC   GL2 7118  34.639  31.969   8.955
  233POPC   C1A 7119  34.501  32.431   8.857
  233POPC   D2A 7120  34.528  32.273   8.434
  233POPC   C3A 7121  34.780  32.424   8.076
  233POPC   C4A 7122  34.596  32.597   7.725
  233POPC   C1B 7123  34.217  31.982   8.753
  233POPC   C2B 7124  34.102  31.945   8.316
  233POPC   C3B 7125  34.375  32.129   7.962
  233POPC   C4B 7126  34.514  32.006   7.548
  234POPC   NC3 7127  13.011  15.024   9.443
  234POPC   PO4 7128  12.370  14.826   9.442
  234POPC   GL1 7129  12.631  15.060   9.089
  234POPC   GL2 7130  12.923  14.892   8.964
  234POPC   C1A 7131  12.689  15.377   8.716
  234POPC   D2A 7132  13.109  15.441   8.475
  234POPC   C3A 7133  13.003  15.259   8.075
  234POPC   C4A 7134  12.702  15.282   7.750
  234POPC   C1B 7135  12.968  14.952   8.547
  234POPC   C2B 7136  12.880  14.759   8.177
  234POPC   C3B 7137  12.935  14.791   7.748
  234POPC   C4B 7138  13.149  14.750   7.337
  235POPC   NC3 7139  23.932  25.623   9.431
  235POPC   PO4 7140  23.431  26.189   9.592
  235POPC   GL1 7141  23.564  25.995   9.236
  235POPC   GL2 7142  23.903  26.116   9.227
  235POPC   C1A 7143  23.526  26.135   8.837
  235POPC   D2A 7144  23.630  26.369   8.486
  235POPC   C3A 7145  23.566  26.173   8.108
  235POPC   C4A 7146  23.304  26.127   7.750
  235POPC   C1B 7147  24.001  25.915   8.810
  235POPC   C2B 7148  24.018  26.049   8.388
  235POPC   C3B 7149  24.064  26.201   7.973
  235POPC   C4B 7150  23.799  26.002   7.675
  236POPC   NC3 7151  23.933  28.549   9.389
  236POPC   PO4 7152  23.254  28.454   9.202
  236POPC   GL1 7153  23.371  28.677   8.854
  236POPC   GL2 7154  23.754  28.602   8.869
  236POPC   C1A 7155  23.477  28.636   8.417
  236POPC   D2A 7156  23.882  28.465   8.351
  236POPC   C3A 7157  23.997  28.397   7.954
  236POPC   C4A 7158  23.672  28.486   7.748
  236POPC   C1B 7159  23.597  28.218   8.725
  236POPC   C2B 7160  23.336  28.114   8.419
  236POPC   C3B 7161  23.576  28.112   8.080
  236POPC   C4B 7162  23.496  27.974   7.703
  237POPC   NC3 7163  29.282   3.746   9.402
  237POPC   PO4 7164  28.891   3.238   9.506
  237POPC   GL1 7165  28.959   3.512   9.099
  237POPC   GL2 7166  29.346   3.545   8.955
  237POPC   C1A 7167  28.987   3.757   8.699
  237POPC   D2A 7168  29.079   3.450   8.392
  237POPC   C3A 7169  28.842   3.477   8.017
  237POPC   C4A 7170  28.889   3.812   7.710
  237POPC   C1B 7171  29.456   3.205   8.730
  237POPC   C2B 7172  29.474   3.124   8.315
  237POPC   C3B 7173  29.381   3.422   7.961
  237POPC   C4B 7174  29.092   3.365   7.595
  238POPC   NC3 7175   9.980  13.838   9.354
  238POPC   PO4 7176  10.019  14.540   9.422
  238POPC   GL1 7177   9.712  14.446   9.103
  238POPC   GL2 7178   9.427  14.283   9.254
  238POPC   C1A 7179   9.755  14.290   8.728
  238POPC   D2A 7180   9.901  14.366   8.362
  238POPC   C3A 7181   9.909  14.101   8.029
  238POPC   C4A 7182  10.268  14.098   7.789
  238POPC   C1B 7183   9.256  14.251   8.817
  238POPC   C2B 7184   9.392  14.453   8.408
  238POPC   C3B 7185   9.492  14.383   7.950
  238POPC   C4B 7186   9.428  13.957   7.750
  239POPC   NC3 7187  21.093  26.638  10.089
  239POPC   PO4 7188  21.407  26.851   9.491
  239POPC   GL1 7189  21.379  26.738   9.102
  239POPC   GL2 7190  21.508  26.427   9.054
  239POPC   C1A 7191  21.281  26.910   8.715
  239POPC   D2A 7192  21.244  27.238   8.425
  239POPC   C3A 7193  21.215  27.047   8.041
  239POPC   C4A 7194  21.436  26.730   7.827
  239POPC   C1B 7195  21.312  26.375   8.687
  239POPC   C2B 7196  21.270  26.577   8.312
  239POPC   C3B 7197  20.967  26.588   8.027
  239POPC   C4B 7198  21.044  26.374   7.688
  240POPC   NC3 7199  25.886  41.187   9.387
  240POPC   PO4 7200  26.408  41.627   9.433
  240POPC   GL1 7201  26.370  41.407   9.085
  240POPC   GL2 7202  26.012  41.500   9.028
  240POPC   C1A 7203  26.352  41.535   8.661
  240POPC   D2A 7204  26.166  41.558   8.281
  240POPC   C3A 7205  26.394  41.606   7.938
  240POPC   C4A 7206  26.657  41.405   7.730
  240POPC   C1B 7207  25.784  41.477   8.628
  240POPC   C2B 7208  25.692  41.720   8.255
  240POPC   C3B 7209  25.740  41.838   7.808
  240POPC   C4B 7210  25.722  41.936   7.323
  241POPC   NC3 7211  18.957  22.331   9.665
  241POPC   PO4 7212  19.486  22.004   9.622
  241POPC   GL1 7213  19.211  22.123   9.195
  241POPC   GL2 7214  18.914  22.349   9.149
  241POPC   C1A 7215  19.217  22.234   8.722
  241POPC   D2A 7216  18.990  22.017   8.355
  241POPC   C3A 7217  19.017  21.976   7.901
  241POPC   C4A 7218  19.269  21.830   7.597
  241POPC   C1B 7219  18.597  22.225   8.828
  241POPC   C2B 7220  18.407  22.285   8.420
  241POPC   C3B 7221  18.574  22.215   8.015
  241POPC   C4B 7222  18.557  21.886   7.697
  242POPC   NC3 7223  20.628  24.819   9.422
  242POPC   PO4 7224  20.934  24.289   9.756
  242POPC   GL1 7225  20.862  24.337   9.309
  242POPC   GL2 7226  21.097  24.106   9.192
  242POPC   C1A 7227  20.836  24.498   8.862
  242POPC   D2A 7228  20.788  24.469   8.404
  242POPC   C3A 7229  20.395  24.532   8.169
  242POPC   C4A 7230  20.308  24.785   7.808
  242POPC   C1B 7231  20.790  23.987   8.895
  242POPC   C2B 7232  20.579  24.002   8.509
  242POPC   C3B 7233  20.642  24.099   8.083
  242POPC   C4B 7234  20.413  24.254   7.729
  243POPC   NC3 7235  34.074  32.208   9.580
  243POPC   PO4 7236  33.442  32.442   9.649
  243POPC   GL1 7237  33.572  32.315   9.231
  243POPC   GL2 7238  33.912  32.224   9.099
  243POPC   C1A 7239  33.563  32.452   8.801
  243POPC   D2A 7240  33.802  32.333   8.463
  243POPC   C3A 7241  33.614  32.502   8.107
  243POPC   C4A 7242  33.693  32.263   7.740
  243POPC   C1B 7243  33.649  31.954   8.813
  243POPC   C2B 7244  33.537  31.764   8.436
  243POPC   C3B 7245  33.591  31.855   8.030
  243POPC   C4B 7246  33.990  31.854   7.809
  244POPC   NC3 7247  19.554  22.405   9.411
  244POPC   PO4 7248  19.954  21.753   9.476
  244POPC   GL1 7249  20.143  22.010   9.159
  244POPC   GL2 7250  19.968  22.330   9.125
  244POPC   C1A 7251  20.113  22.113   8.698
  244POPC   D2A 7252  20.256  22.227   8.309
  244POPC   C3A 7253  20.004  22.178   7.938
  244POPC   C4A 7254  19.773  21.940   7.637
  244POPC   C1B 7255  19.667  22.037   8.909
  244POPC   C2B 7256  19.636  21.893   8.488
  244POPC   C3B 7257  19.503  22.013   8.078
  244POPC   C4B 7258  19.393  22.299   7.770
  245POPC   NC3 7259  11.867  27.198   9.566
  245POPC   PO4 7260  12.240  27.792   9.466
  245POPC   GL1 7261  12.051  27.633   9.132
  245POPC   GL2 7262  12.390  27.685   8.952
  245POPC   C1A 7263  12.042  27.394   8.757
  245POPC   D2A 7264  12.322  27.410   8.413
  245POPC   C3A 7265  12.111  27.392   8.030
  245POPC   C4A 7266  11.754  27.311   7.788
  245POPC   C1B 7267  12.090  27.861   8.598
  245POPC   C2B 7268  11.953  27.861   8.170
  245POPC   C3B 7269  12.008  27.811   7.725
  245POPC   C4B 7270  12.329  27.845   7.389
  246POPC   NC3 7271  20.254  36.511   9.538
  246POPC   PO4 7272  19.693  36.905   9.528
  246POPC   GL1 7273  19.812  36.651   9.166
  246POPC   GL2 7274  19.519  36.776   9.042
  246POPC   C1A 7275  19.897  36.822   8.722
  246POPC   D2A 7276  19.881  37.236   8.462
  246POPC   C3A 7277  19.801  37.166   8.022
  246POPC   C4A 7278  19.765  36.729   7.897
  246POPC   C1B 7279  19.465  37.066   8.708
  246POPC   C2B 7280  19.527  36.880   8.326
  246POPC   C3B 7281  19.340  36.983   7.914
  246POPC   C4B 7282  19.562  37.008   7.528
  247POPC   NC3 7283  36.415  40.193   9.390
  247POPC   PO4 7284  35.810  39.999   9.617
  247POPC   GL1 7285  35.809  39.975   9.164
  247POPC   GL2 7286  36.096  39.787   9.063
  247POPC   C1A 7287  35.721  40.153   8.757
  247POPC   D2A 7288  35.950  40.476   8.495
  247POPC   C3A 7289  35.826  40.366   8.092
  247POPC   C4A 7290  36.039  40.173   7.779
  247POPC   C1B 7291  36.231  40.116   8.764
  247POPC   C2B 7292  36.420  40.114   8.348
  247POPC   C3B 7293  36.475  39.935   7.926
  247POPC   C4B 7294  36.739  39.786   7.607
  248POPC   NC3 7295  19.879  10.990   9.909
  248POPC   PO4 7296  19.793  11.449   9.422
  248POPC   GL1 7297  19.941  11.232   9.095
  248POPC   GL2 7298  19.609  11.239   8.967
  248POPC   C1A 7299  20.044  11.405   8.713
  248POPC   D2A 7300  19.918  11.625   8.349
  248POPC   C3A 7301  20.007  11.350   8.027
  248POPC   C4A 7302  20.020  10.975   7.790
  248POPC   C1B 7303  19.785  10.952   8.665
  248POPC   C2B 7304  19.732  10.871   8.228
  248POPC   C3B 7305  19.518  11.049   7.890
  248POPC   C4B 7306  19.593  11.035   7.431
  249POPC   NC3 7307  38.591  16.833   9.739
  249POPC   PO4 7308  38.082  16.524   9.572
  249POPC   GL1 7309  38.202  16.763   9.201
  249POPC   GL2 7310  38.569  16.688   9.165
  249POPC   C1A 7311  38.246  16.890   8.762
  249POPC   D2A 7312  38.615  16.854   8.477
  249POPC   C3A 7313  38.550  16.708   8.074
  249POPC   C4A 7314  38.482  16.978   7.746
  249POPC   C1B 7315  38.351  16.404   8.841
  249POPC   C2B 7316  38.239  16.465   8.431
  249POPC   C3B 7317  38.196  16.329   8.025
  249POPC   C4B 7318  38.237  16.527   7.666
  250POPC   NC3 7319  32.924  10.992   9.276
  250POPC   PO4 7320  32.836  10.387   9.532
  250POPC   GL1 7321  33.102  10.518   9.178
  250POPC   GL2 7322  32.753  10.556   9.047
  250POPC   C1A 7323  33.140  10.714   8.739
  250POPC   D2A 7324  32.902  10.503   8.459
  250POPC   C3A 7325  33.025  10.341   8.090
  250POPC   C4A 7326  33.347  10.362   7.777
  250POPC   C1B 7327  32.599  10.845   8.751
  250POPC   C2B 7328  32.791  11.008   8.404
  250POPC   C3B 7329  32.703  10.781   8.064
  250POPC   C4B 7330  32.827  10.598   7.708
  251POPC   NC3 7331  37.517  20.231   9.539
  251POPC   PO4 7332  37.916  19.750   9.462
  251POPC   GL1 7333  37.739  19.734   9.059
  251POPC   GL2 7334  37.704  20.062   9.095
  251POPC   C1A 7335  37.645  19.861   8.623
  251POPC   D2A 7336  37.692  19.628   8.295
  251POPC   C3A 7337  37.940  19.777   7.978
  251POPC   C4A 7338  37.948  19.705   7.531
  251POPC   C1B 7339  37.292  20.137   8.865
  251POPC   C2B 7340  37.300  20.189   8.395
  251POPC   C3B 7341  37.383  19.939   8.004
  251POPC   C4B 7342  37.523  19.974   7.565
  252POPC   NC3 7343  12.023  36.385   9.548
  252POPC   PO4 7344  12.013  35.816   9.795
  252POPC   GL1 7345  11.930  35.921   9.281
  252POPC   GL2 7346  12.228  36.075   9.138
  252POPC   C1A 7347  11.834  36.165   8.837
  252POPC   D2A 7348  12.032  36.123   8.410
  252POPC   C3A 7349  11.983  36.347   8.029
  252POPC   C4A 7350  12.006  36.208   7.615
  252POPC   C1B 7351  12.378  35.948   8.736
  252POPC   C2B 7352  12.608  36.161   8.391
  252POPC   C3B 7353  12.536  36.295   7.970
  252POPC   C4B 7354  12.394  35.937   7.797
  253POPC   NC3 7355  21.738  44.237   9.336
  253POPC   PO4 7356  21.610  44.874   9.450
  253POPC   GL1 7357  21.359  44.617   9.179
  253POPC   GL2 7358  21.572  44.443   8.903
  253POPC   C1A 7359  21.154  44.730   8.791
  253POPC   D2A 7360  21.274  44.566   8.388
  253POPC   C3A 7361  21.137  44.811   8.075
  253POPC   C4A 7362  21.028  44.731   7.686
  253POPC   C1B 7363  21.804  44.848   8.795
  253POPC   C2B 7364  21.931  44.921   8.367
  253POPC   C3B 7365  21.679  44.690   8.099
  253POPC   C4B 7366  21.531  44.770   7.722
  254POPC   NC3 7367  19.414   1.385   9.429
  254POPC   PO4 7368  18.902   1.026   9.664
  254POPC   GL1 7369  19.111   0.982   9.241
  254POPC   GL2 7370  19.426   0.798   9.192
  254POPC   C1A 7371  18.982   1.166   8.830
  254POPC   D2A 7372  18.807   1.270   8.414
  254POPC   C3A 7373  18.969   1.510   8.061
  254POPC   C4A 7374  19.088   1.344   7.656
  254POPC   C1B 7375  19.419   0.922   8.778
  254POPC   C2B 7376  19.328   1.170   8.439
  254POPC   C3B 7377  19.198   1.039   8.043
  254POPC   C4B 7378  19.423   0.768   7.763
  255POPC   NC3 7379  11.642  31.342   9.774
  255POPC   PO4 7380  11.170  31.491   9.335
  255POPC   GL1 7381  11.201  31.743   9.008
  255POPC   GL2 7382  11.474  31.509   8.907
  255POPC   C1A 7383  11.218  31.771   8.561
  255POPC   D2A 7384  11.410  31.467   8.300
  255POPC   C3A 7385  11.359  31.549   7.881
  255POPC   C4A 7386  11.521  31.906   7.745
  255POPC   C1B 7387  11.127  31.270   8.700
  255POPC   C2B 7388  11.003  31.156   8.288
  255POPC   C3B 7389  11.237  31.061   7.902
  255POPC   C4B 7390  11.233  31.230   7.479
  256POPC   NC3 7391  10.174  35.916   9.483
  256POPC   PO4 7392  10.702  36.342   9.405
  256POPC   GL1 7393  10.483  36.104   9.120
  256POPC   GL2 7394  10.290  36.370   9.057
  256POPC   C1A 7395  10.414  35.960   8.703
  256POPC   D2A 7396  10.594  36.093   8.299
  256POPC   C3A 7397  10.628  35.790   8.002
  256POPC   C4A 7398  10.409  35.809   7.639
  256POPC   C1B 7399  10.398  36.454   8.629
  256POPC   C2B 7400  10.097  36.240   8.353
  256POPC   C3B 7401  10.169  36.139   7.940
  256POPC   C4B 7402  10.597  36.260   7.772
  257POPC   NC3 7403   6.026   0.834   9.549
  257POPC   PO4 7404   5.586   1.475   9.421
  257POPC   GL1 7405   5.832   1.301   9.065
  257POPC   GL2 7406   6.066   1.016   9.083
  257POPC   C1A 7407   5.781   1.323   8.610
  257POPC   D2A 7408   5.680   1.307   8.181
  257POPC   C3A 7409   5.929   1.578   7.955
  257POPC   C4A 7410   6.030   1.545   7.557
  257POPC   C1B 7411   5.839   0.836   8.735
  257POPC   C2B 7412   5.949   0.832   8.310
  257POPC   C3B 7413   5.889   0.935   7.891
  257POPC   C4B 7414   5.920   0.982   7.453
  258POPC   NC3 7415  10.500  14.479   9.432
  258POPC   PO4 7416  10.410  13.837   9.528
  258POPC   GL1 7417  10.487  14.054   9.127
  258POPC   GL2 7418  10.178  14.220   9.063
  258POPC   C1A 7419  10.521  14.242   8.694
  258POPC   D2A 7420  10.392  14.249   8.272
  258POPC   C3A 7421  10.638  14.407   7.932
  258POPC   C4A 7422  10.699  14.269   7.516
  258POPC   C1B 7423  10.175  14.608   8.793
  258POPC   C2B 7424  10.180  14.795   8.385
  258POPC   C3B 7425  10.131  14.590   7.954
  258POPC   C4B 7426  10.262  14.518   7.511
  259POPC   NC3 7427  40.627  20.282   9.469
  259POPC   PO4 7428  41.085  19.738   9.422
  259POPC   GL1 7429  40.875  19.991   9.122
  259POPC   GL2 7430  40.993  20.343   9.096
  259POPC   C1A 7431  40.625  19.826   8.783
  259POPC   D2A 7432  40.515  19.534   8.421
  259POPC   C3A 7433  40.647  19.676   8.036
  259POPC   C4A 7434  40.870  19.602   7.677
  259POPC   C1B 7435  40.765  20.320   8.695
  259POPC   C2B 7436  40.462  20.096   8.384
  259POPC   C3B 7437  40.362  20.086   7.941
  259POPC   C4B 7438  40.740  20.088   7.766
  260POPC   NC3 7439  18.888   2.234   9.468
  260POPC   PO4 7440  19.440   1.838   9.355
  260POPC   GL1 7441  19.072   1.907   9.128
  260POPC   GL2 7442  18.899   1.611   9.084
  260POPC   C1A 7443  18.965   2.095   8.746
  260POPC   D2A 7444  19.262   2.118   8.398
  260POPC   C3A 7445  19.102   2.027   7.985
  260POPC   C4A 7446  18.855   2.252   7.657
  260POPC   C1B 7447  19.219   1.623   8.707
  260POPC   C2B 7448  19.415   1.643   8.277
  260POPC   C3B 7449  19.433   1.692   7.809
  260POPC   C4B 7450  19.401   1.622   7.329
  261POPC   NC3 7451  21.225   3.120   9.533
  261POPC   PO4 7452  21.131   2.571  10.042
  261POPC   GL1 7453  21.221   2.605   9.511
  261POPC   GL2 7454  21.516   2.757   9.295
  261POPC   C1A 7455  21.213   2.443   9.034
  261POPC   D2A 7456  21.194   2.561   8.587
  261POPC   C3A 7457  21.095   2.474   8.124
  261POPC   C4A 7458  21.340   2.687   7.754
  261POPC   C1B 7459  21.419   2.975   8.876
  261POPC   C2B 7460  21.674   3.050   8.487
  261POPC   C3B 7461  21.623   3.120   8.043
  261POPC   C4B 7462  21.803   3.159   7.655
  262POPC   NC3 7463  43.202  24.304   9.355
  262POPC   PO4 7464  42.776  24.735   9.661
  262POPC   GL1 7465  42.856  24.644   9.220
  262POPC   GL2 7466  43.121  24.844   9.234
  262POPC   C1A 7467  42.869  24.379   8.799
  262POPC   D2A 7468  43.202  24.312   8.466
  262POPC   C3A 7469  43.133  24.191   8.034
  262POPC   C4A 7470  42.836  24.131   7.697
  262POPC   C1B 7471  43.253  24.752   8.830
  262POPC   C2B 7472  43.252  24.980   8.449
  262POPC   C3B 7473  43.113  24.728   8.109
  262POPC   C4B 7474  43.171  24.700   7.683
  263POPC   NC3 7475  21.542  14.855   9.465
  263POPC   PO4 7476  21.064  15.269   9.818
  263POPC   GL1 7477  21.179  15.237   9.340
  263POPC   GL2 7478  21.450  15.455   9.240
  263POPC   C1A 7479  21.274  15.093   8.882
  263POPC   D2A 7480  21.014  14.941   8.522
  263POPC   C3A 7481  21.129  15.054   8.087
  263POPC   C4A 7482  21.229  15.279   7.698
  263POPC   C1B 7483  21.709  15.400   8.846
  263POPC   C2B 7484  21.835  15.191   8.471
  263POPC   C3B 7485  21.642  15.207   8.058
  263POPC   C4B 7486  21.711  15.044   7.650
  264POPC   NC3 7487   4.651  20.653   9.424
  264POPC   PO4 7488   3.991  20.515   9.415
  264POPC   GL1 7489   4.006  20.712   9.041
  264POPC   GL2 7490   3.805  20.445   8.924
  264POPC   C1A 7491   4.281  20.927   8.738
  264POPC   D2A 7492   4.529  20.728   8.416
  264POPC   C3A 7493   4.467  20.760   7.971
  264POPC   C4A 7494   4.441  20.655   7.533
  264POPC   C1B 7495   4.146  20.438   8.629
  264POPC   C2B 7496   4.289  20.315   8.218
  264POPC   C3B 7497   4.526  20.243   7.810
  264POPC   C4B 7498   4.550  20.212   7.327
  265POPC   NC3 7499  22.436  34.367   9.572
  265POPC   PO4 7500  21.991  34.857   9.489
  265POPC   GL1 7501  21.998  34.496   9.246
  265POPC   GL2 7502  22.321  34.509   9.093
  265POPC   C1A 7503  21.878  34.411   8.833
  265POPC   D2A 7504  22.010  34.564   8.427
  265POPC   C3A 7505  21.894  34.690   8.003
  265POPC   C4A 7506  22.222  34.687   7.661
  265POPC   C1B 7507  22.348  34.271   8.705
  265POPC   C2B 7508  22.420  34.041   8.346
  265POPC   C3B 7509  22.279  34.331   8.041
  265POPC   C4B 7510  21.956  34.250   7.754
  266POPC   NC3 7511   4.123   1.424   9.454
  266POPC   PO4 7512   4.216   0.757   9.310
  266POPC   GL1 7513   4.426   1.142   9.140
  266POPC   GL2 7514   4.374   0.990   8.822
  266POPC   C1A 7515   4.354   1.481   8.817
  266POPC   D2A 7516   4.321   1.277   8.407
  266POPC   C3A 7517   4.232   1.479   8.052
  266POPC   C4A 7518   4.226   1.362   7.652
  266POPC   C1B 7519   3.945   1.184   8.788
  266POPC   C2B 7520   3.778   1.208   8.384
  266POPC   C3B 7521   3.967   1.057   7.999
  266POPC   C4B 7522   3.823   0.821   7.671
  267POPC   NC3 7523   1.937  23.748   9.499
  267POPC   PO4 7524   2.635  23.720   9.380
  267POPC   GL1 7525   2.259  23.628   9.108
  267POPC   GL2 7526   2.028  23.914   9.038
  267POPC   C1A 7527   2.088  23.492   8.725
  267POPC   D2A 7528   2.020  23.296   8.336
  267POPC   C3A 7529   2.150  23.549   7.994
  267POPC   C4A 7530   1.765  23.678   7.856
  267POPC   C1B 7531   2.394  23.977   8.753
  267POPC   C2B 7532   2.346  23.909   8.329
  267POPC   C3B 7533   1.954  24.046   8.136
  267POPC   C4B 7534   1.888  24.190   7.717
  268POPC   NC3 7535  36.000  25.011   9.461
  268POPC   PO4 7536  36.314  25.565   9.458
  268POPC   GL1 7537  36.266  25.305   9.098
  268POPC   GL2 7538  35.893  25.305   9.056
  268POPC   C1A 7539  36.194  25.195   8.659
  268POPC   D2A 7540  35.897  25.353   8.338
  268POPC   C3A 7541  36.099  25.352   7.919
  268POPC   C4A 7542  36.386  24.999   7.887
  268POPC   C1B 7543  35.811  24.892   8.832
  268POPC   C2B 7544  35.851  24.709   8.410
  268POPC   C3B 7545  35.864  24.905   8.024
  268POPC   C4B 7546  35.638  25.068   7.688
  269POPC   NC3 7547  44.842  14.786   9.559
  269POPC   PO4 7548  44.674  15.451   9.631
  269POPC   GL1 7549  44.586  15.179   9.244
  269POPC   GL2 7550  44.926  15.134   9.172
  269POPC   C1A 7551  44.643  14.971   8.795
  269POPC   D2A 7552   0.001  14.769   8.559
  269POPC   C3A 7553  44.955  14.831   8.098
  269POPC   C4A 7554  44.586  14.905   7.823
  269POPC   C1B 7555  44.746  15.490   8.880
  269POPC   C2B 7556  44.673  15.579   8.436
  269POPC   C3B 7557  44.733  15.327   8.080
  269POPC   C4B 7558  44.990  15.265   7.738
  270POPC   NC3 7559  39.873   0.550   9.428
  270POPC   PO4 7560  40.423   0.112   9.470
  270POPC   GL1 7561  40.161   0.281   9.091
  270POPC   GL2 7562  39.756   0.276   9.007
  270POPC   C1A 7563  40.099   0.400   8.656
  270POPC   D2A 7564  40.011   0.594   8.294
  270POPC   C3A 7565  40.112   0.421   7.907
  270POPC   C4A 7566  40.318   0.529   7.510
  270POPC   C1B 7567  39.636   0.649   8.700
  270POPC   C2B 7568  39.531   0.786   8.240
  270POPC   C3B 7569  39.569   0.632   7.775
  270POPC   C4B 7570  39.826   0.438   7.477
  271POPC   NC3 7571  35.013  39.895   9.470
  271POPC   PO4 7572  34.326  39.777   9.553
  271POPC   GL1 7573  34.461  40.102   9.257
  271POPC   GL2 7574  34.799  40.092   9.051
  271POPC   C1A 7575  34.321  40.029   8.854
  271POPC   D2A 7576  34.619  39.821   8.601
  271POPC   C3A 7577  34.636  40.028   8.231
  271POPC   C4A 7578  34.624  39.881   7.808
  271POPC   C1B 7579  34.671  40.372   8.708
  271POPC   C2B 7580  34.363  40.493   8.400
  271POPC   C3B 7581  34.251  40.327   8.014
  271POPC   C4B 7582  34.406  40.288   7.594
  272POPC   NC3 7583  27.157   1.495   9.321
  272POPC   PO4 7584  27.623   0.986   9.514
  272POPC   GL1 7585  27.480   1.101   9.116
  272POPC   GL2 7586  27.688   1.351   9.101
  272POPC   C1A 7587  27.786   1.049   8.733
  272POPC   D2A 7588  27.817   1.269   8.353
  272POPC   C3A 7589  27.644   1.021   8.065
  272POPC   C4A 7590  27.306   1.093   7.788
  272POPC   C1B 7591  27.457   1.433   8.696
  272POPC   C2B 7592  27.300   1.397   8.246
  272POPC   C3B 7593  27.554   1.512   7.907
  272POPC   C4B 7594  27.932   1.351   7.826
  273POPC   NC3 7595  14.383  38.799   9.701
  273POPC   PO4 7596  14.247  39.426   9.460
  273POPC   GL1 7597  14.452  39.164   9.177
  273POPC   GL2 7598  14.354  39.438   8.938
  273POPC   C1A 7599  14.517  38.996   8.781
  273POPC   D2A 7600  14.519  39.254   8.412
  273POPC   C3A 7601  14.494  39.005   8.044
  273POPC   C4A 7602  14.512  38.967   7.642
  273POPC   C1B 7603  14.050  39.178   8.682
  273POPC   C2B 7604  14.028  39.151   8.245
  273POPC   C3B 7605  14.247  39.420   7.943
  273POPC   C4B 7606  14.336  39.418   7.494
  274POPC   NC3 7607  36.657  39.289   9.475
  274POPC   PO4 7608  37.016  39.804   9.689
  274POPC   GL1 7609  36.988  39.573   9.227
  274POPC   GL2 7610  37.061  39.196   9.170
  274POPC   C1A 7611  36.920  39.487   8.763
  274POPC   D2A 7612  36.860  39.730   8.398
  274POPC   C3A 7613  36.789  39.522   8.046
  274POPC   C4A 7614  36.897  39.318   7.675
  274POPC   C1B 7615  36.780  39.004   8.844
  274POPC   C2B 7616  36.629  39.164   8.443
  274POPC   C3B 7617  36.694  39.009   8.035
  274POPC   C4B 7618  37.116  38.907   7.883
  275POPC   NC3 7619   6.163  21.007   9.472
  275POPC   PO4 7620   5.590  21.358   9.509
  275POPC   GL1 7621   5.700  21.456   9.102
  275POPC   GL2 7622   5.703  21.139   9.000
  275POPC   C1A 7623   6.007  21.486   8.762
  275POPC   D2A 7624   6.040  21.559   8.308
  275POPC   C3A 7625   5.815  21.358   7.969
  275POPC   C4A 7626   6.087  21.497   7.638
  275POPC   C1B 7627   6.050  20.970   8.756
  275POPC   C2B 7628   6.309  21.133   8.416
  275POPC   C3B 7629   6.293  21.125   7.973
  275POPC   C4B 7630   5.984  20.920   7.712
  276POPC   NC3 7631  38.909  10.824   9.381
  276POPC   PO4 7632  39.292  10.188   9.460
  276POPC   GL1 7633  39.152  10.429   9.102
  276POPC   GL2 7634  39.321  10.735   9.133
  276POPC   C1A 7635  39.138  10.406   8.654
  276POPC   D2A 7636  38.968  10.175   8.305
  276POPC   C3A 7637  39.173  10.309   7.908
  276POPC   C4A 7638  39.092  10.399   7.447
  276POPC   C1B 7639  39.382  10.856   8.726
  276POPC   C2B 7640  39.469  10.658   8.355
  276POPC   C3B 7641  39.446  10.779   7.940
  276POPC   C4B 7642  39.051  10.838   7.730
  277POPC   NC3 7643  27.553  37.923   9.659
  277POPC   PO4 7644  27.588  37.256   9.817
  277POPC   GL1 7645  27.554  37.283   9.311
  277POPC   GL2 7646  27.461  37.627   9.192
  277POPC   C1A 7647  27.690  37.303   8.833
  277POPC   D2A 7648  27.853  37.119   8.430
  277POPC   C3A 7649  27.916  37.431   8.109
  277POPC   C4A 7650  27.727  37.483   7.694
  277POPC   C1B 7651  27.185  37.452   8.839
  277POPC   C2B 7652  27.000  37.429   8.432
  277POPC   C3B 7653  27.184  37.453   8.006
  277POPC   C4B 7654  27.341  37.832   7.837
  278POPC   NC3 7655  40.104  27.224   9.374
  278POPC   PO4 7656  39.806  27.911   9.501
  278POPC   GL1 7657  40.055  27.770   9.179
  278POPC   GL2 7658  40.379  27.946   9.168
  278POPC   C1A 7659  39.945  27.624   8.783
  278POPC   D2A 7660  39.875  27.789   8.375
  278POPC   C3A 7661  39.751  27.490   8.095
  278POPC   C4A 7662  40.002  27.217   7.845
  278POPC   C1B 7663  40.489  27.834   8.733
  278POPC   C2B 7664  40.564  27.561   8.385
  278POPC   C3B 7665  40.288  27.588   8.075
  278POPC   C4B 7666  40.073  27.747   7.783
  279POPC   NC3 7667  31.159  40.933   9.208
  279POPC   PO4 7668  31.590  40.520   9.441
  279POPC   GL1 7669  31.620  40.745   9.080
  279POPC   GL2 7670  31.758  41.068   9.114
  279POPC   C1A 7671  31.440  40.631   8.689
  279POPC   D2A 7672  31.344  40.385   8.350
  279POPC   C3A 7673  31.444  40.540   7.992
  279POPC   C4A 7674  31.264  40.423   7.638
  279POPC   C1B 7675  31.595  41.112   8.682
  279POPC   C2B 7676  31.516  41.039   8.240
  279POPC   C3B 7677  31.730  40.931   7.854
  279POPC   C4B 7678  31.842  41.068   7.460
  280POPC   NC3 7679   3.988  31.909   9.177
  280POPC   PO4 7680   3.473  31.611   9.629
  280POPC   GL1 7681   3.373  31.489   9.185
  280POPC   GL2 7682   3.513  31.768   9.067
  280POPC   C1A 7683   3.390  31.405   8.722
  280POPC   D2A 7684   3.645  31.603   8.355
  280POPC   C3A 7685   3.716  31.292   8.057
  280POPC   C4A 7686   3.504  31.018   7.784
  280POPC   C1B 7687   3.381  31.915   8.666
  280POPC   C2B 7688   3.140  31.698   8.363
  280POPC   C3B 7689   3.194  31.432   8.028
  280POPC   C4B 7690   3.426  31.507   7.682
  281POPC   NC3 7691   6.034  40.324   9.466
  281POPC   PO4 7692   5.824  39.715   9.492
  281POPC   GL1 7693   6.108  39.885   9.191
  281POPC   GL2 7694   5.962  39.631   8.985
  281POPC   C1A 7695   6.095  40.085   8.813
  281POPC   D2A 7696   5.932  39.830   8.467
  281POPC   C3A 7697   5.792  40.043   8.095
  281POPC   C4A 7698   6.035  40.228   7.782
  281POPC   C1B 7699   5.628  39.414   8.757
  281POPC   C2B 7700   5.432  39.368   8.338
  281POPC   C3B 7701   5.522  39.599   7.955
  281POPC   C4B 7702   5.863  39.760   7.660
  282POPC   NC3 7703   6.942  28.469   9.640
  282POPC   PO4 7704   6.701  27.846   9.784
  282POPC   GL1 7705   6.717  28.058   9.362
  282POPC   GL2 7706   6.567  28.404   9.289
  282POPC   C1A 7707   6.839  28.046   8.916
  282POPC   D2A 7708   6.639  28.219   8.526
  282POPC   C3A 7709   6.637  28.140   8.057
  282POPC   C4A 7710   6.408  28.361   7.737
  282POPC   C1B 7711   6.934  28.527   8.995
  282POPC   C2B 7712   6.951  28.629   8.563
  282POPC   C3B 7713   6.672  28.634   8.192
  282POPC   C4B 7714   6.863  28.557   7.790
  283POPC   NC3 7715  37.927  35.867   9.443
  283POPC   PO4 7716  37.886  36.458   9.351
  283POPC   GL1 7717  37.816  36.159   9.024
  283POPC   GL2 7718  37.948  35.833   8.943
  283POPC   C1A 7719  37.709  36.190   8.609
  283POPC   D2A 7720  37.528  36.336   8.227
  283POPC   C3A 7721  37.840  36.233   7.929
  283POPC   C4A 7722  37.884  36.282   7.497
  283POPC   C1B 7723  37.724  35.666   8.597
  283POPC   C2B 7724  37.671  35.768   8.179
  283POPC   C3B 7725  37.408  35.961   7.888
  283POPC   C4B 7726  37.429  35.953   7.422
  284POPC   NC3 7727  34.575  11.107   9.530
  284POPC   PO4 7728  34.085  11.614   9.469
  284POPC   GL1 7729  34.346  11.389   9.111
  284POPC   GL2 7730  34.740  11.340   9.119
  284POPC   C1A 7731  34.516  11.242   8.682
  284POPC   D2A 7732  34.879  11.331   8.416
  284POPC   C3A 7733  34.753  11.374   7.996
  284POPC   C4A 7734  34.393  11.256   7.785
  284POPC   C1B 7735  34.922  10.986   8.894
  284POPC   C2B 7736  34.886  10.820   8.503
  284POPC   C3B 7737  34.981  10.927   8.100
  284POPC   C4B 7738  34.778  10.877   7.754
  285POPC   NC3 7739   0.901  27.939   9.376
  285POPC   PO4 7740   1.301  27.391   9.647
  285POPC   GL1 7741   1.117  27.482   9.205
  285POPC   GL2 7742   1.168  27.802   8.992
  285POPC   C1A 7743   1.279  27.385   8.760
  285POPC   D2A 7744   1.018  27.462   8.411
  285POPC   C3A 7745   1.211  27.654   8.091
  285POPC   C4A 7746   1.223  27.466   7.722
  285POPC   C1B 7747   1.505  27.978   8.806
  285POPC   C2B 7748   1.657  27.957   8.375
  285POPC   C3B 7749   1.495  28.057   7.970
  285POPC   C4B 7750   1.469  27.879   7.549
  286POPC   NC3 7751   6.023  31.831   9.478
  286POPC   PO4 7752   6.154  32.505   9.543
  286POPC   GL1 7753   5.891  32.456   9.172
  286POPC   GL2 7754   5.816  32.116   9.119
  286POPC   C1A 7755   5.882  32.542   8.742
  286POPC   D2A 7756   6.146  32.471   8.387
  286POPC   C3A 7757   5.928  32.464   8.036
  286POPC   C4A 7758   5.830  32.507   7.645
  286POPC   C1B 7759   6.048  32.059   8.694
  286POPC   C2B 7760   5.882  32.017   8.302
  286POPC   C3B 7761   5.971  31.992   7.886
  286POPC   C4B 7762   5.935  32.061   7.428
  287POPC   NC3 7763   5.529  15.675   9.396
  287POPC   PO4 7764   5.019  15.829   9.711
  287POPC   GL1 7765   4.968  15.762   9.255
  287POPC   GL2 7766   5.178  15.536   9.069
  287POPC   C1A 7767   4.984  15.970   8.827
  287POPC   D2A 7768   4.873  16.153   8.400
  287POPC   C3A 7769   5.111  16.169   7.990
  287POPC   C4A 7770   4.954  16.060   7.586
  287POPC   C1B 7771   5.244  15.576   8.651
  287POPC   C2B 7772   5.162  15.744   8.245
  287POPC   C3B 7773   5.283  15.710   7.815
  287POPC   C4B 7774   5.669  15.568   7.706
  288POPC   NC3 7775  37.496  27.016   9.437
  288POPC   PO4 7776  38.154  26.923   9.184
  288POPC   GL1 7777  37.755  26.992   8.976
  288POPC   GL2 7778  37.455  26.738   9.018
  288POPC   C1A 7779  37.826  27.027   8.532
  288POPC   D2A 7780  38.054  26.678   8.325
  288POPC   C3A 7781  37.949  26.707   7.904
  288POPC   C4A 7782  37.664  27.049   7.807
  288POPC   C1B 7783  37.629  26.581   8.646
  288POPC   C2B 7784  37.525  26.725   8.221
  288POPC   C3B 7785  37.485  26.503   7.838
  288POPC   C4B 7786  37.648  26.592   7.473
  289POPC   NC3 7787  27.251  11.808   9.654
  289POPC   PO4 7788  26.580  11.854   9.452
  289POPC   GL1 7789  26.784  11.830   9.067
  289POPC   GL2 7790  26.869  12.153   8.946
  289POPC   C1A 7791  26.745  11.831   8.589
  289POPC   D2A 7792  26.903  12.177   8.340
  289POPC   C3A 7793  27.124  12.015   7.994
  289POPC   C4A 7794  26.992  11.898   7.594
  289POPC   C1B 7795  26.455  12.226   8.743
  289POPC   C2B 7796  26.357  12.063   8.317
  289POPC   C3B 7797  26.618  11.962   7.954
  289POPC   C4B 7798  26.554  12.100   7.499
  290POPC   NC3 7799  16.248  44.039   9.257
  290POPC   PO4 7800  15.753  43.693   9.535
  290POPC   GL1 7801  15.728  43.917   9.168
  290POPC   GL2 7802  15.945  43.696   9.030
  290POPC   C1A 7803  15.644  44.032   8.739
  290POPC   D2A 7804  15.720  43.782   8.350
  290POPC   C3A 7805  15.557  43.959   7.952
  290POPC   C4A 7806  15.755  44.081   7.565
  290POPC   C1B 7807  16.129  43.870   8.662
  290POPC   C2B 7808  16.284  44.040   8.326
  290POPC   C3B 7809  16.089  43.964   7.976
  290POPC   C4B 7810  16.270  44.108   7.635
  291POPC   NC3 7811  13.189  34.318   9.143
  291POPC   PO4 7812  13.679  34.602   9.491
  291POPC   GL1 7813  13.667  34.644   9.078
  291POPC   GL2 7814  13.372  34.868   9.067
  291POPC   C1A 7815  13.714  34.327   8.723
  291POPC   D2A 7816  13.490  34.218   8.333
  291POPC   C3A 7817  13.499  34.552   8.022
  291POPC   C4A 7818  13.729  34.527   7.634
  291POPC   C1B 7819  13.488  34.802   8.624
  291POPC   C2B 7820  13.496  35.071   8.278
  291POPC   C3B 7821  13.304  35.046   7.891
  291POPC   C4B 7822  13.267  34.736   7.577
  292POPC   NC3 7823  23.505   3.969   9.487
  292POPC   PO4 7824  23.504   3.331   9.582
  292POPC   GL1 7825  23.508   3.373   9.159
  292POPC   GL2 7826  23.860   3.335   9.193
  292POPC   C1A 7827  23.360   3.374   8.726
  292POPC   D2A 7828  23.507   3.236   8.308
  292POPC   C3A 7829  23.552   3.603   8.036
  292POPC   C4A 7830  23.528   3.617   7.603
  292POPC   C1B 7831  23.919   3.582   8.849
  292POPC   C2B 7832  23.973   3.478   8.431
  292POPC   C3B 7833  23.978   3.324   8.029
  292POPC   C4B 7834  24.019   3.590   7.690
  293POPC   NC3 7835   1.104  26.981   9.577
  293POPC   PO4 7836   1.697  26.542   9.566
  293POPC   GL1 7837   1.446  26.717   9.206
  293POPC   GL2 7838   1.445  27.092   9.195
  293POPC   C1A 7839   1.542  26.844   8.757
  293POPC   D2A 7840   1.468  26.931   8.321
  293POPC   C3A 7841   1.185  26.602   8.201
  293POPC   C4A 7842   0.895  26.573   7.900
  293POPC   C1B 7843   1.049  26.976   8.934
  293POPC   C2B 7844   0.981  26.959   8.488
  293POPC   C3B 7845   1.052  27.087   8.043
  293POPC   C4B 7846   0.836  27.119   7.653
  294POPC   NC3 7847  12.853   6.695   9.465
  294POPC   PO4 7848  12.373   6.243   9.436
  294POPC   GL1 7849  12.553   6.555   9.098
  294POPC   GL2 7850  12.531   6.941   9.166
  294POPC   C1A 7851  12.912   6.645   8.799
  294POPC   D2A 7852  12.909   6.513   8.350
  294POPC   C3A 7853  13.110   6.467   7.946
  294POPC   C4A 7854  12.738   6.434   7.735
  294POPC   C1B 7855  12.561   7.015   8.727
  294POPC   C2B 7856  12.887   7.000   8.376
  294POPC   C3B 7857  12.930   6.933   7.915
  294POPC   C4B 7858  13.132   6.929   7.493
  295POPC   NC3 7859  12.512  32.118   9.474
  295POPC   PO4 7860  13.196  32.348   9.498
  295POPC   GL1 7861  12.974  32.269   9.118
  295POPC   GL2 7862  13.044  31.963   9.021
  295POPC   C1A 7863  12.839  32.493   8.739
  295POPC   D2A 7864  12.759  32.554   8.345
  295POPC   C3A 7865  12.948  32.275   8.098
  295POPC   C4A 7866  12.881  32.140   7.685
  295POPC   C1B 7867  12.835  31.959   8.643
  295POPC   C2B 7868  12.717  31.836   8.237
  295POPC   C3B 7869  12.420  31.990   7.979
  295POPC   C4B 7870  12.396  31.989   7.557
  296POPC   NC3 7871  29.862   4.142   9.486
  296POPC   PO4 7872  29.526   4.734   9.312
  296POPC   GL1 7873  29.912   4.473   9.075
  296POPC   GL2 7874  30.016   4.080   9.015
  296POPC   C1A 7875  29.852   4.355   8.634
  296POPC   D2A 7876  29.696   4.389   8.214
  296POPC   C3A 7877  30.030   4.406   7.893
  296POPC   C4A 7878  30.107   4.435   7.451
  296POPC   C1B 7879  29.865   3.839   8.652
  296POPC   C2B 7880  29.978   3.961   8.275
  296POPC   C3B 7881  29.772   3.940   7.932
  296POPC   C4B 7882  29.905   3.978   7.571
  297POPC   NC3 7883  31.653  32.982   9.550
  297POPC   PO4 7884  32.371  32.977   9.477
  297POPC   GL1 7885  32.048  33.042   9.176
  297POPC   GL2 7886  31.967  32.688   9.159
  297POPC   C1A 7887  32.136  33.163   8.727
  297POPC   D2A 7888  32.414  33.005   8.390
  297POPC   C3A 7889  32.401  33.101   7.948
  297POPC   C4A 7890  32.451  32.841   7.577
  297POPC   C1B 7891  31.782  32.796   8.752
  297POPC   C2B 7892  31.893  32.934   8.318
  297POPC   C3B 7893  31.996  32.773   7.917
  297POPC   C4B 7894  32.013  33.061   7.605
  298POPC   NC3 7895  38.648  28.120   9.469
  298POPC   PO4 7896  38.038  28.487   9.508
  298POPC   GL1 7897  38.144  28.417   9.101
  298POPC   GL2 7898  38.504  28.378   9.056
  298POPC   C1A 7899  38.229  28.487   8.648
  298POPC   D2A 7900  38.611  28.325   8.473
  298POPC   C3A 7901  38.633  28.289   8.023
  298POPC   C4A 7902  38.336  28.071   7.762
  298POPC   C1B 7903  38.830  28.631   8.829
  298POPC   C2B 7904  38.869  28.745   8.398
  298POPC   C3B 7905  38.452  28.758   8.200
  298POPC   C4B 7906  38.213  28.561   7.869
  299POPC   NC3 7907  34.483  37.425   9.506
  299POPC   PO4 7908  34.219  38.068   9.458
  299POPC   GL1 7909  34.467  37.854   9.144
  299POPC   GL2 7910  34.832  37.819   9.149
  299POPC   C1A 7911  34.484  37.681   8.735
  299POPC   D2A 7912  34.394  37.468   8.374
  299POPC   C3A 7913  34.368  37.673   8.024
  299POPC   C4A 7914  34.438  37.588   7.624
  299POPC   C1B 7915  34.983  37.543   8.793
  299POPC   C2B 7916  34.910  37.449   8.353
  299POPC   C3B 7917  34.888  37.559   7.917
  299POPC   C4B 7918  35.214  37.836   7.767
  300POPC   NC3 7919  11.870  20.558   9.549
  300POPC   PO4 7920  12.491  20.937   9.631
  300POPC   GL1 7921  12.326  20.883   9.225
  300POPC   GL2 7922  12.002  20.997   9.273
  300POPC   C1A 7923  12.210  20.778   8.798
  300POPC   D2A 7924  12.117  20.480   8.472
  300POPC   C3A 7925  12.073  20.621   8.072
  300POPC   C4A 7926  12.061  20.389   7.751
  300POPC   C1B 7927  11.786  21.044   8.886
  300POPC   C2B 7928  11.810  20.940   8.482
  300POPC   C3B 7929  11.674  20.922   8.087
  300POPC   C4B 7930  11.654  20.696   7.720
  301POPC   NC3 7931  32.829   8.951   9.606
  301POPC   PO4 7932  32.157   9.004   9.611
  301POPC   GL1 7933  32.348   8.954   9.175
  301POPC   GL2 7934  32.070   8.831   9.049
  301POPC   C1A 7935  32.447   9.013   8.732
  301POPC   D2A 7936  32.147   9.071   8.384
  301POPC   C3A 7937  32.298   9.014   7.958
  301POPC   C4A 7938  32.476   8.817   7.582
  301POPC   C1B 7939  32.054   8.643   8.681
  301POPC   C2B 7940  31.828   8.668   8.301
  301POPC   C3B 7941  31.979   8.623   7.888
  301POPC   C4B 7942  32.006   8.687   7.428
  302POPC   NC3 7943  37.883  40.791   9.515
  302POPC   PO4 7944  37.256  40.462   9.471
  302POPC   GL1 7945  37.474  40.746   9.091
  302POPC   GL2 7946  37.789  40.970   9.031
  302POPC   C1A 7947  37.776  40.569   8.751
  302POPC   D2A 7948  37.852  40.495   8.323
  302POPC   C3A 7949  37.631  40.758   8.050
  302POPC   C4A 7950  37.811  40.720   7.655
  302POPC   C1B 7951  37.553  41.133   8.690
  302POPC   C2B 7952  37.639  41.329   8.284
  302POPC   C3B 7953  37.603  41.258   7.823
  302POPC   C4B 7954  37.363  40.941   7.587
  303POPC   NC3 7955  13.799  37.134   9.318
  303POPC   PO4 7956  13.575  37.826   9.482
  303POPC   GL1 7957  13.582  37.575   9.136
  303POPC   GL2 7958  13.343  37.323   9.154
  303POPC   C1A 7959  13.706  37.638   8.726
  303POPC   D2A 7960  13.623  37.929   8.381
  303POPC   C3A 7961  13.620  37.721   7.973
  303POPC   C4A 7962  13.927  37.840   7.677
  303POPC   C1B 7963  13.278  37.339   8.762
  303POPC   C2B 7964  13.357  37.474   8.361
  303POPC   C3B 7965  13.335  37.271   7.966
  303POPC   C4B 7966  13.529  37.325   7.592
  304POPC   NC3 7967  25.221  27.424   9.488
  304POPC   PO4 7968  25.321  28.120   9.476
  304POPC   GL1 7969  25.262  27.789   9.146
  304POPC   GL2 7970  25.002  27.516   9.043
  304POPC   C1A 7971  25.449  27.556   8.804
  304POPC   D2A 7972  25.330  27.305   8.444
  304POPC   C3A 7973  25.492  27.473   8.088
  304POPC   C4A 7974  25.207  27.559   7.788
  304POPC   C1B 7975  24.940  27.872   8.761
  304POPC   C2B 7976  24.705  28.016   8.401
  304POPC   C3B 7977  24.905  27.953   8.031
  304POPC   C4B 7978  24.987  27.999   7.621
  305POPC   NC3 7979  25.413   1.554   9.597
  305POPC   PO4 7980  25.965   2.062   9.661
  305POPC   GL1 7981  25.959   2.063   9.217
  305POPC   GL2 7982  25.702   1.814   9.249
  305POPC   C1A 7983  26.185   1.911   8.849
  305POPC   D2A 7984  26.363   2.121   8.497
  305POPC   C3A 7985  26.202   1.970   8.077
  305POPC   C4A 7986  26.244   2.247   7.716
  305POPC   C1B 7987  25.652   1.895   8.823
  305POPC   C2B 7988  25.828   1.740   8.468
  305POPC   C3B 7989  25.687   1.831   8.044
  305POPC   C4B 7990  25.820   1.959   7.661
  306POPC   NC3 7991   0.425  44.124   9.611
  306POPC   PO4 7992   0.403  43.451   9.508
  306POPC   GL1 7993   0.190  43.619   9.141
  306POPC   GL2 7994   0.121  43.988   9.191
  306POPC   C1A 7995   0.345  43.546   8.705
  306POPC   D2A 7996   0.734  43.648   8.456
  306POPC   C3A 7997   0.604  43.678   8.019
  306POPC   C4A 7998   0.290  43.504   7.723
  306POPC   C1B 7999   0.212  44.042   8.741
  306POPC   C2B 8000   0.229  43.898   8.294
  306POPC   C3B 8001   0.287  44.025   7.843
  306POPC   C4B 8002   0.522  44.249   7.521
  307POPC   NC3 8003  24.236  36.502   9.796
  307POPC   PO4 8004  24.668  36.003   9.654
  307POPC   GL1 8005  24.677  35.910   9.207
  307POPC   GL2 8006  24.379  35.861   9.089
  307POPC   C1A 8007  24.674  36.178   8.792
  307POPC   D2A 8008  24.848  36.272   8.415
  307POPC   C3A 8009  24.647  36.183   8.033
  307POPC   C4A 8010  24.837  36.103   7.633
  307POPC   C1B 8011  24.214  36.035   8.660
  307POPC   C2B 8012  24.144  36.193   8.232
  307POPC   C3B 8013  24.185  36.374   7.794
  307POPC   C4B 8014  24.074  36.459   7.334
  308POPC   NC3 8015   9.520  42.612   9.411
  308POPC   PO4 8016   9.930  43.193   9.598
  308POPC   GL1 8017   9.886  42.925   9.208
  308POPC   GL2 8018  10.141  42.973   8.944
  308POPC   C1A 8019   9.659  42.818   8.802
  308POPC   D2A 8020   9.702  43.026   8.353
  308POPC   C3A 8021   9.554  42.958   7.940
  308POPC   C4A 8022   9.933  42.890   7.659
  308POPC   C1B 8023   9.831  43.284   8.759
  308POPC   C2B 8024   9.637  43.525   8.366
  308POPC   C3B 8025   9.795  43.411   7.927
  308POPC   C4B 8026   9.823  43.336   7.450
  309POPC   NC3 8027   0.766  28.832   9.575
  309POPC   PO4 8028   0.137  28.770   9.432
  309POPC   GL1 8029   0.471  29.037   9.217
  309POPC   GL2 8030   0.679  28.761   9.074
  309POPC   C1A 8031   0.508  29.268   8.824
  309POPC   D2A 8032   0.425  29.496   8.450
  309POPC   C3A 8033   0.327  29.361   8.055
  309POPC   C4A 8034   0.609  29.124   7.818
  309POPC   C1B 8035   0.327  28.798   8.788
  309POPC   C2B 8036   0.262  28.977   8.406
  309POPC   C3B 8037   0.181  28.864   8.020
  309POPC   C4B 8038   0.246  28.820   7.617
  310POPC   NC3 8039  30.659  23.760   9.503
  310POPC   PO4 8040  30.173  23.376   9.427
  310POPC   GL1 8041  30.457  23.511   9.073
  310POPC   GL2 8042  30.816  23.568   9.060
  310POPC   C1A 8043  30.539  23.621   8.603
  310POPC   D2A 8044  30.469  23.533   8.144
  310POPC   C3A 8045  30.370  23.878   7.875
  310POPC   C4A 8046  30.498  24.243   7.625
  310POPC   C1B 8047  31.039  23.585   8.677
  310POPC   C2B 8048  30.925  23.773   8.258
  310POPC   C3B 8049  30.866  23.631   7.822
  310POPC   C4B 8050  31.201  23.573   7.482
  311POPC   NC3 8051  31.250  11.084   9.370
  311POPC   PO4 8052  31.785  11.509   9.533
  311POPC   GL1 8053  31.720  11.268   9.172
  311POPC   GL2 8054  31.424  11.320   8.961
  311POPC   C1A 8055  31.848  11.178   8.778
  311POPC   D2A 8056  31.679  11.400   8.471
  311POPC   C3A 8057  31.578  11.123   8.134
  311POPC   C4A 8058  31.406  11.046   7.704
  311POPC   C1B 8059  31.281  11.117   8.591
  311POPC   C2B 8060  31.079  11.086   8.187
  311POPC   C3B 8061  31.160  11.411   7.947
  311POPC   C4B 8062  31.209  11.571   7.557
  312POPC   NC3 8063  37.711  28.848   9.528
  312POPC   PO4 8064  37.360  28.292   9.505
  312POPC   GL1 8065  37.597  28.464   9.191
  312POPC   GL2 8066  37.371  28.740   9.120
  312POPC   C1A 8067  37.743  28.284   8.817
  312POPC   D2A 8068  37.695  28.357   8.407
  312POPC   C3A 8069  37.848  28.167   8.050
  312POPC   C4A 8070  37.826  28.320   7.659
  312POPC   C1B 8071  37.416  28.723   8.688
  312POPC   C2B 8072  37.227  28.557   8.350
  312POPC   C3B 8073  37.368  28.381   7.987
  312POPC   C4B 8074  37.366  28.581   7.595
  313POPC   NC3 8075   2.275  43.735   9.539
  313POPC   PO4 8076   1.811  44.199   9.583
  313POPC   GL1 8077   2.129  44.123   9.228
  313POPC   GL2 8078   1.987  43.770   9.114
  313POPC   C1A 8079   2.305  43.990   8.811
  313POPC   D2A 8080   2.099  43.759   8.480
  313POPC   C3A 8081   1.836  43.923   8.172
  313POPC   C4A 8082   1.957  43.877   7.785
  313POPC   C1B 8083   2.346  43.486   8.915
  313POPC   C2B 8084   2.476  43.418   8.460
  313POPC   C3B 8085   2.354  43.627   8.018
  313POPC   C4B 8086   2.306  43.654   7.516
  314POPC   NC3 8087  36.267  10.276   9.509
  314POPC   PO4 8088  35.857  10.916   9.479
  314POPC   GL1 8089  35.994  10.652   9.154
  314POPC   GL2 8090  35.899  10.875   8.886
  314POPC   C1A 8091  36.246  10.497   8.781
  314POPC   D2A 8092  36.172  10.609   8.324
  314POPC   C3A 8093  36.157  10.251   7.977
  314POPC   C4A 8094  35.920  10.099   7.586
  314POPC   C1B 8095  36.287  10.999   8.730
  314POPC   C2B 8096  36.609  10.891   8.420
  314POPC   C3B 8097  36.398  10.959   8.000
  314POPC   C4B 8098  36.001  10.724   7.849
  315POPC   NC3 8099  28.121   2.385   9.503
  315POPC   PO4 8100  28.381   1.764   9.522
  315POPC   GL1 8101  28.385   1.851   9.108
  315POPC   GL2 8102  28.432   2.195   9.064
  315POPC   C1A 8103  28.615   1.817   8.714
  315POPC   D2A 8104  28.518   1.980   8.305
  315POPC   C3A 8105  28.675   1.782   7.965
  315POPC   C4A 8106  28.685   2.047   7.639
  315POPC   C1B 8107  28.163   2.047   8.686
  315POPC   C2B 8108  28.061   2.230   8.288
  315POPC   C3B 8109  28.303   2.253   7.895
  315POPC   C4B 8110  28.240   2.161   7.425
  316POPC   NC3 8111   9.389  26.370   9.412
  316POPC   PO4 8112   8.774  26.686   9.680
  316POPC   GL1 8113   8.881  26.623   9.254
  316POPC   GL2 8114   8.962  26.929   9.052
  316POPC   C1A 8115   8.646  26.568   8.864
  316POPC   D2A 8116   8.492  26.822   8.521
  316POPC   C3A 8117   8.768  26.795   8.143
  316POPC   C4A 8118   8.775  26.698   7.693
  316POPC   C1B 8119   9.203  27.204   8.776
  316POPC   C2B 8120   9.286  27.234   8.351
  316POPC   C3B 8121   9.225  27.301   7.939
  316POPC   C4B 8122   9.109  27.065   7.649
  317POPC   NC3 8123  43.138  30.272   9.430
  317POPC   PO4 8124  42.934  29.595   9.384
  317POPC   GL1 8125  42.831  29.991   9.135
  317POPC   GL2 8126  43.212  30.050   8.990
  317POPC   C1A 8127  42.847  30.280   8.767
  317POPC   D2A 8128  43.185  30.157   8.462
  317POPC   C3A 8129  43.015  30.191   8.059
  317POPC   C4A 8130  42.654  30.414   7.880
  317POPC   C1B 8131  43.038  29.740   8.740
  317POPC   C2B 8132  43.047  29.541   8.350
  317POPC   C3B 8133  43.082  29.701   7.939
  317POPC   C4B 8134  43.397  30.025   7.780
  318POPC   NC3 8135  24.801  25.526   9.503
  318POPC   PO4 8136  24.356  25.095   9.539
  318POPC   GL1 8137  24.491  25.230   9.134
  318POPC   GL2 8138  24.815  25.379   9.036
  318POPC   C1A 8139  24.428  24.992   8.740
  318POPC   D2A 8140  24.465  25.112   8.319
  318POPC   C3A 8141  24.145  25.187   8.097
  318POPC   C4A 8142  24.154  25.084   7.727
  318POPC   C1B 8143  24.635  25.452   8.671
  318POPC   C2B 8144  24.685  25.568   8.264
  318POPC   C3B 8145  24.549  25.424   7.872
  318POPC   C4B 8146  24.736  25.601   7.527
  319POPC   NC3 8147   7.723   6.417   9.517
  319POPC   PO4 8148   7.008   6.270   9.450
  319POPC   GL1 8149   7.117   6.398   9.051
  319POPC   GL2 8150   7.424   6.360   9.120
  319POPC   C1A 8151   7.268   6.739   8.749
  319POPC   D2A 8152   7.376   6.943   8.335
  319POPC   C3A 8153   7.256   6.716   7.947
  319POPC   C4A 8154   7.223   6.265   7.819
  319POPC   C1B 8155   7.635   6.374   8.771
  319POPC   C2B 8156   7.773   6.609   8.430
  319POPC   C3B 8157   7.674   6.395   8.073
  319POPC   C4B 8158   7.704   6.349   7.663
  320POPC   NC3 8159  23.700  30.148   9.414
  320POPC   PO4 8160  24.127  29.692   9.630
  320POPC   GL1 8161  23.961  29.760   9.176
  320POPC   GL2 8162  23.731  30.017   8.945
  320POPC   C1A 8163  23.797  29.540   8.817
  320POPC   D2A 8164  23.476  29.641   8.523
  320POPC   C3A 8165  23.594  29.590   8.089
  320POPC   C4A 8166  23.805  29.897   7.820
  320POPC   C1B 8167  23.381  30.319   8.815
  320POPC   C2B 8168  23.286  30.453   8.389
  320POPC   C3B 8169  23.487  30.251   8.038
  320POPC   C4B 8170  23.453  30.196   7.582
  321POPC   NC3 8171  20.510  31.041   9.851
  321POPC   PO4 8172  20.845  30.767   9.364
  321POPC   GL1 8173  20.768  30.754   8.984
  321POPC   GL2 8174  20.404  30.670   9.048
  321POPC   C1A 8175  20.930  30.780   8.571
  321POPC   D2A 8176  20.871  30.777   8.156
  321POPC   C3A 8177  20.504  30.970   7.979
  321POPC   C4A 8178  20.391  30.999   7.584
  321POPC   C1B 8179  20.533  30.454   8.661
  321POPC   C2B 8180  20.413  30.550   8.280
  321POPC   C3B 8181  20.094  30.657   8.001
  321POPC   C4B 8182  20.066  30.610   7.550
  322POPC   NC3 8183  10.466   1.867   9.495
  322POPC   PO4 8184  10.870   1.724   9.314
  322POPC   GL1 8185  10.688   2.051   9.058
  322POPC   GL2 8186  10.337   1.945   8.978
  322POPC   C1A 8187  10.659   2.166   8.628
  322POPC   D2A 8188  10.461   1.922   8.331
  322POPC   C3A 8189  10.411   1.970   7.896
  322POPC   C4A 8190  10.636   1.835   7.492
  322POPC   C1B 8191  10.158   2.249   8.671
  322POPC   C2B 8192  10.085   2.333   8.237
  322POPC   C3B 8193  10.225   2.448   7.819
  322POPC   C4B 8194  10.163   2.104   7.470
  323POPC   NC3 8195  33.093   1.284   9.630
  323POPC   PO4 8196  32.500   1.149   9.397
  323POPC   GL1 8197  32.781   1.313   9.108
  323POPC   GL2 8198  33.091   1.160   9.131
  323POPC   C1A 8199  32.904   1.440   8.691
  323POPC   D2A 8200  32.896   1.684   8.308
  323POPC   C3A 8201  32.975   1.452   7.955
  323POPC   C4A 8202  33.206   1.301   7.628
  323POPC   C1B 8203  33.038   0.923   8.746
  323POPC   C2B 8204  33.026   1.035   8.302
  323POPC   C3B 8205  33.076   0.878   7.865
  323POPC   C4B 8206  32.836   0.962   7.457
  324POPC   NC3 8207  10.063  40.401   9.372
  324POPC   PO4 8208  10.603  40.012   9.555
  324POPC   GL1 8209  10.655  39.952   9.158
  324POPC   GL2 8210  10.636  40.279   9.055
  324POPC   C1A 8211  10.754  39.800   8.784
  324POPC   D2A 8212  10.723  40.086   8.431
  324POPC   C3A 8213  10.571  40.066   7.995
  324POPC   C4A 8214  10.744  39.864   7.595
  324POPC   C1B 8215  10.310  40.061   8.792
  324POPC   C2B 8216  10.196  40.057   8.371
  324POPC   C3B 8217  10.126  39.762   8.025
  324POPC   C4B 8218  10.238  39.921   7.632
  325POPC   NC3 8219  10.236  23.908   9.572
  325POPC   PO4 8220   9.670  23.565   9.605
  325POPC   GL1 8221   9.564  23.542   9.169
  325POPC   GL2 8222   9.282  23.355   9.082
  325POPC   C1A 8223   9.742  23.734   8.796
  325POPC   D2A 8224   9.915  23.961   8.451
  325POPC   C3A 8225  10.065  23.691   8.148
  325POPC   C4A 8226  10.011  23.467   7.776
  325POPC   C1B 8227   9.466  23.306   8.675
  325POPC   C2B 8228   9.584  23.564   8.321
  325POPC   C3B 8229   9.521  23.471   7.900
  325POPC   C4B 8230   9.401  23.719   7.544
  326POPC   NC3 8231  30.702  42.672   9.358
  326POPC   PO4 8232  30.564  42.076   9.640
  326POPC   GL1 8233  30.650  42.186   9.188
  326POPC   GL2 8234  30.334  42.322   9.128
  326POPC   C1A 8235  30.780  42.405   8.787
  326POPC   D2A 8236  30.584  42.417   8.378
  326POPC   C3A 8237  30.858  42.450   8.033
  326POPC   C4A 8238  30.906  42.236   7.668
  326POPC   C1B 8239  30.269  42.557   8.761
  326POPC   C2B 8240  30.068  42.490   8.366
  326POPC   C3B 8241  30.254  42.631   8.042
  326POPC   C4B 8242  30.434  42.453   7.729
  327POPC   NC3 8243  11.579  34.925   9.417
  327POPC   PO4 8244  11.935  34.429   9.487
  327POPC   GL1 8245  12.012  34.670   9.134
  327POPC   GL2 8246  12.317  34.790   9.106
  327POPC   C1A 8247  12.154  34.488   8.729
  327POPC   D2A 8248  12.149  34.245   8.361
  327POPC   C3A 8249  12.091  34.453   7.980
  327POPC   C4A 8250  12.418  34.435   7.695
  327POPC   C1B 8251  12.494  34.864   8.692
  327POPC   C2B 8252  12.393  34.729   8.288
  327POPC   C3B 8253  12.296  34.914   7.885
  327POPC   C4B 8254  12.409  34.960   7.448
  328POPC   NC3 8255  35.174  14.738   9.541
  328POPC   PO4 8256  35.618  14.156   9.389
  328POPC   GL1 8257  35.444  14.506   9.181
  328POPC   GL2 8258  35.077  14.530   9.057
  328POPC   C1A 8259  35.477  14.594   8.768
  328POPC   D2A 8260  35.276  14.565   8.389
  328POPC   C3A 8261  35.568  14.352   8.115
  328POPC   C4A 8262  35.672  14.347   7.684
  328POPC   C1B 8263  35.095  14.190   8.718
  328POPC   C2B 8264  35.095  14.093   8.259
  328POPC   C3B 8265  35.114  14.420   7.911
  328POPC   C4B 8266  35.177  14.384   7.467
  329POPC   NC3 8267  37.972  37.906   9.428
  329POPC   PO4 8268  38.098  37.315   9.538
  329POPC   GL1 8269  37.785  37.489   9.172
  329POPC   GL2 8270  37.527  37.832   9.193
  329POPC   C1A 8271  37.629  37.621   8.749
  329POPC   D2A 8272  37.843  37.696   8.354
  329POPC   C3A 8273  37.694  37.697   7.935
  329POPC   C4A 8274  37.786  37.615   7.463
  329POPC   C1B 8275  37.336  38.047   8.810
  329POPC   C2B 8276  37.404  37.935   8.362
  329POPC   C3B 8277  37.353  38.120   7.941
  329POPC   C4B 8278  37.613  38.085   7.570
  330POPC   NC3 8279  36.244  37.457   9.298
  330POPC   PO4 8280  36.786  37.839   9.475
  330POPC   GL1 8281  37.011  37.706   9.151
  330POPC   GL2 8282  36.793  37.428   9.138
  330POPC   C1A 8283  37.082  37.615   8.725
  330POPC   D2A 8284  36.872  37.593   8.350
  330POPC   C3A 8285  37.108  37.689   8.016
  330POPC   C4A 8286  37.310  37.699   7.624
  330POPC   C1B 8287  36.558  37.600   8.763
  330POPC   C2B 8288  36.373  37.459   8.364
  330POPC   C3B 8289  36.535  37.613   7.954
  330POPC   C4B 8290  36.616  37.434   7.537
  331POPC   NC3 8291   0.442  21.160   9.496
  331POPC   PO4 8292   0.089  21.775   9.327
  331POPC   GL1 8293   0.299  21.480   9.098
  331POPC   GL2 8294   0.176  21.122   9.064
  331POPC   C1A 8295   0.388  21.483   8.679
  331POPC   D2A 8296   0.529  21.220   8.352
  331POPC   C3A 8297   0.644  21.372   7.982
  331POPC   C4A 8298   0.273  21.549   7.910
  331POPC   C1B 8299   0.215  20.945   8.647
  331POPC   C2B 8300   0.125  20.958   8.202
  331POPC   C3B 8301  44.994  21.121   7.799
  331POPC   C4B 8302  44.960  21.011   7.363
  332POPC   NC3 8303  27.765   3.634   9.442
  332POPC   PO4 8304  27.254   3.294   9.688
  332POPC   GL1 8305  27.323   3.363   9.215
  332POPC   GL2 8306  27.652   3.270   9.113
  332POPC   C1A 8307  27.363   3.679   8.843
  332POPC   D2A 8308  27.294   3.824   8.391
  332POPC   C3A 8309  27.589   3.722   8.037
  332POPC   C4A 8310  27.583   3.898   7.607
  332POPC   C1B 8311  27.476   3.216   8.687
  332POPC   C2B 8312  27.314   3.278   8.256
  332POPC   C3B 8313  27.414   3.316   7.795
  332POPC   C4B 8314  27.554   3.425   7.376
  333POPC   NC3 8315  20.631   7.930   9.516
  333POPC   PO4 8316  20.814   7.303   9.519
  333POPC   GL1 8317  20.669   7.511   9.181
  333POPC   GL2 8318  20.313   7.622   9.224
  333POPC   C1A 8319  20.769   7.569   8.747
  333POPC   D2A 8320  20.717   7.362   8.362
  333POPC   C3A 8321  20.747   7.570   8.014
  333POPC   C4A 8322  20.528   7.802   7.775
  333POPC   C1B 8323  20.316   7.345   8.856
  333POPC   C2B 8324  20.215   7.357   8.434
  333POPC   C3B 8325  20.283   7.353   8.018
  333POPC   C4B 8326  20.206   7.031   7.757
  334POPC   NC3 8327  10.033  25.067   9.741
  334POPC   PO4 8328   9.445  25.307   9.786
  334POPC   GL1 8329   9.655  25.275   9.345
  334POPC   GL2 8330   9.329  25.277   9.123
  334POPC   C1A 8331   9.790  25.301   8.910
  334POPC   D2A 8332   9.889  25.533   8.544
  334POPC   C3A 8333   9.917  25.302   8.189
  334POPC   C4A 8334   9.708  25.265   7.812
  334POPC   C1B 8335   9.361  25.017   8.762
  334POPC   C2B 8336   9.492  25.097   8.388
  334POPC   C3B 8337   9.662  24.850   8.108
  334POPC   C4B 8338   9.409  24.863   7.789
  335POPC   NC3 8339   0.214   8.017   9.408
  335POPC   PO4 8340   0.823   8.451   9.449
  335POPC   GL1 8341   0.576   8.304   9.105
  335POPC   GL2 8342   0.276   8.424   9.083
  335POPC   C1A 8343   0.420   8.081   8.732
  335POPC   D2A 8344   0.145   8.139   8.376
  335POPC   C3A 8345   0.321   8.078   7.976
  335POPC   C4A 8346   0.730   7.978   7.829
  335POPC   C1B 8347   0.032   8.464   8.751
  335POPC   C2B 8348  44.837   8.557   8.376
  335POPC   C3B 8349   0.086   8.533   7.971
  335POPC   C4B 8350   0.519   8.481   7.746
  336POPC   NC3 8351  24.768  16.882   9.613
  336POPC   PO4 8352  24.139  16.736   9.411
  336POPC   GL1 8353  24.275  16.854   9.045
  336POPC   GL2 8354  24.597  16.834   9.156
  336POPC   C1A 8355  24.487  16.603   8.717
  336POPC   D2A 8356  24.383  16.392   8.324
  336POPC   C3A 8357  24.577  16.552   7.945
  336POPC   C4A 8358  24.515  16.725   7.522
  336POPC   C1B 8359  24.690  17.082   8.854
  336POPC   C2B 8360  24.798  17.077   8.472
  336POPC   C3B 8361  24.680  17.203   8.099
  336POPC   C4B 8362  24.389  17.133   7.809
  337POPC   NC3 8363  35.842   1.159   9.507
  337POPC   PO4 8364  36.451   0.976   9.493
  337POPC   GL1 8365  36.305   1.340   9.266
  337POPC   GL2 8366  36.030   1.215   9.045
  337POPC   C1A 8367  36.391   1.535   8.877
  337POPC   D2A 8368  36.299   1.298   8.507
  337POPC   C3A 8369  36.386   1.492   8.111
  337POPC   C4A 8370  36.217   1.288   7.765
  337POPC   C1B 8371  35.748   0.923   8.846
  337POPC   C2B 8372  35.601   0.722   8.490
  337POPC   C3B 8373  35.873   0.907   8.182
  337POPC   C4B 8374  35.890   0.912   7.764
  338POPC   NC3 8375  20.780  34.145   9.690
  338POPC   PO4 8376  20.557  33.492   9.564
  338POPC   GL1 8377  20.707  33.716   9.229
  338POPC   GL2 8378  20.768  34.077   9.195
  338POPC   C1A 8379  20.839  33.592   8.849
  338POPC   D2A 8380  20.723  33.754   8.446
  338POPC   C3A 8381  20.792  33.491   8.104
  338POPC   C4A 8382  20.935  33.537   7.705
  338POPC   C1B 8383  20.516  34.052   8.831
  338POPC   C2B 8384  20.494  34.239   8.433
  338POPC   C3B 8385  20.470  34.008   8.049
  338POPC   C4B 8386  20.503  33.799   7.661
  339POPC   NC3 8387  37.382  35.376   9.449
  339POPC   PO4 8388  37.858  35.532   9.738
  339POPC   GL1 8389  37.885  35.417   9.237
  339POPC   GL2 8390  37.632  35.363   9.016
  339POPC   C1A 8391  38.064  35.327   8.772
  339POPC   D2A 8392  37.968  35.092   8.367
  339POPC   C3A 8393  37.796  35.224   7.955
  339POPC   C4A 8394  37.629  35.555   7.704
  339POPC   C1B 8395  37.395  35.268   8.671
  339POPC   C2B 8396  37.331  35.321   8.233
  339POPC   C3B 8397  37.335  35.037   7.882
  339POPC   C4B 8398  37.570  35.072   7.484
  340POPC   NC3 8399  39.916  38.537   9.680
  340POPC   PO4 8400  40.071  37.895   9.573
  340POPC   GL1 8401  40.112  38.260   9.258
  340POPC   GL2 8402  39.747  38.347   9.207
  340POPC   C1A 8403  40.308  38.378   8.826
  340POPC   D2A 8404  40.100  38.451   8.429
  340POPC   C3A 8405  40.313  38.343   8.070
  340POPC   C4A 8406  40.150  38.562   7.739
  340POPC   C1B 8407  39.858  38.626   8.862
  340POPC   C2B 8408  39.859  38.918   8.499
  340POPC   C3B 8409  39.755  38.790   8.088
  340POPC   C4B 8410  39.675  38.688   7.688
  341POPC   NC3 8411  14.626  32.418   9.792
  341POPC   PO4 8412  13.992  32.118   9.666
  341POPC   GL1 8413  14.085  32.370   9.266
  341POPC   GL2 8414  14.462  32.462   9.238
  341POPC   C1A 8415  14.172  32.392   8.815
  341POPC   D2A 8416  14.487  32.189   8.545
  341POPC   C3A 8417  14.440  32.150   8.109
  341POPC   C4A 8418  14.784  32.093   7.842
  341POPC   C1B 8419  14.708  32.567   8.837
  341POPC   C2B 8420  14.610  32.683   8.406
  341POPC   C3B 8421  14.702  32.573   7.994
  341POPC   C4B 8422  14.598  32.491   7.582
  342POPC   NC3 8423  39.901  26.652   9.696
  342POPC   PO4 8424  40.416  26.439   9.348
  342POPC   GL1 8425  40.075  26.721   9.204
  342POPC   GL2 8426  39.689  26.656   9.178
  342POPC   C1A 8427  40.123  26.790   8.774
  342POPC   D2A 8428  40.201  26.534   8.401
  342POPC   C3A 8429  40.235  26.760   8.011
  342POPC   C4A 8430  40.066  26.715   7.604
  342POPC   C1B 8431  39.638  26.902   8.790
  342POPC   C2B 8432  39.801  26.884   8.338
  342POPC   C3B 8433  39.620  26.898   7.913
  342POPC   C4B 8434  39.442  27.296   7.753
  343POPC   NC3 8435  25.667  23.007   9.843
  343POPC   PO4 8436  25.181  22.987   9.378
  343POPC   GL1 8437  25.089  22.945   8.991
  343POPC   GL2 8438  25.405  22.987   8.830
  343POPC   C1A 8439  25.047  22.697   8.632
  343POPC   D2A 8440  25.287  22.689   8.264
  343POPC   C3A 8441  25.248  22.942   7.906
  343POPC   C4A 8442  25.407  23.340   7.838
  343POPC   C1B 8443  25.633  22.677   8.657
  343POPC   C2B 8444  25.679  22.377   8.302
  343POPC   C3B 8445  25.668  22.606   7.896
  343POPC   C4B 8446  25.645  22.473   7.455
  344POPC   NC3 8447   5.955  34.388   9.401
  344POPC   PO4 8448   6.027  35.073   9.495
  344POPC   GL1 8449   5.857  34.859   9.157
  344POPC   GL2 8450   5.524  34.734   9.255
  344POPC   C1A 8451   5.917  34.650   8.768
  344POPC   D2A 8452   6.174  34.640   8.408
  344POPC   C3A 8453   5.936  34.631   8.032
  344POPC   C4A 8454   5.758  34.293   7.761
  344POPC   C1B 8455   5.428  34.913   8.842
  344POPC   C2B 8456   5.571  34.847   8.422
  344POPC   C3B 8457   5.538  35.014   7.989
  344POPC   C4B 8458   5.706  34.840   7.619
  345POPC   NC3 8459  41.339  11.900   9.582
  345POPC   PO4 8460  41.908  12.307   9.492
  345POPC   GL1 8461  41.624  12.078   9.182
  345POPC   GL2 8462  41.389  11.767   9.109
  345POPC   C1A 8463  41.457  12.175   8.785
  345POPC   D2A 8464  41.640  12.290   8.404
  345POPC   C3A 8465  41.361  12.346   8.076
  345POPC   C4A 8466  41.337  11.983   7.866
  345POPC   C1B 8467  41.729  11.706   8.834
  345POPC   C2B 8468  41.797  11.803   8.422
  345POPC   C3B 8469  41.784  11.615   8.037
  345POPC   C4B 8470  41.490  11.511   7.731
  346POPC   NC3 8471  20.357  10.423   9.527
  346POPC   PO4 8472  20.921  10.812   9.548
  346POPC   GL1 8473  20.657  10.712   9.181
  346POPC   GL2 8474  20.617  10.324   9.097
  346POPC   C1A 8475  20.742  10.662   8.736
  346POPC   D2A 8476  20.501  10.516   8.405
  346POPC   C3A 8477  20.610  10.639   7.993
  346POPC   C4A 8478  20.966  10.904   7.889
  346POPC   C1B 8479  20.864  10.142   8.734
  346POPC   C2B 8480  20.747  10.079   8.306
  346POPC   C3B 8481  20.649  10.091   7.874
  346POPC   C4B 8482  20.696  10.049   7.394
  347POPC   NC3 8483  31.902  22.306   9.431
  347POPC   PO4 8484  32.513  22.113   9.486
  347POPC   GL1 8485  32.239  21.999   9.125
  347POPC   GL2 8486  31.936  21.819   9.159
  347POPC   C1A 8487  32.252  22.099   8.690
  347POPC   D2A 8488  32.486  22.334   8.353
  347POPC   C3A 8489  32.387  22.468   7.928
  347POPC   C4A 8490  32.062  22.282   7.680
  347POPC   C1B 8491  31.804  21.849   8.708
  347POPC   C2B 8492  31.938  22.002   8.295
  347POPC   C3B 8493  31.855  21.857   7.892
  347POPC   C4B 8494  31.709  21.925   7.488
  348POPC   NC3 8495  34.674  30.451   9.376
  348POPC   PO4 8496  34.248  31.073   9.521
  348POPC   GL1 8497  34.465  30.852   9.169
  348POPC   GL2 8498  34.718  31.049   9.089
  348POPC   C1A 8499  34.663  30.700   8.736
  348POPC   D2A 8500  34.392  30.692   8.365
  348POPC   C3A 8501  34.614  30.602   8.007
  348POPC   C4A 8502  34.465  30.546   7.594
  348POPC   C1B 8503  34.924  31.154   8.750
  348POPC   C2B 8504  35.163  30.969   8.443
  348POPC   C3B 8505  34.960  31.004   8.058
  348POPC   C4B 8506  34.876  30.868   7.660
  349POPC   NC3 8507  35.557  13.005   9.414
  349POPC   PO4 8508  35.027  12.811   9.637
  349POPC   GL1 8509  35.101  12.915   9.177
  349POPC   GL2 8510  35.373  12.708   9.050
  349POPC   C1A 8511  35.118  12.972   8.686
  349POPC   D2A 8512  35.330  12.898   8.272
  349POPC   C3A 8513  35.133  12.708   7.903
  349POPC   C4A 8514  34.939  12.995   7.596
  349POPC   C1B 8515  35.625  12.887   8.701
  349POPC   C2B 8516  35.862  12.798   8.339
  349POPC   C3B 8517  35.681  12.783   7.904
  349POPC   C4B 8518  35.432  13.045   7.663
  350POPC   NC3 8519  15.377  27.256   9.525
  350POPC   PO4 8520  14.834  26.837   9.636
  350POPC   GL1 8521  15.029  26.966   9.257
  350POPC   GL2 8522  15.290  26.840   9.139
  350POPC   C1A 8523  14.931  26.916   8.805
  350POPC   D2A 8524  14.933  26.683   8.432
  350POPC   C3A 8525  15.021  26.935   8.100
  350POPC   C4A 8526  14.866  26.817   7.731
  350POPC   C1B 8527  15.465  26.995   8.753
  350POPC   C2B 8528  15.648  26.882   8.353
  350POPC   C3B 8529  15.502  26.831   7.936
  350POPC   C4B 8530  15.612  26.709   7.515
  351POPC   NC3 8531  42.819  43.049   9.482
  351POPC   PO4 8532  43.487  43.331   9.502
  351POPC   GL1 8533  43.273  43.008   9.235
  351POPC   GL2 8534  43.003  43.208   9.040
  351POPC   C1A 8535  43.340  42.920   8.808
  351POPC   D2A 8536  43.331  43.275   8.517
  351POPC   C3A 8537  43.228  43.212   8.080
  351POPC   C4A 8538  43.284  43.164   7.644
  351POPC   C1B 8539  42.862  43.023   8.642
  351POPC   C2B 8540  42.813  42.901   8.192
  351POPC   C3B 8541  42.792  43.151   7.778
  351POPC   C4B 8542  42.645  43.221   7.343
  352POPC   NC3 8543  31.810  30.445   9.473
  352POPC   PO4 8544  31.620  30.994   9.681
  352POPC   GL1 8545  31.576  30.887   9.204
  352POPC   GL2 8546  31.504  30.531   9.059
  352POPC   C1A 8547  31.601  30.922   8.764
  352POPC   D2A 8548  31.534  30.569   8.496
  352POPC   C3A 8549  31.445  30.773   8.107
  352POPC   C4A 8550  31.689  31.019   7.798
  352POPC   C1B 8551  31.168  30.305   8.799
  352POPC   C2B 8552  31.201  30.188   8.374
  352POPC   C3B 8553  31.293  30.314   7.958
  352POPC   C4B 8554  31.222  30.241   7.486
  353POPC   NC3 8555  40.184  32.838   9.463
  353POPC   PO4 8556  39.948  33.470   9.469
  353POPC   GL1 8557  39.972  33.181   9.133
  353POPC   GL2 8558  39.779  32.838   9.171
  353POPC   C1A 8559  40.095  33.226   8.704
  353POPC   D2A 8560  39.852  33.282   8.345
  353POPC   C3A 8561  40.104  33.283   8.006
  353POPC   C4A 8562  39.925  33.085   7.692
  353POPC   C1B 8563  40.004  32.750   8.795
  353POPC   C2B 8564  40.108  32.828   8.342
  353POPC   C3B 8565  40.136  32.678   7.921
  353POPC   C4B 8566  40.450  32.519   7.629
  354POPC   NC3 8567  12.373   5.843   9.673
  354POPC   PO4 8568  12.947   5.520   9.367
  354POPC   GL1 8569  12.763   5.767   9.071
  354POPC   GL2 8570  12.820   6.120   9.121
  354POPC   C1A 8571  12.936   5.826   8.684
  354POPC   D2A 8572  13.132   5.646   8.357
  354POPC   C3A 8573  12.773   5.565   8.083
  354POPC   C4A 8574  12.710   5.555   7.632
  354POPC   C1B 8575  12.646   6.233   8.694
  354POPC   C2B 8576  12.703   6.051   8.279
  354POPC   C3B 8577  12.539   5.976   7.868
  354POPC   C4B 8578  12.206   6.115   7.610
  355POPC   NC3 8579  25.123  44.915   9.598
  355POPC   PO4 8580  25.543  44.431   9.569
  355POPC   GL1 8581  25.336  44.651   9.219
  355POPC   GL2 8582  25.468  44.990   9.225
  355POPC   C1A 8583  25.224  44.649   8.794
  355POPC   D2A 8584  25.439  44.448   8.440
  355POPC   C3A 8585  25.191  44.572   8.090
  355POPC   C4A 8586  25.177  44.707   7.663
  355POPC   C1B 8587  25.455   0.130   8.805
  355POPC   C2B 8588  25.424  44.955   8.399
  355POPC   C3B 8589  25.275   0.074   7.976
  355POPC   C4B 8590  25.261   0.224   7.515
  356POPC   NC3 8591  12.436  30.748   9.906
  356POPC   PO4 8592  12.991  30.743   9.562
  356POPC   GL1 8593  12.990  30.669   9.131
  356POPC   GL2 8594  12.650  30.693   9.051
  356POPC   C1A 8595  12.959  30.611   8.664
  356POPC   D2A 8596  12.997  30.361   8.317
  356POPC   C3A 8597  12.869  30.606   7.976
  356POPC   C4A 8598  12.991  30.850   7.642
  356POPC   C1B 8599  12.446  30.491   8.756
  356POPC   C2B 8600  12.493  30.593   8.350
  356POPC   C3B 8601  12.418  30.379   7.970
  356POPC   C4B 8602  12.644  30.383   7.571
  357POPC   NC3 8603   6.462  34.908   9.433
  357POPC   PO4 8604   6.931  35.271   9.544
  357POPC   GL1 8605   6.785  35.261   9.165
  357POPC   GL2 8606   6.622  35.583   9.175
  357POPC   C1A 8607   6.874  35.055   8.780
  357POPC   D2A 8608   6.709  34.931   8.395
  357POPC   C3A 8609   6.859  35.146   8.037
  357POPC   C4A 8610   6.688  35.299   7.690
  357POPC   C1B 8611   6.879  35.603   8.803
  357POPC   C2B 8612   6.856  35.461   8.418
  357POPC   C3B 8613   6.857  35.678   8.004
  357POPC   C4B 8614   6.610  35.822   7.622
  358POPC   NC3 8615  16.232  44.081   9.777
  358POPC   PO4 8616  16.753  43.691   9.542
  358POPC   GL1 8617  16.979  43.802   9.148
  358POPC   GL2 8618  16.650  43.826   9.034
  358POPC   C1A 8619  16.999  44.118   8.815
  358POPC   D2A 8620  16.767  44.203   8.444
  358POPC   C3A 8621  16.986  44.176   8.097
  358POPC   C4A 8622  17.080  43.820   7.885
  358POPC   C1B 8623  16.530  43.553   8.712
  358POPC   C2B 8624  16.707  43.674   8.323
  358POPC   C3B 8625  16.579  43.824   7.940
  358POPC   C4B 8626  16.572  43.714   7.478
  359POPC   NC3 8627   5.416  35.230   9.442
  359POPC   PO4 8628   4.783  35.529   9.551
  359POPC   GL1 8629   4.983  35.354   9.216
  359POPC   GL2 8630   5.171  35.593   9.160
  359POPC   C1A 8631   4.989  35.244   8.782
  359POPC   D2A 8632   5.032  35.521   8.430
  359POPC   C3A 8633   4.926  35.393   8.007
  359POPC   C4A 8634   4.862  35.169   7.602
  359POPC   C1B 8635   5.447  35.472   8.813
  359POPC   C2B 8636   5.519  35.358   8.389
  359POPC   C3B 8637   5.406  35.552   8.020
  359POPC   C4B 8638   5.254  35.491   7.612
  360POPC   NC3 8639  26.342   1.099   9.377
  360POPC   PO4 8640  25.665   1.109   9.617
  360POPC   GL1 8641  25.795   1.183   9.226
  360POPC   GL2 8642  25.737   0.932   8.965
  360POPC   C1A 8643  25.938   1.457   8.932
  360POPC   D2A 8644  26.033   1.264   8.546
  360POPC   C3A 8645  25.806   1.341   8.168
  360POPC   C4A 8646  26.074   1.521   7.804
  360POPC   C1B 8647  26.159   0.827   8.791
  360POPC   C2B 8648  26.301   0.729   8.399
  360POPC   C3B 8649  26.203   1.040   8.118
  360POPC   C4B 8650  25.911   1.038   7.753
  361POPC   NC3 8651  15.118  29.417   9.505
  361POPC   PO4 8652  15.493  28.711   9.536
  361POPC   GL1 8653  15.217  28.998   9.229
  361POPC   GL2 8654  15.198  29.370   9.020
  361POPC   C1A 8655  15.020  28.963   8.838
  361POPC   D2A 8656  15.154  29.250   8.495
  361POPC   C3A 8657  15.176  29.063   8.122
  361POPC   C4A 8658  15.275  28.970   7.729
  361POPC   C1B 8659  14.763  29.398   8.781
  361POPC   C2B 8660  14.733  29.459   8.295
  361POPC   C3B 8661  14.928  29.427   7.822
  361POPC   C4B 8662  14.783  29.410   7.338
  362POPC   NC3 8663  35.631  30.168   9.312
  362POPC   PO4 8664  35.005  29.938   9.452
  362POPC   GL1 8665  35.179  29.935   9.098
  362POPC   GL2 8666  35.437  29.690   9.127
  362POPC   C1A 8667  35.329  29.986   8.715
  362POPC   D2A 8668  35.237  29.831   8.325
  362POPC   C3A 8669  35.588  29.927   8.080
  362POPC   C4A 8670  35.621  30.158   7.717
  362POPC   C1B 8671  35.177  29.511   8.777
  362POPC   C2B 8672  35.132  29.326   8.377
  362POPC   C3B 8673  35.006  29.503   7.987
  362POPC   C4B 8674  35.263  29.737   7.704
  363POPC   NC3 8675  42.380  24.467   9.677
  363POPC   PO4 8676  42.888  24.052   9.577
  363POPC   GL1 8677  42.521  24.250   9.221
  363POPC   GL2 8678  42.347  24.653   9.205
  363POPC   C1A 8679  42.236  24.331   8.813
  363POPC   D2A 8680  42.034  24.547   8.405
  363POPC   C3A 8681  41.963  24.274   8.057
  363POPC   C4A 8682  42.341  24.217   7.839
  363POPC   C1B 8683  42.263  24.844   8.787
  363POPC   C2B 8684  42.526  24.612   8.495
  363POPC   C3B 8685  42.694  24.402   8.173
  363POPC   C4B 8686  42.680  24.628   7.791
  364POPC   NC3 8687   6.498  26.629   9.611
  364POPC   PO4 8688   6.919  27.132   9.655
  364POPC   GL1 8689   6.720  26.932   9.277
  364POPC   GL2 8690   6.841  26.581   9.237
  364POPC   C1A 8691   6.456  26.862   8.922
  364POPC   D2A 8692   6.368  26.706   8.492
  364POPC   C3A 8693   6.296  26.723   8.062
  364POPC   C4A 8694   6.526  26.921   7.733
  364POPC   C1B 8695   7.004  26.746   8.857
  364POPC   C2B 8696   7.052  26.590   8.456
  364POPC   C3B 8697   6.898  26.768   8.109
  364POPC   C4B 8698   7.068  26.824   7.727
  365POPC   NC3 8699  43.346   6.387   9.348
  365POPC   PO4 8700  42.899   6.866   9.377
  365POPC   GL1 8701  42.928   6.639   9.021
  365POPC   GL2 8702  43.282   6.699   8.953
  365POPC   C1A 8703  42.770   6.450   8.635
  365POPC   D2A 8704  42.855   6.348   8.193
  365POPC   C3A 8705  42.729   6.625   7.853
  365POPC   C4A 8706  42.853   7.096   7.785
  365POPC   C1B 8707  43.076   6.982   8.671
  365POPC   C2B 8708  42.938   6.895   8.270
  365POPC   C3B 8709  43.214   6.728   7.965
  365POPC   C4B 8710  43.493   6.911   7.626
  366POPC   NC3 8711   6.006  41.120   9.343
  366POPC   PO4 8712   5.597  40.581   9.459
  366POPC   GL1 8713   5.637  40.858   9.134
  366POPC   GL2 8714   5.964  40.696   9.083
  366POPC   C1A 8715   5.822  41.062   8.740
  366POPC   D2A 8716   6.127  41.058   8.389
  366POPC   C3A 8717   5.951  41.099   7.967
  366POPC   C4A 8718   5.881  40.860   7.640
  366POPC   C1B 8719   5.714  40.476   8.794
  366POPC   C2B 8720   5.909  40.390   8.446
  366POPC   C3B 8721   5.978  40.608   8.111
  366POPC   C4B 8722   5.596  40.526   7.920
  367POPC   NC3 8723   3.458   6.131   9.679
  367POPC   PO4 8724   3.578   6.787   9.531
  367POPC   GL1 8725   3.642   6.634   9.149
  367POPC   GL2 8726   3.827   6.941   9.114
  367POPC   C1A 8727   3.380   6.558   8.752
  367POPC   D2A 8728   3.312   6.798   8.347
  367POPC   C3A 8729   3.469   6.599   7.934
  367POPC   C4A 8730   3.337   6.372   7.579
  367POPC   C1B 8731   3.640   6.988   8.743
  367POPC   C2B 8732   3.885   7.061   8.410
  367POPC   C3B 8733   3.699   7.028   8.039
  367POPC   C4B 8734   3.560   7.060   7.635
  368POPC   NC3 8735  17.510  24.339   9.669
  368POPC   PO4 8736  17.774  23.833   9.438
  368POPC   GL1 8737  17.778  23.754   9.026
  368POPC   GL2 8738  17.459  23.623   9.070
  368POPC   C1A 8739  17.767  23.648   8.582
  368POPC   D2A 8740  17.866  23.610   8.153
  368POPC   C3A 8741  17.556  23.594   7.849
  368POPC   C4A 8742  17.581  23.681   7.421
  368POPC   C1B 8743  17.290  23.803   8.714
  368POPC   C2B 8744  17.325  23.739   8.288
  368POPC   C3B 8745  17.064  23.755   7.927
  368POPC   C4B 8746  17.084  23.567   7.539
  369POPC   NC3 8747  23.803  29.376   9.490
  369POPC   PO4 8748  23.556  28.751   9.620
  369POPC   GL1 8749  23.627  28.972   9.198
  369POPC   GL2 8750  23.411  29.259   9.179
  369POPC   C1A 8751  23.946  29.059   8.805
  369POPC   D2A 8752  23.835  28.999   8.414
  369POPC   C3A 8753  23.994  29.192   8.071
  369POPC   C4A 8754  24.005  28.883   7.778
  369POPC   C1B 8755  23.445  29.168   8.740
  369POPC   C2B 8756  23.364  29.160   8.325
  369POPC   C3B 8757  23.541  28.995   7.978
  369POPC   C4B 8758  23.660  29.290   7.679
  370POPC   NC3 8759  41.455  38.081   9.441
  370POPC   PO4 8760  41.704  38.717   9.423
  370POPC   GL1 8761  41.375  38.612   9.143
  370POPC   GL2 8762  41.253  38.305   9.025
  370POPC   C1A 8763  41.224  38.758   8.760
  370POPC   D2A 8764  41.398  38.875   8.378
  370POPC   C3A 8765  41.344  38.639   8.014
  370POPC   C4A 8766  41.712  38.618   7.788
  370POPC   C1B 8767  41.673  38.338   8.821
  370POPC   C2B 8768  41.756  38.013   8.513
  370POPC   C3B 8769  41.456  38.082   8.185
  370POPC   C4B 8770  41.450  38.136   7.744
  371POPC   NC3 8771  40.421  14.761   9.265
  371POPC   PO4 8772  40.978  15.186   9.437
  371POPC   GL1 8773  40.752  15.096   9.066
  371POPC   GL2 8774  40.524  15.339   9.101
  371POPC   C1A 8775  40.649  15.042   8.631
  371POPC   D2A 8776  40.799  15.256   8.284
  371POPC   C3A 8777  40.970  15.051   7.933
  371POPC   C4A 8778  41.063  15.245   7.543
  371POPC   C1B 8779  40.325  15.445   8.727
  371POPC   C2B 8780  40.236  15.276   8.333
  371POPC   C3B 8781  40.412  15.050   7.995
  371POPC   C4B 8782  40.562  15.132   7.596
  372POPC   NC3 8783  42.666  31.822   9.477
  372POPC   PO4 8784  43.298  31.675   9.515
  372POPC   GL1 8785  43.181  31.469   9.130
  372POPC   GL2 8786  43.402  31.657   8.985
  372POPC   C1A 8787  43.335  31.188   8.755
  372POPC   D2A 8788  43.185  31.098   8.310
  372POPC   C3A 8789  43.380  31.315   7.943
  372POPC   C4A 8790  43.350  31.307   7.494
  372POPC   C1B 8791  43.055  31.603   8.660
  372POPC   C2B 8792  43.040  31.597   8.226
  372POPC   C3B 8793  42.805  31.529   7.849
  372POPC   C4B 8794  42.793  31.612   7.397
  373POPC   NC3 8795  40.459  43.018   9.322
  373POPC   PO4 8796  40.794  43.364   9.727
  373POPC   GL1 8797  40.871  43.363   9.277
  373POPC   GL2 8798  40.569  43.477   9.111
  373POPC   C1A 8799  40.988  43.136   8.877
  373POPC   D2A 8800  40.877  42.899   8.480
  373POPC   C3A 8801  40.955  43.067   8.064
  373POPC   C4A 8802  40.888  42.829   7.675
  373POPC   C1B 8803  40.508  43.230   8.703
  373POPC   C2B 8804  40.370  42.974   8.342
  373POPC   C3B 8805  40.469  43.035   7.907
  373POPC   C4B 8806  40.699  43.389   7.717
  374POPC   NC3 8807  20.265  19.831   9.426
  374POPC   PO4 8808  20.917  19.474   9.431
  374POPC   GL1 8809  20.637  19.632   9.116
  374POPC   GL2 8810  20.583  19.982   9.032
  374POPC   C1A 8811  20.610  19.504   8.693
  374POPC   D2A 8812  20.890  19.689   8.376
  374POPC   C3A 8813  20.808  19.670   7.926
  374POPC   C4A 8814  20.870  19.612   7.483
  374POPC   C1B 8815  20.487  19.954   8.569
  374POPC   C2B 8816  20.395  19.706   8.212
  374POPC   C3B 8817  20.281  19.821   7.787
  374POPC   C4B 8818  20.286  20.159   7.430
  375POPC   NC3 8819  11.130  42.360   9.650
  375POPC   PO4 8820  11.793  42.298   9.812
  375POPC   GL1 8821  11.573  42.324   9.302
  375POPC   GL2 8822  11.226  42.397   9.165
  375POPC   C1A 8823  11.603  42.311   8.808
  375POPC   D2A 8824  11.797  42.403   8.339
  375POPC   C3A 8825  11.598  42.263   7.985
  375POPC   C4A 8826  11.458  42.404   7.575
  375POPC   C1B 8827  11.104  42.460   8.744
  375POPC   C2B 8828  11.302  42.422   8.358
  375POPC   C3B 8829  11.106  42.405   7.938
  375POPC   C4B 8830  10.777  42.604   7.669
  376POPC   NC3 8831   0.243  29.465   9.433
  376POPC   PO4 8832   0.591  30.123   9.547
  376POPC   GL1 8833   0.536  29.849   9.222
  376POPC   GL2 8834   0.685  29.581   9.183
  376POPC   C1A 8835   0.514  29.863   8.783
  376POPC   D2A 8836   0.672  29.938   8.406
  376POPC   C3A 8837   0.397  29.886   8.094
  376POPC   C4A 8838   0.282  29.773   7.720
  376POPC   C1B 8839   0.928  29.559   8.839
  376POPC   C2B 8840   1.004  29.536   8.448
  376POPC   C3B 8841   0.810  29.542   8.069
  376POPC   C4B 8842   0.772  29.660   7.655
  377POPC   NC3 8843  44.609  11.712   9.559
  377POPC   PO4 8844  44.383  12.349   9.575
  377POPC   GL1 8845  44.477  12.218   9.144
  377POPC   GL2 8846  44.755  12.033   9.152
  377POPC   C1A 8847  44.330  12.105   8.711
  377POPC   D2A 8848  44.345  12.333   8.336
  377POPC   C3A 8849  44.343  12.109   7.961
  377POPC   C4A 8850  44.423  11.780   7.660
  377POPC   C1B 8851  44.781  11.848   8.747
  377POPC   C2B 8852  44.669  11.940   8.333
  377POPC   C3B 8853  44.854  12.053   7.928
  377POPC   C4B 8854  44.939  11.889   7.513
  378POPC   NC3 8855  42.818  37.846   9.512
  378POPC   PO4 8856  42.709  37.211   9.331
  378POPC   GL1 8857  42.895  37.535   9.089
  378POPC   GL2 8858  43.162  37.795   9.130
  378POPC   C1A 8859  42.927  37.685   8.666
  378POPC   D2A 8860  42.905  37.460   8.269
  378POPC   C3A 8861  43.083  37.472   7.837
  378POPC   C4A 8862  42.869  37.246   7.477
  378POPC   C1B 8863  43.238  38.077   8.756
  378POPC   C2B 8864  43.015  38.090   8.338
  378POPC   C3B 8865  42.970  37.990   7.907
  378POPC   C4B 8866  43.357  37.921   7.692
  379POPC   NC3 8867  25.850  21.682   9.402
  379POPC   PO4 8868  26.226  21.208   9.614
  379POPC   GL1 8869  26.211  21.360   9.187
  379POPC   GL2 8870  25.887  21.243   9.132
  379POPC   C1A 8871  26.132  21.500   8.741
  379POPC   D2A 8872  26.163  21.257   8.376
  379POPC   C3A 8873  26.097  21.333   7.948
  379POPC   C4A 8874  26.390  21.576   7.747
  379POPC   C1B 8875  25.686  21.216   8.742
  379POPC   C2B 8876  25.677  21.394   8.342
  379POPC   C3B 8877  25.694  21.051   8.082
  379POPC   C4B 8878  25.689  20.984   7.669
  380POPC   NC3 8879  33.542   2.039   9.568
  380POPC   PO4 8880  32.905   1.768   9.509
  380POPC   GL1 8881  32.968   1.817   9.063
  380POPC   GL2 8882  33.278   1.968   8.921
  380POPC   C1A 8883  32.832   2.034   8.677
  380POPC   D2A 8884  32.876   2.247   8.296
  380POPC   C3A 8885  33.142   2.038   8.027
  380POPC   C4A 8886  33.321   1.793   7.699
  380POPC   C1B 8887  33.274   2.334   8.620
  380POPC   C2B 8888  33.486   2.410   8.241
  380POPC   C3B 8889  33.487   2.339   7.795
  380POPC   C4B 8890  33.137   2.271   7.565
  381POPC   NC3 8891   6.813  34.154   9.234
  381POPC   PO4 8892   6.704  33.500   9.456
  381POPC   GL1 8893   6.516  33.734   9.105
  381POPC   GL2 8894   6.712  33.890   8.830
  381POPC   C1A 8895   6.269  33.708   8.720
  381POPC   D2A 8896   6.436  33.601   8.322
  381POPC   C3A 8897   6.246  33.734   7.976
  381POPC   C4A 8898   6.407  33.779   7.586
  381POPC   C1B 8899   6.879  33.561   8.599
  381POPC   C2B 8900   6.971  33.638   8.188
  381POPC   C3B 8901   6.710  33.955   7.981
  381POPC   C4B 8902   6.781  34.361   7.782
  382POPC   NC3 8903  36.107  17.173   9.444
  382POPC   PO4 8904  36.022  16.501   9.428
  382POPC   GL1 8905  36.170  16.764   9.060
  382POPC   GL2 8906  36.450  16.988   9.101
  382POPC   C1A 8907  36.117  16.810   8.601
  382POPC   D2A 8908  35.825  16.517   8.412
  382POPC   C3A 8909  36.058  16.382   8.105
  382POPC   C4A 8910  36.267  16.635   7.785
  382POPC   C1B 8911  36.437  17.209   8.719
  382POPC   C2B 8912  36.493  17.082   8.290
  382POPC   C3B 8913  36.263  17.146   7.900
  382POPC   C4B 8914  36.352  17.053   7.463
  383POPC   NC3 8915  36.266  34.146   9.458
  383POPC   PO4 8916  35.633  34.049   9.490
  383POPC   GL1 8917  35.833  33.826   9.187
  383POPC   GL2 8918  36.212  33.779   9.111
  383POPC   C1A 8919  35.823  33.673   8.790
  383POPC   D2A 8920  36.207  33.704   8.527
  383POPC   C3A 8921  36.277  33.494   8.146
  383POPC   C4A 8922  36.203  33.625   7.746
  383POPC   C1B 8923  36.435  34.062   8.827
  383POPC   C2B 8924  36.298  34.223   8.447
  383POPC   C3B 8925  36.187  34.065   8.039
  383POPC   C4B 8926  36.453  34.089   7.673
  384POPC   NC3 8927  22.940  14.058   9.488
  384POPC   PO4 8928  22.692  14.685   9.658
  384POPC   GL1 8929  22.945  14.461   9.206
  384POPC   GL2 8930  22.675  14.221   9.066
  384POPC   C1A 8931  22.933  14.547   8.724
  384POPC   D2A 8932  22.804  14.823   8.419
  384POPC   C3A 8933  23.019  14.674   8.075
  384POPC   C4A 8934  22.774  14.426   7.806
  384POPC   C1B 8935  22.929  14.050   8.702
  384POPC   C2B 8936  23.178  14.240   8.337
  384POPC   C3B 8937  23.167  14.120   7.906
  384POPC   C4B 8938  23.148  14.147   7.446
  385POPC   NC3 8939   6.211  35.528   9.546
  385POPC   PO4 8940   5.561  35.747   9.437
  385POPC   GL1 8941   5.812  35.394   9.172
  385POPC   GL2 8942   6.204  35.302   9.085
  385POPC   C1A 8943   5.869  35.183   8.733
  385POPC   D2A 8944   5.976  35.119   8.287
  385POPC   C3A 8945   5.894  35.441   7.960
  385POPC   C4A 8946   5.743  35.360   7.546
  385POPC   C1B 8947   6.392  35.399   8.659
  385POPC   C2B 8948   6.411  35.340   8.184
  385POPC   C3B 8949   6.229  35.113   7.801
  385POPC   C4B 8950   6.250  35.432   7.464
  386POPC   NC3 8951  34.761   2.468   9.562
  386POPC   PO4 8952  34.564   1.809   9.491
  386POPC   GL1 8953  34.521   2.145   9.204
  386POPC   GL2 8954  34.833   2.198   9.059
  386POPC   C1A 8955  34.290   2.318   8.858
  386POPC   D2A 8956  34.212   2.090   8.464
  386POPC   C3A 8957  34.420   2.196   8.100
  386POPC   C4A 8958  34.491   2.246   7.698
  386POPC   C1B 8959  34.621   1.905   8.746
  386POPC   C2B 8960  34.569   1.751   8.302
  386POPC   C3B 8961  34.776   1.849   7.932
  386POPC   C4B 8962  34.944   1.982   7.550
  387POPC   NC3 8963  10.650  25.189   9.374
  387POPC   PO4 8964  10.124  25.504   9.629
  387POPC   GL1 8965  10.410  25.664   9.267
  387POPC   GL2 8966  10.244  25.417   9.108
  387POPC   C1A 8967  10.687  25.566   8.849
  387POPC   D2A 8968  10.717  25.231   8.517
  387POPC   C3A 8969  10.871  25.202   8.108
  387POPC   C4A 8970  10.710  25.059   7.694
  387POPC   C1B 8971  10.261  25.197   8.741
  387POPC   C2B 8972  10.275  24.972   8.389
  387POPC   C3B 8973  10.376  25.177   8.044
  387POPC   C4B 8974  10.188  25.194   7.671
  388POPC   NC3 8975   5.117  27.591   9.726
  388POPC   PO4 8976   4.911  28.160   9.411
  388POPC   GL1 8977   5.168  27.765   9.267
  388POPC   GL2 8978   5.041  27.460   9.223
  388POPC   C1A 8979   5.362  27.588   8.869
  388POPC   D2A 8980   5.200  27.471   8.484
  388POPC   C3A 8981   5.339  27.751   8.151
  388POPC   C4A 8982   5.597  27.572   7.835
  388POPC   C1B 8983   4.847  27.712   8.834
  388POPC   C2B 8984   4.851  27.782   8.341
  388POPC   C3B 8985   4.909  27.546   7.944
  388POPC   C4B 8986   4.823  27.108   7.743
  389POPC   NC3 8987  35.865   6.467   9.740
  389POPC   PO4 8988  36.216   7.051   9.656
  389POPC   GL1 8989  36.052   6.836   9.247
  389POPC   GL2 8990  35.832   6.512   9.211
  389POPC   C1A 8991  36.081   6.754   8.776
  389POPC   D2A 8992  36.178   7.022   8.406
  389POPC   C3A 8993  36.140   6.911   7.966
  389POPC   C4A 8994  36.270   6.540   7.749
  389POPC   C1B 8995  36.117   6.267   8.906
  389POPC   C2B 8996  36.246   6.350   8.470
  389POPC   C3B 8997  35.960   6.433   8.132
  389POPC   C4B 8998  35.899   6.159   7.755
  390POPC   NC3 8999  33.050   0.223   9.525
  390POPC   PO4 9000  33.186   0.846   9.748
  390POPC   GL1 9001  32.960   0.701   9.339
  390POPC   GL2 9002  33.276   0.648   9.188
  390POPC   C1A 9003  32.888   0.451   8.913
  390POPC   D2A 9004  32.799   0.293   8.479
  390POPC   C3A 9005  32.708   0.637   8.202
  390POPC   C4A 9006  32.652   0.598   7.765
  390POPC   C1B 9007  33.396   0.486   8.772
  390POPC   C2B 9008  33.227   0.537   8.356
  390POPC   C3B 9009  33.116   0.367   7.960
  390POPC   C4B 9010  33.436   0.527   7.714
  391POPC   NC3 9011   8.313  29.279   9.557
  391POPC   PO4 9012   8.380  28.649   9.488
  391POPC   GL1 9013   8.254  28.946   9.176
  391POPC   GL2 9014   8.078  29.320   9.104
  391POPC   C1A 9015   8.466  29.101   8.827
  391POPC   D2A 9016   8.358  29.028   8.402
  391POPC   C3A 9017   8.552  28.959   8.042
  391POPC   C4A 9018   8.462  29.169   7.685
  391POPC   C1B 9019   7.959  29.000   8.779
  391POPC   C2B 9020   7.914  28.817   8.370
  391POPC   C3B 9021   8.019  29.052   7.992
  391POPC   C4B 9022   8.025  28.940   7.564
  392POPC   NC3 9023   6.468  38.764   9.530
  392POPC   PO4 9024   7.060  38.394   9.606
  392POPC   GL1 9025   6.750  38.429   9.259
  392POPC   GL2 9026   6.832  38.748   9.166
  392POPC   C1A 9027   6.458  38.362   8.879
  392POPC   D2A 9028   6.489  38.581   8.451
  392POPC   C3A 9029   6.498  38.380   8.075
  392POPC   C4A 9030   6.517  38.548   7.697
  392POPC   C1B 9031   6.913  38.523   8.781
  392POPC   C2B 9032   7.032  38.584   8.387
  392POPC   C3B 9033   6.859  38.789   8.064
  392POPC   C4B 9034   7.011  38.736   7.665
  393POPC   NC3 9035  32.704   6.533   9.523
  393POPC   PO4 9036  33.223   6.956   9.466
  393POPC   GL1 9037  33.155   6.928   9.064
  393POPC   GL2 9038  32.865   6.721   9.079
  393POPC   C1A 9039  33.220   6.657   8.702
  393POPC   D2A 9040  33.060   6.771   8.303
  393POPC   C3A 9041  33.180   6.637   7.889
  393POPC   C4A 9042  33.315   6.395   7.532
  393POPC   C1B 9043  32.770   6.963   8.720
  393POPC   C2B 9044  32.561   6.788   8.388
  393POPC   C3B 9045  32.660   6.821   7.963
  393POPC   C4B 9046  32.713   6.509   7.690
  394POPC   NC3 9047  16.313  13.171   9.575
  394POPC   PO4 9048  15.677  13.103   9.691
  394POPC   GL1 9049  15.875  13.104   9.284
  394POPC   GL2 9050  15.663  13.311   9.090
  394POPC   C1A 9051  16.020  13.049   8.848
  394POPC   D2A 9052  16.034  12.833   8.462
  394POPC   C3A 9053  15.955  12.913   8.017
  394POPC   C4A 9054  16.092  12.633   7.680
  394POPC   C1B 9055  15.604  13.313   8.662
  394POPC   C2B 9056  15.794  13.313   8.289
  394POPC   C3B 9057  15.675  13.319   7.848
  394POPC   C4B 9058  15.961  13.193   7.521
  395POPC   NC3 9059  38.137   8.348   9.751
  395POPC   PO4 9060  37.530   8.150   9.594
  395POPC   GL1 9061  37.578   8.183   9.128
  395POPC   GL2 9062  37.372   8.469   9.044
  395POPC   C1A 9063  37.723   8.360   8.692
  395POPC   D2A 9064  38.007   8.453   8.317
  395POPC   C3A 9065  37.788   8.366   7.924
  395POPC   C4A 9066  37.823   8.378   7.449
  395POPC   C1B 9067  37.164   8.139   8.833
  395POPC   C2B 9068  37.345   8.018   8.485
  395POPC   C3B 9069  37.329   8.140   8.064
  395POPC   C4B 9070  37.436   8.099   7.648
  396POPC   NC3 9071   3.345  11.211   9.594
  396POPC   PO4 9072   3.931  11.005   9.555
  396POPC   GL1 9073   3.664  11.064   9.196
  396POPC   GL2 9074   3.520  11.355   9.116
  396POPC   C1A 9075   3.515  10.969   8.805
  396POPC   D2A 9076   3.577  11.206   8.468
  396POPC   C3A 9077   3.472  11.108   8.071
  396POPC   C4A 9078   3.717  11.110   7.672
  396POPC   C1B 9079   3.404  11.595   8.776
  396POPC   C2B 9080   3.520  11.708   8.342
  396POPC   C3B 9081   3.668  11.569   7.943
  396POPC   C4B 9082   3.412  11.502   7.578
  397POPC   NC3 9083  17.773  42.767   9.538
  397POPC   PO4 9084  17.659  42.093   9.402
  397POPC   GL1 9085  17.487  42.291   9.058
  397POPC   GL2 9086  17.422  42.635   9.127
  397POPC   C1A 9087  17.710  42.542   8.741
  397POPC   D2A 9088  17.576  42.418   8.338
  397POPC   C3A 9089  17.727  42.296   7.937
  397POPC   C4A 9090  17.748  42.311   7.507
  397POPC   C1B 9091  17.210  42.640   8.713
  397POPC   C2B 9092  17.102  42.779   8.290
  397POPC   C3B 9093  17.031  42.800   7.847
  397POPC   C4B 9094  17.326  42.592   7.504
  398POPC   NC3 9095  36.910  34.493   9.495
  398POPC   PO4 9096  37.013  35.140   9.374
  398POPC   GL1 9097  37.100  34.800   9.131
  398POPC   GL2 9098  36.743  34.774   9.104
  398POPC   C1A 9099  37.067  34.473   8.805
  398POPC   D2A 9100  37.295  34.373   8.446
  398POPC   C3A 9101  37.130  34.415   8.043
  398POPC   C4A 9102  36.940  34.139   7.790
  398POPC   C1B 9103  36.562  34.561   8.798
  398POPC   C2B 9104  36.679  34.589   8.414
  398POPC   C3B 9105  36.595  34.403   8.061
  398POPC   C4B 9106  36.455  34.610   7.741
  399POPC   NC3 9107   4.603  12.139   9.335
  399POPC   PO4 9108   5.299  12.079   9.381
  399POPC   GL1 9109   4.992  11.922   9.050
  399POPC   GL2 9110   4.877  11.552   9.017
  399POPC   C1A 9111   4.982  12.134   8.652
  399POPC   D2A 9112   5.264  12.291   8.334
  399POPC   C3A 9113   5.189  12.172   7.919
  399POPC   C4A 9114   5.003  12.360   7.553
  399POPC   C1B 9115   4.977  11.630   8.596
  399POPC   C2B 9116   4.944  11.792   8.183
  399POPC   C3B 9117   5.154  11.662   7.817
  399POPC   C4B 9118   5.259  11.941   7.459
  400POPC   NC3 9119  20.005  16.204   9.377
  400POPC   PO4 9120  19.480  15.895   9.515
  400POPC   GL1 9121  19.629  16.036   9.095
  400POPC   GL2 9122  19.977  15.837   9.022
  400POPC   C1A 9123  19.783  16.114   8.655
  400POPC   D2A 9124  19.969  15.929   8.283
  400POPC   C3A 9125  19.687  15.837   7.947
  400POPC   C4A 9126  19.681  16.194   7.719
  400POPC   C1B 9127  20.280  16.112   8.723
  400POPC   C2B 9128  20.215  16.400   8.367
  400POPC   C3B 9129  20.149  16.321   7.928
  400POPC   C4B 9130  20.133  15.957   7.693
  401POPC   NC3 9131   3.378  16.911   9.614
  401POPC   PO4 9132   3.528  16.412   9.309
  401POPC   GL1 9133   3.298  16.776   9.105
  401POPC   GL2 9134   3.411  17.138   9.136
  401POPC   C1A 9135   3.181  16.983   8.719
  401POPC   D2A 9136   3.370  17.053   8.355
  401POPC   C3A 9137   3.466  16.783   8.046
  401POPC   C4A 9138   3.507  16.615   7.634
  401POPC   C1B 9139   3.702  17.016   8.775
  401POPC   C2B 9140   3.872  16.959   8.338
  401POPC   C3B 9141   3.911  16.954   7.871
  401POPC   C4B 9142   4.027  16.853   7.432
  402POPC   NC3 9143   5.813   6.457   9.351
  402POPC   PO4 9144   5.294   6.861   9.400
  402POPC   GL1 9145   5.559   6.768   9.026
  402POPC   GL2 9146   5.815   7.043   8.994
  402POPC   C1A 9147   5.874   6.621   8.670
  402POPC   D2A 9148   6.150   6.619   8.278
  402POPC   C3A 9149   6.040   6.626   7.811
  402POPC   C4A 9150   5.778   6.504   7.411
  402POPC   C1B 9151   5.555   7.004   8.574
  402POPC   C2B 9152   5.703   6.872   8.151
  402POPC   C3B 9153   5.648   6.904   7.698
  402POPC   C4B 9154   5.919   6.971   7.305
  403POPC   NC3 9155   5.332  43.680   9.831
  403POPC   PO4 9156   5.959  43.795   9.491
  403POPC   GL1 9157   6.081  43.917   9.113
  403POPC   GL2 9158   6.093  43.578   9.004
  403POPC   C1A 9159   6.207  43.925   8.683
  403POPC   D2A 9160   5.943  44.006   8.354
  403POPC   C3A 9161   6.153  43.964   7.981
  403POPC   C4A 9162   6.021  43.860   7.598
  403POPC   C1B 9163   5.705  43.768   8.818
  403POPC   C2B 9164   5.472  43.768   8.443
  403POPC   C3B 9165   5.679  43.675   8.049
  403POPC   C4B 9166   5.674  43.505   7.645
  404POPC   NC3 9167  13.936  13.333   9.571
  404POPC   PO4 9168  13.569  13.875   9.477
  404POPC   GL1 9169  13.747  13.860   9.108
  404POPC   GL2 9170  13.968  13.607   9.154
  404POPC   C1A 9171  13.683  13.661   8.742
  404POPC   D2A 9172  13.783  13.879   8.408
  404POPC   C3A 9173  13.675  13.620   8.123
  404POPC   C4A 9174  13.725  13.674   7.712
  404POPC   C1B 9175  14.189  13.406   8.837
  404POPC   C2B 9176  14.113  13.358   8.402
  404POPC   C3B 9177  14.134  13.460   7.977
  404POPC   C4B 9178  14.130  13.439   7.539
  405POPC   NC3 9179  26.734  34.113   9.651
  405POPC   PO4 9180  26.533  33.498   9.482
  405POPC   GL1 9181  26.569  33.545   9.055
  405POPC   GL2 9182  26.872  33.678   8.994
  405POPC   C1A 9183  26.457  33.826   8.701
  405POPC   D2A 9184  26.695  33.991   8.345
  405POPC   C3A 9185  26.547  33.869   7.947
  405POPC   C4A 9186  26.609  34.058   7.535
  405POPC   C1B 9187  26.759  33.427   8.598
  405POPC   C2B 9188  26.856  33.530   8.174
  405POPC   C3B 9189  27.025  33.754   7.798
  405POPC   C4B 9190  27.195  33.887   7.396
  406POPC   NC3 9191  29.002   6.329   9.779
  406POPC   PO4 9192  29.105   6.825   9.361
  406POPC   GL1 9193  29.243   6.643   9.037
  406POPC   GL2 9194  29.351   6.954   8.879
  406POPC   C1A 9195  29.100   6.526   8.639
  406POPC   D2A 9196  29.222   6.328   8.267
  406POPC   C3A 9197  28.957   6.387   7.929
  406POPC   C4A 9198  28.962   6.253   7.510
  406POPC   C1B 9199  29.672   7.097   8.594
  406POPC   C2B 9200  29.631   6.962   8.203
  406POPC   C3B 9201  29.244   6.812   8.039
  406POPC   C4B 9202  29.199   6.720   7.602
  407POPC   NC3 9203  11.831  28.061   9.478
  407POPC   PO4 9204  11.085  28.380   9.428
  407POPC   GL1 9205  11.215  28.223   9.047
  407POPC   GL2 9206  11.556  28.292   9.108
  407POPC   C1A 9207  11.279  28.323   8.633
  407POPC   D2A 9208  11.610  28.411   8.351
  407POPC   C3A 9209  11.449  28.611   8.013
  407POPC   C4A 9210  11.138  28.645   7.724
  407POPC   C1B 9211  11.647  27.977   8.823
  407POPC   C2B 9212  11.522  27.902   8.435
  407POPC   C3B 9213  11.247  28.113   8.152
  407POPC   C4B 9214  11.290  28.157   7.729
  408POPC   NC3 9215  22.124  21.011   9.340
  408POPC   PO4 9216  22.131  20.371   9.400
  408POPC   GL1 9217  22.281  20.445   8.996
  408POPC   GL2 9218  22.059  20.701   8.942
  408POPC   C1A 9219  22.225  20.405   8.554
  408POPC   D2A 9220  21.874  20.588   8.371
  408POPC   C3A 9221  21.938  20.682   7.972
  408POPC   C4A 9222  22.318  20.556   7.799
  408POPC   C1B 9223  22.240  20.931   8.645
  408POPC   C2B 9224  22.361  20.834   8.262
  408POPC   C3B 9225  22.403  21.041   7.898
  408POPC   C4B 9226  22.053  21.088   7.668
  409POPC   NC3 9227  42.234  34.303   9.454
  409POPC   PO4 9228  42.582  34.827   9.651
  409POPC   GL1 9229  42.531  34.644   9.184
  409POPC   GL2 9230  42.341  34.375   8.990
  409POPC   C1A 9231  42.318  34.837   8.775
  409POPC   D2A 9232  42.303  34.729   8.331
  409POPC   C3A 9233  42.122  34.907   7.990
  409POPC   C4A 9234  42.316  34.641   7.723
  409POPC   C1B 9235  42.331  34.098   8.664
  409POPC   C2B 9236  42.334  34.204   8.192
  409POPC   C3B 9237  42.292  34.130   7.720
  409POPC   C4B 9238  42.466  34.342   7.336
  410POPC   NC3 9239   8.190  38.800   9.740
  410POPC   PO4 9240   8.033  38.199   9.491
  410POPC   GL1 9241   8.274  38.417   9.186
  410POPC   GL2 9242   7.962  38.420   8.978
  410POPC   C1A 9243   8.404  38.468   8.740
  410POPC   D2A 9244   8.492  38.281   8.329
  410POPC   C3A 9245   8.402  38.465   7.925
  410POPC   C4A 9246   8.392  38.585   7.446
  410POPC   C1B 9247   7.914  38.417   8.554
  410POPC   C2B 9248   8.083  38.713   8.293
  410POPC   C3B 9249   7.994  38.738   7.892
  410POPC   C4B 9250   7.881  38.368   7.682
  411POPC   NC3 9251  22.727  24.083   9.254
  411POPC   PO4 9252  22.361  23.636   9.599
  411POPC   GL1 9253  22.412  23.670   9.172
  411POPC   GL2 9254  22.165  23.928   9.148
  411POPC   C1A 9255  22.464  23.829   8.727
  411POPC   D2A 9256  22.537  23.743   8.322
  411POPC   C3A 9257  22.348  23.583   7.964
  411POPC   C4A 9258  22.393  23.996   7.759
  411POPC   C1B 9259  22.046  23.577   8.836
  411POPC   C2B 9260  22.049  23.562   8.451
  411POPC   C3B 9261  21.965  23.862   8.170
  411POPC   C4B 9262  21.906  23.812   7.772
  412POPC   NC3 9263  16.171  16.447   9.478
  412POPC   PO4 9264  15.866  17.019   9.587
  412POPC   GL1 9265  15.985  16.848   9.204
  412POPC   GL2 9266  16.323  16.902   9.098
  412POPC   C1A 9267  15.871  16.672   8.813
  412POPC   D2A 9268  16.045  16.561   8.414
  412POPC   C3A 9269  15.808  16.393   8.090
  412POPC   C4A 9270  15.718  16.643   7.724
  412POPC   C1B 9271  16.312  16.930   8.649
  412POPC   C2B 9272  16.283  16.979   8.213
  412POPC   C3B 9273  16.141  16.929   7.807
  412POPC   C4B 9274  16.261  16.719   7.438
  413POPC   NC3 9275  17.993   1.797   9.379
  413POPC   PO4 9276  18.668   1.814   9.559
  413POPC   GL1 9277  18.495   1.955   9.137
  413POPC   GL2 9278  18.237   2.232   9.089
  413POPC   C1A 9279  18.279   1.868   8.723
  413POPC   D2A 9280  18.383   1.647   8.320
  413POPC   C3A 9281  18.604   1.920   7.995
  413POPC   C4A 9282  18.463   1.937   7.520
  413POPC   C1B 9283  17.983   2.304   8.688
  413POPC   C2B 9284  18.171   2.159   8.283
  413POPC   C3B 9285  18.107   1.915   7.888
  413POPC   C4B 9286  17.993   2.099   7.433
  414POPC   NC3 9287  20.933  22.292   9.543
  414POPC   PO4 9288  21.579  22.081   9.602
  414POPC   GL1 9289  21.614  22.050   9.193
  414POPC   GL2 9290  21.254  22.121   9.170
  414POPC   C1A 9291  21.603  22.256   8.774
  414POPC   D2A 9292  21.796  22.434   8.409
  414POPC   C3A 9293  21.645  22.231   8.031
  414POPC   C4A 9294  21.534  22.444   7.650
  414POPC   C1B 9295  21.069  22.132   8.786
  414POPC   C2B 9296  21.226  22.094   8.382
  414POPC   C3B 9297  21.118  22.275   7.992
  414POPC   C4B 9298  21.067  22.651   7.778
  415POPC   NC3 9299  25.890  18.910   9.219
  415POPC   PO4 9300  25.468  19.369   9.566
  415POPC   GL1 9301  25.346  19.184   9.185
  415POPC   GL2 9302  25.056  18.971   9.247
  415POPC   C1A 9303  25.272  19.339   8.774
  415POPC   D2A 9304  24.966  19.248   8.457
  415POPC   C3A 9305  25.107  19.286   8.035
  415POPC   C4A 9306  25.583  19.319   7.893
  415POPC   C1B 9307  25.140  18.864   8.800
  415POPC   C2B 9308  25.368  18.977   8.376
  415POPC   C3B 9309  25.350  18.870   7.904
  415POPC   C4B 9310  24.977  18.894   7.573
  416POPC   NC3 9311  22.652  11.624   9.503
  416POPC   PO4 9312  22.927  12.135   9.512
  416POPC   GL1 9313  22.955  12.004   9.139
  416POPC   GL2 9314  23.128  11.714   9.084
  416POPC   C1A 9315  22.729  12.061   8.776
  416POPC   D2A 9316  22.784  11.897   8.391
  416POPC   C3A 9317  22.793  12.138   8.083
  416POPC   C4A 9318  22.691  12.045   7.662
  416POPC   C1B 9319  23.197  11.914   8.681
  416POPC   C2B 9320  23.306  11.969   8.214
  416POPC   C3B 9321  23.189  12.107   7.767
  416POPC   C4B 9322  23.093  12.032   7.330
  417POPC   NC3 9323  44.881  37.767   9.471
  417POPC   PO4 9324  44.160  37.819   9.395
  417POPC   GL1 9325  44.559  37.667   9.096
  417POPC   GL2 9326  44.947  37.503   9.049
  417POPC   C1A 9327  44.667  37.649   8.666
  417POPC   D2A 9328  44.450  37.442   8.382
  417POPC   C3A 9329  44.650  37.694   8.104
  417POPC   C4A 9330  44.553  37.689   7.692
  417POPC   C1B 9331   0.189  37.466   8.659
  417POPC   C2B 9332   0.145  37.635   8.260
  417POPC   C3B 9333   0.047  37.574   7.801
  417POPC   C4B 9334   0.312  37.710   7.419
  418POPC   NC3 9335  30.650  29.398   9.470
  418POPC   PO4 9336  30.566  28.704   9.531
  418POPC   GL1 9337  30.576  28.995   9.185
  418POPC   GL2 9338  30.940  29.084   9.170
  418POPC   C1A 9339  30.489  29.270   8.815
  418POPC   D2A 9340  30.720  29.326   8.418
  418POPC   C3A 9341  30.442  29.297   8.100
  418POPC   C4A 9342  30.429  29.151   7.722
  418POPC   C1B 9343  30.858  28.920   8.768
  418POPC   C2B 9344  30.954  28.817   8.373
  418POPC   C3B 9345  30.794  28.845   8.023
  418POPC   C4B 9346  30.901  28.972   7.667
  419POPC   NC3 9347   4.622  44.123   9.695
  419POPC   PO4 9348   4.260  43.632   9.520
  419POPC   GL1 9349   4.275  43.941   9.159
  419POPC   GL2 9350   4.554  43.856   8.925
  419POPC   C1A 9351   4.159  44.075   8.707
  419POPC   D2A 9352   4.494  44.007   8.401
  419POPC   C3A 9353   4.499  44.048   7.970
  419POPC   C4A 9354   4.141  44.062   7.708
  419POPC   C1B 9355   4.288  43.579   8.628
  419POPC   C2B 9356   3.879  43.550   8.434
  419POPC   C3B 9357   4.087  43.759   8.119
  419POPC   C4B 9358   4.380  43.586   7.787
  420POPC   NC3 9359   1.563  43.791   9.562
  420POPC   PO4 9360   0.852  44.001   9.416
  420POPC   GL1 9361   1.207  43.781   9.178
  420POPC   GL2 9362   1.449  43.466   9.212
  420POPC   C1A 9363   1.167  43.862   8.745
  420POPC   D2A 9364   1.380  43.940   8.395
  420POPC   C3A 9365   1.096  43.940   8.093
  420POPC   C4A 9366   1.048  43.629   7.813
  420POPC   C1B 9367   1.601  43.604   8.807
  420POPC   C2B 9368   1.603  43.477   8.372
  420POPC   C3B 9369   1.533  43.536   7.988
  420POPC   C4B 9370   1.406  43.361   7.618
  421POPC   NC3 9371  31.344  11.719   9.517
  421POPC   PO4 9372  31.805  12.162   9.508
  421POPC   GL1 9373  31.518  12.084   9.178
  421POPC   GL2 9374  31.658  11.771   9.110
  421POPC   C1A 9375  31.281  12.268   8.834
  421POPC   D2A 9376  31.302  12.141   8.394
  421POPC   C3A 9377  31.288  12.404   8.006
  421POPC   C4A 9378  31.616  12.488   7.683
  421POPC   C1B 9379  31.416  11.771   8.752
  421POPC   C2B 9380  31.253  11.648   8.375
  421POPC   C3B 9381  31.369  11.858   7.971
  421POPC   C4B 9382  31.668  11.585   7.794
  422POPC   NC3 9383  36.269  43.413   9.599
  422POPC   PO4 9384  35.997  44.046   9.425
  422POPC   GL1 9385  36.196  43.907   9.101
  422POPC   GL2 9386  36.463  43.813   9.303
  422POPC   C1A 9387  36.085  43.707   8.710
  422POPC   D2A 9388  35.734  43.624   8.439
  422POPC   C3A 9389  35.800  43.769   8.009
  422POPC   C4A 9390  36.106  43.969   7.769
  422POPC   C1B 9391  36.593  43.727   8.851
  422POPC   C2B 9392  36.498  43.838   8.414
  422POPC   C3B 9393  36.539  43.738   7.984
  422POPC   C4B 9394  36.260  43.498   7.799
  423POPC   NC3 9395  21.185   1.266   9.857
  423POPC   PO4 9396  20.614   1.296   9.556
  423POPC   GL1 9397  20.629   1.329   9.144
  423POPC   GL2 9398  20.595   0.944   9.149
  423POPC   C1A 9399  20.785   1.193   8.743
  423POPC   D2A 9400  20.743   0.906   8.374
  423POPC   C3A 9401  20.712   1.175   7.993
  423POPC   C4A 9402  20.659   1.062   7.553
  423POPC   C1B 9403  20.396   0.884   8.758
  423POPC   C2B 9404  20.232   0.856   8.333
  423POPC   C3B 9405  20.410   0.784   7.918
  423POPC   C4B 9406  20.280   0.706   7.509
  424POPC   NC3 9407  11.323  26.320   9.523
  424POPC   PO4 9408  11.711  25.785   9.203
  424POPC   GL1 9409  11.398  26.089   9.052
  424POPC   GL2 9410  11.106  26.333   9.086
  424POPC   C1A 9411  11.507  26.197   8.635
  424POPC   D2A 9412  11.481  25.923   8.323
  424POPC   C3A 9413  11.610  25.971   7.923
  424POPC   C4A 9414  11.499  25.549   7.789
  424POPC   C1B 9415  10.984  26.155   8.736
  424POPC   C2B 9416  11.073  26.229   8.340
  424POPC   C3B 9417  10.933  26.203   7.967
  424POPC   C4B 9418  11.140  25.925   7.692
  425POPC   NC3 9419  10.085  18.631   9.469
  425POPC   PO4 9420  10.624  18.269   9.446
  425POPC   GL1 9421  10.385  18.234   9.068
  425POPC   GL2 9422  10.374  18.581   8.980
  425POPC   C1A 9423  10.557  18.072   8.666
  425POPC   D2A 9424  10.530  18.257   8.301
  425POPC   C3A 9425  10.556  18.152   7.880
  425POPC   C4A 9426  10.223  18.327   7.673
  425POPC   C1B 9427  10.776  18.495   8.841
  425POPC   C2B 9428  10.918  18.545   8.450
  425POPC   C3B 9429  10.775  18.608   8.041
  425POPC   C4B 9430  10.606  18.656   7.624
  426POPC   NC3 9431  34.907  43.607   9.430
  426POPC   PO4 9432  35.155  44.210   9.433
  426POPC   GL1 9433  35.485  44.079   9.077
  426POPC   GL2 9434  35.698  43.758   9.083
  426POPC   C1A 9435  35.702  44.099   8.688
  426POPC   D2A 9436  35.462  44.047   8.300
  426POPC   C3A 9437  35.289  44.213   7.906
  426POPC   C4A 9438  35.146  43.956   7.522
  426POPC   C1B 9439  35.331  43.676   8.798
  426POPC   C2B 9440  35.212  43.563   8.388
  426POPC   C3B 9441  35.303  43.658   7.963
  426POPC   C4B 9442  35.075  43.453   7.664
  427POPC   NC3 9443  19.364  13.158   9.177
  427POPC   PO4 9444  18.863  12.770   9.436
  427POPC   GL1 9445  18.859  12.904   9.048
  427POPC   GL2 9446  19.071  12.648   8.962
  427POPC   C1A 9447  19.002  13.020   8.634
  427POPC   D2A 9448  19.104  13.168   8.254
  427POPC   C3A 9449  19.214  12.883   7.967
  427POPC   C4A 9450  19.066  12.774   7.520
  427POPC   C1B 9451  19.256  12.570   8.577
  427POPC   C2B 9452  19.343  12.455   8.187
  427POPC   C3B 9453  19.427  12.473   7.747
  427POPC   C4B 9454  19.221  12.301   7.369
  428POPC   NC3 9455  12.058  41.994   9.583
  428POPC   PO4 9456  12.363  42.604   9.485
  428POPC   GL1 9457  12.094  42.539   9.138
  428POPC   GL2 9458  12.054  42.206   9.119
  428POPC   C1A 9459  12.073  42.532   8.718
  428POPC   D2A 9460  12.284  42.243   8.333
  428POPC   C3A 9461  12.170  42.287   7.927
  428POPC   C4A 9462  11.908  42.573   7.738
  428POPC   C1B 9463  12.001  42.029   8.700
  428POPC   C2B 9464  11.743  41.877   8.382
  428POPC   C3B 9465  11.821  41.812   7.959
  428POPC   C4B 9466  11.850  42.074   7.585
  429POPC   NC3 9467   7.524   2.724   9.623
  429POPC   PO4 9468   7.810   3.229   9.340
  429POPC   GL1 9469   7.698   2.874   9.148
  429POPC   GL2 9470   7.351   2.852   9.169
  429POPC   C1A 9471   7.623   2.669   8.781
  429POPC   D2A 9472   7.331   2.676   8.449
  429POPC   C3A 9473   7.557   2.575   8.089
  429POPC   C4A 9474   7.459   2.582   7.678
  429POPC   C1B 9475   7.338   3.100   8.834
  429POPC   C2B 9476   7.253   3.210   8.426
  429POPC   C3B 9477   7.217   2.990   8.049
  429POPC   C4B 9478   7.416   3.081   7.664
  430POPC   NC3 9479  21.458  32.656   9.474
  430POPC   PO4 9480  21.503  31.999   9.508
  430POPC   GL1 9481  21.613  32.250   9.147
  430POPC   GL2 9482  21.331  32.472   8.981
  430POPC   C1A 9483  21.635  32.205   8.701
  430POPC   D2A 9484  21.322  32.048   8.434
  430POPC   C3A 9485  21.568  32.249   8.161
  430POPC   C4A 9486  21.627  32.317   7.760
  430POPC   C1B 9487  20.963  32.369   8.683
  430POPC   C2B 9488  20.945  32.326   8.212
  430POPC   C3B 9489  21.146  32.118   7.898
  430POPC   C4B 9490  21.154  32.404   7.601
  431POPC   NC3 9491  32.229   0.794   9.516
  431POPC   PO4 9492  32.526   0.139   9.494
  431POPC   GL1 9493  32.450   0.443   9.190
  431POPC   GL2 9494  32.102   0.504   9.135
  431POPC   C1A 9495  32.392   0.398   8.741
  431POPC   D2A 9496  32.319   0.062   8.444
  431POPC   C3A 9497  32.455   0.211   8.066
  431POPC   C4A 9498  32.238   0.309   7.726
  431POPC   C1B 9499  31.971   0.668   8.717
  431POPC   C2B 9500  32.179   0.601   8.309
  431POPC   C3B 9501  32.177   0.789   7.898
  431POPC   C4B 9502  32.101   0.745   7.445
  432POPC   NC3 9503  11.954  15.041   9.481
  432POPC   PO4 9504  12.293  15.648   9.381
  432POPC   GL1 9505  12.203  15.329   9.083
  432POPC   GL2 9506  11.890  15.341   9.077
  432POPC   C1A 9507  12.270  15.050   8.704
  432POPC   D2A 9508  12.514  15.111   8.307
  432POPC   C3A 9509  12.274  15.369   8.025
  432POPC   C4A 9510  11.890  15.357   7.783
  432POPC   C1B 9511  11.770  14.949   8.863
  432POPC   C2B 9512  11.753  14.815   8.470
  432POPC   C3B 9513  11.935  14.990   8.131
  432POPC   C4B 9514  11.921  14.869   7.713
  433POPC   NC3 9515  22.099  30.403   9.573
  433POPC   PO4 9516  22.568  29.991   9.488
  433POPC   GL1 9517  22.199  30.015   9.215
  433POPC   GL2 9518  21.952  30.302   9.118
  433POPC   C1A 9519  22.151  29.837   8.802
  433POPC   D2A 9520  22.389  29.927   8.442
  433POPC   C3A 9521  22.183  29.859   8.034
  433POPC   C4A 9522  22.214  30.028   7.609
  433POPC   C1B 9523  21.838  30.226   8.718
  433POPC   C2B 9524  21.953  30.238   8.303
  433POPC   C3B 9525  21.906  30.304   7.883
  433POPC   C4B 9526  21.750  30.179   7.454
  434POPC   NC3 9527  23.993  25.010   9.789
  434POPC   PO4 9528  23.466  25.339   9.485
  434POPC   GL1 9529  23.695  25.231   9.162
  434POPC   GL2 9530  23.992  25.087   9.175
  434POPC   C1A 9531  23.682  25.117   8.762
  434POPC   D2A 9532  23.778  25.345   8.419
  434POPC   C3A 9533  23.637  25.326   8.012
  434POPC   C4A 9534  23.638  25.059   7.679
  434POPC   C1B 9535  24.113  25.401   8.830
  434POPC   C2B 9536  24.207  25.583   8.418
  434POPC   C3B 9537  24.026  25.675   8.010
  434POPC   C4B 9538  23.887  25.503   7.580
  435POPC   NC3 9539  43.079  14.059   9.445
  435POPC   PO4 9540  43.479  13.622   9.538
  435POPC   GL1 9541  43.216  13.469   9.191
  435POPC   GL2 9542  43.059  13.719   9.040
  435POPC   C1A 9543  43.319  13.348   8.747
  435POPC   D2A 9544  43.498  13.542   8.329
  435POPC   C3A 9545  43.412  13.400   7.933
  435POPC   C4A 9546  43.129  13.596   7.651
  435POPC   C1B 9547  42.932  13.656   8.621
  435POPC   C2B 9548  42.979  13.623   8.166
  435POPC   C3B 9549  42.672  13.713   7.810
  435POPC   C4B 9550  42.765  13.913   7.374
  436POPC   NC3 9551  27.679  10.110   9.599
  436POPC   PO4 9552  27.821   9.457   9.597
  436POPC   GL1 9553  27.680   9.664   9.245
  436POPC   GL2 9554  27.331   9.578   9.185
  436POPC   C1A 9555  27.734   9.613   8.808
  436POPC   D2A 9556  27.702   9.731   8.399
  436POPC   C3A 9557  27.640   9.430   8.108
  436POPC   C4A 9558  27.806   9.691   7.840
  436POPC   C1B 9559  27.204   9.743   8.759
  436POPC   C2B 9560  27.208   9.650   8.316
  436POPC   C3B 9561  27.243   9.678   7.875
  436POPC   C4B 9562  27.043   9.528   7.503
  437POPC   NC3 9563  17.460  26.326   9.377
  437POPC   PO4 9564  17.157  25.728   9.547
  437POPC   GL1 9565  17.296  25.921   9.146
  437POPC   GL2 9566  17.047  26.127   9.074
  437POPC   C1A 9567  17.465  25.988   8.730
  437POPC   D2A 9568  17.314  25.800   8.384
  437POPC   C3A 9569  17.448  25.929   8.080
  437POPC   C4A 9570  17.396  25.849   7.696
  437POPC   C1B 9571  16.970  26.069   8.627
  437POPC   C2B 9572  16.991  26.151   8.160
  437POPC   C3B 9573  17.289  26.352   7.843
  437POPC   C4B 9574  17.361  26.240   7.386
  438POPC   NC3 9575  43.984   6.973   9.652
  438POPC   PO4 9576  44.021   7.570   9.530
  438POPC   GL1 9577  43.904   7.388   9.195
  438POPC   GL2 9578  43.589   7.510   9.188
  438POPC   C1A 9579  43.939   7.397   8.768
  438POPC   D2A 9580  44.031   7.174   8.419
  438POPC   C3A 9581  43.880   7.398   8.087
  438POPC   C4A 9582  43.825   7.267   7.703
  438POPC   C1B 9583  43.638   7.799   8.863
  438POPC   C2B 9584  43.699   7.758   8.438
  438POPC   C3B 9585  43.466   7.715   8.071
  438POPC   C4B 9586  43.622   7.735   7.652
  439POPC   NC3 9587   6.996  27.507   9.906
  439POPC   PO4 9588   6.413  27.466   9.425
  439POPC   GL1 9589   6.607  27.361   9.031
  439POPC   GL2 9590   6.373  27.376   8.794
  439POPC   C1A 9591   6.810  27.595   8.708
  439POPC   D2A 9592   6.608  27.706   8.354
  439POPC   C3A 9593   6.898  27.704   8.047
  439POPC   C4A 9594   6.787  27.810   7.644
  439POPC   C1B 9595   6.690  27.122   8.567
  439POPC   C2B 9596   6.679  27.218   8.174
  439POPC   C3B 9597   6.443  27.436   7.884
  439POPC   C4B 9598   6.459  27.347   7.437
  440POPC   NC3 9599  33.581  24.211   9.637
  440POPC   PO4 9600  33.741  23.562   9.537
  440POPC   GL1 9601  33.708  23.493   9.113
  440POPC   GL2 9602  34.056  23.543   9.051
  440POPC   C1A 9603  33.613  23.573   8.680
  440POPC   D2A 9604  33.806  23.636   8.293
  440POPC   C3A 9605  33.535  23.581   7.968
  440POPC   C4A 9606  33.733  23.564   7.572
  440POPC   C1B 9607  34.115  23.769   8.680
  440POPC   C2B 9608  34.223  23.940   8.264
  440POPC   C3B 9609  33.925  23.947   7.890
  440POPC   C4B 9610  33.503  24.032   7.710
  441POPC   NC3 9611  28.051  14.245   9.465
  441POPC   PO4 9612  27.470  14.111   9.531
  441POPC   GL1 9613  27.506  14.387   9.181
  441POPC   GL2 9614  27.297  14.691   9.272
  441POPC   C1A 9615  27.752  14.416   8.770
  441POPC   D2A 9616  27.988  14.451   8.350
  441POPC   C3A 9617  27.758  14.395   7.961
  441POPC   C4A 9618  27.443  14.223   7.688
  441POPC   C1B 9619  27.266  14.679   8.827
  441POPC   C2B 9620  27.216  14.551   8.385
  441POPC   C3B 9621  27.301  14.669   7.955
  441POPC   C4B 9622  27.297  14.894   7.571
  442POPC   NC3 9623  21.240   5.953   9.624
  442POPC   PO4 9624  21.783   6.282   9.351
  442POPC   GL1 9625  21.426   5.955   9.142
  442POPC   GL2 9626  21.330   5.596   9.243
  442POPC   C1A 9627  21.397   5.979   8.710
  442POPC   D2A 9628  21.199   6.165   8.381
  442POPC   C3A 9629  21.411   6.020   8.053
  442POPC   C4A 9630  21.512   5.946   7.638
  442POPC   C1B 9631  21.086   5.607   8.859
  442POPC   C2B 9632  21.139   5.533   8.459
  442POPC   C3B 9633  20.993   5.738   8.144
  442POPC   C4B 9634  21.038   5.800   7.749
  443POPC   NC3 9635  38.129  26.475   9.334
  443POPC   PO4 9636  38.670  26.856   9.535
  443POPC   GL1 9637  38.651  26.627   9.156
  443POPC   GL2 9638  38.618  26.892   8.909
  443POPC   C1A 9639  38.780  26.421   8.750
  443POPC   D2A 9640  38.570  26.351   8.358
  443POPC   C3A 9641  38.525  26.776   8.162
  443POPC   C4A 9642  38.379  26.905   7.737
  443POPC   C1B 9643  38.349  27.096   8.561
  443POPC   C2B 9644  38.154  27.178   8.145
  443POPC   C3B 9645  38.097  27.327   7.720
  443POPC   C4B 9646  38.353  27.261   7.336
  444POPC   NC3 9647  22.614  44.201   9.441
  444POPC   PO4 9648  23.254  44.249   9.760
  444POPC   GL1 9649  23.138  44.372   9.331
  444POPC   GL2 9650  23.090  44.746   9.294
  444POPC   C1A 9651  23.075  44.354   8.880
  444POPC   D2A 9652  22.799  44.330   8.512
  444POPC   C3A 9653  22.930  44.328   8.060
  444POPC   C4A 9654  22.867  44.456   7.590
  444POPC   C1B 9655  23.022  44.902   8.859
  444POPC   C2B 9656  22.789  44.857   8.455
  444POPC   C3B 9657  22.868  44.823   8.007
  444POPC   C4B 9658  23.101  44.923   7.637
  445POPC   NC3 9659  42.853  36.709   9.438
  445POPC   PO4 9660  43.430  37.092   9.544
  445POPC   GL1 9661  43.163  37.066   9.154
  445POPC   GL2 9662  42.866  36.893   8.985
  445POPC   C1A 9663  43.117  37.218   8.733
  445POPC   D2A 9664  43.043  36.963   8.429
  445POPC   C3A 9665  42.983  37.011   8.030
  445POPC   C4A 9666  43.252  36.977   7.702
  445POPC   C1B 9667  42.582  36.646   8.782
  445POPC   C2B 9668  42.573  36.759   8.414
  445POPC   C3B 9669  42.619  36.648   8.026
  445POPC   C4B 9670  42.668  36.831   7.652
  446POPC   NC3 9671  27.888  39.806   9.265
  446POPC   PO4 9672  28.412  40.265   9.496
  446POPC   GL1 9673  28.457  40.176   9.054
  446POPC   GL2 9674  28.123  40.124   8.945
  446POPC   C1A 9675  28.548  39.969   8.662
  446POPC   D2A 9676  28.670  39.781   8.272
  446POPC   C3A 9677  28.469  40.022   7.939
  446POPC   C4A 9678  28.152  40.320   7.737
  446POPC   C1B 9679  28.115  39.714   8.663
  446POPC   C2B 9680  28.185  39.703   8.243
  446POPC   C3B 9681  28.080  39.606   7.859
  446POPC   C4B 9682  28.132  39.522   7.409
  447POPC   NC3 9683  27.120  40.398   9.436
  447POPC   PO4 9684  26.635  40.894   9.484
  447POPC   GL1 9685  26.771  40.961   9.061
  447POPC   GL2 9686  26.738  40.598   9.046
  447POPC   C1A 9687  26.781  40.888   8.589
  447POPC   D2A 9688  26.761  40.593   8.222
  447POPC   C3A 9689  27.000  40.576   7.849
  447POPC   C4A 9690  26.877  40.588   7.403
  447POPC   C1B 9691  26.393  40.580   8.763
  447POPC   C2B 9692  26.313  40.766   8.381
  447POPC   C3B 9693  26.393  41.031   8.037
  447POPC   C4B 9694  26.537  40.775   7.723
  448POPC   NC3 9695   9.771  11.283   9.795
  448POPC   PO4 9696   9.270  11.640   9.530
  448POPC   GL1 9697   9.563  11.529   9.225
  448POPC   GL2 9698   9.761  11.266   9.257
  448POPC   C1A 9699   9.817  11.625   8.844
  448POPC   D2A 9700   9.868  11.436   8.455
  448POPC   C3A 9701   9.994  11.652   8.108
  448POPC   C4A 9702   9.821  11.549   7.717
  448POPC   C1B 9703   9.550  11.176   8.848
  448POPC   C2B 9704   9.619  10.977   8.445
  448POPC   C3B 9705   9.771  11.137   8.032
  448POPC   C4B 9706   9.595  11.095   7.608
  449POPC   NC3 9707  37.272  17.122   9.387
  449POPC   PO4 9708  37.993  17.293   9.277
  449POPC   GL1 9709  37.749  17.618   9.064
  449POPC   GL2 9710  37.532  17.373   8.996
  449POPC   C1A 9711  37.892  17.686   8.677
  449POPC   D2A 9712  37.844  17.410   8.374
  449POPC   C3A 9713  37.993  17.605   8.046
  449POPC   C4A 9714  37.838  17.824   7.728
  449POPC   C1B 9715  37.296  17.457   8.666
  449POPC   C2B 9716  37.344  17.525   8.280
  449POPC   C3B 9717  37.538  17.407   7.934
  449POPC   C4B 9718  37.226  17.406   7.677
  450POPC   NC3 9719  13.853  25.098   9.499
  450POPC   PO4 9720  13.308  25.485   9.447
  450POPC   GL1 9721  13.660  25.358   9.117
  450POPC   GL2 9722  13.838  25.601   8.938
  450POPC   C1A 9723  13.860  25.158   8.667
  450POPC   D2A 9724  13.717  24.933   8.220
  450POPC   C3A 9725  13.827  24.988   7.731
  450POPC   C4A 9726  13.475  24.952   7.380
  450POPC   C1B 9727  13.426  25.421   8.693
  450POPC   C2B 9728  13.312  25.283   8.283
  450POPC   C3B 9729  13.369  25.203   7.836
  450POPC   C4B 9730  13.178  25.365   7.455
  451POPC   NC3 9731   5.532  37.105   9.197
  451POPC   PO4 9732   4.993  37.073   9.585
  451POPC   GL1 9733   5.044  36.993   9.122
  451POPC   GL2 9734   4.828  37.190   9.024
  451POPC   C1A 9735   5.228  37.059   8.634
  451POPC   D2A 9736   5.305  37.108   8.166
  451POPC   C3A 9737   5.247  36.719   7.896
  451POPC   C4A 9738   5.213  36.337   7.653
  451POPC   C1B 9739   4.773  36.862   8.687
  451POPC   C2B 9740   4.839  36.867   8.216
  451POPC   C3B 9741   4.905  37.100   7.810
  451POPC   C4B 9742   4.847  37.069   7.310
  452POPC   NC3 9743   4.716  28.586   9.521
  452POPC   PO4 9744   5.454  28.653   9.433
  452POPC   GL1 9745   5.170  28.497   9.123
  452POPC   GL2 9746   5.243  28.164   9.004
  452POPC   C1A 9747   4.940  28.441   8.727
  452POPC   D2A 9748   4.651  28.220   8.441
  452POPC   C3A 9749   4.795  28.238   7.988
  452POPC   C4A 9750   5.012  28.597   7.755
  452POPC   C1B 9751   5.224  28.026   8.604
  452POPC   C2B 9752   5.206  28.333   8.296
  452POPC   C3B 9753   5.328  28.236   7.930
  452POPC   C4B 9754   5.187  27.915   7.670
  453POPC   NC3 9755  35.871  23.425   9.451
  453POPC   PO4 9756  36.289  23.904   9.368
  453POPC   GL1 9757  35.888  23.855   9.091
  453POPC   GL2 9758  35.765  23.524   8.959
  453POPC   C1A 9759  36.003  23.881   8.675
  453POPC   D2A 9760  36.445  23.866   8.570
  453POPC   C3A 9761  36.405  23.856   8.139
  453POPC   C4A 9762  36.432  24.045   7.741
  453POPC   C1B 9763  36.216  23.445   8.834
  453POPC   C2B 9764  36.394  23.380   8.426
  453POPC   C3B 9765  36.236  23.351   8.032
  453POPC   C4B 9766  36.113  23.638   7.740
  454POPC   NC3 9767  11.994  10.966   9.462
  454POPC   PO4 9768  11.595  11.511   9.612
  454POPC   GL1 9769  11.961  11.455   9.282
  454POPC   GL2 9770  11.929  11.165   9.017
  454POPC   C1A 9771  12.153  11.587   8.865
  454POPC   D2A 9772  12.030  11.330   8.483
  454POPC   C3A 9773  12.049  11.428   8.042
  454POPC   C4A 9774  12.013  11.680   7.654
  454POPC   C1B 9775  11.992  10.862   8.696
  454POPC   C2B 9776  12.156  10.816   8.320
  454POPC   C3B 9777  11.929  10.812   7.962
  454POPC   C4B 9778  12.089  11.093   7.654
  455POPC   NC3 9779  35.731   5.218   9.633
  455POPC   PO4 9780  36.328   5.072   9.405
  455POPC   GL1 9781  36.186   5.043   9.023
  455POPC   GL2 9782  35.959   5.351   9.016
  455POPC   C1A 9783  36.384   4.849   8.642
  455POPC   D2A 9784  36.376   4.933   8.199
  455POPC   C3A 9785  35.988   5.058   8.048
  455POPC   C4A 9786  36.024   4.965   7.646
  455POPC   C1B 9787  36.186   5.325   8.618
  455POPC   C2B 9788  36.281   5.460   8.250
  455POPC   C3B 9789  36.319   5.376   7.840
  455POPC   C4B 9790  36.278   5.680   7.574
  456POPC   NC3 9791  40.398  36.124   9.413
  456POPC   PO4 9792  40.972  35.901   9.534
  456POPC   GL1 9793  40.843  36.142   9.181
  456POPC   GL2 9794  40.646  35.923   8.982
  456POPC   C1A 9795  40.963  36.287   8.782
  456POPC   D2A 9796  40.774  36.109   8.428
  456POPC   C3A 9797  40.907  36.341   8.094
  456POPC   C4A 9798  40.849  36.158   7.719
  456POPC   C1B 9799  40.448  36.307   8.773
  456POPC   C2B 9800  40.226  36.236   8.397
  456POPC   C3B 9801  40.385  36.177   7.987
  456POPC   C4B 9802  40.376  36.338   7.576
  457POPC   NC3 9803  34.642  12.654   9.807
  457POPC   PO4 9804  34.308  13.127   9.619
  457POPC   GL1 9805  34.424  12.938   9.228
  457POPC   GL2 9806  34.386  12.593   9.202
  457POPC   C1A 9807  34.449  12.987   8.785
  457POPC   D2A 9808  34.512  12.803   8.409
  457POPC   C3A 9809  34.699  13.005   8.052
  457POPC   C4A 9810  34.484  13.204   7.715
  457POPC   C1B 9811  34.780  12.640   8.922
  457POPC   C2B 9812  34.959  12.538   8.474
  457POPC   C3B 9813  34.727  12.472   8.101
  457POPC   C4B 9814  34.629  12.599   7.722
  458POPC   NC3 9815  42.138  14.368   9.585
  458POPC   PO4 9816  42.672  14.107   9.237
  458POPC   GL1 9817  42.280  14.189   9.074
  458POPC   GL2 9818  42.086  14.506   9.045
  458POPC   C1A 9819  42.122  14.099   8.667
  458POPC   D2A 9820  41.918  14.153   8.327
  458POPC   C3A 9821  42.056  14.469   8.083
  458POPC   C4A 9822  42.289  14.521   7.701
  458POPC   C1B 9823  42.398  14.529   8.670
  458POPC   C2B 9824  42.546  14.548   8.237
  458POPC   C3B 9825  42.782  14.716   7.899
  458POPC   C4B 9826  42.737  14.753   7.468
  459POPC   NC3 9827  18.607   1.385   9.735
  459POPC   PO4 9828  17.949   1.274   9.488
  459POPC   GL1 9829  18.306   1.394   9.231
  459POPC   GL2 9830  18.193   1.078   9.037
  459POPC   C1A 9831  18.505   1.406   8.815
  459POPC   D2A 9832  18.303   1.121   8.507
  459POPC   C3A 9833  18.418   1.171   8.091
  459POPC   C4A 9834  18.528   1.477   7.789
  459POPC   C1B 9835  17.997   1.435   8.786
  459POPC   C2B 9836  17.857   1.469   8.334
  459POPC   C3B 9837  17.942   1.345   7.899
  459POPC   C4B 9838  18.182   1.017   7.675
  460POPC   NC3 9839   3.015  41.989   9.490
  460POPC   PO4 9840   2.648  41.388   9.502
  460POPC   GL1 9841   2.798  41.656   9.186
  460POPC   GL2 9842   3.114  41.490   9.213
  460POPC   C1A 9843   2.674  41.632   8.764
  460POPC   D2A 9844   2.600  41.818   8.358
  460POPC   C3A 9845   2.752  41.547   8.073
  460POPC   C4A 9846   2.620  41.453   7.706
  460POPC   C1B 9847   3.138  41.378   8.787
  460POPC   C2B 9848   3.090  41.706   8.467
  460POPC   C3B 9849   3.161  41.851   8.058
  460POPC   C4B 9850   3.203  41.514   7.778
  461POPC   NC3 9851  36.906  31.044   9.811
  461POPC   PO4 9852  36.767  30.449   9.514
  461POPC   GL1 9853  36.816  30.736   9.184
  461POPC   GL2 9854  37.123  30.824   9.160
  461POPC   C1A 9855  36.817  30.854   8.739
  461POPC   D2A 9856  36.670  30.539   8.490
  461POPC   C3A 9857  36.750  30.541   8.063
  461POPC   C4A 9858  36.578  30.498   7.649
  461POPC   C1B 9859  37.223  30.580   8.786
  461POPC   C2B 9860  37.184  30.627   8.381
  461POPC   C3B 9861  37.150  30.935   8.099
  461POPC   C4B 9862  37.109  30.714   7.751
  462POPC   NC3 9863  25.708   8.446   9.838
  462POPC   PO4 9864  25.352   8.889   9.465
  462POPC   GL1 9865  25.222   8.868   9.042
  462POPC   GL2 9866  25.111   9.223   9.082
  462POPC   C1A 9867  25.361   8.849   8.605
  462POPC   D2A 9868  25.354   9.221   8.336
  462POPC   C3A 9869  25.450   9.196   7.901
  462POPC   C4A 9870  25.423   8.913   7.553
  462POPC   C1B 9871  24.939   9.144   8.679
  462POPC   C2B 9872  24.916   8.905   8.328
  462POPC   C3B 9873  25.157   8.789   8.008
  462POPC   C4B 9874  24.951   8.969   7.686
  463POPC   NC3 9875   8.775  41.272   9.657
  463POPC   PO4 9876   9.185  41.706   9.674
  463POPC   GL1 9877   8.971  41.654   9.253
  463POPC   GL2 9878   8.727  41.373   9.145
  463POPC   C1A 9879   9.009  41.737   8.800
  463POPC   D2A 9880   9.160  41.594   8.394
  463POPC   C3A 9881   9.050  41.796   7.993
  463POPC   C4A 9882   9.065  41.636   7.567
  463POPC   C1B 9883   9.039  41.213   8.832
  463POPC   C2B 9884   9.093  41.088   8.388
  463POPC   C3B 9885   9.131  41.287   7.970
  463POPC   C4B 9886   8.853  41.184   7.638
  464POPC   NC3 9887  28.025   0.697   9.496
  464POPC   PO4 9888  28.527   0.172   9.479
  464POPC   GL1 9889  28.291   0.131   9.108
  464POPC   GL2 9890  28.161   0.439   9.070
  464POPC   C1A 9891  28.333   0.217   8.652
  464POPC   D2A 9892  28.182   0.354   8.273
  464POPC   C3A 9893  28.470   0.545   7.991
  464POPC   C4A 9894  28.353   0.513   7.537
  464POPC   C1B 9895  28.106   0.666   8.705
  464POPC   C2B 9896  28.093   0.847   8.294
  464POPC   C3B 9897  27.984   0.669   7.907
  464POPC   C4B 9898  28.244   0.959   7.722
  465POPC   NC3 9899  18.439  34.060   9.902
  465POPC   PO4 9900  17.920  33.683   9.526
  465POPC   GL1 9901  18.052  34.041   9.202
  465POPC   GL2 9902  18.422  34.162   9.212
  465POPC   C1A 9903  18.176  33.899   8.805
  465POPC   D2A 9904  18.234  33.593   8.487
  465POPC   C3A 9905  18.544  33.641   8.176
  465POPC   C4A 9906  18.395  33.664   7.772
  465POPC   C1B 9907  18.503  34.320   8.831
  465POPC   C2B 9908  18.251  34.251   8.466
  465POPC   C3B 9909  18.197  34.023   8.106
  465POPC   C4B 9910  18.268  34.207   7.721
  466POPC   NC3 9911  24.617  15.252   9.355
  466POPC   PO4 9912  24.322  14.667   9.504
  466POPC   GL1 9913  24.232  14.926   9.161
  466POPC   GL2 9914  24.051  15.204   9.279
  466POPC   C1A 9915  24.470  14.968   8.759
  466POPC   D2A 9916  24.786  15.111   8.421
  466POPC   C3A 9917  24.730  15.470   8.113
  466POPC   C4A 9918  24.668  15.325   7.678
  466POPC   C1B 9919  24.065  15.309   8.819
  466POPC   C2B 9920  24.296  15.340   8.426
  466POPC   C3B 9921  24.382  15.100   8.079
  466POPC   C4B 9922  24.211  14.998   7.711
  467POPC   NC3 9923   7.401  26.906   9.670
  467POPC   PO4 9924   7.251  26.304   9.436
  467POPC   GL1 9925   7.366  26.684   9.216
  467POPC   GL2 9926   7.207  27.049   9.237
  467POPC   C1A 9927   7.539  26.895   8.882
  467POPC   D2A 9928   7.667  26.882   8.472
  467POPC   C3A 9929   7.466  26.833   8.078
  467POPC   C4A 9930   7.577  26.787   7.644
  467POPC   C1B 9931   7.149  27.242   8.856
  467POPC   C2B 9932   7.194  27.087   8.445
  467POPC   C3B 9933   7.177  27.256   8.035
  467POPC   C4B 9934   6.897  27.308   7.720
  468POPC   NC3 9935  21.796  41.566   9.522
  468POPC   PO4 9936  22.376  41.832   9.481
  468POPC   GL1 9937  22.215  41.561   9.132
  468POPC   GL2 9938  21.873  41.574   8.975
  468POPC   C1A 9939  22.255  41.337   8.728
  468POPC   D2A 9940  22.308  41.411   8.273
  468POPC   C3A 9941  22.092  41.205   7.926
  468POPC   C4A 9942  22.214  41.273   7.488
  468POPC   C1B 9943  21.878  41.599   8.484
  468POPC   C2B 9944  21.921  41.682   8.021
  468POPC   C3B 9945  21.755  41.498   7.619
  468POPC   C4B 9946  21.424  41.450   7.289
  469POPC   NC3 9947  37.219   2.626   9.777
  469POPC   PO4 9948  36.646   2.711   9.392
  469POPC   GL1 9949  36.639   2.851   8.993
  469POPC   GL2 9950  36.694   2.484   8.920
  469POPC   C1A 9951  36.729   2.897   8.536
  469POPC   D2A 9952  36.687   2.928   8.076
  469POPC   C3A 9953  37.021   2.950   7.770
  469POPC   C4A 9954  37.136   3.275   7.467
  469POPC   C1B 9955  37.050   2.473   8.636
  469POPC   C2B 9956  37.097   2.640   8.258
  469POPC   C3B 9957  37.224   2.501   7.897
  469POPC   C4B 9958  36.980   2.519   7.504
  470POPC   NC3 9959  31.203   2.582   9.704
  470POPC   PO4 9960  30.778   2.771   9.195
  470POPC   GL1 9961  30.507   2.599   8.966
  470POPC   GL2 9962  30.209   2.797   9.102
  470POPC   C1A 9963  30.702   2.626   8.560
  470POPC   D2A 9964  30.853   2.501   8.178
  470POPC   C3A 9965  30.652   2.719   7.885
  470POPC   C4A 9966  30.775   3.081   7.711
  470POPC   C1B 9967  30.319   2.988   8.696
  470POPC   C2B 9968  30.197   3.044   8.251
  470POPC   C3B 9969  30.251   3.099   7.805
  470POPC   C4B 9970  30.376   3.248   7.414
  471POPC   NC3 9971  19.419  10.072   9.487
  471POPC   PO4 9972  18.729   9.857   9.489
  471POPC   GL1 9973  19.090   9.675   9.217
  471POPC   GL2 9974  19.434   9.545   9.119
  471POPC   C1A 9975  19.071   9.522   8.772
  471POPC   D2A 9976  18.969   9.222   8.433
  471POPC   C3A 9977  19.039   9.448   8.056
  471POPC   C4A 9978  19.420   9.417   7.851
  471POPC   C1B 9979  19.397   9.953   8.856
  471POPC   C2B 9980  19.224  10.095   8.468
  471POPC   C3B 9981  19.325   9.916   8.072
  471POPC   C4B 9982  19.391  10.089   7.697
  472POPC   NC3 9983   6.247  14.988   9.413
  472POPC   PO4 9984   5.786  14.589   9.527
  472POPC   GL1 9985   5.795  14.884   9.154
  472POPC   GL2 9986   5.459  14.932   8.994
  472POPC   C1A 9987   5.950  15.142   8.778
  472POPC   D2A 9988   6.142  15.275   8.375
  472POPC   C3A 9989   6.167  15.049   7.994
  472POPC   C4A 9990   6.057  15.244   7.634
  472POPC   C1B 9991   5.643  14.749   8.675
  472POPC   C2B 9992   5.780  14.910   8.334
  472POPC   C3B 9993   5.677  15.139   8.013
  472POPC   C4B 9994   5.557  15.042   7.662
  473POPC   NC3 9995  19.090   4.751   9.544
  473POPC   PO4 9996  19.385   5.445   9.461
  473POPC   GL1 9997  19.195   5.132   9.168
  473POPC   GL2 9998  18.823   5.152   9.132
  473POPC   C1A 9999  19.067   4.989   8.725
  473POPC   D2A10000  18.898   5.085   8.321
  473POPC   C3A10001  19.005   4.801   8.003
  473POPC   C4A10002  19.366   4.825   7.743
  473POPC   C1B10003  18.720   5.391   8.741
  473POPC   C2B10004  18.507   5.429   8.331
  473POPC   C3B10005  18.626   5.446   7.886
  473POPC   C4B10006  18.797   5.378   7.448
  474POPC   NC310007   8.558  21.707   9.553
  474POPC   PO410008   9.009  21.184   9.713
  474POPC   GL110009   9.251  21.199   9.349
  474POPC   GL210010   8.949  21.315   9.194
  474POPC   C1A10011   9.320  21.199   8.863
  474POPC   D2A10012   9.087  21.398   8.497
  474POPC   C3A10013   9.160  21.307   8.065
  474POPC   C4A10014   8.781  21.189   7.844
  474POPC   C1B10015   8.776  21.597   8.879
  474POPC   C2B10016   8.590  21.593   8.461
  474POPC   C3B10017   8.766  21.645   8.075
  474POPC   C4B10018   9.144  21.809   7.926
  475POPC   NC310019   3.782   0.757   9.421
  475POPC   PO410020   3.258   0.538   9.530
  475POPC   GL110021   3.395   0.406   9.140
  475POPC   GL210022   3.549   0.071   9.168
  475POPC   C1A10023   3.365   0.463   8.696
  475POPC   D2A10024   3.175   0.656   8.299
  475POPC   C3A10025   3.391   0.612   7.875
  475POPC   C4A10026   3.313   0.256   7.568
  475POPC   C1B10027   3.720   0.094   8.725
  475POPC   C2B10028   3.699   0.342   8.329
  475POPC   C3B10029   3.701   0.207   7.898
  475POPC   C4B10030   3.945   0.309   7.574
  476POPC   NC310031  35.386  10.749   9.538
  476POPC   PO410032  35.808  10.258   9.500
  476POPC   GL110033  35.506  10.407   9.176
  476POPC   GL210034  35.206  10.176   9.085
  476POPC   C1A10035  35.261  10.599   8.843
  476POPC   D2A10036  35.091  10.362   8.527
  476POPC   C3A10037  35.254  10.494   8.145
  476POPC   C4A10038  35.123  10.476   7.735
  476POPC   C1B10039  35.469  10.035   8.789
  476POPC   C2B10040  35.455  10.047   8.361
  476POPC   C3B10041  35.610  10.168   7.979
  476POPC   C4B10042  35.370  10.042   7.627
  477POPC   NC310043  35.016   7.025   9.230
  477POPC   PO410044  35.437   6.578   9.593
  477POPC   GL110045  35.309   6.582   9.153
  477POPC   GL210046  35.142   6.280   9.041
  477POPC   C1A10047  35.549   6.671   8.792
  477POPC   D2A10048  35.695   6.855   8.425
  477POPC   C3A10049  35.518   6.747   8.045
  477POPC   C4A10050  35.749   6.636   7.709
  477POPC   C1B10051  35.079   6.496   8.636
  477POPC   C2B10052  34.817   6.581   8.238
  477POPC   C3B10053  34.909   6.910   7.938
  477POPC   C4B10054  35.256   7.050   7.715
  478POPC   NC310055   6.999  35.699   9.727
  478POPC   PO410056   7.534  35.267   9.558
  478POPC   GL110057   7.341  35.317   9.175
  478POPC   GL210058   7.606  35.547   9.130
  478POPC   C1A10059   7.335  35.271   8.738
  478POPC   D2A10060   7.330  35.321   8.324
  478POPC   C3A10061   7.391  35.069   7.996
  478POPC   C4A10062   7.229  35.385   7.758
  478POPC   C1B10063   7.839  35.407   8.811
  478POPC   C2B10064   7.758  35.588   8.436
  478POPC   C3B10065   7.765  35.395   8.064
  478POPC   C4B10066   8.022  35.378   7.743
  479POPC   NC310067  43.642  21.162   9.241
  479POPC   PO410068  44.175  21.458   9.579
  479POPC   GL110069  44.185  21.172   9.242
  479POPC   GL210070  44.048  21.458   9.079
  479POPC   C1A10071  44.170  21.081   8.777
  479POPC   D2A10072  43.832  21.251   8.533
  479POPC   C3A10073  43.879  21.192   8.113
  479POPC   C4A10074  43.764  21.176   7.708
  479POPC   C1B10075  44.030  21.684   8.707
  479POPC   C2B10076  43.724  21.735   8.361
  479POPC   C3B10077  43.746  21.672   7.931
  479POPC   C4B10078  44.130  21.544   7.762
  480POPC   NC310079   7.886  42.608   9.818
  480POPC   PO410080   8.365  42.250   9.499
  480POPC   GL110081   8.361  42.042   9.106
  480POPC   GL210082   8.038  42.216   9.036
  480POPC   C1A10083   8.226  41.896   8.686
  480POPC   D2A10084   8.172  42.076   8.313
  480POPC   C3A10085   8.480  41.956   8.037
  480POPC   C4A10086   8.347  42.072   7.626
  480POPC   C1B10087   8.305  42.467   8.740
  480POPC   C2B10088   8.532  42.521   8.345
  480POPC   C3B10089   8.325  42.451   7.970
  480POPC   C4B10090   7.911  42.431   7.887
  481POPC   NC310091  34.097  20.835   9.785
  481POPC   PO410092  33.619  20.388   9.563
  481POPC   GL110093  33.806  20.519   9.168
  481POPC   GL210094  33.960  20.846   9.221
  481POPC   C1A10095  33.936  20.396   8.723
  481POPC   D2A10096  34.196  20.260   8.347
  481POPC   C3A10097  34.034  20.452   7.957
  481POPC   C4A10098  33.608  20.557   7.728
  481POPC   C1B10099  33.583  21.002   8.940
  481POPC   C2B10100  33.380  20.967   8.521
  481POPC   C3B10101  33.564  20.874   8.133
  481POPC   C4B10102  33.937  20.945   7.863
  482POPC   NC310103  31.567  38.759   9.563
  482POPC   PO410104  31.496  38.129   9.452
  482POPC   GL110105  31.659  38.405   9.171
  482POPC   GL210106  31.417  38.305   8.931
  482POPC   C1A10107  31.712  38.699   8.815
  482POPC   D2A10108  31.487  38.784   8.395
  482POPC   C3A10109  31.607  38.609   7.960
  482POPC   C4A10110  31.741  38.688   7.509
  482POPC   C1B10111  31.035  38.301   8.676
  482POPC   C2B10112  30.895  38.033   8.363
  482POPC   C3B10113  31.096  38.078   7.998
  482POPC   C4B10114  31.397  38.280   7.617
  483POPC   NC310115  25.480  36.686   9.184
  483POPC   PO410116  26.071  36.993   9.529
  483POPC   GL110117  25.891  37.001   9.170
  483POPC   GL210118  25.991  36.689   9.132
  483POPC   C1A10119  25.783  37.133   8.757
  483POPC   D2A10120  25.998  36.973   8.410
  483POPC   C3A10121  25.942  37.071   8.002
  483POPC   C4A10122  26.229  37.168   7.723
  483POPC   C1B10123  25.995  36.538   8.757
  483POPC   C2B10124  25.901  36.426   8.364
  483POPC   C3B10125  26.145  36.476   8.036
  483POPC   C4B10126  26.120  36.677   7.703
  484POPC   NC310127  14.459  40.627   9.589
  484POPC   PO410128  13.988  41.022   9.344
  484POPC   GL110129  14.114  40.670   9.087
  484POPC   GL210130  14.491  40.652   9.042
  484POPC   C1A10131  14.208  40.739   8.642
  484POPC   D2A10132  14.397  40.803   8.237
  484POPC   C3A10133  14.162  40.765   7.858
  484POPC   C4A10134  14.234  40.619   7.403
  484POPC   C1B10135  14.699  40.933   8.688
  484POPC   C2B10136  14.850  41.040   8.245
  484POPC   C3B10137  14.598  41.117   7.861
  484POPC   C4B10138  14.634  41.194   7.375
  485POPC   NC310139  22.978  26.477   9.782
  485POPC   PO410140  22.699  25.973   9.394
  485POPC   GL110141  23.047  25.946   9.135
  485POPC   GL210142  22.925  26.183   8.927
  485POPC   C1A10143  23.139  25.815   8.694
  485POPC   D2A10144  23.152  26.184   8.418
  485POPC   C3A10145  22.895  26.119   8.066
  485POPC   C4A10146  22.889  25.828   7.722
  485POPC   C1B10147  22.713  26.411   8.644
  485POPC   C2B10148  22.761  26.573   8.291
  485POPC   C3B10149  22.669  26.556   7.902
  485POPC   C4B10150  22.836  26.349   7.599
  486POPC   NC310151  26.638  44.393   9.604
  486POPC   PO410152  26.882   0.079   9.430
  486POPC   GL110153  26.700  44.780   9.133
  486POPC   GL210154  26.683  44.437   9.113
  486POPC   C1A10155  26.774  44.743   8.727
  486POPC   D2A10156  27.075  44.766   8.424
  486POPC   C3A10157  26.854  44.774   8.050
  486POPC   C4A10158  26.885  44.976   7.679
  486POPC   C1B10159  26.532  44.150   8.818
  486POPC   C2B10160  26.643  44.096   8.419
  486POPC   C3B10161  26.448  44.167   8.062
  486POPC   C4B10162  26.552  44.452   7.788
  487POPC   NC310163  14.621  36.568   9.386
  487POPC   PO410164  14.792  35.934   9.581
  487POPC   GL110165  14.349  36.141   9.278
  487POPC   GL210166  14.401  36.400   8.981
  487POPC   C1A10167  14.064  36.075   8.845
  487POPC   D2A10168  14.120  36.001   8.389
  487POPC   C3A10169  14.089  36.292   8.007
  487POPC   C4A10170  14.318  36.132   7.625
  487POPC   C1B10171  14.345  36.444   8.528
  487POPC   C2B10172  14.551  36.229   8.192
  487POPC   C3B10173  14.800  36.263   7.833
  487POPC   C4B10174  14.659  36.430   7.410
  488POPC   NC310175   3.899  43.908   9.527
  488POPC   PO410176   3.298  44.044   9.538
  488POPC   GL110177   3.534  43.938   9.188
  488POPC   GL210178   3.847  43.683   9.050
  488POPC   C1A10179   3.684  44.142   8.857
  488POPC   D2A10180   3.631  44.095   8.446
  488POPC   C3A10181   3.870  44.250   8.118
  488POPC   C4A10182   3.653  44.187   7.739
  488POPC   C1B10183   3.483  43.670   8.780
  488POPC   C2B10184   3.338  43.622   8.386
  488POPC   C3B10185   3.577  43.794   8.047
  488POPC   C4B10186   3.826  43.643   7.704
  489POPC   NC310187  42.161  11.514   9.331
  489POPC   PO410188  42.383  10.867   9.265
  489POPC   GL110189  42.590  11.181   8.985
  489POPC   GL210190  42.541  11.526   8.962
  489POPC   C1A10191  42.482  11.233   8.541
  489POPC   D2A10192  42.080  11.025   8.376
  489POPC   C3A10193  42.130  10.887   7.942
  489POPC   C4A10194  42.374  11.125   7.637
  489POPC   C1B10195  42.230  11.700   8.684
  489POPC   C2B10196  42.268  11.667   8.238
  489POPC   C3B10197  42.573  11.460   7.969
  489POPC   C4B10198  42.720  11.464   7.532
  490POPC   NC310199  35.565  30.900   9.454
  490POPC   PO410200  34.924  30.829   9.490
  490POPC   GL110201  35.117  30.723   9.107
  490POPC   GL210202  35.328  31.005   9.014
  490POPC   C1A10203  35.107  30.444   8.749
  490POPC   D2A10204  35.363  30.354   8.370
  490POPC   C3A10205  35.229  30.549   8.003
  490POPC   C4A10206  35.305  30.579   7.562
  490POPC   C1B10207  35.546  30.702   8.755
  490POPC   C2B10208  35.643  30.786   8.331
  490POPC   C3B10209  35.469  30.988   7.969
  490POPC   C4B10210  35.542  31.033   7.546
  491POPC   NC310211  39.258  12.509   9.461
  491POPC   PO410212  39.486  13.136   9.383
  491POPC   GL110213  39.218  13.086   9.084
  491POPC   GL210214  39.020  12.844   9.170
  491POPC   C1A10215  39.359  13.109   8.691
  491POPC   D2A10216  39.254  12.959   8.352
  491POPC   C3A10217  39.460  13.141   8.044
  491POPC   C4A10218  39.263  13.088   7.678
  491POPC   C1B10219  39.310  12.621   8.827
  491POPC   C2B10220  39.347  12.469   8.392
  491POPC   C3B10221  39.235  12.624   7.953
  491POPC   C4B10222  39.306  12.589   7.525
  492POPC   NC310223  37.076  10.112   9.493
  492POPC   PO410224  36.772   9.596   9.741
  492POPC   GL110225  36.796   9.731   9.285
  492POPC   GL210226  36.546   9.510   9.151
  492POPC   C1A10227  37.010   9.932   8.865
  492POPC   D2A10228  37.089   9.966   8.390
  492POPC   C3A10229  36.892   9.751   8.030
  492POPC   C4A10230  36.832   9.805   7.606
  492POPC   C1B10231  36.707   9.550   8.768
  492POPC   C2B10232  36.600   9.812   8.444
  492POPC   C3B10233  36.400   9.579   8.138
  492POPC   C4B10234  36.572   9.364   7.758
  493POPC   NC310235  28.006  37.011   9.387
  493POPC   PO410236  27.369  36.821   9.484
  493POPC   GL110237  27.348  36.812   9.084
  493POPC   GL210238  27.686  36.846   9.020
  493POPC   C1A10239  27.319  36.896   8.666
  493POPC   D2A10240  27.344  37.068   8.288
  493POPC   C3A10241  27.604  37.064   7.950
  493POPC   C4A10242  27.690  36.951   7.547
  493POPC   C1B10243  27.789  36.633   8.627
  493POPC   C2B10244  27.844  36.666   8.177
  493POPC   C3B10245  27.800  36.484   7.733
  493POPC   C4B10246  27.746  36.524   7.252
  494POPC   NC310247   6.943  16.428   9.637
  494POPC   PO410248   6.983  17.036   9.524
  494POPC   GL110249   6.818  16.765   9.178
  494POPC   GL210250   6.461  16.716   9.195
  494POPC   C1A10251   6.878  16.588   8.740
  494POPC   D2A10252   6.951  16.405   8.328
  494POPC   C3A10253   6.904  16.626   7.953
  494POPC   C4A10254   6.520  16.548   7.865
  494POPC   C1B10255   6.478  16.911   8.771
  494POPC   C2B10256   6.641  16.836   8.349
  494POPC   C3B10257   6.527  17.044   7.985
  494POPC   C4B10258   6.557  16.987   7.556
  495POPC   NC310259  44.430   2.324   9.395
  495POPC   PO410260  44.727   3.023   9.507
  495POPC   GL110261  44.729   2.730   9.185
  495POPC   GL210262   0.001   2.529   9.204
  495POPC   C1A10263  44.747   2.744   8.740
  495POPC   D2A10264  44.563   3.054   8.467
  495POPC   C3A10265  44.598   2.922   8.044
  495POPC   C4A10266  44.549   2.722   7.649
  495POPC   C1B10267   0.130   2.326   8.840
  495POPC   C2B10268  44.873   2.324   8.458
  495POPC   C3B10269  44.972   2.548   8.093
  495POPC   C4B10270  44.960   2.423   7.633
  496POPC   NC310271  24.266  39.631   9.544
  496POPC   PO410272  24.507  38.949   9.512
  496POPC   GL110273  24.610  39.041   9.082
  496POPC   GL210274  24.587  39.418   9.154
  496POPC   C1A10275  24.555  38.862   8.647
  496POPC   D2A10276  24.394  39.134   8.297
  496POPC   C3A10277  24.310  39.048   7.849
  496POPC   C4A10278  23.971  38.955   7.546
  496POPC   C1B10279  24.695  39.365   8.701
  496POPC   C2B10280  24.721  39.526   8.283
  496POPC   C3B10281  24.402  39.534   7.957
  496POPC   C4B10282  24.568  39.476   7.551
  497POPC   NC310283  23.854  13.018   9.561
  497POPC   PO410284  23.523  12.421   9.544
  497POPC   GL110285  23.730  12.664   9.175
  497POPC   GL210286  23.784  13.027   9.067
  497POPC   C1A10287  23.519  12.694   8.765
  497POPC   D2A10288  23.413  12.905   8.347
  497POPC   C3A10289  23.682  12.784   8.016
  497POPC   C4A10290  23.771  12.555   7.621
  497POPC   C1B10291  23.496  13.198   8.755
  497POPC   C2B10292  23.553  13.438   8.389
  497POPC   C3B10293  23.583  13.317   7.960
  497POPC   C4B10294  23.897  13.148   7.759
  498POPC   NC310295  18.471  12.015   9.453
  498POPC   PO410296  18.142  12.585   9.407
  498POPC   GL110297  18.146  12.297   9.079
  498POPC   GL210298  18.241  11.958   9.023
  498POPC   C1A10299  18.194  12.334   8.665
  498POPC   D2A10300  18.030  12.349   8.270
  498POPC   C3A10301  18.373  12.437   8.000
  498POPC   C4A10302  18.262  12.245   7.653
  498POPC   C1B10303  18.562  11.993   8.736
  498POPC   C2B10304  18.442  12.029   8.311
  498POPC   C3B10305  18.321  11.825   7.925
  498POPC   C4B10306  18.532  11.783   7.570
  499POPC   NC310307   7.547  23.808   9.531
  499POPC   PO410308   7.042  23.377   9.447
  499POPC   GL110309   7.341  23.582   9.123
  499POPC   GL210310   7.644  23.791   9.036
  499POPC   C1A10311   7.165  23.621   8.727
  499POPC   D2A10312   6.977  23.754   8.361
  499POPC   C3A10313   7.235  23.743   8.012
  499POPC   C4A10314   7.248  23.628   7.581
  499POPC   C1B10315   7.658  23.755   8.592
  499POPC   C2B10316   7.548  24.068   8.286
  499POPC   C3B10317   7.421  24.180   7.851
  499POPC   C4B10318   7.422  24.051   7.364
  500POPC   NC310319  24.798  22.730   9.432
  500POPC   PO410320  24.365  23.234   9.597
  500POPC   GL110321  24.406  22.954   9.197
  500POPC   GL210322  24.156  22.709   9.205
  500POPC   C1A10323  24.601  22.943   8.765
  500POPC   D2A10324  24.527  23.088   8.310
  500POPC   C3A10325  24.728  23.025   7.883
  500POPC   C4A10326  24.806  23.005   7.408
  500POPC   C1B10327  24.167  22.642   8.742
  500POPC   C2B10328  24.091  22.729   8.297
  500POPC   C3B10329  24.222  22.895   7.906
  500POPC   C4B10330  24.394  22.741   7.514
  501POPC   NC310331  37.027  27.760   9.557
  501POPC   PO410332  36.460  27.458   9.599
  501POPC   GL110333  36.688  27.580   9.205
  501POPC   GL210334  36.540  27.892   9.141
  501POPC   C1A10335  37.036  27.453   8.885
  501POPC   D2A10336  37.311  27.488   8.478
  501POPC   C3A10337  37.164  27.302   8.051
  501POPC   C4A10338  37.004  27.337   7.586
  501POPC   C1B10339  36.808  27.903   8.757
  501POPC   C2B10340  36.859  27.684   8.343
  501POPC   C3B10341  36.961  27.744   7.891
  501POPC   C4B10342  36.661  27.805   7.554
  502POPC   NC310343   0.107  25.062   9.578
  502POPC   PO410344   0.777  25.217   9.550
  502POPC   GL110345   0.488  25.317   9.207
  502POPC   GL210346   0.160  25.190   9.077
  502POPC   C1A10347   0.519  25.428   8.755
  502POPC   D2A10348   0.243  25.219   8.477
  502POPC   C3A10349   0.284  25.367   8.068
  502POPC   C4A10350   0.655  25.270   7.860
  502POPC   C1B10351   0.513  24.939   8.861
  502POPC   C2B10352   0.563  24.769   8.471
  502POPC   C3B10353   0.431  24.866   8.080
  502POPC   C4B10354   0.118  24.955   7.813
  503POPC   NC310355  13.740   6.757   9.368
  503POPC   PO410356  13.183   6.373   9.439
  503POPC   GL110357  13.537   6.280   9.176
  503POPC   GL210358  13.411   6.585   8.977
  503POPC   C1A10359  13.786   6.297   8.794
  503POPC   D2A10360  13.548   6.533   8.458
  503POPC   C3A10361  13.608   6.374   8.036
  503POPC   C4A10362  13.927   6.577   7.784
  503POPC   C1B10363  13.294   6.982   8.725
  503POPC   C2B10364  13.378   7.103   8.286
  503POPC   C3B10365  13.472   6.859   7.901
  503POPC   C4B10366  13.624   7.034   7.491
  504POPC   NC310367  31.237  32.341   9.507
  504POPC   PO410368  31.822  32.574   9.642
  504POPC   GL110369  31.691  32.265   9.248
  504POPC   GL210370  31.589  31.892   9.136
  504POPC   C1A10371  31.532  32.305   8.793
  504POPC   D2A10372  31.718  32.448   8.378
  504POPC   C3A10373  31.553  32.521   7.947
  504POPC   C4A10374  31.586  32.813   7.545
  504POPC   C1B10375  31.706  31.806   8.699
  504POPC   C2B10376  31.521  31.976   8.321
  504POPC   C3B10377  31.488  32.013   7.867
  504POPC   C4B10378  31.430  31.926   7.435
  505POPC   NC310379  43.490  43.790   9.545
  505POPC   PO410380  42.984  44.157   9.758
  505POPC   GL110381  43.070  44.008   9.288
  505POPC   GL210382  43.068  44.257   8.978
  505POPC   C1A10383  43.152  43.760   8.893
  505POPC   D2A10384  43.177  43.999   8.490
  505POPC   C3A10385  43.119  43.739   8.127
  505POPC   C4A10386  43.092  43.617   7.713
  505POPC   C1B10387  42.710  44.011   8.777
  505POPC   C2B10388  42.566  43.915   8.377
  505POPC   C3B10389  42.805  44.143   8.116
  505POPC   C4B10390  43.074  44.135   7.788
  506POPC   NC310391   5.690  27.211   9.525
  506POPC   PO410392   6.044  26.550   9.583
  506POPC   GL110393   5.946  26.797   9.192
  506POPC   GL210394   6.089  27.137   9.167
  506POPC   C1A10395   5.668  26.708   8.817
  506POPC   D2A10396   5.858  26.677   8.388
  506POPC   C3A10397   5.736  26.459   8.032
  506POPC   C4A10398   5.785  26.730   7.691
  506POPC   C1B10399   6.024  27.041   8.703
  506POPC   C2B10400   6.144  27.182   8.279
  506POPC   C3B10401   6.003  27.184   7.829
  506POPC   C4B10402   6.050  27.055   7.377
  507POPC   NC310403  23.238  25.736   9.568
  507POPC   PO410404  22.923  25.120   9.393
  507POPC   GL110405  23.008  25.231   8.947
  507POPC   GL210406  23.231  25.468   9.064
  507POPC   C1A10407  23.255  25.304   8.566
  507POPC   D2A10408  23.451  24.968   8.325
  507POPC   C3A10409  23.222  24.939   7.962
  507POPC   C4A10410  22.822  24.942   7.801
  507POPC   C1B10411  23.588  25.618   8.843
  507POPC   C2B10412  23.577  25.800   8.437
  507POPC   C3B10413  23.298  25.724   8.074
  507POPC   C4B10414  23.197  25.408   7.739
  508POPC   NC310415  20.041  12.497   9.500
  508POPC   PO410416  19.530  12.735   9.153
  508POPC   GL110417  19.849  13.000   9.044
  508POPC   GL210418  20.118  12.830   9.124
  508POPC   C1A10419  19.941  12.921   8.633
  508POPC   D2A10420  19.579  12.918   8.369
  508POPC   C3A10421  19.688  13.054   7.997
  508POPC   C4A10422  19.522  12.986   7.577
  508POPC   C1B10423  20.151  12.481   8.843
  508POPC   C2B10424  20.325  12.556   8.438
  508POPC   C3B10425  20.103  12.787   8.136
  508POPC   C4B10426  19.932  12.739   7.712
  509POPC   NC310427   6.394  42.460   9.255
  509POPC   PO410428   5.836  42.128   9.498
  509POPC   GL110429   5.998  42.139   9.118
  509POPC   GL210430   5.983  42.443   8.969
  509POPC   C1A10431   5.901  42.034   8.708
  509POPC   D2A10432   5.844  42.335   8.379
  509POPC   C3A10433   5.930  42.070   8.078
  509POPC   C4A10434   6.069  42.012   7.718
  509POPC   C1B10435   6.255  42.606   8.632
  509POPC   C2B10436   6.429  42.576   8.226
  509POPC   C3B10437   6.157  42.485   7.935
  509POPC   C4B10438   5.910  42.721   7.741
  510POPC   NC310439  28.289  26.414   9.511
  510POPC   PO410440  28.415  27.057   9.551
  510POPC   GL110441  28.207  26.863   9.186
  510POPC   GL210442  28.433  26.598   9.043
  510POPC   C1A10443  28.297  27.005   8.766
  510POPC   D2A10444  28.375  26.830   8.370
  510POPC   C3A10445  28.218  27.075   8.070
  510POPC   C4A10446  28.378  27.062   7.650
  510POPC   C1B10447  28.462  26.378   8.636
  510POPC   C2B10448  28.693  26.414   8.244
  510POPC   C3B10449  28.590  26.662   7.896
  510POPC   C4B10450  28.780  26.674   7.494
  511POPC   NC310451  20.675  12.584   9.672
  511POPC   PO410452  20.276  13.010   9.592
  511POPC   GL110453  20.610  12.897   9.231
  511POPC   GL210454  20.562  12.555   9.168
  511POPC   C1A10455  20.621  12.906   8.720
  511POPC   D2A10456  20.663  13.197   8.311
  511POPC   C3A10457  20.386  13.157   7.925
  511POPC   C4A10458  20.378  12.908   7.538
  511POPC   C1B10459  20.880  12.477   8.891
  511POPC   C2B10460  20.872  12.460   8.445
  511POPC   C3B10461  20.689  12.719   8.112
  511POPC   C4B10462  20.840  12.773   7.705
  512POPC   NC310463  22.967  30.225   9.432
  512POPC   PO410464  23.422  29.729   9.406
  512POPC   GL110465  23.137  29.901   9.041
  512POPC   GL210466  22.744  29.970   9.028
  512POPC   C1A10467  22.953  29.745   8.626
  512POPC   D2A10468  23.063  29.577   8.223
  512POPC   C3A10469  23.181  29.845   7.883
  512POPC   C4A10470  22.973  29.655   7.562
  512POPC   C1B10471  22.862  30.264   8.725
  512POPC   C2B10472  22.871  30.158   8.308
  512POPC   C3B10473  22.701  29.914   8.036
  512POPC   C4B10474  22.694  30.060   7.689
  513POPC   NC310475   4.120   9.261   9.407
  513POPC   PO410476   4.648   8.752   9.260
  513POPC   GL110477   4.258   8.797   9.125
  513POPC   GL210478   4.362   9.120   8.993
  513POPC   C1A10479   4.064   8.821   8.726
  513POPC   D2A10480   4.187   9.120   8.430
  513POPC   C3A10481   4.128   9.017   7.971
  513POPC   C4A10482   4.287   8.684   7.725
  513POPC   C1B10483   4.665   9.141   8.656
  513POPC   C2B10484   4.674   9.252   8.214
  513POPC   C3B10485   4.568   9.294   7.792
  513POPC   C4B10486   4.675   9.325   7.363
  514POPC   NC310487  10.332  33.504   9.578
  514POPC   PO410488  10.393  34.123   9.307
  514POPC   GL110489  10.715  33.897   9.126
  514POPC   GL210490  10.512  33.639   9.148
  514POPC   C1A10491  10.805  33.646   8.771
  514POPC   D2A10492  10.524  33.597   8.404
  514POPC   C3A10493  10.542  33.932   8.146
  514POPC   C4A10494  10.573  33.868   7.730
  514POPC   C1B10495  10.251  33.807   8.793
  514POPC   C2B10496  10.016  33.821   8.447
  514POPC   C3B10497  10.036  33.627   8.059
  514POPC   C4B10498  10.082  33.813   7.704
  515POPC   NC310499  30.335   2.407   9.443
  515POPC   PO410500  29.846   2.941   9.477
  515POPC   GL110501  29.699   2.922   9.076
  515POPC   GL210502  29.720   2.575   9.068
  515POPC   C1A10503  29.830   2.858   8.652
  515POPC   D2A10504  29.788   2.696   8.267
  515POPC   C3A10505  29.774   2.981   7.935
  515POPC   C4A10506  29.488   3.057   7.622
  515POPC   C1B10507  30.072   2.427   8.766
  515POPC   C2B10508  30.259   2.531   8.341
  515POPC   C3B10509  30.149   2.596   7.909
  515POPC   C4B10510  30.324   2.707   7.489
  516POPC   NC310511  40.275  39.488   9.507
  516POPC   PO410512  40.945  39.248   9.483
  516POPC   GL110513  40.655  39.267   9.177
  516POPC   GL210514  40.721  39.621   9.141
  516POPC   C1A10515  40.837  39.198   8.771
  516POPC   D2A10516  40.916  39.013   8.400
  516POPC   C3A10517  40.733  39.198   8.043
  516POPC   C4A10518  40.876  39.253   7.623
  516POPC   C1B10519  40.490  39.562   8.788
  516POPC   C2B10520  40.623  39.588   8.392
  516POPC   C3B10521  40.386  39.596   8.034
  516POPC   C4B10522  40.402  39.423   7.645
  517POPC   NC310523  24.191  11.551   9.439
  517POPC   PO410524  24.644  11.170   9.526
  517POPC   GL110525  24.616  11.069   9.143
  517POPC   GL210526  24.309  11.250   9.000
  517POPC   C1A10527  24.790  11.207   8.767
  517POPC   D2A10528  24.516  11.296   8.447
  517POPC   C3A10529  24.574  11.319   7.998
  517POPC   C4A10530  24.449  11.020   7.705
  517POPC   C1B10531  24.104  11.525   8.646
  517POPC   C2B10532  24.256  11.675   8.257
  517POPC   C3B10533  24.247  11.659   7.812
  517POPC   C4B10534  24.435  11.751   7.408
  518POPC   NC310535   5.954  13.233   9.490
  518POPC   PO410536   5.578  12.671   9.703
  518POPC   GL110537   5.686  12.830   9.291
  518POPC   GL210538   6.040  12.832   9.159
  518POPC   C1A10539   5.643  12.925   8.843
  518POPC   D2A10540   5.774  12.780   8.426
  518POPC   C3A10541   6.036  13.009   8.139
  518POPC   C4A10542   5.772  13.069   7.758
  518POPC   C1B10543   6.124  12.563   8.760
  518POPC   C2B10544   6.145  12.440   8.306
  518POPC   C3B10545   5.937  12.583   7.882
  518POPC   C4B10546   5.887  12.695   7.424
  519POPC   NC310547   4.588  41.339   9.614
  519POPC   PO410548   4.212  41.913   9.443
  519POPC   GL110549   4.348  41.746   9.078
  519POPC   GL210550   4.360  41.408   9.147
  519POPC   C1A10551   4.382  41.780   8.630
  519POPC   D2A10552   4.146  41.838   8.251
  519POPC   C3A10553   4.357  41.547   8.028
  519POPC   C4A10554   4.501  41.321   7.669
  519POPC   C1B10555   4.022  41.477   8.783
  519POPC   C2B10556   3.968  41.338   8.352
  519POPC   C3B10557   3.891  41.334   7.886
  519POPC   C4B10558   3.959  41.328   7.427
  520POPC   NC310559  25.722  12.697   9.413
  520POPC   PO410560  25.089  13.037   9.448
  520POPC   GL110561  25.191  12.793   9.121
  520POPC   GL210562  25.517  12.894   8.993
  520POPC   C1A10563  25.138  12.734   8.685
  520POPC   D2A10564  25.375  12.890   8.358
  520POPC   C3A10565  25.193  12.944   7.979
  520POPC   C4A10566  25.141  12.672   7.657
  520POPC   C1B10567  25.735  13.080   8.665
  520POPC   C2B10568  25.821  13.204   8.266
  520POPC   C3B10569  25.701  12.968   7.962
  520POPC   C4B10570  25.507  13.083   7.600
  521POPC   NC310571  23.077  12.540   9.629
  521POPC   PO410572  22.539  12.985   9.608
  521POPC   GL110573  22.837  12.839   9.291
  521POPC   GL210574  22.726  12.507   9.175
  521POPC   C1A10575  23.065  12.967   8.924
  521POPC   D2A10576  22.979  13.149   8.524
  521POPC   C3A10577  22.890  12.860   8.222
  521POPC   C4A10578  22.953  13.018   7.834
  521POPC   C1B10579  23.074  12.442   8.884
  521POPC   C2B10580  23.218  12.417   8.446
  521POPC   C3B10581  23.217  12.548   8.001
  521POPC   C4B10582  22.825  12.530   7.753
  522POPC   NC310583  13.382  16.951   9.421
  522POPC   PO410584  13.783  16.469   9.386
  522POPC   GL110585  13.595  16.610   9.060
  522POPC   GL210586  13.364  16.334   9.097
  522POPC   C1A10587  13.865  16.701   8.713
  522POPC   D2A10588  13.810  16.668   8.299
  522POPC   C3A10589  13.495  16.945   8.142
  522POPC   C4A10590  13.654  16.759   7.780
  522POPC   C1B10591  13.627  16.236   8.717
  522POPC   C2B10592  13.728  16.154   8.306
  522POPC   C3B10593  13.662  16.286   7.924
  522POPC   C4B10594  13.745  16.353   7.461
  523POPC   NC310595  26.100  16.514   9.452
  523POPC   PO410596  26.350  17.140   9.693
  523POPC   GL110597  26.091  17.157   9.302
  523POPC   GL210598  25.891  16.852   9.152
  523POPC   C1A10599  26.050  17.195   8.836
  523POPC   D2A10600  26.017  16.905   8.496
  523POPC   C3A10601  26.084  17.060   8.097
  523POPC   C4A10602  26.112  16.959   7.661
  523POPC   C1B10603  25.891  16.485   8.825
  523POPC   C2B10604  25.861  16.419   8.374
  523POPC   C3B10605  26.092  16.545   8.009
  523POPC   C4B10606  26.489  16.368   7.856
  524POPC   NC310607   0.399   8.661   9.523
  524POPC   PO410608   0.406   9.359   9.483
  524POPC   GL110609   0.259   9.049   9.188
  524POPC   GL210610   0.177   9.313   8.993
  524POPC   C1A10611   0.428   8.821   8.816
  524POPC   D2A10612   0.389   8.608   8.408
  524POPC   C3A10613   0.498   8.891   8.037
  524POPC   C4A10614   0.267   8.937   7.638
  524POPC   C1B10615   0.356   9.309   8.600
  524POPC   C2B10616   0.165   9.496   8.249
  524POPC   C3B10617   0.179   9.392   7.839
  524POPC   C4B10618   0.141   9.424   7.402
  525POPC   NC310619   6.269  25.665   9.864
  525POPC   PO410620   6.560  26.165   9.541
  525POPC   GL110621   6.421  26.119   9.138
  525POPC   GL210622   6.340  26.442   9.154
  525POPC   C1A10623   6.369  25.946   8.723
  525POPC   D2A10624   6.642  25.758   8.408
  525POPC   C3A10625   6.603  25.855   7.959
  525POPC   C4A10626   6.976  25.925   7.735
  525POPC   C1B10627   6.639  26.387   8.770
  525POPC   C2B10628   6.646  26.299   8.295
  525POPC   C3B10629   6.702  26.378   7.841
  525POPC   C4B10630   6.665  26.254   7.404
  526POPC   NC310631   7.901  28.590   9.449
  526POPC   PO410632   7.220  28.132   9.484
  526POPC   GL110633   7.527  28.177   9.199
  526POPC   GL210634   7.444  28.534   9.208
  526POPC   C1A10635   7.408  28.239   8.776
  526POPC   D2A10636   7.134  28.082   8.485
  526POPC   C3A10637   7.119  28.318   8.149
  526POPC   C4A10638   7.225  28.164   7.755
  526POPC   C1B10639   7.517  28.745   8.812
  526POPC   C2B10640   7.446  28.635   8.416
  526POPC   C3B10641   7.613  28.651   7.992
  526POPC   C4B10642   7.703  28.556   7.555
  527POPC   NC310643  16.994  44.098   9.552
  527POPC   PO410644  17.682  43.888   9.574
  527POPC   GL110645  17.572  43.883   9.189
  527POPC   GL210646  17.383  44.171   9.208
  527POPC   C1A10647  17.396  43.806   8.808
  527POPC   D2A10648  17.194  43.820   8.416
  527POPC   C3A10649  17.447  43.612   8.162
  527POPC   C4A10650  17.548  43.676   7.743
  527POPC   C1B10651  17.583  44.276   8.829
  527POPC   C2B10652  17.374  44.288   8.450
  527POPC   C3B10653  17.496  44.113   8.060
  527POPC   C4B10654  17.349  44.203   7.659
  528POPC   NC310655  40.897  31.504   9.628
  528POPC   PO410656  40.446  31.478   9.127
  528POPC   GL110657  40.682  31.163   8.928
  528POPC   GL210658  40.990  31.228   9.104
  528POPC   C1A10659  40.759  31.139   8.471
  528POPC   D2A10660  40.967  31.450   8.157
  528POPC   C3A10661  40.705  31.489   7.790
  528POPC   C4A10662  40.553  31.532   7.373
  528POPC   C1B10663  41.199  31.061   8.708
  528POPC   C2B10664  41.197  30.997   8.235
  528POPC   C3B10665  41.093  31.091   7.793
  528POPC   C4B10666  41.044  31.341   7.425
  529POPC   NC310667  24.536  27.197   9.492
  529POPC   PO410668  24.155  26.667   9.800
  529POPC   GL110669  24.221  26.719   9.301
  529POPC   GL210670  24.596  26.761   9.197
  529POPC   C1A10671  24.242  26.865   8.843
  529POPC   D2A10672  24.153  27.030   8.424
  529POPC   C3A10673  24.332  26.860   8.071
  529POPC   C4A10674  24.137  26.784   7.718
  529POPC   C1B10675  24.744  26.857   8.759
  529POPC   C2B10676  24.726  26.671   8.343
  529POPC   C3B10677  24.815  26.803   7.897
  529POPC   C4B10678  24.645  26.970   7.511
  530POPC   NC310679  10.992  31.073   9.476
  530POPC   PO410680  10.365  31.414   9.560
  530POPC   GL110681  10.526  31.411   9.168
  530POPC   GL210682  10.581  31.068   9.165
  530POPC   C1A10683  10.349  31.379   8.743
  530POPC   D2A10684  10.559  31.453   8.330
  530POPC   C3A10685  10.292  31.580   7.986
  530POPC   C4A10686  10.207  31.609   7.541
  530POPC   C1B10687  10.515  30.897   8.754
  530POPC   C2B10688  10.326  30.981   8.333
  530POPC   C3B10689  10.421  31.108   7.878
  530POPC   C4B10690  10.816  31.394   7.843
  531POPC   NC310691  40.016  28.399   9.523
  531POPC   PO410692  39.398  28.547   9.562
  531POPC   GL110693  39.731  28.658   9.199
  531POPC   GL210694  39.814  28.282   9.091
  531POPC   C1A10695  40.058  28.643   8.830
  531POPC   D2A10696  39.957  28.506   8.414
  531POPC   C3A10697  40.105  28.707   8.033
  531POPC   C4A10698  40.005  28.543   7.643
  531POPC   C1B10699  40.061  28.121   8.766
  531POPC   C2B10700  40.268  28.105   8.366
  531POPC   C3B10701  40.102  28.194   8.001
  531POPC   C4B10702  40.358  28.160   7.641
  532POPC   NC310703  17.884   0.803   9.363
  532POPC   PO410704  18.410   0.389   9.418
  532POPC   GL110705  18.175   0.491   9.079
  532POPC   GL210706  17.970   0.206   9.168
  532POPC   C1A10707  18.408   0.642   8.731
  532POPC   D2A10708  18.585   0.433   8.364
  532POPC   C3A10709  18.531   0.656   7.992
  532POPC   C4A10710  18.447   0.573   7.572
  532POPC   C1B10711  18.180   0.125   8.720
  532POPC   C2B10712  18.063   0.470   8.407
  532POPC   C3B10713  18.040   0.518   7.975
  532POPC   C4B10714  17.903   0.408   7.593
  533POPC   NC310715  25.808  38.398   9.533
  533POPC   PO410716  26.166  38.949   9.397
  533POPC   GL110717  26.127  38.566   9.148
  533POPC   GL210718  26.384  38.280   9.113
  533POPC   C1A10719  26.100  38.461   8.722
  533POPC   D2A10720  25.855  38.426   8.374
  533POPC   C3A10721  26.035  38.425   8.002
  533POPC   C4A10722  26.317  38.739   7.863
  533POPC   C1B10723  26.326  38.009   8.707
  533POPC   C2B10724  26.169  38.009   8.280
  533POPC   C3B10725  26.408  38.112   7.877
  533POPC   C4B10726  26.559  38.062   7.437
  534POPC   NC310727  38.015  33.725   9.558
  534POPC   PO410728  37.458  33.399   9.614
  534POPC   GL110729  37.608  33.658   9.275
  534POPC   GL210730  37.846  33.420   9.176
  534POPC   C1A10731  37.809  33.816   8.873
  534POPC   D2A10732  37.755  34.102   8.546
  534POPC   C3A10733  37.737  33.895   8.154
  534POPC   C4A10734  37.665  34.088   7.756
  534POPC   C1B10735  37.426  33.424   8.875
  534POPC   C2B10736  37.173  33.387   8.460
  534POPC   C3B10737  37.370  33.291   8.035
  534POPC   C4B10738  37.691  33.531   7.811
  535POPC   NC310739  14.281  42.686   9.516
  535POPC   PO410740  14.493  43.309   9.572
  535POPC   GL110741  14.491  43.059   9.207
  535POPC   GL210742  14.129  42.984   9.104
  535POPC   C1A10743  14.516  43.121   8.776
  535POPC   D2A10744  14.215  43.014   8.489
  535POPC   C3A10745  14.538  43.041   8.181
  535POPC   C4A10746  14.461  43.058   7.762
  535POPC   C1B10747  14.096  43.382   8.839
  535POPC   C2B10748  14.232  43.498   8.394
  535POPC   C3B10749  14.082  43.248   8.028
  535POPC   C4B10750  14.015  43.182   7.540
  536POPC   NC310751  25.346  29.422   9.272
  536POPC   PO410752  25.404  28.878   9.540
  536POPC   GL110753  25.339  28.953   9.088
  536POPC   GL210754  24.998  29.089   9.066
  536POPC   C1A10755  25.331  29.122   8.647
  536POPC   D2A10756  25.337  28.898   8.250
  536POPC   C3A10757  25.641  28.772   7.950
  536POPC   C4A10758  25.615  28.802   7.462
  536POPC   C1B10759  24.904  29.423   8.750
  536POPC   C2B10760  25.087  29.569   8.357
  536POPC   C3B10761  25.321  29.394   7.996
  536POPC   C4B10762  25.227  29.020   7.754
  537POPC   NC310763  12.776   4.157   9.299
  537POPC   PO410764  12.881   3.587   9.697
  537POPC   GL110765  12.836   3.579   9.213
  537POPC   GL210766  12.563   3.763   9.087
  537POPC   C1A10767  12.944   3.740   8.757
  537POPC   D2A10768  12.831   3.851   8.318
  537POPC   C3A10769  13.056   3.571   8.076
  537POPC   C4A10770  13.130   3.483   7.656
  537POPC   C1B10771  12.457   3.808   8.669
  537POPC   C2B10772  12.370   3.626   8.258
  537POPC   C3B10773  12.482   3.558   7.834
  537POPC   C4B10774  12.363   3.705   7.435
  538POPC   NC310775  12.497  25.002   9.467
  538POPC   PO410776  11.832  25.114   9.540
  538POPC   GL110777  11.939  25.282   9.133
  538POPC   GL210778  12.296  25.268   9.064
  538POPC   C1A10779  11.909  25.127   8.703
  538POPC   D2A10780  11.701  25.067   8.296
  538POPC   C3A10781  11.935  25.247   7.924
  538POPC   C4A10782  11.977  25.668   7.691
  538POPC   C1B10783  12.263  25.531   8.709
  538POPC   C2B10784  12.459  25.589   8.309
  538POPC   C3B10785  12.398  25.502   7.894
  538POPC   C4B10786  12.462  25.742   7.496
  539POPC   NC310787  42.140  38.604   9.333
  539POPC   PO410788  41.962  37.994   9.363
  539POPC   GL110789  42.241  38.177   9.035
  539POPC   GL210790  42.601  38.178   9.167
  539POPC   C1A10791  42.304  38.520   8.690
  539POPC   D2A10792  42.375  38.803   8.322
  539POPC   C3A10793  42.207  38.696   7.903
  539POPC   C4A10794  42.113  38.348   7.571
  539POPC   C1B10795  42.699  38.182   8.724
  539POPC   C2B10796  42.512  38.234   8.282
  539POPC   C3B10797  42.567  38.319   7.830
  539POPC   C4B10798  42.715  38.145   7.430
  540POPC   NC310799  25.407  29.963   9.650
  540POPC   PO410800  24.933  29.531   9.416
  540POPC   GL110801  25.154  29.871   9.158
  540POPC   GL210802  25.468  30.084   9.160
  540POPC   C1A10803  25.190  29.951   8.725
  540POPC   D2A10804  25.413  29.968   8.333
  540POPC   C3A10805  25.159  29.896   7.948
  540POPC   C4A10806  25.509  29.804   7.711
  540POPC   C1B10807  25.563  30.283   8.771
  540POPC   C2B10808  25.501  30.468   8.367
  540POPC   C3B10809  25.491  30.290   7.913
  540POPC   C4B10810  25.630  30.249   7.457
  541POPC   NC310811  22.685   9.545   9.906
  541POPC   PO410812  22.197   9.419   9.459
  541POPC   GL110813  22.328   9.600   9.043
  541POPC   GL210814  22.255   9.876   9.057
  541POPC   C1A10815  22.275   9.520   8.606
  541POPC   D2A10816  21.972   9.452   8.302
  541POPC   C3A10817  22.043   9.595   7.872
  541POPC   C4A10818  22.042   9.361   7.489
  541POPC   C1B10819  22.295  10.041   8.660
  541POPC   C2B10820  22.161   9.942   8.260
  541POPC   C3B10821  22.374  10.149   7.931
  541POPC   C4B10822  22.369  10.223   7.483
  542POPC   NC310823   1.522  23.047   9.346
  542POPC   PO410824   0.882  23.287   9.406
  542POPC   GL110825   1.079  23.069   9.103
  542POPC   GL210826   1.078  22.724   9.206
  542POPC   C1A10827   1.294  23.194   8.704
  542POPC   D2A10828   1.509  23.029   8.348
  542POPC   C3A10829   1.319  22.994   7.981
  542POPC   C4A10830   1.225  23.302   7.717
  542POPC   C1B10831   1.274  22.685   8.786
  542POPC   C2B10832   1.080  22.709   8.386
  542POPC   C3B10833   0.969  22.620   7.965
  542POPC   C4B10834   1.278  22.602   7.651
  543POPC   NC310835   6.731  31.129   9.541
  543POPC   PO410836   6.311  31.598   9.201
  543POPC   GL110837   6.550  31.252   9.089
  543POPC   GL210838   6.895  31.344   9.113
  543POPC   C1A10839   6.720  31.010   8.773
  543POPC   D2A10840   6.823  31.144   8.388
  543POPC   C3A10841   6.547  31.142   8.062
  543POPC   C4A10842   6.757  31.478   7.837
  543POPC   C1B10843   6.773  31.540   8.710
  543POPC   C2B10844   6.460  31.525   8.416
  543POPC   C3B10845   6.276  31.593   8.025
  543POPC   C4B10846   6.371  31.796   7.659
  544POPC   NC310847  11.015  16.383   9.541
  544POPC   PO410848  11.321  16.981   9.535
  544POPC   GL110849  11.301  16.666   9.195
  544POPC   GL210850  10.952  16.659   9.122
  544POPC   C1A10851  11.348  16.705   8.745
  544POPC   D2A10852  11.345  16.991   8.381
  544POPC   C3A10853  11.553  16.888   8.005
  544POPC   C4A10854  11.551  16.624   7.611
  544POPC   C1B10855  11.042  16.298   8.867
  544POPC   C2B10856  11.142  16.301   8.451
  544POPC   C3B10857  11.200  16.518   8.069
  544POPC   C4B10858  11.096  16.861   7.778
  545POPC   NC310859   3.008  17.344   9.418
  545POPC   PO410860   2.486  17.753   9.421
  545POPC   GL110861   2.718  17.558   9.067
  545POPC   GL210862   3.056  17.705   9.066
  545POPC   C1A10863   2.792  17.341   8.667
  545POPC   D2A10864   2.642  17.610   8.324
  545POPC   C3A10865   2.767  17.688   7.932
  545POPC   C4A10866   2.765  17.375   7.657
  545POPC   C1B10867   3.030  17.777   8.650
  545POPC   C2B10868   3.171  17.536   8.360
  545POPC   C3B10869   3.002  17.267   8.097
  545POPC   C4B10870   3.174  17.083   7.761
  546POPC   NC310871   2.968  41.052   9.477
  546POPC   PO410872   2.494  40.607   9.416
  546POPC   GL110873   2.684  40.858   9.080
  546POPC   GL210874   2.714  41.178   9.053
  546POPC   C1A10875   2.771  40.934   8.614
  546POPC   D2A10876   3.033  41.176   8.310
  546POPC   C3A10877   2.928  41.071   7.887
  546POPC   C4A10878   3.103  40.778   7.607
  546POPC   C1B10879   2.374  41.217   8.799
  546POPC   C2B10880   2.378  41.343   8.386
  546POPC   C3B10881   2.443  41.083   8.034
  546POPC   C4B10882   2.344  41.060   7.611
  547POPC   NC310883   8.337  15.546   9.454
  547POPC   PO410884   8.417  14.826   9.490
  547POPC   GL110885   8.191  14.882   9.129
  547POPC   GL210886   8.256  15.196   9.077
  547POPC   C1A10887   7.977  14.943   8.739
  547POPC   D2A10888   8.266  15.112   8.471
  547POPC   C3A10889   8.091  15.253   8.135
  547POPC   C4A10890   8.088  15.213   7.735
  547POPC   C1B10891   8.442  15.506   8.782
  547POPC   C2B10892   8.406  15.617   8.355
  547POPC   C3B10893   8.430  15.602   7.916
  547POPC   C4B10894   8.542  15.335   7.559
  548POPC   NC310895  17.404  41.697   9.460
  548POPC   PO410896  18.084  41.565   9.561
  548POPC   GL110897  17.776  41.414   9.236
  548POPC   GL210898  17.706  41.738   9.028
  548POPC   C1A10899  17.526  41.311   8.851
  548POPC   D2A10900  17.609  41.580   8.490
  548POPC   C3A10901  17.727  41.438   8.075
  548POPC   C4A10902  17.511  41.509   7.706
  548POPC   C1B10903  17.266  41.789   8.842
  548POPC   C2B10904  17.111  41.729   8.443
  548POPC   C3B10905  17.381  41.858   8.105
  548POPC   C4B10906  17.371  41.989   7.700
  549POPC   NC310907  10.354   4.732   9.631
  549POPC   PO410908  10.690   4.096   9.529
  549POPC   GL110909  10.474   4.127   9.115
  549POPC   GL210910  10.426   4.427   9.197
  549POPC   C1A10911  10.552   4.067   8.675
  549POPC   D2A10912  10.516   3.774   8.331
  549POPC   C3A10913  10.409   3.881   7.933
  549POPC   C4A10914  10.536   4.191   7.654
  549POPC   C1B10915  10.619   4.592   8.851
  549POPC   C2B10916  10.835   4.461   8.518
  549POPC   C3B10917  10.712   4.398   8.096
  549POPC   C4B10918  10.789   4.624   7.725
  550POPC   NC310919  12.790  20.187   9.423
  550POPC   PO410920  12.598  19.462   9.371
  550POPC   GL110921  12.818  19.663   9.072
  550POPC   GL210922  12.805  19.996   8.950
  550POPC   C1A10923  12.970  19.566   8.713
  550POPC   D2A10924  12.856  19.877   8.419
  550POPC   C3A10925  13.134  19.835   8.129
  550POPC   C4A10926  13.107  19.800   7.700
  550POPC   C1B10927  12.480  20.162   8.671
  550POPC   C2B10928  12.523  20.273   8.241
  550POPC   C3B10929  12.824  20.187   7.934
  550POPC   C4B10930  12.737  20.078   7.529
  551POPC   NC310931  13.244  24.257   9.464
  551POPC   PO410932  13.834  24.644   9.432
  551POPC   GL110933  13.571  24.851   9.123
  551POPC   GL210934  13.241  24.706   9.141
  551POPC   C1A10935  13.529  24.774   8.685
  551POPC   D2A10936  13.567  24.432   8.394
  551POPC   C3A10937  13.837  24.444   8.014
  551POPC   C4A10938  14.167  24.183   7.831
  551POPC   C1B10939  13.191  24.385   8.813
  551POPC   C2B10940  13.063  24.289   8.394
  551POPC   C3B10941  13.244  24.356   8.006
  551POPC   C4B10942  13.430  24.676   7.801
  552POPC   NC310943  29.811  20.032   9.546
  552POPC   PO410944  30.426  19.629   9.594
  552POPC   GL110945  30.191  19.831   9.237
  552POPC   GL210946  29.843  19.686   9.182
  552POPC   C1A10947  30.165  19.792   8.788
  552POPC   D2A10948  30.129  19.560   8.390
  552POPC   C3A10949  30.190  19.776   8.001
  552POPC   C4A10950  30.119  19.999   7.627
  552POPC   C1B10951  29.708  19.997   8.892
  552POPC   C2B10952  29.811  19.982   8.451
  552POPC   C3B10953  29.674  19.919   8.042
  552POPC   C4B10954  29.382  20.043   7.775
  553POPC   NC310955  33.963   5.943   9.589
  553POPC   PO410956  33.492   5.543   9.492
  553POPC   GL110957  33.759   5.680   9.176
  553POPC   GL210958  33.717   6.044   9.155
  553POPC   C1A10959  33.930   5.665   8.771
  553POPC   D2A10960  33.797   5.871   8.411
  553POPC   C3A10961  33.948   5.792   8.004
  553POPC   C4A10962  34.023   5.559   7.607
  553POPC   C1B10963  33.471   5.962   8.795
  553POPC   C2B10964  33.328   6.159   8.442
  553POPC   C3B10965  33.409   5.895   8.085
  553POPC   C4B10966  33.600   5.956   7.695
  554POPC   NC310967  18.170  13.972   9.156
  554POPC   PO410968  18.424  13.534   9.547
  554POPC   GL110969  18.360  13.404   9.114
  554POPC   GL210970  18.051  13.520   9.000
  554POPC   C1A10971  18.477  13.607   8.692
  554POPC   D2A10972  18.565  13.792   8.295
  554POPC   C3A10973  18.375  13.746   7.899
  554POPC   C4A10974  18.407  13.341   7.719
  554POPC   C1B10975  18.053  13.314   8.657
  554POPC   C2B10976  18.133  13.500   8.293
  554POPC   C3B10977  17.955  13.440   7.937
  554POPC   C4B10978  17.866  13.167   7.643
  555POPC   NC310979  21.966  31.892   9.630
  555POPC   PO410980  22.400  32.431   9.592
  555POPC   GL110981  22.219  32.446   9.213
  555POPC   GL210982  22.242  32.110   9.209
  555POPC   C1A10983  22.263  32.521   8.773
  555POPC   D2A10984  22.062  32.366   8.405
  555POPC   C3A10985  22.271  32.464   8.021
  555POPC   C4A10986  22.145  32.271   7.642
  555POPC   C1B10987  22.122  32.040   8.811
  555POPC   C2B10988  22.229  31.892   8.417
  555POPC   C3B10989  22.027  31.981   8.045
  555POPC   C4B10990  22.186  31.773   7.722
  556POPC   NC310991   9.507  20.781   9.600
  556POPC   PO410992   9.865  20.253   9.512
  556POPC   GL110993   9.793  20.599   9.175
  556POPC   GL210994   9.621  20.902   9.128
  556POPC   C1A10995   9.961  20.811   8.771
  556POPC   D2A10996   9.759  20.846   8.373
  556POPC   C3A10997   9.927  20.792   7.967
  556POPC   C4A10998   9.616  20.640   7.750
  556POPC   C1B10999   9.464  20.678   8.748
  556POPC   C2B11000   9.261  20.664   8.318
  556POPC   C3B11001   9.145  20.825   7.898
  556POPC   C4B11002   9.211  20.685   7.463
  557POPC   NC311003  35.017  29.486   9.419
  557POPC   PO411004  35.493  29.071   9.356
  557POPC   GL111005  35.528  29.183   8.955
  557POPC   GL211006  35.823  29.408   8.948
  557POPC   C1A11007  35.169  28.995   8.760
  557POPC   D2A11008  35.028  28.770   8.429
  557POPC   C3A11009  35.200  28.890   8.016
  557POPC   C4A11010  35.321  29.197   7.741
  557POPC   C1B11011  35.647  29.600   8.576
  557POPC   C2B11012  35.571  29.432   8.154
  557POPC   C3B11013  35.740  29.485   7.750
  557POPC   C4B11014  35.795  29.128   7.487
  558POPC   NC311015  20.765   2.827   9.827
  558POPC   PO411016  20.844   3.120   9.264
  558POPC   GL111017  20.784   2.743   9.003
  558POPC   GL211018  20.545   3.000   8.843
  558POPC   C1A11019  20.467   2.529   8.737
  558POPC   D2A11020  20.540   2.753   8.341
  558POPC   C3A11021  20.471   2.541   7.949
  558POPC   C4A11022  20.805   2.488   7.657
  558POPC   C1B11023  20.964   3.033   8.622
  558POPC   C2B11024  21.196   2.961   8.263
  558POPC   C3B11025  20.954   2.965   7.923
  558POPC   C4B11026  20.535   3.038   7.876
  559POPC   NC311027  12.307  14.135   9.249
  559POPC   PO411028  11.892  14.518   9.653
  559POPC   GL111029  11.969  14.560   9.210
  559POPC   GL211030  11.822  14.267   9.070
  559POPC   C1A11031  12.108  14.549   8.749
  559POPC   D2A11032  12.263  14.656   8.320
  559POPC   C3A11033  12.093  14.477   7.955
  559POPC   C4A11034  12.219  14.245   7.576
  559POPC   C1B11035  11.627  14.358   8.700
  559POPC   C2B11036  11.760  14.326   8.296
  559POPC   C3B11037  11.681  14.221   7.857
  559POPC   C4B11038  11.737  14.009   7.482
  560POPC   NC311039  31.325  33.876   9.338
  560POPC   PO411040  31.676  33.415   9.792
  560POPC   GL111041  31.656  33.420   9.303
  560POPC   GL211042  31.304  33.375   9.188
  560POPC   C1A11043  31.719  33.513   8.841
  560POPC   D2A11044  31.516  33.806   8.508
  560POPC   C3A11045  31.615  33.770   8.045
  560POPC   C4A11046  31.337  33.786   7.693
  560POPC   C1B11047  31.271  33.277   8.724
  560POPC   C2B11048  31.525  33.321   8.341
  560POPC   C3B11049  31.591  33.168   7.928
  560POPC   C4B11050  31.639  33.387   7.535
  561POPC   NC311051  40.778  26.674   9.535
  561POPC   PO411052  40.850  25.981   9.510
  561POPC   GL111053  40.888  26.298   9.196
  561POPC   GL211054  40.625  26.188   8.975
  561POPC   C1A11055  41.049  26.345   8.773
  561POPC   D2A11056  41.014  25.988   8.479
  561POPC   C3A11057  40.929  26.089   8.045
  561POPC   C4A11058  40.771  25.841   7.726
  561POPC   C1B11059  40.365  26.097   8.627
  561POPC   C2B11060  40.384  26.020   8.169
  561POPC   C3B11061  40.458  26.248   7.775
  561POPC   C4B11062  40.806  26.296   7.478
  562POPC   NC311063  40.001  24.912   9.443
  562POPC   PO411064  40.299  25.464   9.476
  562POPC   GL111065  40.091  25.338   9.159
  562POPC   GL211066  39.784  25.469   9.264
  562POPC   C1A11067  40.239  25.265   8.760
  562POPC   D2A11068  40.364  25.058   8.415
  562POPC   C3A11069  40.363  25.336   8.094
  562POPC   C4A11070  40.073  25.163   7.822
  562POPC   C1B11071  39.731  25.355   8.804
  562POPC   C2B11072  39.821  25.184   8.411
  562POPC   C3B11073  39.692  25.401   8.053
  562POPC   C4B11074  39.612  25.332   7.620
  563POPC   NC311075  35.413  33.625   9.444
  563POPC   PO411076  34.939  34.079   9.474
  563POPC   GL111077  35.191  33.964   9.121
  563POPC   GL211078  35.441  34.165   9.047
  563POPC   C1A11079  35.180  33.670   8.761
  563POPC   D2A11080  35.186  33.460   8.355
  563POPC   C3A11081  35.043  33.610   7.939
  563POPC   C4A11082  35.245  33.622   7.495
  563POPC   C1B11083  35.378  34.138   8.629
  563POPC   C2B11084  35.310  33.941   8.259
  563POPC   C3B11085  35.519  33.803   7.915
  563POPC   C4B11086  35.615  34.066   7.547
  564POPC   NC311087  20.367   0.400   9.482
  564POPC   PO411088  20.981   0.650   9.422
  564POPC   GL111089  20.703   0.437   9.095
  564POPC   GL211090  20.316   0.432   8.999
  564POPC   C1A11091  20.746   0.451   8.673
  564POPC   D2A11092  20.916   0.126   8.444
  564POPC   C3A11093  20.981   0.315   8.082
  564POPC   C4A11094  20.728   0.372   7.749
  564POPC   C1B11095  20.232   0.410   8.604
  564POPC   C2B11096  20.457   0.385   8.225
  564POPC   C3B11097  20.252   0.288   7.829
  564POPC   C4B11098  20.394   0.253   7.333
  565POPC   NC311099   6.990   5.085   9.459
  565POPC   PO411100   6.267   4.942   9.469
  565POPC   GL111101   6.574   5.068   9.166
  565POPC   GL211102   6.345   5.279   9.036
  565POPC   C1A11103   6.881   4.954   8.808
  565POPC   D2A11104   6.889   5.142   8.388
  565POPC   C3A11105   6.814   4.994   7.974
  565POPC   C4A11106   6.989   5.313   7.738
  565POPC   C1B11107   6.443   5.172   8.655
  565POPC   C2B11108   6.389   4.941   8.300
  565POPC   C3B11109   6.337   5.159   7.959
  565POPC   C4B11110   6.128   5.278   7.670
  566POPC   NC311111  21.032   1.133   9.369
  566POPC   PO411112  21.599   1.385   9.701
  566POPC   GL111113  21.550   1.343   9.255
  566POPC   GL211114  21.289   1.457   9.079
  566POPC   C1A11115  21.691   1.163   8.876
  566POPC   D2A11116  21.543   1.025   8.475
  566POPC   C3A11117  21.578   1.293   8.128
  566POPC   C4A11118  21.728   1.043   7.796
  566POPC   C1B11119  21.243   1.395   8.692
  566POPC   C2B11120  21.088   1.292   8.344
  566POPC   C3B11121  21.167   0.985   8.099
  566POPC   C4B11122  21.179   1.186   7.733
  567POPC   NC311123   4.318  32.640   9.441
  567POPC   PO411124   4.347  31.905   9.510
  567POPC   GL111125   4.487  32.134   9.171
  567POPC   GL211126   4.746  32.374   9.260
  567POPC   C1A11127   4.428  32.315   8.765
  567POPC   D2A11128   4.226  32.496   8.404
  567POPC   C3A11129   4.097  32.195   8.073
  567POPC   C4A11130   4.145  32.113   7.639
  567POPC   C1B11131   4.791  32.648   8.883
  567POPC   C2B11132   4.787  32.498   8.411
  567POPC   C3B11133   4.532  32.513   7.994
  567POPC   C4B11134   4.499  32.445   7.539
  568POPC   NC311135  30.003  38.816   9.501
  568POPC   PO411136  29.868  38.172   9.389
  568POPC   GL111137  29.964  38.480   9.121
  568POPC   GL211138  29.640  38.606   9.127
  568POPC   C1A11139  30.056  38.559   8.708
  568POPC   D2A11140  30.048  38.256   8.397
  568POPC   C3A11141  30.121  38.461   8.024
  568POPC   C4A11142  29.870  38.801   7.829
  568POPC   C1B11143  29.651  38.244   8.784
  568POPC   C2B11144  29.522  38.143   8.374
  568POPC   C3B11145  29.741  38.119   7.985
  568POPC   C4B11146  29.808  38.326   7.631
  569POPC   NC311147  23.492   5.428   9.212
  569POPC   PO411148  23.901   4.964   9.497
  569POPC   GL111149  23.909   4.920   9.066
  569POPC   GL211150  24.015   4.594   9.007
  569POPC   C1A11151  23.872   5.144   8.672
  569POPC   D2A11152  24.147   5.337   8.361
  569POPC   C3A11153  23.955   5.280   7.959
  569POPC   C4A11154  23.584   5.248   7.691
  569POPC   C1B11155  23.754   4.597   8.624
  569POPC   C2B11156  23.554   4.753   8.242
  569POPC   C3B11157  23.759   4.773   7.822
  569POPC   C4B11158  23.877   4.890   7.391
  570POPC   NC311159   0.602  26.427   9.382
  570POPC   PO411160   0.648  27.172   9.479
  570POPC   GL111161   0.434  26.877   9.186
  570POPC   GL211162   0.144  26.718   9.302
  570POPC   C1A11163   0.559  26.852   8.756
  570POPC   D2A11164   0.544  27.224   8.485
  570POPC   C3A11165   0.532  27.111   8.076
  570POPC   C4A11166   0.447  26.782   7.760
  570POPC   C1B11167   0.152  26.569   8.855
  570POPC   C2B11168   0.272  26.487   8.419
  570POPC   C3B11169   0.041  26.498   8.006
  570POPC   C4B11170   0.102  26.484   7.548
  571POPC   NC311171  24.958  19.469   9.449
  571POPC   PO411172  24.551  18.992   9.328
  571POPC   GL111173  24.517  19.326   9.119
  571POPC   GL211174  24.783  19.267   8.933
  571POPC   C1A11175  24.290  19.355   8.758
  571POPC   D2A11176  24.482  19.242   8.373
  571POPC   C3A11177  24.410  19.258   7.954
  571POPC   C4A11178  24.256  19.467   7.597
  571POPC   C1B11179  24.656  18.870   8.685
  571POPC   C2B11180  24.928  18.714   8.354
  571POPC   C3B11181  24.762  18.856   8.018
  571POPC   C4B11182  24.464  18.832   7.688
  572POPC   NC311183  13.856  17.926   9.441
  572POPC   PO411184  13.504  17.361   9.587
  572POPC   GL111185  13.345  17.429   9.159
  572POPC   GL211186  13.141  17.160   9.033
  572POPC   C1A11187  13.526  17.571   8.737
  572POPC   D2A11188  13.771  17.685   8.368
  572POPC   C3A11189  13.574  17.744   7.991
  572POPC   C4A11190  13.738  17.668   7.624
  572POPC   C1B11191  13.500  17.056   8.759
  572POPC   C2B11192  13.834  17.177   8.464
  572POPC   C3B11193  13.817  17.286   8.010
  572POPC   C4B11194  13.616  17.190   7.564
  573POPC   NC311195   8.003  44.409   9.641
  573POPC   PO411196   8.619  44.461   9.644
  573POPC   GL111197   8.333  44.519   9.226
  573POPC   GL211198   7.930  44.522   9.155
  573POPC   C1A11199   8.231  44.689   8.787
  573POPC   D2A11200   7.893  44.878   8.500
  573POPC   C3A11201   8.046  44.974   8.074
  573POPC   C4A11202   8.067   0.233   7.686
  573POPC   C1B11203   7.834  44.324   8.774
  573POPC   C2B11204   8.070  44.412   8.384
  573POPC   C3B11205   8.365  44.349   8.056
  573POPC   C4B11206   8.212  44.229   7.669
  574POPC   NC311207  14.242  16.445   9.483
  574POPC   PO411208  14.819  16.929   9.488
  574POPC   GL111209  14.518  17.015   9.189
  574POPC   GL211210  14.485  16.675   9.083
  574POPC   C1A11211  14.255  17.069   8.806
  574POPC   D2A11212  14.274  16.898   8.395
  574POPC   C3A11213  14.129  16.862   7.954
  574POPC   C4A11214  14.121  16.470   7.776
  574POPC   C1B11215  14.588  16.578   8.665
  574POPC   C2B11216  14.507  16.480   8.207
  574POPC   C3B11217  14.652  16.592   7.826
  574POPC   C4B11218  14.936  16.927   7.809
  575POPC   NC311219  44.474   5.529   9.475
  575POPC   PO411220  44.970   5.987   9.485
  575POPC   GL111221  44.733   5.831   9.139
  575POPC   GL211222  44.919   5.535   9.081
  575POPC   C1A11223  44.635   6.053   8.755
  575POPC   D2A11224  44.915   6.334   8.496
  575POPC   C3A11225  44.955   6.173   8.093
  575POPC   C4A11226  44.626   6.147   7.731
  575POPC   C1B11227  44.656   5.446   8.764
  575POPC   C2B11228  44.786   5.520   8.347
  575POPC   C3B11229  44.811   5.717   7.951
  575POPC   C4B11230  44.565   5.636   7.596
  576POPC   NC311231  41.947   9.220   9.300
  576POPC   PO411232  42.491   8.837   9.447
  576POPC   GL111233  42.400   8.686   9.076
  576POPC   GL211234  42.074   8.781   8.953
  576POPC   C1A11235  42.559   8.791   8.691
  576POPC   D2A11236  42.376   8.940   8.333
  576POPC   C3A11237  42.361   8.699   7.993
  576POPC   C4A11238  42.105   8.754   7.673
  576POPC   C1B11239  42.076   9.172   8.688
  576POPC   C2B11240  42.135   9.389   8.305
  576POPC   C3B11241  42.141   9.194   7.942
  576POPC   C4B11242  41.984   9.229   7.553
  577POPC   NC311243  10.021  31.172   9.335
  577POPC   PO411244   9.430  31.391   9.493
  577POPC   GL111245   9.693  31.523   9.132
  577POPC   GL211246  10.060  31.651   9.164
  577POPC   C1A11247   9.808  31.321   8.739
  577POPC   D2A11248   9.655  31.070   8.396
  577POPC   C3A11249   9.916  31.165   8.040
  577POPC   C4A11250   9.785  31.334   7.643
  577POPC   C1B11251   9.920  31.862   8.791
  577POPC   C2B11252   9.744  31.703   8.409
  577POPC   C3B11253   9.787  31.691   7.999
  577POPC   C4B11254   9.878  31.976   7.689
  578POPC   NC311255  35.516  19.528   9.272
  578POPC   PO411256  35.486  20.179   9.552
  578POPC   GL111257  35.291  20.019   9.164
  578POPC   GL211258  34.952  19.828   9.152
  578POPC   C1A11259  35.372  20.043   8.719
  578POPC   D2A11260  35.119  20.011   8.336
  578POPC   C3A11261  35.369  20.041   7.963
  578POPC   C4A11262  35.643  20.098   7.609
  578POPC   C1B11263  35.060  19.609   8.745
  578POPC   C2B11264  35.434  19.571   8.483
  578POPC   C3B11265  35.536  19.315   8.132
  578POPC   C4B11266  35.607  19.572   7.804
  579POPC   NC311267  18.779  13.893   9.520
  579POPC   PO411268  19.390  13.604   9.270
  579POPC   GL111269  19.040  13.812   9.066
  579POPC   GL211270  18.872  13.474   8.997
  579POPC   C1A11271  18.930  13.906   8.627
  579POPC   D2A11272  19.062  13.683   8.239
  579POPC   C3A11273  18.865  13.654   7.877
  579POPC   C4A11274  18.809  14.046   7.694
  579POPC   C1B11275  19.207  13.483   8.668
  579POPC   C2B11276  19.521  13.432   8.373
  579POPC   C3B11277  19.394  13.438   7.929
  579POPC   C4B11278  19.129  13.275   7.676
  580POPC   NC311279  19.394  36.501   9.452
  580POPC   PO411280  19.155  36.016   9.815
  580POPC   GL111281  19.042  36.058   9.347
  580POPC   GL211282  18.689  35.986   9.299
  580POPC   C1A11283  19.102  35.962   8.881
  580POPC   D2A11284  19.328  36.109   8.496
  580POPC   C3A11285  19.160  36.019   8.084
  580POPC   C4A11286  19.190  35.718   7.753
  580POPC   C1B11287  18.641  36.256   8.931
  580POPC   C2B11288  18.818  36.224   8.521
  580POPC   C3B11289  18.716  36.279   8.101
  580POPC   C4B11290  18.829  36.162   7.715
  581POPC   NC311291  19.434  44.599   9.732
  581POPC   PO411292  18.953  44.740   9.320
  581POPC   GL111293  19.250  44.591   9.026
  581POPC   GL211294  19.553  44.415   9.180
  581POPC   C1A11295  19.162  44.618   8.572
  581POPC   D2A11296  19.101  44.501   8.140
  581POPC   C3A11297  19.082  44.753   7.768
  581POPC   C4A11298  18.939  44.712   7.342
  581POPC   C1B11299  19.494  44.233   8.739
  581POPC   C2B11300  19.561  44.251   8.263
  581POPC   C3B11301  19.429  44.338   7.797
  581POPC   C4B11302  19.423  44.554   7.377
  582POPC   NC311303  33.169  16.218   9.327
  582POPC   PO411304  33.183  16.810   9.667
  582POPC   GL111305  33.133  16.723   9.196
  582POPC   GL211306  33.392  16.535   9.007
  582POPC   C1A11307  33.097  16.903   8.741
  582POPC   D2A11308  32.893  16.910   8.302
  582POPC   C3A11309  33.169  16.849   7.937
  582POPC   C4A11310  33.160  16.682   7.520
  582POPC   C1B11311  33.005  16.397   8.756
  582POPC   C2B11312  32.883  16.238   8.390
  582POPC   C3B11313  32.845  16.444   8.013
  582POPC   C4B11314  32.814  16.322   7.624
  583POPC   NC311315  30.855   9.447   9.475
  583POPC   PO411316  30.383   9.934   9.373
  583POPC   GL111317  30.675   9.753   9.037
  583POPC   GL211318  30.995   9.603   9.023
  583POPC   C1A11319  30.672   9.675   8.576
  583POPC   D2A11320  30.329   9.676   8.266
  583POPC   C3A11321  30.402   9.591   7.826
  583POPC   C4A11322  30.603   9.807   7.468
  583POPC   C1B11323  31.095   9.943   8.734
  583POPC   C2B11324  30.989  10.042   8.307
  583POPC   C3B11325  30.887   9.752   7.959
  583POPC   C4B11326  31.133   9.633   7.591
  584POPC   NC311327  41.838   5.151   9.557
  584POPC   PO411328  41.370   4.669   9.691
  584POPC   GL111329  41.342   4.953   9.287
  584POPC   GL211330  41.659   5.052   9.107
  584POPC   C1A11331  41.277   5.128   8.826
  584POPC   D2A11332  41.529   5.069   8.432
  584POPC   C3A11333  41.438   5.196   8.012
  584POPC   C4A11334  41.160   4.988   7.750
  584POPC   C1B11335  41.812   5.340   8.762
  584POPC   C2B11336  42.009   5.269   8.327
  584POPC   C3B11337  41.916   5.366   7.888
  584POPC   C4B11338  41.910   5.271   7.456
  585POPC   NC311339  44.718  19.739  10.033
  585POPC   PO411340  44.532  20.011   9.452
  585POPC   GL111341  44.444  19.810   9.082
  585POPC   GL211342  44.280  19.528   9.235
  585POPC   C1A11343  44.674  19.685   8.709
  585POPC   D2A11344  44.896  19.541   8.331
  585POPC   C3A11345  44.790  19.753   7.961
  585POPC   C4A11346  44.687  19.679   7.484
  585POPC   C1B11347  44.296  19.367   8.807
  585POPC   C2B11348  44.336  19.556   8.356
  585POPC   C3B11349  44.341  19.500   7.914
  585POPC   C4B11350  44.339  19.917   7.774
  586POPC   NC311351   1.481   0.277   9.427
  586POPC   PO411352   1.005   0.805   9.403
  586POPC   GL111353   1.174   0.572   9.066
  586POPC   GL211354   1.516   0.586   9.013
  586POPC   C1A11355   1.019   0.358   8.706
  586POPC   D2A11356   0.962   0.131   8.334
  586POPC   C3A11357   0.888   0.441   8.057
  586POPC   C4A11358   1.000   0.533   7.676
  586POPC   C1B11359   1.623   0.611   8.612
  586POPC   C2B11360   1.348   0.485   8.309
  586POPC   C3B11361   1.422   0.380   7.905
  586POPC   C4B11362   1.635   0.674   7.625
  587POPC   NC311363  43.281  20.251   9.443
  587POPC   PO411364  43.328  20.990   9.550
  587POPC   GL111365  43.296  20.709   9.190
  587POPC   GL211366  42.950  20.590   9.209
  587POPC   C1A11367  43.216  20.612   8.735
  587POPC   D2A11368  43.298  20.757   8.296
  587POPC   C3A11369  43.239  20.464   7.951
  587POPC   C4A11370  43.171  20.466   7.494
  587POPC   C1B11371  42.753  20.818   8.869
  587POPC   C2B11372  42.878  20.997   8.463
  587POPC   C3B11373  42.852  20.843   8.037
  587POPC   C4B11374  42.694  20.684   7.647
  588POPC   NC311375  28.359  36.246   9.458
  588POPC   PO411376  28.675  35.759   9.496
  588POPC   GL111377  28.454  35.888   9.094
  588POPC   GL211378  28.527  36.244   8.988
  588POPC   C1A11379  28.478  35.829   8.642
  588POPC   D2A11380  28.102  35.829   8.358
  588POPC   C3A11381  28.150  35.939   7.916
  588POPC   C4A11382  28.550  36.028   7.680
  588POPC   C1B11383  28.191  36.225   8.709
  588POPC   C2B11384  28.201  36.331   8.297
  588POPC   C3B11385  28.266  36.426   7.887
  588POPC   C4B11386  28.134  36.201   7.446
  589POPC   NC311387  12.949  21.128   9.576
  589POPC   PO411388  13.066  20.538   9.284
  589POPC   GL111389  12.829  20.813   9.057
  589POPC   GL211390  13.096  21.092   9.052
  589POPC   C1A11391  12.665  20.661   8.627
  589POPC   D2A11392  12.506  20.806   8.240
  589POPC   C3A11393  12.556  20.606   7.830
  589POPC   C4A11394  12.891  20.544   7.489
  589POPC   C1B11395  13.142  20.817   8.648
  589POPC   C2B11396  13.017  20.635   8.211
  589POPC   C3B11397  13.249  20.683   7.811
  589POPC   C4B11398  13.508  20.716   7.424
  590POPC   NC311399   3.315  33.902   9.537
  590POPC   PO411400   3.989  33.953   9.655
  590POPC   GL111401   3.868  33.880   9.229
  590POPC   GL211402   3.656  34.137   9.217
  590POPC   C1A11403   3.563  33.743   8.901
  590POPC   D2A11404   3.314  33.577   8.570
  590POPC   C3A11405   3.510  33.507   8.166
  590POPC   C4A11406   3.653  33.469   7.738
  590POPC   C1B11407   3.728  34.204   8.775
  590POPC   C2B11408   3.640  34.008   8.369
  590POPC   C3B11409   3.768  33.913   7.961
  590POPC   C4B11410   3.852  34.066   7.541
  591POPC   NC311411   7.873  35.668   9.528
  591POPC   PO411412   8.326  35.131   9.660
  591POPC   GL111413   8.295  35.226   9.213
  591POPC   GL211414   8.229  35.572   9.128
  591POPC   C1A11415   8.324  35.153   8.752
  591POPC   D2A11416   8.209  35.291   8.325
  591POPC   C3A11417   8.491  35.279   7.956
  591POPC   C4A11418   8.447  35.291   7.484
  591POPC   C1B11419   8.262  35.670   8.686
  591POPC   C2B11420   8.508  35.721   8.274
  591POPC   C3B11421   8.332  35.779   7.857
  591POPC   C4B11422   8.331  35.773   7.390
  592POPC   NC311423  16.013  26.448   9.394
  592POPC   PO411424  15.729  25.799   9.418
  592POPC   GL111425  15.803  26.037   9.082
  592POPC   GL211426  16.135  26.042   9.072
  592POPC   C1A11427  15.641  26.067   8.683
  592POPC   D2A11428  15.747  25.946   8.244
  592POPC   C3A11429  16.025  26.110   7.920
  592POPC   C4A11430  15.896  26.085   7.482
  592POPC   C1B11431  16.132  25.900   8.619
  592POPC   C2B11432  16.251  25.732   8.181
  592POPC   C3B11433  16.414  25.811   7.741
  592POPC   C4B11434  16.256  25.810   7.294
  593POPC   NC311435  37.428  18.010   9.440
  593POPC   PO411436  38.028  18.142   9.542
  593POPC   GL111437  37.847  18.234   9.117
  593POPC   GL211438  37.476  18.296   9.020
  593POPC   C1A11439  37.923  18.209   8.669
  593POPC   D2A11440  37.843  18.450   8.313
  593POPC   C3A11441  37.858  18.278   7.925
  593POPC   C4A11442  37.537  18.301   7.621
  593POPC   C1B11443  37.467  17.958   8.718
  593POPC   C2B11444  37.632  17.945   8.278
  593POPC   C3B11445  37.367  17.889   7.897
  593POPC   C4B11446  37.335  17.868   7.441
  594POPC   NC311447  22.757  27.133   9.609
  594POPC   PO411448  22.713  27.746   9.385
  594POPC   GL111449  23.101  27.479   9.231
  594POPC   GL211450  22.850  27.268   9.112
  594POPC   C1A11451  23.276  27.194   8.858
  594POPC   D2A11452  23.223  27.258   8.397
  594POPC   C3A11453  23.203  27.668   8.143
  594POPC   C4A11454  22.915  27.799   7.829
  594POPC   C1B11455  22.920  27.554   8.733
  594POPC   C2B11456  22.747  27.550   8.309
  594POPC   C3B11457  22.672  27.360   7.908
  594POPC   C4B11458  22.844  27.423   7.484
  595POPC   NC311459   2.628  18.877   9.411
  595POPC   PO411460   2.480  19.427   9.676
  595POPC   GL111461   2.778  19.258   9.169
  595POPC   GL211462   2.992  18.974   9.065
  595POPC   C1A11463   2.655  19.165   8.712
  595POPC   D2A11464   2.790  19.045   8.283
  595POPC   C3A11465   2.847  19.364   7.971
  595POPC   C4A11466   2.826  19.495   7.554
  595POPC   C1B11467   2.919  18.726   8.688
  595POPC   C2B11468   2.671  18.555   8.348
  595POPC   C3B11469   2.656  18.651   7.896
  595POPC   C4B11470   2.772  18.986   7.549
  596POPC   NC311471  29.722  27.820   9.614
  596POPC   PO411472  29.654  28.488   9.569
  596POPC   GL111473  29.733  28.489   9.175
  596POPC   GL211474  29.858  28.162   9.192
  596POPC   C1A11475  29.718  28.698   8.770
  596POPC   D2A11476  29.996  28.617   8.430
  596POPC   C3A11477  29.785  28.637   8.016
  596POPC   C4A11478  29.819  28.373   7.649
  596POPC   C1B11479  30.059  28.305   8.833
  596POPC   C2B11480  30.165  28.137   8.447
  596POPC   C3B11481  30.138  28.259   8.026
  596POPC   C4B11482  30.275  28.128   7.602
  597POPC   NC311483  23.121  28.018   9.318
  597POPC   PO411484  22.608  28.433   9.582
  597POPC   GL111485  22.705  28.297   9.152
  597POPC   GL211486  22.793  28.641   9.130
  597POPC   C1A11487  22.903  28.143   8.717
  597POPC   D2A11488  22.830  28.061   8.257
  597POPC   C3A11489  23.109  28.247   7.925
  597POPC   C4A11490  23.193  28.669   7.832
  597POPC   C1B11491  22.877  28.655   8.701
  597POPC   C2B11492  22.983  28.556   8.317
  597POPC   C3B11493  22.713  28.572   7.972
  597POPC   C4B11494  22.534  28.234   7.819
  598POPC   NC311495  20.006  16.992   9.308
  598POPC   PO411496  19.692  16.484   9.607
  598POPC   GL111497  19.590  16.624   9.148
  598POPC   GL211498  19.508  17.000   9.171
  598POPC   C1A11499  19.659  16.593   8.659
  598POPC   D2A11500  19.675  16.400   8.229
  598POPC   C3A11501  19.759  16.654   7.867
  598POPC   C4A11502  20.028  16.593   7.473
  598POPC   C1B11503  19.618  17.112   8.760
  598POPC   C2B11504  19.718  16.981   8.328
  598POPC   C3B11505  19.640  17.139   7.938
  598POPC   C4B11506  19.737  17.016   7.506
  599POPC   NC311507   6.219  41.864   9.548
  599POPC   PO411508   5.674  41.432   9.448
  599POPC   GL111509   5.705  41.699   9.116
  599POPC   GL211510   6.048  41.635   9.113
  599POPC   C1A11511   5.687  41.569   8.694
  599POPC   D2A11512   5.702  41.356   8.317
  599POPC   C3A11513   5.755  41.620   7.959
  599POPC   C4A11514   5.629  41.819   7.558
  599POPC   C1B11515   6.178  41.463   8.739
  599POPC   C2B11516   6.096  41.660   8.381
  599POPC   C3B11517   6.241  41.499   8.051
  599POPC   C4B11518   6.448  41.648   7.775
  600POPC   NC311519  32.782  28.085   9.908
  600POPC   PO411520  33.341  28.410   9.615
  600POPC   GL111521  33.314  28.400   9.195
  600POPC   GL211522  32.995  28.252   9.152
  600POPC   C1A11523  33.350  28.159   8.807
  600POPC   D2A11524  33.313  28.353   8.402
  600POPC   C3A11525  33.245  28.101   8.054
  600POPC   C4A11526  33.039  28.267   7.724
  600POPC   C1B11527  32.876  28.338   8.692
  600POPC   C2B11528  32.763  28.246   8.227
  600POPC   C3B11529  32.543  28.241   7.805
  600POPC   C4B11530  32.671  28.051   7.403
  601POPC   NC311531  36.796  14.196   9.565
  601POPC   PO411532  36.404  14.657   9.331
  601POPC   GL111533  36.674  14.407   9.095
  601POPC   GL211534  37.011  14.462   9.107
  601POPC   C1A11535  36.697  14.424   8.666
  601POPC   D2A11536  36.638  14.509   8.233
  601POPC   C3A11537  36.940  14.221   8.049
  601POPC   C4A11538  36.851  14.150   7.650
  601POPC   C1B11539  37.047  14.789   8.778
  601POPC   C2B11540  37.117  14.626   8.354
  601POPC   C3B11541  37.013  14.714   7.903
  601POPC   C4B11542  37.012  14.580   7.443
  602POPC   NC311543  38.526  11.918   9.558
  602POPC   PO411544  38.086  12.327   9.426
  602POPC   GL111545  38.412  12.324   9.094
  602POPC   GL211546  38.574  12.001   9.052
  602POPC   C1A11547  38.526  12.350   8.642
  602POPC   D2A11548  38.609  12.123   8.227
  602POPC   C3A11549  38.393  12.217   7.838
  602POPC   C4A11550  38.393  12.444   7.470
  602POPC   C1B11551  38.322  11.856   8.714
  602POPC   C2B11552  38.378  11.655   8.340
  602POPC   C3B11553  38.373  11.724   7.944
  602POPC   C4B11554  38.691  11.821   7.662
  603POPC   NC311555  28.893  18.818   9.308
  603POPC   PO411556  28.348  18.438   9.542
  603POPC   GL111557  28.350  18.387   9.114
  603POPC   GL211558  28.698  18.321   9.108
  603POPC   C1A11559  28.427  18.350   8.657
  603POPC   D2A11560  28.215  18.101   8.342
  603POPC   C3A11561  28.177  18.248   7.916
  603POPC   C4A11562  28.064  18.208   7.471
  603POPC   C1B11563  28.931  18.485   8.739
  603POPC   C2B11564  28.813  18.524   8.326
  603POPC   C3B11565  28.697  18.758   7.981
  603POPC   C4B11566  28.412  18.648   7.703
  604POPC   NC311567  25.812  42.911   9.626
  604POPC   PO411568  26.282  43.323   9.421
  604POPC   GL111569  26.224  43.255   9.030
  604POPC   GL211570  25.901  43.081   9.041
  604POPC   C1A11571  26.144  43.330   8.626
  604POPC   D2A11572  25.889  43.234   8.308
  604POPC   C3A11573  26.221  43.251   8.031
  604POPC   C4A11574  26.106  43.383   7.651
  604POPC   C1B11575  26.096  42.833   8.685
  604POPC   C2B11576  26.092  42.776   8.224
  604POPC   C3B11577  25.874  42.923   7.846
  604POPC   C4B11578  25.765  43.056   7.402
  605POPC   NC311579  31.444  39.748   9.642
  605POPC   PO411580  31.185  39.057   9.658
  605POPC   GL111581  31.418  39.157   9.267
  605POPC   GL211582  31.322  39.487   9.206
  605POPC   C1A11583  31.403  39.106   8.815
  605POPC   D2A11584  31.644  39.293   8.459
  605POPC   C3A11585  31.702  39.117   8.051
  605POPC   C4A11586  31.522  39.120   7.644
  605POPC   C1B11587  31.348  39.610   8.756
  605POPC   C2B11588  31.465  39.757   8.339
  605POPC   C3B11589  31.389  39.550   7.939
  605POPC   C4B11590  31.314  39.559   7.479
  606POPC   NC311591  11.601  24.771   9.757
  606POPC   PO411592  11.960  24.182   9.560
  606POPC   GL111593  12.007  24.224   9.134
  606POPC   GL211594  12.271  24.479   9.063
  606POPC   C1A11595  11.894  24.335   8.711
  606POPC   D2A11596  12.034  24.676   8.451
  606POPC   C3A11597  12.215  24.560   8.068
  606POPC   C4A11598  12.048  24.358   7.717
  606POPC   C1B11599  12.350  24.105   8.784
  606POPC   C2B11600  12.460  24.057   8.352
  606POPC   C3B11601  12.394  24.029   7.894
  606POPC   C4B11602  12.462  24.125   7.451
  607POPC   NC311603   2.548   9.244   9.629
  607POPC   PO411604   2.449   8.637   9.411
  607POPC   GL111605   2.739   8.887   9.146
  607POPC   GL211606   2.683   9.213   9.080
  607POPC   C1A11607   2.966   8.968   8.736
  607POPC   D2A11608   2.771   8.861   8.353
  607POPC   C3A11609   2.987   8.854   7.992
  607POPC   C4A11610   2.826   8.842   7.587
  607POPC   C1B11611   2.725   9.423   8.665
  607POPC   C2B11612   2.836   9.351   8.231
  607POPC   C3B11613   2.898   9.310   7.793
  607POPC   C4B11614   3.003   9.264   7.339
  608POPC   NC311615  28.259  10.883   9.732
  608POPC   PO411616  27.975  11.513   9.603
  608POPC   GL111617  28.124  11.566   9.175
  608POPC   GL211618  28.463  11.648   9.164
  608POPC   C1A11619  28.181  11.347   8.777
  608POPC   D2A11620  28.183  11.147   8.413
  608POPC   C3A11621  28.088  11.449   8.124
  608POPC   C4A11622  28.317  11.309   7.813
  608POPC   C1B11623  28.611  11.594   8.741
  608POPC   C2B11624  28.594  11.410   8.313
  608POPC   C3B11625  28.649  11.655   7.914
  608POPC   C4B11626  28.404  11.720   7.533
  609POPC   NC311627  33.551  29.814   9.741
  609POPC   PO411628  34.192  30.145   9.682
  609POPC   GL111629  33.919  30.030   9.284
  609POPC   GL211630  33.775  29.681   9.256
  609POPC   C1A11631  33.806  29.989   8.806
  609POPC   D2A11632  33.486  29.782   8.494
  609POPC   C3A11633  33.620  29.702   8.067
  609POPC   C4A11634  33.788  29.958   7.725
  609POPC   C1B11635  33.755  29.499   8.837
  609POPC   C2B11636  33.945  29.562   8.433
  609POPC   C3B11637  33.995  29.374   8.007
  609POPC   C4B11638  33.805  29.445   7.644
  610POPC   NC311639  18.783  24.736   9.482
  610POPC   PO411640  19.399  24.424   9.474
  610POPC   GL111641  19.096  24.497   9.160
  610POPC   GL211642  18.845  24.260   9.186
  610POPC   C1A11643  18.844  24.572   8.779
  610POPC   D2A11644  19.020  24.725   8.418
  610POPC   C3A11645  18.856  24.642   8.020
  610POPC   C4A11646  19.032  24.725   7.636
  610POPC   C1B11647  19.130  24.143   8.790
  610POPC   C2B11648  18.976  24.224   8.369
  610POPC   C3B11649  19.079  24.164   7.944
  610POPC   C4B11650  18.736  24.256   7.688
  611POPC   NC311651   7.808  39.715   9.614
  611POPC   PO411652   7.190  40.049   9.468
  611POPC   GL111653   7.440  39.935   9.152
  611POPC   GL211654   7.177  39.753   9.017
  611POPC   C1A11655   7.584  39.864   8.730
  611POPC   D2A11656   7.600  40.166   8.374
  611POPC   C3A11657   7.614  40.014   7.969
  611POPC   C4A11658   7.520  39.599   7.874
  611POPC   C1B11659   7.086  40.053   8.739
  611POPC   C2B11660   7.079  40.216   8.334
  611POPC   C3B11661   7.094  39.912   7.979
  611POPC   C4B11662   7.255  39.945   7.557
  612POPC   NC311663  27.002  16.318   9.403
  612POPC   PO411664  27.183  15.728   9.699
  612POPC   GL111665  26.957  15.800   9.251
  612POPC   GL211666  26.594  15.929   9.234
  612POPC   C1A11667  27.042  16.040   8.826
  612POPC   D2A11668  26.848  16.289   8.479
  612POPC   C3A11669  26.986  16.142   8.059
  612POPC   C4A11670  26.883  16.144   7.612
  612POPC   C1B11671  26.620  15.764   8.810
  612POPC   C2B11672  26.780  15.744   8.364
  612POPC   C3B11673  26.593  15.852   7.938
  612POPC   C4B11674  26.594  15.532   7.664
  613POPC   NC311675  41.850  22.007   9.439
  613POPC   PO411676  41.264  22.367   9.280
  613POPC   GL111677  41.304  22.065   9.019
  613POPC   GL211678  41.638  22.094   8.986
  613POPC   C1A11679  41.312  22.160   8.585
  613POPC   D2A11680  41.381  22.057   8.161
  613POPC   C3A11681  41.610  22.381   7.953
  613POPC   C4A11682  41.676  22.402   7.525
  613POPC   C1B11683  41.629  21.764   8.703
  613POPC   C2B11684  41.913  21.611   8.417
  613POPC   C3B11685  41.724  21.686   8.077
  613POPC   C4B11686  41.644  21.919   7.740
  614POPC   NC311687  41.762  13.446   9.680
  614POPC   PO411688  41.408  13.841   9.337
  614POPC   GL111689  41.499  13.550   9.061
  614POPC   GL211690  41.778  13.375   9.175
  614POPC   C1A11691  41.686  13.691   8.672
  614POPC   D2A11692  42.019  13.647   8.397
  614POPC   C3A11693  41.787  13.693   8.053
  614POPC   C4A11694  41.723  13.849   7.682
  614POPC   C1B11695  41.741  13.186   8.771
  614POPC   C2B11696  41.687  13.260   8.357
  614POPC   C3B11697  41.642  13.177   7.929
  614POPC   C4B11698  41.725  13.366   7.524
  615POPC   NC311699  41.392  28.137   9.354
  615POPC   PO411700  40.722  28.328   9.543
  615POPC   GL111701  40.554  28.432   9.164
  615POPC   GL211702  40.895  28.516   9.036
  615POPC   C1A11703  40.514  28.346   8.756
  615POPC   D2A11704  40.690  28.543   8.441
  615POPC   C3A11705  40.569  28.411   8.050
  615POPC   C4A11706  40.811  28.427   7.687
  615POPC   C1B11707  41.167  28.543   8.664
  615POPC   C2B11708  41.139  28.375   8.239
  615POPC   C3B11709  41.257  28.625   7.910
  615POPC   C4B11710  41.132  28.805   7.562
  616POPC   NC311711   0.186  27.319   9.369
  616POPC   PO411712  44.425  27.564   9.497
  616POPC   GL111713  44.682  27.512   9.157
  616POPC   GL211714  44.944  27.720   9.143
  616POPC   C1A11715  44.738  27.447   8.730
  616POPC   D2A11716  44.610  27.675   8.377
  616POPC   C3A11717  44.697  27.412   8.042
  616POPC   C4A11718  44.844  27.446   7.667
  616POPC   C1B11719  44.865  27.925   8.784
  616POPC   C2B11720   0.086  27.953   8.405
  616POPC   C3B11721  44.888  27.906   8.016
  616POPC   C4B11722  44.987  27.918   7.626
  617POPC   NC311723  17.636  15.495   9.602
  617POPC   PO411724  17.075  15.180   9.302
  617POPC   GL111725  17.371  15.052   9.058
  617POPC   GL211726  17.644  15.276   9.090
  617POPC   C1A11727  17.405  14.969   8.635
  617POPC   D2A11728  17.612  15.134   8.290
  617POPC   C3A11729  17.303  15.170   8.002
  617POPC   C4A11730  17.035  14.947   7.723
  617POPC   C1B11731  17.690  15.486   8.677
  617POPC   C2B11732  17.555  15.673   8.269
  617POPC   C3B11733  17.419  15.635   7.828
  617POPC   C4B11734  17.445  15.300   7.528
  618POPC   NC311735  40.469  14.819   9.780
  618POPC   PO411736  40.599  14.265   9.358
  618POPC   GL111737  40.779  14.440   9.051
  618POPC   GL211738  40.975  14.672   9.240
  618POPC   C1A11739  40.675  14.531   8.627
  618POPC   D2A11740  40.692  14.659   8.172
  618POPC   C3A11741  40.703  14.318   7.815
  618POPC   C4A11742  40.763  14.231   7.342
  618POPC   C1B11743  41.148  14.702   8.806
  618POPC   C2B11744  41.272  14.660   8.358
  618POPC   C3B11745  41.148  14.552   7.926
  618POPC   C4B11746  40.961  14.700   7.527
  619POPC   NC311747  26.288   6.956   9.351
  619POPC   PO411748  25.835   6.487   9.469
  619POPC   GL111749  25.980   6.365   9.071
  619POPC   GL211750  26.046   6.705   8.999
  619POPC   C1A11751  25.810   6.451   8.652
  619POPC   D2A11752  25.933   6.692   8.329
  619POPC   C3A11753  25.708   6.548   7.992
  619POPC   C4A11754  25.782   6.754   7.652
  619POPC   C1B11755  26.346   6.600   8.686
  619POPC   C2B11756  26.474   6.795   8.296
  619POPC   C3B11757  26.250   6.743   7.899
  619POPC   C4B11758  26.260   6.611   7.462
  620POPC   NC311759   0.583  42.598   9.371
  620POPC   PO411760   0.183  42.008   9.427
  620POPC   GL111761   0.249  42.331   9.096
  620POPC   GL211762   0.611  42.284   8.957
  620POPC   C1A11763   0.271  42.531   8.695
  620POPC   D2A11764   0.497  42.405   8.327
  620POPC   C3A11765   0.249  42.355   7.961
  620POPC   C4A11766   0.233  42.507   7.563
  620POPC   C1B11767   0.768  42.653   8.713
  620POPC   C2B11768   0.801  42.821   8.262
  620POPC   C3B11769   0.759  42.536   7.887
  620POPC   C4B11770   0.744  42.079   7.819
  621POPC   NC311771  28.827   2.014   9.425
  621POPC   PO411772  29.460   2.293   9.466
  621POPC   GL111773  29.293   2.040   9.150
  621POPC   GL211774  29.492   1.725   9.037
  621POPC   C1A11775  29.093   2.179   8.764
  621POPC   D2A11776  29.018   1.999   8.377
  621POPC   C3A11777  28.968   2.229   8.027
  621POPC   C4A11778  29.187   2.122   7.676
  621POPC   C1B11779  29.100   1.673   8.793
  621POPC   C2B11780  29.021   1.499   8.382
  621POPC   C3B11781  29.140   1.555   7.953
  621POPC   C4B11782  29.031   1.660   7.527
  622POPC   NC311783   9.458  10.480   9.431
  622POPC   PO411784   8.857  10.801   9.395
  622POPC   GL111785   8.953  10.707   9.044
  622POPC   GL211786   9.021  10.372   9.104
  622POPC   C1A11787   8.760  10.722   8.658
  622POPC   D2A11788   8.823  10.482   8.310
  622POPC   C3A11789   8.822  10.762   7.981
  622POPC   C4A11790   8.624  10.855   7.625
  622POPC   C1B11791   9.132  10.351   8.707
  622POPC   C2B11792   9.395  10.505   8.377
  622POPC   C3B11793   9.224  10.453   7.992
  622POPC   C4B11794   8.876  10.202   7.858
  623POPC   NC311795  27.336  18.902   9.381
  623POPC   PO411796  27.895  19.284   9.513
  623POPC   GL111797  27.729  19.400   9.105
  623POPC   GL211798  27.384  19.341   9.097
  623POPC   C1A11799  27.778  19.253   8.686
  623POPC   D2A11800  27.968  19.062   8.353
  623POPC   C3A11801  27.799  19.236   8.025
  623POPC   C4A11802  27.590  19.379   7.671
  623POPC   C1B11803  27.340  19.018   8.761
  623POPC   C2B11804  27.477  18.908   8.362
  623POPC   C3B11805  27.348  19.022   7.975
  623POPC   C4B11806  27.531  18.855   7.649
  624POPC   NC311807  44.431  44.086   9.713
  624POPC   PO411808  43.778  44.170   9.571
  624POPC   GL111809  43.817  43.955   9.165
  624POPC   GL211810  43.997  43.634   9.228
  624POPC   C1A11811  43.653  43.836   8.748
  624POPC   D2A11812  43.582  43.682   8.318
  624POPC   C3A11813  43.570  43.853   7.881
  624POPC   C4A11814  43.537  43.679   7.442
  624POPC   C1B11815  44.179  43.764   8.845
  624POPC   C2B11816  44.068  43.877   8.452
  624POPC   C3B11817  44.041  43.630   8.081
  624POPC   C4B11818  44.024  43.737   7.659
  625POPC   NC311819  37.748   4.782   9.592
  625POPC   PO411820  37.777   5.369   9.780
  625POPC   GL111821  37.716   5.294   9.328
  625POPC   GL211822  37.484   5.012   9.200
  625POPC   C1A11823  37.784   5.283   8.877
  625POPC   D2A11824  37.989   4.994   8.625
  625POPC   C3A11825  37.872   5.028   8.208
  625POPC   C4A11826  37.956   5.053   7.799
  625POPC   C1B11827  37.507   4.772   8.795
  625POPC   C2B11828  37.486   4.691   8.320
  625POPC   C3B11829  37.500   4.813   7.859
  625POPC   C4B11830  37.393   4.646   7.442
  626POPC   NC311831   1.617  18.613   9.445
  626POPC   PO411832   2.265  18.614   9.484
  626POPC   GL111833   2.164  18.251   9.195
  626POPC   GL211834   1.809  18.189   9.186
  626POPC   C1A11835   2.100  18.061   8.787
  626POPC   D2A11836   2.147  18.325   8.456
  626POPC   C3A11837   2.076  18.260   8.074
  626POPC   C4A11838   2.243  18.342   7.677
  626POPC   C1B11839   1.774  18.453   8.812
  626POPC   C2B11840   1.698  18.556   8.378
  626POPC   C3B11841   1.570  18.285   8.033
  626POPC   C4B11842   1.792  18.124   7.685
  627POPC   NC311843   4.606   8.899   9.684
  627POPC   PO411844   5.247   9.021   9.571
  627POPC   GL111845   5.100   9.026   9.170
  627POPC   GL211846   5.291   8.776   9.049
  627POPC   C1A11847   5.253   9.198   8.781
  627POPC   D2A11848   5.472   9.134   8.381
  627POPC   C3A11849   5.163   9.133   8.039
  627POPC   C4A11850   5.005   9.035   7.647
  627POPC   C1B11851   5.408   8.628   8.657
  627POPC   C2B11852   5.202   8.669   8.275
  627POPC   C3B11853   5.375   8.668   7.885
  627POPC   C4B11854   5.522   8.464   7.503
  628POPC   NC311855  43.194  31.117   9.484
  628POPC   PO411856  42.809  30.578   9.521
  628POPC   GL111857  42.962  30.777   9.140
  628POPC   GL211858  43.322  30.816   9.107
  628POPC   C1A11859  43.004  30.799   8.697
  628POPC   D2A11860  42.860  30.572   8.344
  628POPC   C3A11861  43.068  30.699   7.980
  628POPC   C4A11862  43.002  31.047   7.763
  628POPC   C1B11863  43.387  30.501   8.813
  628POPC   C2B11864  43.407  30.629   8.418
  628POPC   C3B11865  43.564  30.804   8.089
  628POPC   C4B11866  43.541  30.521   7.774
  629POPC   NC311867  41.196   4.411   9.358
  629POPC   PO411868  40.553   4.539   9.577
  629POPC   GL111869  40.707   4.293   9.212
  629POPC   GL211870  40.920   3.996   9.231
  629POPC   C1A11871  40.843   4.460   8.812
  629POPC   D2A11872  41.010   4.789   8.545
  629POPC   C3A11873  41.022   4.642   8.129
  629POPC   C4A11874  41.200   4.422   7.772
  629POPC   C1B11875  40.773   3.960   8.816
  629POPC   C2B11876  40.890   4.122   8.428
  629POPC   C3B11877  41.039   4.000   8.054
  629POPC   C4B11878  40.871   4.046   7.679
  630POPC   NC311879  19.653  35.989  10.196
  630POPC   PO411880  19.986  35.983   9.596
  630POPC   GL111881  19.870  36.060   9.183
  630POPC   GL211882  19.525  36.148   9.111
  630POPC   C1A11883  20.102  35.938   8.816
  630POPC   D2A11884  20.240  36.034   8.418
  630POPC   C3A11885  20.055  36.030   8.044
  630POPC   C4A11886  20.091  36.362   7.805
  630POPC   C1B11887  19.737  36.332   8.758
  630POPC   C2B11888  19.820  36.405   8.328
  630POPC   C3B11889  19.586  36.265   7.961
  630POPC   C4B11890  19.320  36.179   7.582
  631POPC   NC311891   1.210  38.806   9.443
  631POPC   PO411892   1.082  39.459   9.486
  631POPC   GL111893   1.313  39.392   9.087
  631POPC   GL211894   1.382  39.079   9.066
  631POPC   C1A11895   1.223  39.239   8.634
  631POPC   D2A11896   0.961  38.983   8.397
  631POPC   C3A11897   1.019  39.192   8.042
  631POPC   C4A11898   1.282  39.443   7.759
  631POPC   C1B11899   1.625  38.910   8.762
  631POPC   C2B11900   1.451  38.766   8.363
  631POPC   C3B11901   1.435  38.880   7.915
  631POPC   C4B11902   1.573  38.666   7.534
  632POPC   NC311903  36.335  44.358   9.368
  632POPC   PO411904  35.827  44.824   9.427
  632POPC   GL111905  36.096  44.758   9.092
  632POPC   GL211906  36.023  44.403   8.989
  632POPC   C1A11907  36.173  44.777   8.651
  632POPC   D2A11908  36.165  44.626   8.233
  632POPC   C3A11909  35.941  44.934   7.926
  632POPC   C4A11910  35.767   0.106   7.512
  632POPC   C1B11911  36.251  44.212   8.688
  632POPC   C2B11912  36.065  44.085   8.312
  632POPC   C3B11913  35.833  44.300   8.018
  632POPC   C4B11914  36.120  44.505   7.730
  633POPC   NC311915  36.622  18.596   9.357
  633POPC   PO411916  36.972  18.036   9.450
  633POPC   GL111917  36.938  18.257   9.088
  633POPC   GL211918  37.051  18.608   9.053
  633POPC   C1A11919  37.013  18.193   8.684
  633POPC   D2A11920  36.842  18.032   8.329
  633POPC   C3A11921  36.980  18.217   7.924
  633POPC   C4A11922  36.739  18.282   7.549
  633POPC   C1B11923  36.740  18.623   8.717
  633POPC   C2B11924  36.764  18.539   8.284
  633POPC   C3B11925  36.698  18.662   7.872
  633POPC   C4B11926  37.115  18.680   7.658
  634POPC   NC311927  22.184  18.578   9.697
  634POPC   PO411928  21.812  18.028   9.439
  634POPC   GL111929  22.025  18.076   9.073
  634POPC   GL211930  22.323  18.221   9.138
  634POPC   C1A11931  21.982  18.323   8.699
  634POPC   D2A11932  21.915  18.210   8.294
  634POPC   C3A11933  22.181  18.047   8.015
  634POPC   C4A11934  22.067  18.296   7.665
  634POPC   C1B11935  22.473  18.423   8.733
  634POPC   C2B11936  22.395  18.365   8.357
  634POPC   C3B11937  22.291  18.569   8.016
  634POPC   C4B11938  22.418  18.738   7.634
  635POPC   NC311939   0.998   8.058   9.218
  635POPC   PO411940   1.451   8.571   9.421
  635POPC   GL111941   1.438   8.286   9.090
  635POPC   GL211942   1.128   8.491   9.003
  635POPC   C1A11943   1.321   8.153   8.651
  635POPC   D2A11944   1.015   8.030   8.299
  635POPC   C3A11945   1.243   7.949   7.915
  635POPC   C4A11946   1.552   7.735   7.698
  635POPC   C1B11947   0.833   8.437   8.651
  635POPC   C2B11948   0.827   8.489   8.178
  635POPC   C3B11949   1.035   8.400   7.788
  635POPC   C4B11950   1.411   8.521   7.555
  636POPC   NC311951  13.933  14.169   9.467
  636POPC   PO411952  14.592  14.379   9.694
  636POPC   GL111953  14.499  14.448   9.241
  636POPC   GL211954  14.133  14.454   9.101
  636POPC   C1A11955  14.533  14.269   8.792
  636POPC   D2A11956  14.795  14.305   8.429
  636POPC   C3A11957  14.622  14.140   8.036
  636POPC   C4A11958  14.439  14.347   7.687
  636POPC   C1B11959  14.033  14.395   8.687
  636POPC   C2B11960  14.148  14.301   8.275
  636POPC   C3B11961  13.987  14.453   7.870
  636POPC   C4B11962  14.038  14.427   7.395
  637POPC   NC311963  39.083  26.644   9.584
  637POPC   PO411964  39.650  27.051   9.509
  637POPC   GL111965  39.317  27.056   9.185
  637POPC   GL211966  39.164  26.731   9.093
  637POPC   C1A11967  39.250  27.235   8.760
  637POPC   D2A11968  39.368  27.184   8.300
  637POPC   C3A11969  39.107  26.986   7.975
  637POPC   C4A11970  38.843  26.660   7.775
  637POPC   C1B11971  39.164  26.750   8.654
  637POPC   C2B11972  39.020  26.600   8.288
  637POPC   C3B11973  39.295  26.491   7.959
  637POPC   C4B11974  39.554  26.245   7.710
  638POPC   NC311975  44.744  26.511   9.649
  638POPC   PO411976  44.775  27.192   9.551
  638POPC   GL111977  44.650  26.896   9.224
  638POPC   GL211978  44.872  27.061   9.050
  638POPC   C1A11979  44.667  26.697   8.772
  638POPC   D2A11980  44.484  26.684   8.352
  638POPC   C3A11981  44.519  26.913   7.968
  638POPC   C4A11982  44.603  26.578   7.727
  638POPC   C1B11983   0.104  27.074   8.735
  638POPC   C2B11984   0.008  26.923   8.364
  638POPC   C3B11985   0.035  27.037   7.972
  638POPC   C4B11986  44.898  26.947   7.602
  639POPC   NC311987  18.094  43.710   9.453
  639POPC   PO411988  18.724  43.797   9.356
  639POPC   GL111989  18.375  44.012   9.128
  639POPC   GL211990  18.010  44.165   9.144
  639POPC   C1A11991  18.399  44.145   8.727
  639POPC   D2A11992  18.153  44.191   8.348
  639POPC   C3A11993  18.372  44.125   7.988
  639POPC   C4A11994  18.391  43.799   7.705
  639POPC   C1B11995  17.953  43.900   8.813
  639POPC   C2B11996  17.750  43.901   8.452
  639POPC   C3B11997  17.942  43.772   8.069
  639POPC   C4B11998  17.921  44.039   7.745
  640POPC   NC311999   3.589  31.065   9.363
  640POPC   PO412000   4.137  30.864   9.602
  640POPC   GL112001   3.860  30.635   9.200
  640POPC   GL212002   3.449  30.610   9.154
  640POPC   C1A12003   3.694  30.534   8.721
  640POPC   D2A12004   3.589  30.707   8.274
  640POPC   C3A12005   3.637  30.515   7.846
  640POPC   C4A12006   3.742  30.732   7.443
  640POPC   C1B12007   3.275  30.870   8.778
  640POPC   C2B12008   3.190  31.036   8.355
  640POPC   C3B12009   3.041  30.857   7.951
  640POPC   C4B12010   3.225  30.656   7.544
  641POPC   NC312011  24.569  41.040   9.257
  641POPC   PO412012  24.212  41.508   9.611
  641POPC   GL112013  24.407  41.776   9.246
  641POPC   GL212014  24.634  41.543   9.104
  641POPC   C1A12015  24.409  41.905   8.773
  641POPC   D2A12016  24.220  41.695   8.391
  641POPC   C3A12017  24.324  41.774   7.958
  641POPC   C4A12018  24.260  41.430   7.664
  641POPC   C1B12019  24.870  41.715   8.753
  641POPC   C2B12020  24.741  41.655   8.306
  641POPC   C3B12021  24.513  41.320   8.098
  641POPC   C4B12022  24.651  41.110   7.701
  642POPC   NC312023   4.071   8.399   9.416
  642POPC   PO412024   4.699   8.372   9.698
  642POPC   GL112025   4.526   8.278   9.237
  642POPC   GL212026   4.473   7.988   9.096
  642POPC   C1A12027   4.357   8.366   8.784
  642POPC   D2A12028   4.173   8.169   8.383
  642POPC   C3A12029   4.386   8.248   7.978
  642POPC   C4A12030   4.581   8.295   7.542
  642POPC   C1B12031   4.079   7.933   8.865
  642POPC   C2B12032   3.761   7.903   8.532
  642POPC   C3B12033   3.762   7.956   8.102
  642POPC   C4B12034   4.069   7.915   7.786
  643POPC   NC312035  25.899  34.699   9.570
  643POPC   PO412036  26.379  34.273   9.422
  643POPC   GL112037  26.028  34.471   9.106
  643POPC   GL212038  25.876  34.831   9.068
  643POPC   C1A12039  26.076  34.619   8.647
  643POPC   D2A12040  26.335  34.848   8.339
  643POPC   C3A12041  26.278  34.810   7.888
  643POPC   C4A12042  26.033  34.513   7.635
  643POPC   C1B12043  25.795  35.033   8.620
  643POPC   C2B12044  25.880  35.017   8.154
  643POPC   C3B12045  25.854  34.981   7.695
  643POPC   C4B12046  26.046  34.916   7.276
  644POPC   NC312047  23.900  13.890   9.300
  644POPC   PO412048  23.394  14.295   9.530
  644POPC   GL112049  23.471  14.177   9.150
  644POPC   GL212050  23.795  14.328   9.059
  644POPC   C1A12051  23.406  14.392   8.766
  644POPC   D2A12052  23.664  14.522   8.437
  644POPC   C3A12053  23.634  14.327   8.040
  644POPC   C4A12054  23.639  14.144   7.609
  644POPC   C1B12055  24.079  14.607   8.804
  644POPC   C2B12056  24.102  14.837   8.433
  644POPC   C3B12057  23.918  14.774   8.062
  644POPC   C4B12058  23.918  14.565   7.677
  645POPC   NC312059  25.769  35.707   9.456
  645POPC   PO412060  25.625  35.063   9.535
  645POPC   GL112061  25.688  35.294   9.154
  645POPC   GL212062  26.038  35.307   9.234
  645POPC   C1A12063  25.890  35.514   8.787
  645POPC   D2A12064  25.734  35.473   8.341
  645POPC   C3A12065  25.951  35.509   7.915
  645POPC   C4A12066  25.970  35.420   7.443
  645POPC   C1B12067  26.235  35.143   8.841
  645POPC   C2B12068  26.224  35.345   8.415
  645POPC   C3B12069  26.412  35.284   8.010
  645POPC   C4B12070  26.405  35.168   7.544
  646POPC   NC312071  30.256  30.465   9.602
  646POPC   PO412072  30.074  31.052   9.331
  646POPC   GL112073  30.164  30.700   9.143
  646POPC   GL212074  29.848  30.565   9.150
  646POPC   C1A12075  30.178  30.598   8.733
  646POPC   D2A12076  30.030  30.577   8.336
  646POPC   C3A12077  30.111  30.941   8.098
  646POPC   C4A12078  30.118  30.780   7.694
  646POPC   C1B12079  29.669  30.608   8.724
  646POPC   C2B12080  29.634  30.910   8.374
  646POPC   C3B12081  29.659  30.795   7.940
  646POPC   C4B12082  29.680  30.988   7.528
  647POPC   NC312083  18.781   3.159   9.328
  647POPC   PO412084  18.046   3.141   9.325
  647POPC   GL112085  18.289   2.908   9.018
  647POPC   GL212086  18.570   2.659   9.104
  647POPC   C1A12087  18.583   2.994   8.683
  647POPC   D2A12088  18.759   2.920   8.294
  647POPC   C3A12089  18.676   3.114   7.901
  647POPC   C4A12090  18.336   3.039   7.600
  647POPC   C1B12091  18.450   2.499   8.703
  647POPC   C2B12092  18.190   2.749   8.424
  647POPC   C3B12093  18.298   2.745   8.014
  647POPC   C4B12094  18.389   2.351   7.840
  648POPC   NC312095  36.358  27.023   9.464
  648POPC   PO412096  37.040  26.915   9.397
  648POPC   GL112097  36.735  27.070   9.123
  648POPC   GL212098  36.620  26.762   9.055
  648POPC   C1A12099  36.647  27.163   8.688
  648POPC   D2A12100  36.879  26.960   8.367
  648POPC   C3A12101  36.781  26.949   7.925
  648POPC   C4A12102  37.189  26.896   7.716
  648POPC   C1B12103  36.971  26.632   8.811
  648POPC   C2B12104  37.155  26.464   8.486
  648POPC   C3B12105  37.055  26.539   8.089
  648POPC   C4B12106  36.961  26.458   7.680
  649POPC   NC312107  21.350   6.428   9.264
  649POPC   PO412108  21.659   7.028   9.379
  649POPC   GL112109  21.675   6.746   9.031
  649POPC   GL212110  21.338   6.839   8.953
  649POPC   C1A12111  21.583   6.491   8.649
  649POPC   D2A12112  21.409   6.616   8.239
  649POPC   C3A12113  21.507   6.451   7.830
  649POPC   C4A12114  21.229   6.314   7.490
  649POPC   C1B12115  21.070   6.617   8.635
  649POPC   C2B12116  20.877   6.554   8.217
  649POPC   C3B12117  21.059   6.708   7.828
  649POPC   C4B12118  21.411   6.913   7.622
  650POPC   NC312119   8.968  31.621   9.575
  650POPC   PO412120   8.965  30.957   9.623
  650POPC   GL112121   9.033  31.275   9.205
  650POPC   GL212122   9.154  31.645   9.120
  650POPC   C1A12123   8.865  31.384   8.782
  650POPC   D2A12124   8.781  31.239   8.379
  650POPC   C3A12125   8.740  31.435   8.020
  650POPC   C4A12126   8.920  31.494   7.635
  650POPC   C1B12127   9.347  31.582   8.743
  650POPC   C2B12128   9.278  31.420   8.352
  650POPC   C3B12129   9.350  31.386   7.943
  650POPC   C4B12130   9.401  31.720   7.630
  651POPC   NC312131   2.921  26.379   9.377
  651POPC   PO412132   2.527  26.813   9.784
  651POPC   GL112133   2.617  26.773   9.277
  651POPC   GL212134   2.615  26.513   9.020
  651POPC   C1A12135   2.628  26.986   8.862
  651POPC   D2A12136   2.490  26.756   8.490
  651POPC   C3A12137   2.602  26.963   8.119
  651POPC   C4A12138   2.698  26.878   7.709
  651POPC   C1B12139   2.945  26.575   8.696
  651POPC   C2B12140   3.130  26.247   8.449
  651POPC   C3B12141   3.286  26.229   8.038
  651POPC   C4B12142   3.130  26.333   7.637
  652POPC   NC312143   6.845  40.399   9.526
  652POPC   PO412144   6.437  40.965   9.362
  652POPC   GL112145   6.654  40.664   9.132
  652POPC   GL212146   6.399  40.419   9.108
  652POPC   C1A12147   6.841  40.595   8.742
  652POPC   D2A12148   7.045  40.828   8.434
  652POPC   C3A12149   6.894  40.716   8.026
  652POPC   C4A12150   6.810  40.811   7.591
  652POPC   C1B12151   6.304  40.606   8.708
  652POPC   C2B12152   6.466  40.649   8.297
  652POPC   C3B12153   6.424  40.552   7.838
  652POPC   C4B12154   6.341  40.708   7.446
  653POPC   NC312155   9.900   7.682   9.790
  653POPC   PO412156   9.779   7.099   9.505
  653POPC   GL112157   9.753   7.330   9.077
  653POPC   GL212158   9.462   7.529   8.953
  653POPC   C1A12159   9.891   7.242   8.670
  653POPC   D2A12160   9.815   7.020   8.318
  653POPC   C3A12161   9.577   7.245   8.031
  653POPC   C4A12162   9.760   7.412   7.739
  653POPC   C1B12163   9.739   7.726   8.693
  653POPC   C2B12164   9.846   7.616   8.295
  653POPC   C3B12165   9.791   7.863   7.969
  653POPC   C4B12166   9.525   7.833   7.609
  654POPC   NC312167  20.654  35.038   9.299
  654POPC   PO412168  20.441  34.491   9.701
  654POPC   GL112169  20.479  34.511   9.242
  654POPC   GL212170  20.234  34.723   9.099
  654POPC   C1A12171  20.783  34.494   8.862
  654POPC   D2A12172  20.965  34.470   8.417
  654POPC   C3A12173  20.750  34.443   8.002
  654POPC   C4A12174  20.916  34.531   7.591
  654POPC   C1B12175  20.345  34.680   8.692
  654POPC   C2B12176  20.494  34.756   8.300
  654POPC   C3B12177  20.379  34.866   7.896
  654POPC   C4B12178  20.409  34.561   7.560
  655POPC   NC312179  23.680  15.606   9.455
  655POPC   PO412180  23.916  16.223   9.462
  655POPC   GL112181  23.690  16.089   9.108
  655POPC   GL212182  23.449  15.821   9.024
  655POPC   C1A12183  23.523  16.263   8.764
  655POPC   D2A12184  23.334  16.034   8.446
  655POPC   C3A12185  23.492  16.111   8.024
  655POPC   C4A12186  23.750  16.308   7.699
  655POPC   C1B12187  23.759  15.765   8.703
  655POPC   C2B12188  23.926  15.672   8.308
  655POPC   C3B12189  23.972  15.419   7.922
  655POPC   C4B12190  23.885  15.764   7.613
  656POPC   NC312191  11.237  19.868   9.607
  656POPC   PO412192  11.605  19.410   9.271
  656POPC   GL112193  11.423  19.782   9.122
  656POPC   GL212194  11.087  19.888   9.101
  656POPC   C1A12195  11.487  20.066   8.791
  656POPC   D2A12196  11.528  19.967   8.395
  656POPC   C3A12197  11.186  20.071   8.159
  656POPC   C4A12198  11.138  19.791   7.823
  656POPC   C1B12199  11.032  19.853   8.665
  656POPC   C2B12200  11.101  19.595   8.318
  656POPC   C3B12201  11.214  19.304   8.022
  656POPC   C4B12202  11.082  19.350   7.602
  657POPC   NC312203   8.685  29.842   9.479
  657POPC   PO412204   9.259  30.245   9.585
  657POPC   GL112205   9.170  30.217   9.131
  657POPC   GL212206   8.846  30.111   9.069
  657POPC   C1A12207   9.215  29.979   8.742
  657POPC   D2A12208   9.052  29.723   8.409
  657POPC   C3A12209   9.249  29.638   8.043
  657POPC   C4A12210   9.371  30.057   7.994
  657POPC   C1B12211   8.615  30.139   8.677
  657POPC   C2B12212   8.573  29.880   8.308
  657POPC   C3B12213   8.828  29.940   7.938
  657POPC   C4B12214   8.595  30.180   7.650
  658POPC   NC312215  36.533   7.626   9.377
  658POPC   PO412216  37.102   7.248   9.533
  658POPC   GL112217  36.958   7.386   9.176
  658POPC   GL212218  37.120   7.717   9.132
  658POPC   C1A12219  36.957   7.207   8.762
  658POPC   D2A12220  37.104   7.230   8.359
  658POPC   C3A12221  36.773   7.299   8.053
  658POPC   C4A12222  37.000   7.271   7.705
  658POPC   C1B12223  36.842   7.715   8.812
  658POPC   C2B12224  36.750   7.640   8.440
  658POPC   C3B12225  37.048   7.720   8.173
  658POPC   C4B12226  37.070   7.779   7.769
  659POPC   NC312227   1.421  12.723   9.594
  659POPC   PO412228   1.028  12.226   9.777
  659POPC   GL112229   0.916  12.455   9.293
  659POPC   GL212230   1.185  12.720   9.062
  659POPC   C1A12231   0.897  12.428   8.799
  659POPC   D2A12232   1.101  12.769   8.516
  659POPC   C3A12233   1.085  12.687   8.064
  659POPC   C4A12234   0.938  12.708   7.643
  659POPC   C1B12235   1.508  12.976   8.752
  659POPC   C2B12236   1.458  13.176   8.356
  659POPC   C3B12237   1.501  13.086   7.941
  659POPC   C4B12238   1.471  12.749   7.711
  660POPC   NC312239  15.335  39.260   9.573
  660POPC   PO412240  14.811  38.879   9.585
  660POPC   GL112241  14.966  39.147   9.225
  660POPC   GL212242  14.843  39.489   9.232
  660POPC   C1A12243  15.323  39.166   8.919
  660POPC   D2A12244  15.466  38.966   8.490
  660POPC   C3A12245  15.582  39.261   8.132
  660POPC   C4A12246  15.360  39.500   7.763
  660POPC   C1B12247  14.849  39.428   8.802
  660POPC   C2B12248  15.066  39.286   8.471
  660POPC   C3B12249  15.100  39.142   8.060
  660POPC   C4B12250  14.942  39.224   7.670
  661POPC   NC312251  34.755   3.543   9.498
  661POPC   PO412252  34.100   3.342   9.746
  661POPC   GL112253  34.284   3.531   9.331
  661POPC   GL212254  34.495   3.833   9.168
  661POPC   C1A12255  34.389   3.441   8.881
  661POPC   D2A12256  34.308   3.486   8.465
  661POPC   C3A12257  34.555   3.265   8.181
  661POPC   C4A12258  34.487   3.384   7.754
  661POPC   C1B12259  34.814   3.833   8.841
  661POPC   C2B12260  34.803   3.622   8.457
  661POPC   C3B12261  34.619   3.760   8.088
  661POPC   C4B12262  34.776   3.808   7.723
  662POPC   NC312263  23.782  30.797   9.521
  662POPC   PO412264  24.133  30.255   9.254
  662POPC   GL112265  23.805  30.555   9.070
  662POPC   GL212266  23.918  30.923   9.045
  662POPC   C1A12267  23.468  30.839   8.870
  662POPC   D2A12268  23.387  30.968   8.447
  662POPC   C3A12269  23.666  30.785   8.140
  662POPC   C4A12270  23.524  30.667   7.739
  662POPC   C1B12271  23.939  30.854   8.624
  662POPC   C2B12272  24.221  30.895   8.290
  662POPC   C3B12273  24.226  30.847   7.865
  662POPC   C4B12274  24.023  30.559   7.600
  663POPC   NC312275  11.618  17.402   9.531
  663POPC   PO412276  11.016  17.705   9.479
  663POPC   GL112277  11.294  17.613   9.169
  663POPC   GL212278  11.517  17.865   9.267
  663POPC   C1A12279  11.343  17.413   8.769
  663POPC   D2A12280  11.556  17.465   8.352
  663POPC   C3A12281  11.323  17.362   7.960
  663POPC   C4A12282  11.478  17.145   7.589
  663POPC   C1B12283  11.573  17.889   8.804
  663POPC   C2B12284  11.745  17.952   8.370
  663POPC   C3B12285  11.480  17.874   7.997
  663POPC   C4B12286  11.519  17.921   7.503
  664POPC   NC312287  35.132  17.747   9.533
  664POPC   PO412288  35.710  17.402   9.641
  664POPC   GL112289  35.424  17.307   9.298
  664POPC   GL212290  35.328  17.583   9.128
  664POPC   C1A12291  35.361  17.214   8.823
  664POPC   D2A12292  35.529  17.499   8.485
  664POPC   C3A12293  35.367  17.364   8.091
  664POPC   C4A12294  35.512  17.365   7.672
  664POPC   C1B12295  35.283  17.852   8.800
  664POPC   C2B12296  35.360  17.988   8.396
  664POPC   C3B12297  35.470  17.870   8.005
  664POPC   C4B12298  35.128  17.855   7.719
  665POPC   NC312299   6.983   7.728   9.530
  665POPC   PO412300   6.780   8.267   9.470
  665POPC   GL112301   6.668   8.363   9.070
  665POPC   GL212302   6.975   8.548   8.955
  665POPC   C1A12303   6.384   8.315   8.716
  665POPC   D2A12304   6.549   8.514   8.351
  665POPC   C3A12305   6.497   8.335   7.967
  665POPC   C4A12306   6.366   8.086   7.647
  665POPC   C1B12307   6.901   8.227   8.622
  665POPC   C2B12308   6.932   8.163   8.174
  665POPC   C3B12309   6.913   8.140   7.734
  665POPC   C4B12310   7.146   8.027   7.386
  666POPC   NC312311  42.447   0.744   9.491
  666POPC   PO412312  42.687   0.099   9.564
  666POPC   GL112313  42.458   0.302   9.228
  666POPC   GL212314  42.568   0.566   9.023
  666POPC   C1A12315  42.150   0.319   8.877
  666POPC   D2A12316  42.203   0.157   8.464
  666POPC   C3A12317  42.234   0.431   8.123
  666POPC   C4A12318  41.980   0.266   7.821
  666POPC   C1B12319  42.549   0.600   8.550
  666POPC   C2B12320  42.736   0.571   8.112
  666POPC   C3B12321  42.775   0.617   7.648
  666POPC   C4B12322  42.612   0.738   7.190
  667POPC   NC312323  25.621  17.389   9.309
  667POPC   PO412324  25.132  17.852   9.380
  667POPC   GL112325  25.224  17.625   9.051
  667POPC   GL212326  25.085  17.299   9.164
  667POPC   C1A12327  25.233  17.686   8.614
  667POPC   D2A12328  24.918  17.657   8.346
  667POPC   C3A12329  25.005  17.569   7.963
  667POPC   C4A12330  25.358  17.568   7.796
  667POPC   C1B12331  25.202  17.208   8.744
  667POPC   C2B12332  25.239  17.255   8.291
  667POPC   C3B12333  25.331  17.079   7.901
  667POPC   C4B12334  24.932  17.133   7.672
  668POPC   NC312335   7.903  11.615   9.992
  668POPC   PO412336   7.508  11.294   9.513
  668POPC   GL112337   7.429  11.195   9.063
  668POPC   GL212338   7.369  10.886   9.039
  668POPC   C1A12339   7.159  11.154   8.683
  668POPC   D2A12340   6.966  11.046   8.303
  668POPC   C3A12341   7.193  11.293   8.009
  668POPC   C4A12342   7.321  11.398   7.586
  668POPC   C1B12343   7.616  10.897   8.687
  668POPC   C2B12344   7.595  11.175   8.340
  668POPC   C3B12345   7.629  11.046   7.895
  668POPC   C4B12346   7.700  11.036   7.436
  669POPC   NC312347  32.460   1.609   9.384
  669POPC   PO412348  31.896   1.169   9.506
  669POPC   GL112349  32.064   1.342   9.146
  669POPC   GL212350  32.164   1.010   9.037
  669POPC   C1A12351  32.092   1.366   8.679
  669POPC   D2A12352  32.059   1.097   8.323
  669POPC   C3A12353  32.122   1.325   7.957
  669POPC   C4A12354  32.473   1.563   7.816
  669POPC   C1B12355  32.502   1.042   8.717
  669POPC   C2B12356  32.560   1.269   8.321
  669POPC   C3B12357  32.605   1.086   7.925
  669POPC   C4B12358  32.370   1.146   7.544
  670POPC   NC312359  33.101  32.709   9.806
  670POPC   PO412360  32.723  32.152   9.534
  670POPC   GL112361  32.844  31.993   9.123
  670POPC   GL212362  32.607  31.816   8.961
  670POPC   C1A12363  33.053  32.127   8.736
  670POPC   D2A12364  33.308  32.214   8.385
  670POPC   C3A12365  33.205  32.228   7.933
  670POPC   C4A12366  33.292  32.573   7.633
  670POPC   C1B12367  32.544  32.151   8.640
  670POPC   C2B12368  32.761  32.229   8.241
  670POPC   C3B12369  32.747  32.029   7.825
  670POPC   C4B12370  32.557  31.954   7.407
  671POPC   NC312371  26.358   3.787   9.357
  671POPC   PO412372  26.285   3.107   9.528
  671POPC   GL112373  26.039   3.298   9.141
  671POPC   GL212374  25.920   3.663   9.098
  671POPC   C1A12375  25.843   3.333   8.701
  671POPC   D2A12376  25.923   3.130   8.299
  671POPC   C3A12377  26.015   3.342   7.909
  671POPC   C4A12378  26.109   3.456   7.461
  671POPC   C1B12379  25.832   3.848   8.686
  671POPC   C2B12380  25.829   3.691   8.237
  671POPC   C3B12381  25.905   3.822   7.778
  671POPC   C4B12382  25.810   3.922   7.341
  672POPC   NC312383  27.475   9.137   9.498
  672POPC   PO412384  27.976   8.765   9.720
  672POPC   GL112385  27.918   9.123   9.250
  672POPC   GL212386  27.625   9.181   9.030
  672POPC   C1A12387  28.006   9.051   8.766
  672POPC   D2A12388  27.696   8.877   8.485
  672POPC   C3A12389  27.741   8.932   8.053
  672POPC   C4A12390  27.602   8.764   7.664
  672POPC   C1B12391  27.395   9.270   8.635
  672POPC   C2B12392  27.265   9.092   8.239
  672POPC   C3B12393  27.262   9.145   7.803
  672POPC   C4B12394  27.308   9.086   7.363
  673POPC   NC312395   7.463   0.145   9.448
  673POPC   PO412396   7.704   0.719   9.507
  673POPC   GL112397   7.387   0.748   9.174
  673POPC   GL212398   7.090   0.517   9.263
  673POPC   C1A12399   7.483   0.643   8.735
  673POPC   D2A12400   7.490   0.245   8.470
  673POPC   C3A12401   7.689   0.342   8.062
  673POPC   C4A12402   7.577   0.440   7.630
  673POPC   C1B12403   7.072   0.373   8.834
  673POPC   C2B12404   7.078   0.576   8.410
  673POPC   C3B12405   7.181   0.339   8.050
  673POPC   C4B12406   7.132   0.132   7.670
  674POPC   NC312407  35.617  32.749   9.424
  674POPC   PO412408  35.073  33.277   9.437
  674POPC   GL112409  35.398  33.149   9.154
  674POPC   GL212410  35.376  32.803   8.973
  674POPC   C1A12411  35.481  33.249   8.743
  674POPC   D2A12412  35.540  32.998   8.397
  674POPC   C3A12413  35.390  33.113   8.037
  674POPC   C4A12414  35.487  33.178   7.649
  674POPC   C1B12415  35.772  32.677   8.726
  674POPC   C2B12416  35.920  32.695   8.275
  674POPC   C3B12417  35.724  32.741   7.843
  674POPC   C4B12418  35.754  32.846   7.378
  675POPC   NC312419  17.634  11.783   9.448
  675POPC   PO412420  17.288  12.351   9.412
  675POPC   GL112421  17.634  12.322   9.102
  675POPC   GL212422  17.735  11.977   8.997
  675POPC   C1A12423  17.665  12.326   8.644
  675POPC   D2A12424  17.462  12.087   8.310
  675POPC   C3A12425  17.519  12.288   7.915
  675POPC   C4A12426  17.376  12.279   7.454
  675POPC   C1B12427  17.967  11.875   8.610
  675POPC   C2B12428  17.884  11.831   8.176
  675POPC   C3B12429  17.598  11.644   7.906
  675POPC   C4B12430  17.260  11.853   7.752
  676POPC   NC312431  17.387  33.561   9.443
  676POPC   PO412432  17.193  34.259   9.359
  676POPC   GL112433  17.234  33.918   9.084
  676POPC   GL212434  17.588  33.866   9.091
  676POPC   C1A12435  17.318  33.954   8.658
  676POPC   D2A12436  17.062  34.030   8.288
  676POPC   C3A12437  17.327  34.054   7.960
  676POPC   C4A12438  17.368  33.731   7.688
  676POPC   C1B12439  17.774  33.555   8.809
  676POPC   C2B12440  17.776  33.384   8.384
  676POPC   C3B12441  17.752  33.567   7.984
  676POPC   C4B12442  17.911  33.836   7.696
  677POPC   NC312443   8.355  30.411   9.555
  677POPC   PO412444   8.197  29.730   9.533
  677POPC   GL112445   8.057  29.888   9.166
  677POPC   GL212446   8.337  30.129   9.110
  677POPC   C1A12447   8.016  29.980   8.720
  677POPC   D2A12448   8.165  30.218   8.357
  677POPC   C3A12449   8.155  30.023   7.963
  677POPC   C4A12450   8.020  30.050   7.538
  677POPC   C1B12451   8.434  29.696   8.882
  677POPC   C2B12452   8.186  29.475   8.580
  677POPC   C3B12453   8.292  29.471   8.125
  677POPC   C4B12454   8.445  29.677   7.722
  678POPC   NC312455  41.578   0.233   9.400
  678POPC   PO412456  41.967   0.782   9.437
  678POPC   GL112457  41.770   0.640   9.079
  678POPC   GL212458  41.423   0.654   9.147
  678POPC   C1A12459  41.656   0.363   8.720
  678POPC   D2A12460  41.736   0.339   8.278
  678POPC   C3A12461  41.476   0.152   7.973
  678POPC   C4A12462  41.533   0.278   7.566
  678POPC   C1B12463  41.425   0.851   8.752
  678POPC   C2B12464  41.222   0.871   8.351
  678POPC   C3B12465  41.376   0.657   7.998
  678POPC   C4B12466  41.455   0.804   7.619
  679POPC   NC312467  24.418  13.415   9.570
  679POPC   PO412468  24.146  14.089   9.630
  679POPC   GL112469  24.378  13.798   9.231
  679POPC   GL212470  24.378  13.444   9.067
  679POPC   C1A12471  24.574  13.879   8.834
  679POPC   D2A12472  24.439  13.904   8.400
  679POPC   C3A12473  24.684  13.862   8.038
  679POPC   C4A12474  24.439  13.779   7.692
  679POPC   C1B12475  24.481  13.414   8.623
  679POPC   C2B12476  24.501  13.409   8.185
  679POPC   C3B12477  24.377  13.289   7.769
  679POPC   C4B12478  24.157  13.284   7.359
  680POPC   NC312479  29.256  17.383   9.455
  680POPC   PO412480  29.399  18.062   9.522
  680POPC   GL112481  29.365  17.773   9.148
  680POPC   GL212482  29.024  17.722   9.110
  680POPC   C1A12483  29.395  17.512   8.759
  680POPC   D2A12484  29.535  17.416   8.314
  680POPC   C3A12485  29.223  17.487   7.946
  680POPC   C4A12486  29.336  17.731   7.575
  680POPC   C1B12487  28.891  17.527   8.691
  680POPC   C2B12488  28.760  17.495   8.253
  680POPC   C3B12489  28.715  17.398   7.803
  680POPC   C4B12490  28.829  17.359   7.374
  681POPC   NC312491  30.737  21.162   9.508
  681POPC   PO412492  31.016  21.746   9.570
  681POPC   GL112493  30.877  21.572   9.178
  681POPC   GL212494  30.503  21.440   9.144
  681POPC   C1A12495  30.750  21.665   8.754
  681POPC   D2A12496  30.515  21.430   8.451
  681POPC   C3A12497  30.634  21.508   8.035
  681POPC   C4A12498  30.940  21.638   7.729
  681POPC   C1B12499  30.744  21.159   8.859
  681POPC   C2B12500  30.820  20.964   8.493
  681POPC   C3B12501  30.678  21.004   8.097
  681POPC   C4B12502  30.775  21.130   7.719
  682POPC   NC312503  35.688   9.114   9.439
  682POPC   PO412504  36.276   8.757   9.605
  682POPC   GL112505  36.249   9.012   9.228
  682POPC   GL212506  36.019   8.828   9.095
  682POPC   C1A12507  36.371   9.138   8.812
  682POPC   D2A12508  36.348   8.944   8.409
  682POPC   C3A12509  36.227   9.105   8.050
  682POPC   C4A12510  36.308   8.912   7.676
  682POPC   C1B12511  35.874   8.742   8.707
  682POPC   C2B12512  35.831   8.863   8.291
  682POPC   C3B12513  35.912   8.709   7.921
  682POPC   C4B12514  35.753   8.916   7.586
  683POPC   NC312515  33.168  20.985   9.515
  683POPC   PO412516  33.331  21.640   9.415
  683POPC   GL112517  33.211  21.351   9.105
  683POPC   GL212518  32.850  21.397   9.066
  683POPC   C1A12519  33.144  21.397   8.659
  683POPC   D2A12520  33.100  21.799   8.480
  683POPC   C3A12521  33.008  21.849   8.046
  683POPC   C4A12522  33.125  21.593   7.681
  683POPC   C1B12523  32.649  21.383   8.623
  683POPC   C2B12524  32.817  21.397   8.170
  683POPC   C3B12525  32.730  21.260   7.701
  683POPC   C4B12526  32.663  20.934   7.317
  684POPC   NC312527  13.330   2.337   9.640
  684POPC   PO412528  13.938   2.466   9.493
  684POPC   GL112529  13.754   2.676   9.147
  684POPC   GL212530  13.490   2.484   9.057
  684POPC   C1A12531  13.774   2.964   8.796
  684POPC   D2A12532  13.979   3.064   8.393
  684POPC   C3A12533  13.707   3.043   8.015
  684POPC   C4A12534  13.539   2.866   7.592
  684POPC   C1B12535  13.793   2.449   8.675
  684POPC   C2B12536  13.864   2.342   8.240
  684POPC   C3B12537  13.825   2.513   7.807
  684POPC   C4B12538  13.875   2.581   7.319
  685POPC   NC312539  11.164  11.348   9.755
  685POPC   PO412540  11.637  10.871   9.734
  685POPC   GL112541  11.453  11.079   9.306
  685POPC   GL212542  11.477  11.383   9.151
  685POPC   C1A12543  11.091  11.189   8.917
  685POPC   D2A12544  11.084  11.031   8.464
  685POPC   C3A12545  11.214  11.200   8.050
  685POPC   C4A12546  11.608  11.228   7.852
  685POPC   C1B12547  11.653  11.540   8.802
  685POPC   C2B12548  11.537  11.509   8.403
  685POPC   C3B12549  11.172  11.658   8.226
  685POPC   C4B12550  11.107  11.642   7.807
  686POPC   NC312551  41.168  21.933   9.504
  686POPC   PO412552  41.728  21.563   9.548
  686POPC   GL112553  41.591  21.559   9.155
  686POPC   GL212554  41.228  21.550   9.159
  686POPC   C1A12555  41.788  21.290   8.822
  686POPC   D2A12556  41.628  21.143   8.409
  686POPC   C3A12557  41.879  21.205   8.042
  686POPC   C4A12558  41.743  21.382   7.668
  686POPC   C1B12559  41.273  21.348   8.759
  686POPC   C2B12560  41.287  21.550   8.353
  686POPC   C3B12561  41.306  21.381   7.943
  686POPC   C4B12562  41.284  21.579   7.549
  687POPC   NC312563  34.478  18.051   9.667
  687POPC   PO412564  34.957  18.529   9.771
  687POPC   GL112565  34.799  18.380   9.346
  687POPC   GL212566  34.812  18.024   9.264
  687POPC   C1A12567  34.581  18.397   8.910
  687POPC   D2A12568  34.397  18.425   8.464
  687POPC   C3A12569  34.643  18.391   8.049
  687POPC   C4A12570  34.579  18.494   7.632
  687POPC   C1B12571  34.490  17.868   8.999
  687POPC   C2B12572  34.552  17.836   8.583
  687POPC   C3B12573  34.469  17.951   8.194
  687POPC   C4B12574  34.546  17.932   7.758
  688POPC   NC312575  43.134  19.262   9.427
  688POPC   PO412576  43.101  18.562   9.491
  688POPC   GL112577  43.225  18.789   9.141
  688POPC   GL212578  42.900  18.915   9.072
  688POPC   C1A12579  43.214  18.902   8.699
  688POPC   D2A12580  43.351  19.179   8.422
  688POPC   C3A12581  43.323  19.013   8.048
  688POPC   C4A12582  43.087  19.038   7.682
  688POPC   C1B12583  42.852  19.259   8.741
  688POPC   C2B12584  42.969  19.527   8.418
  688POPC   C3B12585  42.937  19.388   8.015
  688POPC   C4B12586  42.864  19.512   7.590
  689POPC   NC312587  14.620  42.010   9.514
  689POPC   PO412588  13.893  42.073   9.669
  689POPC   GL112589  14.173  42.171   9.256
  689POPC   GL212590  14.446  42.354   9.179
  689POPC   C1A12591  14.198  42.170   8.777
  689POPC   D2A12592  14.595  42.129   8.564
  689POPC   C3A12593  14.633  42.227   8.100
  689POPC   C4A12594  14.545  42.048   7.688
  689POPC   C1B12595  14.413  42.628   8.847
  689POPC   C2B12596  14.396  42.566   8.412
  689POPC   C3B12597  14.181  42.682   8.034
  689POPC   C4B12598  14.459  42.553   7.711
  690POPC   NC312599  42.302  15.350   9.501
  690POPC   PO412600  42.741  14.864   9.469
  690POPC   GL112601  42.322  14.967   9.163
  690POPC   GL212602  42.140  15.343   9.042
  690POPC   C1A12603  42.145  14.958   8.731
  690POPC   D2A12604  42.361  15.042   8.369
  690POPC   C3A12605  42.237  14.937   8.022
  690POPC   C4A12606  42.377  15.015   7.677
  690POPC   C1B12607  42.251  15.467   8.655
  690POPC   C2B12608  42.070  15.436   8.245
  690POPC   C3B12609  42.283  15.475   7.827
  690POPC   C4B12610  42.065  15.299   7.394
  691POPC   NC312611  39.534  42.854   9.587
  691POPC   PO412612  39.690  42.233   9.537
  691POPC   GL112613  39.968  42.289   9.168
  691POPC   GL212614  40.215  41.987   9.108
  691POPC   C1A12615  39.802  42.465   8.776
  691POPC   D2A12616  39.966  42.600   8.384
  691POPC   C3A12617  39.743  42.495   8.006
  691POPC   C4A12618  39.840  42.665   7.608
  691POPC   C1B12619  40.273  42.258   8.718
  691POPC   C2B12620  40.318  42.206   8.279
  691POPC   C3B12621  40.391  42.072   7.864
  691POPC   C4B12622  40.079  42.135   7.538
  692POPC   NC312623  36.776  35.539   9.399
  692POPC   PO412624  37.493  35.789   9.260
  692POPC   GL112625  37.132  35.550   9.013
  692POPC   GL212626  36.789  35.298   8.958
  692POPC   C1A12627  36.977  35.547   8.581
  692POPC   D2A12628  36.799  35.283   8.284
  692POPC   C3A12629  36.920  35.380   7.876
  692POPC   C4A12630  37.182  35.397   7.539
  692POPC   C1B12631  36.963  34.985   8.687
  692POPC   C2B12632  37.102  34.855   8.320
  692POPC   C3B12633  36.854  34.850   7.981
  692POPC   C4B12634  36.926  34.947   7.591
  693POPC   NC312635  27.331   0.622   9.473
  693POPC   PO412636  27.863   0.270   9.447
  693POPC   GL112637  27.639   0.329   9.109
  693POPC   GL212638  27.715   0.662   9.093
  693POPC   C1A12639  27.758   0.303   8.689
  693POPC   D2A12640  27.682   0.556   8.344
  693POPC   C3A12641  27.721   0.221   8.077
  693POPC   C4A12642  27.952   0.170   7.710
  693POPC   C1B12643  27.417   0.682   8.798
  693POPC   C2B12644  27.360   0.951   8.483
  693POPC   C3B12645  27.214   0.760   8.152
  693POPC   C4B12646  27.467   0.599   7.838
  694POPC   NC312647  18.135  35.659   9.496
  694POPC   PO412648  18.678  35.188   9.524
  694POPC   GL112649  18.419  35.379   9.188
  694POPC   GL212650  18.136  35.142   9.125
  694POPC   C1A12651  18.110  35.558   8.845
  694POPC   D2A12652  17.915  35.446   8.434
  694POPC   C3A12653  18.205  35.494   8.068
  694POPC   C4A12654  18.241  35.615   7.641
  694POPC   C1B12655  18.437  35.172   8.739
  694POPC   C2B12656  18.654  35.122   8.356
  694POPC   C3B12657  18.429  35.016   7.998
  694POPC   C4B12658  18.414  35.144   7.586
  695POPC   NC312659  27.845  22.357   9.420
  695POPC   PO412660  27.463  21.880   9.701
  695POPC   GL112661  27.485  22.015   9.223
  695POPC   GL212662  27.440  22.383   9.088
  695POPC   C1A12663  27.463  21.948   8.774
  695POPC   D2A12664  27.787  21.921   8.454
  695POPC   C3A12665  27.696  22.114   8.066
  695POPC   C4A12666  27.585  22.248   7.636
  695POPC   C1B12667  27.789  22.377   8.754
  695POPC   C2B12668  27.813  22.542   8.327
  695POPC   C3B12669  27.864  22.571   7.902
  695POPC   C4B12670  27.843  22.678   7.470
  696POPC   NC312671  38.385  28.796   9.483
  696POPC   PO412672  38.774  29.328   9.587
  696POPC   GL112673  38.466  29.247   9.202
  696POPC   GL212674  38.380  28.919   8.999
  696POPC   C1A12675  38.330  29.440   8.810
  696POPC   D2A12676  38.430  29.668   8.407
  696POPC   C3A12677  38.356  29.483   8.006
  696POPC   C4A12678  38.205  29.081   7.844
  696POPC   C1B12679  38.696  29.104   8.736
  696POPC   C2B12680  38.651  29.217   8.347
  696POPC   C3B12681  38.754  29.155   7.957
  696POPC   C4B12682  38.655  28.813   7.729
  697POPC   NC312683  20.020  14.366   9.664
  697POPC   PO412684  19.585  14.584   9.245
  697POPC   GL112685  19.947  14.447   9.020
  697POPC   GL212686  20.182  14.240   9.181
  697POPC   C1A12687  19.873  14.327   8.587
  697POPC   D2A12688  19.691  14.423   8.171
  697POPC   C3A12689  19.933  14.580   7.823
  697POPC   C4A12690  20.040  14.711   7.374
  697POPC   C1B12691  20.240  14.012   8.782
  697POPC   C2B12692  19.999  13.881   8.380
  697POPC   C3B12693  19.912  14.020   7.914
  697POPC   C4B12694  20.041  14.213   7.511
  698POPC   NC312695  26.335  42.085   9.416
  698POPC   PO412696  26.021  42.660   9.315
  698POPC   GL112697  26.067  42.367   9.021
  698POPC   GL212698  25.827  42.088   9.116
  698POPC   C1A12699  25.920  42.367   8.592
  698POPC   D2A12700  25.626  42.243   8.283
  698POPC   C3A12701  25.851  42.400   7.939
  698POPC   C4A12702  26.297  42.538   7.819
  698POPC   C1B12703  26.036  41.914   8.760
  698POPC   C2B12704  26.308  42.031   8.440
  698POPC   C3B12705  26.196  42.055   8.030
  698POPC   C4B12706  26.113  42.103   7.588
  699POPC   NC312707  25.797  19.066   9.744
  699POPC   PO412708  26.270  18.672   9.368
  699POPC   GL112709  26.335  18.940   8.994
  699POPC   GL212710  26.310  19.241   9.183
  699POPC   C1A12711  26.086  19.102   8.640
  699POPC   D2A12712  25.850  18.882   8.327
  699POPC   C3A12713  26.025  18.742   7.959
  699POPC   C4A12714  25.890  18.993   7.635
  699POPC   C1B12715  26.485  19.423   8.814
  699POPC   C2B12716  26.441  19.342   8.378
  699POPC   C3B12717  26.133  19.253   8.054
  699POPC   C4B12718  26.100  19.458   7.676
  700POPC   NC312719  26.425  25.378   9.418
  700POPC   PO412720  25.954  24.785   9.475
  700POPC   GL112721  25.996  25.126   9.234
  700POPC   GL212722  25.780  25.422   9.320
  700POPC   C1A12723  26.225  25.118   8.850
  700POPC   D2A12724  26.082  25.109   8.457
  700POPC   C3A12725  26.070  25.441   8.181
  700POPC   C4A12726  26.032  25.233   7.795
  700POPC   C1B12727  25.819  25.433   8.869
  700POPC   C2B12728  25.605  25.532   8.503
  700POPC   C3B12729  25.540  25.515   8.079
  700POPC   C4B12730  25.793  25.672   7.785
  701POPC   NC312731  38.516  37.482   9.712
  701POPC   PO412732  38.784  36.885   9.454
  701POPC   GL112733  38.412  36.804   9.179
  701POPC   GL212734  38.165  37.083   9.020
  701POPC   C1A12735  38.408  36.711   8.735
  701POPC   D2A12736  38.265  36.921   8.358
  701POPC   C3A12737  38.482  36.880   7.972
  701POPC   C4A12738  38.612  37.216   7.711
  701POPC   C1B12739  37.896  37.197   8.628
  701POPC   C2B12740  37.868  37.223   8.162
  701POPC   C3B12741  38.073  37.120   7.768
  701POPC   C4B12742  38.198  36.746   7.558
  702POPC   NC312743  39.564  27.510   9.445
  702POPC   PO412744  38.989  27.797   9.425
  702POPC   GL112745  39.210  27.733   9.094
  702POPC   GL212746  39.520  27.858   9.082
  702POPC   C1A12747  39.166  27.724   8.690
  702POPC   D2A12748  39.014  27.550   8.364
  702POPC   C3A12749  39.211  27.670   8.029
  702POPC   C4A12750  39.027  27.603   7.654
  702POPC   C1B12751  39.563  28.034   8.727
  702POPC   C2B12752  39.538  28.174   8.346
  702POPC   C3B12753  39.627  27.995   7.967
  702POPC   C4B12754  39.479  27.817   7.612
  703POPC   NC312755  28.460  24.762   9.502
  703POPC   PO412756  28.685  24.050   9.470
  703POPC   GL112757  28.652  24.357   9.191
  703POPC   GL212758  28.311  24.376   9.122
  703POPC   C1A12759  28.742  24.406   8.763
  703POPC   D2A12760  28.914  24.392   8.327
  703POPC   C3A12761  28.584  24.500   8.051
  703POPC   C4A12762  28.470  24.259   7.699
  703POPC   C1B12763  28.228  24.333   8.694
  703POPC   C2B12764  28.136  24.589   8.312
  703POPC   C3B12765  28.067  24.463   7.922
  703POPC   C4B12766  28.086  24.008   7.870
  704POPC   NC312767  39.508   5.549   9.418
  704POPC   PO412768  38.982   5.083   9.476
  704POPC   GL112769  39.277   5.174   9.131
  704POPC   GL212770  39.116   5.489   9.110
  704POPC   C1A12771  39.339   5.049   8.673
  704POPC   D2A12772  39.020   4.850   8.359
  704POPC   C3A12773  38.972   5.044   7.947
  704POPC   C4A12774  39.332   5.207   7.769
  704POPC   C1B12775  38.982   5.407   8.743
  704POPC   C2B12776  39.129   5.553   8.361
  704POPC   C3B12777  38.986   5.569   7.957
  704POPC   C4B12778  38.918   5.402   7.559
  705POPC   NC312779  29.428  37.540   9.328
  705POPC   PO412780  28.936  38.024   9.424
  705POPC   GL112781  28.950  37.779   9.074
  705POPC   GL212782  28.940  37.422   9.205
  705POPC   C1A12783  29.122  37.863   8.653
  705POPC   D2A12784  29.348  37.661   8.319
  705POPC   C3A12785  29.323  37.849   7.922
  705POPC   C4A12786  29.356  37.506   7.669
  705POPC   C1B12787  29.073  37.366   8.762
  705POPC   C2B12788  28.848  37.472   8.371
  705POPC   C3B12789  28.924  37.540   7.921
  705POPC   C4B12790  28.927  37.360   7.477
  706POPC   NC312791  38.617   3.966   9.583
  706POPC   PO412792  38.167   4.504   9.464
  706POPC   GL112793  38.473   4.322   9.197
  706POPC   GL212794  38.430   3.978   9.079
  706POPC   C1A12795  38.668   4.327   8.797
  706POPC   D2A12796  38.625   4.328   8.389
  706POPC   C3A12797  38.833   4.112   8.094
  706POPC   C4A12798  38.606   4.259   7.769
  706POPC   C1B12799  38.223   4.091   8.635
  706POPC   C2B12800  38.258   4.073   8.126
  706POPC   C3B12801  38.284   3.889   7.648
  706POPC   C4B12802  38.073   3.960   7.230
  707POPC   NC312803   5.431  36.808   9.704
  707POPC   PO412804   5.881  36.818   9.202
  707POPC   GL112805   5.692  36.838   8.810
  707POPC   GL212806   5.665  36.499   8.859
  707POPC   C1A12807   5.775  37.040   8.429
  707POPC   D2A12808   6.053  37.327   8.242
  707POPC   C3A12809   6.130  37.144   7.903
  707POPC   C4A12810   5.711  36.984   7.836
  707POPC   C1B12811   6.128  36.640   8.665
  707POPC   C2B12812   6.238  36.764   8.302
  707POPC   C3B12813   6.064  36.631   7.924
  707POPC   C4B12814   5.679  36.404   7.844
  708POPC   NC312815  28.181  20.421   9.291
  708POPC   PO412816  28.631  20.799   9.482
  708POPC   GL112817  28.512  20.783   9.084
  708POPC   GL212818  28.174  20.922   9.104
  708POPC   C1A12819  28.531  20.494   8.730
  708POPC   D2A12820  28.286  20.490   8.338
  708POPC   C3A12821  28.515  20.576   7.990
  708POPC   C4A12822  28.516  20.371   7.612
  708POPC   C1B12823  28.120  20.796   8.717
  708POPC   C2B12824  28.070  20.965   8.337
  708POPC   C3B12825  28.012  20.750   7.958
  708POPC   C4B12826  27.917  20.924   7.576
  709POPC   NC312827  28.224  23.913   9.433
  709POPC   PO412828  28.505  23.275   9.494
  709POPC   GL112829  28.451  23.549   9.163
  709POPC   GL212830  28.089  23.448   9.160
  709POPC   C1A12831  28.493  23.837   8.800
  709POPC   D2A12832  28.299  23.923   8.393
  709POPC   C3A12833  28.626  23.967   8.105
  709POPC   C4A12834  28.580  23.759   7.737
  709POPC   C1B12835  28.012  23.684   8.787
  709POPC   C2B12836  27.823  23.706   8.397
  709POPC   C3B12837  27.945  23.551   8.033
  709POPC   C4B12838  28.141  23.530   7.657
  710POPC   NC312839   2.353  19.858   9.536
  710POPC   PO412840   1.688  20.074   9.367
  710POPC   GL112841   2.016  19.905   9.112
  710POPC   GL212842   1.909  19.541   9.042
  710POPC   C1A12843   2.127  19.886   8.674
  710POPC   D2A12844   2.039  19.499   8.452
  710POPC   C3A12845   1.940  19.615   8.031
  710POPC   C4A12846   2.097  19.956   7.811
  710POPC   C1B12847   1.633  19.800   8.749
  710POPC   C2B12848   1.623  20.110   8.418
  710POPC   C3B12849   1.602  20.001   7.976
  710POPC   C4B12850   1.617  19.914   7.537
  711POPC   NC312851  40.739  15.698   9.404
  711POPC   PO412852  40.704  16.402   9.245
  711POPC   GL112853  40.792  16.034   9.040
  711POPC   GL212854  41.160  15.982   9.149
  711POPC   C1A12855  40.772  15.722   8.695
  711POPC   D2A12856  40.550  15.702   8.287
  711POPC   C3A12857  40.830  15.641   7.911
  711POPC   C4A12858  40.847  15.852   7.503
  711POPC   C1B12859  41.149  16.105   8.700
  711POPC   C2B12860  41.126  15.894   8.299
  711POPC   C3B12861  41.207  16.100   7.918
  711POPC   C4B12862  40.943  16.342   7.668
  712POPC   NC312863  22.489  20.080   9.317
  712POPC   PO412864  21.920  19.643   9.430
  712POPC   GL112865  22.141  19.698   9.071
  712POPC   GL212866  22.021  20.012   9.071
  712POPC   C1A12867  22.221  19.865   8.627
  712POPC   D2A12868  22.370  19.701   8.222
  712POPC   C3A12869  22.148  19.699   7.821
  712POPC   C4A12870  22.303  19.889   7.421
  712POPC   C1B12871  21.806  20.175   8.753
  712POPC   C2B12872  21.813  20.076   8.362
  712POPC   C3B12873  22.081  20.164   8.068
  712POPC   C4B12874  21.969  20.194   7.663
  713POPC   NC312875  27.251  17.906   9.407
  713POPC   PO412876  26.612  18.078   9.535
  713POPC   GL112877  26.613  18.228   9.122
  713POPC   GL212878  26.956  18.218   9.098
  713POPC   C1A12879  26.641  18.413   8.716
  713POPC   D2A12880  26.661  18.280   8.297
  713POPC   C3A12881  26.554  18.556   7.963
  713POPC   C4A12882  26.751  18.387   7.622
  713POPC   C1B12883  27.238  18.079   8.759
  713POPC   C2B12884  27.342  18.143   8.334
  713POPC   C3B12885  27.243  17.950   7.962
  713POPC   C4B12886  27.214  18.186   7.614
  714POPC   NC312887  34.123   5.345   9.329
  714POPC   PO412888  34.412   4.849   9.743
  714POPC   GL112889  34.536   4.996   9.330
  714POPC   GL212890  34.273   4.850   9.201
  714POPC   C1A12891  34.597   5.264   8.896
  714POPC   D2A12892  34.440   5.418   8.468
  714POPC   C3A12893  34.725   5.301   8.127
  714POPC   C4A12894  34.531   5.210   7.728
  714POPC   C1B12895  34.599   4.751   8.876
  714POPC   C2B12896  34.649   4.924   8.477
  714POPC   C3B12897  34.600   4.803   8.057
  714POPC   C4B12898  34.842   4.667   7.769
  715POPC   NC312899   4.293  30.401   9.617
  715POPC   PO412900   4.806  30.796   9.392
  715POPC   GL112901   4.410  30.689   9.186
  715POPC   GL212902   4.231  30.986   9.071
  715POPC   C1A12903   4.209  30.534   8.802
  715POPC   D2A12904   4.052  30.292   8.417
  715POPC   C3A12905   4.131  30.439   7.999
  715POPC   C4A12906   4.285  30.654   7.622
  715POPC   C1B12907   4.560  30.916   8.731
  715POPC   C2B12908   4.464  30.791   8.298
  715POPC   C3B12909   4.090  30.923   8.086
  715POPC   C4B12910   4.045  31.098   7.714
  716POPC   NC312911  27.843  11.084   9.443
  716POPC   PO412912  27.296  11.427   9.391
  716POPC   GL112913  27.541  11.296   9.064
  716POPC   GL212914  27.536  10.959   9.064
  716POPC   C1A12915  27.691  11.412   8.676
  716POPC   D2A12916  27.687  11.156   8.330
  716POPC   C3A12917  27.610  11.319   7.949
  716POPC   C4A12918  27.272  11.187   7.688
  716POPC   C1B12919  27.894  10.919   8.772
  716POPC   C2B12920  27.938  10.698   8.348
  716POPC   C3B12921  27.994  10.949   7.961
  716POPC   C4B12922  27.770  11.027   7.561
  717POPC   NC312923  43.775  21.749   9.482
  717POPC   PO412924  43.943  22.401   9.450
  717POPC   GL112925  43.726  22.356   9.041
  717POPC   GL212926  43.492  22.090   9.126
  717POPC   C1A12927  43.831  22.170   8.641
  717POPC   D2A12928  44.260  22.056   8.455
  717POPC   C3A12929  44.212  21.972   8.047
  717POPC   C4A12930  44.188  22.267   7.744
  717POPC   C1B12931  43.291  22.037   8.714
  717POPC   C2B12932  43.390  22.114   8.289
  717POPC   C3B12933  43.736  22.199   7.991
  717POPC   C4B12934  43.770  22.132   7.509
  718POPC   NC312935  28.516  39.028   9.291
  718POPC   PO412936  28.340  39.731   9.270
  718POPC   GL112937  28.445  39.443   8.997
  718POPC   GL212938  28.750  39.603   8.962
  718POPC   C1A12939  28.255  39.167   8.666
  718POPC   D2A12940  27.997  39.227   8.291
  718POPC   C3A12941  28.031  39.069   7.886
  718POPC   C4A12942  28.339  39.081   7.548
  718POPC   C1B12943  28.715  39.354   8.556
  718POPC   C2B12944  28.487  39.296   8.144
  718POPC   C3B12945  28.576  39.541   7.784
  718POPC   C4B12946  28.729  39.492   7.401
  719POPC   NC312947  31.246  19.189   9.414
  719POPC   PO412948  31.748  18.811   9.560
  719POPC   GL112949  31.614  18.927   9.158
  719POPC   GL212950  31.318  18.784   9.122
  719POPC   C1A12951  31.518  19.157   8.766
  719POPC   D2A12952  31.700  19.090   8.349
  719POPC   C3A12953  31.542  19.172   7.953
  719POPC   C4A12954  31.264  19.310   7.632
  719POPC   C1B12955  31.402  18.679   8.727
  719POPC   C2B12956  31.253  18.853   8.350
  719POPC   C3B12957  31.312  18.725   7.928
  719POPC   C4B12958  31.499  18.769   7.505
  720POPC   NC312959  33.973  36.298   9.548
  720POPC   PO412960  33.478  35.902   9.644
  720POPC   GL112961  33.674  36.045   9.221
  720POPC   GL212962  34.019  35.976   9.149
  720POPC   C1A12963  33.747  36.206   8.781
  720POPC   D2A12964  33.916  36.026   8.382
  720POPC   C3A12965  33.815  36.122   7.991
  720POPC   C4A12966  33.429  35.976   7.944
  720POPC   C1B12967  34.266  36.071   8.766
  720POPC   C2B12968  34.420  36.004   8.384
  720POPC   C3B12969  34.301  35.791   8.037
  720POPC   C4B12970  34.169  35.878   7.642
  721POPC   NC312971  28.643   6.927   9.348
  721POPC   PO412972  28.579   6.320   9.585
  721POPC   GL112973  28.315   6.514   9.257
  721POPC   GL212974  28.154   6.833   9.255
  721POPC   C1A12975  28.367   6.604   8.810
  721POPC   D2A12976  28.615   6.740   8.443
  721POPC   C3A12977  28.456   6.535   8.078
  721POPC   C4A12978  28.495   6.367   7.666
  721POPC   C1B12979  27.969   6.939   8.877
  721POPC   C2B12980  28.141   6.964   8.468
  721POPC   C3B12981  28.031   6.847   8.065
  721POPC   C4B12982  28.298   6.839   7.692
  722POPC   NC312983  39.281  44.369   9.288
  722POPC   PO412984  39.526  43.868   9.743
  722POPC   GL112985  39.318  43.880   9.232
  722POPC   GL212986  39.180  43.585   9.067
  722POPC   C1A12987  39.390  43.991   8.761
  722POPC   D2A12988  39.191  43.782   8.412
  722POPC   C3A12989  39.353  43.784   7.982
  722POPC   C4A12990  39.420  44.068   7.627
  722POPC   C1B12991  38.870  43.452   8.748
  722POPC   C2B12992  38.713  43.623   8.361
  722POPC   C3B12993  38.882  43.525   7.972
  722POPC   C4B12994  38.993  43.772   7.619
  723POPC   NC312995  15.752   2.344   9.569
  723POPC   PO412996  16.264   1.899   9.379
  723POPC   GL112997  16.004   2.186   9.163
  723POPC   GL212998  15.672   2.026   9.167
  723POPC   C1A12999  15.824   2.334   8.790
  723POPC   D2A13000  15.911   2.077   8.441
  723POPC   C3A13001  15.888   2.141   8.002
  723POPC   C4A13002  16.234   1.922   7.810
  723POPC   C1B13003  15.818   1.737   8.833
  723POPC   C2B13004  15.690   1.640   8.404
  723POPC   C3B13005  15.834   1.618   8.000
  723POPC   C4B13006  15.593   1.663   7.648
  724POPC   NC313007  36.836  26.512   9.447
  724POPC   PO413008  36.792  25.955   9.597
  724POPC   GL113009  36.750  26.032   9.180
  724POPC   GL213010  36.474  26.226   9.108
  724POPC   C1A13011  36.952  26.062   8.778
  724POPC   D2A13012  36.720  25.989   8.402
  724POPC   C3A13013  36.886  26.057   8.016
  724POPC   C4A13014  36.955  25.962   7.600
  724POPC   C1B13015  36.542  26.348   8.744
  724POPC   C2B13016  36.650  26.506   8.400
  724POPC   C3B13017  36.546  26.452   8.014
  724POPC   C4B13018  36.466  26.530   7.600
  725POPC   NC313019  23.469  42.358   9.556
  725POPC   PO413020  24.113  42.499   9.529
  725POPC   GL113021  23.786  42.422   9.114
  725POPC   GL213022  23.409  42.472   9.087
  725POPC   C1A13023  23.584  42.299   8.673
  725POPC   D2A13024  23.702  42.394   8.279
  725POPC   C3A13025  23.641  42.130   7.880
  725POPC   C4A13026  23.515  42.017   7.438
  725POPC   C1B13027  23.272  42.750   8.787
  725POPC   C2B13028  23.275  42.673   8.380
  725POPC   C3B13029  23.354  42.561   7.977
  725POPC   C4B13030  23.196  42.306   7.725
  726POPC   NC313031  12.371  37.966   9.610
  726POPC   PO413032  12.861  38.527   9.489
  726POPC   GL113033  12.773  38.199   9.209
  726POPC   GL213034  12.803  38.471   8.977
  726POPC   C1A13035  12.706  38.011   8.785
  726POPC   D2A13036  12.625  38.125   8.342
  726POPC   C3A13037  12.923  38.325   8.059
  726POPC   C4A13038  12.828  38.449   7.655
  726POPC   C1B13039  12.919  38.708   8.628
  726POPC   C2B13040  13.046  38.836   8.248
  726POPC   C3B13041  13.253  38.680   7.884
  726POPC   C4B13042  13.205  38.752   7.457
  727POPC   NC313043  21.831  26.760   9.655
  727POPC   PO413044  22.574  26.706   9.651
  727POPC   GL113045  22.255  26.668   9.279
  727POPC   GL213046  21.901  26.797   9.134
  727POPC   C1A13047  22.350  26.788   8.864
  727POPC   D2A13048  22.138  26.953   8.536
  727POPC   C3A13049  22.301  26.797   8.180
  727POPC   C4A13050  22.386  26.966   7.783
  727POPC   C1B13051  21.746  26.685   8.703
  727POPC   C2B13052  21.660  26.906   8.304
  727POPC   C3B13053  21.885  26.935   7.934
  727POPC   C4B13054  21.991  26.521   7.789
  728POPC   NC313055  24.463   7.036   9.470
  728POPC   PO413056  24.774   7.640   9.216
  728POPC   GL113057  24.404   7.455   9.177
  728POPC   GL213058  24.195   7.721   9.288
  728POPC   C1A13059  24.381   7.224   8.796
  728POPC   D2A13060  24.664   7.289   8.419
  728POPC   C3A13061  24.514   7.317   7.981
  728POPC   C4A13062  24.765   7.414   7.565
  728POPC   C1B13063  24.179   7.706   8.811
  728POPC   C2B13064  24.123   7.489   8.415
  728POPC   C3B13065  24.137   7.713   8.029
  728POPC   C4B13066  24.394   7.723   7.687
  729POPC   NC313067  32.247  43.753   9.848
  729POPC   PO413068  32.786  44.006   9.500
  729POPC   GL113069  32.835  43.846   9.113
  729POPC   GL213070  32.598  43.570   9.102
  729POPC   C1A13071  33.228  43.854   8.842
  729POPC   D2A13072  33.249  43.749   8.412
  729POPC   C3A13073  32.944  43.964   8.193
  729POPC   C4A13074  32.903  44.040   7.763
  729POPC   C1B13075  32.860  43.544   8.711
  729POPC   C2B13076  32.828  43.474   8.294
  729POPC   C3B13077  33.022  43.532   7.909
  729POPC   C4B13078  32.782  43.593   7.543
  730POPC   NC313079  17.578   3.867   9.586
  730POPC   PO413080  17.112   4.342   9.620
  730POPC   GL113081  17.383   4.322   9.276
  730POPC   GL213082  17.140   4.499   9.114
  730POPC   C1A13083  17.657   4.299   8.895
  730POPC   D2A13084  17.649   4.057   8.499
  730POPC   C3A13085  17.794   4.175   8.097
  730POPC   C4A13086  17.508   4.015   7.803
  730POPC   C1B13087  17.154   4.235   8.746
  730POPC   C2B13088  17.054   4.394   8.365
  730POPC   C3B13089  17.435   4.547   8.210
  730POPC   C4B13090  17.665   4.601   7.819
  731POPC   NC313091   0.965  25.504   9.252
  731POPC   PO413092   1.343  24.932   9.397
  731POPC   GL113093   1.382  25.189   9.050
  731POPC   GL213094   1.472  25.546   9.079
  731POPC   C1A13095   1.369  25.131   8.629
  731POPC   D2A13096   0.977  25.220   8.435
  731POPC   C3A13097   1.132  25.312   8.054
  731POPC   C4A13098   1.107  25.286   7.639
  731POPC   C1B13099   1.504  25.843   8.749
  731POPC   C2B13100   1.395  25.626   8.400
  731POPC   C3B13101   1.411  25.735   7.990
  731POPC   C4B13102   1.566  25.428   7.771
  732POPC   NC313103  39.129  28.921   9.546
  732POPC   PO413104  39.465  29.512   9.451
  732POPC   GL113105  39.349  29.158   9.149
  732POPC   GL213106  38.980  29.175   9.141
  732POPC   C1A13107  39.218  28.971   8.741
  732POPC   D2A13108  39.201  29.133   8.316
  732POPC   C3A13109  39.156  28.828   7.990
  732POPC   C4A13110  39.123  28.680   7.606
  732POPC   C1B13111  39.055  29.482   8.822
  732POPC   C2B13112  38.975  29.594   8.400
  732POPC   C3B13113  39.151  29.525   7.977
  732POPC   C4B13114  39.166  29.201   7.658
  733POPC   NC313115  35.542  15.580   9.570
  733POPC   PO413116  35.727  14.939   9.542
  733POPC   GL113117  35.363  15.116   9.266
  733POPC   GL213118  35.225  15.453   9.168
  733POPC   C1A13119  35.141  15.020   8.885
  733POPC   D2A13120  35.425  15.055   8.564
  733POPC   C3A13121  35.373  15.011   8.138
  733POPC   C4A13122  35.583  15.291   7.898
  733POPC   C1B13123  35.002  15.517   8.773
  733POPC   C2B13124  34.982  15.288   8.384
  733POPC   C3B13125  35.061  15.395   7.973
  733POPC   C4B13126  35.015  15.719   7.698
  734POPC   NC313127  43.212  32.103   9.652
  734POPC   PO413128  43.332  32.746   9.623
  734POPC   GL113129  43.128  32.451   9.269
  734POPC   GL213130  43.028  32.053   9.196
  734POPC   C1A13131  42.971  32.475   8.844
  734POPC   D2A13132  42.779  32.603   8.450
  734POPC   C3A13133  43.002  32.530   8.071
  734POPC   C4A13134  43.260  32.277   7.793
  734POPC   C1B13135  42.821  32.012   8.816
  734POPC   C2B13136  42.679  32.052   8.417
  734POPC   C3B13137  42.863  32.026   8.021
  734POPC   C4B13138  42.651  32.027   7.676
  735POPC   NC313139  25.010  24.184   9.574
  735POPC   PO413140  25.231  24.748   9.445
  735POPC   GL113141  25.206  24.571   9.067
  735POPC   GL213142  25.208  24.242   9.112
  735POPC   C1A13143  25.411  24.480   8.704
  735POPC   D2A13144  25.265  24.651   8.348
  735POPC   C3A13145  25.442  24.509   7.986
  735POPC   C4A13146  25.229  24.720   7.671
  735POPC   C1B13147  24.925  24.118   8.793
  735POPC   C2B13148  24.998  24.234   8.395
  735POPC   C3B13149  24.950  24.409   7.988
  735POPC   C4B13150  25.008  24.201   7.620
  736POPC   NC313151  31.794  41.464   9.438
  736POPC   PO413152  31.104  41.389   9.347
  736POPC   GL113153  31.408  41.472   9.051
  736POPC   GL213154  31.423  41.802   9.173
  736POPC   C1A13155  31.308  41.535   8.614
  736POPC   D2A13156  31.089  41.411   8.219
  736POPC   C3A13157  31.386  41.378   7.872
  736POPC   C4A13158  31.810  41.468   7.795
  736POPC   C1B13159  31.109  41.960   8.840
  736POPC   C2B13160  31.012  42.132   8.421
  736POPC   C3B13161  31.091  41.930   8.042
  736POPC   C4B13162  31.251  41.819   7.653
  737POPC   NC313163  10.273   9.260   9.369
  737POPC   PO413164  10.784   9.419   9.768
  737POPC   GL113165  10.769   9.219   9.285
  737POPC   GL213166  10.543   8.886   9.174
  737POPC   C1A13167  10.848   9.118   8.829
  737POPC   D2A13168  10.560   8.921   8.497
  737POPC   C3A13169  10.595   9.044   8.058
  737POPC   C4A13170  10.720   9.270   7.698
  737POPC   C1B13171  10.235   8.644   8.896
  737POPC   C2B13172  10.171   8.541   8.451
  737POPC   C3B13173  10.305   8.615   8.038
  737POPC   C4B13174  10.418   8.632   7.590
  738POPC   NC313175  25.496  28.456   9.763
  738POPC   PO413176  26.148  28.216   9.449
  738POPC   GL113177  25.996  28.438   9.130
  738POPC   GL213178  26.176  28.678   9.037
  738POPC   C1A13179  25.825  28.467   8.704
  738POPC   D2A13180  25.612  28.381   8.332
  738POPC   C3A13181  25.839  28.258   7.982
  738POPC   C4A13182  26.029  28.509   7.695
  738POPC   C1B13183  26.297  28.250   8.784
  738POPC   C2B13184  26.155  28.207   8.392
  738POPC   C3B13185  26.359  28.287   8.043
  738POPC   C4B13186  26.508  28.144   7.696
  739POPC   NC313187  42.838  22.084   9.576
  739POPC   PO413188  42.092  22.407   9.531
  739POPC   GL113189  42.189  22.312   9.137
  739POPC   GL213190  42.481  22.064   9.171
  739POPC   C1A13191  42.093  22.093   8.768
  739POPC   D2A13192  41.837  22.126   8.402
  739POPC   C3A13193  42.069  22.115   8.057
  739POPC   C4A13194  42.136  22.378   7.730
  739POPC   C1B13195  42.560  22.324   8.797
  739POPC   C2B13196  42.388  22.410   8.379
  739POPC   C3B13197  42.608  22.344   7.956
  739POPC   C4B13198  42.931  22.244   7.618
  740POPC   NC313199   0.734  43.574   9.214
  740POPC   PO413200   1.113  43.127   9.458
  740POPC   GL113201   1.173  43.108   9.001
  740POPC   GL213202   1.069  43.387   8.872
  740POPC   C1A13203   1.512  43.103   8.718
  740POPC   D2A13204   1.734  42.893   8.380
  740POPC   C3A13205   1.599  43.018   7.943
  740POPC   C4A13206   1.689  43.018   7.438
  740POPC   C1B13207   1.117  43.284   8.450
  740POPC   C2B13208   1.127  43.180   8.044
  740POPC   C3B13209   1.141  42.858   7.742
  740POPC   C4B13210   1.188  42.829   7.310
  741POPC   NC313211  32.239   5.730   9.392
  741POPC   PO413212  31.862   6.324   9.314
  741POPC   GL113213  32.074   6.043   9.039
  741POPC   GL213214  31.977   5.687   8.986
  741POPC   C1A13215  32.452   5.978   8.764
  741POPC   D2A13216  32.420   5.798   8.342
  741POPC   C3A13217  32.564   5.943   7.950
  741POPC   C4A13218  32.757   5.824   7.551
  741POPC   C1B13219  31.984   5.776   8.613
  741POPC   C2B13220  31.980   5.560   8.278
  741POPC   C3B13221  32.035   5.808   7.960
  741POPC   C4B13222  31.916   5.954   7.589
  742POPC   NC313223  28.656   8.515   9.645
  742POPC   PO413224  29.126   8.033   9.480
  742POPC   GL113225  29.165   8.280   9.122
  742POPC   GL213226  28.860   8.442   9.050
  742POPC   C1A13227  29.392   8.426   8.762
  742POPC   D2A13228  29.108   8.483   8.439
  742POPC   C3A13229  29.204   8.417   8.021
  742POPC   C4A13230  29.458   8.254   7.695
  742POPC   C1B13231  28.719   8.271   8.695
  742POPC   C2B13232  28.623   8.411   8.286
  742POPC   C3B13233  28.727   8.270   7.897
  742POPC   C4B13234  28.975   8.367   7.559
  743POPC   NC313235  27.546  15.888   9.919
  743POPC   PO413236  27.897  16.159   9.535
  743POPC   GL113237  27.531  16.348   9.239
  743POPC   GL213238  27.578  16.081   9.001
  743POPC   C1A13239  27.361  16.476   8.788
  743POPC   D2A13240  27.570  16.292   8.414
  743POPC   C3A13241  27.508  16.161   7.995
  743POPC   C4A13242  27.299  15.772   7.863
  743POPC   C1B13243  27.926  16.036   8.688
  743POPC   C2B13244  27.970  15.990   8.218
  743POPC   C3B13245  27.823  15.694   7.903
  743POPC   C4B13246  27.730  15.328   7.657
  744POPC   NC313247  19.108   3.772   9.749
  744POPC   PO413248  19.234   3.422   9.192
  744POPC   GL113249  18.980   3.678   9.016
  744POPC   GL213250  18.826   3.383   8.871
  744POPC   C1A13251  19.063   3.716   8.573
  744POPC   D2A13252  18.905   3.404   8.293
  744POPC   C3A13253  19.196   3.410   7.946
  744POPC   C4A13254  19.371   3.814   7.810
  744POPC   C1B13255  18.568   3.675   8.672
  744POPC   C2B13256  18.645   3.864   8.297
  744POPC   C3B13257  18.817   3.747   7.922
  744POPC   C4B13258  18.725   3.501   7.555
  745POPC   NC313259  39.563   9.760   9.310
  745POPC   PO413260  39.077   9.403   9.692
  745POPC   GL113261  39.015   9.553   9.215
  745POPC   GL213262  39.304   9.533   8.915
  745POPC   C1A13263  38.904   9.827   8.848
  745POPC   D2A13264  39.087   9.643   8.462
  745POPC   C3A13265  38.879   9.669   8.107
  745POPC   C4A13266  38.760  10.016   7.854
  745POPC   C1B13267  39.401   9.961   8.742
  745POPC   C2B13268  39.442  10.013   8.348
  745POPC   C3B13269  39.402   9.772   8.002
  745POPC   C4B13270  39.709   9.457   7.895
  746POPC   NC313271  19.452  14.055   9.332
  746POPC   PO413272  20.127  13.924   9.586
  746POPC   GL113273  19.970  13.738   9.176
  746POPC   GL213274  19.787  13.951   8.980
  746POPC   C1A13275  19.900  13.494   8.758
  746POPC   D2A13276  20.048  13.321   8.347
  746POPC   C3A13277  19.875  13.525   8.028
  746POPC   C4A13278  19.931  13.553   7.643
  746POPC   C1B13279  19.531  13.882   8.639
  746POPC   C2B13280  19.504  13.916   8.197
  746POPC   C3B13281  19.336  13.902   7.785
  746POPC   C4B13282  19.626  13.931   7.482
  747POPC   NC313283   7.121  41.964   9.838
  747POPC   PO413284   6.792  42.474   9.477
  747POPC   GL113285   6.760  42.188   9.066
  747POPC   GL213286   6.479  41.965   9.128
  747POPC   C1A13287   6.756  42.285   8.615
  747POPC   D2A13288   6.980  42.096   8.260
  747POPC   C3A13289   7.002  42.351   7.897
  747POPC   C4A13290   7.056  42.373   7.420
  747POPC   C1B13291   6.390  41.927   8.755
  747POPC   C2B13292   6.318  42.121   8.395
  747POPC   C3B13293   6.512  42.102   8.003
  747POPC   C4B13294   6.562  42.368   7.668
  748POPC   NC313295  19.925  43.003   9.551
  748POPC   PO413296  19.625  43.564   9.429
  748POPC   GL113297  19.735  43.212   9.116
  748POPC   GL213298  20.104  43.069   9.071
  748POPC   C1A13299  19.759  43.112   8.681
  748POPC   D2A13300  19.738  43.346   8.324
  748POPC   C3A13301  19.756  43.113   7.993
  748POPC   C4A13302  20.031  43.216   7.690
  748POPC   C1B13303  20.255  42.814   8.695
  748POPC   C2B13304  20.184  42.829   8.238
  748POPC   C3B13305  20.352  42.851   7.836
  748POPC   C4B13306  20.276  42.853   7.411
  749POPC   NC313307  40.425   9.951   9.597
  749POPC   PO413308  40.921   9.506   9.443
  749POPC   GL113309  40.776   9.608   9.067
  749POPC   GL213310  40.879   9.916   9.077
  749POPC   C1A13311  40.815   9.717   8.627
  749POPC   D2A13312  40.668   9.542   8.302
  749POPC   C3A13313  40.963   9.575   7.971
  749POPC   C4A13314  40.717   9.617   7.639
  749POPC   C1B13315  40.666  10.177   8.801
  749POPC   C2B13316  40.768  10.174   8.364
  749POPC   C3B13317  40.592   9.956   8.018
  749POPC   C4B13318  40.335  10.032   7.688
  750POPC   NC313319  32.884   2.236   9.402
  750POPC   PO413320  32.178   2.007   9.441
  750POPC   GL113321  32.207   2.204   9.072
  750POPC   GL213322  32.526   2.097   9.059
  750POPC   C1A13323  31.948   2.259   8.731
  750POPC   D2A13324  31.721   2.104   8.367
  750POPC   C3A13325  31.899   1.782   8.158
  750POPC   C4A13326  32.079   1.888   7.769
  750POPC   C1B13327  32.338   1.828   8.731
  750POPC   C2B13328  32.399   1.820   8.279
  750POPC   C3B13329  32.604   2.035   7.929
  750POPC   C4B13330  32.843   1.838   7.612
  751POPC   NC313331   0.150  10.247   9.227
  751POPC   PO413332  44.622  10.448   9.621
  751POPC   GL113333  44.721  10.613   9.206
  751POPC   GL213334  44.356  10.580   9.126
  751POPC   C1A13335  44.600  10.855   8.799
  751POPC   D2A13336  44.351  10.710   8.432
  751POPC   C3A13337  44.505  10.796   8.003
  751POPC   C4A13338  44.884  10.632   7.807
  751POPC   C1B13339  44.574  10.330   8.754
  751POPC   C2B13340  44.624  10.156   8.302
  751POPC   C3B13341  44.600  10.167   7.836
  751POPC   C4B13342  44.485  10.456   7.470
  752POPC   NC313343  18.339  32.427   9.474
  752POPC   PO413344  17.682  32.279   9.495
  752POPC   GL113345  18.035  32.152   9.155
  752POPC   GL213346  18.388  32.238   9.015
  752POPC   C1A13347  18.031  32.125   8.680
  752POPC   D2A13348  18.335  32.198   8.335
  752POPC   C3A13349  18.089  32.246   7.953
  752POPC   C4A13350  17.909  31.961   7.682
  752POPC   C1B13351  18.597  32.493   8.702
  752POPC   C2B13352  18.570  32.662   8.282
  752POPC   C3B13353  18.560  32.401   7.904
  752POPC   C4B13354  18.440  31.992   7.688
  753POPC   NC313355  16.266   5.749   9.951
  753POPC   PO413356  16.800   5.779   9.516
  753POPC   GL113357  16.943   5.937   9.139
  753POPC   GL213358  16.600   5.936   9.061
  753POPC   C1A13359  16.902   6.083   8.709
  753POPC   D2A13360  16.639   5.934   8.369
  753POPC   C3A13361  16.733   6.069   7.987
  753POPC   C4A13362  17.126   6.161   7.847
  753POPC   C1B13363  16.627   5.617   8.764
  753POPC   C2B13364  16.365   5.503   8.399
  753POPC   C3B13365  16.508   5.558   7.945
  753POPC   C4B13366  16.889   5.681   7.719
  754POPC   NC313367  35.539  40.361   9.498
  754POPC   PO413368  35.400  39.697   9.302
  754POPC   GL113369  35.319  39.842   8.964
  754POPC   GL213370  35.320  40.176   9.077
  754POPC   C1A13371  35.156  39.680   8.574
  754POPC   D2A13372  34.928  39.614   8.183
  754POPC   C3A13373  35.133  39.864   7.874
  754POPC   C4A13374  35.559  39.980   7.825
  754POPC   C1B13375  35.178  40.231   8.682
  754POPC   C2B13376  35.294  40.136   8.271
  754POPC   C3B13377  35.317  40.428   7.922
  754POPC   C4B13378  35.638  40.437   7.610
  755POPC   NC313379  26.315  29.620   9.419
  755POPC   PO413380  26.888  29.808   9.569
  755POPC   GL113381  26.971  29.842   9.177
  755POPC   GL213382  26.924  30.191   9.132
  755POPC   C1A13383  27.086  29.815   8.762
  755POPC   D2A13384  26.910  30.053   8.424
  755POPC   C3A13385  27.065  30.109   8.022
  755POPC   C4A13386  27.019  29.939   7.626
  755POPC   C1B13387  26.598  30.003   8.851
  755POPC   C2B13388  26.412  29.917   8.450
  755POPC   C3B13389  26.548  29.939   8.022
  755POPC   C4B13390  26.530  30.083   7.597
  756POPC   NC313391  12.437  23.554   9.656
  756POPC   PO413392  12.888  23.947   9.465
  756POPC   GL113393  12.727  23.920   9.099
  756POPC   GL213394  12.804  23.580   9.009
  756POPC   C1A13395  12.856  23.976   8.723
  756POPC   D2A13396  12.816  23.690   8.435
  756POPC   C3A13397  12.877  23.898   8.070
  756POPC   C4A13398  12.784  23.804   7.652
  756POPC   C1B13399  13.162  23.456   8.743
  756POPC   C2B13400  13.248  23.473   8.308
  756POPC   C3B13401  13.037  23.430   7.899
  756POPC   C4B13402  13.136  23.498   7.454
  757POPC   NC313403  40.092  30.298   9.616
  757POPC   PO413404  40.424  29.731   9.532
  757POPC   GL113405  40.140  29.910   9.249
  757POPC   GL213406  40.308  30.178   9.178
  757POPC   C1A13407  39.902  29.867   8.870
  757POPC   D2A13408  39.848  30.070   8.475
  757POPC   C3A13409  39.975  29.904   8.092
  757POPC   C4A13410  39.679  30.001   7.777
  757POPC   C1B13411  40.502  30.296   8.815
  757POPC   C2B13412  40.360  30.165   8.432
  757POPC   C3B13413  40.375  30.289   8.039
  757POPC   C4B13414  40.250  30.078   7.660
  758POPC   NC313415  28.938  18.077   9.531
  758POPC   PO413416  29.313  18.689   9.468
  758POPC   GL113417  29.393  18.505   9.126
  758POPC   GL213418  29.194  18.245   9.103
  758POPC   C1A13419  29.484  18.431   8.736
  758POPC   D2A13420  29.283  18.306   8.377
  758POPC   C3A13421  29.409  18.438   8.017
  758POPC   C4A13422  29.203  18.730   7.799
  758POPC   C1B13423  29.114  18.004   8.734
  758POPC   C2B13424  29.192  17.794   8.365
  758POPC   C3B13425  29.143  17.986   7.983
  758POPC   C4B13426  28.894  18.309   7.868
  759POPC   NC313427  23.355  43.873  10.020
  759POPC   PO413428  22.897  43.821   9.534
  759POPC   GL113429  22.925  43.911   9.129
  759POPC   GL213430  22.597  43.789   9.116
  759POPC   C1A13431  23.166  43.831   8.766
  759POPC   D2A13432  23.249  44.042   8.381
  759POPC   C3A13433  23.029  43.807   8.066
  759POPC   C4A13434  22.868  43.964   7.704
  759POPC   C1B13435  22.640  43.840   8.682
  759POPC   C2B13436  22.647  43.547   8.331
  759POPC   C3B13437  22.569  43.591   7.861
  759POPC   C4B13438  22.678  43.587   7.405
  760POPC   NC313439   1.185  31.785   9.398
  760POPC   PO413440   0.780  32.136   9.354
  760POPC   GL113441   1.098  32.094   8.982
  760POPC   GL213442   1.480  32.153   8.991
  760POPC   C1A13443   1.242  32.047   8.547
  760POPC   D2A13444   1.409  32.184   8.175
  760POPC   C3A13445   1.353  31.897   7.853
  760POPC   C4A13446   0.971  31.896   7.559
  760POPC   C1B13447   1.719  32.189   8.582
  760POPC   C2B13448   1.886  32.056   8.125
  760POPC   C3B13449   1.728  32.253   7.758
  760POPC   C4B13450   1.436  32.504   7.531
  761POPC   NC313451  38.427  44.233   9.504
  761POPC   PO413452  38.422  43.541   9.538
  761POPC   GL113453  38.309  43.805   9.226
  761POPC   GL213454  38.650  43.813   9.139
  761POPC   C1A13455  38.101  44.001   8.881
  761POPC   D2A13456  38.275  44.149   8.502
  761POPC   C3A13457  38.361  43.974   8.111
  761POPC   C4A13458  38.521  43.905   7.713
  761POPC   C1B13459  38.872  43.981   8.818
  761POPC   C2B13460  38.775  44.126   8.430
  761POPC   C3B13461  38.900  44.040   8.058
  761POPC   C4B13462  38.920  44.282   7.740
  762POPC   NC313463  22.609  22.577   9.715
  762POPC   PO413464  23.076  22.047   9.648
  762POPC   GL113465  22.931  22.038   9.245
  762POPC   GL213466  22.673  22.236   9.311
  762POPC   C1A13467  23.041  22.170   8.833
  762POPC   D2A13468  23.308  22.108   8.495
  762POPC   C3A13469  23.216  22.364   8.147
  762POPC   C4A13470  23.020  22.160   7.832
  762POPC   C1B13471  22.529  22.110   8.905
  762POPC   C2B13472  22.631  22.229   8.485
  762POPC   C3B13473  22.571  22.326   8.047
  762POPC   C4B13474  22.556  22.032   7.704
  763POPC   NC313475  15.128  18.181   9.335
  763POPC   PO413476  15.596  18.338   8.895
  763POPC   GL113477  15.295  17.963   8.874
  763POPC   GL213478  14.929  17.899   8.954
  763POPC   C1A13479  15.121  17.855   8.474
  763POPC   D2A13480  15.003  18.102   8.130
  763POPC   C3A13481  15.350  18.092   7.827
  763POPC   C4A13482  15.433  17.924   7.391
  763POPC   C1B13483  14.787  18.255   8.650
  763POPC   C2B13484  14.682  18.492   8.243
  763POPC   C3B13485  14.869  18.551   7.809
  763POPC   C4B13486  14.945  18.652   7.344
  764POPC   NC313487   8.793   8.616   9.513
  764POPC   PO413488   9.096   9.295   9.538
  764POPC   GL113489   8.959   9.002   9.247
  764POPC   GL213490   8.833   9.225   9.040
  764POPC   C1A13491   9.007   8.766   8.851
  764POPC   D2A13492   9.102   9.033   8.512
  764POPC   C3A13493   9.143   9.066   8.058
  764POPC   C4A13494   9.049   8.958   7.630
  764POPC   C1B13495   8.579   9.054   8.736
  764POPC   C2B13496   8.644   8.890   8.340
  764POPC   C3B13497   8.625   9.017   7.934
  764POPC   C4B13498   8.726   9.351   7.700
  765POPC   NC313499  16.919   4.058   9.318
  765POPC   PO413500  16.306   4.004   9.446
  765POPC   GL113501  16.459   4.116   9.072
  765POPC   GL213502  16.635   4.423   9.073
  765POPC   C1A13503  16.670   4.107   8.655
  765POPC   D2A13504  16.903   3.906   8.312
  765POPC   C3A13505  16.694   4.129   8.030
  765POPC   C4A13506  16.440   4.375   7.821
  765POPC   C1B13507  16.684   4.676   8.707
  765POPC   C2B13508  16.560   4.577   8.288
  765POPC   C3B13509  16.838   4.646   7.952
  765POPC   C4B13510  17.134   4.343   7.855
  766POPC   NC313511  21.235  36.504   9.451
  766POPC   PO413512  21.588  35.867   9.474
  766POPC   GL113513  21.500  36.046   9.106
  766POPC   GL213514  21.146  36.019   9.100
  766POPC   C1A13515  21.407  36.131   8.666
  766POPC   D2A13516  21.273  36.203   8.250
  766POPC   C3A13517  21.504  36.178   7.904
  766POPC   C4A13518  21.608  36.474   7.580
  766POPC   C1B13519  21.035  35.754   8.761
  766POPC   C2B13520  21.220  35.720   8.352
  766POPC   C3B13521  21.066  35.823   7.937
  766POPC   C4B13522  21.017  36.243   7.760
  767POPC   NC313523   7.062  31.816   9.199
  767POPC   PO413524   7.581  31.504   9.550
  767POPC   GL113525   7.408  31.333   9.175
  767POPC   GL213526   7.759  31.291   9.112
  767POPC   C1A13527   7.227  31.245   8.725
  767POPC   D2A13528   7.304  31.104   8.261
  767POPC   C3A13529   7.332  31.439   7.956
  767POPC   C4A13530   7.218  31.881   8.055
  767POPC   C1B13531   7.631  31.552   8.782
  767POPC   C2B13532   7.615  31.638   8.380
  767POPC   C3B13533   7.905  31.687   8.114
  767POPC   C4B13534   7.827  31.422   7.797
  768POPC   NC313535   6.420   2.520   9.394
  768POPC   PO413536   7.066   2.605   9.516
  768POPC   GL113537   6.846   2.809   9.122
  768POPC   GL213538   6.556   2.651   8.934
  768POPC   C1A13539   6.904   2.894   8.667
  768POPC   D2A13540   6.805   2.571   8.401
  768POPC   C3A13541   7.028   2.483   8.039
  768POPC   C4A13542   6.960   2.719   7.686
  768POPC   C1B13543   6.349   2.430   8.611
  768POPC   C2B13544   6.270   2.503   8.209
  768POPC   C3B13545   6.416   2.551   7.793
  768POPC   C4B13546   6.206   2.527   7.392
  769POPC   NC313547   6.378  36.513   9.576
  769POPC   PO413548   6.540  35.845   9.615
  769POPC   GL113549   6.490  36.090   9.211
  769POPC   GL213550   6.476  36.452   9.066
  769POPC   C1A13551   6.466  35.917   8.793
  769POPC   D2A13552   6.677  35.938   8.414
  769POPC   C3A13553   6.582  36.288   8.150
  769POPC   C4A13554   6.376  36.269   7.794
  769POPC   C1B13555   6.790  36.337   8.734
  769POPC   C2B13556   7.051  36.297   8.345
  769POPC   C3B13557   7.004  36.505   7.962
  769POPC   C4B13558   6.859  36.288   7.659
  770POPC   NC313559  42.689  40.335   9.807
  770POPC   PO413560  42.361  39.828   9.456
  770POPC   GL113561  42.431  39.858   9.052
  770POPC   GL213562  42.338  40.199   9.055
  770POPC   C1A13563  42.330  39.900   8.652
  770POPC   D2A13564  42.151  40.153   8.384
  770POPC   C3A13565  42.263  39.968   8.010
  770POPC   C4A13566  42.569  39.890   7.661
  770POPC   C1B13567  42.560  40.361   8.671
  770POPC   C2B13568  42.662  40.196   8.322
  770POPC   C3B13569  42.741  40.406   8.014
  770POPC   C4B13570  42.469  40.364   7.778
  771POPC   NC313571  14.459  29.673   9.494
  771POPC   PO413572  14.619  30.256   9.686
  771POPC   GL113573  14.445  30.104   9.236
  771POPC   GL213574  14.105  30.012   9.344
  771POPC   C1A13575  14.593  29.922   8.794
  771POPC   D2A13576  14.779  30.022   8.368
  771POPC   C3A13577  14.624  29.851   7.994
  771POPC   C4A13578  14.495  30.178   7.747
  771POPC   C1B13579  14.091  29.913   8.897
  771POPC   C2B13580  13.922  30.016   8.497
  771POPC   C3B13581  14.148  30.061   8.114
  771POPC   C4B13582  14.153  29.779   7.768
  772POPC   NC313583  17.720  12.776   9.370
  772POPC   PO413584  17.452  13.348   9.696
  772POPC   GL113585  17.350  13.144   9.233
  772POPC   GL213586  16.968  13.067   9.190
  772POPC   C1A13587  17.577  13.096   8.772
  772POPC   D2A13588  17.751  13.119   8.306
  772POPC   C3A13589  17.770  12.749   8.059
  772POPC   C4A13590  17.582  12.717   7.632
  772POPC   C1B13591  17.176  12.800   8.868
  772POPC   C2B13592  17.397  12.734   8.453
  772POPC   C3B13593  17.272  12.749   8.019
  772POPC   C4B13594  17.065  12.760   7.581
  773POPC   NC313595  19.782  43.992   9.564
  773POPC   PO413596  20.479  44.078   9.497
  773POPC   GL113597  20.096  44.162   9.161
  773POPC   GL213598  19.763  43.946   9.079
  773POPC   C1A13599  19.998  44.120   8.682
  773POPC   D2A13600  19.976  43.838   8.326
  773POPC   C3A13601  19.791  43.934   7.909
  773POPC   C4A13602  19.894  43.697   7.538
  773POPC   C1B13603  19.667  43.679   8.731
  773POPC   C2B13604  19.447  43.748   8.359
  773POPC   C3B13605  19.281  43.878   7.988
  773POPC   C4B13606  19.383  43.873   7.561
  774POPC   NC313607   8.221   3.089   9.516
  774POPC   PO413608   8.324   3.718   9.711
  774POPC   GL113609   8.305   3.544   9.248
  774POPC   GL213610   8.012   3.568   9.023
  774POPC   C1A13611   8.441   3.413   8.796
  774POPC   D2A13612   8.257   3.328   8.362
  774POPC   C3A13613   8.398   3.550   8.004
  774POPC   C4A13614   8.310   3.512   7.544
  774POPC   C1B13615   7.673   3.455   8.723
  774POPC   C2B13616   7.763   3.522   8.319
  774POPC   C3B13617   7.893   3.504   7.923
  774POPC   C4B13618   7.849   3.305   7.526
  775POPC   NC313619  22.221  24.889   9.560
  775POPC   PO413620  22.736  24.489   9.477
  775POPC   GL113621  22.404  24.536   9.177
  775POPC   GL213622  22.052  24.472   9.228
  775POPC   C1A13623  22.299  24.335   8.802
  775POPC   D2A13624  22.244  24.215   8.407
  775POPC   C3A13625  22.045  24.540   8.143
  775POPC   C4A13626  22.072  24.386   7.742
  775POPC   C1B13627  21.853  24.598   8.819
  775POPC   C2B13628  21.674  24.812   8.453
  775POPC   C3B13629  21.619  24.884   8.023
  775POPC   C4B13630  21.850  24.814   7.662
  776POPC   NC313631  15.323   4.259   9.627
  776POPC   PO413632  14.798   4.596   9.591
  776POPC   GL113633  15.070   4.394   9.210
  776POPC   GL213634  15.407   4.541   9.175
  776POPC   C1A13635  15.173   4.196   8.783
  776POPC   D2A13636  14.978   3.981   8.408
  776POPC   C3A13637  15.186   4.088   8.032
  776POPC   C4A13638  15.122   4.362   7.695
  776POPC   C1B13639  15.468   4.617   8.726
  776POPC   C2B13640  15.496   4.381   8.324
  776POPC   C3B13641  15.587   4.495   7.893
  776POPC   C4B13642  15.889   4.703   7.589
  777POPC   NC313643  21.195  13.325   9.661
  777POPC   PO413644  21.142  12.600   9.577
  777POPC   GL113645  21.180  12.780   9.180
  777POPC   GL213646  21.497  12.959   9.157
  777POPC   C1A13647  21.247  12.785   8.730
  777POPC   D2A13648  21.124  12.950   8.341
  777POPC   C3A13649  21.184  12.612   8.053
  777POPC   C4A13650  21.386  12.619   7.677
  777POPC   C1B13651  21.705  13.013   8.750
  777POPC   C2B13652  21.635  12.822   8.383
  777POPC   C3B13653  21.554  12.954   8.019
  777POPC   C4B13654  21.669  13.021   7.627
  778POPC   NC313655  19.102  34.924   9.462
  778POPC   PO413656  18.779  34.281   9.576
  778POPC   GL113657  18.905  34.454   9.184
  778POPC   GL213658  19.183  34.683   9.042
  778POPC   C1A13659  19.031  34.277   8.788
  778POPC   D2A13660  19.121  34.520   8.444
  778POPC   C3A13661  19.158  34.266   8.102
  778POPC   C4A13662  19.094  34.273   7.704
  778POPC   C1B13663  19.358  34.933   8.704
  778POPC   C2B13664  19.498  34.824   8.273
  778POPC   C3B13665  19.272  34.755   7.872
  778POPC   C4B13666  18.897  35.043   7.765
  779POPC   NC313667  19.787  37.368   9.758
  779POPC   PO413668  20.386  37.603   9.707
  779POPC   GL113669  20.014  37.488   9.316
  779POPC   GL213670  19.890  37.171   9.131
  779POPC   C1A13671  19.728  37.589   8.901
  779POPC   D2A13672  19.934  37.745   8.506
  779POPC   C3A13673  19.815  37.696   8.063
  779POPC   C4A13674  20.104  37.872   7.732
  779POPC   C1B13675  20.199  37.388   8.833
  779POPC   C2B13676  20.355  37.421   8.376
  779POPC   C3B13677  20.224  37.414   7.948
  779POPC   C4B13678  19.978  37.354   7.573
  780POPC   NC313679  41.066  23.473   9.399
  780POPC   PO413680  40.450  23.856   9.429
  780POPC   GL113681  40.655  23.660   9.093
  780POPC   GL213682  40.901  23.898   9.095
  780POPC   C1A13683  40.669  23.381   8.736
  780POPC   D2A13684  40.460  23.414   8.377
  780POPC   C3A13685  40.700  23.415   8.001
  780POPC   C4A13686  40.654  23.129   7.688
  780POPC   C1B13687  41.073  23.704   8.733
  780POPC   C2B13688  40.822  23.756   8.374
  780POPC   C3B13689  40.751  23.935   7.952
  780POPC   C4B13690  41.098  24.008   7.673
  781POPC   NC313691  21.941   9.887   9.453
  781POPC   PO413692  21.243   9.699   9.563
  781POPC   GL113693  21.481   9.642   9.158
  781POPC   GL213694  21.826   9.522   9.116
  781POPC   C1A13695  21.329   9.758   8.769
  781POPC   D2A13696  21.072   9.732   8.442
  781POPC   C3A13697  21.145   9.911   8.012
  781POPC   C4A13698  21.132   9.564   7.720
  781POPC   C1B13699  21.844   9.819   8.759
  781POPC   C2B13700  21.636   9.826   8.368
  781POPC   C3B13701  21.564   9.631   7.992
  781POPC   C4B13702  21.542   9.846   7.598
  782POPC   NC313703  32.992  40.221   9.532
  782POPC   PO413704  32.718  39.555   9.443
  782POPC   GL113705  32.884  39.873   9.135
  782POPC   GL213706  33.161  40.143   9.070
  782POPC   C1A13707  32.826  40.019   8.717
  782POPC   D2A13708  32.751  40.058   8.298
  782POPC   C3A13709  33.066  40.014   8.029
  782POPC   C4A13710  32.948  39.941   7.645
  782POPC   C1B13711  33.307  39.863   8.751
  782POPC   C2B13712  33.472  39.989   8.373
  782POPC   C3B13713  33.537  39.826   7.988
  782POPC   C4B13714  33.274  39.555   7.766
  783POPC   NC313715  25.411   6.782   9.509
  783POPC   PO413716  25.073   6.145   9.417
  783POPC   GL113717  25.146   6.488   9.160
  783POPC   GL213718  25.492   6.487   9.088
  783POPC   C1A13719  25.161   6.611   8.729
  783POPC   D2A13720  25.351   6.450   8.350
  783POPC   C3A13721  25.042   6.394   8.015
  783POPC   C4A13722  24.943   6.505   7.608
  783POPC   C1B13723  25.577   6.880   8.885
  783POPC   C2B13724  25.492   6.925   8.479
  783POPC   C3B13725  25.493   7.033   8.068
  783POPC   C4B13726  25.277   6.812   7.804
  784POPC   NC313727  23.358  43.917   9.440
  784POPC   PO413728  23.822  43.466   9.599
  784POPC   GL113729  23.778  43.781   9.145
  784POPC   GL213730  23.552  44.110   9.044
  784POPC   C1A13731  23.678  43.843   8.653
  784POPC   D2A13732  23.487  43.589   8.325
  784POPC   C3A13733  23.517  43.757   7.927
  784POPC   C4A13734  23.817  43.987   7.749
  784POPC   C1B13735  23.548  44.369   8.681
  784POPC   C2B13736  23.674  44.378   8.268
  784POPC   C3B13737  23.421  44.268   7.930
  784POPC   C4B13738  23.358  44.170   7.527
  785POPC   NC313739  22.331   2.562   9.499
  785POPC   PO413740  21.862   3.152   9.388
  785POPC   GL113741  22.189   2.920   9.160
  785POPC   GL213742  22.020   2.568   9.082
  785POPC   C1A13743  22.391   2.769   8.781
  785POPC   D2A13744  22.130   2.728   8.412
  785POPC   C3A13745  22.342   2.628   8.034
  785POPC   C4A13746  22.210   2.511   7.608
  785POPC   C1B13747  21.711   2.582   8.729
  785POPC   C2B13748  21.615   2.566   8.275
  785POPC   C3B13749  21.838   2.674   7.911
  785POPC   C4B13750  21.779   2.708   7.459
  786POPC   NC313751  43.412  19.826   9.884
  786POPC   PO413752  42.806  20.043   9.574
  786POPC   GL113753  42.938  19.879   9.182
  786POPC   GL213754  43.265  19.729   9.241
  786POPC   C1A13755  43.123  19.942   8.757
  786POPC   D2A13756  43.217  20.114   8.337
  786POPC   C3A13757  43.055  19.892   7.972
  786POPC   C4A13758  42.958  20.002   7.511
  786POPC   C1B13759  43.323  19.480   8.845
  786POPC   C2B13760  43.453  19.675   8.461
  786POPC   C3B13761  43.427  19.542   8.049
  786POPC   C4B13762  43.349  19.673   7.632
  787POPC   NC313763  29.263  30.373   9.525
  787POPC   PO413764  29.430  29.753   9.471
  787POPC   GL113765  29.239  29.991   9.146
  787POPC   GL213766  29.514  30.177   9.107
  787POPC   C1A13767  29.019  30.023   8.742
  787POPC   D2A13768  28.815  29.842   8.328
  787POPC   C3A13769  29.057  29.847   7.971
  787POPC   C4A13770  29.308  30.161   7.725
  787POPC   C1B13771  29.523  29.872   8.759
  787POPC   C2B13772  29.386  29.957   8.363
  787POPC   C3B13773  29.565  29.787   8.008
  787POPC   C4B13774  29.768  29.917   7.643
  788POPC   NC313775  33.687  32.859   9.599
  788POPC   PO413776  33.276  33.374   9.328
  788POPC   GL113777  33.629  33.114   9.128
  788POPC   GL213778  33.809  32.767   9.132
  788POPC   C1A13779  33.715  33.011   8.698
  788POPC   D2A13780  33.691  33.140   8.295
  788POPC   C3A13781  33.426  32.986   7.991
  788POPC   C4A13782  33.371  33.066   7.561
  788POPC   C1B13783  34.052  32.640   8.794
  788POPC   C2B13784  34.069  32.763   8.370
  788POPC   C3B13785  34.090  32.592   7.966
  788POPC   C4B13786  33.773  32.763   7.702
  789POPC   NC313787  26.690  38.026   9.517
  789POPC   PO413788  27.106  38.627   9.512
  789POPC   GL113789  26.907  38.392   9.145
  789POPC   GL213790  27.210  38.380   8.956
  789POPC   C1A13791  26.654  38.405   8.724
  789POPC   D2A13792  26.433  38.466   8.328
  789POPC   C3A13793  26.750  38.496   8.022
  789POPC   C4A13794  26.972  38.227   7.737
  789POPC   C1B13795  27.021  38.747   8.727
  789POPC   C2B13796  27.058  38.885   8.296
  789POPC   C3B13797  27.021  38.902   7.859
  789POPC   C4B13798  27.145  38.673   7.488
  790POPC   NC313799   2.577   1.773   9.504
  790POPC   PO413800   3.185   2.140   9.465
  790POPC   GL113801   2.910   1.998   9.167
  790POPC   GL213802   2.625   2.239   9.235
  790POPC   C1A13803   2.927   1.784   8.757
  790POPC   D2A13804   2.951   1.605   8.366
  790POPC   C3A13805   2.915   1.838   7.956
  790POPC   C4A13806   2.700   1.862   7.534
  790POPC   C1B13807   2.476   2.009   8.863
  790POPC   C2B13808   2.443   1.755   8.469
  790POPC   C3B13809   2.416   1.888   8.011
  790POPC   C4B13810   2.560   2.287   7.777
  791POPC   NC313811   3.044   2.598   9.430
  791POPC   PO413812   2.411   2.773   9.471
  791POPC   GL113813   2.687   2.948   9.182
  791POPC   GL213814   2.821   2.661   8.989
  791POPC   C1A13815   2.630   3.054   8.750
  791POPC   D2A13816   2.539   2.814   8.375
  791POPC   C3A13817   2.650   3.009   8.010
  791POPC   C4A13818   2.999   2.812   7.829
  791POPC   C1B13819   2.922   2.303   8.761
  791POPC   C2B13820   2.734   2.178   8.376
  791POPC   C3B13821   2.981   2.346   8.038
  791POPC   C4B13822   3.050   2.219   7.614
  792POPC   NC313823  39.313  39.740   9.409
  792POPC   PO413824  38.964  40.243   9.680
  792POPC   GL113825  39.171  40.269   9.278
  792POPC   GL213826  38.920  40.115   9.106
  792POPC   C1A13827  39.374  40.116   8.879
  792POPC   D2A13828  39.303  39.816   8.544
  792POPC   C3A13829  39.299  40.055   8.164
  792POPC   C4A13830  39.420  39.905   7.785
  792POPC   C1B13831  38.846  40.100   8.648
  792POPC   C2B13832  38.845  40.295   8.222
  792POPC   C3B13833  38.889  40.047   7.818
  792POPC   C4B13834  38.947  40.252   7.393
  793POPC   NC313835  30.976  42.816   9.803
  793POPC   PO413836  30.425  43.049   9.454
  793POPC   GL113837  30.653  43.168   9.154
  793POPC   GL213838  30.930  43.285   9.347
  793POPC   C1A13839  30.657  42.947   8.770
  793POPC   D2A13840  30.452  42.930   8.404
  793POPC   C3A13841  30.676  42.922   8.070
  793POPC   C4A13842  30.866  43.104   7.764
  793POPC   C1B13843  31.064  43.270   8.895
  793POPC   C2B13844  30.915  43.251   8.448
  793POPC   C3B13845  31.078  43.455   8.104
  793POPC   C4B13846  31.275  43.423   7.703
  794POPC   NC313847  27.316  25.828   9.483
  794POPC   PO413848  27.875  26.220   9.632
  794POPC   GL113849  27.553  26.174   9.190
  794POPC   GL213850  27.213  26.028   9.033
  794POPC   C1A13851  27.607  26.065   8.719
  794POPC   D2A13852  27.850  26.086   8.347
  794POPC   C3A13853  27.752  25.862   7.968
  794POPC   C4A13854  27.879  25.757   7.523
  794POPC   C1B13855  27.230  26.403   8.773
  794POPC   C2B13856  27.472  26.441   8.370
  794POPC   C3B13857  27.639  26.379   7.963
  794POPC   C4B13858  27.541  26.135   7.578
  795POPC   NC313859  38.879  25.735   9.477
  795POPC   PO413860  38.144  25.950   9.414
  795POPC   GL113861  38.476  25.914   9.109
  795POPC   GL213862  38.823  26.113   9.142
  795POPC   C1A13863  38.314  25.737   8.732
  795POPC   D2A13864  38.122  25.780   8.322
  795POPC   C3A13865  38.355  25.990   8.009
  795POPC   C4A13866  38.386  26.392   7.872
  795POPC   C1B13867  38.903  25.894   8.737
  795POPC   C2B13868  38.652  25.768   8.356
  795POPC   C3B13869  38.776  25.701   7.917
  795POPC   C4B13870  38.725  25.766   7.466
  796POPC   NC313871  27.198  20.498   9.459
  796POPC   PO413872  26.522  20.653   9.571
  796POPC   GL113873  26.687  20.672   9.159
  796POPC   GL213874  27.009  20.837   9.138
  796POPC   C1A13875  26.630  20.535   8.740
  796POPC   D2A13876  26.898  20.311   8.433
  796POPC   C3A13877  26.897  20.442   8.016
  796POPC   C4A13878  26.671  20.331   7.661
  796POPC   C1B13879  27.125  20.700   8.726
  796POPC   C2B13880  26.957  20.874   8.341
  796POPC   C3B13881  27.082  21.003   7.941
  796POPC   C4B13882  27.043  20.718   7.606
  797POPC   NC313883  37.286   6.114   9.373
  797POPC   PO413884  36.842   5.679   9.605
  797POPC   GL113885  36.872   5.662   9.125
  797POPC   GL213886  36.907   5.992   8.994
  797POPC   C1A13887  36.990   5.601   8.675
  797POPC   D2A13888  37.226   5.705   8.302
  797POPC   C3A13889  36.963   5.948   8.050
  797POPC   C4A13890  36.725   5.868   7.721
  797POPC   C1B13891  37.218   6.083   8.685
  797POPC   C2B13892  37.358   6.204   8.285
  797POPC   C3B13893  37.317   6.225   7.841
  797POPC   C4B13894  37.175   6.565   7.611
  798POPC   NC313895   8.676   6.123   9.449
  798POPC   PO413896   8.944   5.525   9.657
  798POPC   GL113897   8.870   5.638   9.236
  798POPC   GL213898   9.136   5.447   9.111
  798POPC   C1A13899   8.793   5.911   8.852
  798POPC   D2A13900   8.985   6.154   8.535
  798POPC   C3A13901   8.904   6.070   8.095
  798POPC   C4A13902   9.084   5.983   7.704
  798POPC   C1B13903   8.822   5.408   8.774
  798POPC   C2B13904   8.869   5.644   8.399
  798POPC   C3B13905   8.909   5.569   7.973
  798POPC   C4B13906   8.578   5.471   7.688
  799POPC   NC313907   5.505  39.374   9.500
  799POPC   PO413908   6.067  39.014   9.520
  799POPC   GL113909   5.976  39.150   9.151
  799POPC   GL213910   5.668  39.049   9.131
  799POPC   C1A13911   6.097  39.197   8.729
  799POPC   D2A13912   5.890  39.125   8.351
  799POPC   C3A13913   5.971  39.342   7.988
  799POPC   C4A13914   6.266  39.426   7.669
  799POPC   C1B13915   5.598  38.885   8.738
  799POPC   C2B13916   5.468  38.827   8.296
  799POPC   C3B13917   5.656  38.932   7.887
  799POPC   C4B13918   5.636  38.788   7.453
  800POPC   NC313919  44.885  44.964   9.565
  800POPC   PO413920  44.376  44.507   9.512
  800POPC   GL113921  44.482  44.732   9.132
  800POPC   GL213922  44.829  44.825   9.093
  800POPC   C1A13923  44.605  44.659   8.687
  800POPC   D2A13924  44.464  44.821   8.339
  800POPC   C3A13925  44.532  44.503   8.056
  800POPC   C4A13926  44.268  44.526   7.738
  800POPC   C1B13927   0.010   0.067   8.763
  800POPC   C2B13928   0.059  44.915   8.333
  800POPC   C3B13929  44.795  44.937   7.980
  800POPC   C4B13930  44.717  44.704   7.610
  801POPC   NC313931  21.652  25.229   9.505
  801POPC   PO413932  21.014  25.084   9.372
  801POPC   GL113933  21.346  25.111   9.089
  801POPC   GL213934  21.471  25.439   9.078
  801POPC   C1A13935  21.316  25.183   8.650
  801POPC   D2A13936  21.091  25.490   8.396
  801POPC   C3A13937  21.181  25.359   7.973
  801POPC   C4A13938  21.320  25.409   7.547
  801POPC   C1B13939  21.635  25.585   8.694
  801POPC   C2B13940  21.613  25.471   8.276
  801POPC   C3B13941  21.547  25.716   7.916
  801POPC   C4B13942  21.692  25.763   7.498
  802POPC   NC313943   6.591  43.789   9.848
  802POPC   PO413944   6.842  44.242   9.342
  802POPC   GL113945   6.574  44.058   9.070
  802POPC   GL213946   6.530  43.762   9.304
  802POPC   C1A13947   6.712  44.029   8.678
  802POPC   D2A13948   6.562  43.956   8.311
  802POPC   C3A13949   6.833  44.021   8.003
  802POPC   C4A13950   6.578  43.866   7.723
  802POPC   C1B13951   6.586  43.571   8.911
  802POPC   C2B13952   6.680  43.459   8.507
  802POPC   C3B13953   6.688  43.501   8.068
  802POPC   C4B13954   6.686  43.306   7.677
  803POPC   NC313955   1.546  16.865   9.428
  803POPC   PO413956   1.059  16.445   9.705
  803POPC   GL113957   1.202  16.527   9.238
  803POPC   GL213958   1.160  16.905   9.094
  803POPC   C1A13959   1.452  16.595   8.829
  803POPC   D2A13960   1.307  16.778   8.443
  803POPC   C3A13961   1.445  16.563   8.099
  803POPC   C4A13962   1.302  16.568   7.696
  803POPC   C1B13963   1.481  17.107   8.798
  803POPC   C2B13964   1.632  17.153   8.346
  803POPC   C3B13965   1.437  17.046   7.948
  803POPC   C4B13966   1.011  16.961   7.862
  804POPC   NC313967  41.707  15.828   9.626
  804POPC   PO413968  41.530  16.369   9.542
  804POPC   GL113969  41.749  16.150   9.194
  804POPC   GL213970  41.673  15.790   9.130
  804POPC   C1A13971  41.654  16.098   8.736
  804POPC   D2A13972  41.488  16.295   8.347
  804POPC   C3A13973  41.767  16.287   8.007
  804POPC   C4A13974  41.713  16.138   7.647
  804POPC   C1B13975  41.389  15.653   8.808
  804POPC   C2B13976  41.585  15.703   8.415
  804POPC   C3B13977  41.617  15.799   8.038
  804POPC   C4B13978  41.845  15.667   7.714
  805POPC   NC313979  10.683  22.826   9.576
  805POPC   PO413980  10.367  23.403   9.561
  805POPC   GL113981  10.528  23.157   9.202
  805POPC   GL213982  10.463  22.804   9.099
  805POPC   C1A13983  10.600  23.165   8.771
  805POPC   D2A13984  10.564  22.992   8.377
  805POPC   C3A13985  10.336  23.200   8.064
  805POPC   C4A13986  10.420  23.167   7.631
  805POPC   C1B13987  10.179  22.861   8.696
  805POPC   C2B13988  10.145  22.748   8.232
  805POPC   C3B13989  10.425  22.718   7.890
  805POPC   C4B13990  10.353  22.622   7.432
  806POPC   NC313991  31.740   8.849   9.800
  806POPC   PO413992  31.283   9.269   9.585
  806POPC   GL113993  31.261   9.151   9.177
  806POPC   GL213994  31.594   8.995   9.194
  806POPC   C1A13995  31.294   8.894   8.790
  806POPC   D2A13996  31.394   9.023   8.387
  806POPC   C3A13997  31.298   8.825   7.999
  806POPC   C4A13998  31.537   8.718   7.671
  806POPC   C1B13999  31.772   9.113   8.761
  806POPC   C2B14000  31.733   9.390   8.391
  806POPC   C3B14001  31.762   9.134   8.024
  806POPC   C4B14002  31.922   9.157   7.625
  807POPC   NC314003  31.853  17.684   9.619
  807POPC   PO414004  31.244  17.335   9.648
  807POPC   GL114005  31.480  17.467   9.299
  807POPC   GL214006  31.410  17.811   9.363
  807POPC   C1A14007  31.515  17.389   8.829
  807POPC   D2A14008  31.311  17.419   8.390
  807POPC   C3A14009  31.484  17.355   7.962
  807POPC   C4A14010  31.494  17.109   7.584
  807POPC   C1B14011  31.510  17.864   8.937
  807POPC   C2B14012  31.508  17.867   8.523
  807POPC   C3B14013  31.534  17.870   8.109
  807POPC   C4B14014  31.394  17.920   7.708
  808POPC   NC314015  29.641  31.076   9.185
  808POPC   PO414016  30.069  31.524   9.594
  808POPC   GL114017  30.142  31.518   9.130
  808POPC   GL214018  29.792  31.562   9.102
  808POPC   C1A14019  30.263  31.323   8.696
  808POPC   D2A14020  30.080  31.428   8.267
  808POPC   C3A14021  30.246  31.382   7.862
  808POPC   C4A14022  30.127  31.236   7.474
  808POPC   C1B14023  29.816  31.566   8.669
  808POPC   C2B14024  29.554  31.421   8.302
  808POPC   C3B14025  29.692  31.319   7.910
  808POPC   C4B14026  29.707  31.522   7.510
  809POPC   NC314027  40.770  19.296   9.384
  809POPC   PO414028  40.450  18.545   9.414
  809POPC   GL114029  40.610  18.852   9.123
  809POPC   GL214030  40.964  18.889   9.126
  809POPC   C1A14031  40.725  19.009   8.694
  809POPC   D2A14032  40.709  18.839   8.285
  809POPC   C3A14033  40.708  19.177   8.021
  809POPC   C4A14034  40.472  19.269   7.685
  809POPC   C1B14035  41.137  18.715   8.780
  809POPC   C2B14036  41.231  18.929   8.373
  809POPC   C3B14037  41.101  18.867   7.934
  809POPC   C4B14038  40.977  19.103   7.557
  810POPC   NC314039   7.983  31.776   9.495
  810POPC   PO414040   8.558  31.525   9.341
  810POPC   GL114041   8.274  31.443   9.038
  810POPC   GL214042   8.061  31.698   8.993
  810POPC   C1A14043   8.092  31.355   8.632
  810POPC   D2A14044   8.285  31.349   8.256
  810POPC   C3A14045   8.197  31.097   7.916
  810POPC   C4A14046   8.515  31.172   7.647
  810POPC   C1B14047   8.331  31.818   8.629
  810POPC   C2B14048   8.443  31.843   8.174
  810POPC   C3B14049   8.306  31.633   7.782
  810POPC   C4B14050   8.000  31.743   7.420
  811POPC   NC314051   4.130   5.734   9.555
  811POPC   PO414052   4.455   6.317   9.428
  811POPC   GL114053   4.412   5.949   9.142
  811POPC   GL214054   4.537   5.627   9.252
  811POPC   C1A14055   4.154   5.933   8.747
  811POPC   D2A14056   4.113   6.213   8.403
  811POPC   C3A14057   4.258   6.064   8.013
  811POPC   C4A14058   4.021   5.734   7.824
  811POPC   C1B14059   4.514   5.552   8.795
  811POPC   C2B14060   4.271   5.531   8.415
  811POPC   C3B14061   4.451   5.560   8.032
  811POPC   C4B14062   4.838   5.768   7.908
  812POPC   NC314063  25.201  10.237   9.562
  812POPC   PO414064  25.481  10.809   9.417
  812POPC   GL114065  25.174  10.582   9.177
  812POPC   GL214066  25.341  10.249   9.061
  812POPC   C1A14067  24.957  10.464   8.811
  812POPC   D2A14068  25.259  10.410   8.497
  812POPC   C3A14069  25.162  10.617   8.135
  812POPC   C4A14070  25.166  10.501   7.728
  812POPC   C1B14071  25.696  10.181   8.765
  812POPC   C2B14072  25.720  10.235   8.349
  812POPC   C3B14073  25.437  10.188   8.045
  812POPC   C4B14074  25.712  10.110   7.725
  813POPC   NC314075  13.775  12.533   9.248
  813POPC   PO414076  13.504  13.109   9.551
  813POPC   GL114077  13.559  13.105   9.113
  813POPC   GL214078  13.910  13.067   9.124
  813POPC   C1A14079  13.365  13.015   8.682
  813POPC   D2A14080  13.281  12.776   8.261
  813POPC   C3A14081  13.561  12.620   7.889
  813POPC   C4A14082  13.353  12.376   7.535
  813POPC   C1B14083  13.877  12.982   8.685
  813POPC   C2B14084  13.679  13.116   8.279
  813POPC   C3B14085  13.682  13.174   7.840
  813POPC   C4B14086  13.925  12.978   7.530
  814POPC   NC314087  33.262  29.530   9.298
  814POPC   PO414088  33.195  30.093   9.620
  814POPC   GL114089  32.980  29.979   9.187
  814POPC   GL214090  32.908  29.648   8.968
  814POPC   C1A14091  33.169  30.060   8.781
  814POPC   D2A14092  33.043  30.038   8.356
  814POPC   C3A14093  33.280  30.062   8.023
  814POPC   C4A14094  33.298  29.854   7.669
  814POPC   C1B14095  32.673  29.912   8.726
  814POPC   C2B14096  32.627  30.283   8.479
  814POPC   C3B14097  32.670  30.206   8.028
  814POPC   C4B14098  32.789  29.788   7.851
  815POPC   NC314099  25.270  14.881   9.521
  815POPC   PO414100  25.051  15.445   9.378
  815POPC   GL114101  25.329  15.143   9.087
  815POPC   GL214102  25.504  14.793   9.075
  815POPC   C1A14103  25.262  15.009   8.654
  815POPC   D2A14104  25.263  15.295   8.300
  815POPC   C3A14105  25.088  15.145   7.923
  815POPC   C4A14106  25.171  15.466   7.605
  815POPC   C1B14107  25.703  14.756   8.641
  815POPC   C2B14108  25.594  14.923   8.212
  815POPC   C3B14109  25.584  15.207   7.829
  815POPC   C4B14110  25.510  15.182   7.356
  816POPC   NC314111   8.102  25.455   9.380
  816POPC   PO414112   7.902  24.904   9.720
  816POPC   GL114113   7.895  24.989   9.269
  816POPC   GL214114   7.700  25.283   9.144
  816POPC   C1A14115   8.130  24.988   8.858
  816POPC   D2A14116   8.387  25.203   8.548
  816POPC   C3A14117   8.320  25.089   8.101
  816POPC   C4A14118   8.175  25.174   7.673
  816POPC   C1B14119   7.885  25.531   8.777
  816POPC   C2B14120   8.167  25.632   8.441
  816POPC   C3B14121   8.097  25.560   8.041
  816POPC   C4B14122   7.871  25.647   7.687
  817POPC   NC314123  37.116  38.178   9.426
  817POPC   PO414124  36.809  38.838   9.504
  817POPC   GL114125  36.815  38.555   9.167
  817POPC   GL214126  36.643  38.250   9.196
  817POPC   C1A14127  37.004  38.533   8.772
  817POPC   D2A14128  37.001  38.774   8.402
  817POPC   C3A14129  37.014  38.483   8.095
  817POPC   C4A14130  36.885  38.410   7.687
  817POPC   C1B14131  36.804  38.057   8.827
  817POPC   C2B14132  36.942  38.103   8.435
  817POPC   C3B14133  36.768  38.061   8.040
  817POPC   C4B14134  36.827  37.899   7.654
  818POPC   NC314135   9.374   7.310   9.410
  818POPC   PO414136   8.714   7.359   9.585
  818POPC   GL114137   8.853   7.267   9.156
  818POPC   GL214138   8.972   7.576   9.078
  818POPC   C1A14139   9.076   7.174   8.749
  818POPC   D2A14140   9.294   7.000   8.369
  818POPC   C3A14141   9.109   7.033   7.954
  818POPC   C4A14142   8.793   7.325   7.865
  818POPC   C1B14143   9.019   7.685   8.634
  818POPC   C2B14144   8.924   7.706   8.181
  818POPC   C3B14145   9.007   7.798   7.726
  818POPC   C4B14146   9.158   7.801   7.257
  819POPC   NC314147  18.926   5.566   9.412
  819POPC   PO414148  19.279   6.162   9.289
  819POPC   GL114149  18.980   5.926   9.046
  819POPC   GL214150  19.152   5.614   8.942
  819POPC   C1A14151  18.794   5.907   8.627
  819POPC   D2A14152  18.722   6.235   8.289
  819POPC   C3A14153  18.695   5.964   7.915
  819POPC   C4A14154  18.834   5.947   7.499
  819POPC   C1B14155  19.294   5.958   8.636
  819POPC   C2B14156  19.148   5.943   8.213
  819POPC   C3B14157  19.184   5.725   7.843
  819POPC   C4B14158  19.115   5.271   7.813
  820POPC   NC314159   8.615   6.810   9.826
  820POPC   PO414160   8.991   6.491   9.408
  820POPC   GL114161   8.908   6.491   9.015
  820POPC   GL214162   8.694   6.761   9.057
  820POPC   C1A14163   9.010   6.667   8.620
  820POPC   D2A14164   9.143   6.521   8.213
  820POPC   C3A14165   9.016   6.548   7.801
  820POPC   C4A14166   8.851   6.358   7.445
  820POPC   C1B14167   8.594   6.982   8.704
  820POPC   C2B14168   8.739   6.996   8.298
  820POPC   C3B14169   8.589   6.871   7.878
  820POPC   C4B14170   8.846   6.951   7.490
  821POPC   NC314171  22.963  37.553   9.548
  821POPC   PO414172  22.859  38.180   9.540
  821POPC   GL114173  23.036  37.917   9.151
  821POPC   GL214174  23.154  37.524   9.078
  821POPC   C1A14175  22.939  37.838   8.705
  821POPC   D2A14176  23.047  37.479   8.402
  821POPC   C3A14177  22.872  37.530   7.967
  821POPC   C4A14178  22.649  37.538   7.551
  821POPC   C1B14179  23.438  37.790   8.829
  821POPC   C2B14180  23.347  37.891   8.401
  821POPC   C3B14181  23.195  37.930   8.000
  821POPC   C4B14182  23.169  37.747   7.594
  822POPC   NC314183  24.430  30.036   9.528
  822POPC   PO414184  25.105  30.291   9.489
  822POPC   GL114185  24.744  30.157   9.103
  822POPC   GL214186  24.482  29.839   9.082
  822POPC   C1A14187  24.702  29.904   8.653
  822POPC   D2A14188  24.477  29.931   8.268
  822POPC   C3A14189  24.631  29.987   7.859
  822POPC   C4A14190  24.265  30.046   7.605
  822POPC   C1B14191  24.184  29.877   8.714
  822POPC   C2B14192  24.071  29.613   8.350
  822POPC   C3B14193  24.236  29.610   7.905
  822POPC   C4B14194  24.021  29.593   7.475
  823POPC   NC314195  26.694   7.716   9.332
  823POPC   PO414196  27.117   7.232   9.625
  823POPC   GL114197  26.972   7.290   9.207
  823POPC   GL214198  26.717   7.076   9.099
  823POPC   C1A14199  26.949   7.394   8.759
  823POPC   D2A14200  26.752   7.477   8.360
  823POPC   C3A14201  26.949   7.659   8.011
  823POPC   C4A14202  27.126   7.316   7.765
  823POPC   C1B14203  26.470   7.156   8.719
  823POPC   C2B14204  26.247   7.483   8.468
  823POPC   C3B14205  26.335   7.530   8.041
  823POPC   C4B14206  26.602   7.246   7.816
  824POPC   NC314207  44.259  38.279   9.459
  824POPC   PO414208  44.950  38.427   9.484
  824POPC   GL114209  44.881  38.542   9.065
  824POPC   GL214210  44.556  38.441   9.088
  824POPC   C1A14211  44.736  38.519   8.637
  824POPC   D2A14212  44.552  38.383   8.288
  824POPC   C3A14213  44.917  38.536   8.102
  824POPC   C4A14214   0.019  38.861   7.825
  824POPC   C1B14215  44.496  38.099   8.810
  824POPC   C2B14216  44.301  37.941   8.417
  824POPC   C3B14217  44.311  38.044   7.969
  824POPC   C4B14218  44.583  38.378   7.772
  825POPC   NC314219  13.957  35.824   9.456
  825POPC   PO414220  13.360  36.217   9.620
  825POPC   GL114221  13.479  36.109   9.189
  825POPC   GL214222  13.653  35.820   9.046
  825POPC   C1A14223  13.473  36.180   8.740
  825POPC   D2A14224  13.718  36.327   8.410
  825POPC   C3A14225  13.575  36.231   7.994
  825POPC   C4A14226  13.322  36.006   7.718
  825POPC   C1B14227  13.724  35.709   8.622
  825POPC   C2B14228  13.960  35.520   8.296
  825POPC   C3B14229  14.042  35.779   7.921
  825POPC   C4B14230  13.834  35.986   7.566
  826POPC   NC314231  22.267  12.545   9.438
  826POPC   PO414232  21.915  13.188   9.337
  826POPC   GL114233  22.060  12.866   9.077
  826POPC   GL214234  22.376  12.956   9.127
  826POPC   C1A14235  22.088  12.712   8.630
  826POPC   D2A14236  21.953  12.446   8.253
  826POPC   C3A14237  22.008  12.734   7.877
  826POPC   C4A14238  22.011  12.763   7.383
  826POPC   C1B14239  22.579  12.843   8.766
  826POPC   C2B14240  22.456  13.044   8.397
  826POPC   C3B14241  22.466  13.100   7.989
  826POPC   C4B14242  22.450  12.854   7.652
  827POPC   NC314243  30.375  43.609   9.303
  827POPC   PO414244  30.943  43.721   9.610
  827POPC   GL114245  30.742  43.992   9.317
  827POPC   GL214246  30.859  43.727   9.087
  827POPC   C1A14247  30.823  44.197   8.893
  827POPC   D2A14248  30.706  44.215   8.446
  827POPC   C3A14249  30.723  43.917   8.108
  827POPC   C4A14250  30.846  44.100   7.716
  827POPC   C1B14251  30.778  43.725   8.650
  827POPC   C2B14252  30.456  43.533   8.408
  827POPC   C3B14253  30.558  43.428   8.018
  827POPC   C4B14254  30.784  43.600   7.679
  828POPC   NC314255   3.295   1.630   9.448
  828POPC   PO414256   3.910   1.903   9.571
  828POPC   GL114257   3.622   1.948   9.230
  828POPC   GL214258   3.858   2.125   9.086
  828POPC   C1A14259   3.401   1.972   8.828
  828POPC   D2A14260   3.229   2.060   8.392
  828POPC   C3A14261   3.436   2.110   7.965
  828POPC   C4A14262   3.467   1.909   7.540
  828POPC   C1B14263   3.881   1.714   8.871
  828POPC   C2B14264   4.009   1.680   8.462
  828POPC   C3B14265   3.841   1.801   8.060
  828POPC   C4B14266   3.930   2.077   7.723
  829POPC   NC314267  31.591  28.090   9.539
  829POPC   PO414268  31.778  27.551   9.540
  829POPC   GL114269  31.559  27.675   9.103
  829POPC   GL214270  31.355  28.003   9.082
  829POPC   C1A14271  31.409  27.496   8.668
  829POPC   D2A14272  31.392  27.164   8.318
  829POPC   C3A14273  31.252  27.248   7.883
  829POPC   C4A14274  31.482  27.318   7.486
  829POPC   C1B14275  31.364  28.017   8.615
  829POPC   C2B14276  31.282  27.762   8.230
  829POPC   C3B14277  31.398  27.806   7.794
  829POPC   C4B14278  31.680  28.158   7.648
  830POPC   NC314279  14.933  14.161   9.458
  830POPC   PO414280  15.436  14.603   9.326
  830POPC   GL114281  15.313  14.299   9.084
  830POPC   GL214282  14.971  14.379   9.017
  830POPC   C1A14283  15.462  14.318   8.678
  830POPC   D2A14284  15.385  14.198   8.283
  830POPC   C3A14285  15.537  14.508   7.990
  830POPC   C4A14286  15.470  14.214   7.694
  830POPC   C1B14287  14.999  14.677   8.735
  830POPC   C2B14288  15.176  14.673   8.359
  830POPC   C3B14289  15.023  14.481   7.991
  830POPC   C4B14290  14.794  14.710   7.688
  831POPC   NC314291   1.527  42.930   9.360
  831POPC   PO414292   1.924  43.431   9.489
  831POPC   GL114293   1.895  43.253   9.070
  831POPC   GL214294   1.894  42.916   8.991
  831POPC   C1A14295   1.980  43.291   8.628
  831POPC   D2A14296   2.081  43.221   8.199
  831POPC   C3A14297   1.981  43.330   7.800
  831POPC   C4A14298   2.172  43.173   7.429
  831POPC   C1B14299   2.289  42.952   8.806
  831POPC   C2B14300   2.396  42.881   8.416
  831POPC   C3B14301   2.287  42.767   8.034
  831POPC   C4B14302   1.987  42.779   7.759
  832POPC   NC314303  18.010  41.008   9.559
  832POPC   PO414304  18.122  40.334   9.790
  832POPC   GL114305  18.203  40.552   9.325
  832POPC   GL214306  17.895  40.628   9.191
  832POPC   C1A14307  18.244  40.587   8.807
  832POPC   D2A14308  18.251  40.840   8.399
  832POPC   C3A14309  18.396  40.806   7.955
  832POPC   C4A14310  18.131  40.721   7.625
  832POPC   C1B14311  17.868  40.923   8.855
  832POPC   C2B14312  17.795  41.077   8.451
  832POPC   C3B14313  17.902  40.952   8.038
  832POPC   C4B14314  17.809  41.115   7.643
  833POPC   NC314315  42.195  11.990   9.680
  833POPC   PO414316  42.611  11.527   9.460
  833POPC   GL114317  42.504  11.934   9.252
  833POPC   GL214318  42.144  11.986   9.161
  833POPC   C1A14319  42.518  12.111   8.830
  833POPC   D2A14320  42.798  12.220   8.476
  833POPC   C3A14321  42.584  12.194   8.070
  833POPC   C4A14322  42.366  11.913   7.783
  833POPC   C1B14323  41.997  12.171   8.783
  833POPC   C2B14324  42.144  12.180   8.348
  833POPC   C3B14325  41.877  12.099   7.980
  833POPC   C4B14326  41.899  11.833   7.597
  834POPC   NC314327   6.218   7.179   9.411
  834POPC   PO414328   6.906   7.270   9.486
  834POPC   GL114329   6.695   7.475   9.163
  834POPC   GL214330   6.636   7.842   9.175
  834POPC   C1A14331   6.738   7.334   8.748
  834POPC   D2A14332   6.852   7.533   8.367
  834POPC   C3A14333   6.869   7.221   8.060
  834POPC   C4A14334   6.591   7.305   7.718
  834POPC   C1B14335   6.584   7.820   8.753
  834POPC   C2B14336   6.509   7.945   8.348
  834POPC   C3B14337   6.652   7.763   7.943
  834POPC   C4B14338   6.692   7.752   7.459
  835POPC   NC314339  12.575  34.979   9.497
  835POPC   PO414340  12.744  34.268   9.368
  835POPC   GL114341  12.675  34.442   9.004
  835POPC   GL214342  12.842  34.750   9.101
  835POPC   C1A14343  12.641  34.348   8.579
  835POPC   D2A14344  12.675  34.330   8.144
  835POPC   C3A14345  13.037  34.323   7.912
  835POPC   C4A14346  12.898  34.415   7.513
  835POPC   C1B14347  12.986  34.726   8.684
  835POPC   C2B14348  13.048  34.718   8.260
  835POPC   C3B14349  12.805  34.784   7.900
  835POPC   C4B14350  12.863  35.080   7.609
  836POPC   NC314351  11.939  18.269   9.770
  836POPC   PO414352  12.565  18.523   9.714
  836POPC   GL114353  12.345  18.601   9.275
  836POPC   GL214354  11.982  18.523   9.316
  836POPC   C1A14355  12.350  18.342   8.867
  836POPC   D2A14356  12.139  18.272   8.501
  836POPC   C3A14357  12.239  18.171   8.090
  836POPC   C4A14358  11.919  18.030   7.833
  836POPC   C1B14359  11.806  18.325   8.946
  836POPC   C2B14360  11.688  18.494   8.547
  836POPC   C3B14361  11.783  18.439   8.155
  836POPC   C4B14362  11.967  18.536   7.778
  837POPC   NC314363  23.984  12.132   9.524
  837POPC   PO414364  24.699  12.168   9.513
  837POPC   GL114365  24.396  12.141   9.196
  837POPC   GL214366  24.246  12.463   9.180
  837POPC   C1A14367  24.414  12.048   8.763
  837POPC   D2A14368  24.300  12.180   8.391
  837POPC   C3A14369  24.541  12.022   8.027
  837POPC   C4A14370  24.327  12.164   7.688
  837POPC   C1B14371  24.621  12.525   8.891
  837POPC   C2B14372  24.751  12.490   8.461
  837POPC   C3B14373  24.560  12.508   8.097
  837POPC   C4B14374  24.646  12.551   7.703
  838POPC   NC314375  12.701   4.015   9.750
  838POPC   PO414376  13.076   4.535   9.447
  838POPC   GL114377  12.971   4.465   8.980
  838POPC   GL214378  12.606   4.300   8.857
  838POPC   C1A14379  13.074   4.237   8.657
  838POPC   D2A14380  12.837   4.349   8.351
  838POPC   C3A14381  12.956   4.252   7.955
  838POPC   C4A14382  12.857   3.900   7.756
  838POPC   C1B14383  12.590   4.711   8.732
  838POPC   C2B14384  12.635   4.831   8.355
  838POPC   C3B14385  12.529   4.598   8.043
  838POPC   C4B14386  12.647   4.624   7.681
  839POPC   NC314387  14.134  28.143   9.749
  839POPC   PO414388  14.268  28.411   9.239
  839POPC   GL114389  14.359  28.380   8.916
  839POPC   GL214390  14.560  28.091   8.925
  839POPC   C1A14391  14.125  28.516   8.583
  839POPC   D2A14392  14.323  28.713   8.286
  839POPC   C3A14393  14.420  28.400   8.058
  839POPC   C4A14394  14.077  28.333   7.797
  839POPC   C1B14395  14.595  28.220   8.506
  839POPC   C2B14396  14.842  28.079   8.182
  839POPC   C3B14397  14.803  28.052   7.757
  839POPC   C4B14398  14.547  28.395   7.584
  840POPC   NC314399  37.436   0.158   9.646
  840POPC   PO414400  38.049   0.400   9.555
  840POPC   GL114401  37.875   0.402   9.159
  840POPC   GL214402  37.610   0.617   9.147
  840POPC   C1A14403  37.957   0.570   8.758
  840POPC   D2A14404  37.833   0.371   8.409
  840POPC   C3A14405  37.858   0.338   7.995
  840POPC   C4A14406  37.593   0.076   7.796
  840POPC   C1B14407  37.478   0.318   8.793
  840POPC   C2B14408  37.324   0.400   8.338
  840POPC   C3B14409  37.383   0.556   7.909
  840POPC   C4B14410  37.735   0.821   7.770
  841POPC   NC314411  33.225  30.562   9.626
  841POPC   PO414412  32.615  30.549   9.505
  841POPC   GL114413  32.961  30.651   9.183
  841POPC   GL214414  33.350  30.748   9.153
  841POPC   C1A14415  33.018  30.549   8.756
  841POPC   D2A14416  32.921  30.721   8.365
  841POPC   C3A14417  33.082  30.520   8.040
  841POPC   C4A14418  33.008  30.550   7.646
  841POPC   C1B14419  33.391  30.885   8.689
  841POPC   C2B14420  33.437  30.797   8.246
  841POPC   C3B14421  33.470  30.861   7.782
  841POPC   C4B14422  33.302  30.809   7.329
  842POPC   NC314423   1.499  24.290   9.380
  842POPC   PO414424   0.811  24.220   9.525
  842POPC   GL114425   0.999  24.201   9.124
  842POPC   GL214426   1.119  24.525   9.128
  842POPC   C1A14427   1.207  24.280   8.679
  842POPC   D2A14428   1.439  24.135   8.282
  842POPC   C3A14429   1.474  24.415   7.913
  842POPC   C4A14430   1.519  24.479   7.470
  842POPC   C1B14431   1.000  24.767   8.799
  842POPC   C2B14432   1.081  24.714   8.388
  842POPC   C3B14433   0.931  24.839   8.035
  842POPC   C4B14434   1.059  24.734   7.677
  843POPC   NC314435   9.282  30.682   9.814
  843POPC   PO414436   8.749  30.543   9.350
  843POPC   GL114437   8.743  30.603   8.967
  843POPC   GL214438   8.903  30.874   8.947
  843POPC   C1A14439   9.036  30.459   8.679
  843POPC   D2A14440   8.990  30.245   8.314
  843POPC   C3A14441   8.962  30.471   7.923
  843POPC   C4A14442   9.113  30.242   7.577
  843POPC   C1B14443   9.168  30.988   8.625
  843POPC   C2B14444   9.149  30.930   8.185
  843POPC   C3B14445   8.985  31.015   7.778
  843POPC   C4B14446   8.879  31.081   7.303
  844POPC   NC314447  33.043   5.552   9.587
  844POPC   PO414448  32.567   6.079   9.519
  844POPC   GL114449  32.816   5.826   9.205
  844POPC   GL214450  33.200   5.853   9.200
  844POPC   C1A14451  32.927   5.725   8.780
  844POPC   D2A14452  32.909   5.889   8.380
  844POPC   C3A14453  32.897   5.579   8.081
  844POPC   C4A14454  33.157   5.597   7.754
  844POPC   C1B14455  33.051   6.224   8.955
  844POPC   C2B14456  32.782   6.376   8.620
  844POPC   C3B14457  32.820   6.348   8.167
  844POPC   C4B14458  33.037   6.121   7.843
  845POPC   NC314459   4.039  38.911   9.231
  845POPC   PO414460   3.439  38.983   9.539
  845POPC   GL114461   3.325  38.976   9.110
  845POPC   GL214462   3.064  38.770   9.078
  845POPC   C1A14463   3.352  39.154   8.703
  845POPC   D2A14464   3.109  39.356   8.370
  845POPC   C3A14465   3.355  39.455   8.005
  845POPC   C4A14466   3.740  39.427   7.757
  845POPC   C1B14467   3.179  38.661   8.658
  845POPC   C2B14468   3.484  38.796   8.347
  845POPC   C3B14469   3.654  38.952   7.968
  845POPC   C4B14470   3.434  38.998   7.575
  846POPC   NC314471  13.096   5.050   9.503
  846POPC   PO414472  12.501   5.386   9.600
  846POPC   GL114473  12.633   5.204   9.145
  846POPC   GL214474  12.730   4.852   9.200
  846POPC   C1A14475  12.769   5.333   8.689
  846POPC   D2A14476  13.008   5.170   8.315
  846POPC   C3A14477  12.800   5.082   7.906
  846POPC   C4A14478  12.549   5.100   7.496
  846POPC   C1B14479  13.024   4.946   8.886
  846POPC   C2B14480  13.095   4.735   8.549
  846POPC   C3B14481  13.122   4.701   8.122
  846POPC   C4B14482  13.134   4.744   7.705
  847POPC   NC314483  13.538   4.501   9.498
  847POPC   PO414484  13.190   3.934   9.335
  847POPC   GL114485  13.391   4.216   9.100
  847POPC   GL214486  13.729   4.216   9.089
  847POPC   C1A14487  13.482   4.555   8.810
  847POPC   D2A14488  13.513   4.448   8.384
  847POPC   C3A14489  13.645   4.632   7.994
  847POPC   C4A14490  13.476   4.376   7.671
  847POPC   C1B14491  13.928   3.938   8.810
  847POPC   C2B14492  13.817   3.923   8.386
  847POPC   C3B14493  13.759   4.129   8.021
  847POPC   C4B14494  14.000   4.259   7.687
  848POPC   NC314495  41.190  42.960   9.526
  848POPC   PO414496  41.818  43.179   9.706
  848POPC   GL114497  41.889  43.150   9.223
  848POPC   GL214498  42.025  43.425   8.996
  848POPC   C1A14499  41.542  43.055   8.894
  848POPC   D2A14500  41.326  43.157   8.481
  848POPC   C3A14501  41.480  43.233   8.066
  848POPC   C4A14502  41.332  43.097   7.666
  848POPC   C1B14503  41.863  43.238   8.559
  848POPC   C2B14504  41.790  42.842   8.352
  848POPC   C3B14505  41.883  42.917   7.942
  848POPC   C4B14506  41.954  43.399   7.908
  849POPC   NC314507  39.922  13.257   9.482
  849POPC   PO414508  40.360  12.682   9.553
  849POPC   GL114509  40.105  12.809   9.213
  849POPC   GL214510  40.239  13.111   9.100
  849POPC   C1A14511  39.841  12.737   8.843
  849POPC   D2A14512  39.945  12.543   8.441
  849POPC   C3A14513  39.704  12.682   8.113
  849POPC   C4A14514  39.710  12.819   7.712
  849POPC   C1B14515  40.310  12.931   8.732
  849POPC   C2B14516  40.377  12.821   8.349
  849POPC   C3B14517  40.168  12.805   7.991
  849POPC   C4B14518  40.170  12.990   7.583
  850POPC   NC314519  24.125  42.846   9.224
  850POPC   PO414520  24.465  43.369   9.558
  850POPC   GL114521  24.478  43.407   9.125
  850POPC   GL214522  24.120  43.372   9.128
  850POPC   C1A14523  24.730  43.295   8.724
  850POPC   D2A14524  24.732  43.042   8.326
  850POPC   C3A14525  24.788  43.173   7.894
  850POPC   C4A14526  24.542  42.818   7.702
  850POPC   C1B14527  24.228  43.566   8.703
  850POPC   C2B14528  24.423  43.467   8.314
  850POPC   C3B14529  24.298  43.143   8.037
  850POPC   C4B14530  24.154  43.148   7.638
  851POPC   NC314531  26.386  12.988   9.491
  851POPC   PO414532  25.749  13.176   9.371
  851POPC   GL114533  26.060  12.994   9.083
  851POPC   GL214534  26.440  13.161   9.035
  851POPC   C1A14535  25.971  12.652   8.783
  851POPC   D2A14536  25.801  12.615   8.396
  851POPC   C3A14537  26.034  12.591   8.031
  851POPC   C4A14538  26.014  12.738   7.617
  851POPC   C1B14539  26.411  12.860   8.743
  851POPC   C2B14540  26.221  12.919   8.355
  851POPC   C3B14541  26.374  12.970   7.901
  851POPC   C4B14542  26.384  13.106   7.412
  852POPC   NC314543  11.945   3.378   9.598
  852POPC   PO414544  12.287   3.923   9.502
  852POPC   GL114545  12.087   3.621   9.190
  852POPC   GL214546  12.317   3.327   9.214
  852POPC   C1A14547  12.066   3.498   8.758
  852POPC   D2A14548  11.881   3.626   8.363
  852POPC   C3A14549  11.823   3.326   8.063
  852POPC   C4A14550  11.995   3.392   7.659
  852POPC   C1B14551  12.452   3.148   8.805
  852POPC   C2B14552  12.434   2.997   8.371
  852POPC   C3B14553  12.278   3.089   7.974
  852POPC   C4B14554  12.317   3.047   7.521
  853POPC   NC314555  41.139  21.141   9.475
  853POPC   PO414556  40.593  20.724   9.588
  853POPC   GL114557  40.620  20.721   9.174
  853POPC   GL214558  40.897  20.872   9.105
  853POPC   C1A14559  40.513  20.785   8.773
  853POPC   D2A14560  40.385  20.592   8.399
  853POPC   C3A14561  40.546  20.708   8.012
  853POPC   C4A14562  40.351  20.564   7.652
  853POPC   C1B14563  41.062  20.841   8.704
  853POPC   C2B14564  41.100  21.065   8.319
  853POPC   C3B14565  41.048  20.936   7.892
  853POPC   C4B14566  40.995  20.518   7.800
  854POPC   NC314567  42.643  18.627   9.410
  854POPC   PO414568  42.676  19.288   9.348
  854POPC   GL114569  42.391  19.006   9.074
  854POPC   GL214570  42.035  19.073   8.949
  854POPC   C1A14571  42.565  18.819   8.679
  854POPC   D2A14572  42.891  18.866   8.313
  854POPC   C3A14573  42.676  18.843   7.914
  854POPC   C4A14574  42.492  19.239   7.775
  854POPC   C1B14575  42.120  19.324   8.587
  854POPC   C2B14576  42.151  19.288   8.137
  854POPC   C3B14577  42.006  19.081   7.732
  854POPC   C4B14578  41.914  18.909   7.287
  855POPC   NC314579  34.209  23.442   9.516
  855POPC   PO414580  34.699  23.993   9.429
  855POPC   GL114581  34.505  23.815   9.091
  855POPC   GL214582  34.602  23.493   9.106
  855POPC   C1A14583  34.605  23.894   8.665
  855POPC   D2A14584  34.641  23.638   8.303
  855POPC   C3A14585  34.673  23.901   7.983
  855POPC   C4A14586  34.398  24.021   7.698
  855POPC   C1B14587  34.436  23.363   8.720
  855POPC   C2B14588  34.224  23.330   8.311
  855POPC   C3B14589  34.253  23.551   7.927
  855POPC   C4B14590  34.579  23.490   7.645
  856POPC   NC314591  34.014  25.266   9.494
  856POPC   PO414592  33.880  24.551   9.564
  856POPC   GL114593  33.823  24.877   9.205
  856POPC   GL214594  34.104  25.026   9.033
  856POPC   C1A14595  33.683  25.169   8.826
  856POPC   D2A14596  33.906  25.260   8.422
  856POPC   C3A14597  33.717  25.250   7.976
  856POPC   C4A14598  33.861  25.147   7.531
  856POPC   C1B14599  34.132  25.456   8.866
  856POPC   C2B14600  34.193  25.710   8.502
  856POPC   C3B14601  34.211  25.521   8.121
  856POPC   C4B14602  34.020  25.589   7.757
  857POPC   NC314603  31.677  29.705   9.517
  857POPC   PO414604  31.343  30.338   9.498
  857POPC   GL114605  31.408  30.027   9.165
  857POPC   GL214606  31.448  29.646   9.070
  857POPC   C1A14607  31.644  30.074   8.784
  857POPC   D2A14608  31.825  29.786   8.478
  857POPC   C3A14609  31.608  29.805   8.070
  857POPC   C4A14610  31.647  30.057   7.723
  857POPC   C1B14611  31.237  29.754   8.670
  857POPC   C2B14612  31.027  29.713   8.241
  857POPC   C3B14613  31.140  29.850   7.812
  857POPC   C4B14614  31.386  29.752   7.419
  858POPC   NC314615   5.380  10.808   9.574
  858POPC   PO414616   6.078  10.522   9.509
  858POPC   GL114617   6.020  10.688   9.148
  858POPC   GL214618   5.672  10.637   9.179
  858POPC   C1A14619   6.177  10.554   8.762
  858POPC   D2A14620   6.150  10.320   8.377
  858POPC   C3A14621   6.183  10.543   7.979
  858POPC   C4A14622   6.080  10.802   7.564
  858POPC   C1B14623   5.695  10.771   8.766
  858POPC   C2B14624   5.701  10.601   8.353
  858POPC   C3B14625   5.740  10.799   7.972
  858POPC   C4B14626   5.561  10.772   7.578
  859POPC   NC314627   5.157  12.865   9.638
  859POPC   PO414628   5.471  13.399   9.438
  859POPC   GL114629   5.230  13.048   9.157
  859POPC   GL214630   4.873  12.859   9.196
  859POPC   C1A14631   5.102  12.872   8.728
  859POPC   D2A14632   5.038  13.013   8.289
  859POPC   C3A14633   5.067  12.693   7.953
  859POPC   C4A14634   5.426  12.670   7.661
  859POPC   C1B14635   4.617  13.024   8.844
  859POPC   C2B14636   4.537  12.985   8.393
  859POPC   C3B14637   4.651  13.021   7.932
  859POPC   C4B14638   4.639  12.712   7.581
  860POPC   NC314639  42.527   1.055   9.931
  860POPC   PO414640  42.045   1.412   9.728
  860POPC   GL114641  42.279   1.202   9.321
  860POPC   GL214642  42.533   1.466   9.188
  860POPC   C1A14643  42.475   1.049   8.898
  860POPC   D2A14644  42.499   1.179   8.482
  860POPC   C3A14645  42.350   0.942   8.147
  860POPC   C4A14646  42.323   0.821   7.715
  860POPC   C1B14647  42.421   1.632   8.751
  860POPC   C2B14648  42.086   1.478   8.483
  860POPC   C3B14649  42.029   1.360   8.082
  860POPC   C4B14650  42.342   1.343   7.788
  861POPC   NC314651  10.795  31.788   9.485
  861POPC   PO414652  10.255  32.283   9.552
  861POPC   GL114653  10.426  32.294   9.167
  861POPC   GL214654  10.490  31.948   9.103
  861POPC   C1A14655  10.314  32.368   8.758
  861POPC   D2A14656  10.520  32.365   8.371
  861POPC   C3A14657  10.412  32.575   8.002
  861POPC   C4A14658  10.617  32.430   7.576
  861POPC   C1B14659  10.432  31.874   8.673
  861POPC   C2B14660  10.193  31.973   8.314
  861POPC   C3B14661  10.352  32.076   7.900
  861POPC   C4B14662  10.633  31.880   7.652
  862POPC   NC314663  38.891  31.138   9.450
  862POPC   PO414664  39.536  31.230   9.460
  862POPC   GL114665  39.179  31.436   9.127
  862POPC   GL214666  38.941  31.217   8.972
  862POPC   C1A14667  39.007  31.594   8.670
  862POPC   D2A14668  39.235  31.727   8.311
  862POPC   C3A14669  39.229  31.586   7.877
  862POPC   C4A14670  39.259  31.515   7.420
  862POPC   C1B14671  39.169  31.045   8.641
  862POPC   C2B14672  39.217  31.211   8.291
  862POPC   C3B14673  39.064  31.103   7.928
  862POPC   C4B14674  38.884  31.224   7.583
  863POPC   NC314675  41.925  19.055   9.435
  863POPC   PO414676  41.281  18.759   9.490
  863POPC   GL114677  41.525  18.841   9.146
  863POPC   GL214678  41.529  19.195   9.121
  863POPC   C1A14679  41.614  18.865   8.724
  863POPC   D2A14680  41.753  19.058   8.349
  863POPC   C3A14681  41.606  18.889   8.010
  863POPC   C4A14682  41.488  18.924   7.609
  863POPC   C1B14683  41.555  19.368   8.696
  863POPC   C2B14684  41.731  19.581   8.353
  863POPC   C3B14685  41.691  19.420   7.953
  863POPC   C4B14686  41.313  19.374   7.805
  864POPC   NC314687   1.275   7.254   9.340
  864POPC   PO414688   1.387   7.836   9.391
  864POPC   GL114689   1.285   7.697   9.017
  864POPC   GL214690   0.984   7.564   9.063
  864POPC   C1A14691   1.180   7.655   8.608
  864POPC   D2A14692   1.404   7.403   8.377
  864POPC   C3A14693   1.276   7.420   7.997
  864POPC   C4A14694   1.361   7.123   7.738
  864POPC   C1B14695   0.996   7.202   8.753
  864POPC   C2B14696   0.858   7.291   8.355
  864POPC   C3B14697   0.765   7.473   7.978
  864POPC   C4B14698   0.858   7.154   7.700
  865POPC   NC314699  34.314  34.922   9.412
  865POPC   PO414700  34.109  34.279   9.507
  865POPC   GL114701  34.244  34.492   9.138
  865POPC   GL214702  34.595  34.603   9.111
  865POPC   C1A14703  34.221  34.591   8.706
  865POPC   D2A14704  34.445  34.424   8.328
  865POPC   C3A14705  34.303  34.398   7.886
  865POPC   C4A14706  34.481  34.602   7.497
  865POPC   C1B14707  34.704  34.771   8.688
  865POPC   C2B14708  34.727  34.859   8.269
  865POPC   C3B14709  34.762  34.610   7.939
  865POPC   C4B14710  34.988  34.564   7.585
  866POPC   NC314711  22.251   3.411   9.426
  866POPC   PO414712  22.105   4.070   9.599
  866POPC   GL114713  22.198   3.861   9.185
  866POPC   GL214714  22.001   3.590   9.031
  866POPC   C1A14715  22.393   3.824   8.775
  866POPC   D2A14716  22.174   3.630   8.442
  866POPC   C3A14717  22.286   3.723   8.061
  866POPC   C4A14718  22.138   3.515   7.754
  866POPC   C1B14719  22.302   3.294   8.794
  866POPC   C2B14720  22.422   3.150   8.388
  866POPC   C3B14721  22.160   3.106   8.047
  866POPC   C4B14722  22.304   3.030   7.635
  867POPC   NC314723  24.455  40.392   9.601
  867POPC   PO414724  24.683  39.807   9.524
  867POPC   GL114725  24.439  39.949   9.153
  867POPC   GL214726  24.228  40.236   9.146
  867POPC   C1A14727  24.536  39.855   8.698
  867POPC   D2A14728  24.564  40.022   8.281
  867POPC   C3A14729  24.721  39.894   7.866
  867POPC   C4A14730  24.498  39.959   7.430
  867POPC   C1B14731  24.376  40.366   8.725
  867POPC   C2B14732  24.327  40.456   8.261
  867POPC   C3B14733  24.360  40.270   7.833
  867POPC   C4B14734  24.191  40.372   7.410
  868POPC   NC314735  10.941   3.683   9.573
  868POPC   PO414736  11.606   3.696   9.568
  868POPC   GL114737  11.317   3.719   9.213
  868POPC   GL214738  11.481   3.986   9.106
  868POPC   C1A14739  11.193   3.515   8.796
  868POPC   D2A14740  11.397   3.464   8.379
  868POPC   C3A14741  11.172   3.492   7.980
  868POPC   C4A14742  11.111   3.381   7.528
  868POPC   C1B14743  11.631   3.781   8.796
  868POPC   C2B14744  11.532   3.980   8.439
  868POPC   C3B14745  11.457   3.931   8.034
  868POPC   C4B14746  11.588   3.666   7.749
  869POPC   NC314747   9.259  11.152   9.460
  869POPC   PO414748   8.659  11.216   9.756
  869POPC   GL114749   8.729  11.263   9.233
  869POPC   GL214750   9.027  11.452   9.121
  869POPC   C1A14751   8.622  11.428   8.823
  869POPC   D2A14752   8.841  11.643   8.491
  869POPC   C3A14753   8.659  11.550   8.105
  869POPC   C4A14754   8.822  11.264   7.854
  869POPC   C1B14755   9.043  11.149   8.780
  869POPC   C2B14756   9.108  10.946   8.377
  869POPC   C3B14757   9.268  11.030   7.988
  869POPC   C4B14758   9.293  11.467   7.799
  870POPC   NC314759   3.831  34.429   9.613
  870POPC   PO414760   3.249  34.359   9.573
  870POPC   GL114761   3.456  34.602   9.230
  870POPC   GL214762   3.824  34.620   9.140
  870POPC   C1A14763   3.374  34.576   8.777
  870POPC   D2A14764   3.083  34.490   8.395
  870POPC   C3A14765   3.153  34.713   8.006
  870POPC   C4A14766   3.145  34.600   7.553
  870POPC   C1B14767   4.082  34.586   8.776
  870POPC   C2B14768   4.077  34.314   8.401
  870POPC   C3B14769   3.937  34.384   7.983
  870POPC   C4B14770   3.631  34.648   7.764
  871POPC   NC314771   4.002  21.885   9.498
  871POPC   PO414772   4.699  21.838   9.411
  871POPC   GL114773   4.393  22.095   9.148
  871POPC   GL214774   4.023  22.244   9.135
  871POPC   C1A14775   4.431  22.125   8.704
  871POPC   D2A14776   4.442  22.010   8.263
  871POPC   C3A14777   4.507  22.263   7.879
  871POPC   C4A14778   4.719  22.472   7.503
  871POPC   C1B14779   3.939  22.105   8.783
  871POPC   C2B14780   4.024  22.316   8.419
  871POPC   C3B14781   3.968  22.121   8.054
  871POPC   C4B14782   4.030  22.308   7.690
  872POPC   NC314783  34.990   6.951   9.751
  872POPC   PO414784  35.405   7.471   9.489
  872POPC   GL114785  35.489   7.370   9.099
  872POPC   GL214786  35.579   7.027   9.167
  872POPC   C1A14787  35.351   7.170   8.701
  872POPC   D2A14788  35.298   7.165   8.273
  872POPC   C3A14789  35.353   7.573   8.183
  872POPC   C4A14790  35.403   7.522   7.790
  872POPC   C1B14791  35.847   7.197   8.813
  872POPC   C2B14792  35.767   7.371   8.432
  872POPC   C3B14793  35.873   7.380   8.018
  872POPC   C4B14794  35.768   7.139   7.671
  873POPC   NC314795  26.333  31.248   9.402
  873POPC   PO414796  25.920  30.742   9.694
  873POPC   GL114797  25.976  30.639   9.268
  873POPC   GL214798  26.186  30.862   9.133
  873POPC   C1A14799  25.919  30.625   8.797
  873POPC   D2A14800  26.010  30.755   8.403
  873POPC   C3A14801  25.814  30.655   8.027
  873POPC   C4A14802  25.981  30.577   7.654
  873POPC   C1B14803  26.315  31.051   8.756
  873POPC   C2B14804  26.454  31.020   8.349
  873POPC   C3B14805  26.322  30.795   7.989
  873POPC   C4B14806  26.340  31.019   7.622
  874POPC   NC314807  36.980  12.442   9.454
  874POPC   PO414808  37.233  11.820   9.307
  874POPC   GL114809  37.171  12.192   9.050
  874POPC   GL214810  36.829  12.200   9.023
  874POPC   C1A14811  37.138  12.278   8.608
  874POPC   D2A14812  37.204  12.180   8.196
  874POPC   C3A14813  36.962  11.820   8.119
  874POPC   C4A14814  36.601  11.810   7.897
  874POPC   C1B14815  36.649  12.385   8.652
  874POPC   C2B14816  36.638  12.231   8.207
  874POPC   C3B14817  36.876  12.314   7.804
  874POPC   C4B14818  36.672  12.508   7.406
  875POPC   NC314819  29.113  42.516   9.615
  875POPC   PO414820  29.097  41.898   9.477
  875POPC   GL114821  28.933  42.270   9.192
  875POPC   GL214822  28.994  42.661   9.152
  875POPC   C1A14823  28.835  42.220   8.773
  875POPC   D2A14824  29.057  42.092   8.440
  875POPC   C3A14825  28.951  42.279   8.048
  875POPC   C4A14826  29.150  42.170   7.677
  875POPC   C1B14827  29.274  42.447   8.866
  875POPC   C2B14828  29.139  42.586   8.474
  875POPC   C3B14829  29.295  42.667   8.083
  875POPC   C4B14830  29.374  42.627   7.663
  876POPC   NC314831  25.912   4.670   9.577
  876POPC   PO414832  25.987   4.058   9.441
  876POPC   GL114833  26.101   4.189   9.079
  876POPC   GL214834  25.868   4.455   9.078
  876POPC   C1A14835  26.329   4.014   8.741
  876POPC   D2A14836  26.274   3.963   8.314
  876POPC   C3A14837  25.966   4.205   8.113
  876POPC   C4A14838  26.060   4.341   7.706
  876POPC   C1B14839  25.930   4.355   8.628
  876POPC   C2B14840  26.024   4.667   8.317
  876POPC   C3B14841  25.981   4.815   7.927
  876POPC   C4B14842  25.701   4.703   7.634
  877POPC   NC314843   2.985   0.915   9.481
  877POPC   PO414844   3.641   1.230   9.425
  877POPC   GL114845   3.399   0.958   9.147
  877POPC   GL214846   3.181   1.219   9.121
  877POPC   C1A14847   3.375   0.965   8.697
  877POPC   D2A14848   3.238   1.177   8.337
  877POPC   C3A14849   3.466   1.124   7.971
  877POPC   C4A14850   3.716   1.426   7.720
  877POPC   C1B14851   3.353   1.462   8.798
  877POPC   C2B14852   3.496   1.630   8.436
  877POPC   C3B14853   3.358   1.614   8.035
  877POPC   C4B14854   3.182   1.475   7.656
  878POPC   NC314855  19.812  35.558   9.439
  878POPC   PO414856  20.224  35.005   9.507
  878POPC   GL114857  20.069  35.221   9.118
  878POPC   GL214858  19.686  35.283   8.998
  878POPC   C1A14859  20.063  35.390   8.700
  878POPC   D2A14860  19.712  35.321   8.417
  878POPC   C3A14861  19.946  35.334   8.034
  878POPC   C4A14862  20.149  35.626   7.745
  878POPC   C1B14863  19.642  35.713   8.827
  878POPC   C2B14864  19.757  35.855   8.437
  878POPC   C3B14865  19.618  35.740   8.040
  878POPC   C4B14866  19.732  35.890   7.641
  879POPC   NC314867  34.346  24.542   9.492
  879POPC   PO414868  34.995  24.699   9.533
  879POPC   GL114869  34.848  24.583   9.117
  879POPC   GL214870  34.517  24.705   9.042
  879POPC   C1A14871  34.827  24.626   8.643
  879POPC   D2A14872  34.639  24.318   8.352
  879POPC   C3A14873  34.737  24.408   7.943
  879POPC   C4A14874  34.766  24.313   7.505
  879POPC   C1B14875  34.319  24.785   8.651
  879POPC   C2B14876  34.139  24.460   8.401
  879POPC   C3B14877  34.204  24.375   7.994
  879POPC   C4B14878  34.331  24.604   7.678
  880POPC   NC314879   9.429  12.110   9.500
  880POPC   PO414880  10.003  11.607   9.553
  880POPC   GL114881   9.863  11.953   9.230
  880POPC   GL214882   9.489  11.984   9.020
  880POPC   C1A14883   9.917  12.165   8.816
  880POPC   D2A14884   9.760  11.975   8.439
  880POPC   C3A14885   9.912  12.195   8.058
  880POPC   C4A14886   9.661  12.362   7.722
  880POPC   C1B14887   9.314  11.647   8.748
  880POPC   C2B14888   9.385  11.573   8.307
  880POPC   C3B14889   9.521  11.881   7.979
  880POPC   C4B14890   9.531  11.914   7.526
  881POPC   NC314891  13.387  38.897   9.704
  881POPC   PO414892  12.696  39.073   9.613
  881POPC   GL114893  12.811  38.994   9.124
  881POPC   GL214894  12.526  38.915   8.911
  881POPC   C1A14895  12.970  39.195   8.752
  881POPC   D2A14896  13.163  39.319   8.370
  881POPC   C3A14897  12.853  39.363   8.027
  881POPC   C4A14898  12.812  39.622   7.659
  881POPC   C1B14899  12.427  38.574   8.613
  881POPC   C2B14900  12.548  38.653   8.181
  881POPC   C3B14901  12.767  38.897   7.832
  881POPC   C4B14902  12.679  38.851   7.376
  882POPC   NC314903   0.134  30.185   9.411
  882POPC   PO414904   0.366  30.789   9.389
  882POPC   GL114905   0.552  30.647   8.999
  882POPC   GL214906   0.581  30.315   9.049
  882POPC   C1A14907   0.742  30.486   8.588
  882POPC   D2A14908   0.586  30.367   8.162
  882POPC   C3A14909   0.456  30.656   7.864
  882POPC   C4A14910   0.205  30.644   7.479
  882POPC   C1B14911   0.256  30.307   8.713
  882POPC   C2B14912   0.043  30.231   8.299
  882POPC   C3B14913   0.131  30.270   7.848
  882POPC   C4B14914   0.106  30.148   7.382
  883POPC   NC314915  30.675  41.254   9.459
  883POPC   PO414916  30.846  40.588   9.319
  883POPC   GL114917  30.663  40.933   9.058
  883POPC   GL214918  30.348  41.153   9.050
  883POPC   C1A14919  30.748  40.930   8.640
  883POPC   D2A14920  31.072  40.822   8.376
  883POPC   C3A14921  30.948  40.646   8.011
  883POPC   C4A14922  31.017  41.020   7.835
  883POPC   C1B14923  30.234  40.753   8.848
  883POPC   C2B14924  30.405  40.579   8.488
  883POPC   C3B14925  30.446  40.758   8.114
  883POPC   C4B14926  30.272  40.722   7.735
  884POPC   NC314927  28.925   7.602   9.504
  884POPC   PO414928  29.568   7.408   9.474
  884POPC   GL114929  29.235   7.375   9.158
  884POPC   GL214930  29.150   7.731   9.067
  884POPC   C1A14931  29.039   7.367   8.728
  884POPC   D2A14932  29.143   7.555   8.311
  884POPC   C3A14933  28.868   7.464   7.940
  884POPC   C4A14934  28.790   7.038   7.726
  884POPC   C1B14935  29.168   7.963   8.690
  884POPC   C2B14936  29.371   8.022   8.297
  884POPC   C3B14937  29.122   7.921   7.915
  884POPC   C4B14938  29.199   7.710   7.519
  885POPC   NC314939  37.102   4.297   9.604
  885POPC   PO414940  36.544   4.177   9.335
  885POPC   GL114941  36.814   4.355   9.058
  885POPC   GL214942  37.159   4.443   9.095
  885POPC   C1A14943  36.656   4.368   8.663
  885POPC   D2A14944  36.422   4.433   8.331
  885POPC   C3A14945  36.626   4.309   8.007
  885POPC   C4A14946  36.619   4.168   7.572
  885POPC   C1B14947  37.168   4.402   8.648
  885POPC   C2B14948  37.175   4.286   8.224
  885POPC   C3B14949  37.055   4.526   7.846
  885POPC   C4B14950  36.884   4.655   7.443
  886POPC   NC314951  35.396  21.978   9.415
  886POPC   PO414952  34.871  22.443   9.474
  886POPC   GL114953  35.073  22.359   9.094
  886POPC   GL214954  35.409  22.381   9.089
  886POPC   C1A14955  35.098  22.115   8.712
  886POPC   D2A14956  34.876  22.113   8.299
  886POPC   C3A14957  35.171  22.223   7.968
  886POPC   C4A14958  35.452  22.234   7.640
  886POPC   C1B14959  35.620  22.238   8.723
  886POPC   C2B14960  35.578  22.163   8.291
  886POPC   C3B14961  35.645  21.875   7.949
  886POPC   C4B14962  35.687  21.826   7.458
  887POPC   NC314963  15.528  36.705   9.426
  887POPC   PO414964  15.087  37.168   9.661
  887POPC   GL114965  15.176  37.105   9.212
  887POPC   GL214966  15.459  37.035   9.066
  887POPC   C1A14967  15.066  37.083   8.754
  887POPC   D2A14968  15.271  37.079   8.371
  887POPC   C3A14969  15.286  36.853   7.972
  887POPC   C4A14970  15.491  36.811   7.565
  887POPC   C1B14971  15.506  36.745   8.741
  887POPC   C2B14972  15.665  36.764   8.344
  887POPC   C3B14973  15.673  36.523   8.031
  887POPC   C4B14974  15.870  36.515   7.690
  888POPC   NC314975  17.822  13.610   9.581
  888POPC   PO414976  17.368  14.106   9.380
  888POPC   GL114977  17.485  13.713   9.198
  888POPC   GL214978  17.160  13.614   9.223
  888POPC   C1A14979  17.591  13.608   8.777
  888POPC   D2A14980  17.718  13.797   8.397
  888POPC   C3A14981  17.508  13.638   8.040
  888POPC   C4A14982  17.582  13.627   7.594
  888POPC   C1B14983  17.119  13.390   8.821
  888POPC   C2B14984  17.289  13.304   8.416
  888POPC   C3B14985  17.143  13.249   8.023
  888POPC   C4B14986  17.357  13.184   7.684
  889POPC   NC314987   4.217  39.794   9.414
  889POPC   PO414988   4.725  40.126   9.278
  889POPC   GL114989   4.604  39.746   9.063
  889POPC   GL214990   4.271  39.628   8.918
  889POPC   C1A14991   4.636  39.861   8.675
  889POPC   D2A14992   4.641  40.187   8.431
  889POPC   C3A14993   4.652  40.008   8.039
  889POPC   C4A14994   4.533  40.162   7.664
  889POPC   C1B14995   4.193  40.095   8.826
  889POPC   C2B14996   4.084  40.329   8.456
  889POPC   C3B14997   3.958  40.171   8.073
  889POPC   C4B14998   4.101  39.850   7.758
  890POPC   NC314999  13.022  39.343   9.416
  890POPC   PO415000  12.741  39.985   9.380
  890POPC   GL115001  12.828  40.097   8.985
  890POPC   GL215002  12.946  40.409   8.992
  890POPC   C1A15003  12.949  40.090   8.579
  890POPC   D2A15004  12.777  39.823   8.270
  890POPC   C3A15005  12.734  40.042   7.891
  890POPC   C4A15006  12.776  40.031   7.379
  890POPC   C1B15007  13.236  40.515   8.690
  890POPC   C2B15008  13.487  40.430   8.360
  890POPC   C3B15009  13.257  40.260   8.015
  890POPC   C4B15010  12.958  40.426   7.689
  891POPC   NC315011   8.723   3.577   9.939
  891POPC   PO415012   9.271   3.501   9.484
  891POPC   GL115013   9.220   3.671   9.070
  891POPC   GL215014   8.889   3.827   9.092
  891POPC   C1A15015   9.152   3.584   8.635
  891POPC   D2A15016   8.837   3.666   8.337
  891POPC   C3A15017   8.931   3.408   8.017
  891POPC   C4A15018   8.701   3.236   7.717
  891POPC   C1B15019   9.093   4.087   8.782
  891POPC   C2B15020   9.162   4.086   8.352
  891POPC   C3B15021   9.115   3.882   7.942
  891POPC   C4B15022   8.743   3.781   7.720
  892POPC   NC315023  33.659  12.706   9.704
  892POPC   PO415024  33.591  13.270   9.341
  892POPC   GL115025  33.897  12.946   9.237
  892POPC   GL215026  33.859  12.565   9.239
  892POPC   C1A15027  33.950  13.003   8.807
  892POPC   D2A15028  33.995  12.776   8.419
  892POPC   C3A15029  34.089  12.999   8.035
  892POPC   C4A15030  34.177  12.798   7.651
  892POPC   C1B15031  33.718  12.547   8.813
  892POPC   C2B15032  33.582  12.479   8.386
  892POPC   C3B15033  33.692  12.614   7.972
  892POPC   C4B15034  33.346  12.767   7.751
  893POPC   NC315035  37.336   7.721   9.588
  893POPC   PO415036  37.795   7.198   9.445
  893POPC   GL115037  37.484   7.342   9.159
  893POPC   GL215038  37.651   7.660   9.130
  893POPC   C1A15039  37.364   7.512   8.726
  893POPC   D2A15040  37.580   7.602   8.333
  893POPC   C3A15041  37.419   7.430   7.973
  893POPC   C4A15042  37.486   7.591   7.569
  893POPC   C1B15043  37.882   7.446   8.754
  893POPC   C2B15044  38.076   7.417   8.322
  893POPC   C3B15045  37.926   7.555   7.921
  893POPC   C4B15046  37.895   7.911   7.651
  894POPC   NC315047  20.422  15.730   9.998
  894POPC   PO415048  20.755  16.212   9.698
  894POPC   GL115049  20.754  16.211   9.268
  894POPC   GL215050  20.465  16.017   9.224
  894POPC   C1A15051  20.808  16.064   8.843
  894POPC   D2A15052  20.722  16.224   8.453
  894POPC   C3A15053  20.846  16.030   8.108
  894POPC   C4A15054  20.633  16.118   7.762
  894POPC   C1B15055  20.467  15.688   8.916
  894POPC   C2B15056  20.348  15.643   8.504
  894POPC   C3B15057  20.402  15.718   8.082
  894POPC   C4B15058  20.124  15.454   7.866
  895POPC   NC315059  14.101  30.762   9.560
  895POPC   PO415060  14.785  30.794   9.488
  895POPC   GL115061  14.460  30.630   9.195
  895POPC   GL215062  14.125  30.490   9.144
  895POPC   C1A15063  14.458  30.578   8.747
  895POPC   D2A15064  14.456  30.843   8.372
  895POPC   C3A15065  14.675  30.715   7.996
  895POPC   C4A15066  14.510  30.660   7.591
  895POPC   C1B15067  13.917  30.439   8.797
  895POPC   C2B15068  14.072  30.488   8.405
  895POPC   C3B15069  14.181  30.587   8.004
  895POPC   C4B15070  13.974  30.650   7.667
  896POPC   NC315071  43.347  25.661   9.372
  896POPC   PO415072  43.971  25.462   9.486
  896POPC   GL115073  43.983  25.290   9.080
  896POPC   GL215074  43.957  24.919   9.088
  896POPC   C1A15075  44.129  25.267   8.681
  896POPC   D2A15076  44.351  25.402   8.341
  896POPC   C3A15077  44.039  25.422   8.059
  896POPC   C4A15078  44.054  25.576   7.686
  896POPC   C1B15079  43.726  24.944   8.735
  896POPC   C2B15080  43.735  25.132   8.352
  896POPC   C3B15081  43.529  25.033   7.979
  896POPC   C4B15082  43.683  24.803   7.625
  897POPC   NC315083   2.989  44.378   9.540
  897POPC   PO415084   2.549  44.874   9.592
  897POPC   GL115085   2.780  44.745   9.224
  897POPC   GL215086   2.617  44.439   9.174
  897POPC   C1A15087   2.656  44.784   8.779
  897POPC   D2A15088   2.738   0.012   8.406
  897POPC   C3A15089   2.509  44.939   8.045
  897POPC   C4A15090   2.451  44.624   7.750
  897POPC   C1B15091   2.706  44.282   8.784
  897POPC   C2B15092   2.537  44.397   8.414
  897POPC   C3B15093   2.691  44.231   8.034
  897POPC   C4B15094   2.937  44.497   7.833
  898POPC   NC315095  31.210  30.847   9.541
  898POPC   PO415096  30.676  30.537   9.764
  898POPC   GL115097  30.655  30.564   9.297
  898POPC   GL215098  30.985  30.536   9.210
  898POPC   C1A15099  30.667  30.621   8.829
  898POPC   D2A15100  30.524  30.815   8.415
  898POPC   C3A15101  30.466  30.589   8.021
  898POPC   C4A15102  30.615  30.770   7.642
  898POPC   C1B15103  31.127  30.820   8.882
  898POPC   C2B15104  31.046  30.713   8.474
  898POPC   C3B15105  30.942  30.702   8.071
  898POPC   C4B15106  31.119  30.717   7.703
  899POPC   NC315107  15.019   1.778   9.945
  899POPC   PO415108  15.303   2.251   9.486
  899POPC   GL115109  15.181   2.138   9.076
  899POPC   GL215110  15.188   1.789   9.081
  899POPC   C1A15111  15.400   2.017   8.700
  899POPC   D2A15112  15.215   1.820   8.393
  899POPC   C3A15113  15.411   1.958   8.029
  899POPC   C4A15114  15.475   2.187   7.625
  899POPC   C1B15115  14.914   1.522   8.817
  899POPC   C2B15116  14.755   1.589   8.392
  899POPC   C3B15117  14.924   1.739   7.988
  899POPC   C4B15118  15.106   1.827   7.629
  900POPC   NC315119   3.020  13.050   9.305
  900POPC   PO415120   2.297  13.139   9.282
  900POPC   GL115121   2.594  13.014   8.997
  900POPC   GL215122   2.791  12.724   8.961
  900POPC   C1A15123   2.854  13.203   8.706
  900POPC   D2A15124   2.916  12.973   8.359
  900POPC   C3A15125   3.030  13.213   8.046
  900POPC   C4A15126   2.711  13.148   7.789
  900POPC   C1B15127   2.461  12.577   8.736
  900POPC   C2B15128   2.421  12.779   8.375
  900POPC   C3B15129   2.592  12.699   7.985
  900POPC   C4B15130   2.554  12.539   7.587
  901POPC   NC315131  27.931  16.601   9.457
  901POPC   PO415132  27.239  16.713   9.527
  901POPC   GL115133  27.295  16.867   9.124
  901POPC   GL215134  27.652  16.840   9.097
  901POPC   C1A15135  27.404  17.020   8.707
  901POPC   D2A15136  27.641  16.792   8.418
  901POPC   C3A15137  27.437  16.806   8.051
  901POPC   C4A15138  27.444  16.984   7.658
  901POPC   C1B15139  27.866  16.539   8.825
  901POPC   C2B15140  28.045  16.474   8.440
  901POPC   C3B15141  27.965  16.456   7.998
  901POPC   C4B15142  27.682  16.553   7.664
  902POPC   NC315143  44.991  24.315   9.351
  902POPC   PO415144  44.408  24.649   9.446
  902POPC   GL115145  44.744  24.731   9.151
  902POPC   GL215146  44.628  24.422   9.004
  902POPC   C1A15147  44.851  24.936   8.744
  902POPC   D2A15148   0.007  24.777   8.354
  902POPC   C3A15149  44.670  24.666   8.110
  902POPC   C4A15150  44.700  24.699   7.696
  902POPC   C1B15151  44.698  24.425   8.580
  902POPC   C2B15152  44.763  24.140   8.249
  902POPC   C3B15153  44.721  24.212   7.834
  902POPC   C4B15154  44.449  24.280   7.469
  903POPC   NC315155  18.188  14.698   9.460
  903POPC   PO415156  18.581  14.162   9.196
  903POPC   GL115157  18.463  14.371   8.891
  903POPC   GL215158  18.212  14.544   8.983
  903POPC   C1A15159  18.549  14.281   8.517
  903POPC   D2A15160  18.654  14.250   8.127
  903POPC   C3A15161  18.382  14.373   7.818
  903POPC   C4A15162  18.258  14.090   7.515
  903POPC   C1B15163  18.024  14.317   8.621
  903POPC   C2B15164  18.132  14.066   8.248
  903POPC   C3B15165  17.914  13.954   7.876
  903POPC   C4B15166  17.853  14.355   7.727
  904POPC   NC315167  38.638   3.207   9.556
  904POPC   PO415168  38.182   3.697   9.572
  904POPC   GL115169  38.308   3.467   9.201
  904POPC   GL215170  38.683   3.517   9.143
  904POPC   C1A15171  38.328   3.602   8.770
  904POPC   D2A15172  38.611   3.793   8.459
  904POPC   C3A15173  38.569   3.652   8.025
  904POPC   C4A15174  38.397   3.397   7.694
  904POPC   C1B15175  38.784   3.337   8.712
  904POPC   C2B15176  38.903   3.225   8.274
  904POPC   C3B15177  38.843   3.236   7.828
  904POPC   C4B15178  38.823   3.224   7.370
  905POPC   NC315179  43.043  37.359   9.610
  905POPC   PO415180  43.514  37.770   9.529
  905POPC   GL115181  43.680  37.756   9.109
  905POPC   GL215182  43.520  37.425   9.079
  905POPC   C1A15183  43.751  37.960   8.679
  905POPC   D2A15184  43.516  37.929   8.266
  905POPC   C3A15185  43.818  37.849   7.925
  905POPC   C4A15186  44.153  37.535   7.977
  905POPC   C1B15187  43.431  37.586   8.675
  905POPC   C2B15188  43.403  37.374   8.285
  905POPC   C3B15189  43.615  37.300   7.900
  905POPC   C4B15190  43.651  37.522   7.522
  906POPC   NC315191   8.760  20.115   9.588
  906POPC   PO415192   9.269  19.624   9.546
  906POPC   GL115193   9.136  19.927   9.221
  906POPC   GL215194   9.458  19.852   9.089
  906POPC   C1A15195   8.940  19.982   8.818
  906POPC   D2A15196   8.701  19.907   8.446
  906POPC   C3A15197   8.887  19.876   8.036
  906POPC   C4A15198   9.077  19.581   7.742
  906POPC   C1B15199   9.424  20.155   8.778
  906POPC   C2B15200   9.243  20.136   8.368
  906POPC   C3B15201   9.392  20.001   7.954
  906POPC   C4B15202   9.420  20.197   7.581
  907POPC   NC315203  18.377  33.701   9.401
  907POPC   PO415204  18.376  32.995   9.573
  907POPC   GL115205  18.156  32.957   9.199
  907POPC   GL215206  17.822  32.825   9.219
  907POPC   C1A15207  18.132  33.177   8.810
  907POPC   D2A15208  18.139  33.034   8.398
  907POPC   C3A15209  18.183  33.281   8.038
  907POPC   C4A15210  18.400  33.121   7.677
  907POPC   C1B15211  18.034  32.635   8.818
  907POPC   C2B15212  17.982  32.559   8.363
  907POPC   C3B15213  18.166  32.748   7.971
  907POPC   C4B15214  18.279  32.604   7.545
  908POPC   NC315215   3.452   7.900   9.521
  908POPC   PO415216   3.355   8.436   9.243
  908POPC   GL115217   3.694   8.215   9.116
  908POPC   GL215218   3.606   7.880   9.045
  908POPC   C1A15219   3.840   8.367   8.745
  908POPC   D2A15220   3.656   8.391   8.356
  908POPC   C3A15221   3.906   8.445   7.995
  908POPC   C4A15222   3.664   8.258   7.692
  908POPC   C1B15223   3.285   7.790   8.731
  908POPC   C2B15224   3.108   7.758   8.312
  908POPC   C3B15225   3.242   7.959   7.917
  908POPC   C4B15226   3.332   7.907   7.489
  909POPC   NC315227  22.071   0.041   9.479
  909POPC   PO415228  22.192  44.369   9.444
  909POPC   GL115229  22.176  44.569   9.063
  909POPC   GL215230  22.440  44.364   8.902
  909POPC   C1A15231  22.338  44.932   8.778
  909POPC   D2A15232  22.387   0.180   8.380
  909POPC   C3A15233  22.362  44.848   8.075
  909POPC   C4A15234  22.054  44.831   7.777
  909POPC   C1B15235  22.123  44.490   8.565
  909POPC   C2B15236  22.082  44.396   8.123
  909POPC   C3B15237  21.866  44.356   7.705
  909POPC   C4B15238  21.951  44.146   7.279
  910POPC   NC315239  25.778  39.277   9.421
  910POPC   PO415240  26.390  39.429   9.623
  910POPC   GL115241  26.228  39.367   9.130
  910POPC   GL215242  25.914  39.106   8.993
  910POPC   C1A15243  26.227  39.265   8.663
  910POPC   D2A15244  25.922  39.397   8.367
  910POPC   C3A15245  26.080  39.481   7.968
  910POPC   C4A15246  26.067  39.172   7.711
  910POPC   C1B15247  25.840  38.896   8.652
  910POPC   C2B15248  26.100  38.885   8.320
  910POPC   C3B15249  25.813  38.875   8.039
  910POPC   C4B15250  25.797  38.738   7.645
  911POPC   NC315251  13.088  22.781   9.532
  911POPC   PO415252  12.685  23.277   9.392
  911POPC   GL115253  12.861  23.058   9.075
  911POPC   GL215254  12.775  22.697   9.082
  911POPC   C1A15255  12.715  23.192   8.681
  911POPC   D2A15256  12.832  23.153   8.284
  911POPC   C3A15257  12.727  22.798   8.069
  911POPC   C4A15258  12.678  22.968   7.710
  911POPC   C1B15259  12.744  22.655   8.612
  911POPC   C2B15260  13.102  22.553   8.296
  911POPC   C3B15261  13.199  22.450   7.874
  911POPC   C4B15262  12.947  22.567   7.527
  912POPC   NC315263  15.688  15.736   9.573
  912POPC   PO415264  16.278  16.001   9.542
  912POPC   GL115265  16.048  16.077   9.157
  912POPC   GL215266  15.811  15.827   9.084
  912POPC   C1A15267  15.958  16.163   8.733
  912POPC   D2A15268  15.952  15.827   8.461
  912POPC   C3A15269  16.114  15.936   8.081
  912POPC   C4A15270  16.025  15.763   7.709
  912POPC   C1B15271  15.517  15.904   8.749
  912POPC   C2B15272  15.465  16.091   8.380
  912POPC   C3B15273  15.610  15.889   8.026
  912POPC   C4B15274  15.625  16.140   7.677
  913POPC   NC315275  36.651   7.008   9.441
  913POPC   PO415276  36.865   6.359   9.341
  913POPC   GL115277  37.116   6.524   9.011
  913POPC   GL215278  37.063   6.860   9.123
  913POPC   C1A15279  37.111   6.597   8.537
  913POPC   D2A15280  36.778   6.379   8.262
  913POPC   C3A15281  36.744   6.388   7.791
  913POPC   C4A15282  36.630   6.578   7.314
  913POPC   C1B15283  36.703   6.756   8.815
  913POPC   C2B15284  36.701   6.889   8.394
  913POPC   C3B15285  36.957   6.821   8.024
  913POPC   C4B15286  36.656   6.899   7.700
  914POPC   NC315287  32.699   8.100   9.358
  914POPC   PO415288  33.122   8.565   9.585
  914POPC   GL115289  33.149   8.422   9.158
  914POPC   GL215290  33.088   8.097   9.052
  914POPC   C1A15291  33.086   8.478   8.726
  914POPC   D2A15292  33.296   8.577   8.368
  914POPC   C3A15293  33.021   8.497   8.055
  914POPC   C4A15294  32.920   8.331   7.673
  914POPC   C1B15295  32.904   8.005   8.668
  914POPC   C2B15296  32.713   8.143   8.282
  914POPC   C3B15297  32.718   7.915   7.874
  914POPC   C4B15298  33.049   7.649   7.700
  915POPC   NC315299   5.506  24.301   9.377
  915POPC   PO415300   4.845  24.199   9.482
  915POPC   GL115301   5.056  24.423   9.150
  915POPC   GL215302   5.192  24.760   9.205
  915POPC   C1A15303   4.968  24.582   8.749
  915POPC   D2A15304   5.138  24.430   8.388
  915POPC   C3A15305   4.958  24.576   8.000
  915POPC   C4A15306   5.152  24.527   7.594
  915POPC   C1B15307   5.448  24.740   8.807
  915POPC   C2B15308   5.392  24.889   8.376
  915POPC   C3B15309   5.480  24.697   7.966
  915POPC   C4B15310   5.570  24.820   7.531
  916POPC   NC315311  10.827  37.374   9.442
  916POPC   PO415312  11.217  37.888   9.786
  916POPC   GL115313  11.150  37.771   9.333
  916POPC   GL215314  11.462  37.654   9.199
  916POPC   C1A15315  11.069  37.757   8.881
  916POPC   D2A15316  11.307  37.811   8.488
  916POPC   C3A15317  11.065  37.777   8.122
  916POPC   C4A15318  11.245  37.923   7.763
  916POPC   C1B15319  11.441  37.417   8.791
  916POPC   C2B15320  11.235  37.304   8.453
  916POPC   C3B15321  11.464  37.418   8.115
  916POPC   C4B15322  11.305  37.419   7.759
  917POPC   NC315323  26.233  22.558   9.482
  917POPC   PO415324  25.795  22.119   9.271
  917POPC   GL115325  25.947  21.917   8.960
  917POPC   GL215326  26.268  21.877   9.092
  917POPC   C1A15327  25.965  21.983   8.547
  917POPC   D2A15328  26.203  22.300   8.375
  917POPC   C3A15329  26.083  22.308   7.997
  917POPC   C4A15330  26.287  22.104   7.727
  917POPC   C1B15331  26.479  21.953   8.676
  917POPC   C2B15332  26.380  21.804   8.257
  917POPC   C3B15333  25.978  21.804   8.048
  917POPC   C4B15334  25.944  21.760   7.590
  918POPC   NC315335  10.892  17.182   9.529
  918POPC   PO415336  10.575  16.563   9.553
  918POPC   GL115337  10.520  16.896   9.233
  918POPC   GL215338  10.308  16.651   9.124
  918POPC   C1A15339  10.327  17.040   8.823
  918POPC   D2A15340  10.169  17.200   8.439
  918POPC   C3A15341  10.213  16.982   8.049
  918POPC   C4A15342  10.610  16.939   7.862
  918POPC   C1B15343  10.589  16.569   8.768
  918POPC   C2B15344  10.612  16.274   8.401
  918POPC   C3B15345  10.654  16.330   7.942
  918POPC   C4B15346  10.334  16.551   7.695
  919POPC   NC315347  12.851  33.035   9.741
  919POPC   PO415348  12.563  32.554   9.315
  919POPC   GL115349  12.619  32.903   9.046
  919POPC   GL215350  12.777  33.197   9.197
  919POPC   C1A15351  12.683  33.001   8.636
  919POPC   D2A15352  12.411  32.910   8.292
  919POPC   C3A15353  12.722  32.943   7.981
  919POPC   C4A15354  12.985  32.664   7.753
  919POPC   C1B15355  13.036  33.365   8.830
  919POPC   C2B15356  13.210  33.345   8.434
  919POPC   C3B15357  12.993  33.388   8.064
  919POPC   C4B15358  13.052  33.201   7.674
  920POPC   NC315359  36.791  21.559  10.032
  920POPC   PO415360  37.016  21.206   9.538
  920POPC   GL115361  36.928  21.388   9.151
  920POPC   GL215362  37.265  21.341   9.019
  920POPC   C1A15363  36.757  21.282   8.719
  920POPC   D2A15364  36.863  21.043   8.309
  920POPC   C3A15365  37.069  21.251   8.001
  920POPC   C4A15366  36.864  21.470   7.649
  920POPC   C1B15367  37.064  21.698   8.768
  920POPC   C2B15368  36.854  21.647   8.372
  920POPC   C3B15369  37.054  21.772   8.029
  920POPC   C4B15370  37.110  21.915   7.650
  921POPC   NC315371  34.385  22.627   9.534
  921POPC   PO415372  34.688  23.244   9.559
  921POPC   GL115373  34.661  22.978   9.204
  921POPC   GL215374  34.355  23.044   9.147
  921POPC   C1A15375  34.804  23.006   8.777
  921POPC   D2A15376  34.725  23.133   8.353
  921POPC   C3A15377  34.621  22.986   7.947
  921POPC   C4A15378  34.917  23.097   7.630
  921POPC   C1B15379  34.198  22.752   8.878
  921POPC   C2B15380  34.274  22.835   8.504
  921POPC   C3B15381  34.135  22.820   8.134
  921POPC   C4B15382  34.258  22.572   7.819
  922POPC   NC315383  34.763   4.537   9.604
  922POPC   PO415384  34.229   4.101   9.493
  922POPC   GL115385  34.475   4.355   9.210
  922POPC   GL215386  34.849   4.228   9.204
  922POPC   C1A15387  34.501   4.270   8.778
  922POPC   D2A15388  34.396   3.999   8.472
  922POPC   C3A15389  34.275   4.141   8.049
  922POPC   C4A15390  34.494   4.289   7.679
  922POPC   C1B15391  35.006   4.346   8.802
  922POPC   C2B15392  34.906   4.478   8.402
  922POPC   C3B15393  34.821   4.236   8.056
  922POPC   C4B15394  35.024   4.223   7.641
  923POPC   NC315395  41.350  39.022   9.438
  923POPC   PO415396  41.700  39.639   9.503
  923POPC   GL115397  41.555  39.429   9.149
  923POPC   GL215398  41.714  39.113   9.113
  923POPC   C1A15399  41.376  39.263   8.749
  923POPC   D2A15400  41.270  39.387   8.329
  923POPC   C3A15401  41.265  39.158   7.952
  923POPC   C4A15402  41.377  39.397   7.593
  923POPC   C1B15403  41.809  38.959   8.728
  923POPC   C2B15404  41.766  39.230   8.383
  923POPC   C3B15405  41.719  39.424   7.992
  923POPC   C4B15406  41.828  39.166   7.662
  924POPC   NC315407   4.557  35.100   9.496
  924POPC   PO415408   4.099  35.647   9.257
  924POPC   GL115409   4.358  35.581   8.915
  924POPC   GL215410   4.531  35.332   9.027
  924POPC   C1A15411   4.488  35.452   8.505
  924POPC   D2A15412   4.124  35.355   8.250
  924POPC   C3A15413   4.083  35.559   7.850
  924POPC   C4A15414   3.935  35.532   7.441
  924POPC   C1B15415   4.550  34.972   8.746
  924POPC   C2B15416   4.595  34.981   8.290
  924POPC   C3B15417   4.465  35.224   7.914
  924POPC   C4B15418   4.401  35.299   7.455
  925POPC   NC315419   1.691  17.018   9.984
  925POPC   PO415420   1.978  16.588   9.571
  925POPC   GL115421   1.959  16.740   9.169
  925POPC   GL215422   2.268  16.639   9.097
  925POPC   C1A15423   1.944  16.892   8.776
  925POPC   D2A15424   1.823  16.669   8.446
  925POPC   C3A15425   1.943  16.840   8.099
  925POPC   C4A15426   1.783  16.719   7.737
  925POPC   C1B15427   2.394  16.452   8.740
  925POPC   C2B15428   2.371  16.619   8.320
  925POPC   C3B15429   2.445  16.466   7.923
  925POPC   C4B15430   2.157  16.454   7.545
  926POPC   NC315431  38.061  15.311   9.311
  926POPC   PO415432  38.615  14.994   9.546
  926POPC   GL115433  38.478  15.081   9.138
  926POPC   GL215434  38.615  15.406   9.158
  926POPC   C1A15435  38.228  14.997   8.746
  926POPC   D2A15436  38.423  14.928   8.365
  926POPC   C3A15437  38.249  14.805   7.978
  926POPC   C4A15438  38.454  14.974   7.611
  926POPC   C1B15439  38.417  15.471   8.771
  926POPC   C2B15440  38.582  15.414   8.381
  926POPC   C3B15441  38.407  15.320   7.991
  926POPC   C4B15442  38.473  15.481   7.586
  927POPC   NC315443  27.393  12.525   9.510
  927POPC   PO415444  27.449  13.112   9.528
  927POPC   GL115445  27.492  12.881   9.154
  927POPC   GL215446  27.238  13.120   9.054
  927POPC   C1A15447  27.748  12.677   8.803
  927POPC   D2A15448  27.882  12.884   8.422
  927POPC   C3A15449  27.801  12.766   7.997
  927POPC   C4A15450  27.703  12.668   7.570
  927POPC   C1B15451  27.287  12.855   8.690
  927POPC   C2B15452  27.357  12.804   8.277
  927POPC   C3B15453  27.320  12.918   7.835
  927POPC   C4B15454  27.227  12.737   7.435
  928POPC   NC315455  31.365  18.535   9.592
  928POPC   PO415456  31.916  18.086   9.360
  928POPC   GL115457  31.719  18.356   9.081
  928POPC   GL215458  31.414  18.293   9.153
  928POPC   C1A15459  31.738  18.315   8.648
  928POPC   D2A15460  31.711  18.568   8.269
  928POPC   C3A15461  31.641  18.337   7.874
  928POPC   C4A15462  31.709  18.322   7.405
  928POPC   C1B15463  31.196  18.204   8.763
  928POPC   C2B15464  31.262  18.327   8.371
  928POPC   C3B15465  31.139  18.240   8.006
  928POPC   C4B15466  31.196  18.357   7.562
  929POPC   NC315467   4.570   0.610   9.082
  929POPC   PO415468   4.162   0.129   9.405
  929POPC   GL115469   4.182   0.173   9.011
  929POPC   GL215470   3.919   0.422   9.048
  929POPC   C1A15471   4.435   0.016   8.667
  929POPC   D2A15472   4.274   0.263   8.382
  929POPC   C3A15473   4.567   0.348   8.034
  929POPC   C4A15474   4.537   0.215   7.609
  929POPC   C1B15475   3.824   0.689   8.739
  929POPC   C2B15476   4.069   0.766   8.411
  929POPC   C3B15477   4.074   0.550   8.023
  929POPC   C4B15478   4.307   0.663   7.693
  930POPC   NC315479   6.606  23.514   9.454
  930POPC   PO415480   6.310  24.038   9.196
  930POPC   GL115481   6.580  23.744   9.021
  930POPC   GL215482   6.913  23.840   9.111
  930POPC   C1A15483   6.664  23.489   8.673
  930POPC   D2A15484   6.441  23.445   8.279
  930POPC   C3A15485   6.674  23.561   7.906
  930POPC   C4A15486   6.806  23.389   7.513
  930POPC   C1B15487   6.799  24.083   8.742
  930POPC   C2B15488   6.601  24.130   8.374
  930POPC   C3B15489   6.782  24.060   7.996
  930POPC   C4B15490   6.556  24.044   7.672
  931POPC   NC315491  36.580   5.987   9.400
  931POPC   PO415492  35.921   6.059   9.519
  931POPC   GL115493  36.138   5.824   9.157
  931POPC   GL215494  36.387   5.548   9.191
  931POPC   C1A15495  35.979   5.780   8.712
  931POPC   D2A15496  35.940   5.951   8.303
  931POPC   C3A15497  35.927   5.691   7.941
  931POPC   C4A15498  35.842   5.437   7.553
  931POPC   C1B15499  36.487   5.747   8.767
  931POPC   C2B15500  36.529   5.901   8.338
  931POPC   C3B15501  36.344   6.074   7.961
  931POPC   C4B15502  36.403   6.142   7.457
  932POPC   NC315503  41.129  36.337   9.581
  932POPC   PO415504  41.671  36.079   9.540
  932POPC   GL115505  41.599  35.948   9.133
  932POPC   GL215506  41.337  36.181   9.133
  932POPC   C1A15507  41.604  36.088   8.715
  932POPC   D2A15508  41.927  36.316   8.558
  932POPC   C3A15509  41.811  36.231   8.136
  932POPC   C4A15510  41.890  36.358   7.712
  932POPC   C1B15511  41.173  35.828   8.863
  932POPC   C2B15512  41.180  35.771   8.400
  932POPC   C3B15513  41.208  35.876   7.951
  932POPC   C4B15514  41.371  36.263   7.729
  933POPC   NC315515  14.801  23.985   9.453
  933POPC   PO415516  14.968  23.297   9.285
  933POPC   GL115517  14.927  23.696   9.058
  933POPC   GL215518  15.219  23.910   9.113
  933POPC   C1A15519  14.894  24.061   8.760
  933POPC   D2A15520  14.898  24.203   8.345
  933POPC   C3A15521  15.039  23.960   8.008
  933POPC   C4A15522  15.139  23.943   7.590
  933POPC   C1B15523  15.290  23.741   8.686
  933POPC   C2B15524  15.298  23.600   8.251
  933POPC   C3B15525  15.404  23.553   7.810
  933POPC   C4B15526  15.623  23.747   7.453
  934POPC   NC315527   0.517   9.589   9.884
  934POPC   PO415528   0.537  10.093   9.427
  934POPC   GL115529   0.340   9.785   9.142
  934POPC   GL215530   0.516  10.007   8.931
  934POPC   C1A15531   0.141   9.760   8.706
  934POPC   D2A15532   0.133  10.012   8.305
  934POPC   C3A15533   0.276   9.898   7.879
  934POPC   C4A15534   0.306   9.892   7.389
  934POPC   C1B15535   0.709   9.721   8.692
  934POPC   C2B15536   0.626   9.751   8.265
  934POPC   C3B15537   0.775   9.779   7.852
  934POPC   C4B15538   0.630   9.535   7.529
  935POPC   NC315539  20.853  11.197   9.810
  935POPC   PO415540  21.418  11.137   9.392
  935POPC   GL115541  21.351  11.304   8.967
  935POPC   GL215542  21.167  11.627   9.061
  935POPC   C1A15543  21.574  11.343   8.587
  935POPC   D2A15544  21.803  11.044   8.336
  935POPC   C3A15545  21.699  11.151   7.934
  935POPC   C4A15546  21.374  11.116   7.665
  935POPC   C1B15547  21.033  11.486   8.627
  935POPC   C2B15548  21.194  11.394   8.204
  935POPC   C3B15549  20.999  11.413   7.805
  935POPC   C4B15550  20.983  11.334   7.356
  936POPC   NC315551  39.944  29.497   9.479
  936POPC   PO415552  40.197  28.830   9.464
  936POPC   GL115553  40.114  29.113   9.115
  936POPC   GL215554  39.809  29.356   9.028
  936POPC   C1A15555  40.223  29.315   8.740
  936POPC   D2A15556  40.015  29.483   8.393
  936POPC   C3A15557  40.218  29.288   8.037
  936POPC   C4A15558  40.038  29.101   7.680
  936POPC   C1B15559  39.734  29.026   8.764
  936POPC   C2B15560  39.835  29.004   8.348
  936POPC   C3B15561  39.619  29.060   7.970
  936POPC   C4B15562  39.606  28.853   7.568
  937POPC   NC315563  42.775  35.837   9.438
  937POPC   PO415564  43.367  36.310   9.290
  937POPC   GL115565  43.056  36.116   9.096
  937POPC   GL215566  42.918  36.390   9.051
  937POPC   C1A15567  43.080  36.047   8.656
  937POPC   D2A15568  43.383  36.147   8.323
  937POPC   C3A15569  43.250  36.043   7.900
  937POPC   C4A15570  42.959  35.905   7.604
  937POPC   C1B15571  43.125  36.553   8.723
  937POPC   C2B15572  42.994  36.466   8.336
  937POPC   C3B15573  43.199  36.543   7.980
  937POPC   C4B15574  42.937  36.412   7.660
  938POPC   NC315575  42.410   6.717   9.475
  938POPC   PO415576  42.379   6.025   9.404
  938POPC   GL115577  42.204   6.427   9.111
  938POPC   GL215578  42.322   6.809   9.008
  938POPC   C1A15579  42.253   6.463   8.658
  938POPC   D2A15580  42.404   6.133   8.409
  938POPC   C3A15581  42.267   6.273   8.037
  938POPC   C4A15582  42.235   6.459   7.653
  938POPC   C1B15583  42.552   6.923   8.641
  938POPC   C2B15584  42.408   6.763   8.234
  938POPC   C3B15585  42.358   6.964   7.804
  938POPC   C4B15586  42.288   6.857   7.334
  939POPC   NC315587   4.692  16.140   9.685
  939POPC   PO415588   4.148  15.789   9.530
  939POPC   GL115589   4.445  15.816   9.174
  939POPC   GL215590   4.140  15.854   9.022
  939POPC   C1A15591   4.486  15.949   8.695
  939POPC   D2A15592   4.506  15.773   8.285
  939POPC   C3A15593   4.599  16.076   7.960
  939POPC   C4A15594   4.772  16.501   7.801
  939POPC   C1B15595   3.905  15.947   8.670
  939POPC   C2B15596   4.014  15.871   8.254
  939POPC   C3B15597   4.122  15.927   7.815
  939POPC   C4B15598   4.401  15.736   7.576
  940POPC   NC315599   7.774   1.768   9.356
  940POPC   PO415600   7.627   2.281   9.720
  940POPC   GL115601   7.510   2.354   9.246
  940POPC   GL215602   7.412   2.016   9.096
  940POPC   C1A15603   7.197   2.419   8.878
  940POPC   D2A15604   7.150   2.181   8.462
  940POPC   C3A15605   7.403   2.079   8.140
  940POPC   C4A15606   7.283   2.126   7.726
  940POPC   C1B15607   7.192   1.743   8.776
  940POPC   C2B15608   7.109   1.668   8.334
  940POPC   C3B15609   7.271   1.631   7.900
  940POPC   C4B15610   7.499   1.752   7.471
  941POPC   NC315611  35.608  21.082   9.486
  941POPC   PO415612  36.195  20.764   9.494
  941POPC   GL115613  36.410  20.481   9.218
  941POPC   GL215614  36.098  20.564   9.039
  941POPC   C1A15615  36.422  20.310   8.778
  941POPC   D2A15616  36.105  20.545   8.552
  941POPC   C3A15617  35.980  20.603   8.169
  941POPC   C4A15618  36.039  20.611   7.746
  941POPC   C1B15619  36.000  20.967   8.877
  941POPC   C2B15620  35.930  21.052   8.480
  941POPC   C3B15621  35.934  21.103   8.082
  941POPC   C4B15622  35.687  21.007   7.748
  942POPC   NC315623  37.287  13.733   9.412
  942POPC   PO415624  37.770  13.298   9.558
  942POPC   GL115625  37.809  13.582   9.208
  942POPC   GL215626  37.743  13.952   9.241
  942POPC   C1A15627  37.949  13.529   8.792
  942POPC   D2A15628  37.851  13.714   8.396
  942POPC   C3A15629  37.688  13.426   8.101
  942POPC   C4A15630  37.687  13.534   7.679
  942POPC   C1B15631  37.546  13.959   8.815
  942POPC   C2B15632  37.375  14.070   8.387
  942POPC   C3B15633  37.466  13.909   7.976
  942POPC   C4B15634  37.225  13.751   7.609
  943POPC   NC315635  15.773  17.469   9.614
  943POPC   PO415636  15.156  17.705   9.428
  943POPC   GL115637  15.195  17.341   9.160
  943POPC   GL215638  15.550  17.204   9.211
  943POPC   C1A15639  15.120  17.426   8.741
  943POPC   D2A15640  14.808  17.428   8.408
  943POPC   C3A15641  14.978  17.394   8.018
  943POPC   C4A15642  14.943  17.769   7.761
  943POPC   C1B15643  15.585  17.551   8.929
  943POPC   C2B15644  15.582  17.544   8.496
  943POPC   C3B15645  15.422  17.606   8.103
  943POPC   C4B15646  15.359  17.510   7.697
  944POPC   NC315647  11.447  36.859   9.609
  944POPC   PO415648  11.585  36.225   9.468
  944POPC   GL115649  11.367  36.211   9.096
  944POPC   GL215650  11.038  36.087   9.133
  944POPC   C1A15651  11.371  36.409   8.732
  944POPC   D2A15652  11.593  36.426   8.368
  944POPC   C3A15653  11.546  36.094   8.070
  944POPC   C4A15654  11.484  36.324   7.695
  944POPC   C1B15655  10.891  36.183   8.736
  944POPC   C2B15656  11.110  36.056   8.370
  944POPC   C3B15657  11.055  36.134   7.938
  944POPC   C4B15658  10.915  35.886   7.605
  945POPC   NC315659  22.891   7.121   9.452
  945POPC   PO415660  23.459   7.426   9.365
  945POPC   GL115661  23.155   7.546   9.131
  945POPC   GL215662  22.896   7.709   9.295
  945POPC   C1A15663  23.161   7.456   8.726
  945POPC   D2A15664  23.294   7.350   8.341
  945POPC   C3A15665  23.044   7.521   8.056
  945POPC   C4A15666  22.825   7.271   7.756
  945POPC   C1B15667  22.771   7.763   8.849
  945POPC   C2B15668  22.715   7.465   8.481
  945POPC   C3B15669  22.480   7.494   8.093
  945POPC   C4B15670  22.558   7.707   7.722
  946POPC   NC315671   0.871  27.533   9.699
  946POPC   PO415672   0.332  27.790   9.477
  946POPC   GL115673   0.595  27.612   9.160
  946POPC   GL215674   0.555  27.326   8.991
  946POPC   C1A15675   0.734  27.734   8.743
  946POPC   D2A15676   0.554  27.717   8.331
  946POPC   C3A15677   0.729  27.577   7.922
  946POPC   C4A15678   0.478  27.811   7.620
  946POPC   C1B15679   0.248  27.571   8.752
  946POPC   C2B15680   0.092  27.447   8.360
  946POPC   C3B15681   0.225  27.526   7.974
  946POPC   C4B15682   0.341  27.283   7.624
  947POPC   NC315683  21.409  26.370   9.541
  947POPC   PO415684  21.428  25.655   9.550
  947POPC   GL115685  21.276  25.911   9.207
  947POPC   GL215686  21.604  25.934   9.089
  947POPC   C1A15687  21.193  25.870   8.766
  947POPC   D2A15688  21.378  25.954   8.368
  947POPC   C3A15689  21.102  25.937   8.022
  947POPC   C4A15690  21.179  25.891   7.592
  947POPC   C1B15691  21.757  26.116   8.698
  947POPC   C2B15692  21.747  26.346   8.298
  947POPC   C3B15693  21.495  26.249   7.941
  947POPC   C4B15694  21.557  26.231   7.509
  948POPC   NC315695  28.029   6.180   9.604
  948POPC   PO415696  28.530   5.683   9.431
  948POPC   GL115697  28.405   5.826   9.049
  948POPC   GL215698  28.149   6.067   9.109
  948POPC   C1A15699  28.672   5.907   8.692
  948POPC   D2A15700  28.727   6.227   8.420
  948POPC   C3A15701  28.613   6.037   8.065
  948POPC   C4A15702  28.601   5.881   7.661
  948POPC   C1B15703  28.224   6.129   8.660
  948POPC   C2B15704  28.136   5.831   8.376
  948POPC   C3B15705  28.172   5.819   7.966
  948POPC   C4B15706  28.041   6.235   7.855
  949POPC   NC315707  23.433  35.152   9.507
  949POPC   PO415708  24.103  35.197   9.602
  949POPC   GL115709  23.933  35.370   9.203
  949POPC   GL215710  23.554  35.500   9.157
  949POPC   C1A15711  23.775  35.191   8.818
  949POPC   D2A15712  23.524  35.292   8.475
  949POPC   C3A15713  23.808  35.354   8.149
  949POPC   C4A15714  23.927  35.279   7.729
  949POPC   C1B15715  23.359  35.742   8.814
  949POPC   C2B15716  23.170  35.655   8.409
  949POPC   C3B15717  23.311  35.527   8.018
  949POPC   C4B15718  23.296  35.703   7.625
  950POPC   NC315719  34.207  35.493   9.540
  950POPC   PO415720  34.757  35.062   9.464
  950POPC   GL115721  34.564  35.378   9.213
  950POPC   GL215722  34.510  35.113   8.986
  950POPC   C1A15723  34.528  35.577   8.807
  950POPC   D2A15724  34.759  35.304   8.539
  950POPC   C3A15725  34.553  35.334   8.153
  950POPC   C4A15726  34.711  35.591   7.806
  950POPC   C1B15727  34.300  35.093   8.611
  950POPC   C2B15728  34.212  34.887   8.277
  950POPC   C3B15729  34.325  34.909   7.883
  950POPC   C4B15730  34.686  35.069   7.724
  951POPC   NC315731   3.783  36.278   9.472
  951POPC   PO415732   3.158  35.955   9.401
  951POPC   GL115733   3.272  36.275   9.075
  951POPC   GL215734   3.619  36.358   9.022
  951POPC   C1A15735   3.388  36.249   8.603
  951POPC   D2A15736   3.736  36.101   8.318
  951POPC   C3A15737   3.610  36.076   7.889
  951POPC   C4A15738   3.338  36.384   7.696
  951POPC   C1B15739   3.825  36.539   8.708
  951POPC   C2B15740   4.020  36.513   8.336
  951POPC   C3B15741   3.835  36.524   7.928
  951POPC   C4B15742   3.792  36.428   7.473
  952POPC   NC315743  12.887  29.436   9.459
  952POPC   PO415744  12.498  28.941   9.636
  952POPC   GL115745  12.570  29.113   9.183
  952POPC   GL215746  12.684  29.421   9.011
  952POPC   C1A15747  12.777  28.982   8.784
  952POPC   D2A15748  12.900  29.221   8.425
  952POPC   C3A15749  12.892  28.930   8.079
  952POPC   C4A15750  12.917  28.853   7.652
  952POPC   C1B15751  12.629  29.650   8.679
  952POPC   C2B15752  12.565  29.582   8.255
  952POPC   C3B15753  12.848  29.458   7.945
  952POPC   C4B15754  12.783  29.462   7.519
  953POPC   NC315755  17.641   9.179   9.416
  953POPC   PO415756  17.105   9.084   9.272
  953POPC   GL115757  17.486   8.861   9.054
  953POPC   GL215758  17.848   8.738   9.157
  953POPC   C1A15759  17.733   9.023   8.724
  953POPC   D2A15760  17.572   8.984   8.313
  953POPC   C3A15761  17.460   9.258   7.995
  953POPC   C4A15762  17.210   9.290   7.624
  953POPC   C1B15763  17.756   8.505   8.737
  953POPC   C2B15764  17.591   8.484   8.274
  953POPC   C3B15765  17.527   8.747   7.859
  953POPC   C4B15766  17.658   8.605   7.431
  954POPC   NC315767  10.020  17.649   9.650
  954POPC   PO415768   9.655  17.054   9.605
  954POPC   GL115769   9.880  17.307   9.295
  954POPC   GL215770   9.685  17.623   9.222
  954POPC   C1A15771   9.940  17.382   8.856
  954POPC   D2A15772   9.858  17.644   8.466
  954POPC   C3A15773   9.989  17.480   8.063
  954POPC   C4A15774   9.854  17.405   7.666
  954POPC   C1B15775   9.468  17.565   8.814
  954POPC   C2B15776   9.303  17.477   8.428
  954POPC   C3B15777   9.491  17.569   8.041
  954POPC   C4B15778   9.388  17.664   7.666
  955POPC   NC315779  18.792  23.307   9.523
  955POPC   PO415780  19.177  22.684   9.468
  955POPC   GL115781  19.135  23.002   9.147
  955POPC   GL215782  19.118  22.746   8.897
  955POPC   C1A15783  19.413  23.144   8.794
  955POPC   D2A15784  19.340  23.281   8.384
  955POPC   C3A15785  19.253  22.955   8.108
  955POPC   C4A15786  19.201  23.121   7.727
  955POPC   C1B15787  18.938  23.090   8.637
  955POPC   C2B15788  18.770  23.127   8.198
  955POPC   C3B15789  18.678  22.975   7.774
  955POPC   C4B15790  18.524  23.222   7.389
  956POPC   NC315791   6.178  37.810   9.494
  956POPC   PO415792   5.555  37.469   9.476
  956POPC   GL115793   5.743  37.609   9.112
  956POPC   GL215794   6.110  37.546   9.065
  956POPC   C1A15795   5.782  37.508   8.670
  956POPC   D2A15796   5.858  37.802   8.362
  956POPC   C3A15797   5.900  37.712   7.945
  956POPC   C4A15798   5.733  37.874   7.578
  956POPC   C1B15799   6.046  37.945   8.842
  956POPC   C2B15800   6.182  38.172   8.490
  956POPC   C3B15801   6.024  38.203   8.090
  956POPC   C4B15802   6.185  38.091   7.713
  957POPC   NC315803   0.730  26.045   9.781
  957POPC   PO415804   0.122  26.255   9.513
  957POPC   GL115805   0.271  26.154   9.111
  957POPC   GL215806   0.347  25.811   9.142
  957POPC   C1A15807   0.601  26.275   8.764
  957POPC   D2A15808   0.780  26.253   8.357
  957POPC   C3A15809   0.497  26.255   8.009
  957POPC   C4A15810   0.608  26.281   7.603
  957POPC   C1B15811   0.296  25.873   8.689
  957POPC   C2B15812   0.422  25.821   8.271
  957POPC   C3B15813   0.534  25.758   7.823
  957POPC   C4B15814   0.504  25.855   7.374
  958POPC   NC315815  11.365  25.703   9.482
  958POPC   PO415816  11.094  25.025   9.406
  958POPC   GL115817  11.095  25.233   9.035
  958POPC   GL215818  11.425  25.396   9.040
  958POPC   C1A15819  11.228  25.168   8.612
  958POPC   D2A15820  11.196  24.868   8.293
  958POPC   C3A15821  11.330  25.039   7.883
  958POPC   C4A15822  11.179  25.002   7.462
  958POPC   C1B15823  11.201  25.688   8.773
  958POPC   C2B15824  10.940  25.713   8.415
  958POPC   C3B15825  10.784  25.698   8.008
  958POPC   C4B15826  11.018  25.445   7.692
  959POPC   NC315827   8.586   9.441  10.039
  959POPC   PO415828   8.495   9.927   9.560
  959POPC   GL115829   8.240   9.716   9.245
  959POPC   GL215830   8.210   9.990   9.050
  959POPC   C1A15831   8.072   9.546   8.836
  959POPC   D2A15832   8.228   9.319   8.467
  959POPC   C3A15833   8.349   9.525   8.061
  959POPC   C4A15834   8.435   9.887   7.778
  959POPC   C1B15835   8.063  10.063   8.627
  959POPC   C2B15836   8.121  10.008   8.167
  959POPC   C3B15837   8.012  10.208   7.774
  959POPC   C4B15838   7.737  10.125   7.439
  960POPC   NC315839  17.199  35.996   9.645
  960POPC   PO415840  16.453  35.994   9.623
  960POPC   GL115841  16.670  35.928   9.220
  960POPC   GL215842  16.529  36.205   9.113
  960POPC   C1A15843  16.811  35.977   8.766
  960POPC   D2A15844  16.709  35.793   8.374
  960POPC   C3A15845  17.000  35.780   8.033
  960POPC   C4A15846  16.902  35.815   7.601
  960POPC   C1B15847  16.389  36.376   8.761
  960POPC   C2B15848  16.556  36.310   8.373
  960POPC   C3B15849  16.684  36.181   7.995
  960POPC   C4B15850  16.547  36.206   7.598
  961POPC   NC315851   4.151  29.045   9.604
  961POPC   PO415852   3.821  29.473   9.255
  961POPC   GL115853   4.046  29.067   9.104
  961POPC   GL215854   4.409  28.907   9.166
  961POPC   C1A15855   4.090  28.929   8.692
  961POPC   D2A15856   4.273  28.805   8.293
  961POPC   C3A15857   4.215  29.020   7.923
  961POPC   C4A15858   4.119  29.430   7.899
  961POPC   C1B15859   4.593  28.799   8.743
  961POPC   C2B15860   4.766  28.695   8.299
  961POPC   C3B15861   4.729  28.975   7.937
  961POPC   C4B15862   4.692  28.947   7.487
  962POPC   NC315863  38.745  14.086   9.645
  962POPC   PO415864  39.289  14.578   9.727
  962POPC   GL115865  39.274  14.626   9.223
  962POPC   GL215866  39.292  14.327   8.990
  962POPC   C1A15867  38.971  14.658   8.847
  962POPC   D2A15868  39.175  14.466   8.489
  962POPC   C3A15869  39.047  14.482   8.079
  962POPC   C4A15870  39.142  14.702   7.703
  962POPC   C1B15871  39.445  14.072   8.638
  962POPC   C2B15872  39.390  14.061   8.191
  962POPC   C3B15873  39.351  14.201   7.779
  962POPC   C4B15874  39.651  14.255   7.447
  963POPC   NC315875   5.182  31.055   9.302
  963POPC   PO415876   5.493  30.604   9.700
  963POPC   GL115877   5.239  30.553   9.288
  963POPC   GL215878   5.451  30.626   9.052
  963POPC   C1A15879   4.986  30.613   8.824
  963POPC   D2A15880   5.057  30.507   8.378
  963POPC   C3A15881   4.932  30.719   8.054
  963POPC   C4A15882   4.829  30.555   7.689
  963POPC   C1B15883   5.367  30.916   8.708
  963POPC   C2B15884   5.231  31.027   8.331
  963POPC   C3B15885   5.370  30.965   7.917
  963POPC   C4B15886   5.063  30.995   7.610
  964POPC   NC315887  12.393  13.431   9.512
  964POPC   PO415888  11.927  13.930   9.426
  964POPC   GL115889  11.946  13.743   9.077
  964POPC   GL215890  12.320  13.668   9.040
  964POPC   C1A15891  11.940  13.902   8.661
  964POPC   D2A15892  12.219  14.142   8.383
  964POPC   C3A15893  12.129  13.958   7.988
  964POPC   C4A15894  11.818  13.653   7.844
  964POPC   C1B15895  12.121  13.391   8.778
  964POPC   C2B15896  12.267  13.107   8.499
  964POPC   C3B15897  12.516  13.258   8.165
  964POPC   C4B15898  12.308  13.485   7.853
  965POPC   NC315899  28.126  17.526   9.393
  965POPC   PO415900  28.798  17.556   9.521
  965POPC   GL115901  28.571  17.505   9.176
  965POPC   GL215902  28.478  17.858   9.194
  965POPC   C1A15903  28.405  17.371   8.803
  965POPC   D2A15904  28.247  17.589   8.451
  965POPC   C3A15905  28.268  17.451   8.036
  965POPC   C4A15906  28.140  17.750   7.752
  965POPC   C1B15907  28.566  17.889   8.786
  965POPC   C2B15908  28.720  18.003   8.377
  965POPC   C3B15909  28.598  17.896   7.953
  965POPC   C4B15910  28.856  17.833   7.583
  966POPC   NC315911  34.671  22.046   9.323
  966POPC   PO415912  34.102  22.253   9.496
  966POPC   GL115913  34.273  22.305   9.106
  966POPC   GL215914  34.572  22.492   9.073
  966POPC   C1A15915  34.351  22.227   8.674
  966POPC   D2A15916  34.216  22.313   8.282
  966POPC   C3A15917  34.421  22.111   8.005
  966POPC   C4A15918  34.754  21.899   7.829
  966POPC   C1B15919  34.766  22.516   8.689
  966POPC   C2B15920  34.652  22.577   8.273
  966POPC   C3B15921  34.740  22.466   7.863
  966POPC   C4B15922  34.644  22.654   7.479
  967POPC   NC315923  13.268  43.720   9.653
  967POPC   PO415924  13.899  43.983   9.650
  967POPC   GL115925  13.840  44.090   9.197
  967POPC   GL215926  13.963  43.782   9.121
  967POPC   C1A15927  13.645  44.048   8.759
  967POPC   D2A15928  13.428  43.802   8.375
  967POPC   C3A15929  13.420  43.866   7.908
  967POPC   C4A15930  13.625  44.138   7.627
  967POPC   C1B15931  14.169  43.893   8.748
  967POPC   C2B15932  13.946  43.925   8.374
  967POPC   C3B15933  13.951  43.882   7.959
  967POPC   C4B15934  13.800  43.652   7.617
  968POPC   NC315935  28.305  18.928   9.575
  968POPC   PO415936  28.678  19.117   9.040
  968POPC   GL115937  28.242  19.272   8.921
  968POPC   GL215938  28.061  19.006   9.095
  968POPC   C1A15939  28.259  19.465   8.521
  968POPC   D2A15940  28.479  19.141   8.299
  968POPC   C3A15941  28.300  19.089   7.935
  968POPC   C4A15942  28.066  19.230   7.586
  968POPC   C1B15943  28.108  18.733   8.722
  968POPC   C2B15944  28.259  18.651   8.267
  968POPC   C3B15945  27.959  18.731   7.913
  968POPC   C4B15946  27.995  18.743   7.453
  969POPC   NC315947   1.169  15.541   9.563
  969POPC   PO415948   1.109  14.892   9.533
  969POPC   GL115949   1.185  15.165   9.196
  969POPC   GL215950   0.888  15.381   9.105
  969POPC   C1A15951   1.308  15.251   8.790
  969POPC   D2A15952   1.215  15.186   8.389
  969POPC   C3A15953   1.462  15.006   8.033
  969POPC   C4A15954   1.360  15.196   7.661
  969POPC   C1B15955   0.866  15.002   8.785
  969POPC   C2B15956   0.819  14.882   8.336
  969POPC   C3B15957   0.954  15.052   7.963
  969POPC   C4B15958   0.956  14.883   7.583
  970POPC   NC315959  12.699  42.268   9.493
  970POPC   PO415960  13.302  42.339   9.260
  970POPC   GL115961  12.970  42.357   9.000
  970POPC   GL215962  12.620  42.522   9.065
  970POPC   C1A15963  12.987  42.132   8.604
  970POPC   D2A15964  12.787  42.026   8.215
  970POPC   C3A15965  13.067  42.112   7.835
  970POPC   C4A15966  12.940  42.349   7.454
  970POPC   C1B15967  12.548  42.359   8.730
  970POPC   C2B15968  12.733  42.534   8.368
  970POPC   C3B15969  12.684  42.456   7.934
  970POPC   C4B15970  12.682  42.744   7.611
  971POPC   NC315971  42.793  16.086   9.509
  971POPC   PO415972  42.115  16.037   9.655
  971POPC   GL115973  42.171  15.809   9.276
  971POPC   GL215974  42.522  15.840   9.141
  971POPC   C1A15975  42.127  15.941   8.844
  971POPC   D2A15976  42.363  15.942   8.471
  971POPC   C3A15977  42.109  15.923   8.143
  971POPC   C4A15978  42.192  16.052   7.785
  971POPC   C1B15979  42.719  16.097   8.806
  971POPC   C2B15980  42.781  16.234   8.360
  971POPC   C3B15981  42.686  16.114   7.937
  971POPC   C4B15982  42.604  16.161   7.498
  972POPC   NC315983  27.037  30.999   9.289
  972POPC   PO415984  27.456  30.536   9.610
  972POPC   GL115985  27.667  30.488   9.178
  972POPC   GL215986  27.436  30.723   9.131
  972POPC   C1A15987  27.772  30.527   8.695
  972POPC   D2A15988  27.626  30.695   8.275
  972POPC   C3A15989  27.862  30.744   7.859
  972POPC   C4A15990  27.742  30.490   7.452
  972POPC   C1B15991  27.216  30.503   8.856
  972POPC   C2B15992  27.164  30.489   8.443
  972POPC   C3B15993  27.146  30.627   8.060
  972POPC   C4B15994  27.365  30.876   7.793
  973POPC   NC315995  18.418  15.394   9.438
  973POPC   PO415996  17.802  14.998   9.527
  973POPC   GL115997  18.108  15.085   9.132
  973POPC   GL215998  18.452  15.006   9.053
  973POPC   C1A15999  18.178  15.291   8.718
  973POPC   D2A16000  18.131  15.140   8.282
  973POPC   C3A16001  17.892  15.336   7.908
  973POPC   C4A16002  18.185  15.541   7.605
  973POPC   C1B16003  18.432  14.832   8.622
  973POPC   C2B16004  18.246  14.619   8.275
  973POPC   C3B16005  18.045  14.774   7.935
  973POPC   C4B16006  18.200  15.041   7.636
  974POPC   NC316007  11.222   9.279   9.682
  974POPC   PO416008  10.953   8.789   9.452
  974POPC   GL116009  11.168   8.742   9.095
  974POPC   GL216010  11.270   9.087   9.144
  974POPC   C1A16011  11.217   8.720   8.652
  974POPC   D2A16012  11.377   8.912   8.269
  974POPC   C3A16013  11.290   8.738   7.860
  974POPC   C4A16014  11.207   9.124   7.725
  974POPC   C1B16015  11.411   9.213   8.734
  974POPC   C2B16016  11.701   9.319   8.390
  974POPC   C3B16017  11.548   9.429   7.974
  974POPC   C4B16018  11.610   9.382   7.550
  975POPC   NC316019   8.766  39.433   9.665
  975POPC   PO416020   8.578  38.791   9.458
  975POPC   GL116021   8.872  39.108   9.246
  975POPC   GL216022   8.744  39.451   9.170
  975POPC   C1A16023   9.094  39.210   8.869
  975POPC   D2A16024   8.965  39.176   8.448
  975POPC   C3A16025   9.227  39.065   8.104
  975POPC   C4A16026   9.114  39.200   7.719
  975POPC   C1B16027   8.600  39.396   8.781
  975POPC   C2B16028   8.512  39.477   8.377
  975POPC   C3B16029   8.729  39.359   8.031
  975POPC   C4B16030   8.675  39.435   7.636
  976POPC   NC316031  14.853   6.593   9.483
  976POPC   PO416032  14.163   6.571   9.407
  976POPC   GL116033  14.234   6.414   9.010
  976POPC   GL216034  14.582   6.334   9.106
  976POPC   C1A16035  14.106   6.655   8.633
  976POPC   D2A16036  14.326   6.925   8.335
  976POPC   C3A16037  14.406   6.753   7.912
  976POPC   C4A16038  14.401   6.479   7.540
  976POPC   C1B16039  14.614   6.570   8.706
  976POPC   C2B16040  14.444   6.407   8.345
  976POPC   C3B16041  14.637   6.301   7.991
  976POPC   C4B16042  14.917   6.557   7.739
  977POPC   NC316043   8.273  23.150   9.729
  977POPC   PO416044   8.148  22.728   9.289
  977POPC   GL116045   8.166  23.030   9.015
  977POPC   GL216046   8.462  23.210   9.117
  977POPC   C1A16047   8.027  22.983   8.588
  977POPC   D2A16048   7.749  23.104   8.268
  977POPC   C3A16049   7.891  22.921   7.918
  977POPC   C4A16050   8.252  22.936   7.730
  977POPC   C1B16051   8.581  23.007   8.715
  977POPC   C2B16052   8.502  23.059   8.319
  977POPC   C3B16053   8.224  23.300   8.121
  977POPC   C4B16054   8.091  23.422   7.731
  978POPC   NC316055  32.884  22.460   9.544
  978POPC   PO416056  32.862  23.107   9.636
  978POPC   GL116057  32.983  23.097   9.159
  978POPC   GL216058  32.927  22.773   9.033
  978POPC   C1A16059  33.100  23.139   8.677
  978POPC   D2A16060  33.174  23.192   8.214
  978POPC   C3A16061  32.891  22.965   7.923
  978POPC   C4A16062  32.552  22.900   7.627
  978POPC   C1B16063  33.225  22.658   8.714
  978POPC   C2B16064  33.400  22.725   8.313
  978POPC   C3B16065  33.315  22.698   7.896
  978POPC   C4B16066  33.400  23.131   7.734
  979POPC   NC316067   0.392  24.115   9.727
  979POPC   PO416068   0.287  23.423   9.641
  979POPC   GL116069   0.383  23.589   9.197
  979POPC   GL216070   0.468  24.006   9.162
  979POPC   C1A16071   0.558  23.498   8.805
  979POPC   D2A16072   0.438  23.288   8.424
  979POPC   C3A16073   0.396  23.496   8.035
  979POPC   C4A16074   0.294  23.349   7.653
  979POPC   C1B16075   0.269  23.929   8.790
  979POPC   C2B16076   0.485  23.837   8.416
  979POPC   C3B16077   0.527  24.017   8.037
  979POPC   C4B16078   0.307  24.043   7.661
  980POPC   NC316079  32.770   7.142   9.428
  980POPC   PO416080  33.139   7.738   9.404
  980POPC   GL116081  32.963   7.552   9.077
  980POPC   GL216082  33.267   7.637   8.893
  980POPC   C1A16083  32.830   7.498   8.673
  980POPC   D2A16084  32.902   7.640   8.274
  980POPC   C3A16085  32.778   7.330   7.996
  980POPC   C4A16086  33.016   7.090   7.720
  980POPC   C1B16087  33.267   7.233   8.655
  980POPC   C2B16088  33.258   7.220   8.211
  980POPC   C3B16089  33.514   7.064   7.885
  980POPC   C4B16090  33.445   6.878   7.477
  981POPC   NC316091  13.559  18.671   9.385
  981POPC   PO416092  13.561  19.327   9.443
  981POPC   GL116093  13.371  19.272   9.049
  981POPC   GL216094  13.317  18.934   9.043
  981POPC   C1A16095  13.456  19.439   8.666
  981POPC   D2A16096  13.327  19.371   8.255
  981POPC   C3A16097  13.723  19.298   8.059
  981POPC   C4A16098  13.849  18.981   7.773
  981POPC   C1B16099  13.596  18.943   8.678
  981POPC   C2B16100  13.651  18.780   8.266
  981POPC   C3B16101  13.371  18.915   7.967
  981POPC   C4B16102  13.302  18.864   7.513
  982POPC   NC316103  40.807  44.901   9.621
  982POPC   PO416104  41.019  44.309   9.488
  982POPC   GL116105  40.668  44.553   9.263
  982POPC   GL216106  40.433  44.405   9.056
  982POPC   C1A16107  40.683  44.836   8.864
  982POPC   D2A16108  41.015  44.797   8.522
  982POPC   C3A16109  40.931  44.882   8.066
  982POPC   C4A16110  40.776  44.793   7.653
  982POPC   C1B16111  40.692  44.340   8.722
  982POPC   C2B16112  40.670  44.506   8.319
  982POPC   C3B16113  40.647  44.362   7.922
  982POPC   C4B16114  40.301  44.137   7.798
  983POPC   NC316115  35.815  38.587   9.520
  983POPC   PO416116  35.158  38.411   9.439
  983POPC   GL116117  35.348  38.364   9.049
  983POPC   GL216118  35.545  38.677   9.064
  983POPC   C1A16119  35.168  38.167   8.669
  983POPC   D2A16120  35.047  37.968   8.280
  983POPC   C3A16121  35.221  38.254   8.034
  983POPC   C4A16122  35.522  38.433   7.791
  983POPC   C1B16123  35.260  38.703   8.693
  983POPC   C2B16124  35.172  38.697   8.249
  983POPC   C3B16125  35.104  38.739   7.809
  983POPC   C4B16126  35.327  38.660   7.399
  984POPC   NC316127  11.045  39.887   9.486
  984POPC   PO416128  11.238  40.439   9.353
  984POPC   GL116129  11.147  40.139   9.050
  984POPC   GL216130  11.442  39.908   9.119
  984POPC   C1A16131  11.221  39.948   8.657
  984POPC   D2A16132  11.061  39.632   8.402
  984POPC   C3A16133  11.035  39.871   8.042
  984POPC   C4A16134  11.262  39.909   7.688
  984POPC   C1B16135  11.603  40.249   8.832
  984POPC   C2B16136  11.637  40.268   8.382
  984POPC   C3B16137  11.625  40.178   7.933
  984POPC   C4B16138  11.439  40.338   7.521
  985POPC   NC316139  24.936  43.399   9.414
  985POPC   PO416140  25.382  43.005   9.719
  985POPC   GL116141  25.429  43.030   9.270
  985POPC   GL216142  25.517  42.707   9.265
  985POPC   C1A16143  25.311  43.141   8.829
  985POPC   D2A16144  25.232  43.072   8.370
  985POPC   C3A16145  25.434  43.214   7.983
  985POPC   C4A16146  25.268  43.297   7.560
  985POPC   C1B16147  25.559  42.683   8.836
  985POPC   C2B16148  25.630  42.763   8.428
  985POPC   C3B16149  25.459  42.691   8.055
  985POPC   C4B16150  25.422  42.792   7.640
  986POPC   NC316151  12.313  22.190   9.515
  986POPC   PO416152  11.982  22.672   9.109
  986POPC   GL116153  12.045  22.229   9.039
  986POPC   GL216154  11.728  22.072   9.145
  986POPC   C1A16155  12.066  22.213   8.583
  986POPC   D2A16156  11.940  22.519   8.264
  986POPC   C3A16157  11.960  22.277   7.910
  986POPC   C4A16158  12.242  22.160   7.610
  986POPC   C1B16159  11.604  22.025   8.696
  986POPC   C2B16160  11.803  21.886   8.272
  986POPC   C3B16161  11.778  21.799   7.821
  986POPC   C4B16162  11.850  21.934   7.375
  987POPC   NC316163  32.309  16.818   9.414
  987POPC   PO416164  32.754  16.267   9.510
  987POPC   GL116165  32.646  16.506   9.120
  987POPC   GL216166  32.279  16.484   9.032
  987POPC   C1A16167  32.593  16.693   8.690
  987POPC   D2A16168  32.420  16.528   8.304
  987POPC   C3A16169  32.448  16.805   7.975
  987POPC   C4A16170  32.710  16.850   7.652
  987POPC   C1B16171  32.052  16.648   8.657
  987POPC   C2B16172  31.994  16.900   8.259
  987POPC   C3B16173  31.957  16.815   7.801
  987POPC   C4B16174  31.920  16.859   7.363
  988POPC   NC316175  12.741  18.296   9.357
  988POPC   PO416176  13.402  18.233   9.433
  988POPC   GL116177  13.125  18.385   9.060
  988POPC   GL216178  12.874  18.037   8.962
  988POPC   C1A16179  12.835  18.461   8.696
  988POPC   D2A16180  12.675  18.182   8.394
  988POPC   C3A16181  12.727  18.331   7.970
  988POPC   C4A16182  12.506  18.649   7.748
  988POPC   C1B16183  13.257  18.009   8.766
  988POPC   C2B16184  13.301  17.946   8.362
  988POPC   C3B16185  13.084  17.936   7.952
  988POPC   C4B16186  13.247  17.959   7.524
  989POPC   NC316187  25.658  14.621   9.774
  989POPC   PO416188  25.767  14.077   9.420
  989POPC   GL116189  25.996  14.361   9.121
  989POPC   GL216190  26.372  14.311   9.028
  989POPC   C1A16191  25.989  14.325   8.679
  989POPC   D2A16192  25.745  14.135   8.377
  989POPC   C3A16193  25.897  14.178   7.958
  989POPC   C4A16194  25.707  14.277   7.580
  989POPC   C1B16195  26.471  14.164   8.601
  989POPC   C2B16196  26.437  14.283   8.148
  989POPC   C3B16197  26.344  14.661   7.883
  989POPC   C4B16198  26.205  14.605   7.446
  990POPC   NC316199  10.143  16.904   9.568
  990POPC   PO416200   9.902  16.319   9.609
  990POPC   GL116201   9.839  16.496   9.174
  990POPC   GL216202   9.722  16.844   9.135
  990POPC   C1A16203   9.966  16.619   8.738
  990POPC   D2A16204   9.855  16.697   8.313
  990POPC   C3A16205   9.741  16.445   7.948
  990POPC   C4A16206   9.870  16.474   7.532
  990POPC   C1B16207   9.589  17.060   8.740
  990POPC   C2B16208   9.675  17.161   8.313
  990POPC   C3B16209   9.723  16.971   7.891
  990POPC   C4B16210   9.620  16.901   7.456
  991POPC   NC316211   8.219  13.770   9.539
  991POPC   PO416212   7.818  13.175   9.593
  991POPC   GL116213   7.975  13.264   9.059
  991POPC   GL216214   8.284  13.498   9.100
  991POPC   C1A16215   7.923  13.525   8.693
  991POPC   D2A16216   7.936  13.854   8.395
  991POPC   C3A16217   7.970  13.592   8.061
  991POPC   C4A16218   7.699  13.420   7.780
  991POPC   C1B16219   8.301  13.853   8.852
  991POPC   C2B16220   8.417  13.711   8.463
  991POPC   C3B16221   8.391  13.850   8.090
  991POPC   C4B16222   8.396  13.574   7.753
  992POPC   NC316223  10.060  40.296   9.878
  992POPC   PO416224   9.735  40.718   9.398
  992POPC   GL116225   9.702  40.725   9.015
  992POPC   GL216226   9.350  40.838   9.047
  992POPC   C1A16227   9.916  40.800   8.643
  992POPC   D2A16228  10.014  41.000   8.288
  992POPC   C3A16229   9.914  40.745   7.976
  992POPC   C4A16230  10.117  40.903   7.633
  992POPC   C1B16231   9.349  40.600   8.684
  992POPC   C2B16232   9.509  40.789   8.348
  992POPC   C3B16233   9.368  40.860   7.999
  992POPC   C4B16234   9.523  40.739   7.637
  993POPC   NC316235  41.491  12.514   9.435
  993POPC   PO416236  41.870  13.003   9.627
  993POPC   GL116237  41.834  12.850   9.187
  993POPC   GL216238  41.483  12.931   9.124
  993POPC   C1A16239  41.737  12.657   8.762
  993POPC   D2A16240  41.575  12.772   8.330
  993POPC   C3A16241  41.744  12.652   7.942
  993POPC   C4A16242  41.667  12.834   7.529
  993POPC   C1B16243  41.273  12.953   8.699
  993POPC   C2B16244  41.201  13.091   8.231
  993POPC   C3B16245  41.254  12.822   7.844
  993POPC   C4B16246  41.256  12.461   7.548
  994POPC   NC316247  11.405  41.466   9.351
  994POPC   PO416248  10.940  41.872   9.511
  994POPC   GL116249  11.052  41.731   9.087
  994POPC   GL216250  11.331  41.916   9.022
  994POPC   C1A16251  11.192  41.448   8.721
  994POPC   D2A16252  11.553  41.390   8.420
  994POPC   C3A16253  11.459  41.432   7.985
  994POPC   C4A16254  11.066  41.423   7.779
  994POPC   C1B16255  11.253  41.956   8.594
  994POPC   C2B16256  11.232  41.926   8.143
  994POPC   C3B16257  11.362  41.875   7.724
  994POPC   C4B16258  11.661  41.604   7.509
  995POPC   NC316259  12.555  43.020   9.611
  995POPC   PO416260  13.065  42.513   9.702
  995POPC   GL116261  12.960  42.805   9.286
  995POPC   GL216262  12.837  43.130   9.168
  995POPC   C1A16263  12.940  42.844   8.782
  995POPC   D2A16264  12.756  43.159   8.441
  995POPC   C3A16265  12.779  43.003   8.048
  995POPC   C4A16266  13.156  42.929   7.821
  995POPC   C1B16267  13.070  43.341   8.824
  995POPC   C2B16268  13.252  43.316   8.424
  995POPC   C3B16269  13.081  43.438   8.063
  995POPC   C4B16270  12.639  43.519   8.015
  996POPC   NC316271  40.487  31.918   9.215
  996POPC   PO416272  40.496  32.490   9.554
  996POPC   GL116273  40.709  32.415   9.174
  996POPC   GL216274  40.393  32.561   9.061
  996POPC   C1A16275  40.955  32.158   8.835
  996POPC   D2A16276  40.882  32.254   8.382
  996POPC   C3A16277  40.791  31.935   8.084
  996POPC   C4A16278  41.060  31.839   7.719
  996POPC   C1B16279  40.477  32.356   8.706
  996POPC   C2B16280  40.383  32.396   8.308
  996POPC   C3B16281  40.636  32.622   8.085
  996POPC   C4B16282  40.926  32.363   7.838
  997POPC   NC316283  16.954  39.950   9.620
  997POPC   PO416284  16.655  40.515   9.461
  997POPC   GL116285  16.726  40.237   9.113
  997POPC   GL216286  16.703  39.855   9.161
  997POPC   C1A16287  16.851  40.101   8.695
  997POPC   D2A16288  16.685  40.058   8.290
  997POPC   C3A16289  16.687  40.131   7.844
  997POPC   C4A16290  16.379  40.381   7.717
  997POPC   C1B16291  16.567  39.565   8.826
  997POPC   C2B16292  16.378  39.675   8.435
  997POPC   C3B16293  16.497  39.689   8.007
  997POPC   C4B16294  16.714  39.666   7.638
  998POPC   NC316295  19.710   2.211   9.325
  998POPC   PO416296  20.157   1.763   9.397
  998POPC   GL116297  19.889   1.746   9.050
  998POPC   GL216298  19.602   1.984   8.877
  998POPC   C1A16299  20.019   1.832   8.641
  998POPC   D2A16300  19.771   2.000   8.357
  998POPC   C3A16301  19.888   1.703   8.076
  998POPC   C4A16302  20.039   1.704   7.696
  998POPC   C1B16303  19.931   2.340   8.740
  998POPC   C2B16304  20.138   2.429   8.357
  998POPC   C3B16305  20.099   2.190   8.027
  998POPC   C4B16306  19.719   2.112   7.834
  999POPC   NC316307   7.621   1.115   9.685
  999POPC   PO416308   7.271   1.629   9.443
  999POPC   GL116309   7.293   1.312   9.152
  999POPC   GL216310   7.585   1.460   8.980
  999POPC   C1A16311   7.271   1.136   8.736
  999POPC   D2A16312   7.440   1.281   8.342
  999POPC   C3A16313   7.273   1.092   7.979
  999POPC   C4A16314   7.163   0.734   7.736
  999POPC   C1B16315   7.688   1.700   8.575
  999POPC   C2B16316   7.738   1.632   8.104
  999POPC   C3B16317   7.675   1.344   7.736
  999POPC   C4B16318   7.828   1.353   7.282
 1000POPC   NC316319  13.186  21.841   9.857
 1000POPC   PO416320  12.842  22.366   9.519
 1000POPC   GL116321  12.781  22.128   9.142
 1000POPC   GL216322  13.093  22.283   9.065
 1000POPC   C1A16323  12.555  22.154   8.714
 1000POPC   D2A16324  12.453  22.383   8.275
 1000POPC   C3A16325  12.671  22.278   7.875
 1000POPC   C4A16326  12.650  21.871   7.647
 1000POPC   C1B16327  13.055  22.240   8.680
 1000POPC   C2B16328  12.887  22.091   8.306
 1000POPC   C3B16329  13.046  21.912   7.944
 1000POPC   C4B16330  13.117  22.079   7.521
 1001POPC   NC316331  19.847   5.254   9.645
 1001POPC   PO416332  19.647   4.630   9.588
 1001POPC   GL116333  19.858   4.927   9.234
 1001POPC   GL216334  19.745   5.283   9.140
 1001POPC   C1A16335  20.135   5.097   8.878
 1001POPC   D2A16336  19.951   5.285   8.501
 1001POPC   C3A16337  20.086   5.318   8.100
 1001POPC   C4A16338  20.034   5.057   7.747
 1001POPC   C1B16339  19.502   5.268   8.776
 1001POPC   C2B16340  19.353   5.450   8.406
 1001POPC   C3B16341  19.554   5.238   8.079
 1001POPC   C4B16342  19.606   5.296   7.654
 1002POPC   NC316343  38.842  40.701   9.674
 1002POPC   PO416344  38.184  40.475   9.897
 1002POPC   GL116345  38.335  40.603   9.375
 1002POPC   GL216346  38.681  40.592   9.208
 1002POPC   C1A16347  38.237  40.774   8.912
 1002POPC   D2A16348  38.019  40.943   8.495
 1002POPC   C3A16349  38.153  40.814   8.034
 1002POPC   C4A16350  38.306  40.838   7.579
 1002POPC   C1B16351  38.665  40.575   8.753
 1002POPC   C2B16352  38.528  40.776   8.381
 1002POPC   C3B16353  38.674  40.731   7.967
 1002POPC   C4B16354  38.567  40.412   7.725
 1003POPC   NC316355  39.712  41.136   9.444
 1003POPC   PO416356  39.706  40.401   9.406
 1003POPC   GL116357  40.006  40.682   9.170
 1003POPC   GL216358  40.305  40.516   9.000
 1003POPC   C1A16359  40.076  40.947   8.801
 1003POPC   D2A16360  39.917  41.051   8.389
 1003POPC   C3A16361  40.233  41.030   8.084
 1003POPC   C4A16362  40.273  40.803   7.731
 1003POPC   C1B16363  40.028  40.447   8.667
 1003POPC   C2B16364  40.114  40.547   8.235
 1003POPC   C3B16365  39.825  40.685   7.935
 1003POPC   C4B16366  39.684  40.366   7.682
 1004POPC   NC316367  16.523  24.600   9.649
 1004POPC   PO416368  17.133  24.592   9.551
 1004POPC   GL116369  16.866  24.785   9.202
 1004POPC   GL216370  16.531  24.608   9.144
 1004POPC   C1A16371  16.855  24.718   8.734
 1004POPC   D2A16372  17.054  24.674   8.311
 1004POPC   C3A16373  17.009  24.981   7.993
 1004POPC   C4A16374  16.815  24.859   7.635
 1004POPC   C1B16375  16.605  24.279   8.820
 1004POPC   C2B16376  16.776  24.235   8.370
 1004POPC   C3B16377  16.875  24.246   7.908
 1004POPC   C4B16378  16.716  23.950   7.573
 1005POPC   NC316379   4.160  18.488   9.560
 1005POPC   PO416380   4.369  17.844   9.800
 1005POPC   GL116381   4.354  18.046   9.375
 1005POPC   GL216382   4.067  17.937   9.284
 1005POPC   C1A16383   4.291  18.197   8.894
 1005POPC   D2A16384   4.404  18.170   8.421
 1005POPC   C3A16385   4.530  18.484   8.091
 1005POPC   C4A16386   4.439  18.429   7.642
 1005POPC   C1B16387   3.880  17.887   8.912
 1005POPC   C2B16388   3.996  17.832   8.525
 1005POPC   C3B16389   4.101  17.854   8.157
 1005POPC   C4B16390   4.090  18.240   7.972
 1006POPC   NC316391  32.033  11.085   9.524
 1006POPC   PO416392  32.528  11.492   9.677
 1006POPC   GL116393  32.543  11.357   9.239
 1006POPC   GL216394  32.276  11.157   9.094
 1006POPC   C1A16395  32.634  11.371   8.797
 1006POPC   D2A16396  32.673  11.500   8.398
 1006POPC   C3A16397  32.507  11.294   8.054
 1006POPC   C4A16398  32.318  11.565   7.746
 1006POPC   C1B16399  32.160  11.527   8.951
 1006POPC   C2B16400  32.183  11.452   8.511
 1006POPC   C3B16401  32.017  11.410   8.109
 1006POPC   C4B16402  31.940  11.117   7.776
 1007POPC   NC316403  24.103  43.115   9.710
 1007POPC   PO416404  23.603  42.807   9.394
 1007POPC   GL116405  23.648  42.963   9.042
 1007POPC   GL216406  23.581  43.293   9.189
 1007POPC   C1A16407  23.786  42.781   8.648
 1007POPC   D2A16408  24.067  42.751   8.291
 1007POPC   C3A16409  23.814  42.811   7.921
 1007POPC   C4A16410  23.694  42.996   7.503
 1007POPC   C1B16411  23.761  43.374   8.788
 1007POPC   C2B16412  23.933  43.269   8.392
 1007POPC   C3B16413  23.809  43.328   7.985
 1007POPC   C4B16414  23.777  43.484   7.571
 1008POPC   NC316415  34.953  23.611   9.466
 1008POPC   PO416416  35.514  23.987   9.458
 1008POPC   GL116417  35.331  23.724   9.130
 1008POPC   GL216418  35.018  23.842   9.033
 1008POPC   C1A16419  35.418  23.771   8.674
 1008POPC   D2A16420  35.689  23.562   8.360
 1008POPC   C3A16421  35.581  23.606   7.898
 1008POPC   C4A16422  35.348  23.506   7.528
 1008POPC   C1B16423  34.948  23.535   8.715
 1008POPC   C2B16424  35.136  23.475   8.319
 1008POPC   C3B16425  35.021  23.526   7.911
 1008POPC   C4B16426  34.970  23.850   7.567
 1009POPC   NC316427  42.581  39.437   9.312
 1009POPC   PO416428  43.145  39.208   9.506
 1009POPC   GL116429  43.055  39.268   9.105
 1009POPC   GL216430  42.839  39.009   9.095
 1009POPC   C1A16431  43.108  39.318   8.665
 1009POPC   D2A16432  43.081  39.563   8.307
 1009POPC   C3A16433  43.063  39.358   7.939
 1009POPC   C4A16434  43.314  39.316   7.634
 1009POPC   C1B16435  42.728  38.970   8.715
 1009POPC   C2B16436  42.802  39.091   8.304
 1009POPC   C3B16437  42.672  38.989   7.934
 1009POPC   C4B16438  42.918  38.966   7.603
 1010POPC   NC316439  42.241   9.706   9.722
 1010POPC   PO416440  41.765  10.038   9.364
 1010POPC   GL116441  42.060   9.718   9.159
 1010POPC   GL216442  42.402   9.590   9.236
 1010POPC   C1A16443  42.216   9.666   8.738
 1010POPC   D2A16444  42.378   9.952   8.439
 1010POPC   C3A16445  42.200   9.912   8.060
 1010POPC   C4A16446  42.413  10.110   7.729
 1010POPC   C1B16447  42.551   9.305   8.866
 1010POPC   C2B16448  42.613   9.476   8.433
 1010POPC   C3B16449  42.597   9.415   7.988
 1010POPC   C4B16450  42.317   9.603   7.669
 1011POPC   NC316451  44.050  27.799   9.653
 1011POPC   PO416452  43.780  27.136   9.634
 1011POPC   GL116453  43.852  27.441   9.245
 1011POPC   GL216454  44.177  27.435   9.062
 1011POPC   C1A16455  43.814  27.682   8.798
 1011POPC   D2A16456  43.805  27.490   8.331
 1011POPC   C3A16457  43.772  27.702   7.911
 1011POPC   C4A16458  43.473  27.687   7.531
 1011POPC   C1B16459  44.379  27.115   8.811
 1011POPC   C2B16460  44.380  27.191   8.376
 1011POPC   C3B16461  44.188  27.343   7.973
 1011POPC   C4B16462  44.392  27.711   7.776
 1012POPC   NC316463  12.426  21.360   9.766
 1012POPC   PO416464  12.012  21.807   9.516
 1012POPC   GL116465  12.183  21.502   9.285
 1012POPC   GL216466  12.362  21.781   9.154
 1012POPC   C1A16467  12.241  21.289   8.893
 1012POPC   D2A16468  12.267  21.197   8.456
 1012POPC   C3A16469  12.032  21.407   8.137
 1012POPC   C4A16470  11.887  21.238   7.759
 1012POPC   C1B16471  12.067  21.755   8.816
 1012POPC   C2B16472  12.308  21.741   8.448
 1012POPC   C3B16473  12.292  21.877   8.036
 1012POPC   C4B16474  12.214  21.617   7.675
 1013POPC   NC316475  10.227   3.955   9.519
 1013POPC   PO416476  10.569   3.382   9.597
 1013POPC   GL116477  10.562   3.635   9.226
 1013POPC   GL216478  10.247   3.596   9.101
 1013POPC   C1A16479  10.672   3.576   8.773
 1013POPC   D2A16480  10.847   3.370   8.371
 1013POPC   C3A16481  10.660   3.438   7.941
 1013POPC   C4A16482  10.228   3.407   7.765
 1013POPC   C1B16483  10.109   3.624   8.638
 1013POPC   C2B16484  10.268   3.339   8.275
 1013POPC   C3B16485  10.409   2.984   7.992
 1013POPC   C4B16486  10.526   2.842   7.579
 1014POPC   NC316487  40.576  41.164   9.394
 1014POPC   PO416488  40.526  41.837   9.534
 1014POPC   GL116489  40.741  41.624   9.198
 1014POPC   GL216490  41.095  41.491   9.248
 1014POPC   C1A16491  40.541  41.498   8.785
 1014POPC   D2A16492  40.312  41.693   8.436
 1014POPC   C3A16493  40.533  41.588   8.066
 1014POPC   C4A16494  40.619  41.666   7.647
 1014POPC   C1B16495  41.055  41.600   8.795
 1014POPC   C2B16496  40.930  41.533   8.399
 1014POPC   C3B16497  41.025  41.428   7.979
 1014POPC   C4B16498  41.275  41.637   7.701
 1015POPC   NC316499   0.280   7.225   9.437
 1015POPC   PO416500   0.641   7.819   9.363
 1015POPC   GL116501   0.461   7.528   9.076
 1015POPC   GL216502   0.666   7.188   9.137
 1015POPC   C1A16503   0.212   7.584   8.701
 1015POPC   D2A16504   0.448   7.717   8.326
 1015POPC   C3A16505   0.262   7.579   7.942
 1015POPC   C4A16506   0.216   7.309   7.615
 1015POPC   C1B16507   0.470   7.109   8.760
 1015POPC   C2B16508   0.347   7.215   8.365
 1015POPC   C3B16509   0.446   7.068   7.996
 1015POPC   C4B16510   0.431   6.851   7.613
 1016POPC   NC316511   1.592  38.797   9.821
 1016POPC   PO416512   1.040  38.478   9.718
 1016POPC   GL116513   1.071  38.431   9.158
 1016POPC   GL216514   1.363  38.553   9.030
 1016POPC   C1A16515   0.889  38.609   8.751
 1016POPC   D2A16516   0.988  38.472   8.332
 1016POPC   C3A16517   0.937  38.689   7.962
 1016POPC   C4A16518   1.226  38.405   7.799
 1016POPC   C1B16519   1.264  38.273   8.699
 1016POPC   C2B16520   1.477  38.250   8.327
 1016POPC   C3B16521   1.685  38.388   7.987
 1016POPC   C4B16522   1.866  38.179   7.652
 1017POPC   NC316523   5.029   1.611   9.497
 1017POPC   PO416524   4.762   2.240   9.546
 1017POPC   GL116525   4.883   2.030   9.148
 1017POPC   GL216526   5.224   1.830   9.101
 1017POPC   C1A16527   5.168   2.255   8.856
 1017POPC   D2A16528   5.401   2.196   8.486
 1017POPC   C3A16529   5.229   1.987   8.140
 1017POPC   C4A16530   5.254   2.236   7.769
 1017POPC   C1B16531   5.056   1.775   8.670
 1017POPC   C2B16532   5.215   1.500   8.344
 1017POPC   C3B16533   5.197   1.505   7.910
 1017POPC   C4B16534   4.967   1.822   7.671
 1018POPC   NC316535  41.707   3.362   9.503
 1018POPC   PO416536  41.367   4.003   9.492
 1018POPC   GL116537  41.554   3.733   9.175
 1018POPC   GL216538  41.387   3.432   9.068
 1018POPC   C1A16539  41.611   3.827   8.745
 1018POPC   D2A16540  41.263   3.766   8.468
 1018POPC   C3A16541  41.339   3.480   8.165
 1018POPC   C4A16542  41.567   3.569   7.829
 1018POPC   C1B16543  41.593   3.332   8.686
 1018POPC   C2B16544  41.847   3.478   8.345
 1018POPC   C3B16545  41.928   3.260   7.939
 1018POPC   C4B16546  42.000   3.418   7.512
 1019POPC   NC316547  21.853   1.694   9.479
 1019POPC   PO416548  22.387   1.301   9.629
 1019POPC   GL116549  22.182   1.292   9.229
 1019POPC   GL216550  21.995   1.550   9.033
 1019POPC   C1A16551  22.274   1.236   8.794
 1019POPC   D2A16552  21.983   1.304   8.475
 1019POPC   C3A16553  22.114   1.254   8.085
 1019POPC   C4A16554  22.215   1.117   7.704
 1019POPC   C1B16555  22.191   1.739   8.640
 1019POPC   C2B16556  22.299   1.806   8.191
 1019POPC   C3B16557  22.370   1.610   7.794
 1019POPC   C4B16558  22.179   1.494   7.361
 1020POPC   NC316559  10.549  27.141   9.370
 1020POPC   PO416560  10.467  26.559   9.587
 1020POPC   GL116561  10.718  26.654   9.231
 1020POPC   GL216562  10.409  26.690   9.091
 1020POPC   C1A16563  10.866  26.674   8.783
 1020POPC   D2A16564  10.713  26.587   8.328
 1020POPC   C3A16565  10.979  26.727   7.953
 1020POPC   C4A16566  10.840  26.934   7.554
 1020POPC   C1B16567  10.403  26.874   8.688
 1020POPC   C2B16568  10.604  27.103   8.343
 1020POPC   C3B16569  10.502  26.958   7.936
 1020POPC   C4B16570  10.519  26.523   7.834
 1021POPC   NC316571   3.604  26.719   9.442
 1021POPC   PO416572   4.314  26.825   9.548
 1021POPC   GL116573   4.409  26.785   9.117
 1021POPC   GL216574   4.547  26.468   9.074
 1021POPC   C1A16575   4.365  26.833   8.661
 1021POPC   D2A16576   4.371  26.801   8.203
 1021POPC   C3A16577   4.094  27.046   7.874
 1021POPC   C4A16578   4.162  27.150   7.395
 1021POPC   C1B16579   4.170  26.357   8.820
 1021POPC   C2B16580   4.112  26.378   8.365
 1021POPC   C3B16581   4.111  26.430   7.916
 1021POPC   C4B16582   4.418  26.701   7.700
 1022POPC   NC316583  23.855  38.001   9.492
 1022POPC   PO416584  23.471  37.392   9.491
 1022POPC   GL116585  23.696  37.404   9.137
 1022POPC   GL216586  23.891  37.734   9.070
 1022POPC   C1A16587  23.546  37.291   8.756
 1022POPC   D2A16588  23.662  37.502   8.402
 1022POPC   C3A16589  23.418  37.469   8.033
 1022POPC   C4A16590  23.623  37.470   7.658
 1022POPC   C1B16591  24.164  37.916   8.729
 1022POPC   C2B16592  24.079  37.954   8.279
 1022POPC   C3B16593  23.717  37.908   8.060
 1022POPC   C4B16594  23.901  37.914   7.712
 1023POPC   NC316595  35.713  22.722   9.299
 1023POPC   PO416596  36.235  23.109   9.519
 1023POPC   GL116597  36.200  22.839   9.161
 1023POPC   GL216598  35.972  23.071   9.051
 1023POPC   C1A16599  36.141  22.673   8.722
 1023POPC   D2A16600  36.191  22.902   8.310
 1023POPC   C3A16601  36.065  22.908   7.865
 1023POPC   C4A16602  36.306  23.207   7.508
 1023POPC   C1B16603  35.832  23.073   8.645
 1023POPC   C2B16604  35.700  22.673   8.441
 1023POPC   C3B16605  35.544  22.616   8.027
 1023POPC   C4B16606  35.667  22.694   7.622
 1024POPC   NC316607  36.339  30.269   9.426
 1024POPC   PO416608  36.210  29.625   9.410
 1024POPC   GL116609  36.068  29.842   9.072
 1024POPC   GL216610  36.060  30.202   8.989
 1024POPC   C1A16611  36.187  29.748   8.673
 1024POPC   D2A16612  36.217  30.023   8.328
 1024POPC   C3A16613  36.116  29.784   7.977
 1024POPC   C4A16614  36.506  29.741   7.748
 1024POPC   C1B16615  35.798  30.151   8.594
 1024POPC   C2B16616  35.852  30.355   8.166
 1024POPC   C3B16617  36.140  30.269   7.831
 1024POPC   C4B16618  36.103  29.942   7.482
 1025POPC   NC316619  30.171   3.302   9.409
 1025POPC   PO416620  29.713   3.753   9.262
 1025POPC   GL116621  29.871   3.441   9.014
 1025POPC   GL216622  30.205   3.585   8.970
 1025POPC   C1A16623  29.951   3.342   8.599
 1025POPC   D2A16624  29.840   3.476   8.224
 1025POPC   C3A16625  30.148   3.586   7.939
 1025POPC   C4A16626  29.854   3.446   7.677
 1025POPC   C1B16627  30.352   3.897   8.656
 1025POPC   C2B16628  30.504   3.881   8.219
 1025POPC   C3B16629  30.374   4.024   7.790
 1025POPC   C4B16630  30.318   3.751   7.401
 1026POPC   NC316631  34.232  14.151   9.435
 1026POPC   PO416632  34.918  14.352   9.502
 1026POPC   GL116633  34.585  14.431   9.193
 1026POPC   GL216634  34.557  14.792   9.184
 1026POPC   C1A16635  34.572  14.262   8.771
 1026POPC   D2A16636  34.720  14.417   8.354
 1026POPC   C3A16637  34.652  14.217   7.921
 1026POPC   C4A16638  34.696  14.546   7.598
 1026POPC   C1B16639  34.316  14.704   8.808
 1026POPC   C2B16640  34.206  14.448   8.468
 1026POPC   C3B16641  34.277  14.545   8.071
 1026POPC   C4B16642  34.174  14.327   7.715
 1027POPC   NC316643  26.641  12.306   9.365
 1027POPC   PO416644  26.841  12.898   9.515
 1027POPC   GL116645  26.813  12.820   9.123
 1027POPC   GL216646  27.067  12.595   9.095
 1027POPC   C1A16647  26.848  13.083   8.756
 1027POPC   D2A16648  26.709  13.106   8.377
 1027POPC   C3A16649  26.871  12.859   8.074
 1027POPC   C4A16650  26.829  12.977   7.649
 1027POPC   C1B16651  26.845  12.582   8.672
 1027POPC   C2B16652  26.544  12.548   8.356
 1027POPC   C3B16653  26.542  12.469   7.963
 1027POPC   C4B16654  26.915  12.435   7.749
 1028POPC   NC316655   7.307  29.151  10.025
 1028POPC   PO416656   7.825  29.108   9.509
 1028POPC   GL116657   7.401  29.044   9.304
 1028POPC   GL216658   7.272  29.365   9.223
 1028POPC   C1A16659   7.105  28.995   8.919
 1028POPC   D2A16660   7.213  29.081   8.488
 1028POPC   C3A16661   7.127  28.862   8.106
 1028POPC   C4A16662   7.285  28.839   7.659
 1028POPC   C1B16663   7.544  29.286   8.862
 1028POPC   C2B16664   7.687  29.272   8.420
 1028POPC   C3B16665   7.530  29.170   8.008
 1028POPC   C4B16666   7.608  29.230   7.544
 1029POPC   NC316667   2.100  26.900   9.611
 1029POPC   PO416668   2.476  26.328   9.523
 1029POPC   GL116669   2.159  26.591   9.224
 1029POPC   GL216670   1.878  26.457   9.099
 1029POPC   C1A16671   2.117  26.891   8.877
 1029POPC   D2A16672   1.968  26.856   8.460
 1029POPC   C3A16673   2.006  27.140   8.134
 1029POPC   C4A16674   2.201  27.005   7.773
 1029POPC   C1B16675   1.725  26.331   8.715
 1029POPC   C2B16676   1.660  26.466   8.328
 1029POPC   C3B16677   1.757  26.663   7.959
 1029POPC   C4B16678   1.375  26.736   7.746
 1030POPC   NC316679  43.061  28.088   9.551
 1030POPC   PO416680  43.343  28.683   9.376
 1030POPC   GL116681  43.073  28.452   9.139
 1030POPC   GL216682  42.720  28.527   9.238
 1030POPC   C1A16683  43.085  28.491   8.692
 1030POPC   D2A16684  43.339  28.397   8.356
 1030POPC   C3A16685  43.338  28.544   7.940
 1030POPC   C4A16686  43.413  28.567   7.479
 1030POPC   C1B16687  42.729  28.167   8.917
 1030POPC   C2B16688  42.908  28.054   8.489
 1030POPC   C3B16689  42.873  28.246   8.080
 1030POPC   C4B16690  43.014  28.280   7.658
 1031POPC   NC316691  38.181   6.520   9.561
 1031POPC   PO416692  38.865   6.656   9.722
 1031POPC   GL116693  38.607   6.543   9.286
 1031POPC   GL216694  38.746   6.415   9.012
 1031POPC   C1A16695  38.258   6.560   8.911
 1031POPC   D2A16696  38.340   6.564   8.444
 1031POPC   C3A16697  38.112   6.621   8.034
 1031POPC   C4A16698  38.229   6.490   7.606
 1031POPC   C1B16699  38.790   6.719   8.670
 1031POPC   C2B16700  38.856   6.523   8.320
 1031POPC   C3B16701  38.621   6.589   8.005
 1031POPC   C4B16702  38.476   6.896   7.749
 1032POPC   NC316703   7.835   3.664   9.486
 1032POPC   PO416704   7.172   3.599   9.532
 1032POPC   GL116705   7.372   3.508   9.161
 1032POPC   GL216706   7.544   3.809   9.074
 1032POPC   C1A16707   7.181   3.601   8.760
 1032POPC   D2A16708   7.311   3.752   8.365
 1032POPC   C3A16709   7.357   3.492   8.007
 1032POPC   C4A16710   7.163   3.538   7.648
 1032POPC   C1B16711   7.821   3.924   8.718
 1032POPC   C2B16712   7.768   4.055   8.319
 1032POPC   C3B16713   7.578   3.956   7.944
 1032POPC   C4B16714   7.611   3.736   7.573
 1033POPC   NC316715   7.027   6.751   9.416
 1033POPC   PO416716   6.275   6.668   9.388
 1033POPC   GL116717   6.626   6.619   9.142
 1033POPC   GL216718   6.666   6.966   9.123
 1033POPC   C1A16719   6.774   6.583   8.737
 1033POPC   D2A16720   6.598   6.382   8.401
 1033POPC   C3A16721   6.769   6.476   8.002
 1033POPC   C4A16722   6.489   6.429   7.678
 1033POPC   C1B16723   6.382   6.904   8.774
 1033POPC   C2B16724   6.580   6.920   8.380
 1033POPC   C3B16725   6.462   6.891   7.973
 1033POPC   C4B16726   6.110   7.138   7.867
 1034POPC   NC316727  37.364  32.949   9.605
 1034POPC   PO416728  37.889  32.517   9.437
 1034POPC   GL116729  37.930  32.875   9.139
 1034POPC   GL216730  37.587  32.977   9.108
 1034POPC   C1A16731  37.960  33.155   8.773
 1034POPC   D2A16732  37.661  33.213   8.461
 1034POPC   C3A16733  37.798  33.018   8.100
 1034POPC   C4A16734  37.786  33.034   7.693
 1034POPC   C1B16735  37.695  32.745   8.682
 1034POPC   C2B16736  37.641  32.567   8.270
 1034POPC   C3B16737  37.885  32.545   7.876
 1034POPC   C4B16738  37.779  32.519   7.462
 1035POPC   NC316739  21.354  21.187   9.512
 1035POPC   PO416740  21.933  21.399   9.478
 1035POPC   GL116741  21.635  21.442   9.158
 1035POPC   GL216742  21.310  21.611   9.218
 1035POPC   C1A16743  21.355  21.251   8.842
 1035POPC   D2A16744  21.446  21.411   8.440
 1035POPC   C3A16745  21.161  21.311   8.133
 1035POPC   C4A16746  21.258  21.403   7.720
 1035POPC   C1B16747  21.448  21.768   8.806
 1035POPC   C2B16748  21.673  21.864   8.419
 1035POPC   C3B16749  21.419  21.770   8.046
 1035POPC   C4B16750  21.347  21.976   7.648
 1036POPC   NC316751  35.113   8.522   9.327
 1036POPC   PO416752  34.649   8.952   9.611
 1036POPC   GL116753  34.500   9.023   9.205
 1036POPC   GL216754  34.694   8.734   9.120
 1036POPC   C1A16755  34.500   9.029   8.739
 1036POPC   D2A16756  34.287   9.138   8.355
 1036POPC   C3A16757  34.370   8.916   7.970
 1036POPC   C4A16758  34.376   9.055   7.539
 1036POPC   C1B16759  34.941   8.763   8.731
 1036POPC   C2B16760  34.753   8.773   8.324
 1036POPC   C3B16761  34.893   8.778   7.887
 1036POPC   C4B16762  34.873   8.967   7.455
 1037POPC   NC316763  29.881  39.573   9.438
 1037POPC   PO416764  29.569  38.946   9.561
 1037POPC   GL116765  29.705  39.119   9.166
 1037POPC   GL216766  29.532  39.419   9.104
 1037POPC   C1A16767  29.909  39.073   8.757
 1037POPC   D2A16768  30.103  39.360   8.434
 1037POPC   C3A16769  30.122  39.239   7.995
 1037POPC   C4A16770  30.045  39.435   7.585
 1037POPC   C1B16771  29.644  39.502   8.653
 1037POPC   C2B16772  29.630  39.212   8.250
 1037POPC   C3B16773  29.611  39.257   7.781
 1037POPC   C4B16774  29.565  39.445   7.352
 1038POPC   NC316775  14.321  12.305   9.581
 1038POPC   PO416776  14.689  11.680   9.538
 1038POPC   GL116777  14.534  12.028   9.177
 1038POPC   GL216778  14.263  12.323   9.079
 1038POPC   C1A16779  14.407  12.005   8.723
 1038POPC   D2A16780  14.255  11.776   8.385
 1038POPC   C3A16781  14.469  11.879   8.032
 1038POPC   C4A16782  14.372  12.092   7.681
 1038POPC   C1B16783  14.151  12.451   8.632
 1038POPC   C2B16784  14.240  12.340   8.180
 1038POPC   C3B16785  14.138  12.560   7.768
 1038POPC   C4B16786  14.278  12.478   7.335
 1039POPC   NC316787  25.955  23.931   9.593
 1039POPC   PO416788  25.585  23.378   9.567
 1039POPC   GL116789  25.874  23.584   9.221
 1039POPC   GL216790  26.194  23.637   9.056
 1039POPC   C1A16791  25.804  23.654   8.756
 1039POPC   D2A16792  25.981  23.566   8.339
 1039POPC   C3A16793  25.788  23.719   7.929
 1039POPC   C4A16794  25.783  23.502   7.508
 1039POPC   C1B16795  26.327  23.855   8.650
 1039POPC   C2B16796  26.440  23.799   8.215
 1039POPC   C3B16797  26.252  23.922   7.796
 1039POPC   C4B16798  26.385  24.069   7.341
 1040POPC   NC316799  30.352   1.554   9.718
 1040POPC   PO416800  30.792   1.063   9.473
 1040POPC   GL116801  30.707   1.274   9.115
 1040POPC   GL216802  30.370   1.382   9.220
 1040POPC   C1A16803  30.729   1.110   8.688
 1040POPC   D2A16804  30.723   1.313   8.299
 1040POPC   C3A16805  30.992   1.127   7.988
 1040POPC   C4A16806  30.863   0.918   7.646
 1040POPC   C1B16807  30.378   1.510   8.780
 1040POPC   C2B16808  30.261   1.573   8.367
 1040POPC   C3B16809  30.272   1.325   8.038
 1040POPC   C4B16810  30.559   1.313   7.732
 1041POPC   NC316811  25.484  30.579   9.542
 1041POPC   PO416812  25.010  31.055   9.488
 1041POPC   GL116813  25.168  30.766   9.154
 1041POPC   GL216814  25.515  30.755   9.076
 1041POPC   C1A16815  25.075  30.493   8.807
 1041POPC   D2A16816  25.034  30.655   8.393
 1041POPC   C3A16817  24.954  30.379   8.058
 1041POPC   C4A16818  25.053  30.394   7.633
 1041POPC   C1B16819  25.390  30.899   8.694
 1041POPC   C2B16820  25.485  30.996   8.293
 1041POPC   C3B16821  25.287  30.786   7.965
 1041POPC   C4B16822  25.476  30.712   7.606
 1042POPC   NC316823  28.550  19.493   9.244
 1042POPC   PO416824  28.558  20.104   9.422
 1042POPC   GL116825  28.236  19.948   9.119
 1042POPC   GL216826  28.431  19.801   8.881
 1042POPC   C1A16827  28.152  20.150   8.691
 1042POPC   D2A16828  28.506  20.030   8.418
 1042POPC   C3A16829  28.357  20.077   8.030
 1042POPC   C4A16830  28.375  19.881   7.654
 1042POPC   C1B16831  28.791  19.676   8.692
 1042POPC   C2B16832  28.799  19.535   8.362
 1042POPC   C3B16833  28.534  19.597   8.061
 1042POPC   C4B16834  28.566  19.422   7.693
 1043POPC   NC316835  26.576  36.151   9.557
 1043POPC   PO416836  27.120  35.853   9.477
 1043POPC   GL116837  26.937  36.102   9.132
 1043POPC   GL216838  26.947  36.472   9.174
 1043POPC   C1A16839  26.803  35.895   8.728
 1043POPC   D2A16840  26.594  35.730   8.312
 1043POPC   C3A16841  26.705  35.965   7.922
 1043POPC   C4A16842  26.774  35.936   7.449
 1043POPC   C1B16843  26.802  36.414   8.725
 1043POPC   C2B16844  26.931  36.190   8.334
 1043POPC   C3B16845  27.138  36.202   7.910
 1043POPC   C4B16846  26.840  36.407   7.638
 1044POPC   NC316847  39.927  35.180   9.513
 1044POPC   PO416848  40.175  35.725   9.398
 1044POPC   GL116849  39.948  35.469   9.069
 1044POPC   GL216850  39.746  35.108   9.049
 1044POPC   C1A16851  39.819  35.403   8.629
 1044POPC   D2A16852  39.815  35.163   8.238
 1044POPC   C3A16853  39.784  35.368   7.834
 1044POPC   C4A16854  39.856  35.526   7.392
 1044POPC   C1B16855  40.133  35.046   8.818
 1044POPC   C2B16856  40.293  35.167   8.418
 1044POPC   C3B16857  40.262  35.317   7.982
 1044POPC   C4B16858  40.116  35.107   7.568
 1045POPC   NC316859   4.719  22.334   9.496
 1045POPC   PO416860   5.239  21.967   9.657
 1045POPC   GL116861   5.285  22.164   9.242
 1045POPC   GL216862   4.968  22.144   9.082
 1045POPC   C1A16863   5.397  22.278   8.795
 1045POPC   D2A16864   5.370  22.137   8.367
 1045POPC   C3A16865   5.489  22.262   7.948
 1045POPC   C4A16866   5.409  22.084   7.530
 1045POPC   C1B16867   4.934  22.068   8.640
 1045POPC   C2B16868   4.890  22.242   8.229
 1045POPC   C3B16869   5.000  22.170   7.811
 1045POPC   C4B16870   4.898  21.997   7.397
 1046POPC   NC316871  43.302  33.130   9.345
 1046POPC   PO416872  42.742  33.237   9.711
 1046POPC   GL116873  42.742  33.190   9.264
 1046POPC   GL216874  42.818  32.867   9.149
 1046POPC   C1A16875  42.803  33.335   8.849
 1046POPC   D2A16876  43.011  33.424   8.466
 1046POPC   C3A16877  43.030  33.032   8.224
 1046POPC   C4A16878  42.835  32.980   7.842
 1046POPC   C1B16879  43.081  32.942   8.743
 1046POPC   C2B16880  43.333  32.658   8.490
 1046POPC   C3B16881  43.506  32.704   8.084
 1046POPC   C4B16882  43.306  32.839   7.745
 1047POPC   NC316883   6.171  37.037   9.494
 1047POPC   PO416884   6.839  36.790   9.487
 1047POPC   GL116885   6.720  36.979   9.121
 1047POPC   GL216886   6.447  37.171   9.098
 1047POPC   C1A16887   6.606  36.833   8.722
 1047POPC   D2A16888   6.777  36.730   8.343
 1047POPC   C3A16889   6.568  36.806   7.929
 1047POPC   C4A16890   6.551  36.665   7.517
 1047POPC   C1B16891   6.246  37.186   8.697
 1047POPC   C2B16892   6.527  37.176   8.330
 1047POPC   C3B16893   6.582  37.382   7.996
 1047POPC   C4B16894   6.316  37.583   7.694
 1048POPC   NC316895   0.001  38.945   9.386
 1048POPC   PO416896  44.469  39.258   9.764
 1048POPC   GL116897  44.545  39.250   9.305
 1048POPC   GL216898  44.434  38.901   9.293
 1048POPC   C1A16899  44.535  39.451   8.862
 1048POPC   D2A16900  44.361  39.320   8.450
 1048POPC   C3A16901  44.519  39.478   8.055
 1048POPC   C4A16902  44.784  39.313   7.758
 1048POPC   C1B16903  44.451  38.899   8.844
 1048POPC   C2B16904  44.334  38.820   8.403
 1048POPC   C3B16905  44.481  38.909   7.987
 1048POPC   C4B16906  44.268  39.195   7.689
 1049POPC   NC316907  37.458  29.572   9.474
 1049POPC   PO416908  38.054  29.185   9.529
 1049POPC   GL116909  37.932  29.322   9.129
 1049POPC   GL216910  37.616  29.188   9.112
 1049POPC   C1A16911  37.870  29.291   8.668
 1049POPC   D2A16912  37.544  29.249   8.384
 1049POPC   C3A16913  37.725  29.230   7.988
 1049POPC   C4A16914  37.557  29.322   7.613
 1049POPC   C1B16915  37.869  28.833   8.895
 1049POPC   C2B16916  37.914  28.828   8.431
 1049POPC   C3B16917  37.747  28.716   8.032
 1049POPC   C4B16918  37.800  28.840   7.616
 1050POPC   NC316919  10.217  29.414   9.757
 1050POPC   PO416920  10.684  28.992   9.465
 1050POPC   GL116921  10.576  28.911   9.066
 1050POPC   GL216922  10.306  28.638   9.072
 1050POPC   C1A16923  10.568  29.219   8.734
 1050POPC   D2A16924  10.461  29.459   8.398
 1050POPC   C3A16925  10.547  29.281   8.013
 1050POPC   C4A16926  10.436  29.501   7.668
 1050POPC   C1B16927  10.297  28.775   8.654
 1050POPC   C2B16928  10.595  28.894   8.343
 1050POPC   C3B16929  10.612  28.771   7.909
 1050POPC   C4B16930  10.466  29.010   7.571
 1051POPC   NC316931  15.925  31.688   9.609
 1051POPC   PO416932  16.507  31.752   9.459
 1051POPC   GL116933  16.229  31.573   9.158
 1051POPC   GL216934  15.837  31.568   9.119
 1051POPC   C1A16935  16.134  31.452   8.738
 1051POPC   D2A16936  15.785  31.619   8.451
 1051POPC   C3A16937  15.875  31.477   8.027
 1051POPC   C4A16938  15.988  31.601   7.576
 1051POPC   C1B16939  15.682  31.263   8.797
 1051POPC   C2B16940  15.806  31.090   8.391
 1051POPC   C3B16941  15.670  30.986   7.959
 1051POPC   C4B16942  15.560  31.322   7.668
 1052POPC   NC316943  10.224   6.789   9.478
 1052POPC   PO416944  10.794   6.542   9.821
 1052POPC   GL116945  10.638   6.484   9.377
 1052POPC   GL216946  10.653   6.834   9.200
 1052POPC   C1A16947  10.658   6.432   8.906
 1052POPC   D2A16948  10.579   6.284   8.503
 1052POPC   C3A16949  10.478   6.473   8.110
 1052POPC   C4A16950  10.213   6.293   7.722
 1052POPC   C1B16951  10.534   6.930   8.774
 1052POPC   C2B16952  10.661   6.984   8.353
 1052POPC   C3B16953  10.458   6.981   7.988
 1052POPC   C4B16954  10.403   6.755   7.658
 1053POPC   NC316955  29.993  41.977   9.349
 1053POPC   PO416956  29.767  41.476   9.709
 1053POPC   GL116957  29.754  41.546   9.223
 1053POPC   GL216958  29.531  41.838   9.180
 1053POPC   C1A16959  29.922  41.619   8.765
 1053POPC   D2A16960  29.952  41.436   8.329
 1053POPC   C3A16961  30.213  41.603   7.989
 1053POPC   C4A16962  30.038  41.704   7.582
 1053POPC   C1B16963  29.492  41.932   8.751
 1053POPC   C2B16964  29.691  41.863   8.351
 1053POPC   C3B16965  29.675  41.753   7.930
 1053POPC   C4B16966  29.604  41.976   7.531
 1054POPC   NC316967  28.109  21.450   9.379
 1054POPC   PO416968  28.751  21.694   9.527
 1054POPC   GL116969  28.601  21.480   9.161
 1054POPC   GL216970  28.387  21.718   9.021
 1054POPC   C1A16971  28.492  21.273   8.769
 1054POPC   D2A16972  28.648  21.406   8.348
 1054POPC   C3A16973  28.368  21.250   8.040
 1054POPC   C4A16974  28.160  21.367   7.679
 1054POPC   C1B16975  28.675  21.808   8.683
 1054POPC   C2B16976  28.605  21.931   8.252
 1054POPC   C3B16977  28.523  21.735   7.847
 1054POPC   C4B16978  28.711  21.356   7.673
 1055POPC   NC316979   6.621  21.933   9.395
 1055POPC   PO416980   6.709  22.483   9.699
 1055POPC   GL116981   6.670  22.422   9.246
 1055POPC   GL216982   6.930  22.187   9.071
 1055POPC   C1A16983   6.543  22.513   8.814
 1055POPC   D2A16984   6.704  22.608   8.382
 1055POPC   C3A16985   6.507  22.446   7.982
 1055POPC   C4A16986   6.307  22.039   7.795
 1055POPC   C1B16987   7.104  22.390   8.683
 1055POPC   C2B16988   7.065  22.226   8.279
 1055POPC   C3B16989   6.887  22.125   7.915
 1055POPC   C4B16990   7.123  22.393   7.675
 1056POPC   NC316991  33.344   8.140   9.543
 1056POPC   PO416992  34.035   8.179   9.451
 1056POPC   GL116993  33.886   8.173   9.021
 1056POPC   GL216994  33.579   8.047   9.090
 1056POPC   C1A16995  34.051   8.097   8.605
 1056POPC   D2A16996  34.259   8.040   8.217
 1056POPC   C3A16997  34.040   8.241   7.920
 1056POPC   C4A16998  33.803   7.934   7.710
 1056POPC   C1B16999  33.463   8.118   8.646
 1056POPC   C2B17000  33.576   8.115   8.185
 1056POPC   C3B17001  33.325   8.075   7.813
 1056POPC   C4B17002  33.265   8.078   7.349
 1057POPC   NC317003  31.383  29.076   9.470
 1057POPC   PO417004  31.263  28.407   9.501
 1057POPC   GL117005  31.317  28.690   9.111
 1057POPC   GL217006  31.660  28.908   9.063
 1057POPC   C1A17007  31.360  28.862   8.677
 1057POPC   D2A17008  31.212  29.247   8.514
 1057POPC   C3A17009  31.184  29.187   8.080
 1057POPC   C4A17010  31.295  29.366   7.721
 1057POPC   C1B17011  31.691  29.282   8.741
 1057POPC   C2B17012  31.660  29.344   8.284
 1057POPC   C3B17013  31.764  29.178   7.889
 1057POPC   C4B17014  31.868  28.746   7.745
 1058POPC   NC317015  18.015   5.976   9.459
 1058POPC   PO417016  18.481   5.492   9.361
 1058POPC   GL117017  18.397   5.923   9.096
 1058POPC   GL217018  18.025   5.996   8.970
 1058POPC   C1A17019  18.369   6.159   8.672
 1058POPC   D2A17020  18.315   5.906   8.275
 1058POPC   C3A17021  18.207   6.084   7.864
 1058POPC   C4A17022  18.368   6.177   7.440
 1058POPC   C1B17023  18.178   5.641   8.703
 1058POPC   C2B17024  17.946   5.522   8.335
 1058POPC   C3B17025  18.091   5.570   7.926
 1058POPC   C4B17026  17.901   5.803   7.571
 1059POPC   NC317027   8.395  10.972   9.472
 1059POPC   PO417028   8.340  11.648   9.523
 1059POPC   GL117029   8.208  11.342   9.165
 1059POPC   GL217030   7.925  11.049   9.168
 1059POPC   C1A17031   8.230  11.125   8.741
 1059POPC   D2A17032   8.531  11.125   8.401
 1059POPC   C3A17033   8.362  11.079   8.002
 1059POPC   C4A17034   8.360  11.383   7.666
 1059POPC   C1B17035   7.821  11.398   8.843
 1059POPC   C2B17036   8.026  11.543   8.469
 1059POPC   C3B17037   7.978  11.419   8.054
 1059POPC   C4B17038   7.780  11.485   7.688
 1060POPC   NC317039   2.259  41.115   9.483
 1060POPC   PO417040   1.766  41.684   9.366
 1060POPC   GL117041   1.979  41.403   9.137
 1060POPC   GL217042   2.293  41.568   9.149
 1060POPC   C1A17043   1.899  41.355   8.696
 1060POPC   D2A17044   1.848  41.258   8.274
 1060POPC   C3A17045   2.080  41.402   7.908
 1060POPC   C4A17046   2.162  41.503   7.473
 1060POPC   C1B17047   2.175  41.793   8.738
 1060POPC   C2B17048   2.086  41.746   8.284
 1060POPC   C3B17049   2.337  41.823   7.911
 1060POPC   C4B17050   2.401  41.946   7.499
 1061POPC   NC317051  25.491  26.702   9.426
 1061POPC   PO417052  24.966  27.037   9.461
 1061POPC   GL117053  25.113  26.972   9.100
 1061POPC   GL217054  25.088  26.625   9.059
 1061POPC   C1A17055  25.452  26.995   8.830
 1061POPC   D2A17056  25.700  26.816   8.510
 1061POPC   C3A17057  25.640  26.952   8.091
 1061POPC   C4A17058  25.251  27.058   7.906
 1061POPC   C1B17059  25.300  26.511   8.696
 1061POPC   C2B17060  25.249  26.648   8.252
 1061POPC   C3B17061  25.314  26.535   7.805
 1061POPC   C4B17062  25.017  26.606   7.443
 1062POPC   NC317063  35.709  18.843   9.476
 1062POPC   PO417064  35.089  19.278   9.375
 1062POPC   GL117065  35.353  19.062   9.133
 1062POPC   GL217066  35.297  18.728   9.149
 1062POPC   C1A17067  35.340  19.131   8.716
 1062POPC   D2A17068  35.104  19.144   8.364
 1062POPC   C3A17069  35.043  19.512   8.137
 1062POPC   C4A17070  35.165  19.299   7.757
 1062POPC   C1B17071  35.675  18.774   8.829
 1062POPC   C2B17072  35.652  18.864   8.377
 1062POPC   C3B17073  35.414  18.835   7.974
 1062POPC   C4B17074  35.609  19.059   7.647
 1063POPC   NC317075  38.355  29.551   9.608
 1063POPC   PO417076  38.667  30.097   9.599
 1063POPC   GL117077  38.526  29.860   9.236
 1063POPC   GL217078  38.128  29.801   9.182
 1063POPC   C1A17079  38.451  29.927   8.824
 1063POPC   D2A17080  38.251  30.188   8.518
 1063POPC   C3A17081  38.275  30.037   8.104
 1063POPC   C4A17082  38.347  30.007   7.688
 1063POPC   C1B17083  37.959  29.807   8.701
 1063POPC   C2B17084  37.928  29.663   8.227
 1063POPC   C3B17085  37.965  29.648   7.726
 1063POPC   C4B17086  38.242  29.684   7.316
 1064POPC   NC317087  14.985   2.548   9.308
 1064POPC   PO417088  15.328   3.028   9.481
 1064POPC   GL117089  15.351   2.885   9.111
 1064POPC   GL217090  15.484   2.561   9.135
 1064POPC   C1A17091  15.150   3.018   8.762
 1064POPC   D2A17092  14.956   2.823   8.438
 1064POPC   C3A17093  15.181   2.948   8.112
 1064POPC   C4A17094  15.064   3.114   7.742
 1064POPC   C1B17095  15.350   2.531   8.733
 1064POPC   C2B17096  15.508   2.390   8.350
 1064POPC   C3B17097  15.469   2.543   7.971
 1064POPC   C4B17098  15.159   2.613   7.676
 1065POPC   NC317099   9.192  28.110  10.095
 1065POPC   PO417100   9.141  28.407   9.421
 1065POPC   GL117101   9.006  28.638   9.106
 1065POPC   GL217102   8.660  28.652   9.024
 1065POPC   C1A17103   9.032  28.519   8.686
 1065POPC   D2A17104   8.725  28.650   8.424
 1065POPC   C3A17105   8.890  28.555   8.055
 1065POPC   C4A17106   9.281  28.592   7.820
 1065POPC   C1B17107   8.609  28.251   8.775
 1065POPC   C2B17108   8.782  28.118   8.409
 1065POPC   C3B17109   8.649  28.100   7.996
 1065POPC   C4B17110   8.975  28.160   7.735
 1066POPC   NC317111   9.197  37.674   9.455
 1066POPC   PO417112   8.504  37.367   9.460
 1066POPC   GL117113   8.636  37.585   9.098
 1066POPC   GL217114   8.946  37.708   9.034
 1066POPC   C1A17115   8.759  37.489   8.649
 1066POPC   D2A17116   8.702  37.217   8.342
 1066POPC   C3A17117   8.832  37.473   8.051
 1066POPC   C4A17118   8.755  37.539   7.681
 1066POPC   C1B17119   9.106  37.889   8.685
 1066POPC   C2B17120   8.948  37.941   8.301
 1066POPC   C3B17121   9.065  37.897   7.893
 1066POPC   C4B17122   9.005  37.929   7.461
 1067POPC   NC317123   7.109  22.211   9.580
 1067POPC   PO417124   7.686  22.624   9.670
 1067POPC   GL117125   7.663  22.453   9.203
 1067POPC   GL217126   7.477  22.141   9.196
 1067POPC   C1A17127   7.786  22.455   8.762
 1067POPC   D2A17128   7.561  22.345   8.352
 1067POPC   C3A17129   7.618  22.430   7.873
 1067POPC   C4A17130   7.568  22.313   7.404
 1067POPC   C1B17131   7.518  21.976   8.776
 1067POPC   C2B17132   7.541  21.831   8.333
 1067POPC   C3B17133   7.384  21.972   7.909
 1067POPC   C4B17134   7.069  21.758   7.621
 1068POPC   NC317135  33.846  31.233   9.705
 1068POPC   PO417136  33.753  31.835   9.449
 1068POPC   GL117137  33.773  31.549   9.103
 1068POPC   GL217138  33.527  31.337   9.222
 1068POPC   C1A17139  33.953  31.547   8.679
 1068POPC   D2A17140  34.103  31.307   8.345
 1068POPC   C3A17141  33.948  31.358   7.920
 1068POPC   C4A17142  34.080  31.452   7.490
 1068POPC   C1B17143  33.431  31.386   8.763
 1068POPC   C2B17144  33.602  31.260   8.360
 1068POPC   C3B17145  33.429  31.362   7.941
 1068POPC   C4B17146  33.597  31.582   7.584
 1069POPC   NC317147  11.024   6.970   9.563
 1069POPC   PO417148  11.405   6.435   9.598
 1069POPC   GL117149  11.394   6.692   9.228
 1069POPC   GL217150  11.092   6.571   9.174
 1069POPC   C1A17151  11.453   6.578   8.774
 1069POPC   D2A17152  11.751   6.524   8.465
 1069POPC   C3A17153  11.454   6.595   8.147
 1069POPC   C4A17154  11.364   6.688   7.746
 1069POPC   C1B17155  11.012   6.801   8.799
 1069POPC   C2B17156  10.996   6.602   8.390
 1069POPC   C3B17157  10.901   6.705   7.949
 1069POPC   C4B17158  10.734   6.350   7.692
 1070POPC   NC317159  23.702  18.130   9.372
 1070POPC   PO417160  23.168  18.612   9.250
 1070POPC   GL117161  23.535  18.478   9.027
 1070POPC   GL217162  23.913  18.508   9.077
 1070POPC   C1A17163  23.693  18.300   8.645
 1070POPC   D2A17164  23.880  18.491   8.284
 1070POPC   C3A17165  23.666  18.390   7.912
 1070POPC   C4A17166  23.346  18.047   7.843
 1070POPC   C1B17167  24.196  18.325   8.744
 1070POPC   C2B17168  24.142  18.074   8.378
 1070POPC   C3B17169  24.070  18.055   7.972
 1070POPC   C4B17170  23.853  17.992   7.589
 1071POPC   NC317171  21.139   9.298   9.355
 1071POPC   PO417172  21.582   8.777   9.378
 1071POPC   GL117173  21.515   9.110   9.041
 1071POPC   GL217174  21.180   9.262   8.860
 1071POPC   C1A17175  21.644   9.345   8.683
 1071POPC   D2A17176  21.365   9.332   8.350
 1071POPC   C3A17177  21.403   9.023   8.043
 1071POPC   C4A17178  21.613   8.649   7.899
 1071POPC   C1B17179  21.074   8.835   8.745
 1071POPC   C2B17180  21.017   8.607   8.341
 1071POPC   C3B17181  21.070   8.677   7.886
 1071POPC   C4B17182  20.974   9.078   7.701
 1072POPC   NC317183  41.059  40.543   9.553
 1072POPC   PO417184  40.453  40.717   9.442
 1072POPC   GL117185  40.775  40.683   9.166
 1072POPC   GL217186  40.975  40.978   9.095
 1072POPC   C1A17187  40.805  40.515   8.795
 1072POPC   D2A17188  40.876  40.675   8.410
 1072POPC   C3A17189  40.619  40.618   8.073
 1072POPC   C4A17190  40.659  40.498   7.665
 1072POPC   C1B17191  40.894  41.105   8.682
 1072POPC   C2B17192  40.715  41.113   8.238
 1072POPC   C3B17193  40.700  41.086   7.777
 1072POPC   C4B17194  40.422  41.171   7.396
 1073POPC   NC317195  35.163  13.983   9.364
 1073POPC   PO417196  35.237  13.332   9.437
 1073POPC   GL117197  35.602  13.545   9.248
 1073POPC   GL217198  35.705  13.295   9.009
 1073POPC   C1A17199  35.583  13.773   8.848
 1073POPC   D2A17200  35.369  13.650   8.456
 1073POPC   C3A17201  35.515  13.845   8.076
 1073POPC   C4A17202  35.200  13.938   7.760
 1073POPC   C1B17203  35.816  13.411   8.575
 1073POPC   C2B17204  35.707  13.261   8.191
 1073POPC   C3B17205  35.346  13.376   8.003
 1073POPC   C4B17206  35.544  13.557   7.650
 1074POPC   NC317207  39.615   5.562   9.975
 1074POPC   PO417208  39.137   5.819   9.537
 1074POPC   GL117209  39.019   5.992   9.154
 1074POPC   GL217210  39.354   5.946   9.081
 1074POPC   C1A17211  38.999   5.938   8.707
 1074POPC   D2A17212  38.850   6.003   8.247
 1074POPC   C3A17213  39.171   6.052   7.924
 1074POPC   C4A17214  39.183   6.180   7.501
 1074POPC   C1B17215  39.477   5.642   8.763
 1074POPC   C2B17216  39.717   5.648   8.378
 1074POPC   C3B17217  39.497   5.636   7.999
 1074POPC   C4B17218  39.384   5.687   7.557
 1075POPC   NC317219  21.167  30.429   9.412
 1075POPC   PO417220  21.195  31.019   9.767
 1075POPC   GL117221  21.313  30.929   9.308
 1075POPC   GL217222  21.575  30.659   9.182
 1075POPC   C1A17223  21.277  30.965   8.881
 1075POPC   D2A17224  21.563  30.896   8.522
 1075POPC   C3A17225  21.495  30.771   8.086
 1075POPC   C4A17226  21.412  30.945   7.665
 1075POPC   C1B17227  21.400  30.472   8.792
 1075POPC   C2B17228  21.160  30.315   8.434
 1075POPC   C3B17229  21.092  30.346   8.000
 1075POPC   C4B17230  21.403  30.449   7.692
 1076POPC   NC317231  34.768  41.557   9.588
 1076POPC   PO417232  34.146  41.235   9.472
 1076POPC   GL117233  34.447  41.446   9.176
 1076POPC   GL217234  34.775  41.683   9.109
 1076POPC   C1A17235  34.284  41.342   8.778
 1076POPC   D2A17236  34.376  41.319   8.339
 1076POPC   C3A17237  34.787  41.391   8.156
 1076POPC   C4A17238  34.672  41.275   7.733
 1076POPC   C1B17239  34.709  41.600   8.683
 1076POPC   C2B17240  34.476  41.815   8.354
 1076POPC   C3B17241  34.518  41.751   7.921
 1076POPC   C4B17242  34.883  41.761   7.716
 1077POPC   NC317243  31.393  21.461   9.595
 1077POPC   PO417244  32.053  21.235   9.617
 1077POPC   GL117245  31.770  21.324   9.226
 1077POPC   GL217246  31.470  21.603   9.124
 1077POPC   C1A17247  31.718  21.345   8.766
 1077POPC   D2A17248  31.572  21.517   8.392
 1077POPC   C3A17249  31.810  21.375   8.081
 1077POPC   C4A17250  31.661  21.065   7.829
 1077POPC   C1B17251  31.202  21.414   8.805
 1077POPC   C2B17252  31.033  21.437   8.379
 1077POPC   C3B17253  31.198  21.285   7.997
 1077POPC   C4B17254  31.462  21.524   7.726
 1078POPC   NC317255  28.588  44.018   9.516
 1078POPC   PO417256  27.966  43.829   9.463
 1078POPC   GL117257  28.280  43.883   9.121
 1078POPC   GL217258  28.598  44.113   9.014
 1078POPC   C1A17259  28.311  43.820   8.689
 1078POPC   D2A17260  28.434  44.054   8.367
 1078POPC   C3A17261  28.219  43.982   7.971
 1078POPC   C4A17262  28.538  44.076   7.765
 1078POPC   C1B17263  28.798  43.715   8.836
 1078POPC   C2B17264  28.600  43.439   8.530
 1078POPC   C3B17265  28.445  43.581   8.174
 1078POPC   C4B17266  28.467  43.572   7.728
 1079POPC   NC317267  24.284  34.840   9.844
 1079POPC   PO417268  24.496  34.287   9.472
 1079POPC   GL117269  24.653  34.469   9.058
 1079POPC   GL217270  24.862  34.747   9.182
 1079POPC   C1A17271  24.461  34.609   8.633
 1079POPC   D2A17272  24.548  34.550   8.180
 1079POPC   C3A17273  24.291  34.710   7.833
 1079POPC   C4A17274  24.288  34.593   7.382
 1079POPC   C1B17275  24.800  34.955   8.817
 1079POPC   C2B17276  24.930  34.812   8.413
 1079POPC   C3B17277  24.988  34.743   8.019
 1079POPC   C4B17278  24.723  34.944   7.770
 1080POPC   NC317279  21.935   4.496   9.623
 1080POPC   PO417280  21.763   4.112   9.117
 1080POPC   GL117281  22.107   4.282   8.916
 1080POPC   GL217282  22.260   4.478   9.166
 1080POPC   C1A17283  22.080   4.452   8.507
 1080POPC   D2A17284  21.788   4.707   8.280
 1080POPC   C3A17285  21.793   4.501   7.877
 1080POPC   C4A17286  21.942   4.061   7.880
 1080POPC   C1B17287  22.492   4.603   8.769
 1080POPC   C2B17288  22.471   4.699   8.280
 1080POPC   C3B17289  22.362   4.410   7.898
 1080POPC   C4B17290  22.494   4.400   7.437
 1081POPC   NC317291  43.722   2.223   9.644
 1081POPC   PO417292  44.095   1.652   9.875
 1081POPC   GL117293  43.871   1.754   9.421
 1081POPC   GL217294  43.929   2.077   9.205
 1081POPC   C1A17295  43.626   1.734   8.981
 1081POPC   D2A17296  43.782   1.610   8.563
 1081POPC   C3A17297  43.737   1.687   8.126
 1081POPC   C4A17298  43.574   1.942   7.757
 1081POPC   C1B17299  43.937   2.078   8.752
 1081POPC   C2B17300  43.869   2.198   8.324
 1081POPC   C3B17301  44.075   2.038   7.983
 1081POPC   C4B17302  44.066   1.952   7.590
 1082POPC   NC317303   3.620  14.663   9.332
 1082POPC   PO417304   3.460  14.076   9.660
 1082POPC   GL117305   3.519  14.182   9.199
 1082POPC   GL217306   3.291  14.406   9.034
 1082POPC   C1A17307   3.644  14.106   8.739
 1082POPC   D2A17308   3.906  14.300   8.384
 1082POPC   C3A17309   3.741  14.276   7.948
 1082POPC   C4A17310   3.593  13.943   7.691
 1082POPC   C1B17311   3.582  14.601   8.705
 1082POPC   C2B17312   3.441  14.527   8.308
 1082POPC   C3B17313   3.266  14.577   7.916
 1082POPC   C4B17314   3.444  14.722   7.504
 1083POPC   NC317315   7.866  20.564   9.571
 1083POPC   PO417316   8.500  20.520   9.648
 1083POPC   GL117317   8.292  20.664   9.254
 1083POPC   GL217318   8.572  20.646   9.002
 1083POPC   C1A17319   8.103  20.715   8.821
 1083POPC   D2A17320   8.348  20.702   8.439
 1083POPC   C3A17321   8.133  20.617   8.058
 1083POPC   C4A17322   7.793  20.778   7.848
 1083POPC   C1B17323   8.463  20.291   8.726
 1083POPC   C2B17324   8.321  20.204   8.281
 1083POPC   C3B17325   8.483  20.278   7.829
 1083POPC   C4B17326   8.459  20.285   7.332
 1084POPC   NC317327  18.847  33.097   9.603
 1084POPC   PO417328  19.209  32.590   9.473
 1084POPC   GL117329  19.303  32.890   9.155
 1084POPC   GL217330  19.145  33.189   9.206
 1084POPC   C1A17331  19.276  33.030   8.745
 1084POPC   D2A17332  19.010  32.922   8.420
 1084POPC   C3A17333  19.130  32.940   7.983
 1084POPC   C4A17334  18.813  32.811   7.670
 1084POPC   C1B17335  18.869  33.348   8.869
 1084POPC   C2B17336  18.602  33.234   8.525
 1084POPC   C3B17337  18.669  33.142   8.103
 1084POPC   C4B17338  18.846  33.372   7.762
 1085POPC   NC317339  23.141  14.792   9.538
 1085POPC   PO417340  22.578  14.777   9.177
 1085POPC   GL117341  22.762  15.137   8.997
 1085POPC   GL217342  23.050  15.264   9.181
 1085POPC   C1A17343  22.856  15.297   8.605
 1085POPC   D2A17344  22.584  15.286   8.257
 1085POPC   C3A17345  22.631  14.977   7.921
 1085POPC   C4A17346  22.680  15.371   7.743
 1085POPC   C1B17347  23.204  14.945   8.871
 1085POPC   C2B17348  23.275  15.002   8.440
 1085POPC   C3B17349  23.063  15.208   8.088
 1085POPC   C4B17350  23.104  15.021   7.686
 1086POPC   NC317351  19.506  23.165   9.483
 1086POPC   PO417352  19.951  22.654   9.516
 1086POPC   GL117353  19.920  22.870   9.150
 1086POPC   GL217354  19.602  22.811   9.116
 1086POPC   C1A17355  19.923  23.080   8.749
 1086POPC   D2A17356  19.714  22.928   8.379
 1086POPC   C3A17357  19.706  23.150   7.972
 1086POPC   C4A17358  19.907  23.194   7.598
 1086POPC   C1B17359  19.653  22.558   8.767
 1086POPC   C2B17360  19.720  22.399   8.362
 1086POPC   C3B17361  19.719  22.617   7.968
 1086POPC   C4B17362  19.546  22.760   7.586
 1087POPC   NC317363  39.399  11.723   9.421
 1087POPC   PO417364  38.847  12.278   9.506
 1087POPC   GL117365  38.947  12.343   9.090
 1087POPC   GL217366  39.104  12.022   9.113
 1087POPC   C1A17367  39.006  12.226   8.675
 1087POPC   D2A17368  39.049  11.934   8.401
 1087POPC   C3A17369  39.138  12.126   8.063
 1087POPC   C4A17370  38.992  12.229   7.682
 1087POPC   C1B17371  39.128  11.673   8.833
 1087POPC   C2B17372  39.359  11.533   8.490
 1087POPC   C3B17373  39.425  11.675   8.103
 1087POPC   C4B17374  39.216  11.767   7.719
 1088POPC   NC317375  41.759   2.626   9.465
 1088POPC   PO417376  41.281   3.144   9.495
 1088POPC   GL117377  41.364   2.816   9.214
 1088POPC   GL217378  41.637   2.994   9.126
 1088POPC   C1A17379  41.282   2.538   8.843
 1088POPC   D2A17380  41.486   2.482   8.444
 1088POPC   C3A17381  41.268   2.725   8.104
 1088POPC   C4A17382  41.316   2.590   7.690
 1088POPC   C1B17383  41.693   2.832   8.753
 1088POPC   C2B17384  41.690   2.967   8.322
 1088POPC   C3B17385  41.730   2.793   7.910
 1088POPC   C4B17386  41.940   2.900   7.559
 1089POPC   NC317387   5.530  36.215   9.317
 1089POPC   PO417388   5.937  36.638   9.692
 1089POPC   GL117389   6.016  36.329   9.276
 1089POPC   GL217390   6.009  35.924   9.262
 1089POPC   C1A17391   6.048  36.185   8.840
 1089POPC   D2A17392   6.156  36.173   8.392
 1089POPC   C3A17393   6.287  35.842   8.076
 1089POPC   C4A17394   6.085  35.866   7.668
 1089POPC   C1B17395   5.989  35.695   8.839
 1089POPC   C2B17396   5.938  35.664   8.418
 1089POPC   C3B17397   5.774  35.932   8.079
 1089POPC   C4B17398   5.542  35.928   7.681
 1090POPC   NC317399  42.558   2.526   9.392
 1090POPC   PO417400  42.060   3.020   9.424
 1090POPC   GL117401  42.141   2.923   9.036
 1090POPC   GL217402  42.465   2.923   9.069
 1090POPC   C1A17403  42.171   2.782   8.617
 1090POPC   D2A17404  42.040   2.580   8.266
 1090POPC   C3A17405  42.271   2.803   7.956
 1090POPC   C4A17406  42.451   2.832   7.551
 1090POPC   C1B17407  42.647   2.697   8.731
 1090POPC   C2B17408  42.584   2.547   8.324
 1090POPC   C3B17409  42.718   2.524   7.895
 1090POPC   C4B17410  42.908   2.616   7.492
 1091POPC   NC317411  42.187  35.077   9.574
 1091POPC   PO417412  42.300  35.766   9.454
 1091POPC   GL117413  42.443  35.458   9.180
 1091POPC   GL217414  42.586  35.146   9.236
 1091POPC   C1A17415  42.514  35.371   8.754
 1091POPC   D2A17416  42.456  35.621   8.394
 1091POPC   C3A17417  42.117  35.411   8.196
 1091POPC   C4A17418  42.086  35.441   7.812
 1091POPC   C1B17419  42.813  34.959   8.884
 1091POPC   C2B17420  42.727  34.964   8.478
 1091POPC   C3B17421  42.558  35.174   8.152
 1091POPC   C4B17422  42.497  35.118   7.729
 1092POPC   NC317423  13.937  21.501   9.476
 1092POPC   PO417424  13.273  21.483   9.539
 1092POPC   GL117425  13.483  21.489   9.133
 1092POPC   GL217426  13.215  21.588   8.924
 1092POPC   C1A17427  13.728  21.546   8.737
 1092POPC   D2A17428  13.839  21.229   8.415
 1092POPC   C3A17429  13.794  21.267   7.981
 1092POPC   C4A17430  13.888  21.571   7.681
 1092POPC   C1B17431  13.310  21.294   8.601
 1092POPC   C2B17432  13.382  21.043   8.222
 1092POPC   C3B17433  13.335  21.181   7.813
 1092POPC   C4B17434  13.609  21.212   7.462
 1093POPC   NC317435  36.624  15.500   9.434
 1093POPC   PO417436  36.916  16.069   9.551
 1093POPC   GL117437  36.714  15.985   9.168
 1093POPC   GL217438  36.355  15.971   9.130
 1093POPC   C1A17439  36.737  16.131   8.749
 1093POPC   D2A17440  36.834  15.860   8.410
 1093POPC   C3A17441  36.903  16.038   8.031
 1093POPC   C4A17442  37.020  15.750   7.732
 1093POPC   C1B17443  36.479  15.683   8.789
 1093POPC   C2B17444  36.475  15.479   8.378
 1093POPC   C3B17445  36.534  15.671   7.992
 1093POPC   C4B17446  36.338  15.739   7.630
 1094POPC   NC317447   3.794  16.044   9.341
 1094POPC   PO417448   3.177  15.748   9.293
 1094POPC   GL117449   3.456  15.855   9.014
 1094POPC   GL217450   3.708  15.592   9.064
 1094POPC   C1A17451   3.416  16.157   8.695
 1094POPC   D2A17452   3.274  16.435   8.381
 1094POPC   C3A17453   3.453  16.276   8.011
 1094POPC   C4A17454   3.339  15.957   7.799
 1094POPC   C1B17455   3.573  15.556   8.632
 1094POPC   C2B17456   3.510  15.813   8.288
 1094POPC   C3B17457   3.712  15.656   7.911
 1094POPC   C4B17458   3.721  15.676   7.485
 1095POPC   NC317459   7.543  10.823   9.498
 1095POPC   PO417460   7.539  10.197   9.679
 1095POPC   GL117461   7.399  10.368   9.240
 1095POPC   GL217462   7.707  10.512   9.104
 1095POPC   C1A17463   7.157  10.498   8.832
 1095POPC   D2A17464   7.191  10.373   8.411
 1095POPC   C3A17465   7.379  10.712   8.216
 1095POPC   C4A17466   7.174  10.810   7.846
 1095POPC   C1B17467   7.626  10.357   8.702
 1095POPC   C2B17468   7.731  10.318   8.291
 1095POPC   C3B17469   7.524  10.321   7.904
 1095POPC   C4B17470   7.565  10.584   7.593
 1096POPC   NC317471  32.342  30.880   9.341
 1096POPC   PO417472  32.175  30.187   9.394
 1096POPC   GL117473  32.266  30.437   9.086
 1096POPC   GL217474  32.594  30.331   9.018
 1096POPC   C1A17475  32.018  30.621   8.750
 1096POPC   D2A17476  31.918  30.880   8.372
 1096POPC   C3A17477  31.920  30.622   8.041
 1096POPC   C4A17478  32.159  30.865   7.782
 1096POPC   C1B17479  32.529  30.719   8.725
 1096POPC   C2B17480  32.384  30.682   8.286
 1096POPC   C3B17481  32.615  30.721   7.926
 1096POPC   C4B17482  32.533  30.674   7.494
 1097POPC   NC317483  43.070   4.614   9.705
 1097POPC   PO417484  43.472   5.063   9.567
 1097POPC   GL117485  43.372   5.289   9.169
 1097POPC   GL217486  43.040   5.475   9.142
 1097POPC   C1A17487  43.471   5.108   8.780
 1097POPC   D2A17488  43.284   4.953   8.406
 1097POPC   C3A17489  43.478   5.042   8.029
 1097POPC   C4A17490  43.404   5.078   7.635
 1097POPC   C1B17491  42.941   5.322   8.724
 1097POPC   C2B17492  42.721   5.035   8.468
 1097POPC   C3B17493  42.637   4.979   8.043
 1097POPC   C4B17494  42.903   5.173   7.710
 1098POPC   NC317495  30.228  26.075   9.462
 1098POPC   PO417496  29.707  26.186   9.648
 1098POPC   GL117497  29.731  26.079   9.224
 1098POPC   GL217498  29.715  26.400   9.081
 1098POPC   C1A17499  29.753  25.976   8.766
 1098POPC   D2A17500  30.104  25.992   8.450
 1098POPC   C3A17501  29.980  25.851   8.042
 1098POPC   C4A17502  30.187  25.748   7.670
 1098POPC   C1B17503  29.884  26.450   8.652
 1098POPC   C2B17504  29.716  26.270   8.273
 1098POPC   C3B17505  29.604  26.141   7.852
 1098POPC   C4B17506  29.737  26.365   7.481
 1099POPC   NC317507  25.632  22.990   9.298
 1099POPC   PO417508  26.284  23.054   9.505
 1099POPC   GL117509  26.097  22.978   9.110
 1099POPC   GL217510  25.927  22.626   9.087
 1099POPC   C1A17511  25.892  23.145   8.714
 1099POPC   D2A17512  25.609  23.127   8.337
 1099POPC   C3A17513  25.870  23.203   7.974
 1099POPC   C4A17514  26.248  23.419   7.897
 1099POPC   C1B17515  26.129  22.689   8.702
 1099POPC   C2B17516  25.998  22.788   8.312
 1099POPC   C3B17517  26.170  22.808   7.966
 1099POPC   C4B17518  26.105  22.613   7.593
 1100POPC   NC317519  43.854  14.690   9.432
 1100POPC   PO417520  44.254  14.177   9.532
 1100POPC   GL117521  43.987  14.269   9.151
 1100POPC   GL217522  44.105  14.581   8.989
 1100POPC   C1A17523  43.852  14.175   8.736
 1100POPC   D2A17524  43.965  14.347   8.316
 1100POPC   C3A17525  43.806  14.224   7.916
 1100POPC   C4A17526  43.505  14.315   7.603
 1100POPC   C1B17527  44.235  14.715   8.561
 1100POPC   C2B17528  44.046  14.836   8.144
 1100POPC   C3B17529  43.763  14.738   7.807
 1100POPC   C4B17530  43.992  14.474   7.492
 1101POPC   NC317531   3.941  38.890   9.741
 1101POPC   PO417532   4.272  39.319   9.319
 1101POPC   GL117533   4.431  39.079   8.988
 1101POPC   GL217534   4.698  38.904   8.876
 1101POPC   C1A17535   4.298  39.071   8.568
 1101POPC   D2A17536   4.451  39.028   8.167
 1101POPC   C3A17537   4.151  39.129   7.877
 1101POPC   C4A17538   4.196  39.370   7.521
 1101POPC   C1B17539   4.697  39.353   8.675
 1101POPC   C2B17540   4.461  39.541   8.330
 1101POPC   C3B17541   4.495  39.521   7.906
 1101POPC   C4B17542   4.667  39.172   7.690
 1102POPC   NC317543  27.505  17.176   9.471
 1102POPC   PO417544  27.751  17.803   9.428
 1102POPC   GL117545  27.640  17.789   9.033
 1102POPC   GL217546  27.427  17.503   9.068
 1102POPC   C1A17547  27.851  17.475   8.780
 1102POPC   D2A17548  27.752  17.285   8.419
 1102POPC   C3A17549  27.763  17.474   8.064
 1102POPC   C4A17550  27.836  17.315   7.691
 1102POPC   C1B17551  27.319  17.535   8.622
 1102POPC   C2B17552  27.272  17.360   8.181
 1102POPC   C3B17553  27.367  17.489   7.736
 1102POPC   C4B17554  27.481  17.320   7.301
 1103POPC   NC317555  38.485  24.830   9.319
 1103POPC   PO417556  38.179  24.226   9.545
 1103POPC   GL117557  38.434  24.300   9.205
 1103POPC   GL217558  38.183  24.506   9.051
 1103POPC   C1A17559  38.565  24.249   8.774
 1103POPC   D2A17560  38.374  24.246   8.373
 1103POPC   C3A17561  38.496  24.252   7.944
 1103POPC   C4A17562  38.841  24.504   7.798
 1103POPC   C1B17563  38.215  24.697   8.623
 1103POPC   C2B17564  38.299  24.723   8.156
 1103POPC   C3B17565  38.146  24.568   7.735
 1103POPC   C4B17566  38.110  24.543   7.252
 1104POPC   NC317567  20.238  13.475   9.545
 1104POPC   PO417568  20.973  13.726   9.548
 1104POPC   GL117569  20.825  13.732   9.149
 1104POPC   GL217570  20.499  13.839   9.226
 1104POPC   C1A17571  20.887  13.555   8.731
 1104POPC   D2A17572  21.091  13.524   8.338
 1104POPC   C3A17573  20.848  13.724   8.078
 1104POPC   C4A17574  20.718  13.507   7.758
 1104POPC   C1B17575  20.400  13.540   8.901
 1104POPC   C2B17576  20.446  13.624   8.471
 1104POPC   C3B17577  20.341  13.692   8.048
 1104POPC   C4B17578  20.349  13.839   7.644
 1105POPC   NC317579  27.172  30.872   9.794
 1105POPC   PO417580  26.497  30.814   9.567
 1105POPC   GL117581  26.652  30.655   9.170
 1105POPC   GL217582  26.411  30.396   9.103
 1105POPC   C1A17583  26.770  30.779   8.729
 1105POPC   D2A17584  26.978  30.979   8.388
 1105POPC   C3A17585  26.790  30.964   7.950
 1105POPC   C4A17586  26.924  30.805   7.529
 1105POPC   C1B17587  26.387  30.456   8.648
 1105POPC   C2B17588  26.658  30.503   8.288
 1105POPC   C3B17589  26.710  30.462   7.856
 1105POPC   C4B17590  26.468  30.568   7.483
 1106POPC   NC317591  34.233  44.268   9.470
 1106POPC   PO417592  34.428  43.571   9.491
 1106POPC   GL117593  34.439  43.807   9.129
 1106POPC   GL217594  34.773  43.962   9.088
 1106POPC   C1A17595  34.370  44.150   8.835
 1106POPC   D2A17596  34.531  44.245   8.449
 1106POPC   C3A17597  34.407  43.962   8.139
 1106POPC   C4A17598  34.373  44.068   7.706
 1106POPC   C1B17599  34.779  43.833   8.651
 1106POPC   C2B17600  34.940  43.984   8.252
 1106POPC   C3B17601  34.819  43.839   7.877
 1106POPC   C4B17602  34.495  43.565   7.768
 1107POPC   NC317603  25.625  36.935   9.635
 1107POPC   PO417604  25.071  36.532   9.390
 1107POPC   GL117605  24.912  36.610   9.015
 1107POPC   GL217606  24.951  36.958   9.067
 1107POPC   C1A17607  25.113  36.655   8.613
 1107POPC   D2A17608  25.516  36.789   8.436
 1107POPC   C3A17609  25.527  36.749   7.987
 1107POPC   C4A17610  25.248  36.943   7.689
 1107POPC   C1B17611  24.994  37.144   8.661
 1107POPC   C2B17612  25.069  37.033   8.245
 1107POPC   C3B17613  24.821  37.094   7.897
 1107POPC   C4B17614  24.808  36.982   7.428
 1108POPC   NC317615  36.433   4.632   9.314
 1108POPC   PO417616  35.888   4.174   9.416
 1108POPC   GL117617  36.091   4.316   9.115
 1108POPC   GL217618  35.930   4.645   9.230
 1108POPC   C1A17619  36.157   4.189   8.703
 1108POPC   D2A17620  36.221   3.924   8.341
 1108POPC   C3A17621  36.088   4.201   8.023
 1108POPC   C4A17622  36.252   4.542   7.785
 1108POPC   C1B17623  35.928   4.654   8.783
 1108POPC   C2B17624  35.957   4.641   8.347
 1108POPC   C3B17625  35.768   4.600   7.938
 1108POPC   C4B17626  35.803   4.513   7.485
 1109POPC   NC317627  40.275  36.901   9.204
 1109POPC   PO417628  39.820  37.206   9.661
 1109POPC   GL117629  39.780  37.079   9.226
 1109POPC   GL217630  39.700  36.730   9.125
 1109POPC   C1A17631  39.808  37.195   8.771
 1109POPC   D2A17632  39.816  37.019   8.324
 1109POPC   C3A17633  40.151  37.104   8.010
 1109POPC   C4A17634  39.911  37.201   7.672
 1109POPC   C1B17635  39.942  36.704   8.720
 1109POPC   C2B17636  40.238  36.741   8.419
 1109POPC   C3B17637  40.107  36.602   8.020
 1109POPC   C4B17638  40.087  36.745   7.610
 1110POPC   NC317639   0.103  40.758   9.565
 1110POPC   PO417640   0.560  40.259   9.437
 1110POPC   GL117641   0.617  40.527   9.120
 1110POPC   GL217642   0.457  40.835   9.217
 1110POPC   C1A17643   0.432  40.574   8.750
 1110POPC   D2A17644   0.602  40.625   8.398
 1110POPC   C3A17645   0.453  40.453   8.056
 1110POPC   C4A17646   0.476  40.579   7.666
 1110POPC   C1B17647   0.223  41.016   8.880
 1110POPC   C2B17648   0.363  41.076   8.453
 1110POPC   C3B17649   0.273  40.943   8.024
 1110POPC   C4B17650   0.467  41.089   7.649
 1111POPC   NC317651  40.856  37.879   9.704
 1111POPC   PO417652  41.434  37.623   9.579
 1111POPC   GL117653  41.580  37.566   9.154
 1111POPC   GL217654  41.605  37.879   9.011
 1111POPC   C1A17655  41.655  37.517   8.690
 1111POPC   D2A17656  41.468  37.577   8.304
 1111POPC   C3A17657  41.653  37.694   7.913
 1111POPC   C4A17658  41.533  37.477   7.553
 1111POPC   C1B17659  41.273  37.917   8.695
 1111POPC   C2B17660  41.015  37.849   8.335
 1111POPC   C3B17661  41.130  37.734   7.918
 1111POPC   C4B17662  41.135  37.753   7.490
 1112POPC   NC317663  21.098  12.129   9.544
 1112POPC   PO417664  20.424  12.217   9.530
 1112POPC   GL117665  20.434  12.060   9.132
 1112POPC   GL217666  20.795  12.043   9.136
 1112POPC   C1A17667  20.523  12.166   8.718
 1112POPC   D2A17668  20.654  11.976   8.368
 1112POPC   C3A17669  20.599  12.204   8.019
 1112POPC   C4A17670  20.345  12.473   7.815
 1112POPC   C1B17671  20.993  11.986   8.739
 1112POPC   C2B17672  21.151  11.897   8.331
 1112POPC   C3B17673  21.039  11.931   7.940
 1112POPC   C4B17674  20.984  12.280   7.689
 1113POPC   NC317675  18.649  16.935   9.499
 1113POPC   PO417676  18.115  16.515   9.468
 1113POPC   GL117677  18.061  16.486   9.071
 1113POPC   GL217678  18.343  16.628   9.020
 1113POPC   C1A17679  18.147  16.323   8.673
 1113POPC   D2A17680  18.131  16.569   8.329
 1113POPC   C3A17681  18.207  16.417   7.939
 1113POPC   C4A17682  18.011  16.645   7.648
 1113POPC   C1B17683  18.151  16.872   8.743
 1113POPC   C2B17684  18.313  17.072   8.403
 1113POPC   C3B17685  18.349  16.929   8.001
 1113POPC   C4B17686  18.476  16.815   7.582
 1114POPC   NC317687  26.263  10.979   9.885
 1114POPC   PO417688  26.082  10.430   9.503
 1114POPC   GL117689  26.147  10.539   9.112
 1114POPC   GL217690  25.783  10.539   9.086
 1114POPC   C1A17691  26.140  10.766   8.760
 1114POPC   D2A17692  26.087  10.581   8.370
 1114POPC   C3A17693  26.194  10.762   7.981
 1114POPC   C4A17694  26.133  10.423   7.707
 1114POPC   C1B17695  25.626  10.704   8.735
 1114POPC   C2B17696  25.610  10.785   8.332
 1114POPC   C3B17697  25.714  10.600   7.970
 1114POPC   C4B17698  25.673  10.585   7.545
 1115POPC   NC317699  25.957  29.283   9.755
 1115POPC   PO417700  25.871  28.662   9.592
 1115POPC   GL117701  25.832  28.974   9.282
 1115POPC   GL217702  26.081  29.182   9.187
 1115POPC   C1A17703  25.791  28.974   8.833
 1115POPC   D2A17704  25.969  28.942   8.428
 1115POPC   C3A17705  25.857  29.249   8.104
 1115POPC   C4A17706  25.963  29.074   7.710
 1115POPC   C1B17707  26.328  29.116   8.811
 1115POPC   C2B17708  26.348  29.365   8.442
 1115POPC   C3B17709  26.364  29.434   8.020
 1115POPC   C4B17710  26.452  29.124   7.693
 1116POPC   NC317711  15.773  43.215   9.579
 1116POPC   PO417712  16.341  42.908   9.731
 1116POPC   GL117713  16.322  43.046   9.236
 1116POPC   GL217714  15.973  43.164   9.090
 1116POPC   C1A17715  16.288  42.924   8.754
 1116POPC   D2A17716  15.904  42.896   8.474
 1116POPC   C3A17717  15.957  43.100   8.100
 1116POPC   C4A17718  15.831  43.123   7.693
 1116POPC   C1B17719  16.019  43.363   8.657
 1116POPC   C2B17720  16.217  43.522   8.275
 1116POPC   C3B17721  16.273  43.424   7.843
 1116POPC   C4B17722  15.911  43.608   7.665
 1117POPC   NC317723  24.682  20.237   9.384
 1117POPC   PO417724  24.490  19.599   9.599
 1117POPC   GL117725  24.425  19.829   9.214
 1117POPC   GL217726  24.735  19.784   9.057
 1117POPC   C1A17727  24.316  19.950   8.777
 1117POPC   D2A17728  24.199  19.682   8.391
 1117POPC   C3A17729  24.360  19.760   7.995
 1117POPC   C4A17730  24.348  19.967   7.578
 1117POPC   C1B17731  24.703  19.659   8.629
 1117POPC   C2B17732  24.807  19.669   8.218
 1117POPC   C3B17733  24.807  19.924   7.863
 1117POPC   C4B17734  24.756  19.614   7.558
 1118POPC   NC317735  44.141  20.312   9.411
 1118POPC   PO417736  43.582  20.252   9.819
 1118POPC   GL117737  43.731  19.890   9.417
 1118POPC   GL217738  43.957  19.969   9.107
 1118POPC   C1A17739  43.801  19.520   9.021
 1118POPC   D2A17740  43.859  19.391   8.551
 1118POPC   C3A17741  43.890  19.713   8.199
 1118POPC   C4A17742  43.863  19.657   7.766
 1118POPC   C1B17743  44.129  19.881   8.693
 1118POPC   C2B17744  44.243  20.096   8.301
 1118POPC   C3B17745  43.963  20.201   7.975
 1118POPC   C4B17746  43.547  20.052   7.906
 1119POPC   NC317747  33.376  13.646   9.547
 1119POPC   PO417748  32.743  13.788   9.446
 1119POPC   GL117749  33.059  13.701   9.164
 1119POPC   GL217750  33.252  14.013   9.204
 1119POPC   C1A17751  33.331  13.639   8.814
 1119POPC   D2A17752  33.483  13.695   8.383
 1119POPC   C3A17753  33.240  13.484   8.072
 1119POPC   C4A17754  32.896  13.443   7.791
 1119POPC   C1B17755  33.027  14.038   8.807
 1119POPC   C2B17756  32.962  13.779   8.420
 1119POPC   C3B17757  32.754  13.872   8.019
 1119POPC   C4B17758  32.604  13.767   7.549
 1120POPC   NC317759   0.209   3.139   9.334
 1120POPC   PO417760   0.669   2.690   9.551
 1120POPC   GL117761   0.471   2.727   9.150
 1120POPC   GL217762   0.647   3.020   9.091
 1120POPC   C1A17763   0.286   2.793   8.723
 1120POPC   D2A17764   0.470   2.636   8.332
 1120POPC   C3A17765   0.381   2.857   7.988
 1120POPC   C4A17766   0.025   2.927   7.753
 1120POPC   C1B17767   0.776   2.924   8.692
 1120POPC   C2B17768   0.671   3.143   8.322
 1120POPC   C3B17769   0.820   3.128   7.935
 1120POPC   C4B17770   0.698   3.174   7.516
 1121POPC   NC317771  29.287  28.690   9.384
 1121POPC   PO417772  28.667  28.358   9.473
 1121POPC   GL117773  28.969  28.303   9.140
 1121POPC   GL217774  29.319  28.206   9.197
 1121POPC   C1A17775  29.116  28.480   8.740
 1121POPC   D2A17776  29.201  28.554   8.283
 1121POPC   C3A17777  28.927  28.377   7.913
 1121POPC   C4A17778  28.935  28.152   7.486
 1121POPC   C1B17779  29.550  28.202   8.780
 1121POPC   C2B17780  29.649  28.260   8.329
 1121POPC   C3B17781  29.420  28.255   7.919
 1121POPC   C4B17782  29.445  27.939   7.578
 1122POPC   NC317783  23.764  26.564   9.566
 1122POPC   PO417784  23.988  27.200   9.375
 1122POPC   GL117785  23.779  26.965   9.031
 1122POPC   GL217786  23.685  26.613   9.071
 1122POPC   C1A17787  23.697  26.866   8.601
 1122POPC   D2A17788  23.684  27.127   8.207
 1122POPC   C3A17789  23.502  26.987   7.808
 1122POPC   C4A17790  23.318  27.033   7.360
 1122POPC   C1B17791  24.005  26.424   8.837
 1122POPC   C2B17792  24.142  26.531   8.443
 1122POPC   C3B17793  23.856  26.656   8.132
 1122POPC   C4B17794  23.709  26.502   7.768
 1123POPC   NC317795   7.470  20.802  10.442
 1123POPC   PO417796   7.560  20.907   9.671
 1123POPC   GL117797   7.582  20.797   9.224
 1123POPC   GL217798   7.585  21.120   9.137
 1123POPC   C1A17799   7.664  20.458   8.883
 1123POPC   D2A17800   7.791  20.505   8.425
 1123POPC   C3A17801   7.474  20.436   8.056
 1123POPC   C4A17802   7.046  20.575   7.892
 1123POPC   C1B17803   7.519  20.918   8.719
 1123POPC   C2B17804   7.332  20.831   8.335
 1123POPC   C3B17805   7.338  20.984   7.927
 1123POPC   C4B17806   7.198  20.914   7.491
 1124POPC   NC317807  23.264  23.247   9.366
 1124POPC   PO417808  22.812  23.004   9.776
 1124POPC   GL117809  22.817  22.832   9.305
 1124POPC   GL217810  23.025  22.981   8.987
 1124POPC   C1A17811  22.741  22.576   8.923
 1124POPC   D2A17812  22.964  22.614   8.528
 1124POPC   C3A17813  22.770  22.823   8.156
 1124POPC   C4A17814  22.740  22.665   7.710
 1124POPC   C1B17815  23.208  23.060   8.554
 1124POPC   C2B17816  23.334  23.246   8.159
 1124POPC   C3B17817  23.230  23.063   7.762
 1124POPC   C4B17818  23.085  23.268   7.389
 1125POPC   NC317819  30.380  19.292   9.903
 1125POPC   PO417820  29.956  18.892   9.552
 1125POPC   GL117821  29.846  18.809   9.140
 1125POPC   GL217822  29.895  19.177   9.107
 1125POPC   C1A17823  29.900  18.903   8.689
 1125POPC   D2A17824  29.884  19.088   8.333
 1125POPC   C3A17825  29.927  18.872   7.964
 1125POPC   C4A17826  30.088  19.156   7.653
 1125POPC   C1B17827  29.761  19.437   8.739
 1125POPC   C2B17828  29.566  19.509   8.363
 1125POPC   C3B17829  29.776  19.435   7.974
 1125POPC   C4B17830  29.718  19.595   7.582
 1126POPC   NC317831  24.366  16.332   9.437
 1126POPC   PO417832  24.328  15.615   9.403
 1126POPC   GL117833  24.537  15.923   9.168
 1126POPC   GL217834  24.198  16.007   9.083
 1126POPC   C1A17835  24.547  16.072   8.732
 1126POPC   D2A17836  24.382  15.886   8.397
 1126POPC   C3A17837  24.552  15.986   8.019
 1126POPC   C4A17838  24.364  15.710   7.806
 1126POPC   C1B17839  24.058  16.223   8.753
 1126POPC   C2B17840  23.876  16.200   8.375
 1126POPC   C3B17841  24.052  16.073   8.013
 1126POPC   C4B17842  24.274  16.249   7.664
 1127POPC   NC317843   6.862  27.541   9.420
 1127POPC   PO417844   7.453  27.388   9.695
 1127POPC   GL117845   7.372  27.608   9.309
 1127POPC   GL217846   7.588  27.375   9.145
 1127POPC   C1A17847   7.306  27.744   8.880
 1127POPC   D2A17848   7.244  27.590   8.453
 1127POPC   C3A17849   7.407  27.766   8.085
 1127POPC   C4A17850   7.298  27.652   7.690
 1127POPC   C1B17851   7.650  27.356   8.703
 1127POPC   C2B17852   7.641  27.338   8.257
 1127POPC   C3B17853   7.647  27.268   7.830
 1127POPC   C4B17854   7.855  27.174   7.429
 1128POPC   NC317855   8.658  33.960   9.714
 1128POPC   PO417856   9.301  33.935   9.457
 1128POPC   GL117857   9.044  33.790   9.168
 1128POPC   GL217858   8.723  33.731   9.255
 1128POPC   C1A17859   9.042  33.712   8.752
 1128POPC   D2A17860   9.178  33.922   8.403
 1128POPC   C3A17861   9.112  33.715   8.009
 1128POPC   C4A17862   9.150  33.630   7.567
 1128POPC   C1B17863   8.526  33.874   8.899
 1128POPC   C2B17864   8.600  33.777   8.487
 1128POPC   C3B17865   8.594  33.805   8.065
 1128POPC   C4B17866   8.666  33.608   7.659
 1129POPC   NC317867   9.171  17.122   9.651
 1129POPC   PO417868   8.960  17.736   9.529
 1129POPC   GL117869   9.124  17.539   9.172
 1129POPC   GL217870   9.357  17.233   9.192
 1129POPC   C1A17871   8.937  17.625   8.750
 1129POPC   D2A17872   8.787  17.328   8.431
 1129POPC   C3A17873   8.794  17.364   7.983
 1129POPC   C4A17874   8.902  17.585   7.642
 1129POPC   C1B17875   9.097  17.138   8.837
 1129POPC   C2B17876   9.159  16.977   8.429
 1129POPC   C3B17877   9.249  17.126   8.029
 1129POPC   C4B17878   9.214  17.184   7.597
 1130POPC   NC317879  15.315  13.188   9.973
 1130POPC   PO417880  15.102  13.805   9.702
 1130POPC   GL117881  15.178  13.800   9.207
 1130POPC   GL217882  15.174  13.478   9.098
 1130POPC   C1A17883  15.087  13.963   8.754
 1130POPC   D2A17884  14.929  13.830   8.339
 1130POPC   C3A17885  15.129  13.907   7.932
 1130POPC   C4A17886  15.402  13.736   7.560
 1130POPC   C1B17887  15.116  13.465   8.668
 1130POPC   C2B17888  15.307  13.495   8.250
 1130POPC   C3B17889  15.145  13.397   7.842
 1130POPC   C4B17890  15.327  13.217   7.473
 1131POPC   NC317891  40.186  32.164   9.725
 1131POPC   PO417892  39.549  32.318   9.465
 1131POPC   GL117893  39.882  32.344   9.127
 1131POPC   GL217894  39.964  32.039   9.124
 1131POPC   C1A17895  39.976  32.273   8.655
 1131POPC   D2A17896  39.889  32.324   8.217
 1131POPC   C3A17897  40.162  32.148   7.870
 1131POPC   C4A17898  40.166  32.188   7.382
 1131POPC   C1B17899  39.586  32.008   8.811
 1131POPC   C2B17900  39.694  31.901   8.402
 1131POPC   C3B17901  39.774  31.792   7.976
 1131POPC   C4B17902  39.579  31.889   7.610
 1132POPC   NC317903  24.460   1.098   9.576
 1132POPC   PO417904  24.279   1.691   9.328
 1132POPC   GL117905  24.484   1.335   9.086
 1132POPC   GL217906  24.365   0.953   9.071
 1132POPC   C1A17907  24.462   1.201   8.643
 1132POPC   D2A17908  24.494   1.104   8.228
 1132POPC   C3A17909  24.212   1.277   7.956
 1132POPC   C4A17910  24.150   0.993   7.644
 1132POPC   C1B17911  24.772   0.809   8.912
 1132POPC   C2B17912  24.935   0.806   8.486
 1132POPC   C3B17913  24.943   0.926   8.052
 1132POPC   C4B17914  24.960   0.798   7.627
 1133POPC   NC317915  11.549  14.212   9.512
 1133POPC   PO417916  11.514  14.875   9.477
 1133POPC   GL117917  11.449  14.637   9.109
 1133POPC   GL217918  11.285  14.298   9.081
 1133POPC   C1A17919  11.275  14.773   8.710
 1133POPC   D2A17920  11.293  14.536   8.341
 1133POPC   C3A17921  11.536  14.688   8.009
 1133POPC   C4A17922  11.396  14.775   7.617
 1133POPC   C1B17923  11.022  14.308   8.715
 1133POPC   C2B17924  10.957  14.146   8.268
 1133POPC   C3B17925  11.139  14.354   7.877
 1133POPC   C4B17926  11.316  14.285   7.479
 1134POPC   NC317927   3.105  39.336   9.423
 1134POPC   PO417928   2.493  38.967   9.585
 1134POPC   GL117929   2.671  39.122   9.168
 1134POPC   GL217930   2.703  39.501   9.111
 1134POPC   C1A17931   2.847  39.065   8.740
 1134POPC   D2A17932   2.847  38.896   8.320
 1134POPC   C3A17933   3.106  39.015   7.968
 1134POPC   C4A17934   3.035  39.360   7.618
 1134POPC   C1B17935   2.545  39.453   8.667
 1134POPC   C2B17936   2.618  39.402   8.192
 1134POPC   C3B17937   2.568  39.540   7.752
 1134POPC   C4B17938   2.443  39.665   7.325
 1135POPC   NC317939  32.072  19.241   9.607
 1135POPC   PO417940  32.511  18.875   9.347
 1135POPC   GL117941  32.120  18.993   9.149
 1135POPC   GL217942  31.963  19.320   9.066
 1135POPC   C1A17943  32.051  18.957   8.727
 1135POPC   D2A17944  32.176  19.203   8.401
 1135POPC   C3A17945  32.137  18.868   8.120
 1135POPC   C4A17946  31.872  18.793   7.830
 1135POPC   C1B17947  31.846  19.522   8.674
 1135POPC   C2B17948  31.847  19.600   8.231
 1135POPC   C3B17949  32.035  19.339   7.927
 1135POPC   C4B17950  32.262  19.106   7.678
 1136POPC   NC317951   1.624   4.179   9.466
 1136POPC   PO417952   2.184   4.468   9.579
 1136POPC   GL117953   2.065   4.237   9.188
 1136POPC   GL217954   1.759   4.374   9.021
 1136POPC   C1A17955   2.209   4.237   8.764
 1136POPC   D2A17956   1.976   4.404   8.438
 1136POPC   C3A17957   2.157   4.405   8.032
 1136POPC   C4A17958   1.914   4.521   7.682
 1136POPC   C1B17959   1.762   4.001   8.719
 1136POPC   C2B17960   1.929   3.911   8.280
 1136POPC   C3B17961   1.825   4.025   7.838
 1136POPC   C4B17962   1.912   3.967   7.392
 1137POPC   NC317963  34.652  28.071   9.641
 1137POPC   PO417964  34.276  28.636   9.586
 1137POPC   GL117965  34.519  28.413   9.194
 1137POPC   GL217966  34.760  28.117   9.162
 1137POPC   C1A17967  34.812  28.477   8.817
 1137POPC   D2A17968  34.635  28.409   8.431
 1137POPC   C3A17969  34.765  28.592   8.049
 1137POPC   C4A17970  34.617  28.513   7.665
 1137POPC   C1B17971  34.671  27.975   8.774
 1137POPC   C2B17972  34.684  27.900   8.366
 1137POPC   C3B17973  34.712  28.088   7.997
 1137POPC   C4B17974  35.073  27.964   7.821
 1138POPC   NC317975  41.049  24.339   9.403
 1138POPC   PO417976  40.438  24.735   9.448
 1138POPC   GL117977  40.656  24.518   9.120
 1138POPC   GL217978  40.907  24.797   9.177
 1138POPC   C1A17979  40.562  24.153   8.811
 1138POPC   D2A17980  40.418  24.067   8.374
 1138POPC   C3A17981  40.569  24.410   8.101
 1138POPC   C4A17982  40.638  24.429   7.667
 1138POPC   C1B17983  40.951  24.760   8.736
 1138POPC   C2B17984  41.111  24.611   8.350
 1138POPC   C3B17985  41.080  24.547   7.903
 1138POPC   C4B17986  40.930  24.850   7.590
 1139POPC   NC317987  32.271  20.027   9.486
 1139POPC   PO417988  32.505  19.423   9.723
 1139POPC   GL117989  32.383  19.514   9.281
 1139POPC   GL217990  32.510  19.302   9.049
 1139POPC   C1A17991  32.291  19.732   8.877
 1139POPC   D2A17992  32.365  20.114   8.630
 1139POPC   C3A17993  32.274  20.068   8.191
 1139POPC   C4A17994  32.160  19.822   7.840
 1139POPC   C1B17995  32.600  19.383   8.611
 1139POPC   C2B17996  32.465  19.585   8.217
 1139POPC   C3B17997  32.578  19.530   7.784
 1139POPC   C4B17998  32.714  19.440   7.377
 1140POPC   NC317999  33.160  19.951   9.355
 1140POPC   PO418000  32.915  20.591   9.660
 1140POPC   GL118001  32.964  20.544   9.241
 1140POPC   GL218002  32.753  20.830   9.211
 1140POPC   C1A18003  33.318  20.535   8.940
 1140POPC   D2A18004  33.447  20.446   8.522
 1140POPC   C3A18005  33.089  20.492   8.275
 1140POPC   C4A18006  33.140  20.330   7.875
 1140POPC   C1B18007  32.974  20.936   8.857
 1140POPC   C2B18008  32.861  20.954   8.445
 1140POPC   C3B18009  33.046  20.958   8.054
 1140POPC   C4B18010  33.034  20.808   7.666
 1141POPC   NC318011  22.660   9.414   9.372
 1141POPC   PO418012  23.210   9.905   9.537
 1141POPC   GL118013  23.048   9.703   9.171
 1141POPC   GL218014  22.761   9.877   9.141
 1141POPC   C1A18015  23.208   9.791   8.755
 1141POPC   D2A18016  23.141   9.726   8.330
 1141POPC   C3A18017  23.154  10.065   8.062
 1141POPC   C4A18018  23.197   9.958   7.612
 1141POPC   C1B18019  22.710   9.752   8.721
 1141POPC   C2B18020  22.680   9.939   8.328
 1141POPC   C3B18021  22.740   9.803   7.925
 1141POPC   C4B18022  22.452   9.732   7.611
 1142POPC   NC318023  41.025   7.398   9.461
 1142POPC   PO418024  40.442   7.051   9.356
 1142POPC   GL118025  40.716   7.266   9.090
 1142POPC   GL218026  40.747   7.623   9.075
 1142POPC   C1A18027  40.753   7.257   8.685
 1142POPC   D2A18028  40.801   7.025   8.338
 1142POPC   C3A18029  40.695   7.278   8.007
 1142POPC   C4A18030  40.598   7.589   7.725
 1142POPC   C1B18031  41.120   7.591   8.811
 1142POPC   C2B18032  41.163   7.406   8.403
 1142POPC   C3B18033  41.177   7.407   7.983
 1142POPC   C4B18034  41.098   7.628   7.605
 1143POPC   NC318035  16.130  26.705   9.884
 1143POPC   PO418036  15.527  26.767   9.570
 1143POPC   GL118037  15.784  26.847   9.166
 1143POPC   GL218038  15.713  26.548   8.997
 1143POPC   C1A18039  15.999  26.916   8.754
 1143POPC   D2A18040  16.160  26.985   8.328
 1143POPC   C3A18041  15.907  27.168   7.986
 1143POPC   C4A18042  16.004  27.024   7.578
 1143POPC   C1B18043  16.035  26.404   8.735
 1143POPC   C2B18044  16.076  26.443   8.330
 1143POPC   C3B18045  15.976  26.645   7.976
 1143POPC   C4B18046  16.101  26.529   7.602
 1144POPC   NC318047  36.004  13.891   9.527
 1144POPC   PO418048  36.200  13.216   9.682
 1144POPC   GL118049  36.177  13.330   9.201
 1144POPC   GL218050  36.097  13.677   9.055
 1144POPC   C1A18051  36.449  13.412   8.812
 1144POPC   D2A18052  36.260  13.657   8.476
 1144POPC   C3A18053  36.308  13.541   8.040
 1144POPC   C4A18054  36.023  13.717   7.757
 1144POPC   C1B18055  36.486  13.930   8.843
 1144POPC   C2B18056  36.579  14.029   8.383
 1144POPC   C3B18057  36.426  14.042   7.965
 1144POPC   C4B18058  36.412  13.932   7.489
 1145POPC   NC318059  23.695  24.139   9.498
 1145POPC   PO418060  23.674  23.459   9.544
 1145POPC   GL118061  23.553  23.732   9.202
 1145POPC   GL218062  23.880  23.846   9.110
 1145POPC   C1A18063  23.534  23.829   8.745
 1145POPC   D2A18064  23.650  23.573   8.405
 1145POPC   C3A18065  23.605  23.708   7.975
 1145POPC   C4A18066  23.220  23.590   7.793
 1145POPC   C1B18067  24.048  23.666   8.744
 1145POPC   C2B18068  24.066  23.866   8.328
 1145POPC   C3B18069  24.227  23.901   7.945
 1145POPC   C4B18070  24.056  23.639   7.631
 1146POPC   NC318071  42.494  27.688   9.542
 1146POPC   PO418072  42.115  27.175   9.740
 1146POPC   GL118073  42.277  27.360   9.249
 1146POPC   GL218074  42.614  27.450   9.091
 1146POPC   C1A18075  42.163  27.427   8.794
 1146POPC   D2A18076  42.340  27.418   8.374
 1146POPC   C3A18077  42.055  27.289   8.063
 1146POPC   C4A18078  42.144  27.299   7.617
 1146POPC   C1B18079  42.567  27.728   8.730
 1146POPC   C2B18080  42.422  27.929   8.348
 1146POPC   C3B18081  42.332  27.787   7.961
 1146POPC   C4B18082  42.568  28.031   7.679
 1147POPC   NC318083  30.843   3.948   9.462
 1147POPC   PO418084  30.283   4.497   9.480
 1147POPC   GL118085  30.468   4.233   9.187
 1147POPC   GL218086  30.796   4.305   9.092
 1147POPC   C1A18087  30.362   4.410   8.793
 1147POPC   D2A18088  30.306   4.338   8.366
 1147POPC   C3A18089  30.655   4.369   8.107
 1147POPC   C4A18090  30.542   4.516   7.705
 1147POPC   C1B18091  30.778   4.166   8.647
 1147POPC   C2B18092  31.035   3.902   8.432
 1147POPC   C3B18093  30.988   3.833   8.041
 1147POPC   C4B18094  30.886   4.115   7.723
 1148POPC   NC318095   8.711  16.118   9.528
 1148POPC   PO418096   9.363  16.145   9.389
 1148POPC   GL118097   9.093  15.926   9.168
 1148POPC   GL218098   8.892  16.194   9.050
 1148POPC   C1A18099   8.908  15.726   8.803
 1148POPC   D2A18100   8.901  15.641   8.366
 1148POPC   C3A18101   8.766  15.959   8.096
 1148POPC   C4A18102   8.803  15.903   7.678
 1148POPC   C1B18103   9.204  16.164   8.723
 1148POPC   C2B18104   9.232  16.041   8.312
 1148POPC   C3B18105   9.217  16.168   7.887
 1148POPC   C4B18106   8.894  16.396   7.668
 1149POPC   NC318107  42.001   6.035   9.692
 1149POPC   PO418108  41.577   5.599   9.388
 1149POPC   GL118109  41.547   5.907   9.094
 1149POPC   GL218110  41.773   6.149   9.213
 1149POPC   C1A18111  41.512   5.851   8.667
 1149POPC   D2A18112  41.604   5.582   8.345
 1149POPC   C3A18113  41.572   5.749   7.973
 1149POPC   C4A18114  41.692   5.756   7.583
 1149POPC   C1B18115  41.810   6.254   8.770
 1149POPC   C2B18116  41.757   6.148   8.300
 1149POPC   C3B18117  41.774   6.216   7.829
 1149POPC   C4B18118  41.551   6.217   7.425
 1150POPC   NC318119  16.213  37.325   9.894
 1150POPC   PO418120  16.009  36.865   9.421
 1150POPC   GL118121  15.990  37.010   9.034
 1150POPC   GL218122  15.867  37.324   9.047
 1150POPC   C1A18123  16.051  36.845   8.670
 1150POPC   D2A18124  16.174  36.924   8.265
 1150POPC   C3A18125  16.323  36.617   8.003
 1150POPC   C4A18126  16.310  36.707   7.602
 1150POPC   C1B18127  15.687  37.227   8.644
 1150POPC   C2B18128  15.727  37.260   8.197
 1150POPC   C3B18129  15.861  37.014   7.865
 1150POPC   C4B18130  15.841  37.157   7.443
 1151POPC   NC318131  41.812  33.161   9.533
 1151POPC   PO418132  41.348  32.680   9.516
 1151POPC   GL118133  41.316  32.924   9.172
 1151POPC   GL218134  41.659  33.020   9.065
 1151POPC   C1A18135  41.245  33.036   8.760
 1151POPC   D2A18136  41.578  33.006   8.486
 1151POPC   C3A18137  41.373  33.132   8.160
 1151POPC   C4A18138  41.454  33.088   7.748
 1151POPC   C1B18139  41.964  32.760   8.843
 1151POPC   C2B18140  42.075  32.800   8.441
 1151POPC   C3B18141  42.041  32.644   8.024
 1151POPC   C4B18142  41.893  32.804   7.651
 1152POPC   NC318143  43.312   7.073   9.328
 1152POPC   PO418144  43.196   7.686   9.480
 1152POPC   GL118145  43.079   7.506   9.110
 1152POPC   GL218146  42.734   7.490   9.075
 1152POPC   C1A18147  43.305   7.441   8.742
 1152POPC   D2A18148  43.517   7.257   8.423
 1152POPC   C3A18149  43.322   7.223   8.019
 1152POPC   C4A18150  43.269   7.362   7.607
 1152POPC   C1B18151  42.795   7.414   8.658
 1152POPC   C2B18152  43.034   7.526   8.305
 1152POPC   C3B18153  42.982   7.666   7.876
 1152POPC   C4B18154  42.806   7.537   7.464
 1153POPC   NC318155  12.332  22.962   9.210
 1153POPC   PO418156  11.905  22.691   9.654
 1153POPC   GL118157  11.850  23.115   9.287
 1153POPC   GL218158  11.516  23.061   9.207
 1153POPC   C1A18159  11.931  23.263   8.831
 1153POPC   D2A18160  12.248  23.001   8.569
 1153POPC   C3A18161  12.239  22.974   8.101
 1153POPC   C4A18162  12.286  22.648   7.779
 1153POPC   C1B18163  11.526  22.933   8.754
 1153POPC   C2B18164  11.768  23.034   8.385
 1153POPC   C3B18165  11.808  23.235   7.995
 1153POPC   C4B18166  11.778  22.860   7.767
 1154POPC   NC318167  14.713   5.051   9.627
 1154POPC   PO418168  15.298   5.431   9.548
 1154POPC   GL118169  15.161   5.219   9.185
 1154POPC   GL218170  15.059   4.907   9.262
 1154POPC   C1A18171  14.988   5.215   8.749
 1154POPC   D2A18172  14.913   5.064   8.317
 1154POPC   C3A18173  15.308   4.873   8.147
 1154POPC   C4A18174  15.668   5.016   7.919
 1154POPC   C1B18175  14.934   4.715   8.844
 1154POPC   C2B18176  15.011   4.549   8.414
 1154POPC   C3B18177  14.851   4.683   7.983
 1154POPC   C4B18178  14.849   5.092   7.758
 1155POPC   NC318179  35.348  41.108   9.473
 1155POPC   PO418180  35.076  40.403   9.461
 1155POPC   GL118181  35.322  40.696   9.158
 1155POPC   GL218182  35.328  41.054   8.988
 1155POPC   C1A18183  35.554  40.628   8.814
 1155POPC   D2A18184  35.464  40.603   8.405
 1155POPC   C3A18185  35.625  40.830   8.092
 1155POPC   C4A18186  35.439  40.898   7.711
 1155POPC   C1B18187  35.111  41.251   8.658
 1155POPC   C2B18188  35.198  41.078   8.265
 1155POPC   C3B18189  34.981  40.894   7.933
 1155POPC   C4B18190  34.973  40.923   7.504
 1156POPC   NC318191   2.490  23.286   9.393
 1156POPC   PO418192   2.807  22.785   9.689
 1156POPC   GL118193   2.788  22.837   9.203
 1156POPC   GL218194   2.476  22.876   9.109
 1156POPC   C1A18195   2.872  22.960   8.744
 1156POPC   D2A18196   3.079  22.772   8.370
 1156POPC   C3A18197   2.864  22.892   7.978
 1156POPC   C4A18198   3.003  23.118   7.640
 1156POPC   C1B18199   2.371  23.061   8.724
 1156POPC   C2B18200   2.489  22.894   8.344
 1156POPC   C3B18201   2.360  23.047   7.958
 1156POPC   C4B18202   2.503  23.055   7.496
 1157POPC   NC318203   4.507  31.137   9.470
 1157POPC   PO418204   3.897  31.449   9.272
 1157POPC   GL118205   4.238  31.499   9.001
 1157POPC   GL218206   4.514  31.578   9.158
 1157POPC   C1A18207   4.311  31.541   8.566
 1157POPC   D2A18208   4.409  31.307   8.211
 1157POPC   C3A18209   4.262  31.546   7.869
 1157POPC   C4A18210   3.865  31.735   7.836
 1157POPC   C1B18211   4.660  31.836   8.784
 1157POPC   C2B18212   4.534  32.038   8.352
 1157POPC   C3B18213   4.573  31.988   7.887
 1157POPC   C4B18214   4.635  31.822   7.450
 1158POPC   NC318215   7.784   4.713   9.423
 1158POPC   PO418216   7.399   5.350   9.427
 1158POPC   GL118217   7.392   4.952   9.192
 1158POPC   GL218218   7.346   5.203   8.930
 1158POPC   C1A18219   7.352   4.716   8.831
 1158POPC   D2A18220   7.369   4.971   8.469
 1158POPC   C3A18221   7.250   4.769   8.143
 1158POPC   C4A18222   7.269   4.894   7.742
 1158POPC   C1B18223   7.656   5.366   8.621
 1158POPC   C2B18224   7.589   5.469   8.200
 1158POPC   C3B18225   7.514   5.399   7.777
 1158POPC   C4B18226   7.362   5.325   7.379
 1159POPC   NC318227  34.126   2.007   9.521
 1159POPC   PO418228  33.649   2.482   9.688
 1159POPC   GL118229  33.819   2.260   9.217
 1159POPC   GL218230  33.749   1.914   9.136
 1159POPC   C1A18231  33.769   2.228   8.749
 1159POPC   D2A18232  33.727   1.948   8.405
 1159POPC   C3A18233  33.902   2.121   8.025
 1159POPC   C4A18234  33.783   1.945   7.638
 1159POPC   C1B18235  34.091   1.839   8.889
 1159POPC   C2B18236  34.188   1.575   8.567
 1159POPC   C3B18237  34.093   1.628   8.143
 1159POPC   C4B18238  34.248   1.808   7.769
 1160POPC   NC318239  13.295  38.196   9.372
 1160POPC   PO418240  13.855  38.583   9.591
 1160POPC   GL118241  13.627  38.674   9.179
 1160POPC   GL218242  13.261  38.743   9.187
 1160POPC   C1A18243  13.824  38.688   8.732
 1160POPC   D2A18244  13.857  38.430   8.354
 1160POPC   C3A18245  13.763  38.607   7.950
 1160POPC   C4A18246  13.754  38.330   7.588
 1160POPC   C1B18247  13.342  38.489   8.795
 1160POPC   C2B18248  13.339  38.422   8.360
 1160POPC   C3B18249  13.437  38.209   7.985
 1160POPC   C4B18250  13.266  38.248   7.573
 1161POPC   NC318251  29.716  11.531   9.832
 1161POPC   PO418252  30.112  11.208   9.457
 1161POPC   GL118253  29.969  11.336   9.050
 1161POPC   GL218254  29.692  11.487   9.173
 1161POPC   C1A18255  29.996  11.443   8.605
 1161POPC   D2A18256  29.977  11.263   8.210
 1161POPC   C3A18257  30.022  11.458   7.807
 1161POPC   C4A18258  29.931  11.478   7.309
 1161POPC   C1B18259  29.506  11.415   8.794
 1161POPC   C2B18260  29.536  11.251   8.424
 1161POPC   C3B18261  29.534  11.444   8.022
 1161POPC   C4B18262  29.583  11.282   7.621
 1162POPC   NC318263  39.040  18.956   9.480
 1162POPC   PO418264  39.661  19.091   9.697
 1162POPC   GL118265  39.455  19.239   9.270
 1162POPC   GL218266  39.110  19.434   9.226
 1162POPC   C1A18267  39.281  19.141   8.841
 1162POPC   D2A18268  39.113  19.031   8.442
 1162POPC   C3A18269  39.425  18.828   8.179
 1162POPC   C4A18270  39.481  18.867   7.739
 1162POPC   C1B18271  38.839  19.444   8.815
 1162POPC   C2B18272  38.684  19.318   8.385
 1162POPC   C3B18273  38.941  19.295   7.995
 1162POPC   C4B18274  38.838  19.476   7.575
 1163POPC   NC318275  17.683  25.716   9.567
 1163POPC   PO418276  17.600  25.038   9.444
 1163POPC   GL118277  17.411  25.175   9.075
 1163POPC   GL218278  17.493  25.472   9.159
 1163POPC   C1A18279  17.516  25.069   8.663
 1163POPC   D2A18280  17.471  25.009   8.254
 1163POPC   C3A18281  17.733  25.106   7.952
 1163POPC   C4A18282  17.447  25.036   7.630
 1163POPC   C1B18283  17.679  25.535   8.773
 1163POPC   C2B18284  17.690  25.470   8.334
 1163POPC   C3B18285  17.797  25.613   7.898
 1163POPC   C4B18286  17.656  25.479   7.467
 1164POPC   NC318287  41.722  24.189   9.219
 1164POPC   PO418288  41.343  24.704   9.446
 1164POPC   GL118289  41.416  24.790   9.068
 1164POPC   GL218290  41.303  24.459   8.972
 1164POPC   C1A18291  41.698  24.699   8.754
 1164POPC   D2A18292  41.561  24.365   8.469
 1164POPC   C3A18293  41.555  24.601   8.103
 1164POPC   C4A18294  41.883  24.750   7.882
 1164POPC   C1B18295  41.075  24.216   8.683
 1164POPC   C2B18296  41.160  24.099   8.255
 1164POPC   C3B18297  41.481  24.081   8.001
 1164POPC   C4B18298  41.534  24.331   7.670
 1165POPC   NC318299  11.092  44.152  10.081
 1165POPC   PO418300  11.340  43.726   9.834
 1165POPC   GL118301  11.329  43.681   9.319
 1165POPC   GL218302  11.280  43.334   9.225
 1165POPC   C1A18303  11.279  43.797   8.800
 1165POPC   D2A18304  11.245  43.934   8.280
 1165POPC   C3A18305  11.389  43.785   7.861
 1165POPC   C4A18306  11.750  43.706   7.552
 1165POPC   C1B18307  10.944  43.418   8.894
 1165POPC   C2B18308  11.008  43.527   8.451
 1165POPC   C3B18309  11.167  43.361   8.076
 1165POPC   C4B18310  11.036  43.494   7.638
 1166POPC   NC318311  19.266  34.070   9.456
 1166POPC   PO418312  18.790  33.546   9.539
 1166POPC   GL118313  19.066  33.685   9.206
 1166POPC   GL218314  18.868  33.938   9.147
 1166POPC   C1A18315  19.222  33.742   8.773
 1166POPC   D2A18316  19.001  33.586   8.404
 1166POPC   C3A18317  19.096  33.758   8.005
 1166POPC   C4A18318  19.368  33.503   7.762
 1166POPC   C1B18319  18.697  33.842   8.747
 1166POPC   C2B18320  18.745  34.090   8.381
 1166POPC   C3B18321  18.692  34.091   7.951
 1166POPC   C4B18322  18.807  33.868   7.573
 1167POPC   NC318323  22.931  32.923   9.661
 1167POPC   PO418324  22.453  33.216   9.808
 1167POPC   GL118325  22.570  32.892   9.317
 1167POPC   GL218326  22.934  32.791   9.178
 1167POPC   C1A18327  22.581  32.901   8.841
 1167POPC   D2A18328  22.672  33.088   8.439
 1167POPC   C3A18329  22.651  32.863   8.040
 1167POPC   C4A18330  22.887  32.765   7.662
 1167POPC   C1B18331  23.084  33.028   8.809
 1167POPC   C2B18332  23.155  33.258   8.416
 1167POPC   C3B18333  23.143  33.088   8.013
 1167POPC   C4B18334  23.442  33.120   7.718
 1168POPC   NC318335  25.347  16.465   9.579
 1168POPC   PO418336  25.653  17.020   9.574
 1168POPC   GL118337  25.344  16.855   9.229
 1168POPC   GL218338  25.467  16.548   9.092
 1168POPC   C1A18339  25.059  16.728   8.840
 1168POPC   D2A18340  24.887  16.577   8.414
 1168POPC   C3A18341  24.994  16.787   8.098
 1168POPC   C4A18342  25.096  16.649   7.716
 1168POPC   C1B18343  25.567  16.868   8.768
 1168POPC   C2B18344  25.511  16.835   8.352
 1168POPC   C3B18345  25.433  16.512   8.085
 1168POPC   C4B18346  25.591  16.570   7.700
 1169POPC   NC318347  15.180  16.582   9.495
 1169POPC   PO418348  14.636  16.164   9.429
 1169POPC   GL118349  14.926  16.376   9.086
 1169POPC   GL218350  15.011  16.743   9.044
 1169POPC   C1A18351  15.342  16.406   8.824
 1169POPC   D2A18352  15.508  16.617   8.448
 1169POPC   C3A18353  15.229  16.624   8.114
 1169POPC   C4A18354  15.182  16.455   7.732
 1169POPC   C1B18355  15.337  16.964   8.791
 1169POPC   C2B18356  15.289  17.122   8.360
 1169POPC   C3B18357  15.416  17.065   7.941
 1169POPC   C4B18358  15.344  16.922   7.517
 1170POPC   NC318359  14.262  43.716   9.543
 1170POPC   PO418360  14.285  44.338   9.308
 1170POPC   GL118361  14.567  44.013   9.097
 1170POPC   GL218362  14.488  43.626   9.105
 1170POPC   C1A18363  14.691  44.000   8.643
 1170POPC   D2A18364  14.440  43.941   8.270
 1170POPC   C3A18365  14.466  44.042   7.843
 1170POPC   C4A18366  14.152  44.041   7.508
 1170POPC   C1B18367  14.814  43.528   8.843
 1170POPC   C2B18368  14.741  43.521   8.407
 1170POPC   C3B18369  14.607  43.532   7.982
 1170POPC   C4B18370  14.289  43.576   7.718
 1171POPC   NC318371  44.491   4.120   9.681
 1171POPC   PO418372   0.011   4.394   9.505
 1171POPC   GL118373  44.812   4.151   9.139
 1171POPC   GL218374  44.445   4.180   9.161
 1171POPC   C1A18375  44.706   4.024   8.681
 1171POPC   D2A18376  44.675   3.959   8.210
 1171POPC   C3A18377  44.801   4.169   7.877
 1171POPC   C4A18378  44.605   4.075   7.472
 1171POPC   C1B18379  44.360   4.444   8.805
 1171POPC   C2B18380  44.323   4.283   8.384
 1171POPC   C3B18381  44.357   4.401   7.955
 1171POPC   C4B18382  44.175   4.468   7.550
 1172POPC   NC318383   4.352  23.026   9.624
 1172POPC   PO418384   4.180  22.349   9.589
 1172POPC   GL118385   4.372  22.612   9.237
 1172POPC   GL218386   4.387  22.967   9.133
 1172POPC   C1A18387   4.252  22.602   8.802
 1172POPC   D2A18388   4.536  22.562   8.449
 1172POPC   C3A18389   4.302  22.647   8.101
 1172POPC   C4A18390   4.312  22.718   7.673
 1172POPC   C1B18391   4.610  22.985   8.765
 1172POPC   C2B18392   4.456  23.072   8.366
 1172POPC   C3B18393   4.635  23.053   7.979
 1172POPC   C4B18394   4.542  23.161   7.575
 1173POPC   NC318395  14.644   0.169   9.492
 1173POPC   PO418396  14.536   0.731   9.186
 1173POPC   GL118397  14.630   0.589   8.839
 1173POPC   GL218398  14.470   0.774   8.610
 1173POPC   C1A18399  14.640   0.264   8.547
 1173POPC   D2A18400  14.507   0.430   8.176
 1173POPC   C3A18401  14.569   0.149   7.863
 1173POPC   C4A18402  14.365   0.174   7.495
 1173POPC   C1B18403  14.167   0.465   8.609
 1173POPC   C2B18404  14.013   0.285   8.244
 1173POPC   C3B18405  13.970   0.462   7.813
 1173POPC   C4B18406  13.644   0.348   7.499
 1174POPC   NC318407  39.092  29.819   9.530
 1174POPC   PO418408  39.652  30.238   9.501
 1174POPC   GL118409  39.352  30.294   9.170
 1174POPC   GL218410  38.985  30.258   9.218
 1174POPC   C1A18411  39.441  30.150   8.781
 1174POPC   D2A18412  39.316  29.976   8.398
 1174POPC   C3A18413  39.195  30.203   8.033
 1174POPC   C4A18414  39.103  29.956   7.672
 1174POPC   C1B18415  38.956  30.009   8.843
 1174POPC   C2B18416  38.787  30.070   8.427
 1174POPC   C3B18417  38.746  29.861   8.029
 1174POPC   C4B18418  38.730  29.599   7.679
 1175POPC   NC318419  10.394  29.501   9.277
 1175POPC   PO418420   9.779  29.391   9.605
 1175POPC   GL118421   9.749  29.280   9.181
 1175POPC   GL218422  10.085  29.118   9.157
 1175POPC   C1A18423   9.512  29.280   8.780
 1175POPC   D2A18424   9.675  29.307   8.376
 1175POPC   C3A18425   9.601  29.057   8.038
 1175POPC   C4A18426   9.511  29.330   7.712
 1175POPC   C1B18427  10.050  29.225   8.710
 1175POPC   C2B18428  10.112  29.078   8.259
 1175POPC   C3B18429  10.025  29.280   7.855
 1175POPC   C4B18430  10.075  29.242   7.391
 1176POPC   NC318431  43.793   6.140   9.675
 1176POPC   PO418432  43.615   6.751   9.470
 1176POPC   GL118433  43.960   6.619   9.255
 1176POPC   GL218434  44.098   6.921   9.111
 1176POPC   C1A18435  44.004   6.461   8.842
 1176POPC   D2A18436  44.000   6.643   8.430
 1176POPC   C3A18437  43.824   6.385   8.079
 1176POPC   C4A18438  44.111   6.266   7.758
 1176POPC   C1B18439  43.730   6.918   8.815
 1176POPC   C2B18440  43.491   6.745   8.451
 1176POPC   C3B18441  43.707   6.892   8.082
 1176POPC   C4B18442  43.997   6.780   7.749
 1177POPC   NC318443  16.165  23.296  10.164
 1177POPC   PO418444  16.156  23.008   9.672
 1177POPC   GL118445  16.029  22.937   9.216
 1177POPC   GL218446  15.784  23.179   9.075
 1177POPC   C1A18447  15.975  22.811   8.763
 1177POPC   D2A18448  15.991  22.935   8.319
 1177POPC   C3A18449  15.938  22.970   7.885
 1177POPC   C4A18450  16.229  22.894   7.558
 1177POPC   C1B18451  15.884  23.325   8.635
 1177POPC   C2B18452  15.756  23.382   8.194
 1177POPC   C3B18453  15.924  23.482   7.788
 1177POPC   C4B18454  15.875  23.269   7.400
 1178POPC   NC318455  33.367  41.990   9.475
 1178POPC   PO418456  33.089  42.660   9.525
 1178POPC   GL118457  33.095  42.367   9.183
 1178POPC   GL218458  33.417  42.357   9.103
 1178POPC   C1A18459  32.988  42.327   8.731
 1178POPC   D2A18460  32.850  42.556   8.333
 1178POPC   C3A18461  32.873  42.455   7.870
 1178POPC   C4A18462  32.763  42.516   7.421
 1178POPC   C1B18463  33.479  42.134   8.729
 1178POPC   C2B18464  33.518  42.296   8.310
 1178POPC   C3B18465  33.401  42.282   7.879
 1178POPC   C4B18466  33.163  41.944   7.701
 1179POPC   NC318467  39.556  14.170   9.658
 1179POPC   PO418468  40.099  14.611   9.572
 1179POPC   GL118469  40.089  14.354   9.203
 1179POPC   GL218470  39.745  14.359   9.202
 1179POPC   C1A18471  40.202  14.327   8.748
 1179POPC   D2A18472  40.370  14.259   8.310
 1179POPC   C3A18473  40.232  14.504   7.952
 1179POPC   C4A18474  40.109  14.305   7.621
 1179POPC   C1B18475  39.723  14.505   8.750
 1179POPC   C2B18476  39.793  14.379   8.288
 1179POPC   C3B18477  39.703  14.562   7.849
 1179POPC   C4B18478  39.561  14.800   7.451
 1180POPC   NC318479   5.446   1.031   9.318
 1180POPC   PO418480   4.826   0.875   9.355
 1180POPC   GL118481   5.017   1.222   9.102
 1180POPC   GL218482   4.799   1.519   9.048
 1180POPC   C1A18483   5.299   1.150   8.706
 1180POPC   D2A18484   5.412   0.912   8.311
 1180POPC   C3A18485   5.186   0.973   7.941
 1180POPC   C4A18486   5.141   1.127   7.537
 1180POPC   C1B18487   4.801   1.295   8.653
 1180POPC   C2B18488   4.814   1.183   8.233
 1180POPC   C3B18489   4.702   1.405   7.884
 1180POPC   C4B18490   4.726   1.405   7.468
 1181POPC   NC318491  39.825  11.152   9.564
 1181POPC   PO418492  40.155  11.760   9.567
 1181POPC   GL118493  40.198  11.401   9.271
 1181POPC   GL218494  39.889  11.420   9.147
 1181POPC   C1A18495  40.229  11.083   8.918
 1181POPC   D2A18496  39.966  10.803   8.624
 1181POPC   C3A18497  39.950  10.739   8.172
 1181POPC   C4A18498  39.907  10.972   7.776
 1181POPC   C1B18499  40.121  11.548   8.756
 1181POPC   C2B18500  39.896  11.609   8.386
 1181POPC   C3B18501  39.920  11.464   7.982
 1181POPC   C4B18502  39.710  11.684   7.690
 1182POPC   NC318503  39.096  44.921   9.424
 1182POPC   PO418504  38.910   0.517   9.652
 1182POPC   GL118505  39.128   0.504   9.197
 1182POPC   GL218506  39.209   0.237   8.984
 1182POPC   C1A18507  39.077   0.652   8.750
 1182POPC   D2A18508  39.248   0.411   8.423
 1182POPC   C3A18509  39.159   0.481   8.011
 1182POPC   C4A18510  38.957   0.791   7.783
 1182POPC   C1B18511  39.129  44.964   8.605
 1182POPC   C2B18512  39.542  44.986   8.402
 1182POPC   C3B18513  39.643   0.266   8.114
 1182POPC   C4B18514  39.494   0.132   7.737
 1183POPC   NC318515  34.389  42.612   9.404
 1183POPC   PO418516  34.569  41.971   9.517
 1183POPC   GL118517  34.649  42.202   9.147
 1183POPC   GL218518  34.302  42.191   9.070
 1183POPC   C1A18519  34.686  42.167   8.693
 1183POPC   D2A18520  34.395  42.327   8.371
 1183POPC   C3A18521  34.529  42.265   8.002
 1183POPC   C4A18522  34.311  42.130   7.667
 1183POPC   C1B18523  34.386  42.579   8.795
 1183POPC   C2B18524  34.736  42.698   8.553
 1183POPC   C3B18525  34.842  42.687   8.104
 1183POPC   C4B18526  34.581  42.697   7.732
 1184POPC   NC318527   1.224  11.811   9.658
 1184POPC   PO418528   1.391  12.347   9.333
 1184POPC   GL118529   1.342  11.960   9.132
 1184POPC   GL218530   1.009  11.821   9.163
 1184POPC   C1A18531   1.355  12.028   8.689
 1184POPC   D2A18532   1.141  12.247   8.365
 1184POPC   C3A18533   1.360  12.256   7.981
 1184POPC   C4A18534   1.232  12.317   7.629
 1184POPC   C1B18535   1.170  11.600   8.788
 1184POPC   C2B18536   1.074  11.713   8.393
 1184POPC   C3B18537   1.062  11.853   7.992
 1184POPC   C4B18538   1.322  11.829   7.663
 1185POPC   NC318539  38.951  41.336   9.520
 1185POPC   PO418540  39.549  41.623   9.543
 1185POPC   GL118541  39.332  41.495   9.184
 1185POPC   GL218542  39.122  41.787   9.081
 1185POPC   C1A18543  39.482  41.611   8.766
 1185POPC   D2A18544  39.299  41.802   8.418
 1185POPC   C3A18545  39.405  41.629   8.032
 1185POPC   C4A18546  39.309  41.433   7.683
 1185POPC   C1B18547  39.014  41.462   8.753
 1185POPC   C2B18548  38.879  41.393   8.380
 1185POPC   C3B18549  38.895  41.509   7.985
 1185POPC   C4B18550  38.905  41.142   7.743
 1186POPC   NC318551   2.229  15.954   9.624
 1186POPC   PO418552   1.599  15.670   9.688
 1186POPC   GL118553   1.815  15.861   9.310
 1186POPC   GL218554   1.762  16.228   9.263
 1186POPC   C1A18555   1.901  15.855   8.854
 1186POPC   D2A18556   2.000  15.713   8.468
 1186POPC   C3A18557   1.790  15.873   8.140
 1186POPC   C4A18558   1.974  15.807   7.761
 1186POPC   C1B18559   1.900  16.352   8.846
 1186POPC   C2B18560   2.067  16.213   8.441
 1186POPC   C3B18561   1.964  16.330   8.029
 1186POPC   C4B18562   1.654  16.200   7.741
 1187POPC   NC318563  30.304  37.915   9.403
 1187POPC   PO418564  29.799  37.546   9.590
 1187POPC   GL118565  29.893  37.646   9.131
 1187POPC   GL218566  30.065  37.950   8.956
 1187POPC   C1A18567  29.692  37.712   8.706
 1187POPC   D2A18568  29.908  37.775   8.319
 1187POPC   C3A18569  29.794  37.590   7.918
 1187POPC   C4A18570  29.814  37.419   7.478
 1187POPC   C1B18571  30.193  37.551   8.723
 1187POPC   C2B18572  30.205  37.367   8.296
 1187POPC   C3B18573  30.310  37.506   7.880
 1187POPC   C4B18574  30.157  37.903   7.675
 1188POPC   NC318575  11.557  34.183   9.601
 1188POPC   PO418576  10.967  33.786   9.568
 1188POPC   GL118577  11.296  33.841   9.219
 1188POPC   GL218578  11.477  33.512   9.170
 1188POPC   C1A18579  11.295  33.905   8.739
 1188POPC   D2A18580  11.050  33.741   8.357
 1188POPC   C3A18581  11.031  33.787   7.921
 1188POPC   C4A18582  11.131  34.019   7.538
 1188POPC   C1B18583  11.339  33.388   8.745
 1188POPC   C2B18584  11.531  33.551   8.374
 1188POPC   C3B18585  11.503  33.918   8.133
 1188POPC   C4B18586  11.498  33.751   7.734
 1189POPC   NC318587  27.737  41.075   9.504
 1189POPC   PO418588  27.507  40.452   9.694
 1189POPC   GL118589  27.543  40.681   9.253
 1189POPC   GL218590  27.281  40.946   9.210
 1189POPC   C1A18591  27.734  40.622   8.817
 1189POPC   D2A18592  27.650  40.490   8.394
 1189POPC   C3A18593  27.945  40.643   8.084
 1189POPC   C4A18594  27.826  40.868   7.700
 1189POPC   C1B18595  27.211  40.695   8.816
 1189POPC   C2B18596  27.235  40.803   8.350
 1189POPC   C3B18597  27.374  40.936   7.938
 1189POPC   C4B18598  27.360  40.748   7.522
 1190POPC   NC318599  36.660  20.098   9.537
 1190POPC   PO418600  36.854  19.462   9.546
 1190POPC   GL118601  36.918  19.723   9.213
 1190POPC   GL218602  37.267  19.789   9.256
 1190POPC   C1A18603  36.802  19.930   8.820
 1190POPC   D2A18604  36.507  19.906   8.455
 1190POPC   C3A18605  36.684  20.007   8.057
 1190POPC   C4A18606  36.699  19.858   7.631
 1190POPC   C1B18607  37.244  19.629   8.814
 1190POPC   C2B18608  37.037  19.741   8.393
 1190POPC   C3B18609  36.876  19.537   8.013
 1190POPC   C4B18610  37.153  19.601   7.639
 1191POPC   NC318611  20.879   3.808   9.673
 1191POPC   PO418612  20.458   3.224   9.694
 1191POPC   GL118613  20.494   3.491   9.274
 1191POPC   GL218614  20.226   3.722   9.159
 1191POPC   C1A18615  20.574   3.521   8.811
 1191POPC   D2A18616  20.553   3.271   8.419
 1191POPC   C3A18617  20.774   3.443   8.090
 1191POPC   C4A18618  20.835   3.400   7.652
 1191POPC   C1B18619  20.208   3.864   8.722
 1191POPC   C2B18620  20.499   3.802   8.384
 1191POPC   C3B18621  20.520   3.882   7.949
 1191POPC   C4B18622  20.315   3.650   7.589
 1192POPC   NC318623  13.209  35.829   9.849
 1192POPC   PO418624  12.848  35.371   9.471
 1192POPC   GL118625  12.962  35.263   9.080
 1192POPC   GL218626  12.604  35.211   9.031
 1192POPC   C1A18627  12.919  35.221   8.643
 1192POPC   D2A18628  12.702  35.134   8.289
 1192POPC   C3A18629  12.860  35.392   8.012
 1192POPC   C4A18630  13.169  35.518   7.737
 1192POPC   C1B18631  12.460  35.446   8.670
 1192POPC   C2B18632  12.434  35.656   8.263
 1192POPC   C3B18633  12.371  35.432   7.857
 1192POPC   C4B18634  12.656  35.553   7.546
 1193POPC   NC318635  27.778  26.610   9.383
 1193POPC   PO418636  27.414  27.075   9.396
 1193POPC   GL118637  27.475  26.843   9.028
 1193POPC   GL218638  27.694  26.585   8.890
 1193POPC   C1A18639  27.369  26.882   8.613
 1193POPC   D2A18640  27.065  26.735   8.369
 1193POPC   C3A18641  27.143  26.935   8.034
 1193POPC   C4A18642  27.448  26.819   7.765
 1193POPC   C1B18643  27.930  26.626   8.545
 1193POPC   C2B18644  27.781  26.834   8.197
 1193POPC   C3B18645  27.942  26.778   7.791
 1193POPC   C4B18646  27.970  26.973   7.365
 1194POPC   NC318647  13.410  30.979   9.536
 1194POPC   PO418648  13.808  30.405   9.534
 1194POPC   GL118649  13.518  30.551   9.280
 1194POPC   GL218650  13.730  30.826   9.164
 1194POPC   C1A18651  13.417  30.571   8.870
 1194POPC   D2A18652  13.553  30.599   8.463
 1194POPC   C3A18653  13.350  30.698   8.096
 1194POPC   C4A18654  13.471  30.686   7.678
 1194POPC   C1B18655  13.807  30.945   8.742
 1194POPC   C2B18656  13.905  30.950   8.296
 1194POPC   C3B18657  13.757  31.087   7.892
 1194POPC   C4B18658  13.771  31.038   7.427
 1195POPC   NC318659  21.541  28.007   9.440
 1195POPC   PO418660  21.150  28.544   9.637
 1195POPC   GL118661  21.060  28.420   9.237
 1195POPC   GL218662  20.998  28.735   9.155
 1195POPC   C1A18663  21.168  28.325   8.813
 1195POPC   D2A18664  21.564  28.298   8.584
 1195POPC   C3A18665  21.540  28.371   8.137
 1195POPC   C4A18666  21.414  28.160   7.763
 1195POPC   C1B18667  21.145  28.857   8.774
 1195POPC   C2B18668  21.151  28.634   8.389
 1195POPC   C3B18669  21.085  28.665   7.970
 1195POPC   C4B18670  21.434  28.661   7.708
 1196POPC   NC318671  24.461  42.195   9.553
 1196POPC   PO418672  24.596  42.901   9.311
 1196POPC   GL118673  24.602  42.474   9.163
 1196POPC   GL218674  24.291  42.294   9.092
 1196POPC   C1A18675  24.719  42.317   8.769
 1196POPC   D2A18676  24.528  42.595   8.476
 1196POPC   C3A18677  24.565  42.470   8.084
 1196POPC   C4A18678  24.724  42.075   7.987
 1196POPC   C1B18679  24.123  42.393   8.718
 1196POPC   C2B18680  24.172  42.207   8.347
 1196POPC   C3B18681  24.087  42.342   7.960
 1196POPC   C4B18682  24.317  42.217   7.694
 1197POPC   NC318683  34.153  31.584   9.429
 1197POPC   PO418684  34.832  31.792   9.384
 1197POPC   GL118685  34.551  31.513   9.128
 1197POPC   GL218686  34.234  31.288   9.056
 1197POPC   C1A18687  34.495  31.541   8.709
 1197POPC   D2A18688  34.594  31.774   8.392
 1197POPC   C3A18689  34.392  31.610   8.048
 1197POPC   C4A18690  34.551  31.494   7.683
 1197POPC   C1B18691  34.335  31.068   8.723
 1197POPC   C2B18692  34.590  31.172   8.365
 1197POPC   C3B18693  34.421  31.082   7.983
 1197POPC   C4B18694  34.363  31.041   7.578
 1198POPC   NC318695  19.262  32.135   9.598
 1198POPC   PO418696  18.612  32.032   9.444
 1198POPC   GL118697  18.943  32.219   9.114
 1198POPC   GL218698  19.315  32.222   9.119
 1198POPC   C1A18699  19.138  32.513   8.762
 1198POPC   D2A18700  19.357  32.545   8.360
 1198POPC   C3A18701  19.015  32.456   8.086
 1198POPC   C4A18702  18.945  32.077   7.781
 1198POPC   C1B18703  19.467  32.061   8.767
 1198POPC   C2B18704  19.581  32.086   8.403
 1198POPC   C3B18705  19.338  32.066   8.097
 1198POPC   C4B18706  19.463  31.966   7.687
 1199POPC   NC318707  39.503  30.694   9.457
 1199POPC   PO418708  40.135  30.771   9.596
 1199POPC   GL118709  39.971  30.650   9.224
 1199POPC   GL218710  39.922  31.006   9.180
 1199POPC   C1A18711  39.979  30.391   8.860
 1199POPC   D2A18712  40.008  30.563   8.454
 1199POPC   C3A18713  39.876  30.398   8.066
 1199POPC   C4A18714  40.061  30.526   7.714
 1199POPC   C1B18715  39.844  31.086   8.772
 1199POPC   C2B18716  39.671  30.939   8.397
 1199POPC   C3B18717  39.945  30.907   8.039
 1199POPC   C4B18718  39.797  30.924   7.600
 1200POPC   NC318719  39.503  33.555   9.611
 1200POPC   PO418720  39.121  34.031   9.424
 1200POPC   GL118721  39.093  33.895   9.041
 1200POPC   GL218722  39.126  33.593   9.154
 1200POPC   C1A18723  38.866  33.823   8.657
 1200POPC   D2A18724  38.718  33.680   8.267
 1200POPC   C3A18725  38.955  33.965   8.019
 1200POPC   C4A18726  39.404  33.998   7.929
 1200POPC   C1B18727  39.280  33.528   8.731
 1200POPC   C2B18728  39.248  33.626   8.281
 1200POPC   C3B18729  39.133  33.511   7.844
 1200POPC   C4B18730  38.959  33.441   7.389
 1201POPC   NC318731  38.865  14.590   9.518
 1201POPC   PO418732  38.287  14.146   9.684
 1201POPC   GL118733  38.457  14.342   9.297
 1201POPC   GL218734  38.771  14.251   9.133
 1201POPC   C1A18735  38.450  14.586   8.932
 1201POPC   D2A18736  38.284  14.477   8.535
 1201POPC   C3A18737  38.551  14.421   8.190
 1201POPC   C4A18738  38.368  14.239   7.820
 1201POPC   C1B18739  38.704  14.198   8.705
 1201POPC   C2B18740  38.920  14.021   8.373
 1201POPC   C3B18741  38.900  13.976   7.947
 1201POPC   C4B18742  38.829  14.284   7.635
 1202POPC   NC318743   5.823  43.355   9.377
 1202POPC   PO418744   6.131  42.738   9.502
 1202POPC   GL118745   5.798  42.870   9.150
 1202POPC   GL218746   5.814  43.155   8.922
 1202POPC   C1A18747   5.704  42.745   8.676
 1202POPC   D2A18748   5.935  42.844   8.283
 1202POPC   C3A18749   5.737  43.136   8.004
 1202POPC   C4A18750   5.517  43.008   7.612
 1202POPC   C1B18751   5.859  43.370   8.526
 1202POPC   C2B18752   6.184  43.558   8.295
 1202POPC   C3B18753   6.201  43.445   7.861
 1202POPC   C4B18754   6.041  43.182   7.505
 1203POPC   NC318755  21.848  15.686   9.498
 1203POPC   PO418756  22.508  15.663   9.555
 1203POPC   GL118757  22.339  15.987   9.244
 1203POPC   GL218758  21.987  16.157   9.267
 1203POPC   C1A18759  22.264  16.100   8.823
 1203POPC   D2A18760  22.175  16.017   8.394
 1203POPC   C3A18761  22.306  16.149   7.971
 1203POPC   C4A18762  22.591  15.873   7.744
 1203POPC   C1B18763  21.738  15.987   8.895
 1203POPC   C2B18764  21.720  15.778   8.487
 1203POPC   C3B18765  21.803  15.870   8.051
 1203POPC   C4B18766  21.730  16.058   7.659
 1204POPC   NC318767  37.247  22.832   9.343
 1204POPC   PO418768  37.870  22.687   9.470
 1204POPC   GL118769  37.743  22.955   9.153
 1204POPC   GL218770  37.580  23.287   9.194
 1204POPC   C1A18771  37.881  23.104   8.777
 1204POPC   D2A18772  37.715  22.986   8.398
 1204POPC   C3A18773  37.894  22.738   8.116
 1204POPC   C4A18774  37.869  22.865   7.686
 1204POPC   C1B18775  37.385  23.223   8.771
 1204POPC   C2B18776  37.440  23.425   8.352
 1204POPC   C3B18777  37.542  23.219   7.960
 1204POPC   C4B18778  37.399  23.105   7.531
 1205POPC   NC318779  14.805  42.981   9.666
 1205POPC   PO418780  15.362  43.276   9.770
 1205POPC   GL118781  15.345  43.182   9.286
 1205POPC   GL218782  14.980  43.242   9.243
 1205POPC   C1A18783  15.527  42.969   8.866
 1205POPC   D2A18784  15.390  42.738   8.470
 1205POPC   C3A18785  15.454  42.912   8.024
 1205POPC   C4A18786  15.347  43.103   7.580
 1205POPC   C1B18787  15.016  43.018   8.848
 1205POPC   C2B18788  15.076  43.147   8.419
 1205POPC   C3B18789  15.034  43.248   7.992
 1205POPC   C4B18790  14.925  42.890   7.758
 1206POPC   NC318791  16.248   0.657   9.349
 1206POPC   PO418792  15.817   0.285   9.662
 1206POPC   GL118793  15.858   0.355   9.196
 1206POPC   GL218794  16.164   0.272   9.022
 1206POPC   C1A18795  15.788   0.487   8.728
 1206POPC   D2A18796  16.077   0.309   8.381
 1206POPC   C3A18797  16.028   0.399   7.933
 1206POPC   C4A18798  15.901   0.684   7.610
 1206POPC   C1B18799  16.261   0.669   8.723
 1206POPC   C2B18800  16.033   0.818   8.398
 1206POPC   C3B18801  16.188   0.879   7.999
 1206POPC   C4B18802  16.438   0.649   7.721
 1207POPC   NC318803  23.980  17.170   9.392
 1207POPC   PO418804  23.519  17.709   9.488
 1207POPC   GL118805  23.496  17.615   9.065
 1207POPC   GL218806  23.790  17.448   9.012
 1207POPC   C1A18807  23.624  17.763   8.636
 1207POPC   D2A18808  23.661  17.965   8.235
 1207POPC   C3A18809  23.607  17.622   7.907
 1207POPC   C4A18810  23.370  17.238   7.778
 1207POPC   C1B18811  23.922  17.227   8.640
 1207POPC   C2B18812  23.709  17.157   8.249
 1207POPC   C3B18813  23.878  17.163   7.844
 1207POPC   C4B18814  24.079  17.109   7.406
 1208POPC   NC318815   0.838   6.418   9.438
 1208POPC   PO418816   0.187   6.768   9.457
 1208POPC   GL118817   0.382   6.562   9.135
 1208POPC   GL218818   0.715   6.692   9.013
 1208POPC   C1A18819   0.263   6.640   8.725
 1208POPC   D2A18820   0.512   6.724   8.383
 1208POPC   C3A18821   0.299   6.576   8.027
 1208POPC   C4A18822  44.999   6.498   7.719
 1208POPC   C1B18823   0.683   6.345   8.745
 1208POPC   C2B18824   0.436   6.186   8.402
 1208POPC   C3B18825   0.484   6.114   7.971
 1208POPC   C4B18826   0.543   6.366   7.601
 1209POPC   NC318827  44.514   1.614   9.672
 1209POPC   PO418828  44.900   2.103   9.492
 1209POPC   GL118829  44.803   2.028   9.092
 1209POPC   GL218830  44.630   2.281   8.939
 1209POPC   C1A18831  44.933   1.874   8.704
 1209POPC   D2A18832  44.865   1.745   8.296
 1209POPC   C3A18833  44.916   2.023   7.950
 1209POPC   C4A18834  44.816   1.889   7.506
 1209POPC   C1B18835  44.442   2.012   8.700
 1209POPC   C2B18836  44.398   2.128   8.349
 1209POPC   C3B18837  44.529   2.328   8.028
 1209POPC   C4B18838  44.478   2.219   7.662
 1210POPC   NC318839  35.590  28.564   9.429
 1210POPC   PO418840  34.976  28.375   9.555
 1210POPC   GL118841  35.252  28.233   9.202
 1210POPC   GL218842  35.270  28.541   9.032
 1210POPC   C1A18843  35.187  28.078   8.769
 1210POPC   D2A18844  35.094  28.235   8.351
 1210POPC   C3A18845  35.362  28.413   8.062
 1210POPC   C4A18846  35.134  28.452   7.696
 1210POPC   C1B18847  35.426  28.552   8.628
 1210POPC   C2B18848  35.554  28.942   8.403
 1210POPC   C3B18849  35.736  28.953   7.985
 1210POPC   C4B18850  35.575  28.699   7.642
 1211POPC   NC318851  16.554  18.028   9.635
 1211POPC   PO418852  16.720  17.376   9.637
 1211POPC   GL118853  16.690  17.384   9.233
 1211POPC   GL218854  16.499  17.670   9.202
 1211POPC   C1A18855  16.919  17.535   8.868
 1211POPC   D2A18856  17.040  17.313   8.497
 1211POPC   C3A18857  16.972  17.530   8.108
 1211POPC   C4A18858  16.979  17.437   7.651
 1211POPC   C1B18859  16.411  17.408   8.820
 1211POPC   C2B18860  16.557  17.361   8.401
 1211POPC   C3B18861  16.386  17.421   7.974
 1211POPC   C4B18862  16.199  17.590   7.599
 1212POPC   NC318863  38.421  42.422   9.564
 1212POPC   PO418864  38.780  41.828   9.467
 1212POPC   GL118865  38.626  42.110   9.133
 1212POPC   GL218866  38.532  42.485   9.098
 1212POPC   C1A18867  38.471  42.160   8.707
 1212POPC   D2A18868  38.249  42.189   8.327
 1212POPC   C3A18869  38.571  42.228   8.056
 1212POPC   C4A18870  38.644  42.505   7.736
 1212POPC   C1B18871  38.273  42.611   8.802
 1212POPC   C2B18872  38.457  42.643   8.414
 1212POPC   C3B18873  38.263  42.642   8.038
 1212POPC   C4B18874  38.105  42.744   7.630
 1213POPC   NC318875   8.810  11.602   9.586
 1213POPC   PO418876   8.871  12.237   9.491
 1213POPC   GL118877   8.955  11.951   9.211
 1213POPC   GL218878   8.627  11.814   9.135
 1213POPC   C1A18879   8.961  12.043   8.789
 1213POPC   D2A18880   9.219  12.063   8.424
 1213POPC   C3A18881   9.026  11.904   8.071
 1213POPC   C4A18882   9.080  12.043   7.670
 1213POPC   C1B18883   8.442  11.899   8.717
 1213POPC   C2B18884   8.608  12.134   8.375
 1213POPC   C3B18885   8.641  12.210   7.955
 1213POPC   C4B18886   8.611  11.879   7.698
 1214POPC   NC318887  44.409  10.944   9.514
 1214POPC   PO418888   0.029  10.951   9.498
 1214POPC   GL118889  44.949  11.260   9.145
 1214POPC   GL218890  44.633  11.504   9.092
 1214POPC   C1A18891  44.834  11.293   8.705
 1214POPC   D2A18892  44.623  11.158   8.351
 1214POPC   C3A18893  44.811  11.268   7.951
 1214POPC   C4A18894   0.067  11.079   7.635
 1214POPC   C1B18895  44.379  11.549   8.636
 1214POPC   C2B18896  44.391  11.553   8.136
 1214POPC   C3B18897  44.332  11.295   7.753
 1214POPC   C4B18898  44.251  11.355   7.293
 1215POPC   NC318899  10.896  12.717   9.508
 1215POPC   PO418900  10.383  13.139   9.730
 1215POPC   GL118901  10.519  13.005   9.264
 1215POPC   GL218902  10.889  12.940   9.070
 1215POPC   C1A18903  10.318  12.816   8.881
 1215POPC   D2A18904  10.323  12.562   8.525
 1215POPC   C3A18905  10.132  12.670   8.163
 1215POPC   C4A18906  10.340  12.743   7.774
 1215POPC   C1B18907  10.724  13.023   8.664
 1215POPC   C2B18908  10.569  12.952   8.271
 1215POPC   C3B18909  10.796  12.881   7.929
 1215POPC   C4B18910  10.781  12.898   7.503
 1216POPC   NC318911  13.080  17.433   9.723
 1216POPC   PO418912  12.638  17.842   9.450
 1216POPC   GL118913  12.828  17.549   9.197
 1216POPC   GL218914  12.534  17.569   8.974
 1216POPC   C1A18915  12.997  17.565   8.783
 1216POPC   D2A18916  12.861  17.682   8.399
 1216POPC   C3A18917  13.137  17.454   8.145
 1216POPC   C4A18918  13.224  17.465   7.731
 1216POPC   C1B18919  12.247  17.305   8.756
 1216POPC   C2B18920  12.366  17.198   8.349
 1216POPC   C3B18921  12.595  17.390   8.046
 1216POPC   C4B18922  12.752  17.262   7.669
 1217POPC   NC318923  12.378  17.435   9.436
 1217POPC   PO418924  11.838  17.819   9.698
 1217POPC   GL118925  11.998  17.715   9.251
 1217POPC   GL218926  11.799  17.485   9.029
 1217POPC   C1A18927  12.109  17.858   8.829
 1217POPC   D2A18928  12.341  17.762   8.443
 1217POPC   C3A18929  12.091  17.602   8.098
 1217POPC   C4A18930  11.788  17.532   7.766
 1217POPC   C1B18931  11.754  17.111   8.746
 1217POPC   C2B18932  11.915  16.961   8.364
 1217POPC   C3B18933  12.014  17.098   7.934
 1217POPC   C4B18934  12.152  17.234   7.507
 1218POPC   NC318935  26.228  31.059   9.874
 1218POPC   PO418936  26.203  31.690   9.548
 1218POPC   GL118937  25.964  31.530   9.204
 1218POPC   GL218938  25.814  31.181   9.304
 1218POPC   C1A18939  26.120  31.545   8.775
 1218POPC   D2A18940  26.350  31.609   8.373
 1218POPC   C3A18941  26.376  31.387   7.956
 1218POPC   C4A18942  26.335  31.510   7.473
 1218POPC   C1B18943  25.810  31.145   8.842
 1218POPC   C2B18944  25.954  31.249   8.411
 1218POPC   C3B18945  25.937  31.133   8.018
 1218POPC   C4B18946  25.842  31.063   7.611
 1219POPC   NC318947  29.234  11.987   9.478
 1219POPC   PO418948  28.656  12.039   9.453
 1219POPC   GL118949  28.946  11.881   9.064
 1219POPC   GL218950  29.366  11.862   9.024
 1219POPC   C1A18951  29.087  11.732   8.647
 1219POPC   D2A18952  28.912  11.834   8.294
 1219POPC   C3A18953  29.201  11.881   7.950
 1219POPC   C4A18954  29.279  12.051   7.527
 1219POPC   C1B18955  29.382  12.147   8.670
 1219POPC   C2B18956  29.131  12.299   8.305
 1219POPC   C3B18957  29.282  12.406   7.887
 1219POPC   C4B18958  29.713  12.307   7.690
 1220POPC   NC318959  24.778  30.640   9.438
 1220POPC   PO418960  24.204  30.689   9.664
 1220POPC   GL118961  24.361  30.791   9.215
 1220POPC   GL218962  24.657  31.023   9.120
 1220POPC   C1A18963  24.477  30.670   8.786
 1220POPC   D2A18964  24.616  30.384   8.482
 1220POPC   C3A18965  24.430  30.426   8.075
 1220POPC   C4A18966  24.547  30.459   7.649
 1220POPC   C1B18967  24.872  31.016   8.731
 1220POPC   C2B18968  24.718  31.036   8.287
 1220POPC   C3B18969  24.767  30.869   7.844
 1220POPC   C4B18970  24.960  30.882   7.407
 1221POPC   NC318971  19.162  43.643   9.466
 1221POPC   PO418972  19.000  42.916   9.537
 1221POPC   GL118973  19.209  43.180   9.220
 1221POPC   GL218974  18.908  43.355   9.121
 1221POPC   C1A18975  19.231  43.142   8.758
 1221POPC   D2A18976  19.348  43.020   8.346
 1221POPC   C3A18977  19.118  42.851   8.013
 1221POPC   C4A18978  19.396  42.881   7.697
 1221POPC   C1B18979  18.717  43.191   8.755
 1221POPC   C2B18980  18.794  42.989   8.380
 1221POPC   C3B18981  18.745  43.216   7.965
 1221POPC   C4B18982  18.889  43.627   7.759
 1222POPC   NC318983  39.337  28.100   9.499
 1222POPC   PO418984  38.812  28.567   9.461
 1222POPC   GL118985  39.006  28.258   9.137
 1222POPC   GL218986  39.314  28.375   9.083
 1222POPC   C1A18987  39.081  28.221   8.682
 1222POPC   D2A18988  39.018  28.057   8.318
 1222POPC   C3A18989  39.154  28.314   8.029
 1222POPC   C4A18990  39.039  28.125   7.680
 1222POPC   C1B18991  39.525  28.543   8.747
 1222POPC   C2B18992  39.448  28.674   8.368
 1222POPC   C3B18993  39.621  28.544   7.994
 1222POPC   C4B18994  39.496  28.350   7.637
 1223POPC   NC318995  43.771   3.951   9.966
 1223POPC   PO418996  44.106   4.344   9.517
 1223POPC   GL118997  43.951   4.410   9.139
 1223POPC   GL218998  43.633   4.237   9.167
 1223POPC   C1A18999  43.918   4.209   8.748
 1223POPC   D2A19000  43.854   4.080   8.378
 1223POPC   C3A19001  43.857   4.259   7.983
 1223POPC   C4A19002  43.597   4.061   7.677
 1223POPC   C1B19003  43.527   4.555   8.854
 1223POPC   C2B19004  43.651   4.576   8.443
 1223POPC   C3B19005  43.422   4.461   8.115
 1223POPC   C4B19006  43.525   4.575   7.720
 1224POPC   NC319007  32.666   3.158   9.720
 1224POPC   PO419008  32.187   3.567   9.514
 1224POPC   GL119009  32.190   3.553   9.135
 1224POPC   GL219010  32.205   3.925   9.107
 1224POPC   C1A19011  32.452   3.471   8.746
 1224POPC   D2A19012  32.541   3.251   8.358
 1224POPC   C3A19013  32.413   3.421   7.969
 1224POPC   C4A19014  32.675   3.474   7.598
 1224POPC   C1B19015  32.026   3.754   8.731
 1224POPC   C2B19016  32.004   3.512   8.369
 1224POPC   C3B19017  31.963   3.691   7.971
 1224POPC   C4B19018  32.187   3.726   7.593
 1225POPC   NC319019  13.124  35.745   9.287
 1225POPC   PO419020  12.640  36.189   9.470
 1225POPC   GL119021  12.761  36.063   9.080
 1225POPC   GL219022  12.675  35.719   9.075
 1225POPC   C1A19023  12.971  36.301   8.751
 1225POPC   D2A19024  13.174  36.509   8.388
 1225POPC   C3A19025  13.066  36.397   7.954
 1225POPC   C4A19026  12.962  36.517   7.525
 1225POPC   C1B19027  12.886  35.770   8.665
 1225POPC   C2B19028  13.106  35.998   8.334
 1225POPC   C3B19029  12.886  35.902   7.975
 1225POPC   C4B19030  12.834  36.022   7.562
 1226POPC   NC319031  10.578  34.009   9.706
 1226POPC   PO419032  10.458  34.645   9.514
 1226POPC   GL119033  10.323  34.588   9.064
 1226POPC   GL219034  10.457  34.289   8.843
 1226POPC   C1A19035  10.618  34.756   8.734
 1226POPC   D2A19036  10.924  34.729   8.386
 1226POPC   C3A19037  10.711  34.798   8.001
 1226POPC   C4A19038  10.309  34.659   7.862
 1226POPC   C1B19039  10.814  34.143   8.607
 1226POPC   C2B19040  10.994  34.231   8.199
 1226POPC   C3B19041  10.800  34.313   7.795
 1226POPC   C4B19042  10.712  34.197   7.331
 1227POPC   NC319043   7.742  22.951   9.351
 1227POPC   PO419044   7.162  22.560   9.297
 1227POPC   GL119045   7.336  22.782   9.002
 1227POPC   GL219046   7.303  23.079   9.116
 1227POPC   C1A19047   7.447  22.795   8.600
 1227POPC   D2A19048   7.204  22.739   8.285
 1227POPC   C3A19049   7.387  22.862   7.928
 1227POPC   C4A19050   7.592  22.804   7.508
 1227POPC   C1B19051   7.525  23.264   8.746
 1227POPC   C2B19052   7.299  23.320   8.324
 1227POPC   C3B19053   7.106  23.267   7.906
 1227POPC   C4B19054   7.150  23.032   7.504
 1228POPC   NC319055  38.091  39.551   9.288
 1228POPC   PO419056  37.469  39.495   9.332
 1228POPC   GL119057  37.712  39.358   8.991
 1228POPC   GL219058  37.688  39.015   8.904
 1228POPC   C1A19059  38.072  39.306   8.694
 1228POPC   D2A19060  38.159  39.481   8.317
 1228POPC   C3A19061  37.841  39.346   8.060
 1228POPC   C4A19062  37.812  39.490   7.618
 1228POPC   C1B19063  37.280  39.101   8.702
 1228POPC   C2B19064  37.141  39.259   8.285
 1228POPC   C3B19065  37.379  39.320   7.876
 1228POPC   C4B19066  37.672  38.988   7.699
 1229POPC   NC319067   1.657  37.992   9.534
 1229POPC   PO419068   1.078  37.631   9.500
 1229POPC   GL119069   1.251  37.705   9.115
 1229POPC   GL219070   1.384  38.028   9.115
 1229POPC   C1A19071   1.133  37.761   8.699
 1229POPC   D2A19072   1.038  37.962   8.317
 1229POPC   C3A19073   0.964  37.667   8.006
 1229POPC   C4A19074   1.217  37.486   7.705
 1229POPC   C1B19075   1.633  37.926   8.732
 1229POPC   C2B19076   1.497  37.742   8.339
 1229POPC   C3B19077   1.425  37.915   7.926
 1229POPC   C4B19078   1.508  37.856   7.485
 1230POPC   NC319079  27.147  44.699   9.354
 1230POPC   PO419080  27.732  44.571   9.568
 1230POPC   GL119081  27.641  44.831   9.240
 1230POPC   GL219082  27.842  44.656   9.049
 1230POPC   C1A19083  27.462  44.899   8.807
 1230POPC   D2A19084  27.601  44.786   8.393
 1230POPC   C3A19085  27.381  44.831   7.997
 1230POPC   C4A19086  27.416   0.135   7.672
 1230POPC   C1B19087  27.587  44.371   8.777
 1230POPC   C2B19088  27.530  44.278   8.323
 1230POPC   C3B19089  27.767  44.487   7.978
 1230POPC   C4B19090  27.733  44.709   7.571
 1231POPC   NC319091  43.492  40.768   9.603
 1231POPC   PO419092  42.787  40.743   9.594
 1231POPC   GL119093  43.085  40.801   9.250
 1231POPC   GL219094  43.273  40.496   9.187
 1231POPC   C1A19095  43.175  40.883   8.816
 1231POPC   D2A19096  43.444  40.978   8.469
 1231POPC   C3A19097  43.244  40.948   8.062
 1231POPC   C4A19098  42.938  40.802   7.750
 1231POPC   C1B19099  43.114  40.375   8.766
 1231POPC   C2B19100  43.060  40.584   8.382
 1231POPC   C3B19101  43.244  40.432   7.991
 1231POPC   C4B19102  43.402  40.186   7.659
 1232POPC   NC319103  38.429  31.985   9.185
 1232POPC   PO419104  38.758  32.509   9.365
 1232POPC   GL119105  38.505  32.467   9.023
 1232POPC   GL219106  38.749  32.468   8.816
 1232POPC   C1A19107  38.192  32.534   8.719
 1232POPC   D2A19108  38.120  32.398   8.299
 1232POPC   C3A19109  38.406  32.238   7.993
 1232POPC   C4A19110  38.570  31.855   7.805
 1232POPC   C1B19111  38.553  32.169   8.540
 1232POPC   C2B19112  38.810  32.009   8.230
 1232POPC   C3B19113  38.952  32.359   8.116
 1232POPC   C4B19114  38.793  32.540   7.801
 1233POPC   NC319115  21.214  18.394   9.538
 1233POPC   PO419116  20.542  18.647   9.600
 1233POPC   GL119117  20.581  18.430   9.202
 1233POPC   GL219118  20.797  18.141   9.226
 1233POPC   C1A19119  20.737  18.516   8.784
 1233POPC   D2A19120  20.894  18.439   8.359
 1233POPC   C3A19121  20.585  18.345   8.046
 1233POPC   C4A19122  20.377  18.566   7.710
 1233POPC   C1B19123  20.898  18.031   8.786
 1233POPC   C2B19124  20.979  17.929   8.347
 1233POPC   C3B19125  21.049  18.106   7.944
 1233POPC   C4B19126  20.797  18.231   7.564
 1234POPC   NC319127  10.334  19.497   9.824
 1234POPC   PO419128  10.764  19.911   9.477
 1234POPC   GL119129  10.492  19.830   9.122
 1234POPC   GL219130  10.604  20.083   8.931
 1234POPC   C1A19131  10.573  19.592   8.731
 1234POPC   D2A19132  10.626  19.823   8.338
 1234POPC   C3A19133  10.691  19.554   7.992
 1234POPC   C4A19134  10.325  19.392   7.780
 1234POPC   C1B19135  10.232  19.966   8.681
 1234POPC   C2B19136  10.050  19.940   8.258
 1234POPC   C3B19137  10.324  19.926   7.889
 1234POPC   C4B19138  10.729  20.064   7.890
 1235POPC   NC319139   1.894   7.791   9.467
 1235POPC   PO419140   1.763   7.122   9.336
 1235POPC   GL119141   1.741   7.485   9.100
 1235POPC   GL219142   2.092   7.646   9.005
 1235POPC   C1A19143   1.692   7.675   8.707
 1235POPC   D2A19144   2.013   7.703   8.392
 1235POPC   C3A19145   1.820   7.483   8.072
 1235POPC   C4A19146   1.834   7.319   7.671
 1235POPC   C1B19147   2.029   7.275   8.732
 1235POPC   C2B19148   2.134   7.134   8.345
 1235POPC   C3B19149   2.268   7.256   7.937
 1235POPC   C4B19150   2.250   7.032   7.558
 1236POPC   NC319151  30.479  19.298   9.271
 1236POPC   PO419152  30.947  18.783   9.487
 1236POPC   GL119153  30.835  18.957   9.127
 1236POPC   GL219154  30.508  18.787   9.130
 1236POPC   C1A19155  31.000  19.128   8.752
 1236POPC   D2A19156  30.764  19.120   8.385
 1236POPC   C3A19157  30.953  19.104   7.994
 1236POPC   C4A19158  30.725  19.283   7.656
 1236POPC   C1B19159  30.403  18.775   8.702
 1236POPC   C2B19160  30.295  18.683   8.282
 1236POPC   C3B19161  30.452  18.924   7.933
 1236POPC   C4B19162  30.508  18.867   7.465
 1237POPC   NC319163  43.740  31.676   9.407
 1237POPC   PO419164  43.694  31.031   9.410
 1237POPC   GL119165  43.768  31.284   9.072
 1237POPC   GL219166  44.100  31.435   9.143
 1237POPC   C1A19167  43.752  31.490   8.666
 1237POPC   D2A19168  43.727  31.244   8.307
 1237POPC   C3A19169  43.864  31.479   7.928
 1237POPC   C4A19170  43.758  31.632   7.514
 1237POPC   C1B19171  44.184  31.248   8.758
 1237POPC   C2B19172  44.203  31.424   8.346
 1237POPC   C3B19173  44.371  31.347   7.960
 1237POPC   C4B19174  44.146  31.297   7.535
 1238POPC   NC319175  23.942  23.139   9.748
 1238POPC   PO419176  23.687  22.597   9.522
 1238POPC   GL119177  23.713  22.987   9.280
 1238POPC   GL219178  23.977  23.232   9.203
 1238POPC   C1A19179  23.622  23.061   8.855
 1238POPC   D2A19180  23.713  23.039   8.438
 1238POPC   C3A19181  23.546  22.785   8.117
 1238POPC   C4A19182  23.719  22.811   7.737
 1238POPC   C1B19183  24.127  23.159   8.762
 1238POPC   C2B19184  24.093  23.337   8.331
 1238POPC   C3B19185  23.870  23.264   7.938
 1238POPC   C4B19186  24.015  23.132   7.484
 1239POPC   NC319187   0.748  36.398   9.502
 1239POPC   PO419188   0.630  35.868   9.447
 1239POPC   GL119189   0.602  36.157   9.076
 1239POPC   GL219190   0.393  36.459   9.131
 1239POPC   C1A19191   0.586  36.122   8.640
 1239POPC   D2A19192   0.283  35.997   8.330
 1239POPC   C3A19193   0.473  35.999   7.921
 1239POPC   C4A19194   0.484  35.797   7.498
 1239POPC   C1B19195   0.131  36.368   8.754
 1239POPC   C2B19196  44.924  36.374   8.339
 1239POPC   C3B19197   0.126  36.397   7.916
 1239POPC   C4B19198   0.388  36.316   7.534
 1240POPC   NC319199  11.203  29.521   9.632
 1240POPC   PO419200  11.540  30.126   9.556
 1240POPC   GL119201  11.386  30.046   9.176
 1240POPC   GL219202  11.214  29.756   9.188
 1240POPC   C1A19203  11.254  30.040   8.747
 1240POPC   D2A19204  10.986  30.221   8.457
 1240POPC   C3A19205  11.126  30.078   8.062
 1240POPC   C4A19206  10.991  30.139   7.651
 1240POPC   C1B19207  11.306  29.524   8.821
 1240POPC   C2B19208  11.409  29.521   8.418
 1240POPC   C3B19209  11.237  29.522   8.023
 1240POPC   C4B19210  11.480  29.589   7.688
 1241POPC   NC319211  16.848  18.809   9.598
 1241POPC   PO419212  16.716  19.324   9.711
 1241POPC   GL119213  16.758  19.176   9.247
 1241POPC   GL219214  16.459  18.986   9.180
 1241POPC   C1A19215  16.873  18.951   8.822
 1241POPC   D2A19216  16.884  18.787   8.374
 1241POPC   C3A19217  16.867  19.010   7.938
 1241POPC   C4A19218  17.112  19.217   7.584
 1241POPC   C1B19219  16.503  19.291   8.806
 1241POPC   C2B19220  16.662  19.244   8.373
 1241POPC   C3B19221  16.706  19.489   7.992
 1241POPC   C4B19222  16.636  19.393   7.546
 1242POPC   NC319223   0.927  22.245   9.377
 1242POPC   PO419224   1.542  22.573   9.404
 1242POPC   GL119225   1.378  22.273   9.123
 1242POPC   GL219226   1.270  21.919   9.170
 1242POPC   C1A19227   1.288  22.147   8.714
 1242POPC   D2A19228   1.542  21.994   8.403
 1242POPC   C3A19229   1.357  22.156   8.064
 1242POPC   C4A19230   1.500  22.158   7.687
 1242POPC   C1B19231   0.916  21.796   8.848
 1242POPC   C2B19232   0.807  21.681   8.401
 1242POPC   C3B19233   0.970  21.774   7.979
 1242POPC   C4B19234   0.979  22.149   7.724
 1243POPC   NC319235  11.595  24.015   9.857
 1243POPC   PO419236  11.983  23.544   9.602
 1243POPC   GL119237  11.933  23.639   9.192
 1243POPC   GL219238  12.247  23.759   9.165
 1243POPC   C1A19239  11.873  23.795   8.772
 1243POPC   D2A19240  11.896  23.545   8.411
 1243POPC   C3A19241  12.043  23.692   8.032
 1243POPC   C4A19242  11.846  23.887   7.690
 1243POPC   C1B19243  12.359  23.584   8.759
 1243POPC   C2B19244  12.391  23.432   8.334
 1243POPC   C3B19245  12.493  23.449   7.908
 1243POPC   C4B19246  12.263  23.648   7.549
 1244POPC   NC319247  44.178  16.754   9.566
 1244POPC   PO419248  43.628  16.919   9.236
 1244POPC   GL119249  43.986  16.770   9.080
 1244POPC   GL219250  44.053  16.429   9.181
 1244POPC   C1A19251  43.947  16.754   8.656
 1244POPC   D2A19252  43.697  16.582   8.304
 1244POPC   C3A19253  43.760  16.773   7.911
 1244POPC   C4A19254  43.482  16.705   7.582
 1244POPC   C1B19255  44.192  16.313   8.758
 1244POPC   C2B19256  44.208  16.468   8.343
 1244POPC   C3B19257  44.098  16.324   7.966
 1244POPC   C4B19258  44.240  16.653   7.758
 1245POPC   NC319259   6.669  15.746   9.628
 1245POPC   PO419260   7.256  16.074   9.548
 1245POPC   GL119261   7.194  15.731   9.244
 1245POPC   GL219262   7.495  15.616   9.089
 1245POPC   C1A19263   7.118  15.734   8.784
 1245POPC   D2A19264   7.248  16.026   8.471
 1245POPC   C3A19265   7.450  15.819   8.148
 1245POPC   C4A19266   7.431  15.840   7.721
 1245POPC   C1B19267   7.640  15.840   8.721
 1245POPC   C2B19268   7.750  16.172   8.397
 1245POPC   C3B19269   7.780  16.188   7.930
 1245POPC   C4B19270   7.840  16.058   7.482
 1246POPC   NC319271   6.483   6.214   9.426
 1246POPC   PO419272   6.739   5.534   9.512
 1246POPC   GL119273   6.721   5.807   9.193
 1246POPC   GL219274   6.803   5.538   8.965
 1246POPC   C1A19275   6.769   6.065   8.826
 1246POPC   D2A19276   6.764   5.890   8.414
 1246POPC   C3A19277   6.497   6.012   8.050
 1246POPC   C4A19278   6.784   6.028   7.717
 1246POPC   C1B19279   6.398   5.702   8.774
 1246POPC   C2B19280   6.329   5.591   8.357
 1246POPC   C3B19281   6.661   5.519   8.080
 1246POPC   C4B19282   6.544   5.583   7.685
 1247POPC   NC319283   3.171   3.403   9.559
 1247POPC   PO419284   2.531   3.530   9.555
 1247POPC   GL119285   2.695   3.626   9.156
 1247POPC   GL219286   2.996   3.824   9.196
 1247POPC   C1A19287   2.926   3.518   8.774
 1247POPC   D2A19288   2.787   3.366   8.379
 1247POPC   C3A19289   2.666   3.614   8.071
 1247POPC   C4A19290   2.511   3.414   7.730
 1247POPC   C1B19291   3.099   4.024   8.784
 1247POPC   C2B19292   3.023   3.927   8.337
 1247POPC   C3B19293   3.191   3.720   7.982
 1247POPC   C4B19294   3.039   3.322   7.873
 1248POPC   NC319295  22.214   6.079   9.436
 1248POPC   PO419296  21.649   5.696   9.624
 1248POPC   GL119297  21.878   5.768   9.174
 1248POPC   GL219298  22.214   5.721   9.083
 1248POPC   C1A19299  21.915   5.952   8.719
 1248POPC   D2A19300  21.829   6.205   8.308
 1248POPC   C3A19301  21.924   6.126   7.859
 1248POPC   C4A19302  21.958   5.777   7.507
 1248POPC   C1B19303  22.425   6.045   8.799
 1248POPC   C2B19304  22.363   6.156   8.360
 1248POPC   C3B19305  22.384   5.956   7.944
 1248POPC   C4B19306  22.391   5.565   7.697
 1249POPC   NC319307  41.511  44.223   9.409
 1249POPC   PO419308  41.837  44.859   9.323
 1249POPC   GL119309  41.732  44.549   9.087
 1249POPC   GL219310  42.051  44.453   9.064
 1249POPC   C1A19311  41.463  44.616   8.753
 1249POPC   D2A19312  41.497  44.893   8.415
 1249POPC   C3A19313  41.376  44.642   8.040
 1249POPC   C4A19314  41.317  44.796   7.606
 1249POPC   C1B19315  41.973  44.729   8.675
 1249POPC   C2B19316  41.886  44.631   8.248
 1249POPC   C3B19317  41.805  44.777   7.818
 1249POPC   C4B19318  41.794  44.699   7.382
 1250POPC   NC319319   5.676   9.028   9.374
 1250POPC   PO419320   6.294   9.118   9.267
 1250POPC   GL119321   6.060   8.816   8.992
 1250POPC   GL219322   5.737   8.956   8.873
 1250POPC   C1A19323   6.098   8.744   8.536
 1250POPC   D2A19324   5.763   8.710   8.233
 1250POPC   C3A19325   5.905   8.801   7.808
 1250POPC   C4A19326   6.227   8.555   7.597
 1250POPC   C1B19327   6.006   9.236   8.653
 1250POPC   C2B19328   6.067   9.174   8.224
 1250POPC   C3B19329   6.198   9.338   7.854
 1250POPC   C4B19330   5.858   9.327   7.547
 1251POPC   NC319331  32.045  40.501   9.374
 1251POPC   PO419332  32.278  41.213   9.419
 1251POPC   GL119333  32.267  41.022   9.002
 1251POPC   GL219334  32.621  41.011   8.887
 1251POPC   C1A19335  31.983  40.768   8.738
 1251POPC   D2A19336  31.837  40.651   8.332
 1251POPC   C3A19337  32.174  40.706   8.062
 1251POPC   C4A19338  32.185  40.741   7.625
 1251POPC   C1B19339  32.466  40.825   8.531
 1251POPC   C2B19340  32.626  40.561   8.228
 1251POPC   C3B19341  32.660  40.684   7.789
 1251POPC   C4B19342  32.710  40.799   7.348
 1252POPC   NC319343  43.197  16.807   9.381
 1252POPC   PO419344  43.753  16.689   9.711
 1252POPC   GL119345  43.517  16.448   9.189
 1252POPC   GL219346  43.101  16.408   9.086
 1252POPC   C1A19347  43.420  16.587   8.735
 1252POPC   D2A19348  43.123  16.613   8.419
 1252POPC   C3A19349  43.236  16.672   8.017
 1252POPC   C4A19350  43.033  16.429   7.699
 1252POPC   C1B19351  42.870  16.761   8.824
 1252POPC   C2B19352  42.690  16.909   8.408
 1252POPC   C3B19353  42.731  16.779   7.971
 1252POPC   C4B19354  42.923  16.932   7.569
 1253POPC   NC319355  43.919   9.272   9.427
 1253POPC   PO419356  43.781   9.934   9.615
 1253POPC   GL119357  43.915   9.777   9.199
 1253POPC   GL219358  43.603   9.631   9.105
 1253POPC   C1A19359  43.861   9.745   8.705
 1253POPC   D2A19360  43.633   9.370   8.520
 1253POPC   C3A19361  43.633   9.411   8.050
 1253POPC   C4A19362  43.816   9.725   7.759
 1253POPC   C1B19363  43.604  10.110   8.988
 1253POPC   C2B19364  43.644  10.206   8.550
 1253POPC   C3B19365  43.734  10.130   8.105
 1253POPC   C4B19366  43.586  10.168   7.665
 1254POPC   NC319367  14.289  20.624   9.801
 1254POPC   PO419368  14.207  21.128   9.545
 1254POPC   GL119369  14.249  20.765   9.215
 1254POPC   GL219370  14.285  20.401   9.286
 1254POPC   C1A19371  14.364  20.581   8.763
 1254POPC   D2A19372  14.439  20.606   8.283
 1254POPC   C3A19373  14.228  20.974   8.054
 1254POPC   C4A19374  14.075  21.063   7.614
 1254POPC   C1B19375  14.293  20.088   8.911
 1254POPC   C2B19376  14.226  20.135   8.456
 1254POPC   C3B19377  14.171  20.244   8.019
 1254POPC   C4B19378  14.301  20.131   7.586
 1255POPC   NC319379  27.947  18.213   9.499
 1255POPC   PO419380  27.260  18.438   9.442
 1255POPC   GL119381  27.518  18.327   9.108
 1255POPC   GL219382  27.829  18.536   9.117
 1255POPC   C1A19383  27.568  18.491   8.674
 1255POPC   D2A19384  27.798  18.435   8.308
 1255POPC   C3A19385  27.582  18.399   7.894
 1255POPC   C4A19386  27.609  18.414   7.410
 1255POPC   C1B19387  27.953  18.182   8.829
 1255POPC   C2B19388  27.761  17.915   8.525
 1255POPC   C3B19389  27.775  17.967   8.088
 1255POPC   C4B19390  27.673  17.940   7.666
 1256POPC   NC319391  12.598  10.172   9.542
 1256POPC   PO419392  13.044  10.716   9.453
 1256POPC   GL119393  12.760  10.494   9.130
 1256POPC   GL219394  12.428  10.261   9.075
 1256POPC   C1A19395  12.954  10.642   8.753
 1256POPC   D2A19396  13.295  10.549   8.431
 1256POPC   C3A19397  13.226  10.710   8.007
 1256POPC   C4A19398  12.924  10.909   7.744
 1256POPC   C1B19399  12.680  10.190   8.679
 1256POPC   C2B19400  12.795  10.467   8.311
 1256POPC   C3B19401  12.824  10.404   7.891
 1256POPC   C4B19402  12.479  10.235   7.685
 1257POPC   NC319403  31.206  35.576   9.450
 1257POPC   PO419404  31.857  35.608   9.494
 1257POPC   GL119405  31.738  35.532   9.083
 1257POPC   GL219406  31.417  35.665   9.001
 1257POPC   C1A19407  31.571  35.305   8.711
 1257POPC   D2A19408  31.454  35.559   8.406
 1257POPC   C3A19409  31.571  35.422   8.016
 1257POPC   C4A19410  31.633  35.433   7.592
 1257POPC   C1B19411  31.080  35.458   8.774
 1257POPC   C2B19412  30.951  35.537   8.332
 1257POPC   C3B19413  31.081  35.414   7.884
 1257POPC   C4B19414  31.169  35.210   7.457
 1258POPC   NC319415  32.084  18.550   9.385
 1258POPC   PO419416  32.289  17.997   9.771
 1258POPC   GL119417  32.417  18.196   9.244
 1258POPC   GL219418  32.695  18.440   9.142
 1258POPC   C1A19419  32.224  18.053   8.788
 1258POPC   D2A19420  31.993  17.980   8.361
 1258POPC   C3A19421  32.234  18.048   8.032
 1258POPC   C4A19422  32.134  18.357   7.709
 1258POPC   C1B19423  32.421  18.520   8.797
 1258POPC   C2B19424  32.221  18.445   8.426
 1258POPC   C3B19425  32.495  18.467   8.104
 1258POPC   C4B19426  32.501  18.685   7.760
 1259POPC   NC319427  24.464  14.378   9.818
 1259POPC   PO419428  24.861  14.738   9.372
 1259POPC   GL119429  24.566  14.537   9.070
 1259POPC   GL219430  24.302  14.289   9.157
 1259POPC   C1A19431  24.538  14.386   8.688
 1259POPC   D2A19432  24.562  14.642   8.360
 1259POPC   C3A19433  24.391  14.597   7.982
 1259POPC   C4A19434  24.688  14.813   7.733
 1259POPC   C1B19435  24.118  14.114   8.740
 1259POPC   C2B19436  24.131  14.320   8.334
 1259POPC   C3B19437  24.109  14.127   7.931
 1259POPC   C4B19438  24.131  14.142   7.488
 1260POPC   NC319439  37.090  30.223   9.271
 1260POPC   PO419440  37.674  30.028   9.501
 1260POPC   GL119441  37.615  29.876   9.099
 1260POPC   GL219442  37.390  30.067   8.900
 1260POPC   C1A19443  37.497  29.597   8.791
 1260POPC   D2A19444  37.490  29.821   8.430
 1260POPC   C3A19445  37.431  29.650   8.043
 1260POPC   C4A19446  37.487  29.827   7.648
 1260POPC   C1B19447  37.570  30.300   8.567
 1260POPC   C2B19448  37.816  30.187   8.260
 1260POPC   C3B19449  37.843  30.154   7.847
 1260POPC   C4B19450  37.847  30.099   7.416
 1261POPC   NC319451   0.791  44.571   9.265
 1261POPC   PO419452   0.155  44.475   9.468
 1261POPC   GL119453   0.327  44.791   9.160
 1261POPC   GL219454   0.370  44.476   9.001
 1261POPC   C1A19455   0.503  44.913   8.709
 1261POPC   D2A19456   0.714  44.673   8.353
 1261POPC   C3A19457   0.529  44.634   7.928
 1261POPC   C4A19458   0.219  44.898   7.736
 1261POPC   C1B19459   0.108  44.553   8.697
 1261POPC   C2B19460   0.194  44.417   8.291
 1261POPC   C3B19461   0.034  44.459   7.904
 1261POPC   C4B19462  44.990  44.293   7.487
 1262POPC   NC319463   0.746  18.232   9.258
 1262POPC   PO419464   1.412  18.098   9.483
 1262POPC   GL119465   1.250  18.174   9.137
 1262POPC   GL219466   1.079  17.892   9.118
 1262POPC   C1A19467   1.285  18.300   8.714
 1262POPC   D2A19468   1.189  18.490   8.340
 1262POPC   C3A19469   1.076  18.328   7.943
 1262POPC   C4A19470   1.332  18.356   7.571
 1262POPC   C1B19471   0.923  17.937   8.710
 1262POPC   C2B19472   1.116  17.965   8.324
 1262POPC   C3B19473   0.839  17.842   8.028
 1262POPC   C4B19474   0.843  17.957   7.641
 1263POPC   NC319475  32.405   9.388   9.421
 1263POPC   PO419476  31.976   9.935   9.478
 1263POPC   GL119477  31.993   9.936   9.042
 1263POPC   GL219478  32.356   9.859   9.053
 1263POPC   C1A19479  32.116   9.964   8.590
 1263POPC   D2A19480  32.151   9.668   8.264
 1263POPC   C3A19481  32.124   9.796   7.844
 1263POPC   C4A19482  32.113   9.591   7.417
 1263POPC   C1B19483  32.379   9.528   8.729
 1263POPC   C2B19484  32.566   9.353   8.333
 1263POPC   C3B19485  32.501   9.477   7.922
 1263POPC   C4B19486  32.559   9.775   7.589
 1264POPC   NC319487   4.314   2.142   9.645
 1264POPC   PO419488   4.568   1.595   9.505
 1264POPC   GL119489   4.346   1.887   9.204
 1264POPC   GL219490   4.383   2.287   9.180
 1264POPC   C1A19491   4.330   1.978   8.778
 1264POPC   D2A19492   4.540   1.804   8.431
 1264POPC   C3A19493   4.339   1.964   8.081
 1264POPC   C4A19494   4.419   1.828   7.678
 1264POPC   C1B19495   4.648   2.380   8.824
 1264POPC   C2B19496   4.862   2.234   8.443
 1264POPC   C3B19497   4.792   2.179   8.004
 1264POPC   C4B19498   4.506   2.340   7.748
 1265POPC   NC319499  24.383  35.605   9.571
 1265POPC   PO419500  24.629  34.976   9.568
 1265POPC   GL119501  24.449  35.187   9.215
 1265POPC   GL219502  24.682  35.411   9.064
 1265POPC   C1A19503  24.289  35.090   8.814
 1265POPC   D2A19504  24.512  35.105   8.412
 1265POPC   C3A19505  24.339  35.206   8.024
 1265POPC   C4A19506  24.602  35.462   7.762
 1265POPC   C1B19507  24.425  35.560   8.692
 1265POPC   C2B19508  24.231  35.664   8.274
 1265POPC   C3B19509  24.284  35.862   7.859
 1265POPC   C4B19510  24.383  36.062   7.439
 1266POPC   NC319511  25.375  20.279   9.348
 1266POPC   PO419512  24.853  20.726   9.450
 1266POPC   GL119513  25.153  20.709   9.146
 1266POPC   GL219514  24.991  20.431   9.014
 1266POPC   C1A19515  25.445  20.654   8.770
 1266POPC   D2A19516  25.290  20.535   8.362
 1266POPC   C3A19517  25.407  20.644   7.943
 1266POPC   C4A19518  25.346  20.679   7.481
 1266POPC   C1B19519  24.923  20.116   8.724
 1266POPC   C2B19520  25.060  20.090   8.315
 1266POPC   C3B19521  24.894  20.405   8.055
 1266POPC   C4B19522  25.038  20.347   7.683
 1267POPC   NC319523   8.856  14.986   9.516
 1267POPC   PO419524   8.807  15.650   9.504
 1267POPC   GL119525   9.068  15.407   9.221
 1267POPC   GL219526   8.756  15.286   9.128
 1267POPC   C1A19527   9.149  15.264   8.783
 1267POPC   D2A19528   9.335  15.059   8.422
 1267POPC   C3A19529   9.169  15.161   8.007
 1267POPC   C4A19530   9.260  15.043   7.566
 1267POPC   C1B19531   8.665  15.049   8.804
 1267POPC   C2B19532   8.784  15.154   8.431
 1267POPC   C3B19533   8.633  15.157   8.051
 1267POPC   C4B19534   8.788  14.895   7.734
 1268POPC   NC319535  23.432   9.426   9.411
 1268POPC   PO419536  24.024   9.785   9.484
 1268POPC   GL119537  23.790   9.722   9.139
 1268POPC   GL219538  23.524   9.882   9.130
 1268POPC   C1A19539  23.748   9.562   8.719
 1268POPC   D2A19540  24.038   9.529   8.385
 1268POPC   C3A19541  23.876   9.517   7.972
 1268POPC   C4A19542  23.468   9.487   7.735
 1268POPC   C1B19543  23.643  10.065   8.739
 1268POPC   C2B19544  23.606   9.897   8.324
 1268POPC   C3B19545  23.616   9.936   7.891
 1268POPC   C4B19546  23.797   9.846   7.499
 1269POPC   NC319547  44.224  42.426   9.412
 1269POPC   PO419548  43.623  42.009   9.329
 1269POPC   GL119549  43.986  42.152   9.083
 1269POPC   GL219550  43.934  42.483   8.974
 1269POPC   C1A19551  44.306  42.228   8.740
 1269POPC   D2A19552  44.115  42.466   8.421
 1269POPC   C3A19553  44.178  42.416   7.995
 1269POPC   C4A19554  43.861  42.473   7.668
 1269POPC   C1B19555  43.803  42.802   8.665
 1269POPC   C2B19556  43.491  42.796   8.326
 1269POPC   C3B19557  43.554  42.813   7.884
 1269POPC   C4B19558  43.486  42.727   7.424
 1270POPC   NC319559  31.152  37.920   9.211
 1270POPC   PO419560  31.570  37.570   9.675
 1270POPC   GL119561  31.608  37.634   9.218
 1270POPC   GL219562  31.852  37.891   9.145
 1270POPC   C1A19563  31.758  37.394   8.831
 1270POPC   D2A19564  31.632  37.381   8.390
 1270POPC   C3A19565  31.366  37.627   8.172
 1270POPC   C4A19566  31.668  37.570   7.833
 1270POPC   C1B19567  31.594  37.867   8.755
 1270POPC   C2B19568  31.457  38.104   8.407
 1270POPC   C3B19569  31.594  38.033   7.988
 1270POPC   C4B19570  31.261  37.794   7.638
 1271POPC   NC319571   5.701  42.569   9.568
 1271POPC   PO419572   5.103  42.360   9.513
 1271POPC   GL119573   5.152  42.419   9.125
 1271POPC   GL219574   5.504  42.330   9.136
 1271POPC   C1A19575   4.963  42.082   8.892
 1271POPC   D2A19576   5.047  41.978   8.494
 1271POPC   C3A19577   5.111  42.346   8.265
 1271POPC   C4A19578   4.940  42.370   7.861
 1271POPC   C1B19579   5.438  42.236   8.705
 1271POPC   C2B19580   5.526  41.923   8.359
 1271POPC   C3B19581   5.441  42.084   7.957
 1271POPC   C4B19582   5.467  42.534   7.915
 1272POPC   NC319583  12.370  35.781   9.519
 1272POPC   PO419584  11.916  35.282   9.446
 1272POPC   GL119585  12.068  35.237   9.093
 1272POPC   GL219586  12.211  35.537   9.098
 1272POPC   C1A19587  12.046  35.117   8.695
 1272POPC   D2A19588  12.190  35.210   8.302
 1272POPC   C3A19589  11.889  35.268   7.998
 1272POPC   C4A19590  11.947  35.144   7.585
 1272POPC   C1B19591  11.902  35.651   8.832
 1272POPC   C2B19592  11.857  35.610   8.405
 1272POPC   C3B19593  11.963  35.788   8.018
 1272POPC   C4B19594  11.975  35.664   7.613
 1273POPC   NC319595  40.212  12.211   9.461
 1273POPC   PO419596  39.533  12.155   9.354
 1273POPC   GL119597  39.865  12.216   9.043
 1273POPC   GL219598  40.042  11.904   9.096
 1273POPC   C1A19599  40.052  12.080   8.631
 1273POPC   D2A19600  40.269  11.938   8.273
 1273POPC   C3A19601  40.090  11.965   7.905
 1273POPC   C4A19602  40.005  12.385   7.775
 1273POPC   C1B19603  39.670  11.773   8.833
 1273POPC   C2B19604  39.541  12.011   8.504
 1273POPC   C3B19605  39.661  12.156   8.107
 1273POPC   C4B19606  39.541  12.168   7.675
 1274POPC   NC319607  17.536   1.195   9.687
 1274POPC   PO419608  17.165   1.684   9.508
 1274POPC   GL119609  17.512   1.482   9.209
 1274POPC   GL219610  17.541   1.094   9.128
 1274POPC   C1A19611  17.499   1.410   8.746
 1274POPC   D2A19612  17.335   1.082   8.486
 1274POPC   C3A19613  17.440   1.183   8.099
 1274POPC   C4A19614  17.446   1.330   7.679
 1274POPC   C1B19615  17.798   0.962   8.705
 1274POPC   C2B19616  17.894   0.944   8.232
 1274POPC   C3B19617  17.705   0.874   7.800
 1274POPC   C4B19618  17.248   0.880   7.724
 1275POPC   NC319619  12.330  14.447   9.704
 1275POPC   PO419620  12.956  14.555   9.507
 1275POPC   GL119621  12.867  14.390   9.111
 1275POPC   GL219622  12.545  14.542   9.072
 1275POPC   C1A19623  13.087  14.404   8.700
 1275POPC   D2A19624  13.202  14.118   8.356
 1275POPC   C3A19625  13.037  14.221   7.940
 1275POPC   C4A19626  12.701  14.031   7.657
 1275POPC   C1B19627  12.621  14.590   8.663
 1275POPC   C2B19628  12.700  14.299   8.324
 1275POPC   C3B19629  12.581  14.445   7.918
 1275POPC   C4B19630  12.422  14.871   7.854
 1276POPC   NC319631  17.250  15.592   9.205
 1276POPC   PO419632  17.567  15.958   9.675
 1276POPC   GL119633  17.666  15.872   9.164
 1276POPC   GL219634  17.978  15.998   9.094
 1276POPC   C1A19635  17.650  16.062   8.721
 1276POPC   D2A19636  17.836  16.129   8.307
 1276POPC   C3A19637  17.470  16.126   7.999
 1276POPC   C4A19638  17.470  16.116   7.562
 1276POPC   C1B19639  18.099  15.814   8.687
 1276POPC   C2B19640  18.086  15.678   8.259
 1276POPC   C3B19641  17.879  15.849   7.879
 1276POPC   C4B19642  17.757  15.718   7.446
 1277POPC   NC319643  20.428  35.873   9.513
 1277POPC   PO419644  20.962  36.140   9.566
 1277POPC   GL119645  20.681  36.224   9.203
 1277POPC   GL219646  20.326  36.278   9.110
 1277POPC   C1A19647  20.649  36.122   8.761
 1277POPC   D2A19648  20.803  36.036   8.360
 1277POPC   C3A19649  20.555  35.860   8.050
 1277POPC   C4A19650  20.481  36.043   7.657
 1277POPC   C1B19651  20.263  36.461   8.679
 1277POPC   C2B19652  20.455  36.443   8.233
 1277POPC   C3B19653  20.586  36.517   7.821
 1277POPC   C4B19654  20.374  36.537   7.426
 1278POPC   NC319655   3.965   7.206   9.532
 1278POPC   PO419656   4.166   7.910   9.501
 1278POPC   GL119657   4.349   7.540   9.313
 1278POPC   GL219658   4.044   7.497   9.131
 1278POPC   C1A19659   4.497   7.545   8.880
 1278POPC   D2A19660   4.216   7.612   8.511
 1278POPC   C3A19661   4.405   7.741   8.154
 1278POPC   C4A19662   4.381   7.466   7.836
 1278POPC   C1B19663   4.159   7.181   8.820
 1278POPC   C2B19664   4.439   7.151   8.471
 1278POPC   C3B19665   4.294   6.985   8.117
 1278POPC   C4B19666   4.108   7.024   7.726
 1279POPC   NC319667  39.626  25.809   9.674
 1279POPC   PO419668  39.104  26.181   9.575
 1279POPC   GL119669  39.389  26.214   9.273
 1279POPC   GL219670  39.324  25.880   9.180
 1279POPC   C1A19671  39.292  26.291   8.853
 1279POPC   D2A19672  39.362  26.204   8.432
 1279POPC   C3A19673  39.012  26.093   8.194
 1279POPC   C4A19674  39.029  26.099   7.757
 1279POPC   C1B19675  39.554  25.849   8.825
 1279POPC   C2B19676  39.560  25.710   8.430
 1279POPC   C3B19677  39.435  25.848   8.032
 1279POPC   C4B19678  39.403  25.777   7.609
 1280POPC   NC319679  40.918  42.143   9.474
 1280POPC   PO419680  40.754  42.802   9.589
 1280POPC   GL119681  40.750  42.651   9.128
 1280POPC   GL219682  40.592  42.332   9.138
 1280POPC   C1A19683  40.909  42.437   8.740
 1280POPC   D2A19684  40.984  42.403   8.292
 1280POPC   C3A19685  40.653  42.583   8.078
 1280POPC   C4A19686  40.238  42.565   7.920
 1280POPC   C1B19687  40.678  41.988   8.854
 1280POPC   C2B19688  40.736  41.982   8.446
 1280POPC   C3B19689  40.941  41.928   8.068
 1280POPC   C4B19690  40.904  42.226   7.795
 1281POPC   NC319691  39.250  17.987   9.352
 1281POPC   PO419692  39.413  18.711   9.351
 1281POPC   GL119693  39.429  18.423   9.087
 1281POPC   GL219694  39.065  18.408   9.101
 1281POPC   C1A19695  39.334  18.601   8.691
 1281POPC   D2A19696  39.064  18.511   8.390
 1281POPC   C3A19697  39.255  18.302   8.040
 1281POPC   C4A19698  39.306  18.400   7.605
 1281POPC   C1B19699  39.045  18.133   8.758
 1281POPC   C2B19700  38.920  18.024   8.378
 1281POPC   C3B19701  38.701  18.284   8.105
 1281POPC   C4B19702  38.829  18.267   7.714
 1282POPC   NC319703   3.401  21.502   9.629
 1282POPC   PO419704   3.234  20.988   9.329
 1282POPC   GL119705   3.478  21.313   9.098
 1282POPC   GL219706   3.535  21.689   9.181
 1282POPC   C1A19707   3.429  21.238   8.686
 1282POPC   D2A19708   3.376  20.984   8.354
 1282POPC   C3A19709   3.701  21.127   8.048
 1282POPC   C4A19710   3.809  21.275   7.622
 1282POPC   C1B19711   3.658  21.683   8.772
 1282POPC   C2B19712   3.571  21.578   8.345
 1282POPC   C3B19713   3.712  21.650   7.951
 1282POPC   C4B19714   4.024  21.777   7.665
 1283POPC   NC319715   2.293  13.656   9.462
 1283POPC   PO419716   2.884  13.340   9.624
 1283POPC   GL119717   2.897  13.534   9.189
 1283POPC   GL219718   2.569  13.510   9.073
 1283POPC   C1A19719   2.862  13.742   8.765
 1283POPC   D2A19720   2.910  13.587   8.368
 1283POPC   C3A19721   2.784  13.648   7.941
 1283POPC   C4A19722   2.876  13.872   7.581
 1283POPC   C1B19723   2.383  13.363   8.669
 1283POPC   C2B19724   2.494  13.306   8.246
 1283POPC   C3B19725   2.319  13.459   7.845
 1283POPC   C4B19726   2.371  13.267   7.437
 1284POPC   NC319727  20.490   5.991   9.507
 1284POPC   PO419728  20.969   5.500   9.646
 1284POPC   GL119729  20.770   5.571   9.254
 1284POPC   GL219730  20.900   5.887   9.212
 1284POPC   C1A19731  20.572   5.694   8.825
 1284POPC   D2A19732  20.470   5.498   8.401
 1284POPC   C3A19733  20.558   5.547   7.941
 1284POPC   C4A19734  20.571   5.772   7.542
 1284POPC   C1B19735  20.914   6.096   8.817
 1284POPC   C2B19736  20.695   6.022   8.427
 1284POPC   C3B19737  20.597   6.051   8.000
 1284POPC   C4B19738  20.824   6.253   7.762
 1285POPC   NC319739  39.608  21.122   9.478
 1285POPC   PO419740  40.091  21.589   9.573
 1285POPC   GL119741  39.982  21.379   9.209
 1285POPC   GL219742  39.682  21.535   9.182
 1285POPC   C1A19743  40.223  21.254   8.810
 1285POPC   D2A19744  40.401  21.114   8.404
 1285POPC   C3A19745  40.245  21.240   8.018
 1285POPC   C4A19746  40.107  21.500   7.708
 1285POPC   C1B19747  39.708  21.219   8.821
 1285POPC   C2B19748  39.897  21.314   8.419
 1285POPC   C3B19749  39.728  21.273   8.017
 1285POPC   C4B19750  39.607  21.521   7.682
 1286POPC   NC319751  12.491   2.519   9.557
 1286POPC   PO419752  12.000   2.938   9.477
 1286POPC   GL119753  12.055   2.924   9.044
 1286POPC   GL219754  12.346   2.723   9.110
 1286POPC   C1A19755  11.963   3.011   8.593
 1286POPC   D2A19756  12.020   2.711   8.239
 1286POPC   C3A19757  11.861   2.846   7.822
 1286POPC   C4A19758  11.848   2.925   7.361
 1286POPC   C1B19759  12.287   2.637   8.695
 1286POPC   C2B19760  12.473   2.477   8.338
 1286POPC   C3B19761  12.302   2.408   7.929
 1286POPC   C4B19762  12.174   2.555   7.524
 1287POPC   NC319763  32.490  23.367   9.698
 1287POPC   PO419764  32.185  23.837   9.726
 1287POPC   GL119765  32.268  23.908   9.261
 1287POPC   GL219766  32.426  23.599   9.215
 1287POPC   C1A19767  32.256  23.812   8.766
 1287POPC   D2A19768  32.224  23.567   8.360
 1287POPC   C3A19769  32.266  23.749   7.927
 1287POPC   C4A19770  31.999  23.686   7.560
 1287POPC   C1B19771  32.666  23.434   8.870
 1287POPC   C2B19772  32.654  23.262   8.434
 1287POPC   C3B19773  32.490  23.280   8.010
 1287POPC   C4B19774  32.772  23.468   7.734
 1288POPC   NC319775   8.227   6.002   9.869
 1288POPC   PO419776   8.378   5.551   9.406
 1288POPC   GL119777   8.133   5.811   9.116
 1288POPC   GL219778   7.960   6.148   9.112
 1288POPC   C1A19779   8.302   5.761   8.717
 1288POPC   D2A19780   8.504   5.989   8.416
 1288POPC   C3A19781   8.412   5.781   8.054
 1288POPC   C4A19782   8.077   5.630   7.732
 1288POPC   C1B19783   8.103   6.227   8.668
 1288POPC   C2B19784   8.161   6.314   8.259
 1288POPC   C3B19785   8.105   6.135   7.860
 1288POPC   C4B19786   8.056   6.072   7.416
 1289POPC   NC319787  27.463  31.779   9.581
 1289POPC   PO419788  27.448  31.117   9.502
 1289POPC   GL119789  27.631  31.197   9.112
 1289POPC   GL219790  27.855  30.954   8.966
 1289POPC   C1A19791  27.658  31.428   8.723
 1289POPC   D2A19792  27.784  31.579   8.320
 1289POPC   C3A19793  27.555  31.748   7.975
 1289POPC   C4A19794  27.769  31.994   7.660
 1289POPC   C1B19795  27.453  30.959   8.678
 1289POPC   C2B19796  27.434  31.172   8.263
 1289POPC   C3B19797  27.690  31.254   7.911
 1289POPC   C4B19798  27.676  31.501   7.530
 1290POPC   NC319799  13.803  27.318   9.388
 1290POPC   PO419800  14.467  27.467   9.500
 1290POPC   GL119801  14.415  27.612   9.061
 1290POPC   GL219802  14.155  27.874   9.139
 1290POPC   C1A19803  14.499  27.681   8.608
 1290POPC   D2A19804  14.202  27.453   8.358
 1290POPC   C3A19805  14.253  27.370   7.937
 1290POPC   C4A19806  14.397  27.459   7.514
 1290POPC   C1B19807  14.106  27.999   8.684
 1290POPC   C2B19808  14.234  27.955   8.233
 1290POPC   C3B19809  14.323  27.885   7.794
 1290POPC   C4B19810  14.470  27.952   7.350
 1291POPC   NC319811  16.228  11.516   9.596
 1291POPC   PO419812  16.612  11.038   9.439
 1291POPC   GL119813  16.712  11.377   9.139
 1291POPC   GL219814  17.084  11.506   9.151
 1291POPC   C1A19815  16.541  11.302   8.720
 1291POPC   D2A19816  16.551  10.963   8.382
 1291POPC   C3A19817  16.539  11.145   7.964
 1291POPC   C4A19818  16.456  11.588   7.923
 1291POPC   C1B19819  17.031  11.416   8.709
 1291POPC   C2B19820  16.834  11.396   8.301
 1291POPC   C3B19821  16.959  11.451   7.876
 1291POPC   C4B19822  17.113  11.396   7.478
 1292POPC   NC319823  38.017  11.146   9.880
 1292POPC   PO419824  37.764  10.614   9.494
 1292POPC   GL119825  37.699  10.480   9.142
 1292POPC   GL219826  37.569  10.143   9.162
 1292POPC   C1A19827  37.809  10.462   8.750
 1292POPC   D2A19828  37.662  10.615   8.390
 1292POPC   C3A19829  37.796  10.507   7.971
 1292POPC   C4A19830  37.646  10.703   7.618
 1292POPC   C1B19831  37.286  10.383   8.861
 1292POPC   C2B19832  37.171  10.477   8.434
 1292POPC   C3B19833  37.344  10.323   8.094
 1292POPC   C4B19834  37.275  10.038   7.774
 1293POPC   NC319835   2.348   3.969   9.519
 1293POPC   PO419836   2.983   4.298   9.437
 1293POPC   GL119837   2.809   4.354   9.094
 1293POPC   GL219838   2.573   4.120   9.094
 1293POPC   C1A19839   2.723   4.452   8.700
 1293POPC   D2A19840   2.991   4.434   8.402
 1293POPC   C3A19841   2.809   4.431   8.039
 1293POPC   C4A19842   2.823   4.065   7.834
 1293POPC   C1B19843   2.609   3.922   8.696
 1293POPC   C2B19844   2.488   4.054   8.287
 1293POPC   C3B19845   2.326   3.942   7.874
 1293POPC   C4B19846   2.310   4.239   7.532
 1294POPC   NC319847  13.861   1.592   9.614
 1294POPC   PO419848  13.815   0.974   9.835
 1294POPC   GL119849  13.847   1.155   9.342
 1294POPC   GL219850  14.175   1.129   9.170
 1294POPC   C1A19851  13.717   1.356   8.891
 1294POPC   D2A19852  13.919   1.415   8.468
 1294POPC   C3A19853  13.637   1.341   8.105
 1294POPC   C4A19854  13.531   1.257   7.671
 1294POPC   C1B19855  14.039   0.984   8.751
 1294POPC   C2B19856  13.985   0.888   8.302
 1294POPC   C3B19857  13.940   1.012   7.857
 1294POPC   C4B19858  13.764   0.857   7.480
 1295POPC   NC319859  41.402  32.219   9.484
 1295POPC   PO419860  42.042  31.973   9.380
 1295POPC   GL119861  41.784  32.177   9.093
 1295POPC   GL219862  41.693  32.514   9.185
 1295POPC   C1A19863  41.480  32.084   8.773
 1295POPC   D2A19864  41.258  31.893   8.427
 1295POPC   C3A19865  41.321  32.145   8.081
 1295POPC   C4A19866  41.439  32.189   7.652
 1295POPC   C1B19867  41.489  32.584   8.787
 1295POPC   C2B19868  41.660  32.472   8.371
 1295POPC   C3B19869  41.527  32.612   7.949
 1295POPC   C4B19870  41.378  32.664   7.500
 1296POPC   NC319871  14.335  24.867   9.381
 1296POPC   PO419872  14.071  25.497   9.440
 1296POPC   GL119873  14.176  25.245   9.104
 1296POPC   GL219874  14.411  25.471   9.004
 1296POPC   C1A19875  14.351  25.018   8.753
 1296POPC   D2A19876  14.327  25.317   8.414
 1296POPC   C3A19877  14.250  25.234   7.986
 1296POPC   C4A19878  14.547  25.369   7.700
 1296POPC   C1B19879  14.741  25.346   8.715
 1296POPC   C2B19880  14.796  25.025   8.474
 1296POPC   C3B19881  14.771  25.153   8.107
 1296POPC   C4B19882  14.861  24.975   7.759
 1297POPC   NC319883  18.341  38.073   9.394
 1297POPC   PO419884  18.521  38.713   9.475
 1297POPC   GL119885  18.379  38.847   9.067
 1297POPC   GL219886  18.076  38.702   9.099
 1297POPC   C1A19887  18.384  38.695   8.621
 1297POPC   D2A19888  18.522  38.285   8.410
 1297POPC   C3A19889  18.674  38.357   7.982
 1297POPC   C4A19890  18.497  38.476   7.567
 1297POPC   C1B19891  18.127  38.305   8.832
 1297POPC   C2B19892  17.992  38.250   8.410
 1297POPC   C3B19893  18.160  38.359   8.036
 1297POPC   C4B19894  18.029  38.580   7.713
 1298POPC   NC319895  30.067   9.021   9.415
 1298POPC   PO419896  29.469   8.639   9.408
 1298POPC   GL119897  29.620   8.925   9.129
 1298POPC   GL219898  29.894   8.731   8.985
 1298POPC   C1A19899  29.739   9.220   8.819
 1298POPC   D2A19900  29.943   9.034   8.520
 1298POPC   C3A19901  29.798   9.003   8.122
 1298POPC   C4A19902  29.965   8.760   7.804
 1298POPC   C1B19903  30.329   8.817   8.836
 1298POPC   C2B19904  30.453   8.973   8.473
 1298POPC   C3B19905  30.283   9.177   8.136
 1298POPC   C4B19906  30.406   9.024   7.760
 1299POPC   NC319907  42.293  44.845   9.376
 1299POPC   PO419908  42.720  44.389   9.317
 1299POPC   GL119909  42.546  44.436   8.973
 1299POPC   GL219910  42.429  44.758   8.901
 1299POPC   C1A19911  42.320  44.337   8.616
 1299POPC   D2A19912  42.391  44.665   8.350
 1299POPC   C3A19913  42.273  44.587   7.929
 1299POPC   C4A19914  42.246  44.897   7.597
 1299POPC   C1B19915  42.610   0.111   8.785
 1299POPC   C2B19916  42.730   0.105   8.405
 1299POPC   C3B19917  42.537   0.038   8.040
 1299POPC   C4B19918  42.705   0.086   7.700
 1300POPC   NC319919  14.547  41.267   9.363
 1300POPC   PO419920  15.065  41.798   9.528
 1300POPC   GL119921  15.169  41.635   9.145
 1300POPC   GL219922  15.202  41.962   9.045
 1300POPC   C1A19923  15.060  41.367   8.767
 1300POPC   D2A19924  15.134  41.451   8.338
 1300POPC   C3A19925  14.969  41.483   7.918
 1300POPC   C4A19926  15.339  41.530   7.670
 1300POPC   C1B19927  15.074  41.876   8.667
 1300POPC   C2B19928  15.350  41.909   8.340
 1300POPC   C3B19929  15.107  41.980   7.991
 1300POPC   C4B19930  15.004  41.885   7.559
 1301POPC   NC319931   0.747  43.234   9.724
 1301POPC   PO419932   0.207  42.879   9.446
 1301POPC   GL119933   0.345  42.946   9.034
 1301POPC   GL219934   0.680  43.057   9.131
 1301POPC   C1A19935   0.195  43.041   8.597
 1301POPC   D2A19936   0.094  42.760   8.274
 1301POPC   C3A19937   0.354  42.855   7.922
 1301POPC   C4A19938   0.218  43.009   7.503
 1301POPC   C1B19939   0.675  43.151   8.673
 1301POPC   C2B19940   0.511  43.234   8.240
 1301POPC   C3B19941   0.687  43.206   7.797
 1301POPC   C4B19942   0.950  43.261   7.453
 1302POPC   NC319943  42.104  39.529   9.711
 1302POPC   PO419944  42.454  38.986   9.435
 1302POPC   GL119945  42.222  39.112   9.089
 1302POPC   GL219946  42.088  39.450   9.181
 1302POPC   C1A19947  42.286  39.196   8.656
 1302POPC   D2A19948  42.609  39.498   8.518
 1302POPC   C3A19949  42.613  39.564   8.054
 1302POPC   C4A19950  42.640  39.393   7.596
 1302POPC   C1B19951  41.944  39.546   8.759
 1302POPC   C2B19952  42.136  39.561   8.328
 1302POPC   C3B19953  42.213  39.248   8.027
 1302POPC   C4B19954  42.159  39.556   7.713
 1303POPC   NC319955  35.682  26.767   9.338
 1303POPC   PO419956  36.355  26.551   9.472
 1303POPC   GL119957  36.135  26.669   9.091
 1303POPC   GL219958  35.989  26.999   9.015
 1303POPC   C1A19959  36.298  26.792   8.666
 1303POPC   D2A19960  36.365  26.927   8.249
 1303POPC   C3A19961  36.110  26.706   7.949
 1303POPC   C4A19962  36.069  26.291   7.825
 1303POPC   C1B19963  35.813  26.669   8.702
 1303POPC   C2B19964  35.737  26.738   8.307
 1303POPC   C3B19965  35.869  27.103   8.231
 1303POPC   C4B19966  36.124  27.227   7.905
 1304POPC   NC319967  10.715  24.423   9.527
 1304POPC   PO419968  10.266  24.930   9.356
 1304POPC   GL119969  10.688  24.750   9.144
 1304POPC   GL219970  10.687  24.392   9.021
 1304POPC   C1A19971  10.844  24.784   8.735
 1304POPC   D2A19972  10.567  24.548   8.468
 1304POPC   C3A19973  10.522  24.680   8.037
 1304POPC   C4A19974  10.104  24.747   7.894
 1304POPC   C1B19975  10.367  24.175   8.767
 1304POPC   C2B19976  10.415  24.047   8.347
 1304POPC   C3B19977  10.615  24.186   7.971
 1304POPC   C4B19978  10.730  24.100   7.527
 1305POPC   NC319979  20.371  21.538   9.479
 1305POPC   PO419980  20.936  21.330   9.451
 1305POPC   GL119981  20.867  21.252   9.043
 1305POPC   GL219982  20.532  21.327   9.039
 1305POPC   C1A19983  20.858  21.389   8.602
 1305POPC   D2A19984  20.606  21.254   8.233
 1305POPC   C3A19985  20.759  21.282   7.808
 1305POPC   C4A19986  20.938  21.371   7.347
 1305POPC   C1B19987  20.272  21.245   8.676
 1305POPC   C2B19988  20.099  21.205   8.255
 1305POPC   C3B19989  20.211  21.338   7.842
 1305POPC   C4B19990  20.038  21.117   7.502
 1306POPC   NC319991  12.115   9.300   9.459
 1306POPC   PO419992  11.920   8.600   9.504
 1306POPC   GL119993  12.069   8.883   9.161
 1306POPC   GL219994  11.792   9.127   9.089
 1306POPC   C1A19995  12.271   9.023   8.762
 1306POPC   D2A19996  12.385   8.812   8.350
 1306POPC   C3A19997  12.283   9.052   7.964
 1306POPC   C4A19998  12.051   9.410   7.856
 1306POPC   C1B19999  11.754   8.839   8.722
 1306POPC   C2B20000  11.888   8.859   8.281
 1306POPC   C3B20001  11.758   8.968   7.873
 1306POPC   C4B20002  11.931   9.003   7.464
 1307POPC   NC320003  25.619   2.316   9.502
 1307POPC   PO420004  25.149   1.935   9.562
 1307POPC   GL120005  25.216   1.925   9.158
 1307POPC   GL220006  25.353   2.241   9.084
 1307POPC   C1A20007  25.146   1.767   8.768
 1307POPC   D2A20008  25.323   1.694   8.380
 1307POPC   C3A20009  25.103   1.849   8.040
 1307POPC   C4A20010  25.231   1.791   7.605
 1307POPC   C1B20011  25.480   2.373   8.685
 1307POPC   C2B20012  25.401   2.202   8.261
 1307POPC   C3B20013  25.387   2.230   7.792
 1307POPC   C4B20014  25.520   2.187   7.311
 1308POPC   NC320015  19.548   5.801   9.217
 1308POPC   PO420016  20.046   5.864   9.588
 1308POPC   GL120017  20.003   6.050   9.212
 1308POPC   GL220018  20.042   5.719   9.018
 1308POPC   C1A20019  19.910   6.157   8.796
 1308POPC   D2A20020  20.208   5.988   8.541
 1308POPC   C3A20021  20.150   5.861   8.141
 1308POPC   C4A20022  20.065   6.120   7.774
 1308POPC   C1B20023  19.759   5.712   8.639
 1308POPC   C2B20024  19.658   5.899   8.286
 1308POPC   C3B20025  19.709   5.729   7.907
 1308POPC   C4B20026  20.090   5.600   7.694
 1309POPC   NC320027  13.689  42.103   9.257
 1309POPC   PO420028  13.440  41.517   9.579
 1309POPC   GL120029  13.589  41.597   9.173
 1309POPC   GL220030  13.925  41.508   9.124
 1309POPC   C1A20031  13.451  41.514   8.753
 1309POPC   D2A20032  13.523  41.267   8.403
 1309POPC   C3A20033  13.600  41.479   8.035
 1309POPC   C4A20034  13.348  41.662   7.706
 1309POPC   C1B20035  13.913  41.745   8.737
 1309POPC   C2B20036  13.650  41.871   8.391
 1309POPC   C3B20037  13.669  41.968   7.956
 1309POPC   C4B20038  13.963  41.727   7.718
 1310POPC   NC320039  27.522   2.904   9.783
 1310POPC   PO420040  27.676   2.454   9.357
 1310POPC   GL120041  27.424   2.828   9.267
 1310POPC   GL220042  27.610   2.790   8.984
 1310POPC   C1A20043  27.147   2.877   8.874
 1310POPC   D2A20044  27.391   2.766   8.478
 1310POPC   C3A20045  27.231   2.790   8.061
 1310POPC   C4A20046  27.393   2.625   7.667
 1310POPC   C1B20047  27.915   2.967   8.759
 1310POPC   C2B20048  27.905   2.824   8.385
 1310POPC   C3B20049  27.698   2.979   8.045
 1310POPC   C4B20050  27.783   3.016   7.629
 1311POPC   NC320051  37.519  39.037   9.382
 1311POPC   PO420052  37.652  38.303   9.443
 1311POPC   GL120053  37.886  38.255   9.084
 1311POPC   GL220054  37.978  38.583   8.977
 1311POPC   C1A20055  37.830  38.100   8.697
 1311POPC   D2A20056  37.912  38.370   8.399
 1311POPC   C3A20057  37.875  38.186   8.019
 1311POPC   C4A20058  37.886  38.474   7.673
 1311POPC   C1B20059  37.539  38.531   8.826
 1311POPC   C2B20060  37.396  38.434   8.433
 1311POPC   C3B20061  37.526  38.598   8.041
 1311POPC   C4B20062  37.369  38.545   7.633
 1312POPC   NC320063   3.739  19.414   9.277
 1312POPC   PO420064   3.858  18.826   9.443
 1312POPC   GL120065   3.509  18.874   9.106
 1312POPC   GL220066   3.318  18.567   9.018
 1312POPC   C1A20067   3.365  18.985   8.686
 1312POPC   D2A20068   3.655  19.044   8.347
 1312POPC   C3A20069   3.618  19.101   7.887
 1312POPC   C4A20070   3.312  19.381   7.730
 1312POPC   C1B20071   3.408  18.475   8.588
 1312POPC   C2B20072   3.286  18.679   8.239
 1312POPC   C3B20073   3.134  18.915   7.915
 1312POPC   C4B20074   3.282  18.936   7.492
 1313POPC   NC320075  14.871   5.594   9.434
 1313POPC   PO420076  15.087   6.198   9.494
 1313POPC   GL120077  15.292   6.035   9.122
 1313POPC   GL220078  15.313   5.706   9.123
 1313POPC   C1A20079  15.179   5.928   8.682
 1313POPC   D2A20080  15.009   5.807   8.312
 1313POPC   C3A20081  15.120   6.068   7.973
 1313POPC   C4A20082  15.172   5.777   7.672
 1313POPC   C1B20083  15.433   5.460   8.796
 1313POPC   C2B20084  15.322   5.362   8.369
 1313POPC   C3B20085  15.263   5.338   7.927
 1313POPC   C4B20086  15.602   5.471   7.650
 1314POPC   NC320087  41.756  40.502   9.489
 1314POPC   PO420088  41.236  40.977   9.526
 1314POPC   GL120089  41.509  40.852   9.190
 1314POPC   GL220090  41.306  40.582   9.118
 1314POPC   C1A20091  41.765  40.920   8.791
 1314POPC   D2A20092  41.849  41.213   8.437
 1314POPC   C3A20093  41.934  41.006   8.037
 1314POPC   C4A20094  41.661  40.827   7.743
 1314POPC   C1B20095  41.295  40.738   8.715
 1314POPC   C2B20096  41.509  40.769   8.325
 1314POPC   C3B20097  41.191  40.879   8.065
 1314POPC   C4B20098  41.100  40.680   7.752
 1315POPC   NC320099  43.229   3.121   9.834
 1315POPC   PO420100  42.842   3.524   9.437
 1315POPC   GL120101  42.844   3.643   9.030
 1315POPC   GL220102  43.190   3.521   9.057
 1315POPC   C1A20103  43.026   3.717   8.630
 1315POPC   D2A20104  43.187   3.535   8.268
 1315POPC   C3A20105  42.849   3.525   7.993
 1315POPC   C4A20106  42.858   3.741   7.615
 1315POPC   C1B20107  43.331   3.280   8.690
 1315POPC   C2B20108  43.470   3.103   8.318
 1315POPC   C3B20109  43.417   3.202   7.906
 1315POPC   C4B20110  43.308   3.552   7.762
 1316POPC   NC320111  29.097   8.827   9.244
 1316POPC   PO420112  28.704   9.253   9.604
 1316POPC   GL120113  28.874   9.275   9.139
 1316POPC   GL220114  29.249   9.273   9.038
 1316POPC   C1A20115  28.830   9.140   8.692
 1316POPC   D2A20116  28.589   9.157   8.305
 1316POPC   C3A20117  28.905   9.188   8.024
 1316POPC   C4A20118  28.939   8.814   7.810
 1316POPC   C1B20119  29.328   8.975   8.650
 1316POPC   C2B20120  29.304   8.884   8.199
 1316POPC   C3B20121  29.453   8.793   7.776
 1316POPC   C4B20122  29.572   8.945   7.394
 1317POPC   NC320123  40.270  16.387   9.383
 1317POPC   PO420124  40.721  16.956   9.544
 1317POPC   GL120125  40.700  16.916   9.124
 1317POPC   GL220126  40.996  17.114   9.099
 1317POPC   C1A20127  40.534  16.773   8.708
 1317POPC   D2A20128  40.698  16.543   8.347
 1317POPC   C3A20129  40.702  16.742   7.950
 1317POPC   C4A20130  40.978  16.832   7.603
 1317POPC   C1B20131  41.025  16.929   8.698
 1317POPC   C2B20132  40.780  17.079   8.335
 1317POPC   C3B20133  40.921  17.220   7.910
 1317POPC   C4B20134  41.009  17.299   7.429
 1318POPC   NC320135  26.453   0.180   9.289
 1318POPC   PO420136  26.088   0.686   9.468
 1318POPC   GL120137  25.984   0.456   9.073
 1318POPC   GL220138  25.948   0.117   9.068
 1318POPC   C1A20139  25.823   0.467   8.625
 1318POPC   D2A20140  25.787   0.724   8.232
 1318POPC   C3A20141  26.080   0.586   7.936
 1318POPC   C4A20142  26.084   0.264   7.669
 1318POPC   C1B20143  26.192   0.088   8.688
 1318POPC   C2B20144  26.127   0.212   8.281
 1318POPC   C3B20145  25.750   0.211   8.044
 1318POPC   C4B20146  25.673  44.969   7.626
 1319POPC   NC320147  28.772  21.220   9.583
 1319POPC   PO420148  29.437  21.388   9.537
 1319POPC   GL120149  29.114  21.403   9.222
 1319POPC   GL220150  29.018  21.061   9.173
 1319POPC   C1A20151  28.988  21.409   8.794
 1319POPC   D2A20152  29.157  21.283   8.411
 1319POPC   C3A20153  29.066  21.502   8.034
 1319POPC   C4A20154  29.331  21.684   7.731
 1319POPC   C1B20155  29.337  20.971   8.834
 1319POPC   C2B20156  29.262  20.801   8.403
 1319POPC   C3B20157  29.330  21.031   7.989
 1319POPC   C4B20158  29.183  21.175   7.584
 1320POPC   NC320159  39.217  35.113   9.439
 1320POPC   PO420160  39.651  35.609   9.584
 1320POPC   GL120161  39.441  35.504   9.173
 1320POPC   GL220162  39.100  35.606   9.170
 1320POPC   C1A20163  39.335  35.268   8.761
 1320POPC   D2A20164  39.390  35.459   8.321
 1320POPC   C3A20165  39.301  35.299   7.889
 1320POPC   C4A20166  39.294  35.474   7.463
 1320POPC   C1B20167  38.920  35.574   8.750
 1320POPC   C2B20168  38.908  35.251   8.427
 1320POPC   C3B20169  38.836  35.370   8.029
 1320POPC   C4B20170  38.872  35.176   7.607
 1321POPC   NC320171  10.220  15.291   9.473
 1321POPC   PO420172  10.748  14.866   9.515
 1321POPC   GL120173  10.655  15.221   9.205
 1321POPC   GL220174  10.378  15.016   9.063
 1321POPC   C1A20175  10.558  15.389   8.760
 1321POPC   D2A20176  10.409  15.308   8.333
 1321POPC   C3A20177  10.648  15.362   7.941
 1321POPC   C4A20178  10.426  15.399   7.531
 1321POPC   C1B20179  10.721  14.780   8.832
 1321POPC   C2B20180  10.764  14.632   8.409
 1321POPC   C3B20181  10.584  14.875   8.097
 1321POPC   C4B20182  10.420  14.941   7.725
 1322POPC   NC320183  42.455  19.688   9.425
 1322POPC   PO420184  41.972  20.199   9.455
 1322POPC   GL120185  42.148  19.960   9.107
 1322POPC   GL220186  42.253  19.597   8.981
 1322POPC   C1A20187  42.200  20.025   8.683
 1322POPC   D2A20188  42.195  19.793   8.309
 1322POPC   C3A20189  42.197  20.102   8.001
 1322POPC   C4A20190  42.008  20.119   7.568
 1322POPC   C1B20191  42.633  19.766   8.769
 1322POPC   C2B20192  42.692  19.951   8.348
 1322POPC   C3B20193  42.554  19.757   7.923
 1322POPC   C4B20194  42.118  19.631   7.744
 1323POPC   NC320195  37.990  22.267   9.287
 1323POPC   PO420196  38.494  21.882   9.360
 1323POPC   GL120197  38.431  22.168   9.051
 1323POPC   GL220198  38.711  22.273   8.880
 1323POPC   C1A20199  38.246  22.243   8.634
 1323POPC   D2A20200  38.355  22.499   8.271
 1323POPC   C3A20201  38.185  22.403   7.874
 1323POPC   C4A20202  38.031  22.007   7.712
 1323POPC   C1B20203  38.559  21.847   8.680
 1323POPC   C2B20204  38.347  21.869   8.281
 1323POPC   C3B20205  38.494  21.999   7.923
 1323POPC   C4B20206  38.680  21.814   7.584
 1324POPC   NC320207  39.942  31.210   9.664
 1324POPC   PO420208  40.351  31.743   9.629
 1324POPC   GL120209  39.989  31.556   9.275
 1324POPC   GL220210  39.658  31.613   9.146
 1324POPC   C1A20211  39.978  31.668   8.755
 1324POPC   D2A20212  40.200  31.898   8.368
 1324POPC   C3A20213  40.264  31.643   7.984
 1324POPC   C4A20214  40.187  31.256   7.719
 1324POPC   C1B20215  39.502  31.474   8.725
 1324POPC   C2B20216  39.689  31.419   8.325
 1324POPC   C3B20217  39.586  31.241   7.944
 1324POPC   C4B20218  39.700  31.407   7.590
 1325POPC   NC320219  13.039   8.703   9.367
 1325POPC   PO420220  12.509   9.067   9.478
 1325POPC   GL120221  12.587   8.801   9.151
 1325POPC   GL220222  12.867   9.063   9.036
 1325POPC   C1A20223  12.685   8.698   8.748
 1325POPC   D2A20224  12.850   8.966   8.481
 1325POPC   C3A20225  12.779   8.938   8.068
 1325POPC   C4A20226  12.739   8.977   7.646
 1325POPC   C1B20227  13.214   9.187   8.723
 1325POPC   C2B20228  13.302   9.021   8.257
 1325POPC   C3B20229  13.168   9.194   7.867
 1325POPC   C4B20230  13.199   9.120   7.423
 1326POPC   NC320231  20.821   5.049   9.560
 1326POPC   PO420232  20.189   4.876   9.633
 1326POPC   GL120233  20.423   4.763   9.219
 1326POPC   GL220234  20.580   5.088   9.122
 1326POPC   C1A20235  20.509   4.750   8.745
 1326POPC   D2A20236  20.351   4.976   8.391
 1326POPC   C3A20237  20.524   5.039   7.971
 1326POPC   C4A20238  20.840   4.870   7.687
 1326POPC   C1B20239  20.765   5.212   8.747
 1326POPC   C2B20240  20.871   5.097   8.349
 1326POPC   C3B20241  21.012   5.268   7.962
 1326POPC   C4B20242  20.918   5.362   7.526
 1327POPC   NC320243  32.348  39.755   9.215
 1327POPC   PO420244  32.522  40.415   9.349
 1327POPC   GL120245  32.444  40.208   8.971
 1327POPC   GL220246  32.103  40.157   8.969
 1327POPC   C1A20247  32.354  39.897   8.597
 1327POPC   D2A20248  32.499  39.597   8.315
 1327POPC   C3A20249  32.532  39.710   7.886
 1327POPC   C4A20250  32.316  39.527   7.537
 1327POPC   C1B20251  32.222  40.367   8.537
 1327POPC   C2B20252  32.281  40.170   8.137
 1327POPC   C3B20253  32.473  40.211   7.734
 1327POPC   C4B20254  32.371  40.394   7.323
 1328POPC   NC320255  43.438  42.458   9.304
 1328POPC   PO420256  42.818  42.589   9.455
 1328POPC   GL120257  42.974  42.617   9.018
 1328POPC   GL220258  43.123  42.271   8.954
 1328POPC   C1A20259  43.054  42.554   8.545
 1328POPC   D2A20260  43.116  42.178   8.265
 1328POPC   C3A20261  42.931  42.316   7.866
 1328POPC   C4A20262  43.068  42.719   7.766
 1328POPC   C1B20263  43.517  42.352   8.669
 1328POPC   C2B20264  43.651  42.309   8.238
 1328POPC   C3B20265  43.428  42.301   7.843
 1328POPC   C4B20266  43.450  42.215   7.404
 1329POPC   NC320267  10.031  22.188   9.567
 1329POPC   PO420268   9.405  22.092   9.703
 1329POPC   GL120269   9.606  22.066   9.263
 1329POPC   GL220270   9.960  21.918   9.130
 1329POPC   C1A20271   9.663  22.290   8.874
 1329POPC   D2A20272   9.876  22.440   8.512
 1329POPC   C3A20273  10.014  22.237   8.161
 1329POPC   C4A20274   9.983  22.445   7.782
 1329POPC   C1B20275   9.891  21.879   8.668
 1329POPC   C2B20276   9.562  22.062   8.395
 1329POPC   C3B20277   9.585  22.038   7.960
 1329POPC   C4B20278   9.628  22.172   7.552
 1330POPC   NC320279   2.184  31.769   9.428
 1330POPC   PO420280   1.546  31.497   9.431
 1330POPC   GL120281   1.872  31.484   9.158
 1330POPC   GL220282   2.055  31.169   9.102
 1330POPC   C1A20283   1.853  31.762   8.808
 1330POPC   D2A20284   1.621  31.738   8.410
 1330POPC   C3A20285   1.754  31.589   7.995
 1330POPC   C4A20286   1.623  31.536   7.558
 1330POPC   C1B20287   1.796  31.263   8.725
 1330POPC   C2B20288   2.071  31.492   8.426
 1330POPC   C3B20289   2.235  31.359   8.047
 1330POPC   C4B20290   2.121  31.458   7.647
 1331POPC   NC320291  11.030   6.162   9.646
 1331POPC   PO420292  11.042   5.547   9.385
 1331POPC   GL120293  11.348   5.787   9.122
 1331POPC   GL220294  11.413   6.162   9.129
 1331POPC   C1A20295  11.420   5.843   8.683
 1331POPC   D2A20296  11.527   6.092   8.338
 1331POPC   C3A20297  11.391   5.808   8.069
 1331POPC   C4A20298  11.326   5.622   7.710
 1331POPC   C1B20299  11.102   6.232   8.763
 1331POPC   C2B20300  11.012   6.077   8.358
 1331POPC   C3B20301  11.131   6.232   7.973
 1331POPC   C4B20302  11.472   6.161   7.712
 1332POPC   NC320303  40.488   1.255   9.462
 1332POPC   PO420304  41.045   0.893   9.427
 1332POPC   GL120305  40.918   1.164   9.097
 1332POPC   GL220306  40.574   1.048   9.010
 1332POPC   C1A20307  41.007   1.449   8.730
 1332POPC   D2A20308  41.186   1.415   8.301
 1332POPC   C3A20309  40.998   1.370   7.870
 1332POPC   C4A20310  41.105   1.572   7.452
 1332POPC   C1B20311  40.782   1.004   8.614
 1332POPC   C2B20312  40.621   1.106   8.221
 1332POPC   C3B20313  40.410   0.868   7.898
 1332POPC   C4B20314  40.541   1.087   7.559
 1333POPC   NC320315  22.393  35.071   9.362
 1333POPC   PO420316  22.429  35.746   9.467
 1333POPC   GL120317  22.195  35.507   9.165
 1333POPC   GL220318  21.885  35.660   9.113
 1333POPC   C1A20319  21.996  35.250   8.815
 1333POPC   D2A20320  21.936  35.074   8.397
 1333POPC   C3A20321  22.308  34.959   8.170
 1333POPC   C4A20322  22.257  35.157   7.808
 1333POPC   C1B20323  22.049  35.750   8.713
 1333POPC   C2B20324  22.241  35.702   8.366
 1333POPC   C3B20325  22.064  35.589   7.991
 1333POPC   C4B20326  21.936  35.508   7.564
 1334POPC   NC320327  29.536  40.278   9.232
 1334POPC   PO420328  30.099  39.966   9.562
 1334POPC   GL120329  30.014  40.080   9.187
 1334POPC   GL220330  29.847  39.845   9.011
 1334POPC   C1A20331  30.178  40.241   8.820
 1334POPC   D2A20332  30.305  40.062   8.438
 1334POPC   C3A20333  29.955  39.937   8.174
 1334POPC   C4A20334  29.946  39.910   7.731
 1334POPC   C1B20335  29.734  40.041   8.649
 1334POPC   C2B20336  29.463  39.919   8.354
 1334POPC   C3B20337  29.509  39.693   8.020
 1334POPC   C4B20338  29.459  39.845   7.641
 1335POPC   NC320339  28.852  19.763   9.633
 1335POPC   PO420340  29.457  19.677   9.520
 1335POPC   GL120341  29.286  19.863   9.188
 1335POPC   GL220342  28.926  19.889   9.138
 1335POPC   C1A20343  29.285  19.782   8.760
 1335POPC   D2A20344  29.268  20.005   8.396
 1335POPC   C3A20345  29.175  19.736   8.109
 1335POPC   C4A20346  29.271  19.494   7.778
 1335POPC   C1B20347  28.922  20.156   8.768
 1335POPC   C2B20348  28.896  20.395   8.378
 1335POPC   C3B20349  28.855  20.171   7.988
 1335POPC   C4B20350  28.876  19.831   7.713
 1336POPC   NC320351  18.344   8.692   9.587
 1336POPC   PO420352  18.051   8.092   9.714
 1336POPC   GL120353  18.212   8.261   9.294
 1336POPC   GL220354  18.168   7.950   9.136
 1336POPC   C1A20355  18.251   8.298   8.802
 1336POPC   D2A20356  18.054   8.232   8.385
 1336POPC   C3A20357  18.318   8.112   8.026
 1336POPC   C4A20358  18.378   8.372   7.619
 1336POPC   C1B20359  18.044   7.752   8.752
 1336POPC   C2B20360  18.109   7.717   8.305
 1336POPC   C3B20361  17.976   7.792   7.861
 1336POPC   C4B20362  17.945   8.112   7.535
 1337POPC   NC320363  21.430   2.144   9.615
 1337POPC   PO420364  21.064   1.589   9.521
 1337POPC   GL120365  21.186   1.933   9.204
 1337POPC   GL220366  21.566   1.897   9.131
 1337POPC   C1A20367  21.283   2.003   8.747
 1337POPC   D2A20368  21.290   1.791   8.355
 1337POPC   C3A20369  21.452   2.059   8.037
 1337POPC   C4A20370  21.225   2.181   7.700
 1337POPC   C1B20371  21.660   1.665   8.701
 1337POPC   C2B20372  21.802   1.747   8.269
 1337POPC   C3B20373  21.839   1.631   7.811
 1337POPC   C4B20374  21.725   1.695   7.361
 1338POPC   NC320375  33.153  10.046   9.505
 1338POPC   PO420376  32.854   9.422   9.510
 1338POPC   GL120377  33.017   9.633   9.168
 1338POPC   GL220378  33.294   9.385   9.087
 1338POPC   C1A20379  32.829   9.904   8.824
 1338POPC   D2A20380  32.618   9.870   8.415
 1338POPC   C3A20381  32.823   9.873   8.019
 1338POPC   C4A20382  32.943  10.087   7.636
 1338POPC   C1B20383  33.349   9.735   8.782
 1338POPC   C2B20384  33.183  10.012   8.460
 1338POPC   C3B20385  33.332   9.924   8.062
 1338POPC   C4B20386  33.295   9.705   7.709
 1339POPC   NC320387  10.634  17.846   9.279
 1339POPC   PO420388  10.377  17.308   9.569
 1339POPC   GL120389  10.398  17.409   9.159
 1339POPC   GL220390  10.175  17.729   9.128
 1339POPC   C1A20391  10.769  17.349   8.826
 1339POPC   D2A20392  10.999  17.398   8.390
 1339POPC   C3A20393  10.787  17.466   7.970
 1339POPC   C4A20394  10.386  17.387   7.766
 1339POPC   C1B20395  10.354  17.612   8.704
 1339POPC   C2B20396  10.418  17.706   8.302
 1339POPC   C3B20397  10.146  17.957   8.102
 1339POPC   C4B20398  10.146  17.835   7.692
 1340POPC   NC320399  36.142  16.086   9.584
 1340POPC   PO420400  35.541  16.001   9.783
 1340POPC   GL120401  35.778  15.914   9.286
 1340POPC   GL220402  35.862  16.210   9.053
 1340POPC   C1A20403  35.962  15.762   8.862
 1340POPC   D2A20404  35.894  15.985   8.468
 1340POPC   C3A20405  36.007  15.854   8.056
 1340POPC   C4A20406  35.859  15.656   7.698
 1340POPC   C1B20407  36.215  16.287   8.734
 1340POPC   C2B20408  36.388  16.070   8.339
 1340POPC   C3B20409  36.450  16.171   7.866
 1340POPC   C4B20410  36.365  16.189   7.400
 1341POPC   NC320411  23.577  13.920   9.763
 1341POPC   PO420412  23.957  13.443   9.404
 1341POPC   GL120413  23.654  13.550   9.055
 1341POPC   GL220414  23.956  13.645   8.864
 1341POPC   C1A20415  23.545  13.889   8.729
 1341POPC   D2A20416  23.777  13.951   8.367
 1341POPC   C3A20417  23.566  13.818   8.017
 1341POPC   C4A20418  23.360  13.722   7.636
 1341POPC   C1B20419  23.992  13.272   8.675
 1341POPC   C2B20420  24.017  13.233   8.268
 1341POPC   C3B20421  24.044  13.601   8.043
 1341POPC   C4B20422  23.926  13.693   7.652
 1342POPC   NC320423   2.782  11.024   9.497
 1342POPC   PO420424   3.201  11.613   9.433
 1342POPC   GL120425   3.008  11.319   9.168
 1342POPC   GL220426   2.643  11.281   9.090
 1342POPC   C1A20427   3.045  11.176   8.778
 1342POPC   D2A20428   3.117  11.389   8.412
 1342POPC   C3A20429   2.919  11.350   8.073
 1342POPC   C4A20430   3.101  11.146   7.748
 1342POPC   C1B20431   2.387  11.022   8.835
 1342POPC   C2B20432   2.544  11.125   8.446
 1342POPC   C3B20433   2.437  11.190   8.053
 1342POPC   C4B20434   2.610  11.160   7.668
 1343POPC   NC320435  33.644  37.921   9.284
 1343POPC   PO420436  34.054  37.483   9.673
 1343POPC   GL120437  34.074  37.524   9.181
 1343POPC   GL220438  33.833  37.665   8.892
 1343POPC   C1A20439  34.150  37.277   8.796
 1343POPC   D2A20440  33.905  37.308   8.435
 1343POPC   C3A20441  34.040  37.282   8.042
 1343POPC   C4A20442  33.924  37.562   7.751
 1343POPC   C1B20443  33.662  38.076   8.666
 1343POPC   C2B20444  33.628  38.127   8.204
 1343POPC   C3B20445  33.652  38.006   7.770
 1343POPC   C4B20446  33.454  38.170   7.378
 1344POPC   NC320447  40.915  43.870   9.579
 1344POPC   PO420448  40.264  44.117   9.715
 1344POPC   GL120449  40.461  43.963   9.306
 1344POPC   GL220450  40.790  44.023   9.122
 1344POPC   C1A20451  40.398  43.898   8.840
 1344POPC   D2A20452  40.433  44.032   8.393
 1344POPC   C3A20453  40.587  43.786   8.068
 1344POPC   C4A20454  40.793  43.927   7.691
 1344POPC   C1B20455  40.912  43.685   8.819
 1344POPC   C2B20456  40.892  43.453   8.427
 1344POPC   C3B20457  41.062  43.576   8.039
 1344POPC   C4B20458  41.188  43.577   7.646
 1345POPC   NC320459  44.844  20.361   9.563
 1345POPC   PO420460  44.303  20.769   9.578
 1345POPC   GL120461  44.614  20.729   9.249
 1345POPC   GL220462  44.577  20.391   9.135
 1345POPC   C1A20463  44.541  20.713   8.777
 1345POPC   D2A20464  44.776  20.635   8.433
 1345POPC   C3A20465  44.685  20.760   8.038
 1345POPC   C4A20466  44.905  20.627   7.710
 1345POPC   C1B20467  44.560  20.191   8.753
 1345POPC   C2B20468  44.747  20.094   8.391
 1345POPC   C3B20469  44.662  20.258   8.021
 1345POPC   C4B20470  44.791  20.147   7.631
 1346POPC   NC320471   4.676   7.908   9.566
 1346POPC   PO420472   4.861   7.212   9.671
 1346POPC   GL120473   4.956   7.350   9.212
 1346POPC   GL220474   5.312   7.258   9.067
 1346POPC   C1A20475   4.879   7.225   8.775
 1346POPC   D2A20476   4.797   7.549   8.456
 1346POPC   C3A20477   4.830   7.386   8.060
 1346POPC   C4A20478   4.825   7.461   7.601
 1346POPC   C1B20479   5.211   7.618   8.796
 1346POPC   C2B20480   5.320   7.613   8.347
 1346POPC   C3B20481   5.215   7.671   7.890
 1346POPC   C4B20482   5.313   7.461   7.495
 1347POPC   NC320483  20.444   2.890   9.337
 1347POPC   PO420484  19.745   2.672   9.331
 1347POPC   GL120485  19.891   2.882   9.018
 1347POPC   GL220486  19.634   3.125   8.911
 1347POPC   C1A20487  20.065   2.870   8.624
 1347POPC   D2A20488  20.096   2.984   8.217
 1347POPC   C3A20489  19.891   2.709   7.966
 1347POPC   C4A20490  19.982   2.492   7.632
 1347POPC   C1B20491  19.515   2.711   8.729
 1347POPC   C2B20492  19.625   2.503   8.360
 1347POPC   C3B20493  19.395   2.452   7.998
 1347POPC   C4B20494  19.477   2.567   7.615
 1348POPC   NC320495  43.196  24.066   9.957
 1348POPC   PO420496  43.236  23.648   9.389
 1348POPC   GL120497  43.095  23.446   9.015
 1348POPC   GL220498  43.424  23.469   8.911
 1348POPC   C1A20499  42.861  23.546   8.659
 1348POPC   D2A20500  42.813  23.922   8.407
 1348POPC   C3A20501  42.743  23.749   8.012
 1348POPC   C4A20502  42.841  23.613   7.590
 1348POPC   C1B20503  43.249  23.866   8.752
 1348POPC   C2B20504  43.298  23.792   8.326
 1348POPC   C3B20505  43.245  23.709   7.885
 1348POPC   C4B20506  43.270  23.876   7.458
 1349POPC   NC320507   3.560  38.073   9.491
 1349POPC   PO420508   3.380  37.375   9.446
 1349POPC   GL120509   3.424  37.521   9.069
 1349POPC   GL220510   3.692  37.715   9.153
 1349POPC   C1A20511   3.597  37.463   8.672
 1349POPC   D2A20512   3.607  37.380   8.228
 1349POPC   C3A20513   3.329  37.518   7.908
 1349POPC   C4A20514   3.468  37.704   7.512
 1349POPC   C1B20515   3.797  38.019   8.841
 1349POPC   C2B20516   3.879  37.903   8.427
 1349POPC   C3B20517   3.786  37.798   8.025
 1349POPC   C4B20518   3.774  38.033   7.713
 1350POPC   NC320519   3.983   6.354   9.488
 1350POPC   PO420520   4.333   6.930   9.397
 1350POPC   GL120521   4.269   6.692   9.070
 1350POPC   GL220522   4.150   6.366   9.014
 1350POPC   C1A20523   4.404   6.667   8.660
 1350POPC   D2A20524   4.515   6.503   8.289
 1350POPC   C3A20525   4.774   6.775   8.081
 1350POPC   C4A20526   4.633   7.024   7.757
 1350POPC   C1B20527   3.912   6.570   8.734
 1350POPC   C2B20528   3.763   6.580   8.359
 1350POPC   C3B20529   4.001   6.579   8.026
 1350POPC   C4B20530   4.362   6.541   7.800
 1351POPC   NC320531  16.320  39.096   9.523
 1351POPC   PO420532  15.774  39.397   9.593
 1351POPC   GL120533  15.705  39.446   9.165
 1351POPC   GL220534  16.019  39.218   9.100
 1351POPC   C1A20535  15.728  39.366   8.710
 1351POPC   D2A20536  16.036  39.303   8.435
 1351POPC   C3A20537  16.004  39.562   8.089
 1351POPC   C4A20538  15.842  39.451   7.711
 1351POPC   C1B20539  15.908  38.895   8.781
 1351POPC   C2B20540  16.079  38.807   8.342
 1351POPC   C3B20541  15.957  38.981   7.923
 1351POPC   C4B20542  16.002  39.030   7.456
 1352POPC   NC320543  18.089  25.022   9.494
 1352POPC   PO420544  18.431  24.542   9.695
 1352POPC   GL120545  18.365  24.461   9.213
 1352POPC   GL220546  18.384  24.797   9.154
 1352POPC   C1A20547  18.186  24.256   8.780
 1352POPC   D2A20548  18.050  24.439   8.333
 1352POPC   C3A20549  18.321  24.422   7.928
 1352POPC   C4A20550  17.982  24.498   7.693
 1352POPC   C1B20551  18.356  24.728   8.732
 1352POPC   C2B20552  18.462  24.718   8.330
 1352POPC   C3B20553  18.205  24.890   7.992
 1352POPC   C4B20554  18.414  24.902   7.638
 1353POPC   NC320555   8.636  14.395   9.556
 1353POPC   PO420556   7.997  14.221   9.584
 1353POPC   GL120557   8.005  14.134   9.170
 1353POPC   GL220558   8.296  14.363   9.140
 1353POPC   C1A20559   8.022  14.261   8.728
 1353POPC   D2A20560   8.007  14.546   8.391
 1353POPC   C3A20561   8.054  14.273   8.089
 1353POPC   C4A20562   7.999  13.998   7.776
 1353POPC   C1B20563   8.383  14.627   8.744
 1353POPC   C2B20564   8.509  14.711   8.325
 1353POPC   C3B20565   8.290  14.783   7.944
 1353POPC   C4B20566   8.102  14.525   7.645
 1354POPC   NC320567  31.086  22.060   9.237
 1354POPC   PO420568  30.601  22.450   9.508
 1354POPC   GL120569  30.594  22.209   9.112
 1354POPC   GL220570  30.284  22.225   8.882
 1354POPC   C1A20571  30.753  22.177   8.687
 1354POPC   D2A20572  30.612  21.953   8.358
 1354POPC   C3A20573  30.908  21.956   8.115
 1354POPC   C4A20574  30.814  22.219   7.772
 1354POPC   C1B20575  30.214  21.814   8.654
 1354POPC   C2B20576  30.180  21.731   8.187
 1354POPC   C3B20577  30.394  21.875   7.783
 1354POPC   C4B20578  30.262  21.856   7.351
 1355POPC   NC320579  26.334  26.284   9.765
 1355POPC   PO420580  26.874  26.013   9.417
 1355POPC   GL120581  26.609  25.884   9.047
 1355POPC   GL220582  26.742  26.165   8.872
 1355POPC   C1A20583  26.520  25.817   8.591
 1355POPC   D2A20584  26.746  25.800   8.205
 1355POPC   C3A20585  26.742  26.103   7.898
 1355POPC   C4A20586  26.548  26.039   7.527
 1355POPC   C1B20587  26.856  26.239   8.470
 1355POPC   C2B20588  27.207  25.994   8.374
 1355POPC   C3B20589  27.248  26.006   7.976
 1355POPC   C4B20590  27.150  26.423   7.837
 1356POPC   NC320591  36.551  13.057   9.391
 1356POPC   PO420592  37.115  12.887   9.504
 1356POPC   GL120593  36.976  12.998   9.096
 1356POPC   GL220594  36.770  12.710   9.064
 1356POPC   C1A20595  37.093  12.836   8.683
 1356POPC   D2A20596  36.945  12.648   8.285
 1356POPC   C3A20597  37.033  12.826   7.869
 1356POPC   C4A20598  37.066  12.810   7.424
 1356POPC   C1B20599  36.577  12.885   8.704
 1356POPC   C2B20600  36.414  12.687   8.314
 1356POPC   C3B20601  36.542  12.668   7.927
 1356POPC   C4B20602  36.567  12.957   7.643
 1357POPC   NC320603   3.124  23.076   9.490
 1357POPC   PO420604   3.780  23.004   9.610
 1357POPC   GL120605   3.605  23.003   9.224
 1357POPC   GL220606   3.897  22.773   9.181
 1357POPC   C1A20607   3.384  22.954   8.828
 1357POPC   D2A20608   3.504  23.117   8.419
 1357POPC   C3A20609   3.377  22.993   8.001
 1357POPC   C4A20610   3.526  23.144   7.599
 1357POPC   C1B20611   3.913  23.011   8.806
 1357POPC   C2B20612   3.974  22.901   8.383
 1357POPC   C3B20613   3.876  22.877   7.922
 1357POPC   C4B20614   3.673  22.644   7.570
 1358POPC   NC320615  33.978  40.061   9.480
 1358POPC   PO420616  33.324  39.896   9.539
 1358POPC   GL120617  33.602  39.884   9.168
 1358POPC   GL220618  33.667  40.239   9.135
 1358POPC   C1A20619  33.831  39.867   8.743
 1358POPC   D2A20620  34.138  39.925   8.377
 1358POPC   C3A20621  34.054  39.847   7.923
 1358POPC   C4A20622  34.208  39.840   7.491
 1358POPC   C1B20623  33.605  40.323   8.740
 1358POPC   C2B20624  33.843  40.347   8.354
 1358POPC   C3B20625  33.568  40.331   8.004
 1358POPC   C4B20626  33.433  40.122   7.587
 1359POPC   NC320627  25.399   0.838   9.353
 1359POPC   PO420628  24.955   1.357   9.430
 1359POPC   GL120629  25.318   1.385   9.113
 1359POPC   GL220630  25.218   1.068   8.958
 1359POPC   C1A20631  25.517   1.337   8.677
 1359POPC   D2A20632  25.384   1.015   8.377
 1359POPC   C3A20633  25.442   1.060   7.943
 1359POPC   C4A20634  25.576   1.440   7.722
 1359POPC   C1B20635  24.965   1.286   8.703
 1359POPC   C2B20636  24.927   1.390   8.288
 1359POPC   C3B20637  25.062   1.380   7.865
 1359POPC   C4B20638  24.826   1.306   7.525
 1360POPC   NC320639  13.406  31.815   9.356
 1360POPC   PO420640  13.846  31.183   9.514
 1360POPC   GL120641  13.675  31.369   9.151
 1360POPC   GL220642  13.319  31.358   9.142
 1360POPC   C1A20643  13.656  31.429   8.699
 1360POPC   D2A20644  13.826  31.466   8.278
 1360POPC   C3A20645  13.563  31.591   7.951
 1360POPC   C4A20646  13.645  31.513   7.523
 1360POPC   C1B20647  13.162  31.550   8.731
 1360POPC   C2B20648  13.085  31.497   8.281
 1360POPC   C3B20649  13.052  31.683   7.859
 1360POPC   C4B20650  13.237  31.851   7.454
 1361POPC   NC320651   5.246   3.320   9.705
 1361POPC   PO420652   4.555   3.213   9.648
 1361POPC   GL120653   4.902   3.405   9.307
 1361POPC   GL220654   5.267   3.584   9.247
 1361POPC   C1A20655   4.883   3.638   8.925
 1361POPC   D2A20656   4.793   3.726   8.498
 1361POPC   C3A20657   5.114   3.603   8.230
 1361POPC   C4A20658   5.087   3.660   7.814
 1361POPC   C1B20659   5.288   3.951   8.898
 1361POPC   C2B20660   5.221   4.062   8.437
 1361POPC   C3B20661   5.450   3.973   8.014
 1361POPC   C4B20662   5.467   3.833   7.559
 1362POPC   NC320663   6.744  38.041   9.585
 1362POPC   PO420664   6.460  37.436   9.539
 1362POPC   GL120665   6.625  37.684   9.230
 1362POPC   GL220666   6.867  37.505   9.102
 1362POPC   C1A20667   6.553  37.836   8.823
 1362POPC   D2A20668   6.335  37.665   8.488
 1362POPC   C3A20669   6.440  37.867   8.102
 1362POPC   C4A20670   6.669  37.962   7.682
 1362POPC   C1B20671   6.760  37.353   8.739
 1362POPC   C2B20672   6.831  37.609   8.404
 1362POPC   C3B20673   6.962  37.744   8.016
 1362POPC   C4B20674   6.947  37.445   7.656
 1363POPC   NC320675  33.244  36.242   9.417
 1363POPC   PO420676  33.165  35.665   9.231
 1363POPC   GL120677  33.259  35.940   8.951
 1363POPC   GL220678  32.966  36.148   8.953
 1363POPC   C1A20679  33.345  35.954   8.530
 1363POPC   D2A20680  33.028  36.182   8.341
 1363POPC   C3A20681  32.939  36.083   7.923
 1363POPC   C4A20682  32.875  35.980   7.500
 1363POPC   C1B20683  33.283  36.431   8.746
 1363POPC   C2B20684  33.528  36.431   8.353
 1363POPC   C3B20685  33.461  36.520   7.914
 1363POPC   C4B20686  33.282  36.274   7.569
 1364POPC   NC320687  22.726  25.519   9.241
 1364POPC   PO420688  22.124  25.375   9.510
 1364POPC   GL120689  22.099  25.164   9.150
 1364POPC   GL220690  22.457  25.069   9.158
 1364POPC   C1A20691  21.940  25.120   8.757
 1364POPC   D2A20692  22.149  24.996   8.356
 1364POPC   C3A20693  22.015  25.266   8.032
 1364POPC   C4A20694  21.763  25.302   7.727
 1364POPC   C1B20695  22.507  25.068   8.748
 1364POPC   C2B20696  22.754  25.174   8.410
 1364POPC   C3B20697  22.518  25.255   8.063
 1364POPC   C4B20698  22.314  24.903   7.839
 1365POPC   NC320699  43.106  17.850   9.439
 1365POPC   PO420700  42.960  17.200   9.377
 1365POPC   GL120701  43.004  17.494   9.067
 1365POPC   GL220702  42.712  17.705   9.155
 1365POPC   C1A20703  43.016  17.377   8.622
 1365POPC   D2A20704  43.247  17.097   8.322
 1365POPC   C3A20705  43.157  17.251   7.914
 1365POPC   C4A20706  43.321  17.682   7.887
 1365POPC   C1B20707  42.783  17.936   8.785
 1365POPC   C2B20708  42.583  17.894   8.391
 1365POPC   C3B20709  42.818  17.646   8.118
 1365POPC   C4B20710  42.739  17.577   7.711
 1366POPC   NC320711  15.304  28.252   9.581
 1366POPC   PO420712  14.610  28.275   9.711
 1366POPC   GL120713  14.794  28.375   9.290
 1366POPC   GL220714  15.018  28.081   9.159
 1366POPC   C1A20715  14.888  28.478   8.843
 1366POPC   D2A20716  15.143  28.627   8.464
 1366POPC   C3A20717  14.914  28.590   8.080
 1366POPC   C4A20718  15.035  28.495   7.693
 1366POPC   C1B20719  15.015  27.937   8.695
 1366POPC   C2B20720  15.299  27.882   8.278
 1366POPC   C3B20721  15.347  28.092   7.835
 1366POPC   C4B20722  15.198  28.083   7.384
 1367POPC   NC320723  10.802  13.583   9.453
 1367POPC   PO420724  10.067  13.397   9.382
 1367POPC   GL120725  10.368  13.562   9.088
 1367POPC   GL220726  10.691  13.401   9.006
 1367POPC   C1A20727  10.534  13.727   8.689
 1367POPC   D2A20728  10.616  13.476   8.348
 1367POPC   C3A20729  10.586  13.766   8.007
 1367POPC   C4A20730  10.487  13.696   7.554
 1367POPC   C1B20731  11.025  13.447   8.693
 1367POPC   C2B20732  11.096  13.619   8.282
 1367POPC   C3B20733  10.912  13.392   7.924
 1367POPC   C4B20734  10.475  13.260   7.822
 1368POPC   NC320735  42.111  21.316   9.632
 1368POPC   PO420736  42.615  21.691   9.528
 1368POPC   GL120737  42.427  21.472   9.215
 1368POPC   GL220738  42.579  21.131   9.265
 1368POPC   C1A20739  42.282  21.606   8.794
 1368POPC   D2A20740  42.399  21.892   8.426
 1368POPC   C3A20741  42.431  21.700   8.024
 1368POPC   C4A20742  42.115  21.719   7.748
 1368POPC   C1B20743  42.280  21.059   8.908
 1368POPC   C2B20744  42.175  21.174   8.486
 1368POPC   C3B20745  42.392  21.118   8.090
 1368POPC   C4B20746  42.270  21.246   7.688
 1369POPC   NC320747  10.826  40.653   9.403
 1369POPC   PO420748  11.306  40.963   9.713
 1369POPC   GL120749  11.381  40.948   9.231
 1369POPC   GL220750  11.070  40.898   9.042
 1369POPC   C1A20751  11.473  40.982   8.751
 1369POPC   D2A20752  11.172  40.999   8.367
 1369POPC   C3A20753  11.355  40.911   7.936
 1369POPC   C4A20754  11.744  40.675   7.844
 1369POPC   C1B20755  10.953  40.543   8.747
 1369POPC   C2B20756  11.139  40.386   8.388
 1369POPC   C3B20757  11.176  40.406   7.965
 1369POPC   C4B20758  10.897  40.330   7.653
 1370POPC   NC320759  42.485  22.636   9.445
 1370POPC   PO420760  42.572  23.268   9.364
 1370POPC   GL120761  42.302  22.988   9.146
 1370POPC   GL220762  41.997  22.954   9.330
 1370POPC   C1A20763  42.283  22.755   8.797
 1370POPC   D2A20764  42.278  22.960   8.430
 1370POPC   C3A20765  42.331  22.789   8.037
 1370POPC   C4A20766  42.373  22.805   7.584
 1370POPC   C1B20767  41.838  23.033   8.891
 1370POPC   C2B20768  41.809  23.195   8.465
 1370POPC   C3B20769  42.049  23.244   8.082
 1370POPC   C4B20770  41.915  23.335   7.670
 1371POPC   NC320771  10.210  31.053   9.827
 1371POPC   PO420772  10.700  30.636   9.553
 1371POPC   GL120773  10.621  30.557   9.169
 1371POPC   GL220774  10.944  30.654   9.087
 1371POPC   C1A20775  10.619  30.397   8.772
 1371POPC   D2A20776  10.353  30.456   8.455
 1371POPC   C3A20777  10.571  30.319   8.086
 1371POPC   C4A20778  10.562  30.484   7.696
 1371POPC   C1B20779  11.067  30.741   8.677
 1371POPC   C2B20780  10.791  30.698   8.375
 1371POPC   C3B20781  10.788  30.798   8.001
 1371POPC   C4B20782  10.850  30.910   7.609
 1372POPC   NC320783  11.131  36.475   9.472
 1372POPC   PO420784  11.255  37.173   9.337
 1372POPC   GL120785  11.280  36.803   9.123
 1372POPC   GL220786  11.622  36.658   9.165
 1372POPC   C1A20787  11.017  36.765   8.778
 1372POPC   D2A20788  11.214  36.788   8.384
 1372POPC   C3A20789  11.098  37.016   8.022
 1372POPC   C4A20790  11.084  36.638   7.798
 1372POPC   C1B20791  11.611  36.909   8.766
 1372POPC   C2B20792  11.669  37.004   8.350
 1372POPC   C3B20793  11.586  36.791   7.967
 1372POPC   C4B20794  11.413  36.969   7.599
 1373POPC   NC320795  16.477  38.118   9.546
 1373POPC   PO420796  17.126  38.388   9.640
 1373POPC   GL120797  16.852  38.585   9.287
 1373POPC   GL220798  16.610  38.404   9.148
 1373POPC   C1A20799  16.854  38.732   8.813
 1373POPC   D2A20800  16.973  38.639   8.378
 1373POPC   C3A20801  16.748  38.831   8.044
 1373POPC   C4A20802  16.405  38.810   7.742
 1373POPC   C1B20803  16.688  38.266   8.745
 1373POPC   C2B20804  16.544  38.351   8.339
 1373POPC   C3B20805  16.677  38.332   7.932
 1373POPC   C4B20806  16.575  38.245   7.530
 1374POPC   NC320807  33.457  35.429   9.509
 1374POPC   PO420808  34.059  35.226   9.190
 1374POPC   GL120809  33.763  35.236   8.921
 1374POPC   GL220810  33.620  35.560   9.028
 1374POPC   C1A20811  33.781  35.107   8.485
 1374POPC   D2A20812  33.453  34.962   8.229
 1374POPC   C3A20813  33.495  35.303   7.955
 1374POPC   C4A20814  33.713  35.623   7.684
 1374POPC   C1B20815  33.924  35.690   8.755
 1374POPC   C2B20816  34.137  35.535   8.438
 1374POPC   C3B20817  34.020  35.322   8.067
 1374POPC   C4B20818  34.249  35.380   7.723
 1375POPC   NC320819  13.134  13.389   9.465
 1375POPC   PO420820  12.613  13.856   9.449
 1375POPC   GL120821  12.846  13.684   9.127
 1375POPC   GL220822  13.209  13.788   9.107
 1375POPC   C1A20823  12.751  13.832   8.724
 1375POPC   D2A20824  12.428  13.685   8.456
 1375POPC   C3A20825  12.619  13.814   8.103
 1375POPC   C4A20826  12.811  13.548   7.806
 1375POPC   C1B20827  13.166  13.514   8.736
 1375POPC   C2B20828  13.071  13.622   8.291
 1375POPC   C3B20829  13.248  13.761   7.882
 1375POPC   C4B20830  13.288  13.433   7.568
 1376POPC   NC320831  27.826  30.850   9.509
 1376POPC   PO420832  28.429  30.619   9.538
 1376POPC   GL120833  28.459  30.669   9.094
 1376POPC   GL220834  28.447  30.340   9.093
 1376POPC   C1A20835  28.267  30.779   8.691
 1376POPC   D2A20836  28.159  30.624   8.276
 1376POPC   C3A20837  28.358  30.862   7.903
 1376POPC   C4A20838  28.141  31.219   7.654
 1376POPC   C1B20839  28.256  30.281   8.711
 1376POPC   C2B20840  28.412  30.160   8.347
 1376POPC   C3B20841  28.442  30.333   7.969
 1376POPC   C4B20842  28.172  30.375   7.665
 1377POPC   NC320843  29.419  43.603   9.596
 1377POPC   PO420844  29.218  42.958   9.628
 1377POPC   GL120845  29.232  43.128   9.230
 1377POPC   GL220846  29.011  43.370   9.186
 1377POPC   C1A20847  29.287  42.952   8.825
 1377POPC   D2A20848  29.429  43.019   8.425
 1377POPC   C3A20849  29.209  43.178   8.045
 1377POPC   C4A20850  29.283  43.132   7.584
 1377POPC   C1B20851  28.829  43.147   8.875
 1377POPC   C2B20852  28.907  43.026   8.458
 1377POPC   C3B20853  28.814  42.843   8.053
 1377POPC   C4B20854  28.785  43.138   7.741
 1378POPC   NC320855  42.157  32.460   9.412
 1378POPC   PO420856  42.781  32.265   9.611
 1378POPC   GL120857  42.601  32.342   9.178
 1378POPC   GL220858  42.398  32.043   9.051
 1378POPC   C1A20859  42.395  32.453   8.761
 1378POPC   D2A20860  42.208  32.289   8.372
 1378POPC   C3A20861  42.488  32.374   8.048
 1378POPC   C4A20862  42.443  32.611   7.689
 1378POPC   C1B20863  42.066  31.931   8.714
 1378POPC   C2B20864  41.788  31.936   8.334
 1378POPC   C3B20865  41.846  32.172   7.973
 1378POPC   C4B20866  42.176  32.184   7.683
 1379POPC   NC320867  41.995  25.812   9.533
 1379POPC   PO420868  42.461  26.244   9.631
 1379POPC   GL120869  42.332  26.068   9.252
 1379POPC   GL220870  41.978  26.137   9.136
 1379POPC   C1A20871  42.415  25.803   8.923
 1379POPC   D2A20872  42.445  25.990   8.493
 1379POPC   C3A20873  42.581  25.905   8.106
 1379POPC   C4A20874  42.467  25.870   7.694
 1379POPC   C1B20875  41.987  25.974   8.725
 1379POPC   C2B20876  41.933  26.095   8.334
 1379POPC   C3B20877  42.150  26.171   7.976
 1379POPC   C4B20878  42.027  26.111   7.546
 1380POPC   NC320879  20.793  20.890   9.433
 1380POPC   PO420880  20.495  20.250   9.485
 1380POPC   GL120881  20.373  20.472   9.107
 1380POPC   GL220882  20.457  20.821   9.057
 1380POPC   C1A20883  20.555  20.426   8.735
 1380POPC   D2A20884  20.909  20.237   8.519
 1380POPC   C3A20885  20.695  20.147   8.140
 1380POPC   C4A20886  20.704  20.129   7.715
 1380POPC   C1B20887  20.636  20.911   8.654
 1380POPC   C2B20888  20.362  20.780   8.307
 1380POPC   C3B20889  20.350  20.836   7.873
 1380POPC   C4B20890  20.744  20.666   7.922
 1381POPC   NC320891  26.375  40.497   9.464
 1381POPC   PO420892  25.731  40.721   9.380
 1381POPC   GL120893  25.984  40.691   9.065
 1381POPC   GL220894  26.256  40.899   9.136
 1381POPC   C1A20895  25.869  40.655   8.642
 1381POPC   D2A20896  25.923  40.459   8.257
 1381POPC   C3A20897  26.053  40.700   7.921
 1381POPC   C4A20898  26.117  40.533   7.511
 1381POPC   C1B20899  26.123  41.084   8.739
 1381POPC   C2B20900  25.942  41.096   8.311
 1381POPC   C3B20901  25.963  41.265   7.885
 1381POPC   C4B20902  26.196  41.103   7.541
 1382POPC   NC320903  28.914  25.349   9.465
 1382POPC   PO420904  28.288  25.308   9.434
 1382POPC   GL120905  28.411  25.161   9.064
 1382POPC   GL220906  28.627  24.869   9.043
 1382POPC   C1A20907  28.345  25.353   8.656
 1382POPC   D2A20908  28.517  25.567   8.285
 1382POPC   C3A20909  28.255  25.647   7.902
 1382POPC   C4A20910  28.175  25.346   7.552
 1382POPC   C1B20911  28.404  24.825   8.673
 1382POPC   C2B20912  28.408  25.020   8.240
 1382POPC   C3B20913  28.398  24.909   7.794
 1382POPC   C4B20914  28.657  24.661   7.492
 1383POPC   NC320915   2.115  19.122   9.572
 1383POPC   PO420916   2.402  19.561   9.191
 1383POPC   GL120917   2.275  19.096   9.067
 1383POPC   GL220918   1.949  18.888   9.130
 1383POPC   C1A20919   2.192  18.818   8.674
 1383POPC   D2A20920   2.206  18.759   8.198
 1383POPC   C3A20921   2.101  19.131   7.959
 1383POPC   C4A20922   2.368  19.447   7.792
 1383POPC   C1B20923   1.588  18.935   8.808
 1383POPC   C2B20924   1.327  18.970   8.423
 1383POPC   C3B20925   1.415  18.793   8.005
 1383POPC   C4B20926   1.829  18.692   7.845
 1384POPC   NC320927   1.464  19.638   9.361
 1384POPC   PO420928   0.963  20.158   9.560
 1384POPC   GL120929   1.116  19.982   9.198
 1384POPC   GL220930   0.964  19.619   9.211
 1384POPC   C1A20931   1.235  20.134   8.773
 1384POPC   D2A20932   1.138  19.941   8.355
 1384POPC   C3A20933   1.112  20.083   7.915
 1384POPC   C4A20934   1.233  19.676   7.716
 1384POPC   C1B20935   0.899  19.745   8.796
 1384POPC   C2B20936   0.669  19.760   8.436
 1384POPC   C3B20937   0.817  19.682   8.032
 1384POPC   C4B20938   0.757  19.614   7.608
 1385POPC   NC320939   5.155  35.794   9.659
 1385POPC   PO420940   5.166  36.452   9.518
 1385POPC   GL120941   4.993  36.170   9.198
 1385POPC   GL220942   4.849  36.519   9.119
 1385POPC   C1A20943   5.114  35.918   8.799
 1385POPC   D2A20944   5.427  35.867   8.471
 1385POPC   C3A20945   5.269  36.045   8.101
 1385POPC   C4A20946   5.018  35.900   7.801
 1385POPC   C1B20947   4.898  36.376   8.740
 1385POPC   C2B20948   5.032  36.408   8.356
 1385POPC   C3B20949   4.828  36.356   7.985
 1385POPC   C4B20950   4.780  36.634   7.646
 1386POPC   NC320951  27.436  21.450   9.526
 1386POPC   PO420952  27.991  21.044   9.548
 1386POPC   GL120953  27.719  21.224   9.163
 1386POPC   GL220954  27.355  21.211   9.095
 1386POPC   C1A20955  27.745  21.387   8.729
 1386POPC   D2A20956  28.128  21.493   8.460
 1386POPC   C3A20957  28.029  21.677   8.060
 1386POPC   C4A20958  27.645  21.682   7.813
 1386POPC   C1B20959  27.211  21.204   8.691
 1386POPC   C2B20960  27.461  21.089   8.326
 1386POPC   C3B20961  27.565  21.176   7.886
 1386POPC   C4B20962  27.274  21.413   7.587
 1387POPC   NC320963   4.066  43.210   9.458
 1387POPC   PO420964   4.551  42.758   9.368
 1387POPC   GL120965   4.399  43.025   9.079
 1387POPC   GL220966   4.328  43.388   9.076
 1387POPC   C1A20967   4.552  43.113   8.677
 1387POPC   D2A20968   4.831  42.977   8.353
 1387POPC   C3A20969   4.638  43.123   7.975
 1387POPC   C4A20970   4.319  42.854   7.845
 1387POPC   C1B20971   4.013  43.170   8.785
 1387POPC   C2B20972   4.135  43.067   8.356
 1387POPC   C3B20973   4.044  43.258   7.981
 1387POPC   C4B20974   4.036  43.148   7.550
 1388POPC   NC320975  23.126  19.962   9.540
 1388POPC   PO420976  22.695  19.545   9.387
 1388POPC   GL120977  22.959  19.589   9.049
 1388POPC   GL220978  23.012  19.953   9.031
 1388POPC   C1A20979  22.858  19.555   8.609
 1388POPC   D2A20980  22.749  19.292   8.231
 1388POPC   C3A20981  22.908  19.521   7.865
 1388POPC   C4A20982  22.632  19.839   7.801
 1388POPC   C1B20983  23.307  20.165   8.739
 1388POPC   C2B20984  23.351  20.064   8.275
 1388POPC   C3B20985  23.091  20.043   7.860
 1388POPC   C4B20986  23.141  20.142   7.378
 1389POPC   NC320987   1.007  40.359   9.416
 1389POPC   PO420988   1.504  40.720   9.326
 1389POPC   GL120989   1.183  40.692   9.081
 1389POPC   GL220990   0.962  40.889   9.269
 1389POPC   C1A20991   1.210  40.732   8.682
 1389POPC   D2A20992   1.097  40.581   8.341
 1389POPC   C3A20993   1.264  40.882   8.114
 1389POPC   C4A20994   1.461  40.882   7.782
 1389POPC   C1B20995   0.782  40.959   8.840
 1389POPC   C2B20996   0.889  41.084   8.414
 1389POPC   C3B20997   0.781  40.891   7.998
 1389POPC   C4B20998   0.934  40.847   7.572
 1390POPC   NC320999   7.239  34.898   9.465
 1390POPC   PO421000   7.805  34.513   9.322
 1390POPC   GL121001   7.534  34.272   9.057
 1390POPC   GL221002   7.218  34.423   9.110
 1390POPC   C1A21003   7.657  34.260   8.638
 1390POPC   D2A21004   7.865  34.481   8.310
 1390POPC   C3A21005   7.556  34.582   8.026
 1390POPC   C4A21006   7.296  34.485   7.689
 1390POPC   C1B21007   7.349  34.737   8.825
 1390POPC   C2B21008   7.253  34.813   8.421
 1390POPC   C3B21009   7.043  34.692   8.061
 1390POPC   C4B21010   7.060  34.917   7.632
 1391POPC   NC321011  20.141  20.567   9.537
 1391POPC   PO421012  19.582  20.936   9.515
 1391POPC   GL121013  19.903  20.798   9.167
 1391POPC   GL221014  19.847  20.459   9.104
 1391POPC   C1A21015  20.080  20.739   8.740
 1391POPC   D2A21016  19.839  20.739   8.356
 1391POPC   C3A21017  19.849  20.713   7.920
 1391POPC   C4A21018  19.585  20.651   7.555
 1391POPC   C1B21019  19.709  20.373   8.679
 1391POPC   C2B21020  19.660  20.263   8.233
 1391POPC   C3B21021  19.391  20.227   7.866
 1391POPC   C4B21022  19.354  19.900   7.539
 1392POPC   NC321023  20.867  23.876   9.588
 1392POPC   PO421024  20.354  23.519   9.493
 1392POPC   GL121025  20.615  23.588   9.157
 1392POPC   GL221026  20.973  23.560   9.185
 1392POPC   C1A21027  20.695  23.345   8.789
 1392POPC   D2A21028  20.660  23.230   8.364
 1392POPC   C3A21029  20.595  23.602   8.174
 1392POPC   C4A21030  20.471  23.755   7.760
 1392POPC   C1B21031  21.145  23.633   8.778
 1392POPC   C2B21032  21.081  23.533   8.331
 1392POPC   C3B21033  20.985  23.581   7.863
 1392POPC   C4B21034  20.757  23.483   7.445
 1393POPC   NC321035   4.345  13.219   9.512
 1393POPC   PO421036   4.456  12.525   9.541
 1393POPC   GL121037   4.334  12.801   9.186
 1393POPC   GL221038   4.051  13.018   9.152
 1393POPC   C1A21039   4.190  12.755   8.736
 1393POPC   D2A21040   4.273  12.428   8.417
 1393POPC   C3A21041   4.331  12.644   8.038
 1393POPC   C4A21042   4.125  12.736   7.675
 1393POPC   C1B21043   3.850  13.147   8.747
 1393POPC   C2B21044   3.854  13.250   8.352
 1393POPC   C3B21045   4.165  13.187   8.109
 1393POPC   C4B21046   4.109  13.225   7.732
 1394POPC   NC321047  12.006  26.453   9.646
 1394POPC   PO421048  12.303  27.028   9.578
 1394POPC   GL121049  12.186  27.109   9.169
 1394POPC   GL221050  11.966  26.800   9.220
 1394POPC   C1A21051  12.307  26.975   8.749
 1394POPC   D2A21052  12.222  26.822   8.342
 1394POPC   C3A21053  12.334  26.967   7.900
 1394POPC   C4A21054  12.040  27.023   7.511
 1394POPC   C1B21055  11.763  26.999   8.873
 1394POPC   C2B21056  11.708  26.893   8.449
 1394POPC   C3B21057  11.839  26.875   8.028
 1394POPC   C4B21058  11.628  26.789   7.671
 1395POPC   NC321059  35.277  17.233   9.805
 1395POPC   PO421060  34.689  17.629   9.613
 1395POPC   GL121061  34.604  17.391   9.240
 1395POPC   GL221062  34.932  17.217   9.188
 1395POPC   C1A21063  34.372  17.389   8.821
 1395POPC   D2A21064  34.548  17.339   8.403
 1395POPC   C3A21065  34.385  17.482   8.017
 1395POPC   C4A21066  34.485  17.365   7.655
 1395POPC   C1B21067  34.891  17.505   8.838
 1395POPC   C2B21068  35.009  17.604   8.431
 1395POPC   C3B21069  34.878  17.549   8.032
 1395POPC   C4B21070  35.002  17.346   7.660
 1396POPC   NC321071  27.929  25.061   9.294
 1396POPC   PO421072  27.342  25.361   9.463
 1396POPC   GL121073  27.457  25.379   9.057
 1396POPC   GL221074  27.451  25.046   9.022
 1396POPC   C1A21075  27.689  25.554   8.690
 1396POPC   D2A21076  27.973  25.551   8.318
 1396POPC   C3A21077  27.795  25.354   7.917
 1396POPC   C4A21078  27.403  25.144   7.802
 1396POPC   C1B21079  27.152  25.058   8.686
 1396POPC   C2B21080  27.286  24.940   8.257
 1396POPC   C3B21081  27.718  24.837   8.047
 1396POPC   C4B21082  27.910  24.898   7.616
 1397POPC   NC321083  44.871  27.651   9.632
 1397POPC   PO421084  44.743  28.313   9.635
 1397POPC   GL121085  44.775  28.290   9.172
 1397POPC   GL221086  44.838  28.633   9.051
 1397POPC   C1A21087  44.554  28.336   8.763
 1397POPC   D2A21088  44.688  28.263   8.353
 1397POPC   C3A21089  44.461  28.187   7.975
 1397POPC   C4A21090  44.587  28.208   7.526
 1397POPC   C1B21091  44.822  28.779   8.605
 1397POPC   C2B21092  44.691  28.752   8.147
 1397POPC   C3B21093  44.777  28.645   7.703
 1397POPC   C4B21094  44.862  28.664   7.223
 1398POPC   NC321095  27.704   7.125   9.628
 1398POPC   PO421096  27.697   7.807   9.777
 1398POPC   GL121097  27.700   7.590   9.359
 1398POPC   GL221098  27.988   7.331   9.266
 1398POPC   C1A21099  27.379   7.551   9.016
 1398POPC   D2A21100  27.364   7.629   8.563
 1398POPC   C3A21101  27.443   7.544   8.141
 1398POPC   C4A21102  27.571   7.566   7.730
 1398POPC   C1B21103  27.830   7.416   8.860
 1398POPC   C2B21104  27.740   7.263   8.469
 1398POPC   C3B21105  27.919   7.370   8.100
 1398POPC   C4B21106  27.972   7.223   7.720
 1399POPC   NC321107   2.214   3.193   9.503
 1399POPC   PO421108   1.869   3.787   9.427
 1399POPC   GL121109   2.129   3.700   9.107
 1399POPC   GL221110   1.949   3.370   9.106
 1399POPC   C1A21111   2.343   3.476   8.778
 1399POPC   D2A21112   2.280   3.247   8.389
 1399POPC   C3A21113   2.136   3.480   8.069
 1399POPC   C4A21114   2.033   3.554   7.655
 1399POPC   C1B21115   1.695   3.350   8.759
 1399POPC   C2B21116   1.747   3.244   8.370
 1399POPC   C3B21117   1.798   3.074   7.987
 1399POPC   C4B21118   1.688   3.176   7.592
 1400POPC   NC321119   2.214  37.294   9.570
 1400POPC   PO421120   2.096  38.051   9.645
 1400POPC   GL121121   2.084  37.863   9.213
 1400POPC   GL221122   1.784  37.685   9.148
 1400POPC   C1A21123   2.128  37.710   8.769
 1400POPC   D2A21124   1.960  37.554   8.375
 1400POPC   C3A21125   1.920  37.804   8.016
 1400POPC   C4A21126   2.273  37.898   7.786
 1400POPC   C1B21127   1.664  37.430   8.793
 1400POPC   C2B21128   1.556  37.222   8.421
 1400POPC   C3B21129   1.605  37.365   8.008
 1400POPC   C4B21130   1.694  37.394   7.576
 1401POPC   NC321131  29.561   8.176   9.435
 1401POPC   PO421132  30.130   8.226   9.596
 1401POPC   GL121133  30.026   8.167   9.171
 1401POPC   GL221134  29.921   7.815   9.176
 1401POPC   C1A21135  30.166   8.330   8.757
 1401POPC   D2A21136  30.071   8.574   8.391
 1401POPC   C3A21137  29.726   8.446   8.128
 1401POPC   C4A21138  29.952   8.250   7.787
 1401POPC   C1B21139  29.741   8.014   8.781
 1401POPC   C2B21140  29.941   8.039   8.382
 1401POPC   C3B21141  29.964   7.814   8.014
 1401POPC   C4B21142  29.975   7.751   7.610
 1402POPC   NC321143  32.334  43.920   9.367
 1402POPC   PO421144  31.812  43.489   9.359
 1402POPC   GL121145  32.096  43.518   9.023
 1402POPC   GL221146  32.198  43.845   8.895
 1402POPC   C1A21147  32.376  43.444   8.650
 1402POPC   D2A21148  32.485  43.834   8.424
 1402POPC   C3A21149  32.511  43.768   7.979
 1402POPC   C4A21150  32.250  43.659   7.659
 1402POPC   C1B21151  32.002  44.155   8.655
 1402POPC   C2B21152  31.869  44.111   8.223
 1402POPC   C3B21153  32.148  44.161   7.872
 1402POPC   C4B21154  32.468  44.197   7.552
 1403POPC   NC321155  12.933   7.672   9.391
 1403POPC   PO421156  12.809   8.306   9.331
 1403POPC   GL121157  12.517   8.281   8.979
 1403POPC   GL221158  12.502   7.966   9.017
 1403POPC   C1A21159  12.547   8.275   8.515
 1403POPC   D2A21160  12.882   8.470   8.279
 1403POPC   C3A21161  13.139   8.199   8.003
 1403POPC   C4A21162  13.171   8.244   7.543
 1403POPC   C1B21163  12.815   7.905   8.745
 1403POPC   C2B21164  12.671   7.815   8.337
 1403POPC   C3B21165  12.644   8.047   8.013
 1403POPC   C4B21166  12.379   8.136   7.704
 1404POPC   NC321167  33.140  33.694   9.637
 1404POPC   PO421168  32.498  33.636   9.542
 1404POPC   GL121169  32.759  33.849   9.251
 1404POPC   GL221170  32.887  33.597   9.061
 1404POPC   C1A21171  32.911  34.028   8.828
 1404POPC   D2A21172  33.223  33.980   8.503
 1404POPC   C3A21173  33.056  33.873   8.130
 1404POPC   C4A21174  32.942  34.085   7.801
 1404POPC   C1B21175  33.063  33.506   8.680
 1404POPC   C2B21176  33.298  33.466   8.323
 1404POPC   C3B21177  33.202  33.433   7.908
 1404POPC   C4B21178  33.256  33.740   7.615
 1405POPC   NC321179  15.850  30.693   9.551
 1405POPC   PO421180  16.307  31.069   9.527
 1405POPC   GL121181  16.027  31.086   9.178
 1405POPC   GL221182  15.674  31.094   9.273
 1405POPC   C1A21183  16.122  30.945   8.767
 1405POPC   D2A21184  16.017  30.612   8.472
 1405POPC   C3A21185  16.110  30.580   8.024
 1405POPC   C4A21186  15.985  30.209   7.757
 1405POPC   C1B21187  15.657  30.766   8.904
 1405POPC   C2B21188  15.519  30.678   8.449
 1405POPC   C3B21189  15.617  30.476   8.085
 1405POPC   C4B21190  15.494  30.407   7.680
 1406POPC   NC321191  38.379  16.191   9.457
 1406POPC   PO421192  38.387  15.571   9.568
 1406POPC   GL121193  38.224  15.773   9.168
 1406POPC   GL221194  38.501  15.922   9.039
 1406POPC   C1A21195  38.122  15.887   8.721
 1406POPC   D2A21196  38.395  15.943   8.338
 1406POPC   C3A21197  38.293  15.859   7.875
 1406POPC   C4A21198  38.293  16.043   7.439
 1406POPC   C1B21199  38.787  16.155   8.797
 1406POPC   C2B21200  38.758  16.343   8.411
 1406POPC   C3B21201  38.697  16.208   8.007
 1406POPC   C4B21202  38.746  16.425   7.640
 1407POPC   NC321203  30.858  30.154   9.572
 1407POPC   PO421204  31.137  29.482   9.485
 1407POPC   GL121205  30.931  29.774   9.149
 1407POPC   GL221206  30.714  30.091   9.093
 1407POPC   C1A21207  30.720  29.732   8.735
 1407POPC   D2A21208  30.383  29.730   8.417
 1407POPC   C3A21209  30.553  29.772   7.970
 1407POPC   C4A21210  30.791  29.495   7.738
 1407POPC   C1B21211  30.454  30.165   8.720
 1407POPC   C2B21212  30.685  30.315   8.407
 1407POPC   C3B21213  30.810  30.195   8.038
 1407POPC   C4B21214  30.743  30.274   7.643
 1408POPC   NC321215  44.867  12.402   9.516
 1408POPC   PO421216  44.760  13.052   9.617
 1408POPC   GL121217  44.461  12.932   9.248
 1408POPC   GL221218  44.648  12.687   9.103
 1408POPC   C1A21219  44.435  13.086   8.790
 1408POPC   D2A21220  44.640  12.936   8.388
 1408POPC   C3A21221  44.449  12.997   7.971
 1408POPC   C4A21222  44.479  12.761   7.536
 1408POPC   C1B21223  44.749  12.390   8.742
 1408POPC   C2B21224  44.839  12.450   8.329
 1408POPC   C3B21225  44.668  12.530   7.954
 1408POPC   C4B21226  44.963  12.513   7.629
 1409POPC   NC321227   5.055   8.575   9.444
 1409POPC   PO421228   5.167   7.851   9.453
 1409POPC   GL121229   4.994   8.075   9.149
 1409POPC   GL221230   5.284   8.257   9.082
 1409POPC   C1A21231   4.842   8.006   8.728
 1409POPC   D2A21232   5.036   8.034   8.311
 1409POPC   C3A21233   4.887   8.300   7.996
 1409POPC   C4A21234   4.755   7.911   7.811
 1409POPC   C1B21235   5.391   8.096   8.683
 1409POPC   C2B21236   5.498   8.257   8.257
 1409POPC   C3B21237   5.339   8.163   7.857
 1409POPC   C4B21238   5.120   8.041   7.472
 1410POPC   NC321239  32.948  18.784   9.452
 1410POPC   PO421240  33.049  18.125   9.733
 1410POPC   GL121241  33.113  18.182   9.260
 1410POPC   GL221242  33.340  18.472   9.193
 1410POPC   C1A21243  32.962  18.122   8.812
 1410POPC   D2A21244  32.632  18.087   8.469
 1410POPC   C3A21245  32.763  17.989   8.041
 1410POPC   C4A21246  32.623  18.197   7.672
 1410POPC   C1B21247  33.143  18.598   8.818
 1410POPC   C2B21248  32.916  18.523   8.438
 1410POPC   C3B21249  32.985  18.588   7.993
 1410POPC   C4B21250  33.118  18.245   7.727
 1411POPC   NC321251  33.709  33.487   9.480
 1411POPC   PO421252  33.373  34.104   9.661
 1411POPC   GL121253  33.506  33.896   9.226
 1411POPC   GL221254  33.902  33.824   9.139
 1411POPC   C1A21255  33.542  33.688   8.789
 1411POPC   D2A21256  33.764  33.649   8.369
 1411POPC   C3A21257  33.578  33.889   8.007
 1411POPC   C4A21258  33.836  34.209   7.778
 1411POPC   C1B21259  34.012  33.445   8.815
 1411POPC   C2B21260  34.172  33.278   8.384
 1411POPC   C3B21261  34.013  33.217   7.926
 1411POPC   C4B21262  33.681  33.442   7.759
 1412POPC   NC321263  16.752  38.651   9.821
 1412POPC   PO421264  16.768  39.256   9.513
 1412POPC   GL121265  16.709  39.148   9.103
 1412POPC   GL221266  16.472  38.890   9.100
 1412POPC   C1A21267  16.967  39.219   8.730
 1412POPC   D2A21268  17.096  39.132   8.312
 1412POPC   C3A21269  16.898  39.339   8.002
 1412POPC   C4A21270  16.784  39.156   7.644
 1412POPC   C1B21271  16.397  39.043   8.723
 1412POPC   C2B21272  16.583  39.194   8.399
 1412POPC   C3B21273  16.391  39.204   8.058
 1412POPC   C4B21274  16.324  39.349   7.666
 1413POPC   NC321275  17.859   2.727   9.381
 1413POPC   PO421276  17.130   2.681   9.451
 1413POPC   GL121277  17.253   2.690   9.043
 1413POPC   GL221278  17.550   2.512   9.047
 1413POPC   C1A21279  17.430   2.893   8.689
 1413POPC   D2A21280  17.319   3.179   8.349
 1413POPC   C3A21281  17.408   2.989   7.952
 1413POPC   C4A21282  17.254   3.012   7.517
 1413POPC   C1B21283  17.431   2.334   8.684
 1413POPC   C2B21284  17.435   2.577   8.296
 1413POPC   C3B21285  17.769   2.608   8.004
 1413POPC   C4B21286  17.515   2.544   7.661
 1414POPC   NC321287  42.689   5.674   9.500
 1414POPC   PO421288  43.374   5.958   9.536
 1414POPC   GL121289  43.276   5.927   9.118
 1414POPC   GL221290  42.974   6.125   9.088
 1414POPC   C1A21291  43.289   5.713   8.729
 1414POPC   D2A21292  43.431   5.472   8.374
 1414POPC   C3A21293  43.210   5.511   7.979
 1414POPC   C4A21294  43.235   5.566   7.531
 1414POPC   C1B21295  43.230   6.235   8.696
 1414POPC   C2B21296  43.399   6.101   8.287
 1414POPC   C3B21297  43.161   6.021   7.897
 1414POPC   C4B21298  42.980   6.241   7.581
 1415POPC   NC321299   6.088  11.292   9.553
 1415POPC   PO421300   5.439  11.216   9.379
 1415POPC   GL121301   5.819  11.171   9.100
 1415POPC   GL221302   6.071  11.450   9.076
 1415POPC   C1A21303   6.112  11.088   8.734
 1415POPC   D2A21304   6.135  10.867   8.361
 1415POPC   C3A21305   6.164  11.087   7.981
 1415POPC   C4A21306   5.851  11.226   7.688
 1415POPC   C1B21307   5.827  11.526   8.714
 1415POPC   C2B21308   5.991  11.438   8.326
 1415POPC   C3B21309   6.092  11.592   7.963
 1415POPC   C4B21310   6.031  11.700   7.555
 1416POPC   NC321311  41.893  37.581   9.544
 1416POPC   PO421312  42.568  37.508   9.719
 1416POPC   GL121313  42.389  37.651   9.282
 1416POPC   GL221314  42.091  37.488   9.097
 1416POPC   C1A21315  42.445  37.743   8.845
 1416POPC   D2A21316  42.494  37.720   8.403
 1416POPC   C3A21317  42.421  37.812   7.971
 1416POPC   C4A21318  42.547  37.686   7.562
 1416POPC   C1B21319  42.125  37.359   8.669
 1416POPC   C2B21320  42.011  37.546   8.285
 1416POPC   C3B21321  42.081  37.425   7.876
 1416POPC   C4B21322  42.019  37.596   7.463
 1417POPC   NC321323  43.936   3.912   9.410
 1417POPC   PO421324  43.569   3.367   9.611
 1417POPC   GL121325  43.685   3.518   9.201
 1417POPC   GL221326  43.975   3.309   9.132
 1417POPC   C1A21327  43.557   3.789   8.835
 1417POPC   D2A21328  43.678   3.588   8.460
 1417POPC   C3A21329  43.666   3.733   8.066
 1417POPC   C4A21330  43.895   3.529   7.758
 1417POPC   C1B21331  44.049   3.659   8.834
 1417POPC   C2B21332  44.262   3.788   8.481
 1417POPC   C3B21333  44.193   3.891   8.047
 1417POPC   C4B21334  44.102   3.978   7.627
 1418POPC   NC321335  32.188   8.551   9.438
 1418POPC   PO421336  32.299   7.865   9.471
 1418POPC   GL121337  32.096   8.129   9.170
 1418POPC   GL221338  32.360   8.319   9.006
 1418POPC   C1A21339  31.954   8.126   8.748
 1418POPC   D2A21340  32.201   8.242   8.392
 1418POPC   C3A21341  31.983   8.114   8.049
 1418POPC   C4A21342  32.042   8.191   7.614
 1418POPC   C1B21343  32.576   8.512   8.672
 1418POPC   C2B21344  32.530   8.651   8.254
 1418POPC   C3B21345  32.444   8.384   7.892
 1418POPC   C4B21346  32.488   8.326   7.433
 1419POPC   NC321347  42.451  26.697   9.628
 1419POPC   PO421348  41.942  27.018   9.269
 1419POPC   GL121349  42.163  26.866   8.990
 1419POPC   GL221350  42.225  26.575   9.197
 1419POPC   C1A21351  42.144  26.945   8.552
 1419POPC   D2A21352  42.503  26.934   8.293
 1419POPC   C3A21353  42.410  26.965   7.881
 1419POPC   C4A21354  42.387  26.851   7.452
 1419POPC   C1B21355  42.384  26.373   8.833
 1419POPC   C2B21356  42.302  26.467   8.388
 1419POPC   C3B21357  42.542  26.493   8.015
 1419POPC   C4B21358  42.480  26.365   7.610
 1420POPC   NC321359  44.875   0.772   9.482
 1420POPC   PO421360  44.451   0.172   9.598
 1420POPC   GL121361  44.530   0.241   9.182
 1420POPC   GL221362  44.792   0.452   9.073
 1420POPC   C1A21363  44.486   0.161   8.744
 1420POPC   D2A21364  44.720   0.292   8.370
 1420POPC   C3A21365  44.539   0.377   7.969
 1420POPC   C4A21366  44.352   0.045   7.709
 1420POPC   C1B21367  44.967   0.604   8.686
 1420POPC   C2B21368  44.911   0.766   8.231
 1420POPC   C3B21369  44.900   0.688   7.739
 1420POPC   C4B21370  44.960   0.653   7.262
 1421POPC   NC321371  35.340  24.799   9.817
 1421POPC   PO421372  35.310  25.453   9.619
 1421POPC   GL121373  35.389  25.380   9.166
 1421POPC   GL221374  35.416  25.012   9.163
 1421POPC   C1A21375  35.560  25.557   8.760
 1421POPC   D2A21376  35.561  25.769   8.350
 1421POPC   C3A21377  35.506  25.455   8.022
 1421POPC   C4A21378  35.159  25.317   7.780
 1421POPC   C1B21379  35.343  25.094   8.725
 1421POPC   C2B21380  35.438  25.015   8.305
 1421POPC   C3B21381  35.278  24.836   7.940
 1421POPC   C4B21382  35.215  24.849   7.488
 1422POPC   NC321383  19.996  34.580   9.541
 1422POPC   PO421384  19.334  34.528   9.522
 1422POPC   GL121385  19.618  34.452   9.207
 1422POPC   GL221386  19.707  34.795   9.151
 1422POPC   C1A21387  19.561  34.451   8.773
 1422POPC   D2A21388  19.519  34.190   8.441
 1422POPC   C3A21389  19.652  34.377   8.043
 1422POPC   C4A21390  19.613  34.285   7.604
 1422POPC   C1B21391  19.873  34.877   8.729
 1422POPC   C2B21392  20.000  34.885   8.289
 1422POPC   C3B21393  19.841  34.835   7.853
 1422POPC   C4B21394  20.039  34.879   7.445
 1423POPC   NC321395   5.683  38.634   9.487
 1423POPC   PO421396   6.321  38.268   9.522
 1423POPC   GL121397   6.057  38.398   9.218
 1423POPC   GL221398   5.775  38.145   9.232
 1423POPC   C1A21399   6.064  38.701   8.884
 1423POPC   D2A21400   5.945  38.628   8.460
 1423POPC   C3A21401   6.104  38.722   8.085
 1423POPC   C4A21402   6.002  38.568   7.713
 1423POPC   C1B21403   5.711  38.347   8.832
 1423POPC   C2B21404   5.611  38.255   8.405
 1423POPC   C3B21405   5.583  38.428   7.985
 1423POPC   C4B21406   5.504  38.318   7.557
 1424POPC   NC321407  22.333  28.031   9.488
 1424POPC   PO421408  21.736  27.593   9.530
 1424POPC   GL121409  21.934  27.716   9.084
 1424POPC   GL221410  22.304  27.794   9.041
 1424POPC   C1A21411  22.071  27.578   8.612
 1424POPC   D2A21412  22.262  27.337   8.237
 1424POPC   C3A21413  22.055  27.427   7.865
 1424POPC   C4A21414  21.729  27.765   7.829
 1424POPC   C1B21415  22.491  27.861   8.635
 1424POPC   C2B21416  22.355  27.848   8.204
 1424POPC   C3B21417  22.414  27.761   7.780
 1424POPC   C4B21418  22.612  27.899   7.376
 1425POPC   NC321419  38.832  22.322   9.379
 1425POPC   PO421420  39.221  21.857   9.653
 1425POPC   GL121421  39.320  21.947   9.227
 1425POPC   GL221422  38.984  21.900   9.130
 1425POPC   C1A21423  39.550  22.059   8.841
 1425POPC   D2A21424  39.399  22.234   8.448
 1425POPC   C3A21425  39.545  22.254   8.076
 1425POPC   C4A21426  39.425  22.073   7.704
 1425POPC   C1B21427  39.054  21.946   8.681
 1425POPC   C2B21428  38.997  21.949   8.223
 1425POPC   C3B21429  38.953  22.186   7.845
 1425POPC   C4B21430  38.680  22.530   7.824
 1426POPC   NC321431  16.435   4.469   9.538
 1426POPC   PO421432  15.743   4.536   9.564
 1426POPC   GL121433  16.049   4.488   9.182
 1426POPC   GL221434  15.809   4.279   8.974
 1426POPC   C1A21435  16.229   4.415   8.751
 1426POPC   D2A21436  15.974   4.136   8.511
 1426POPC   C3A21437  16.109   4.175   8.142
 1426POPC   C4A21438  15.978   4.219   7.724
 1426POPC   C1B21439  15.629   3.884   8.820
 1426POPC   C2B21440  15.476   3.872   8.416
 1426POPC   C3B21441  15.667   3.934   8.019
 1426POPC   C4B21442  15.527   4.040   7.609
 1427POPC   NC321443   9.579  14.724   9.504
 1427POPC   PO421444   9.754  15.332   9.552
 1427POPC   GL121445   9.737  15.101   9.164
 1427POPC   GL221446   9.436  14.896   9.037
 1427POPC   C1A21447   9.663  15.270   8.769
 1427POPC   D2A21448   9.870  15.280   8.410
 1427POPC   C3A21449   9.679  15.290   8.037
 1427POPC   C4A21450   9.988  15.232   7.739
 1427POPC   C1B21451   9.702  14.785   8.653
 1427POPC   C2B21452   9.708  14.804   8.174
 1427POPC   C3B21453   9.712  14.806   7.697
 1427POPC   C4B21454   9.545  14.721   7.255
 1428POPC   NC321455  23.434  32.491   9.293
 1428POPC   PO421456  23.770  31.984   9.401
 1428POPC   GL121457  23.654  32.073   9.022
 1428POPC   GL221458  23.992  32.039   8.926
 1428POPC   C1A21459  23.357  32.138   8.697
 1428POPC   D2A21460  23.248  32.079   8.269
 1428POPC   C3A21461  23.560  32.239   7.995
 1428POPC   C4A21462  23.596  32.626   7.735
 1428POPC   C1B21463  24.020  32.442   8.760
 1428POPC   C2B21464  23.858  32.466   8.362
 1428POPC   C3B21465  24.005  32.478   7.970
 1428POPC   C4B21466  23.995  32.159   7.674
 1429POPC   NC321467  32.199  34.020   9.553
 1429POPC   PO421468  32.425  34.624   9.680
 1429POPC   GL121469  32.473  34.612   9.196
 1429POPC   GL221470  32.283  34.886   9.026
 1429POPC   C1A21471  32.354  34.472   8.746
 1429POPC   D2A21472  32.075  34.493   8.370
 1429POPC   C3A21473  32.101  34.214   8.010
 1429POPC   C4A21474  32.070  34.356   7.580
 1429POPC   C1B21475  32.529  34.969   8.658
 1429POPC   C2B21476  32.487  34.782   8.266
 1429POPC   C3B21477  32.201  34.751   7.902
 1429POPC   C4B21478  32.438  34.748   7.513
 1430POPC   NC321479  35.246  18.364  10.222
 1430POPC   PO421480  35.535  17.898   9.712
 1430POPC   GL121481  35.418  18.094   9.262
 1430POPC   GL221482  35.664  18.367   9.199
 1430POPC   C1A21483  35.109  18.305   8.944
 1430POPC   D2A21484  34.906  18.270   8.523
 1430POPC   C3A21485  35.152  18.428   8.172
 1430POPC   C4A21486  35.082  18.403   7.733
 1430POPC   C1B21487  35.579  18.293   8.738
 1430POPC   C2B21488  35.682  18.366   8.260
 1430POPC   C3B21489  35.589  18.341   7.803
 1430POPC   C4B21490  35.461  18.596   7.447
 1431POPC   NC321491   3.929  31.742   9.648
 1431POPC   PO421492   4.000  32.360   9.266
 1431POPC   GL121493   3.703  32.252   8.947
 1431POPC   GL221494   3.345  32.250   9.081
 1431POPC   C1A21495   3.863  32.092   8.556
 1431POPC   D2A21496   3.589  32.187   8.264
 1431POPC   C3A21497   3.413  31.923   7.984
 1431POPC   C4A21498   3.665  32.205   7.743
 1431POPC   C1B21499   3.048  32.282   8.728
 1431POPC   C2B21500   3.092  32.244   8.288
 1431POPC   C3B21501   3.184  32.361   7.865
 1431POPC   C4B21502   3.251  32.115   7.484
 1432POPC   NC321503  18.616  34.715   9.582
 1432POPC   PO421504  18.159  34.318   9.614
 1432POPC   GL121505  18.256  34.636   9.227
 1432POPC   GL221506  18.567  34.856   9.117
 1432POPC   C1A21507  18.166  34.715   8.782
 1432POPC   D2A21508  17.884  34.610   8.430
 1432POPC   C3A21509  18.165  34.573   8.072
 1432POPC   C4A21510  18.096  34.723   7.661
 1432POPC   C1B21511  18.769  34.763   8.763
 1432POPC   C2B21512  18.611  34.605   8.405
 1432POPC   C3B21513  18.783  34.604   8.036
 1432POPC   C4B21514  18.585  34.631   7.695
 1433POPC   NC321515  18.402  16.130   9.505
 1433POPC   PO421516  18.009  15.563   9.336
 1433POPC   GL121517  18.431  15.732   9.067
 1433POPC   GL221518  18.460  16.106   9.007
 1433POPC   C1A21519  18.609  15.815   8.625
 1433POPC   D2A21520  18.423  16.091   8.298
 1433POPC   C3A21521  18.385  15.940   7.870
 1433POPC   C4A21522  18.116  16.079   7.496
 1433POPC   C1B21523  18.681  16.349   8.684
 1433POPC   C2B21524  18.641  16.570   8.281
 1433POPC   C3B21525  18.750  16.406   7.904
 1433POPC   C4B21526  18.573  16.284   7.537
 1434POPC   NC321527  44.306   4.841   9.420
 1434POPC   PO421528  44.880   5.226   9.472
 1434POPC   GL121529  44.743   5.013   9.106
 1434POPC   GL221530  44.727   4.665   9.160
 1434POPC   C1A21531  44.558   4.935   8.681
 1434POPC   D2A21532  44.335   5.224   8.392
 1434POPC   C3A21533  44.460   5.333   7.992
 1434POPC   C4A21534  44.857   5.235   7.824
 1434POPC   C1B21535  44.850   4.515   8.748
 1434POPC   C2B21536  44.783   4.499   8.323
 1434POPC   C3B21537  44.605   4.840   8.125
 1434POPC   C4B21538  44.423   4.888   7.734
 1435POPC   NC321539  17.564  43.434   9.641
 1435POPC   PO421540  17.330  42.875   9.587
 1435POPC   GL121541  17.492  43.120   9.226
 1435POPC   GL221542  17.330  43.421   9.168
 1435POPC   C1A21543  17.401  43.105   8.755
 1435POPC   D2A21544  17.616  42.927   8.388
 1435POPC   C3A21545  17.530  42.780   7.955
 1435POPC   C4A21546  17.637  42.988   7.534
 1435POPC   C1B21547  17.742  43.447   8.913
 1435POPC   C2B21548  17.864  43.409   8.442
 1435POPC   C3B21549  17.749  43.248   8.001
 1435POPC   C4B21550  17.308  43.232   7.836
 1436POPC   NC321551  10.256  11.082   9.430
 1436POPC   PO421552  10.825  11.555   9.510
 1436POPC   GL121553  10.566  11.426   9.167
 1436POPC   GL221554  10.216  11.476   9.107
 1436POPC   C1A21555  10.553  11.213   8.773
 1436POPC   D2A21556  10.396  11.403   8.390
 1436POPC   C3A21557  10.725  11.379   8.106
 1436POPC   C4A21558  10.797  11.243   7.707
 1436POPC   C1B21559  10.053  11.144   8.823
 1436POPC   C2B21560  10.123  10.962   8.414
 1436POPC   C3B21561  10.300  11.068   7.999
 1436POPC   C4B21562  10.337  11.481   7.759
 1437POPC   NC321563  26.732   7.081   9.859
 1437POPC   PO421564  26.611   6.627   9.398
 1437POPC   GL121565  26.774   6.576   8.998
 1437POPC   GL221566  27.042   6.337   9.042
 1437POPC   C1A21567  27.018   6.761   8.683
 1437POPC   D2A21568  27.171   6.658   8.276
 1437POPC   C3A21569  26.941   6.903   8.024
 1437POPC   C4A21570  26.715   6.762   7.687
 1437POPC   C1B21571  27.293   6.304   8.664
 1437POPC   C2B21572  27.207   6.153   8.255
 1437POPC   C3B21573  27.123   6.230   7.847
 1437POPC   C4B21574  27.259   6.640   7.727
 1438POPC   NC321575  26.765  18.524   9.511
 1438POPC   PO421576  27.026  19.225   9.468
 1438POPC   GL121577  26.820  19.098   9.097
 1438POPC   GL221578  26.800  18.751   9.083
 1438POPC   C1A21579  26.751  18.977   8.637
 1438POPC   D2A21580  26.925  19.120   8.236
 1438POPC   C3A21581  26.645  19.312   7.909
 1438POPC   C4A21582  26.405  19.006   7.690
 1438POPC   C1B21583  27.094  18.596   8.816
 1438POPC   C2B21584  27.083  18.582   8.398
 1438POPC   C3B21585  27.096  18.572   7.963
 1438POPC   C4B21586  26.915  18.905   7.718
 1439POPC   NC321587  36.632   8.431   9.610
 1439POPC   PO421588  36.888   7.842   9.574
 1439POPC   GL121589  36.731   8.070   9.216
 1439POPC   GL221590  36.917   8.349   9.214
 1439POPC   C1A21591  36.625   8.165   8.793
 1439POPC   D2A21592  36.852   8.149   8.413
 1439POPC   C3A21593  36.688   8.085   7.990
 1439POPC   C4A21594  36.941   8.262   7.643
 1439POPC   C1B21595  36.893   8.609   8.858
 1439POPC   C2B21596  36.786   8.666   8.436
 1439POPC   C3B21597  36.982   8.516   8.077
 1439POPC   C4B21598  37.333   8.605   7.767
 1440POPC   NC321599  38.371  31.506   9.584
 1440POPC   PO421600  38.551  30.942   9.707
 1440POPC   GL121601  38.460  31.160   9.217
 1440POPC   GL221602  38.178  31.359   9.141
 1440POPC   C1A21603  38.502  31.365   8.771
 1440POPC   D2A21604  38.524  31.653   8.455
 1440POPC   C3A21605  38.777  31.504   8.132
 1440POPC   C4A21606  38.487  31.345   7.864
 1440POPC   C1B21607  38.074  31.638   8.767
 1440POPC   C2B21608  38.044  31.878   8.393
 1440POPC   C3B21609  38.134  31.681   8.022
 1440POPC   C4B21610  38.055  31.510   7.614
 1441POPC   NC321611  12.115  32.673   9.407
 1441POPC   PO421612  12.026  31.991   9.466
 1441POPC   GL121613  12.137  32.218   9.089
 1441POPC   GL221614  12.484  32.178   8.963
 1441POPC   C1A21615  11.897  32.153   8.699
 1441POPC   D2A21616  11.804  31.908   8.303
 1441POPC   C3A21617  11.904  32.172   7.948
 1441POPC   C4A21618  12.068  32.404   7.618
 1441POPC   C1B21619  12.314  32.495   8.674
 1441POPC   C2B21620  12.249  32.420   8.246
 1441POPC   C3B21621  12.516  32.469   7.899
 1441POPC   C4B21622  12.531  32.476   7.485
 1442POPC   NC321623  36.894  40.245   9.651
 1442POPC   PO421624  36.501  39.739   9.381
 1442POPC   GL121625  36.670  39.923   9.033
 1442POPC   GL221626  37.003  40.076   9.138
 1442POPC   C1A21627  36.721  40.262   8.773
 1442POPC   D2A21628  37.016  40.206   8.508
 1442POPC   C3A21629  36.890  40.169   8.133
 1442POPC   C4A21630  36.947  40.208   7.747
 1442POPC   C1B21631  37.276  39.825   8.793
 1442POPC   C2B21632  37.375  39.718   8.333
 1442POPC   C3B21633  37.196  39.789   7.913
 1442POPC   C4B21634  37.247  39.608   7.473
 1443POPC   NC321635  20.306  23.063   9.433
 1443POPC   PO421636  20.964  22.835   9.486
 1443POPC   GL121637  20.690  22.879   9.118
 1443POPC   GL221638  20.401  22.620   9.153
 1443POPC   C1A21639  20.679  22.805   8.665
 1443POPC   D2A21640  20.886  22.776   8.252
 1443POPC   C3A21641  20.667  22.974   7.906
 1443POPC   C4A21642  20.317  23.297   7.891
 1443POPC   C1B21643  20.179  22.633   8.743
 1443POPC   C2B21644  20.245  22.863   8.347
 1443POPC   C3B21645  20.169  22.820   7.913
 1443POPC   C4B21646  20.253  22.536   7.614
 1444POPC   NC321647  40.737  27.863   9.579
 1444POPC   PO421648  40.490  27.419   9.198
 1444POPC   GL121649  40.845  27.675   9.041
 1444POPC   GL221650  40.904  28.018   9.131
 1444POPC   C1A21651  41.020  27.574   8.633
 1444POPC   D2A21652  41.165  27.675   8.204
 1444POPC   C3A21653  40.934  27.484   7.872
 1444POPC   C4A21654  40.550  27.192   7.873
 1444POPC   C1B21655  40.995  28.074   8.719
 1444POPC   C2B21656  40.773  28.029   8.363
 1444POPC   C3B21657  40.672  27.918   7.980
 1444POPC   C4B21658  41.049  27.986   7.816
 1445POPC   NC321659  19.461   3.062   9.394
 1445POPC   PO421660  18.931   2.693   9.453
 1445POPC   GL121661  19.126   2.636   9.113
 1445POPC   GL221662  19.132   2.967   9.012
 1445POPC   C1A21663  18.950   2.615   8.727
 1445POPC   D2A21664  19.133   2.611   8.397
 1445POPC   C3A21665  18.867   2.466   8.110
 1445POPC   C4A21666  18.989   2.726   7.780
 1445POPC   C1B21667  19.193   3.099   8.603
 1445POPC   C2B21668  19.548   3.053   8.324
 1445POPC   C3B21669  19.453   2.969   7.909
 1445POPC   C4B21670  19.315   3.010   7.462
 1446POPC   NC321671  21.532  43.524   9.366
 1446POPC   PO421672  21.757  42.838   9.323
 1446POPC   GL121673  21.425  42.855   9.033
 1446POPC   GL221674  21.233  43.141   9.073
 1446POPC   C1A21675  21.331  42.861   8.612
 1446POPC   D2A21676  21.388  43.070   8.238
 1446POPC   C3A21677  21.326  42.886   7.850
 1446POPC   C4A21678  21.538  42.890   7.485
 1446POPC   C1B21679  21.387  43.371   8.705
 1446POPC   C2B21680  21.189  43.543   8.312
 1446POPC   C3B21681  21.082  43.350   7.899
 1446POPC   C4B21682  21.300  43.339   7.480
 1447POPC   NC321683   3.875  40.703   9.614
 1447POPC   PO421684   3.240  40.670   9.517
 1447POPC   GL121685   3.235  40.851   9.093
 1447POPC   GL221686   3.585  40.841   9.160
 1447POPC   C1A21687   3.274  40.706   8.662
 1447POPC   D2A21688   3.547  40.445   8.367
 1447POPC   C3A21689   3.479  40.543   7.903
 1447POPC   C4A21690   3.505  40.566   7.416
 1447POPC   C1B21691   3.810  40.634   8.814
 1447POPC   C2B21692   4.010  40.830   8.471
 1447POPC   C3B21693   3.923  40.715   8.055
 1447POPC   C4B21694   3.821  40.878   7.633
 1448POPC   NC321695  44.203  22.775   9.397
 1448POPC   PO421696  43.533  23.020   9.421
 1448POPC   GL121697  43.679  22.941   9.028
 1448POPC   GL221698  44.028  23.049   8.996
 1448POPC   C1A21699  43.678  23.149   8.609
 1448POPC   D2A21700  43.601  23.359   8.199
 1448POPC   C3A21701  43.850  23.074   7.922
 1448POPC   C4A21702  43.863  22.653   7.725
 1448POPC   C1B21703  44.021  22.663   8.734
 1448POPC   C2B21704  44.061  22.505   8.302
 1448POPC   C3B21705  44.279  22.713   8.003
 1448POPC   C4B21706  44.348  23.116   7.783
 1449POPC   NC321707  17.196   4.791   9.554
 1449POPC   PO421708  17.654   5.182   9.588
 1449POPC   GL121709  17.553   5.184   9.118
 1449POPC   GL221710  17.244   5.004   9.083
 1449POPC   C1A21711  17.443   5.223   8.650
 1449POPC   D2A21712  17.624   5.079   8.258
 1449POPC   C3A21713  17.639   5.320   7.870
 1449POPC   C4A21714  17.642   5.028   7.530
 1449POPC   C1B21715  17.204   4.771   8.694
 1449POPC   C2B21716  17.089   4.935   8.302
 1449POPC   C3B21717  17.269   4.919   7.912
 1449POPC   C4B21718  17.221   4.733   7.553
 1450POPC   NC321719  35.356   2.665   9.488
 1450POPC   PO421720  34.934   3.195   9.246
 1450POPC   GL121721  35.278   3.069   8.991
 1450POPC   GL221722  35.541   2.884   9.087
 1450POPC   C1A21723  35.305   2.975   8.602
 1450POPC   D2A21724  35.030   3.041   8.298
 1450POPC   C3A21725  35.286   3.020   7.938
 1450POPC   C4A21726  35.390   2.631   7.751
 1450POPC   C1B21727  35.356   2.528   8.852
 1450POPC   C2B21728  35.317   2.473   8.401
 1450POPC   C3B21729  35.625   2.328   8.085
 1450POPC   C4B21730  35.811   2.334   7.672
 1451POPC   NC321731  23.445  11.057   9.591
 1451POPC   PO421732  23.821  11.717   9.675
 1451POPC   GL121733  23.590  11.518   9.308
 1451POPC   GL221734  23.799  11.239   9.252
 1451POPC   C1A21735  23.515  11.503   8.836
 1451POPC   D2A21736  23.668  11.341   8.435
 1451POPC   C3A21737  23.431  11.257   8.056
 1451POPC   C4A21738  23.440  11.246   7.625
 1451POPC   C1B21739  23.855  11.078   8.858
 1451POPC   C2B21740  24.102  11.036   8.539
 1451POPC   C3B21741  24.079  11.210   8.128
 1451POPC   C4B21742  23.956  11.180   7.707
 1452POPC   NC321743   0.443  37.349   9.449
 1452POPC   PO421744   0.873  36.838   9.479
 1452POPC   GL121745   0.623  36.944   9.137
 1452POPC   GL221746   0.805  36.941   8.855
 1452POPC   C1A21747   0.243  36.988   8.885
 1452POPC   D2A21748   0.097  36.824   8.484
 1452POPC   C3A21749   0.263  36.902   8.045
 1452POPC   C4A21750   0.368  36.815   7.595
 1452POPC   C1B21751   0.558  36.630   8.695
 1452POPC   C2B21752   0.432  36.480   8.312
 1452POPC   C3B21753   0.638  36.511   7.932
 1452POPC   C4B21754   0.952  36.673   7.669
 1453POPC   NC321755  23.215   2.194   9.455
 1453POPC   PO421756  22.530   2.130   9.554
 1453POPC   GL121757  22.783   2.197   9.161
 1453POPC   GL221758  22.929   1.858   9.144
 1453POPC   C1A21759  22.907   2.091   8.714
 1453POPC   D2A21760  23.078   2.108   8.332
 1453POPC   C3A21761  22.835   1.876   8.066
 1453POPC   C4A21762  22.969   1.983   7.651
 1453POPC   C1B21763  23.254   1.729   8.803
 1453POPC   C2B21764  23.493   1.812   8.412
 1453POPC   C3B21765  23.312   1.729   7.996
 1453POPC   C4B21766  23.363   1.647   7.556
 1454POPC   NC321767  18.611   9.403   9.513
 1454POPC   PO421768  18.077   9.069   9.504
 1454POPC   GL121769  18.426   9.019   9.194
 1454POPC   GL221770  18.548   8.667   9.110
 1454POPC   C1A21771  18.639   9.087   8.797
 1454POPC   D2A21772  18.470   9.019   8.367
 1454POPC   C3A21773  18.465   9.093   7.911
 1454POPC   C4A21774  18.605   8.818   7.562
 1454POPC   C1B21775  18.208   8.799   8.791
 1454POPC   C2B21776  18.022   8.759   8.379
 1454POPC   C3B21777  17.973   8.971   7.983
 1454POPC   C4B21778  18.099   8.826   7.587
 1455POPC   NC321779  15.424  40.633   9.328
 1455POPC   PO421780  14.826  40.839   9.372
 1455POPC   GL121781  15.076  40.891   9.027
 1455POPC   GL221782  15.296  41.139   9.146
 1455POPC   C1A21783  15.173  40.622   8.676
 1455POPC   D2A21784  15.513  40.492   8.408
 1455POPC   C3A21785  15.515  40.627   8.011
 1455POPC   C4A21786  15.107  40.632   7.867
 1455POPC   C1B21787  15.519  41.106   8.770
 1455POPC   C2B21788  15.367  40.992   8.379
 1455POPC   C3B21789  15.332  41.110   7.971
 1455POPC   C4B21790  15.069  41.080   7.619
 1456POPC   NC321791  11.632  43.384   9.737
 1456POPC   PO421792  11.379  42.770   9.541
 1456POPC   GL121793  11.479  42.847   9.115
 1456POPC   GL221794  11.115  42.887   9.012
 1456POPC   C1A21795  11.557  42.791   8.668
 1456POPC   D2A21796  11.778  42.930   8.307
 1456POPC   C3A21797  11.512  42.790   7.981
 1456POPC   C4A21798  11.154  42.923   7.772
 1456POPC   C1B21799  11.127  43.049   8.595
 1456POPC   C2B21800  11.480  43.320   8.500
 1456POPC   C3B21801  11.679  43.442   8.112
 1456POPC   C4B21802  11.498  43.300   7.696
 1457POPC   NC321803  20.972  11.165   9.258
 1457POPC   PO421804  20.423  11.256   9.649
 1457POPC   GL121805  20.449  11.274   9.215
 1457POPC   GL221806  20.645  11.568   9.235
 1457POPC   C1A21807  20.431  11.086   8.794
 1457POPC   D2A21808  20.240  10.978   8.375
 1457POPC   C3A21809  20.481  11.133   8.006
 1457POPC   C4A21810  20.366  11.375   7.649
 1457POPC   C1B21811  20.541  11.641   8.804
 1457POPC   C2B21812  20.427  11.512   8.379
 1457POPC   C3B21813  20.600  11.654   7.989
 1457POPC   C4B21814  20.706  11.740   7.548
 1458POPC   NC321815  18.438  25.779   9.518
 1458POPC   PO421816  17.859  26.147   9.524
 1458POPC   GL121817  17.870  25.895   9.113
 1458POPC   GL221818  17.793  26.226   9.014
 1458POPC   C1A21819  18.174  25.646   8.754
 1458POPC   D2A21820  18.467  25.704   8.360
 1458POPC   C3A21821  18.280  25.851   7.943
 1458POPC   C4A21822  18.349  26.258   7.731
 1458POPC   C1B21823  18.016  26.124   8.666
 1458POPC   C2B21824  17.938  25.923   8.325
 1458POPC   C3B21825  17.875  26.167   7.985
 1458POPC   C4B21826  17.873  26.047   7.613
 1459POPC   NC321827   2.542  30.165   9.535
 1459POPC   PO421828   3.037  29.730   9.508
 1459POPC   GL121829   2.880  29.966   9.179
 1459POPC   GL221830   2.532  29.897   9.085
 1459POPC   C1A21831   2.916  29.858   8.768
 1459POPC   D2A21832   2.625  29.826   8.452
 1459POPC   C3A21833   2.725  29.999   8.079
 1459POPC   C4A21834   2.648  29.918   7.704
 1459POPC   C1B21835   2.516  30.241   8.745
 1459POPC   C2B21836   2.585  30.424   8.318
 1459POPC   C3B21837   2.358  30.347   7.907
 1459POPC   C4B21838   1.990  30.303   7.638
 1460POPC   NC321839  34.043  20.153   9.522
 1460POPC   PO421840  33.466  19.840   9.701
 1460POPC   GL121841  33.649  19.867   9.235
 1460POPC   GL221842  33.914  20.030   9.058
 1460POPC   C1A21843  33.507  19.992   8.783
 1460POPC   D2A21844  33.765  19.985   8.414
 1460POPC   C3A21845  33.630  20.119   8.027
 1460POPC   C4A21846  33.873  20.086   7.651
 1460POPC   C1B21847  33.885  19.654   8.788
 1460POPC   C2B21848  34.058  19.534   8.393
 1460POPC   C3B21849  34.033  19.730   7.999
 1460POPC   C4B21850  33.956  19.594   7.561
 1461POPC   NC321851  25.235  15.845   9.487
 1461POPC   PO421852  24.890  16.427   9.563
 1461POPC   GL121853  25.082  16.232   9.204
 1461POPC   GL221854  24.785  16.366   9.063
 1461POPC   C1A21855  25.465  16.071   8.872
 1461POPC   D2A21856  25.460  16.070   8.371
 1461POPC   C3A21857  25.463  15.715   8.027
 1461POPC   C4A21858  25.642  15.679   7.593
 1461POPC   C1B21859  25.024  16.218   8.719
 1461POPC   C2B21860  24.922  16.049   8.358
 1461POPC   C3B21861  24.996  16.232   7.992
 1461POPC   C4B21862  25.287  16.116   7.714
 1462POPC   NC321863  35.218  39.022   9.511
 1462POPC   PO421864  35.904  39.008   9.715
 1462POPC   GL121865  35.600  39.175   9.235
 1462POPC   GL221866  35.714  39.421   8.970
 1462POPC   C1A21867  35.251  39.214   8.881
 1462POPC   D2A21868  35.022  39.116   8.495
 1462POPC   C3A21869  35.180  39.184   8.071
 1462POPC   C4A21870  35.487  39.462   7.924
 1462POPC   C1B21871  35.690  39.011   8.682
 1462POPC   C2B21872  35.679  38.747   8.297
 1462POPC   C3B21873  35.589  38.922   7.879
 1462POPC   C4B21874  35.757  39.190   7.567
 1463POPC   NC321875   3.748  22.524   9.643
 1463POPC   PO421876   3.335  21.957   9.664
 1463POPC   GL121877   3.534  22.185   9.294
 1463POPC   GL221878   3.440  22.519   9.221
 1463POPC   C1A21879   3.399  22.105   8.852
 1463POPC   D2A21880   3.565  22.083   8.441
 1463POPC   C3A21881   3.367  22.005   8.082
 1463POPC   C4A21882   3.566  22.097   7.715
 1463POPC   C1B21883   3.669  22.526   8.832
 1463POPC   C2B21884   3.570  22.602   8.450
 1463POPC   C3B21885   3.578  22.481   8.058
 1463POPC   C4B21886   3.226  22.537   7.797
 1464POPC   NC321887  20.812  19.917   9.523
 1464POPC   PO421888  21.386  19.812   9.693
 1464POPC   GL121889  21.258  19.828   9.262
 1464POPC   GL221890  21.548  19.829   9.075
 1464POPC   C1A21891  21.067  19.838   8.850
 1464POPC   D2A21892  21.358  19.875   8.510
 1464POPC   C3A21893  21.191  20.019   8.124
 1464POPC   C4A21894  21.194  19.932   7.712
 1464POPC   C1B21895  21.769  19.634   8.721
 1464POPC   C2B21896  21.770  19.574   8.280
 1464POPC   C3B21897  21.661  19.839   7.923
 1464POPC   C4B21898  21.734  19.751   7.499
 1465POPC   NC321899  41.153   8.621   9.401
 1465POPC   PO421900  40.918   7.918   9.500
 1465POPC   GL121901  40.964   8.077   9.134
 1465POPC   GL221902  40.843   8.375   9.080
 1465POPC   C1A21903  40.823   7.989   8.709
 1465POPC   D2A21904  40.747   7.694   8.373
 1465POPC   C3A21905  40.943   7.874   8.022
 1465POPC   C4A21906  40.795   8.042   7.630
 1465POPC   C1B21907  40.973   8.487   8.683
 1465POPC   C2B21908  41.025   8.284   8.319
 1465POPC   C3B21909  41.020   8.400   7.900
 1465POPC   C4B21910  40.955   8.466   7.404
 1466POPC   NC321911  26.321  28.662   9.526
 1466POPC   PO421912  26.892  28.333   9.650
 1466POPC   GL121913  26.890  28.209   9.249
 1466POPC   GL221914  26.588  28.386   9.181
 1466POPC   C1A21915  26.854  28.115   8.822
 1466POPC   D2A21916  26.824  28.358   8.452
 1466POPC   C3A21917  26.894  28.182   8.063
 1466POPC   C4A21918  26.991  28.351   7.698
 1466POPC   C1B21919  26.602  28.643   8.803
 1466POPC   C2B21920  26.440  28.697   8.380
 1466POPC   C3B21921  26.697  28.661   7.992
 1466POPC   C4B21922  26.526  28.638   7.585
 1467POPC   NC321923  28.810   6.016   9.309
 1467POPC   PO421924  29.410   5.899   9.584
 1467POPC   GL121925  29.322   6.063   9.167
 1467POPC   GL221926  29.200   5.717   9.137
 1467POPC   C1A21927  29.180   6.008   8.710
 1467POPC   D2A21928  29.016   5.797   8.330
 1467POPC   C3A21929  29.071   5.858   7.878
 1467POPC   C4A21930  29.323   5.579   7.616
 1467POPC   C1B21931  28.978   5.495   8.831
 1467POPC   C2B21932  28.918   5.266   8.466
 1467POPC   C3B21933  29.009   5.372   8.035
 1467POPC   C4B21934  28.805   5.419   7.660
 1468POPC   NC321935  31.539  36.837   9.585
 1468POPC   PO421936  32.046  36.386   9.653
 1468POPC   GL121937  31.739  36.530   9.247
 1468POPC   GL221938  31.496  36.871   9.101
 1468POPC   C1A21939  31.587  36.505   8.805
 1468POPC   D2A21940  31.283  36.453   8.498
 1468POPC   C3A21941  31.220  36.719   8.156
 1468POPC   C4A21942  31.357  36.671   7.750
 1468POPC   C1B21943  31.492  36.965   8.648
 1468POPC   C2B21944  31.690  36.883   8.257
 1468POPC   C3B21945  31.561  37.092   7.905
 1468POPC   C4B21946  31.198  37.308   7.797
 1469POPC   NC321947   2.801  36.238   9.392
 1469POPC   PO421948   2.177  36.181   9.345
 1469POPC   GL121949   2.474  36.159   9.002
 1469POPC   GL221950   2.495  36.482   9.003
 1469POPC   C1A21951   2.871  36.238   8.731
 1469POPC   D2A21952   3.007  36.490   8.336
 1469POPC   C3A21953   2.930  36.232   7.956
 1469POPC   C4A21954   2.698  35.885   7.755
 1469POPC   C1B21955   2.587  36.639   8.608
 1469POPC   C2B21956   2.540  36.290   8.315
 1469POPC   C3B21957   2.409  36.302   7.902
 1469POPC   C4B21958   2.636  36.520   7.645
 1470POPC   NC321959  16.546   2.541   9.866
 1470POPC   PO421960  16.300   3.005   9.398
 1470POPC   GL121961  16.728   2.985   9.191
 1470POPC   GL221962  16.745   2.687   8.978
 1470POPC   C1A21963  16.961   3.101   8.795
 1470POPC   D2A21964  16.984   2.801   8.448
 1470POPC   C3A21965  16.909   2.933   8.021
 1470POPC   C4A21966  16.833   2.728   7.644
 1470POPC   C1B21967  16.571   2.534   8.590
 1470POPC   C2B21968  16.482   2.805   8.291
 1470POPC   C3B21969  16.408   2.833   7.897
 1470POPC   C4B21970  16.363   2.447   7.661
 1471POPC   NC321971  19.648   6.233   9.596
 1471POPC   PO421972  20.077   6.773   9.450
 1471POPC   GL121973  19.979   6.624   9.081
 1471POPC   GL221974  19.694   6.457   9.142
 1471POPC   C1A21975  20.101   6.592   8.659
 1471POPC   D2A21976  19.888   6.373   8.313
 1471POPC   C3A21977  19.924   6.608   7.932
 1471POPC   C4A21978  20.031   6.624   7.506
 1471POPC   C1B21979  19.573   6.538   8.709
 1471POPC   C2B21980  19.385   6.375   8.311
 1471POPC   C3B21981  19.560   6.237   7.912
 1471POPC   C4B21982  19.518   6.543   7.592
 1472POPC   NC321983  11.604  13.442   9.411
 1472POPC   PO421984  11.140  13.948   9.452
 1472POPC   GL121985  11.223  13.657   9.113
 1472POPC   GL221986  10.954  13.860   8.963
 1472POPC   C1A21987  11.552  13.469   8.781
 1472POPC   D2A21988  11.786  13.426   8.410
 1472POPC   C3A21989  11.507  13.363   8.108
 1472POPC   C4A21990  11.362  13.415   7.693
 1472POPC   C1B21991  11.346  13.920   8.690
 1472POPC   C2B21992  11.549  13.869   8.285
 1472POPC   C3B21993  11.336  13.869   7.894
 1472POPC   C4B21994  10.964  13.877   7.693
 1473POPC   NC321995   3.463  24.810   9.633
 1473POPC   PO421996   3.817  25.366   9.675
 1473POPC   GL121997   3.585  25.434   9.212
 1473POPC   GL221998   3.425  25.144   9.054
 1473POPC   C1A21999   3.701  25.421   8.741
 1473POPC   D2A22000   3.446  25.275   8.402
 1473POPC   C3A22001   3.617  25.197   8.018
 1473POPC   C4A22002   3.657  25.501   7.736
 1473POPC   C1B22003   3.266  24.898   8.719
 1473POPC   C2B22004   3.419  24.753   8.322
 1473POPC   C3B22005   3.290  24.841   7.915
 1473POPC   C4B22006   3.471  24.905   7.501
 1474POPC   NC322007  27.942  40.360   9.493
 1474POPC   PO422008  28.246  40.919   9.638
 1474POPC   GL122009  28.288  40.675   9.223
 1474POPC   GL222010  28.661  40.638   9.108
 1474POPC   C1A22011  28.294  40.618   8.763
 1474POPC   D2A22012  28.628  40.896   8.556
 1474POPC   C3A22013  28.530  41.061   8.150
 1474POPC   C4A22014  28.321  40.887   7.785
 1474POPC   C1B22015  28.779  40.438   8.713
 1474POPC   C2B22016  28.549  40.381   8.358
 1474POPC   C3B22017  28.578  40.515   7.982
 1474POPC   C4B22018  28.599  40.453   7.537
 1475POPC   NC322019  33.863   3.791   9.566
 1475POPC   PO422020  33.934   3.170   9.275
 1475POPC   GL122021  33.774   3.481   9.066
 1475POPC   GL222022  33.974   3.793   9.041
 1475POPC   C1A22023  33.779   3.493   8.625
 1475POPC   D2A22024  33.928   3.813   8.410
 1475POPC   C3A22025  34.103   3.668   8.027
 1475POPC   C4A22026  33.919   3.470   7.703
 1475POPC   C1B22027  33.565   3.907   8.874
 1475POPC   C2B22028  33.385   3.926   8.472
 1475POPC   C3B22029  33.547   3.816   8.078
 1475POPC   C4B22030  33.441   3.635   7.710
 1476POPC   NC322031   5.295  37.798   9.669
 1476POPC   PO422032   4.634  37.844   9.582
 1476POPC   GL122033   5.007  37.714   9.255
 1476POPC   GL222034   5.265  37.954   9.181
 1476POPC   C1A22035   5.118  37.531   8.826
 1476POPC   D2A22036   4.867  37.394   8.429
 1476POPC   C3A22037   5.061  37.551   8.032
 1476POPC   C4A22038   5.463  37.474   7.811
 1476POPC   C1B22039   5.458  37.913   8.794
 1476POPC   C2B22040   5.360  37.736   8.407
 1476POPC   C3B22041   5.431  37.939   8.025
 1476POPC   C4B22042   5.201  37.920   7.659
 1477POPC   NC322043  23.402   4.683   9.547
 1477POPC   PO422044  23.864   4.249   9.416
 1477POPC   GL122045  23.605   4.288   9.091
 1477POPC   GL222046  23.476   4.623   9.048
 1477POPC   C1A22047  23.725   4.061   8.724
 1477POPC   D2A22048  24.047   4.075   8.411
 1477POPC   C3A22049  23.852   4.306   8.080
 1477POPC   C4A22050  23.706   4.078   7.728
 1477POPC   C1B22051  23.299   4.357   8.701
 1477POPC   C2B22052  23.345   4.232   8.271
 1477POPC   C3B22053  23.378   4.430   7.882
 1477POPC   C4B22054  23.237   4.830   7.754
 1478POPC   NC322055   0.815  23.751   9.410
 1478POPC   PO422056   1.520  23.834   9.311
 1478POPC   GL122057   1.320  23.832   8.970
 1478POPC   GL222058   1.056  23.579   8.997
 1478POPC   C1A22059   1.394  23.693   8.569
 1478POPC   D2A22060   1.371  23.510   8.164
 1478POPC   C3A22061   1.288  23.799   7.797
 1478POPC   C4A22062   1.142  23.637   7.359
 1478POPC   C1B22063   0.886  23.885   8.724
 1478POPC   C2B22064   0.989  23.851   8.302
 1478POPC   C3B22065   0.873  23.607   7.979
 1478POPC   C4B22066   0.769  23.831   7.630
 1479POPC   NC322067   4.232  33.513   9.620
 1479POPC   PO422068   4.787  33.947   9.571
 1479POPC   GL122069   4.396  33.913   9.299
 1479POPC   GL222070   4.206  34.264   9.285
 1479POPC   C1A22071   4.235  33.620   8.943
 1479POPC   D2A22072   3.994  33.707   8.555
 1479POPC   C3A22073   4.031  33.485   8.140
 1479POPC   C4A22074   4.145  33.658   7.733
 1479POPC   C1B22075   4.223  34.114   8.872
 1479POPC   C2B22076   4.459  33.958   8.551
 1479POPC   C3B22077   4.296  33.931   8.144
 1479POPC   C4B22078   4.316  34.140   7.749
 1480POPC   NC322079  26.978  27.197   9.501
 1480POPC   PO422080  26.509  26.690   9.579
 1480POPC   GL122081  26.667  26.817   9.193
 1480POPC   GL222082  26.528  27.125   9.110
 1480POPC   C1A22083  26.758  26.674   8.777
 1480POPC   D2A22084  26.574  26.795   8.392
 1480POPC   C3A22085  26.717  26.649   7.973
 1480POPC   C4A22086  26.748  26.501   7.516
 1480POPC   C1B22087  26.813  27.189   8.765
 1480POPC   C2B22088  26.802  27.365   8.345
 1480POPC   C3B22089  26.678  27.168   7.950
 1480POPC   C4B22090  26.943  26.969   7.562
 1481POPC   NC322091  41.313  25.829   9.514
 1481POPC   PO422092  41.808  26.241   9.633
 1481POPC   GL122093  41.465  26.199   9.216
 1481POPC   GL222094  41.208  25.937   9.048
 1481POPC   C1A22095  41.525  26.167   8.745
 1481POPC   D2A22096  41.424  26.256   8.337
 1481POPC   C3A22097  41.643  26.262   7.940
 1481POPC   C4A22098  41.302  26.148   7.698
 1481POPC   C1B22099  41.282  25.627   8.733
 1481POPC   C2B22100  41.598  25.702   8.440
 1481POPC   C3B22101  41.374  25.810   8.091
 1481POPC   C4B22102  41.255  25.600   7.747
 1482POPC   NC322103  39.616  37.612   9.447
 1482POPC   PO422104  38.933  37.664   9.618
 1482POPC   GL122105  39.020  37.839   9.156
 1482POPC   GL222106  39.310  38.042   9.261
 1482POPC   C1A22107  39.122  37.605   8.697
 1482POPC   D2A22108  39.515  37.478   8.439
 1482POPC   C3A22109  39.401  37.296   8.033
 1482POPC   C4A22110  39.065  37.459   7.723
 1482POPC   C1B22111  39.411  37.998   8.826
 1482POPC   C2B22112  39.283  37.964   8.394
 1482POPC   C3B22113  39.103  37.943   7.999
 1482POPC   C4B22114  39.241  37.935   7.601
 1483POPC   NC322115   7.133  43.191   9.512
 1483POPC   PO422116   7.730  42.977   9.584
 1483POPC   GL122117   7.598  42.989   9.139
 1483POPC   GL222118   7.270  43.040   9.048
 1483POPC   C1A22119   7.574  42.816   8.709
 1483POPC   D2A22120   7.596  43.072   8.332
 1483POPC   C3A22121   7.763  42.945   7.951
 1483POPC   C4A22122   7.618  43.220   7.627
 1483POPC   C1B22123   7.226  43.227   8.668
 1483POPC   C2B22124   7.105  43.269   8.262
 1483POPC   C3B22125   7.147  43.195   7.839
 1483POPC   C4B22126   7.163  43.261   7.393
 1484POPC   NC322127  13.173  40.147   9.363
 1484POPC   PO422128  13.816  40.192   9.459
 1484POPC   GL122129  13.650  39.929   9.139
 1484POPC   GL222130  13.382  39.698   9.187
 1484POPC   C1A22131  13.516  40.035   8.735
 1484POPC   D2A22132  13.762  39.989   8.360
 1484POPC   C3A22133  13.667  39.956   7.921
 1484POPC   C4A22134  13.918  39.693   7.684
 1484POPC   C1B22135  13.171  39.668   8.786
 1484POPC   C2B22136  13.294  39.800   8.353
 1484POPC   C3B22137  13.199  39.739   7.969
 1484POPC   C4B22138  13.220  39.968   7.596
 1485POPC   NC322139  16.453  41.661   9.587
 1485POPC   PO422140  17.063  41.398   9.393
 1485POPC   GL122141  16.741  41.604   9.143
 1485POPC   GL222142  16.354  41.549   9.116
 1485POPC   C1A22143  16.674  41.803   8.753
 1485POPC   D2A22144  16.554  41.979   8.356
 1485POPC   C3A22145  16.856  41.931   8.033
 1485POPC   C4A22146  16.846  41.817   7.615
 1485POPC   C1B22147  16.491  41.338   8.761
 1485POPC   C2B22148  16.728  41.388   8.401
 1485POPC   C3B22149  16.618  41.441   7.979
 1485POPC   C4B22150  16.789  41.315   7.592
 1486POPC   NC322151  38.029  10.971   9.360
 1486POPC   PO422152  38.385  11.414   9.705
 1486POPC   GL122153  38.398  11.326   9.243
 1486POPC   GL222154  38.510  11.004   9.082
 1486POPC   C1A22155  38.232  11.324   8.801
 1486POPC   D2A22156  38.422  11.143   8.439
 1486POPC   C3A22157  38.178  11.236   8.075
 1486POPC   C4A22158  38.277  11.332   7.653
 1486POPC   C1B22159  38.740  10.787   8.746
 1486POPC   C2B22160  38.887  10.828   8.320
 1486POPC   C3B22161  38.637  11.018   7.980
 1486POPC   C4B22162  38.596  10.956   7.503
 1487POPC   NC322163  38.775   5.542   9.478
 1487POPC   PO422164  38.413   6.117   9.590
 1487POPC   GL122165  38.474   5.984   9.175
 1487POPC   GL222166  38.607   5.679   9.018
 1487POPC   C1A22167  38.451   6.117   8.749
 1487POPC   D2A22168  38.216   6.068   8.394
 1487POPC   C3A22169  38.373   6.142   7.991
 1487POPC   C4A22170  38.203   5.977   7.634
 1487POPC   C1B22171  38.601   5.686   8.562
 1487POPC   C2B22172  38.463   5.675   8.187
 1487POPC   C3B22173  38.506   5.628   7.814
 1487POPC   C4B22174  38.759   5.910   7.622
 1488POPC   NC322175  20.572  31.138   9.270
 1488POPC   PO422176  20.844  31.765   9.421
 1488POPC   GL122177  20.849  31.543   9.081
 1488POPC   GL222178  20.499  31.604   9.049
 1488POPC   C1A22179  20.907  31.315   8.708
 1488POPC   D2A22180  20.727  31.266   8.311
 1488POPC   C3A22181  20.733  31.451   7.877
 1488POPC   C4A22182  20.672  31.378   7.422
 1488POPC   C1B22183  20.385  31.493   8.640
 1488POPC   C2B22184  20.369  31.625   8.226
 1488POPC   C3B22185  20.215  31.554   7.841
 1488POPC   C4B22186  20.127  31.441   7.423
 1489POPC   NC322187  26.869  43.531   9.509
 1489POPC   PO422188  27.057  44.245   9.417
 1489POPC   GL122189  26.850  43.938   9.172
 1489POPC   GL222190  26.568  43.708   9.143
 1489POPC   C1A22191  26.972  43.886   8.763
 1489POPC   D2A22192  27.009  43.709   8.392
 1489POPC   C3A22193  27.150  43.983   8.094
 1489POPC   C4A22194  26.877  44.059   7.756
 1489POPC   C1B22195  26.597  43.552   8.710
 1489POPC   C2B22196  26.415  43.662   8.296
 1489POPC   C3B22197  26.431  43.727   7.821
 1489POPC   C4B22198  26.533  43.594   7.388
 1490POPC   NC322199   9.058  38.680   9.475
 1490POPC   PO422200   8.868  38.011   9.416
 1490POPC   GL122201   8.854  38.360   9.086
 1490POPC   GL222202   9.142  38.651   8.984
 1490POPC   C1A22203   8.904  38.359   8.643
 1490POPC   D2A22204   9.098  38.610   8.348
 1490POPC   C3A22205   8.940  38.382   8.035
 1490POPC   C4A22206   8.800  38.343   7.645
 1490POPC   C1B22207   8.765  38.832   8.783
 1490POPC   C2B22208   8.600  38.806   8.339
 1490POPC   C3B22209   8.750  38.854   7.917
 1490POPC   C4B22210   9.133  38.716   7.691
 1491POPC   NC322211  35.521   9.883   9.492
 1491POPC   PO422212  35.241   9.225   9.570
 1491POPC   GL122213  35.396   9.478   9.214
 1491POPC   GL222214  35.136   9.668   9.199
 1491POPC   C1A22215  35.437   9.517   8.749
 1491POPC   D2A22216  35.211   9.602   8.341
 1491POPC   C3A22217  35.448   9.686   7.980
 1491POPC   C4A22218  35.632   9.617   7.561
 1491POPC   C1B22219  35.012   9.787   8.780
 1491POPC   C2B22220  34.839   9.937   8.439
 1491POPC   C3B22221  35.017  10.035   8.048
 1491POPC   C4B22222  34.972   9.709   7.783
 1492POPC   NC322223  30.592  37.109   9.385
 1492POPC   PO422224  31.109  36.700   9.500
 1492POPC   GL122225  30.927  36.778   9.105
 1492POPC   GL222226  30.604  36.619   9.142
 1492POPC   C1A22227  30.977  36.958   8.671
 1492POPC   D2A22228  31.102  37.197   8.299
 1492POPC   C3A22229  30.782  37.106   7.980
 1492POPC   C4A22230  30.869  36.735   7.769
 1492POPC   C1B22231  30.494  36.803   8.743
 1492POPC   C2B22232  30.440  36.928   8.305
 1492POPC   C3B22233  30.383  36.733   7.864
 1492POPC   C4B22234  30.320  36.652   7.409
 1493POPC   NC322235  38.224  18.560   9.494
 1493POPC   PO422236  38.726  17.985   9.354
 1493POPC   GL122237  38.572  18.213   9.025
 1493POPC   GL222238  38.577  18.539   9.132
 1493POPC   C1A22239  38.497  18.246   8.588
 1493POPC   D2A22240  38.290  17.921   8.344
 1493POPC   C3A22241  38.325  17.997   7.909
 1493POPC   C4A22242  38.217  18.111   7.519
 1493POPC   C1B22243  38.227  18.585   8.857
 1493POPC   C2B22244  38.188  18.781   8.478
 1493POPC   C3B22245  38.259  18.577   8.064
 1493POPC   C4B22246  38.426  18.551   7.681
 1494POPC   NC322247  18.426  12.968   9.436
 1494POPC   PO422248  17.841  13.226   9.324
 1494POPC   GL122249  18.044  12.965   9.027
 1494POPC   GL222250  18.348  12.775   8.970
 1494POPC   C1A22251  17.964  12.780   8.636
 1494POPC   D2A22252  18.316  12.778   8.384
 1494POPC   C3A22253  18.231  12.961   8.006
 1494POPC   C4A22254  18.091  12.720   7.659
 1494POPC   C1B22255  18.512  13.100   8.726
 1494POPC   C2B22256  18.593  13.251   8.296
 1494POPC   C3B22257  18.739  13.036   7.923
 1494POPC   C4B22258  18.582  12.766   7.632
 1495POPC   NC322259  36.344  10.947   9.422
 1495POPC   PO422260  36.100  11.624   9.404
 1495POPC   GL122261  36.030  11.340   9.102
 1495POPC   GL222262  35.703  11.440   8.978
 1495POPC   C1A22263  36.294  11.507   8.777
 1495POPC   D2A22264  36.398  11.353   8.374
 1495POPC   C3A22265  36.226  11.472   7.997
 1495POPC   C4A22266  36.423  11.413   7.647
 1495POPC   C1B22267  35.867  11.354   8.574
 1495POPC   C2B22268  35.949  11.115   8.227
 1495POPC   C3B22269  35.833  11.205   7.800
 1495POPC   C4B22270  35.778  10.945   7.445
 1496POPC   NC322271  19.644  32.558   9.329
 1496POPC   PO422272  20.096  33.025   9.392
 1496POPC   GL122273  19.797  33.050   9.081
 1496POPC   GL222274  19.623  33.378   9.151
 1496POPC   C1A22275  19.763  32.874   8.658
 1496POPC   D2A22276  19.530  33.031   8.305
 1496POPC   C3A22277  19.652  32.814   7.969
 1496POPC   C4A22278  19.647  32.845   7.529
 1496POPC   C1B22279  19.655  33.388   8.699
 1496POPC   C2B22280  19.921  33.350   8.315
 1496POPC   C3B22281  19.831  33.278   7.866
 1496POPC   C4B22282  20.070  33.148   7.496
 1497POPC   NC322283   1.687  28.441   9.546
 1497POPC   PO422284   1.344  27.890   9.462
 1497POPC   GL122285   1.295  28.269   9.229
 1497POPC   GL222286   1.521  28.548   9.087
 1497POPC   C1A22287   1.098  28.356   8.858
 1497POPC   D2A22288   1.332  28.353   8.498
 1497POPC   C3A22289   1.112  28.549   8.201
 1497POPC   C4A22290   1.054  28.288   7.872
 1497POPC   C1B22291   1.654  28.851   8.777
 1497POPC   C2B22292   1.591  28.755   8.355
 1497POPC   C3B22293   1.551  28.633   7.958
 1497POPC   C4B22294   1.234  28.763   7.745
 1498POPC   NC322295  39.053  19.956   9.462
 1498POPC   PO422296  39.654  19.780   9.310
 1498POPC   GL122297  39.360  19.885   9.068
 1498POPC   GL222298  39.363  20.215   9.107
 1498POPC   C1A22299  39.104  19.874   8.738
 1498POPC   D2A22300  39.114  19.604   8.390
 1498POPC   C3A22301  39.120  19.786   7.972
 1498POPC   C4A22302  39.391  19.587   7.680
 1498POPC   C1B22303  39.454  20.263   8.724
 1498POPC   C2B22304  39.287  20.171   8.360
 1498POPC   C3B22305  39.503  20.218   8.038
 1498POPC   C4B22306  39.394  20.097   7.676
 1499POPC   NC322307   8.237  24.594   9.601
 1499POPC   PO422308   7.826  24.157   9.432
 1499POPC   GL122309   8.039  24.421   9.156
 1499POPC   GL222310   7.811  24.583   8.977
 1499POPC   C1A22311   8.304  24.456   8.784
 1499POPC   D2A22312   8.561  24.725   8.523
 1499POPC   C3A22313   8.591  24.643   8.093
 1499POPC   C4A22314   8.347  24.358   7.866
 1499POPC   C1B22315   7.818  24.247   8.712
 1499POPC   C2B22316   8.054  24.273   8.338
 1499POPC   C3B22317   7.925  24.121   7.963
 1499POPC   C4B22318   7.824  24.309   7.585
 1500POPC   NC322319   8.023   2.364   9.964
 1500POPC   PO422320   8.204   1.901   9.486
 1500POPC   GL122321   8.006   2.187   9.190
 1500POPC   GL222322   8.312   2.230   9.003
 1500POPC   C1A22323   7.801   2.194   8.780
 1500POPC   D2A22324   8.049   2.252   8.395
 1500POPC   C3A22325   7.899   2.110   8.006
 1500POPC   C4A22326   7.913   2.261   7.597
 1500POPC   C1B22327   8.184   1.863   8.767
 1500POPC   C2B22328   8.190   1.737   8.330
 1500POPC   C3B22329   8.292   1.778   7.896
 1500POPC   C4B22330   7.971   1.746   7.621
 1501POPC   NC322331  29.126  24.257   9.456
 1501POPC   PO422332  28.930  24.878   9.479
 1501POPC   GL122333  29.078  24.638   9.101
 1501POPC   GL222334  29.390  24.450   9.069
 1501POPC   C1A22335  29.149  24.720   8.658
 1501POPC   D2A22336  29.334  24.828   8.244
 1501POPC   C3A22337  29.307  24.510   7.951
 1501POPC   C4A22338  28.973  24.335   7.765
 1501POPC   C1B22339  29.224  24.206   8.722
 1501POPC   C2B22340  29.381  24.130   8.287
 1501POPC   C3B22341  29.554  24.056   7.859
 1501POPC   C4B22342  29.968  24.133   7.649
 1502POPC   NC322343   6.684  29.483   9.547
 1502POPC   PO422344   6.300  30.078   9.507
 1502POPC   GL122345   6.576  29.894   9.224
 1502POPC   GL222346   6.365  29.629   9.169
 1502POPC   C1A22347   6.747  29.939   8.808
 1502POPC   D2A22348   7.072  29.982   8.476
 1502POPC   C3A22349   6.899  29.988   8.054
 1502POPC   C4A22350   6.487  29.924   7.866
 1502POPC   C1B22351   6.439  29.499   8.761
 1502POPC   C2B22352   6.690  29.608   8.410
 1502POPC   C3B22353   6.720  29.507   8.026
 1502POPC   C4B22354   6.453  29.404   7.693
 1503POPC   NC322355  12.439  24.141   9.456
 1503POPC   PO422356  12.838  24.677   9.506
 1503POPC   GL122357  12.780  24.479   9.142
 1503POPC   GL222358  12.717  24.854   9.037
 1503POPC   C1A22359  12.691  24.473   8.708
 1503POPC   D2A22360  12.650  24.673   8.334
 1503POPC   C3A22361  12.716  24.391   8.037
 1503POPC   C4A22362  12.904  24.297   7.661
 1503POPC   C1B22363  12.397  24.908   8.726
 1503POPC   C2B22364  12.292  25.099   8.318
 1503POPC   C3B22365  12.462  24.992   7.913
 1503POPC   C4B22366  12.519  24.629   7.639
 1504POPC   NC322367  13.241  14.195   9.450
 1504POPC   PO422368  13.772  14.618   9.454
 1504POPC   GL122369  13.599  14.398   9.137
 1504POPC   GL222370  13.335  14.632   9.117
 1504POPC   C1A22371  13.560  14.207   8.754
 1504POPC   D2A22372  13.628  14.405   8.351
 1504POPC   C3A22373  13.598  14.133   8.016
 1504POPC   C4A22374  13.644  14.179   7.627
 1504POPC   C1B22375  13.452  14.784   8.687
 1504POPC   C2B22376  13.386  14.861   8.243
 1504POPC   C3B22377  13.400  14.596   7.876
 1504POPC   C4B22378  13.630  14.687   7.509
 1505POPC   NC322379  38.720  30.717  10.089
 1505POPC   PO422380  39.041  30.698   9.494
 1505POPC   GL122381  39.116  30.747   9.074
 1505POPC   GL222382  39.413  30.975   9.051
 1505POPC   C1A22383  39.062  30.522   8.667
 1505POPC   D2A22384  39.042  30.700   8.236
 1505POPC   C3A22385  39.032  30.616   7.758
 1505POPC   C4A22386  39.113  30.347   7.362
 1505POPC   C1B22387  39.548  30.647   8.796
 1505POPC   C2B22388  39.487  30.475   8.383
 1505POPC   C3B22389  39.478  30.706   7.980
 1505POPC   C4B22390  39.523  30.479   7.625
 1506POPC   NC322391  39.896   2.354   9.387
 1506POPC   PO422392  40.400   2.701   9.661
 1506POPC   GL122393  40.418   2.843   9.180
 1506POPC   GL222394  40.288   2.523   9.074
 1506POPC   C1A22395  40.185   2.887   8.731
 1506POPC   D2A22396  39.953   2.984   8.332
 1506POPC   C3A22397  40.008   2.770   7.928
 1506POPC   C4A22398  40.352   2.633   7.651
 1506POPC   C1B22399  39.918   2.451   8.764
 1506POPC   C2B22400  39.986   2.467   8.353
 1506POPC   C3B22401  39.854   2.279   7.968
 1506POPC   C4B22402  40.034   2.244   7.600
 1507POPC   NC322403  30.769  10.190   9.335
 1507POPC   PO422404  30.875  10.804   9.411
 1507POPC   GL122405  30.555  10.707   9.129
 1507POPC   GL222406  30.345  10.379   9.124
 1507POPC   C1A22407  30.509  10.617   8.702
 1507POPC   D2A22408  30.757  10.568   8.326
 1507POPC   C3A22409  30.744  10.782   7.947
 1507POPC   C4A22410  30.515  10.809   7.560
 1507POPC   C1B22411  30.454  10.118   8.738
 1507POPC   C2B22412  30.471  10.156   8.299
 1507POPC   C3B22413  30.692  10.237   7.917
 1507POPC   C4B22414  30.549  10.315   7.523
 1508POPC   NC322415   1.542  39.618   9.495
 1508POPC   PO422416   2.116  39.977   9.597
 1508POPC   GL122417   2.104  40.096   9.193
 1508POPC   GL222418   1.782  39.930   9.110
 1508POPC   C1A22419   2.207  40.200   8.782
 1508POPC   D2A22420   1.913  40.016   8.493
 1508POPC   C3A22421   1.895  40.175   8.095
 1508POPC   C4A22422   2.030  40.152   7.675
 1508POPC   C1B22423   2.121  39.699   8.854
 1508POPC   C2B22424   2.125  39.556   8.408
 1508POPC   C3B22425   2.159  39.737   8.010
 1508POPC   C4B22426   2.013  39.647   7.626
 1509POPC   NC322427  24.661  17.868   9.483
 1509POPC   PO422428  24.456  17.216   9.561
 1509POPC   GL122429  24.593  17.438   9.217
 1509POPC   GL222430  24.306  17.398   9.017
 1509POPC   C1A22431  24.758  17.572   8.823
 1509POPC   D2A22432  24.470  17.464   8.478
 1509POPC   C3A22433  24.489  17.701   8.076
 1509POPC   C4A22434  24.605  17.563   7.648
 1509POPC   C1B22435  24.115  17.702   8.715
 1509POPC   C2B22436  24.013  17.588   8.245
 1509POPC   C3B22437  24.109  17.589   7.765
 1509POPC   C4B22438  24.189  17.632   7.317
 1510POPC   NC322439   7.004  44.605   9.593
 1510POPC   PO422440   7.659  44.721   9.534
 1510POPC   GL122441   7.354  44.648   9.199
 1510POPC   GL222442   7.090  44.899   9.083
 1510POPC   C1A22443   7.499  44.691   8.796
 1510POPC   D2A22444   7.529  44.504   8.385
 1510POPC   C3A22445   7.528  44.841   8.120
 1510POPC   C4A22446   7.630  44.949   7.731
 1510POPC   C1B22447   7.097  44.910   8.603
 1510POPC   C2B22448   7.030  44.870   8.154
 1510POPC   C3B22449   7.040  44.548   7.927
 1510POPC   C4B22450   7.409  44.459   7.768
 1511POPC   NC322451  19.690  26.598   9.572
 1511POPC   PO422452  19.853  25.964   9.613
 1511POPC   GL122453  19.874  25.975   9.197
 1511POPC   GL222454  19.858  26.329   9.120
 1511POPC   C1A22455  19.747  25.754   8.850
 1511POPC   D2A22456  19.907  25.672   8.459
 1511POPC   C3A22457  19.791  25.851   8.055
 1511POPC   C4A22458  19.829  25.834   7.578
 1511POPC   C1B22459  19.895  26.206   8.688
 1511POPC   C2B22460  19.838  26.307   8.303
 1511POPC   C3B22461  20.130  26.268   8.004
 1511POPC   C4B22462  20.199  26.185   7.611
 1512POPC   NC322463  12.636  40.451   9.410
 1512POPC   PO422464  12.610  41.113   9.436
 1512POPC   GL122465  12.627  40.863   9.078
 1512POPC   GL222466  12.950  40.935   9.072
 1512POPC   C1A22467  12.737  40.689   8.652
 1512POPC   D2A22468  12.546  40.349   8.402
 1512POPC   C3A22469  12.568  40.504   8.007
 1512POPC   C4A22470  12.774  40.877   7.872
 1512POPC   C1B22471  13.153  41.037   8.710
 1512POPC   C2B22472  13.177  40.906   8.289
 1512POPC   C3B22473  13.177  41.208   7.940
 1512POPC   C4B22474  12.943  41.245   7.566
 1513POPC   NC322475  29.971  41.147   9.466
 1513POPC   PO422476  29.881  40.521   9.434
 1513POPC   GL122477  29.724  40.743   9.104
 1513POPC   GL222478  29.568  41.049   9.154
 1513POPC   C1A22479  29.699  40.646   8.690
 1513POPC   D2A22480  29.945  40.423   8.380
 1513POPC   C3A22481  29.854  40.542   7.977
 1513POPC   C4A22482  29.860  40.378   7.560
 1513POPC   C1B22483  29.886  41.116   8.793
 1513POPC   C2B22484  30.004  40.931   8.382
 1513POPC   C3B22485  29.913  41.055   7.957
 1513POPC   C4B22486  30.176  41.216   7.642
 1514POPC   NC322487  19.470  20.437   9.459
 1514POPC   PO422488  18.911  20.218   9.327
 1514POPC   GL122489  19.204  20.412   9.016
 1514POPC   GL222490  19.436  20.147   9.028
 1514POPC   C1A22491  19.290  20.645   8.600
 1514POPC   D2A22492  19.361  20.665   8.144
 1514POPC   C3A22493  19.063  20.750   7.799
 1514POPC   C4A22494  19.125  20.886   7.367
 1514POPC   C1B22495  19.269  20.120   8.593
 1514POPC   C2B22496  19.018  20.290   8.275
 1514POPC   C3B22497  18.872  20.295   7.869
 1514POPC   C4B22498  18.821  20.043   7.532
 1515POPC   NC322499  37.097  30.357   9.846
 1515POPC   PO422500  37.029  29.807   9.457
 1515POPC   GL122501  36.666  29.942   9.204
 1515POPC   GL222502  36.581  29.685   9.051
 1515POPC   C1A22503  36.644  30.087   8.750
 1515POPC   D2A22504  37.064  30.142   8.524
 1515POPC   C3A22505  37.212  30.142   8.097
 1515POPC   C4A22506  36.925  30.083   7.760
 1515POPC   C1B22507  37.004  29.716   8.831
 1515POPC   C2B22508  37.077  29.548   8.434
 1515POPC   C3B22509  36.884  29.597   8.071
 1515POPC   C4B22510  37.063  29.574   7.690
 1516POPC   NC322511  41.810  30.187   9.500
 1516POPC   PO422512  41.928  29.450   9.413
 1516POPC   GL122513  41.659  29.711   9.095
 1516POPC   GL222514  41.285  29.807   9.115
 1516POPC   C1A22515  41.472  29.559   8.704
 1516POPC   D2A22516  41.624  29.685   8.343
 1516POPC   C3A22517  41.400  29.713   8.011
 1516POPC   C4A22518  41.754  29.888   7.791
 1516POPC   C1B22519  41.489  30.073   8.744
 1516POPC   C2B22520  41.337  30.138   8.298
 1516POPC   C3B22521  41.262  30.178   7.820
 1516POPC   C4B22522  41.054  30.285   7.402
 1517POPC   NC322523  35.951  14.573   9.364
 1517POPC   PO422524  36.332  14.160   9.706
 1517POPC   GL122525  36.215  14.177   9.184
 1517POPC   GL222526  36.198  14.471   8.930
 1517POPC   C1A22527  36.007  14.072   8.736
 1517POPC   D2A22528  36.174  14.393   8.435
 1517POPC   C3A22529  36.081  14.422   8.012
 1517POPC   C4A22530  36.344  14.417   7.645
 1517POPC   C1B22531  35.947  14.790   8.737
 1517POPC   C2B22532  35.777  14.746   8.352
 1517POPC   C3B22533  35.853  14.878   7.961
 1517POPC   C4B22534  35.984  14.765   7.588
 1518POPC   NC322535   0.588  17.146   9.374
 1518POPC   PO422536   0.657  17.845   9.480
 1518POPC   GL122537   0.655  17.609   9.143
 1518POPC   GL222538   0.316  17.681   9.069
 1518POPC   C1A22539   0.659  17.475   8.725
 1518POPC   D2A22540   0.448  17.319   8.379
 1518POPC   C3A22541   0.653  17.312   8.019
 1518POPC   C4A22542   0.451  17.211   7.640
 1518POPC   C1B22543   0.096  17.568   8.691
 1518POPC   C2B22544   0.129  17.707   8.244
 1518POPC   C3B22545   0.353  17.679   7.834
 1518POPC   C4B22546   0.159  17.580   7.424
 1519POPC   NC322547   3.423  42.866   9.528
 1519POPC   PO422548   3.659  43.487   9.474
 1519POPC   GL122549   3.576  43.183   9.144
 1519POPC   GL222550   3.202  43.056   9.110
 1519POPC   C1A22551   3.492  43.180   8.712
 1519POPC   D2A22552   3.633  43.046   8.381
 1519POPC   C3A22553   3.549  43.281   8.079
 1519POPC   C4A22554   3.566  43.175   7.699
 1519POPC   C1B22555   3.183  42.785   8.747
 1519POPC   C2B22556   3.354  42.591   8.401
 1519POPC   C3B22557   3.321  42.824   8.035
 1519POPC   C4B22558   3.077  43.091   7.768
 1520POPC   NC322559  11.930  29.719   9.524
 1520POPC   PO422560  12.239  30.362   9.732
 1520POPC   GL122561  12.204  30.343   9.248
 1520POPC   GL222562  11.914  30.151   9.221
 1520POPC   C1A22563  12.281  30.027   8.873
 1520POPC   D2A22564  12.141  29.714   8.560
 1520POPC   C3A22565  12.136  29.846   8.127
 1520POPC   C4A22566  11.961  29.768   7.722
 1520POPC   C1B22567  11.765  29.867   8.894
 1520POPC   C2B22568  11.687  29.945   8.485
 1520POPC   C3B22569  11.609  29.898   8.078
 1520POPC   C4B22570  11.520  30.118   7.698
 1521POPC   NC322571  26.692   4.884   9.696
 1521POPC   PO422572  27.186   5.294   9.520
 1521POPC   GL122573  26.948   5.041   9.231
 1521POPC   GL222574  26.553   5.073   9.252
 1521POPC   C1A22575  27.010   4.969   8.778
 1521POPC   D2A22576  26.981   5.312   8.420
 1521POPC   C3A22577  26.817   5.305   8.006
 1521POPC   C4A22578  26.899   4.995   7.673
 1521POPC   C1B22579  26.523   5.137   8.848
 1521POPC   C2B22580  26.612   4.917   8.475
 1521POPC   C3B22581  26.451   4.927   8.093
 1521POPC   C4B22582  26.421   5.168   7.716
 1522POPC   NC322583  16.260  32.613   9.429
 1522POPC   PO422584  15.881  32.141   9.715
 1522POPC   GL122585  15.813  32.069   9.263
 1522POPC   GL222586  15.795  32.428   9.258
 1522POPC   C1A22587  15.989  31.950   8.823
 1522POPC   D2A22588  16.011  32.190   8.416
 1522POPC   C3A22589  15.921  31.977   8.050
 1522POPC   C4A22590  15.999  32.113   7.631
 1522POPC   C1B22591  15.739  32.394   8.816
 1522POPC   C2B22592  15.570  32.553   8.426
 1522POPC   C3B22593  15.658  32.407   8.021
 1522POPC   C4B22594  15.720  32.533   7.618
 1523POPC   NC322595  11.115  30.352   9.528
 1523POPC   PO422596  11.423  30.937   9.663
 1523POPC   GL122597  11.396  30.738   9.303
 1523POPC   GL222598  11.323  31.010   9.095
 1523POPC   C1A22599  11.434  30.489   8.928
 1523POPC   D2A22600  11.509  30.433   8.469
 1523POPC   C3A22601  11.222  30.564   8.142
 1523POPC   C4A22602  11.234  30.581   7.699
 1523POPC   C1B22603  11.575  30.955   8.751
 1523POPC   C2B22604  11.476  30.947   8.337
 1523POPC   C3B22605  11.656  30.756   7.947
 1523POPC   C4B22606  11.676  30.976   7.567
 1524POPC   NC322607   8.429  12.100   9.519
 1524POPC   PO422608   7.854  12.069   9.817
 1524POPC   GL122609   8.031  11.948   9.263
 1524POPC   GL222610   8.247  12.213   9.062
 1524POPC   C1A22611   7.905  11.925   8.805
 1524POPC   D2A22612   8.067  12.089   8.394
 1524POPC   C3A22613   8.251  11.851   8.086
 1524POPC   C4A22614   8.115  11.828   7.661
 1524POPC   C1B22615   8.326  12.472   8.680
 1524POPC   C2B22616   8.244  12.578   8.238
 1524POPC   C3B22617   8.154  12.307   7.873
 1524POPC   C4B22618   8.285  12.209   7.412
 1525POPC   NC322619   0.377  38.271   9.582
 1525POPC   PO422620   0.743  38.741   9.360
 1525POPC   GL122621   0.406  38.549   9.142
 1525POPC   GL222622   0.591  38.250   9.122
 1525POPC   C1A22623   0.291  38.422   8.710
 1525POPC   D2A22624   0.512  38.612   8.352
 1525POPC   C3A22625   0.409  38.552   7.942
 1525POPC   C4A22626   0.498  38.850   7.632
 1525POPC   C1B22627   0.735  38.113   8.725
 1525POPC   C2B22628   0.540  38.108   8.320
 1525POPC   C3B22629   0.764  38.202   7.952
 1525POPC   C4B22630   0.788  38.412   7.552
 1526POPC   NC322631  30.918  17.654   9.743
 1526POPC   PO422632  30.289  17.394   9.941
 1526POPC   GL122633  30.525  17.524   9.416
 1526POPC   GL222634  30.916  17.555   9.242
 1526POPC   C1A22635  30.528  17.545   8.890
 1526POPC   D2A22636  30.512  17.776   8.460
 1526POPC   C3A22637  30.573  17.644   8.006
 1526POPC   C4A22638  30.540  17.543   7.548
 1526POPC   C1B22639  31.052  17.661   8.791
 1526POPC   C2B22640  31.011  17.857   8.365
 1526POPC   C3B22641  31.061  17.660   7.949
 1526POPC   C4B22642  31.031  17.689   7.434
 1527POPC   NC322643  37.747  24.304   9.417
 1527POPC   PO422644  37.990  24.969   9.298
 1527POPC   GL122645  37.770  24.775   8.909
 1527POPC   GL222646  37.390  24.726   8.773
 1527POPC   C1A22647  37.777  24.982   8.532
 1527POPC   D2A22648  37.809  24.876   8.113
 1527POPC   C3A22649  37.634  24.556   7.898
 1527POPC   C4A22650  37.689  24.714   7.511
 1527POPC   C1B22651  37.533  24.548   8.413
 1527POPC   C2B22652  37.893  24.390   8.309
 1527POPC   C3B22653  37.955  24.139   7.964
 1527POPC   C4B22654  37.826  24.228   7.554
 1528POPC   NC322655   8.652  36.204   9.492
 1528POPC   PO422656   9.244  36.493   9.425
 1528POPC   GL122657   8.967  36.223   9.089
 1528POPC   GL222658   8.613  35.983   9.056
 1528POPC   C1A22659   9.051  35.906   8.778
 1528POPC   D2A22660   9.213  35.645   8.470
 1528POPC   C3A22661   9.203  35.865   8.098
 1528POPC   C4A22662   8.827  35.915   7.866
 1528POPC   C1B22663   8.564  36.078   8.653
 1528POPC   C2B22664   8.865  36.168   8.351
 1528POPC   C3B22665   8.982  36.395   7.986
 1528POPC   C4B22666   8.784  36.339   7.581
 1529POPC   NC322667   6.267  22.597   9.549
 1529POPC   PO422668   5.730  22.990   9.626
 1529POPC   GL122669   5.771  22.825   9.198
 1529POPC   GL222670   6.147  22.789   9.087
 1529POPC   C1A22671   5.543  22.769   8.795
 1529POPC   D2A22672   5.739  22.684   8.396
 1529POPC   C3A22673   5.543  22.754   8.038
 1529POPC   C4A22674   5.746  22.708   7.692
 1529POPC   C1B22675   5.973  23.058   8.766
 1529POPC   C2B22676   5.961  23.280   8.371
 1529POPC   C3B22677   5.759  23.223   7.991
 1529POPC   C4B22678   5.545  23.467   7.689
 1530POPC   NC322679  21.086  32.174   9.339
 1530POPC   PO422680  20.649  32.500   9.657
 1530POPC   GL122681  20.631  32.444   9.191
 1530POPC   GL222682  20.684  32.098   9.047
 1530POPC   C1A22683  20.443  32.467   8.774
 1530POPC   D2A22684  20.494  32.234   8.387
 1530POPC   C3A22685  20.466  32.461   8.016
 1530POPC   C4A22686  20.621  32.578   7.629
 1530POPC   C1B22687  20.787  31.855   8.671
 1530POPC   C2B22688  20.839  31.828   8.237
 1530POPC   C3B22689  20.649  31.987   7.874
 1530POPC   C4B22690  20.457  31.836   7.497
 1531POPC   NC322691  37.512  32.179   9.468
 1531POPC   PO422692  38.067  31.787   9.396
 1531POPC   GL122693  37.858  32.135   9.076
 1531POPC   GL222694  37.559  32.447   9.054
 1531POPC   C1A22695  37.757  32.229   8.643
 1531POPC   D2A22696  37.488  32.035   8.319
 1531POPC   C3A22697  37.685  31.924   7.961
 1531POPC   C4A22698  37.972  32.056   7.667
 1531POPC   C1B22699  37.273  32.447   8.679
 1531POPC   C2B22700  37.166  32.402   8.235
 1531POPC   C3B22701  37.421  32.358   7.827
 1531POPC   C4B22702  37.513  32.090   7.411
 1532POPC   NC322703  42.883   2.189   9.724
 1532POPC   PO422704  43.398   1.792   9.589
 1532POPC   GL122705  43.186   1.971   9.205
 1532POPC   GL222706  42.857   2.155   9.207
 1532POPC   C1A22707  43.126   1.833   8.764
 1532POPC   D2A22708  43.352   1.892   8.380
 1532POPC   C3A22709  43.230   1.648   8.017
 1532POPC   C4A22710  42.843   1.669   7.833
 1532POPC   C1B22711  42.992   2.331   8.822
 1532POPC   C2B22712  43.084   2.358   8.384
 1532POPC   C3B22713  43.095   2.158   7.973
 1532POPC   C4B22714  42.924   2.097   7.550
 1533POPC   NC322715  37.384  16.141   9.542
 1533POPC   PO422716  37.831  15.671   9.487
 1533POPC   GL122717  37.609  15.939   9.130
 1533POPC   GL222718  37.227  16.087   9.075
 1533POPC   C1A22719  37.634  16.108   8.721
 1533POPC   D2A22720  37.868  16.123   8.358
 1533POPC   C3A22721  37.806  15.917   8.009
 1533POPC   C4A22722  37.854  16.136   7.655
 1533POPC   C1B22723  37.224  15.827   8.721
 1533POPC   C2B22724  37.357  15.944   8.292
 1533POPC   C3B22725  37.373  16.154   7.882
 1533POPC   C4B22726  37.447  16.431   7.538
 1534POPC   NC322727  24.350  10.809   9.562
 1534POPC   PO422728  24.749  10.301   9.445
 1534POPC   GL122729  24.419  10.394   9.103
 1534POPC   GL222730  24.210  10.737   9.087
 1534POPC   C1A22731  24.469  10.268   8.654
 1534POPC   D2A22732  24.858  10.104   8.418
 1534POPC   C3A22733  24.822  10.162   7.980
 1534POPC   C4A22734  24.685  10.562   7.856
 1534POPC   C1B22735  24.520  10.768   8.753
 1534POPC   C2B22736  24.701  10.618   8.386
 1534POPC   C3B22737  24.427  10.842   8.173
 1534POPC   C4B22738  24.085  10.727   7.911
 1535POPC   NC322739  24.672  37.195   9.482
 1535POPC   PO422740  24.738  37.804   9.390
 1535POPC   GL122741  24.436  37.628   9.100
 1535POPC   GL222742  24.219  37.325   9.225
 1535POPC   C1A22743  24.582  37.584   8.676
 1535POPC   D2A22744  24.838  37.502   8.296
 1535POPC   C3A22745  24.516  37.472   8.004
 1535POPC   C4A22746  24.376  37.721   7.693
 1535POPC   C1B22747  24.088  37.390   8.786
 1535POPC   C2B22748  24.172  37.478   8.394
 1535POPC   C3B22749  24.010  37.501   8.011
 1535POPC   C4B22750  24.106  37.264   7.688
 1536POPC   NC322751  23.423  34.250   9.462
 1536POPC   PO422752  23.914  33.803   9.379
 1536POPC   GL122753  23.858  33.800   8.985
 1536POPC   GL222754  23.547  33.977   9.037
 1536POPC   C1A22755  23.741  33.836   8.567
 1536POPC   D2A22756  23.991  33.925   8.220
 1536POPC   C3A22757  23.710  33.915   7.971
 1536POPC   C4A22758  23.379  33.642   7.812
 1536POPC   C1B22759  23.575  34.297   8.750
 1536POPC   C2B22760  23.558  34.277   8.326
 1536POPC   C3B22761  23.292  34.174   7.998
 1536POPC   C4B22762  23.471  34.110   7.569
 1537POPC   NC322763  19.178  14.796   9.434
 1537POPC   PO422764  19.161  14.165   9.672
 1537POPC   GL122765  19.041  14.344   9.253
 1537POPC   GL222766  18.783  14.631   9.182
 1537POPC   C1A22767  19.062  14.353   8.815
 1537POPC   D2A22768  19.307  14.312   8.478
 1537POPC   C3A22769  19.176  14.297   8.054
 1537POPC   C4A22770  19.468  14.393   7.709
 1537POPC   C1B22771  18.913  14.831   8.787
 1537POPC   C2B22772  18.913  14.630   8.367
 1537POPC   C3B22773  18.839  14.659   7.909
 1537POPC   C4B22774  18.621  14.800   7.538
 1538POPC   NC322775   2.329  22.652   9.611
 1538POPC   PO422776   2.020  23.250   9.453
 1538POPC   GL122777   2.009  23.098   9.086
 1538POPC   GL222778   1.979  22.750   9.171
 1538POPC   C1A22779   1.840  22.953   8.714
 1538POPC   D2A22780   1.982  22.800   8.314
 1538POPC   C3A22781   1.841  23.031   7.930
 1538POPC   C4A22782   2.036  23.261   7.586
 1538POPC   C1B22783   2.200  22.596   8.779
 1538POPC   C2B22784   2.186  22.339   8.444
 1538POPC   C3B22785   2.282  22.499   8.045
 1538POPC   C4B22786   2.161  22.700   7.671
 1539POPC   NC322787  24.996  21.176   9.523
 1539POPC   PO422788  25.401  21.655   9.469
 1539POPC   GL122789  25.435  21.518   9.088
 1539POPC   GL222790  25.367  21.189   9.170
 1539POPC   C1A22791  25.336  21.607   8.678
 1539POPC   D2A22792  25.384  21.872   8.320
 1539POPC   C3A22793  25.276  21.534   8.055
 1539POPC   C4A22794  25.588  21.462   7.774
 1539POPC   C1B22795  25.172  21.091   8.798
 1539POPC   C2B22796  25.263  21.055   8.376
 1539POPC   C3B22797  25.014  20.947   8.014
 1539POPC   C4B22798  25.180  21.146   7.657
 1540POPC   NC322799   3.820   3.190   9.329
 1540POPC   PO422800   3.513   3.712   9.612
 1540POPC   GL122801   3.485   3.594   9.202
 1540POPC   GL222802   3.751   3.732   9.114
 1540POPC   C1A22803   3.482   3.452   8.777
 1540POPC   D2A22804   3.286   3.396   8.387
 1540POPC   C3A22805   3.429   3.106   8.084
 1540POPC   C4A22806   3.538   3.385   7.753
 1540POPC   C1B22807   3.886   3.766   8.661
 1540POPC   C2B22808   3.675   3.766   8.236
 1540POPC   C3B22809   3.706   3.851   7.795
 1540POPC   C4B22810   3.716   3.731   7.334
 1541POPC   NC322811  13.617   3.797   9.412
 1541POPC   PO422812  13.628   3.134   9.447
 1541POPC   GL122813  13.650   3.380   9.093
 1541POPC   GL222814  13.339   3.537   9.038
 1541POPC   C1A22815  13.719   3.466   8.663
 1541POPC   D2A22816  13.512   3.519   8.303
 1541POPC   C3A22817  13.765   3.572   7.972
 1541POPC   C4A22818  13.633   3.362   7.605
 1541POPC   C1B22819  13.426   3.877   8.709
 1541POPC   C2B22820  13.314   3.998   8.268
 1541POPC   C3B22821  13.360   3.898   7.837
 1541POPC   C4B22822  13.322   3.939   7.395
 1542POPC   NC322823  15.368  42.195   9.456
 1542POPC   PO422824  14.722  42.529   9.588
 1542POPC   GL122825  14.947  42.399   9.201
 1542POPC   GL222826  15.252  42.560   9.085
 1542POPC   C1A22827  14.903  42.498   8.747
 1542POPC   D2A22828  15.067  42.317   8.403
 1542POPC   C3A22829  15.103  42.515   8.056
 1542POPC   C4A22830  14.932  42.373   7.688
 1542POPC   C1B22831  15.454  42.282   8.747
 1542POPC   C2B22832  15.674  42.318   8.365
 1542POPC   C3B22833  15.577  42.308   7.986
 1542POPC   C4B22834  15.461  42.085   7.657
 1543POPC   NC322835   0.789  20.627   9.592
 1543POPC   PO422836   0.108  20.800   9.544
 1543POPC   GL122837   0.371  20.665   9.250
 1543POPC   GL222838   0.098  20.483   9.127
 1543POPC   C1A22839   0.505  20.582   8.836
 1543POPC   D2A22840   0.734  20.760   8.526
 1543POPC   C3A22841   0.684  20.697   8.094
 1543POPC   C4A22842   0.384  20.754   7.793
 1543POPC   C1B22843   0.077  20.337   8.718
 1543POPC   C2B22844   0.262  20.463   8.338
 1543POPC   C3B22845   0.192  20.267   7.936
 1543POPC   C4B22846   0.258  20.326   7.473
 1544POPC   NC322847  18.842   6.492   9.374
 1544POPC   PO422848  19.368   6.600   9.610
 1544POPC   GL122849  19.239   6.661   9.120
 1544POPC   GL222850  18.922   6.828   8.997
 1544POPC   C1A22851  19.058   6.478   8.690
 1544POPC   D2A22852  18.940   6.816   8.377
 1544POPC   C3A22853  18.870   6.667   7.983
 1544POPC   C4A22854  19.064   6.302   7.855
 1544POPC   C1B22855  19.303   6.973   8.722
 1544POPC   C2B22856  19.448   6.883   8.300
 1544POPC   C3B22857  19.278   6.954   7.859
 1544POPC   C4B22858  18.900   6.978   7.562
 1545POPC   NC322859  36.277   3.048   9.432
 1545POPC   PO422860  35.857   2.441   9.449
 1545POPC   GL122861  36.027   2.564   9.045
 1545POPC   GL222862  36.036   2.913   9.009
 1545POPC   C1A22863  36.293   2.660   8.681
 1545POPC   D2A22864  36.211   2.882   8.326
 1545POPC   C3A22865  36.271   2.666   7.938
 1545POPC   C4A22866  36.533   2.732   7.601
 1545POPC   C1B22867  35.783   2.736   8.650
 1545POPC   C2B22868  35.672   2.839   8.269
 1545POPC   C3B22869  35.806   2.855   7.898
 1545POPC   C4B22870  35.604   3.071   7.542
 1546POPC   NC322871  13.751  35.060   9.510
 1546POPC   PO422872  13.518  35.714   9.525
 1546POPC   GL122873  13.480  35.369   9.205
 1546POPC   GL222874  13.811  35.291   9.052
 1546POPC   C1A22875  13.407  35.311   8.752
 1546POPC   D2A22876  13.234  35.510   8.367
 1546POPC   C3A22877  13.515  35.710   8.100
 1546POPC   C4A22878  13.714  35.412   7.851
 1546POPC   C1B22879  13.953  34.980   8.772
 1546POPC   C2B22880  14.029  34.984   8.331
 1546POPC   C3B22881  13.851  34.936   7.927
 1546POPC   C4B22882  13.684  35.030   7.524
 1547POPC   NC322883  35.175  35.244   9.524
 1547POPC   PO422884  35.715  35.160   9.107
 1547POPC   GL122885  35.320  35.365   9.051
 1547POPC   GL222886  35.009  35.217   9.030
 1547POPC   C1A22887  35.192  35.591   8.699
 1547POPC   D2A22888  35.538  35.652   8.412
 1547POPC   C3A22889  35.596  35.356   8.073
 1547POPC   C4A22890  35.453  35.508   7.703
 1547POPC   C1B22891  35.166  34.993   8.696
 1547POPC   C2B22892  35.192  35.074   8.248
 1547POPC   C3B22893  35.208  35.021   7.795
 1547POPC   C4B22894  35.058  35.302   7.464
 1548POPC   NC322895  12.591  18.983   9.525
 1548POPC   PO422896  12.012  19.142   9.645
 1548POPC   GL122897  12.005  19.028   9.207
 1548POPC   GL222898  12.336  19.110   9.097
 1548POPC   C1A22899  12.062  18.763   8.845
 1548POPC   D2A22900  12.386  18.733   8.521
 1548POPC   C3A22901  12.197  18.795   8.130
 1548POPC   C4A22902  12.065  19.026   7.725
 1548POPC   C1B22903  12.130  19.271   8.731
 1548POPC   C2B22904  12.245  19.271   8.284
 1548POPC   C3B22905  12.138  19.521   7.894
 1548POPC   C4B22906  11.978  19.546   7.460
 1549POPC   NC322907  19.958  10.103   9.873
 1549POPC   PO422908  19.618   9.658   9.585
 1549POPC   GL122909  19.822   9.868   9.245
 1549POPC   GL222910  19.903  10.218   9.325
 1549POPC   C1A22911  19.826   9.663   8.835
 1549POPC   D2A22912  20.023   9.722   8.496
 1549POPC   C3A22913  19.792   9.639   8.123
 1549POPC   C4A22914  19.955   9.519   7.720
 1549POPC   C1B22915  19.876  10.176   8.847
 1549POPC   C2B22916  19.724  10.103   8.389
 1549POPC   C3B22917  19.858  10.108   7.928
 1549POPC   C4B22918  19.821  10.193   7.474
 1550POPC   NC322919  30.869   7.187   9.289
 1550POPC   PO422920  30.444   7.570   9.653
 1550POPC   GL122921  30.500   7.544   9.210
 1550POPC   GL222922  30.815   7.719   9.161
 1550POPC   C1A22923  30.562   7.423   8.747
 1550POPC   D2A22924  30.718   7.214   8.353
 1550POPC   C3A22925  30.455   7.157   8.003
 1550POPC   C4A22926  30.393   7.553   7.820
 1550POPC   C1B22927  31.047   7.710   8.777
 1550POPC   C2B22928  31.112   7.576   8.383
 1550POPC   C3B22929  30.845   7.630   8.058
 1550POPC   C4B22930  30.849   7.338   7.716
 1551POPC   NC322931  15.646  39.831   9.544
 1551POPC   PO422932  15.810  40.382   9.349
 1551POPC   GL122933  15.855  39.969   9.099
 1551POPC   GL222934  16.151  39.729   9.143
 1551POPC   C1A22935  15.872  39.839   8.672
 1551POPC   D2A22936  15.716  40.046   8.331
 1551POPC   C3A22937  15.640  39.901   7.942
 1551POPC   C4A22938  15.700  40.269   7.687
 1551POPC   C1B22939  16.331  40.031   8.836
 1551POPC   C2B22940  16.201  40.188   8.445
 1551POPC   C3B22941  16.151  40.069   8.044
 1551POPC   C4B22942  16.077  39.898   7.663
 1552POPC   NC322943  43.689  29.445   9.545
 1552POPC   PO422944  44.187  28.969   9.482
 1552POPC   GL122945  43.881  29.115   9.200
 1552POPC   GL222946  43.712  28.836   9.068
 1552POPC   C1A22947  43.801  29.260   8.781
 1552POPC   D2A22948  43.613  29.293   8.375
 1552POPC   C3A22949  43.944  29.449   8.123
 1552POPC   C4A22950  44.041  29.448   7.692
 1552POPC   C1B22951  43.521  28.806   8.668
 1552POPC   C2B22952  43.644  28.817   8.232
 1552POPC   C3B22953  43.973  28.949   7.946
 1552POPC   C4B22954  43.965  28.913   7.495
 1553POPC   NC322955  10.745  38.150  10.068
 1553POPC   PO422956  10.620  37.815   9.464
 1553POPC   GL122957  10.591  37.674   9.064
 1553POPC   GL222958  10.299  37.462   8.949
 1553POPC   C1A22959  10.629  37.718   8.631
 1553POPC   D2A22960  10.332  37.595   8.369
 1553POPC   C3A22961  10.525  37.654   7.980
 1553POPC   C4A22962  10.805  37.459   7.729
 1553POPC   C1B22963  10.166  37.894   8.792
 1553POPC   C2B22964  10.240  38.122   8.381
 1553POPC   C3B22965  10.266  38.076   7.920
 1553POPC   C4B22966  10.091  37.828   7.554
 1554POPC   NC322967  34.216   7.614   9.797
 1554POPC   PO422968  34.653   7.192   9.504
 1554POPC   GL122969  34.693   7.438   9.162
 1554POPC   GL222970  35.021   7.564   9.148
 1554POPC   C1A22971  34.513   7.446   8.762
 1554POPC   D2A22972  34.199   7.596   8.489
 1554POPC   C3A22973  34.404   7.539   8.127
 1554POPC   C4A22974  34.406   7.360   7.744
 1554POPC   C1B22975  35.042   7.662   8.703
 1554POPC   C2B22976  34.858   7.406   8.371
 1554POPC   C3B22977  34.895   7.432   7.931
 1554POPC   C4B22978  34.978   7.658   7.558
 1555POPC   NC322979  39.366   4.736   9.470
 1555POPC   PO422980  39.071   4.093   9.588
 1555POPC   GL122981  38.947   4.087   9.173
 1555POPC   GL222982  39.047   4.445   9.117
 1555POPC   C1A22983  39.100   4.064   8.738
 1555POPC   D2A22984  39.172   4.364   8.409
 1555POPC   C3A22985  39.390   4.212   8.066
 1555POPC   C4A22986  39.176   4.063   7.685
 1555POPC   C1B22987  39.426   4.537   8.833
 1555POPC   C2B22988  39.608   4.669   8.417
 1555POPC   C3B22989  39.417   4.737   8.014
 1555POPC   C4B22990  39.049   4.539   7.853
 1556POPC   NC322991  36.320  38.774   9.531
 1556POPC   PO422992  35.929  38.126   9.558
 1556POPC   GL122993  35.873  38.287   9.132
 1556POPC   GL222994  36.173  38.445   9.152
 1556POPC   C1A22995  35.900  38.490   8.713
 1556POPC   D2A22996  36.093  38.354   8.334
 1556POPC   C3A22997  35.993  38.535   7.939
 1556POPC   C4A22998  35.882  38.694   7.509
 1556POPC   C1B22999  36.435  38.617   8.821
 1556POPC   C2B23000  36.587  38.473   8.443
 1556POPC   C3B23001  36.500  38.532   8.022
 1556POPC   C4B23002  36.382  38.418   7.610
 1557POPC   NC323003  42.056   1.650   9.330
 1557POPC   PO423004  42.453   2.119   9.578
 1557POPC   GL123005  42.306   2.124   9.156
 1557POPC   GL223006  42.108   2.430   9.128
 1557POPC   C1A23007  42.482   2.201   8.748
 1557POPC   D2A23008  42.693   2.009   8.394
 1557POPC   C3A23009  42.438   1.715   8.146
 1557POPC   C4A23010  42.383   1.843   7.701
 1557POPC   C1B23011  41.944   2.313   8.720
 1557POPC   C2B23012  42.125   2.046   8.398
 1557POPC   C3B23013  42.306   2.218   8.023
 1557POPC   C4B23014  42.042   2.425   7.719
 1558POPC   NC323015  38.677  17.603   9.591
 1558POPC   PO423016  39.328  17.508   9.409
 1558POPC   GL123017  38.996  17.509   9.129
 1558POPC   GL223018  38.988  17.136   9.220
 1558POPC   C1A23019  39.098  17.608   8.680
 1558POPC   D2A23020  39.421  17.620   8.356
 1558POPC   C3A23021  39.359  17.790   7.930
 1558POPC   C4A23022  39.468  17.595   7.538
 1558POPC   C1B23023  39.178  17.115   8.804
 1558POPC   C2B23024  39.073  17.158   8.385
 1558POPC   C3B23025  39.233  17.292   7.999
 1558POPC   C4B23026  38.912  17.357   7.714
 1559POPC   NC323027   2.359   5.593   9.431
 1559POPC   PO423028   2.914   6.000   9.584
 1559POPC   GL123029   2.731   5.846   9.170
 1559POPC   GL223030   2.904   5.632   8.987
 1559POPC   C1A23031   2.454   5.720   8.779
 1559POPC   D2A23032   2.495   5.530   8.361
 1559POPC   C3A23033   2.733   5.741   8.081
 1559POPC   C4A23034   2.652   5.881   7.684
 1559POPC   C1B23035   3.062   5.820   8.627
 1559POPC   C2B23036   2.984   6.103   8.333
 1559POPC   C3B23037   3.092   6.098   7.931
 1559POPC   C4B23038   3.161   5.753   7.694
 1560POPC   NC323039  25.174  37.867   9.258
 1560POPC   PO423040  25.567  37.328   9.385
 1560POPC   GL123041  25.316  37.396   8.987
 1560POPC   GL223042  24.939  37.480   9.025
 1560POPC   C1A23043  25.408  37.427   8.518
 1560POPC   D2A23044  25.489  37.278   8.085
 1560POPC   C3A23045  25.346  37.569   7.770
 1560POPC   C4A23046  25.296  38.025   7.751
 1560POPC   C1B23047  25.059  37.783   8.656
 1560POPC   C2B23048  25.120  37.931   8.247
 1560POPC   C3B23049  24.868  37.826   7.895
 1560POPC   C4B23050  24.862  37.501   7.610
 1561POPC   NC323051  33.910  43.606   9.506
 1561POPC   PO423052  34.080  42.938   9.514
 1561POPC   GL123053  33.849  43.218   9.184
 1561POPC   GL223054  33.605  43.543   9.076
 1561POPC   C1A23055  33.832  43.256   8.737
 1561POPC   D2A23056  33.986  43.222   8.320
 1561POPC   C3A23057  33.760  43.002   8.023
 1561POPC   C4A23058  33.786  43.197   7.626
 1561POPC   C1B23059  33.327  43.316   8.756
 1561POPC   C2B23060  33.368  43.252   8.307
 1561POPC   C3B23061  33.545  43.493   7.976
 1561POPC   C4B23062  33.408  43.513   7.543
 1562POPC   NC323063  36.147  31.563   9.926
 1562POPC   PO423064  36.397  31.579   9.300
 1562POPC   GL123065  36.104  31.424   9.025
 1562POPC   GL223066  35.851  31.214   9.148
 1562POPC   C1A23067  35.972  31.592   8.658
 1562POPC   D2A23068  36.223  31.411   8.372
 1562POPC   C3A23069  36.153  31.607   8.048
 1562POPC   C4A23070  36.316  31.480   7.684
 1562POPC   C1B23071  35.852  31.103   8.691
 1562POPC   C2B23072  35.737  31.297   8.276
 1562POPC   C3B23073  35.806  31.350   7.819
 1562POPC   C4B23074  35.581  31.547   7.486
 1563POPC   NC323075  40.277  23.429   9.374
 1563POPC   PO423076  39.818  23.989   9.525
 1563POPC   GL123077  40.026  23.839   9.145
 1563POPC   GL223078  39.885  23.539   9.059
 1563POPC   C1A23079  40.223  23.737   8.739
 1563POPC   D2A23080  39.988  23.589   8.374
 1563POPC   C3A23081  40.215  23.702   8.001
 1563POPC   C4A23082  40.234  24.119   7.806
 1563POPC   C1B23083  39.634  23.364   8.731
 1563POPC   C2B23084  39.590  23.246   8.300
 1563POPC   C3B23085  39.817  23.301   7.904
 1563POPC   C4B23086  39.945  23.584   7.566
 1564POPC   NC323087   1.150  11.092   9.538
 1564POPC   PO423088   1.632  11.611   9.552
 1564POPC   GL123089   1.371  11.415   9.208
 1564POPC   GL223090   0.992  11.286   9.110
 1564POPC   C1A23091   1.374  11.133   8.824
 1564POPC   D2A23092   1.146  11.196   8.425
 1564POPC   C3A23093   1.295  11.032   8.021
 1564POPC   C4A23094   1.377  11.097   7.534
 1564POPC   C1B23095   0.718  11.423   8.750
 1564POPC   C2B23096   0.555  11.559   8.390
 1564POPC   C3B23097   0.802  11.424   8.087
 1564POPC   C4B23098   1.042  11.400   7.736
 1565POPC   NC323099  37.877   3.091   9.421
 1565POPC   PO423100  38.518   2.755   9.570
 1565POPC   GL123101  38.393   2.615   9.202
 1565POPC   GL223102  38.273   2.939   9.146
 1565POPC   C1A23103  38.549   2.639   8.803
 1565POPC   D2A23104  38.568   2.795   8.405
 1565POPC   C3A23105  38.391   2.513   8.110
 1565POPC   C4A23106  38.581   2.534   7.718
 1565POPC   C1B23107  38.317   3.108   8.762
 1565POPC   C2B23108  38.385   3.267   8.346
 1565POPC   C3B23109  38.315   3.004   7.985
 1565POPC   C4B23110  37.966   3.079   7.713
 1566POPC   NC323111  27.596  44.136   9.477
 1566POPC   PO423112  27.318  43.618   9.615
 1566POPC   GL123113  27.556  43.661   9.201
 1566POPC   GL223114  27.361  43.914   9.073
 1566POPC   C1A23115  27.789  43.878   8.802
 1566POPC   D2A23116  27.924  43.858   8.359
 1566POPC   C3A23117  27.713  43.972   7.952
 1566POPC   C4A23118  27.750  44.182   7.517
 1566POPC   C1B23119  27.402  43.577   8.727
 1566POPC   C2B23120  27.503  43.577   8.288
 1566POPC   C3B23121  27.403  43.553   7.876
 1566POPC   C4B23122  27.335  43.900   7.626
 1567POPC   NC323123  37.381  39.941   9.448
 1567POPC   PO423124  38.059  40.018   9.354
 1567POPC   GL123125  37.744  39.923   9.083
 1567POPC   GL223126  37.649  40.277   9.178
 1567POPC   C1A23127  37.807  39.776   8.673
 1567POPC   D2A23128  37.992  39.970   8.323
 1567POPC   C3A23129  37.787  39.848   7.988
 1567POPC   C4A23130  37.583  39.968   7.643
 1567POPC   C1B23131  37.369  40.305   8.857
 1567POPC   C2B23132  37.518  40.173   8.488
 1567POPC   C3B23133  37.439  40.228   8.074
 1567POPC   C4B23134  37.375  40.452   7.708
 1568POPC   NC323135   2.629  14.629   9.463
 1568POPC   PO423136   2.463  14.078   9.582
 1568POPC   GL123137   2.640  14.224   9.126
 1568POPC   GL223138   2.784  14.587   8.993
 1568POPC   C1A23139   2.727  14.216   8.661
 1568POPC   D2A23140   3.128  14.084   8.444
 1568POPC   C3A23141   3.017  14.129   8.016
 1568POPC   C4A23142   2.720  14.323   7.750
 1568POPC   C1B23143   3.087  14.710   8.667
 1568POPC   C2B23144   3.031  14.908   8.266
 1568POPC   C3B23145   2.749  14.807   7.932
 1568POPC   C4B23146   2.917  14.699   7.499
 1569POPC   NC323147  42.432   4.843   9.415
 1569POPC   PO423148  42.155   5.491   9.614
 1569POPC   GL123149  42.142   5.185   9.145
 1569POPC   GL223150  42.474   4.970   8.934
 1569POPC   C1A23151  42.023   4.879   8.770
 1569POPC   D2A23152  42.271   4.799   8.389
 1569POPC   C3A23153  42.085   4.866   7.986
 1569POPC   C4A23154  42.126   4.720   7.570
 1569POPC   C1B23155  42.346   5.317   8.701
 1569POPC   C2B23156  42.495   5.566   8.399
 1569POPC   C3B23157  42.421   5.450   7.999
 1569POPC   C4B23158  42.367   5.198   7.672
 1570POPC   NC323159  40.967  13.970   9.375
 1570POPC   PO423160  40.478  13.471   9.385
 1570POPC   GL123161  40.632  13.727   9.056
 1570POPC   GL223162  40.991  13.679   8.962
 1570POPC   C1A23163  40.615  13.983   8.705
 1570POPC   D2A23164  40.878  13.755   8.428
 1570POPC   C3A23165  40.762  13.641   8.022
 1570POPC   C4A23166  40.859  13.796   7.608
 1570POPC   C1B23167  41.220  13.451   8.645
 1570POPC   C2B23168  41.326  13.593   8.240
 1570POPC   C3B23169  41.234  13.488   7.854
 1570POPC   C4B23170  40.908  13.200   7.783
 1571POPC   NC323171  14.807  15.760   9.329
 1571POPC   PO423172  15.421  16.131   9.474
 1571POPC   GL123173  15.232  15.950   9.141
 1571POPC   GL223174  15.329  15.610   9.189
 1571POPC   C1A23175  15.000  16.014   8.736
 1571POPC   D2A23176  14.975  16.335   8.445
 1571POPC   C3A23177  14.883  16.170   8.057
 1571POPC   C4A23178  15.156  15.968   7.834
 1571POPC   C1B23179  15.150  15.533   8.778
 1571POPC   C2B23180  15.170  15.661   8.344
 1571POPC   C3B23181  15.224  15.470   7.946
 1571POPC   C4B23182  15.085  15.591   7.531
 1572POPC   NC323183   5.087   4.311   9.678
 1572POPC   PO423184   5.080   3.754   9.702
 1572POPC   GL123185   4.933   3.990   9.284
 1572POPC   GL223186   5.064   4.347   9.180
 1572POPC   C1A23187   4.803   4.131   8.830
 1572POPC   D2A23188   4.755   4.332   8.436
 1572POPC   C3A23189   4.819   4.051   8.084
 1572POPC   C4A23190   5.083   4.223   7.777
 1572POPC   C1B23191   5.171   4.504   8.732
 1572POPC   C2B23192   5.231   4.550   8.267
 1572POPC   C3B23193   5.470   4.549   7.893
 1572POPC   C4B23194   5.506   4.342   7.494
 1573POPC   NC323195  18.331  41.936   9.746
 1573POPC   PO423196  18.556  41.982   9.156
 1573POPC   GL123197  18.268  41.555   9.056
 1573POPC   GL223198  18.228  41.185   9.134
 1573POPC   C1A23199  18.079  41.648   8.670
 1573POPC   D2A23200  18.380  41.894   8.413
 1573POPC   C3A23201  18.384  41.793   7.996
 1573POPC   C4A23202  18.396  41.746   7.578
 1573POPC   C1B23203  18.341  41.219   8.696
 1573POPC   C2B23204  18.204  41.356   8.268
 1573POPC   C3B23205  18.235  41.317   7.826
 1573POPC   C4B23206  18.399  41.119   7.450
 1574POPC   NC323207  28.530   9.627   9.396
 1574POPC   PO423208  28.139  10.074   9.526
 1574POPC   GL123209  28.342  10.025   9.120
 1574POPC   GL223210  28.162   9.729   9.041
 1574POPC   C1A23211  28.564   9.880   8.748
 1574POPC   D2A23212  28.389   9.752   8.351
 1574POPC   C3A23213  28.588   9.886   8.038
 1574POPC   C4A23214  28.639   9.634   7.720
 1574POPC   C1B23215  28.066   9.987   8.652
 1574POPC   C2B23216  28.049  10.085   8.175
 1574POPC   C3B23217  28.199   9.983   7.736
 1574POPC   C4B23218  28.103   9.638   7.430
 1575POPC   NC323219  12.046  28.984   9.583
 1575POPC   PO423220  12.334  29.551   9.358
 1575POPC   GL123221  11.981  29.411   9.085
 1575POPC   GL223222  12.043  29.054   9.052
 1575POPC   C1A23223  11.808  29.281   8.654
 1575POPC   D2A23224  11.897  28.844   8.452
 1575POPC   C3A23225  11.924  28.846   7.990
 1575POPC   C4A23226  11.973  29.274   7.842
 1575POPC   C1B23227  12.316  29.221   8.696
 1575POPC   C2B23228  12.373  29.099   8.249
 1575POPC   C3B23229  12.471  29.114   7.796
 1575POPC   C4B23230  12.549  29.051   7.355
 1576POPC   NC323231  27.393  36.210   9.440
 1576POPC   PO423232  28.018  35.943   9.420
 1576POPC   GL123233  27.850  36.027   9.022
 1576POPC   GL223234  27.685  36.338   9.051
 1576POPC   C1A23235  27.714  36.118   8.583
 1576POPC   D2A23236  27.738  36.179   8.160
 1576POPC   C3A23237  27.605  35.926   7.859
 1576POPC   C4A23238  27.580  36.094   7.467
 1576POPC   C1B23239  27.320  36.387   8.796
 1576POPC   C2B23240  27.351  36.469   8.375
 1576POPC   C3B23241  27.394  36.613   7.996
 1576POPC   C4B23242  27.326  36.584   7.568
 1577POPC   NC323243   8.522  23.635   9.411
 1577POPC   PO423244   7.928  23.398   9.531
 1577POPC   GL123245   8.087  23.549   9.109
 1577POPC   GL223246   8.174  23.905   9.132
 1577POPC   C1A23247   8.264  23.429   8.676
 1577POPC   D2A23248   8.585  23.621   8.390
 1577POPC   C3A23249   8.461  23.745   7.949
 1577POPC   C4A23250   8.211  23.914   7.600
 1577POPC   C1B23251   8.247  23.940   8.699
 1577POPC   C2B23252   8.092  23.765   8.316
 1577POPC   C3B23253   7.754  23.624   8.072
 1577POPC   C4B23254   7.723  23.774   7.646
 1578POPC   NC323255  11.578  22.570   9.333
 1578POPC   PO423256  11.257  21.915   9.363
 1578POPC   GL123257  11.189  22.287   9.130
 1578POPC   GL223258  10.849  22.424   9.117
 1578POPC   C1A23259  11.236  22.513   8.745
 1578POPC   D2A23260  11.415  22.634   8.347
 1578POPC   C3A23261  11.491  22.274   8.106
 1578POPC   C4A23262  11.516  22.217   7.642
 1578POPC   C1B23263  10.868  22.156   8.738
 1578POPC   C2B23264  11.017  22.250   8.343
 1578POPC   C3B23265  10.953  22.246   7.926
 1578POPC   C4B23266  11.031  22.139   7.519
 1579POPC   NC323267  25.893   7.595   9.677
 1579POPC   PO423268  26.524   7.322   9.520
 1579POPC   GL123269  26.282   7.432   9.128
 1579POPC   GL223270  25.973   7.649   9.171
 1579POPC   C1A23271  25.954   7.246   8.836
 1579POPC   D2A23272  25.768   7.330   8.423
 1579POPC   C3A23273  25.980   7.164   8.055
 1579POPC   C4A23274  25.845   7.250   7.628
 1579POPC   C1B23275  25.820   7.748   8.752
 1579POPC   C2B23276  25.614   7.807   8.356
 1579POPC   C3B23277  25.809   7.669   7.958
 1579POPC   C4B23278  26.109   7.728   7.611
 1580POPC   NC323279  40.203   3.146   9.538
 1580POPC   PO423280  39.919   3.789   9.543
 1580POPC   GL123281  39.869   3.615   9.136
 1580POPC   GL223282  40.067   3.289   9.075
 1580POPC   C1A23283  40.046   3.731   8.749
 1580POPC   D2A23284  40.203   3.478   8.446
 1580POPC   C3A23285  40.186   3.672   8.061
 1580POPC   C4A23286  40.394   3.951   7.798
 1580POPC   C1B23287  39.793   3.272   8.731
 1580POPC   C2B23288  39.724   3.440   8.315
 1580POPC   C3B23289  39.848   3.309   7.917
 1580POPC   C4B23290  39.691   3.405   7.500
 1581POPC   NC323291  36.513  13.416   9.960
 1581POPC   PO423292  36.835  13.733   9.514
 1581POPC   GL123293  36.912  13.942   9.140
 1581POPC   GL223294  36.896  13.588   9.021
 1581POPC   C1A23295  36.989  13.987   8.724
 1581POPC   D2A23296  36.847  13.622   8.497
 1581POPC   C3A23297  37.015  13.691   8.116
 1581POPC   C4A23298  36.748  13.693   7.806
 1581POPC   C1B23299  37.209  13.379   8.772
 1581POPC   C2B23300  37.138  13.212   8.339
 1581POPC   C3B23301  36.775  13.230   8.043
 1581POPC   C4B23302  36.951  13.284   7.605
 1582POPC   NC323303  12.138  25.714   9.382
 1582POPC   PO423304  11.693  26.095   9.673
 1582POPC   GL123305  11.850  26.263   9.195
 1582POPC   GL223306  12.172  26.303   9.155
 1582POPC   C1A23307  12.051  26.051   8.730
 1582POPC   D2A23308  12.021  25.870   8.278
 1582POPC   C3A23309  12.273  26.031   7.913
 1582POPC   C4A23310  12.115  26.120   7.460
 1582POPC   C1B23311  11.967  26.542   8.768
 1582POPC   C2B23312  11.889  26.394   8.328
 1582POPC   C3B23313  11.906  26.392   7.869
 1582POPC   C4B23314  12.232  26.568   7.623
 1583POPC   NC323315  42.752  25.185   9.498
 1583POPC   PO423316  42.092  25.317   9.557
 1583POPC   GL123317  42.353  25.253   9.133
 1583POPC   GL223318  42.664  25.064   9.013
 1583POPC   C1A23319  42.380  25.362   8.673
 1583POPC   D2A23320  42.135  25.603   8.366
 1583POPC   C3A23321  42.271  25.490   7.977
 1583POPC   C4A23322  42.108  25.181   7.750
 1583POPC   C1B23323  42.769  25.045   8.573
 1583POPC   C2B23324  42.518  25.030   8.155
 1583POPC   C3B23325  42.611  25.141   7.693
 1583POPC   C4B23326  42.825  25.001   7.294
 1584POPC   NC323327  26.955  23.957   9.583
 1584POPC   PO423328  26.400  23.930   9.741
 1584POPC   GL123329  26.656  23.869   9.195
 1584POPC   GL223330  27.051  23.858   9.085
 1584POPC   C1A23331  26.649  23.517   8.862
 1584POPC   D2A23332  26.812  23.287   8.504
 1584POPC   C3A23333  26.928  23.555   8.145
 1584POPC   C4A23334  26.699  23.700   7.781
 1584POPC   C1B23335  27.001  23.796   8.643
 1584POPC   C2B23336  26.885  24.053   8.315
 1584POPC   C3B23337  27.072  24.082   7.918
 1584POPC   C4B23338  27.192  23.716   7.678
 1585POPC   NC323339  37.554  12.881   9.620
 1585POPC   PO423340  38.174  12.995   9.327
 1585POPC   GL123341  37.667  13.077   9.107
 1585POPC   GL223342  37.417  12.739   9.114
 1585POPC   C1A23343  37.597  13.068   8.640
 1585POPC   D2A23344  37.874  12.918   8.288
 1585POPC   C3A23345  37.810  12.951   7.845
 1585POPC   C4A23346  37.949  12.721   7.408
 1585POPC   C1B23347  37.526  12.564   8.706
 1585POPC   C2B23348  37.636  12.454   8.333
 1585POPC   C3B23349  37.461  12.595   7.997
 1585POPC   C4B23350  37.503  12.559   7.581
 1586POPC   NC323351  32.419  31.753   9.423
 1586POPC   PO423352  31.992  31.164   9.286
 1586POPC   GL123353  32.304  31.379   9.077
 1586POPC   GL223354  32.076  31.630   9.038
 1586POPC   C1A23355  32.507  31.350   8.677
 1586POPC   D2A23356  32.609  31.132   8.302
 1586POPC   C3A23357  32.479  31.250   7.919
 1586POPC   C4A23358  32.088  31.363   7.741
 1586POPC   C1B23359  32.220  31.750   8.671
 1586POPC   C2B23360  32.506  31.748   8.295
 1586POPC   C3B23361  32.313  31.792   7.882
 1586POPC   C4B23362  31.948  31.877   7.629
 1587POPC   NC323363   3.880  44.766   9.509
 1587POPC   PO423364   3.234  44.772   9.512
 1587POPC   GL123365   3.336  44.504   9.183
 1587POPC   GL223366   3.658  44.579   9.081
 1587POPC   C1A23367   3.120  44.579   8.825
 1587POPC   D2A23368   3.030  44.544   8.386
 1587POPC   C3A23369   3.371  44.461   8.081
 1587POPC   C4A23370   3.339  44.782   7.752
 1587POPC   C1B23371   3.577  44.600   8.612
 1587POPC   C2B23372   3.626  44.845   8.238
 1587POPC   C3B23373   3.807  44.698   7.839
 1587POPC   C4B23374   3.674  44.906   7.391
 1588POPC   NC323375  44.233  25.079   9.466
 1588POPC   PO423376  44.807  25.430   9.482
 1588POPC   GL123377  44.459  25.477   9.208
 1588POPC   GL223378  44.482  25.155   9.029
 1588POPC   C1A23379  44.492  25.635   8.798
 1588POPC   D2A23380  44.852  25.579   8.507
 1588POPC   C3A23381  44.807  25.236   8.197
 1588POPC   C4A23382  44.807  25.363   7.793
 1588POPC   C1B23383  44.337  24.787   8.778
 1588POPC   C2B23384  44.078  24.724   8.422
 1588POPC   C3B23385  44.050  24.888   8.001
 1588POPC   C4B23386  44.371  25.114   7.805
 1589POPC   NC323387  17.729  26.850   9.867
 1589POPC   PO423388  17.248  26.723   9.495
 1589POPC   GL123389  17.392  26.739   9.065
 1589POPC   GL223390  17.346  26.468   8.859
 1589POPC   C1A23391  17.397  26.936   8.655
 1589POPC   D2A23392  17.167  27.011   8.296
 1589POPC   C3A23393  17.275  26.912   7.870
 1589POPC   C4A23394  17.381  26.738   7.496
 1589POPC   C1B23395  17.773  26.582   8.664
 1589POPC   C2B23396  18.050  26.523   8.295
 1589POPC   C3B23397  18.008  26.646   7.825
 1589POPC   C4B23398  17.991  26.955   7.460
 1590POPC   NC323399  32.131  33.355   9.618
 1590POPC   PO423400  31.769  33.894   9.468
 1590POPC   GL123401  32.104  33.675   9.180
 1590POPC   GL223402  32.380  33.431   9.098
 1590POPC   C1A23403  32.388  33.918   8.897
 1590POPC   D2A23404  32.344  34.049   8.465
 1590POPC   C3A23405  32.544  33.914   8.116
 1590POPC   C4A23406  32.341  33.843   7.741
 1590POPC   C1B23407  32.530  33.497   8.657
 1590POPC   C2B23408  32.292  33.495   8.267
 1590POPC   C3B23409  32.025  33.479   7.893
 1590POPC   C4B23410  32.106  33.525   7.429
 1591POPC   NC323411   1.488   3.418   9.381
 1591POPC   PO423412   0.880   3.680   9.526
 1591POPC   GL123413   1.068   3.649   9.070
 1591POPC   GL223414   1.440   3.730   9.010
 1591POPC   C1A23415   1.179   3.392   8.653
 1591POPC   D2A23416   1.235   3.232   8.230
 1591POPC   C3A23417   1.138   3.550   7.937
 1591POPC   C4A23418   0.992   3.662   7.536
 1591POPC   C1B23419   1.261   3.885   8.653
 1591POPC   C2B23420   1.443   3.706   8.326
 1591POPC   C3B23421   1.636   3.565   7.981
 1591POPC   C4B23422   1.528   3.650   7.581
 1592POPC   NC323423   4.934  32.828   9.814
 1592POPC   PO423424   4.337  33.058   9.658
 1592POPC   GL123425   4.510  33.122   9.284
 1592POPC   GL223426   4.616  33.448   9.253
 1592POPC   C1A23427   4.426  33.028   8.880
 1592POPC   D2A23428   4.605  32.955   8.504
 1592POPC   C3A23429   4.318  32.992   8.176
 1592POPC   C4A23430   4.249  33.159   7.792
 1592POPC   C1B23431   4.702  33.449   8.810
 1592POPC   C2B23432   4.453  33.449   8.445
 1592POPC   C3B23433   4.559  33.497   8.023
 1592POPC   C4B23434   4.766  33.290   7.682
 1593POPC   NC323435  44.925  42.475   9.466
 1593POPC   PO423436  44.420  42.008   9.405
 1593POPC   GL123437  44.712  42.174   9.110
 1593POPC   GL223438  44.592  42.510   9.067
 1593POPC   C1A23439  44.829  42.297   8.689
 1593POPC   D2A23440  44.631  42.536   8.366
 1593POPC   C3A23441  44.684  42.311   7.984
 1593POPC   C4A23442  44.391  41.991   7.800
 1593POPC   C1B23443  44.820  42.788   8.803
 1593POPC   C2B23444  44.678  43.051   8.462
 1593POPC   C3B23445  44.581  42.967   8.039
 1593POPC   C4B23446  44.871  42.772   7.812
 1594POPC   NC323447  34.220   5.241   9.943
 1594POPC   PO423448  33.837   5.018   9.444
 1594POPC   GL123449  33.750   5.109   9.032
 1594POPC   GL223450  33.421   4.946   8.925
 1594POPC   C1A23451  33.815   5.186   8.635
 1594POPC   D2A23452  33.790   5.381   8.267
 1594POPC   C3A23453  34.104   5.248   8.024
 1594POPC   C4A23454  34.048   5.038   7.658
 1594POPC   C1B23455  33.623   4.704   8.661
 1594POPC   C2B23456  33.842   4.794   8.314
 1594POPC   C3B23457  33.682   4.915   7.983
 1594POPC   C4B23458  33.614   4.765   7.603
 1595POPC   NC323459  27.014  37.133   9.368
 1595POPC   PO423460  26.707  36.596   9.628
 1595POPC   GL123461  26.581  36.839   9.249
 1595POPC   GL223462  26.479  37.188   9.241
 1595POPC   C1A23463  26.789  36.914   8.827
 1595POPC   D2A23464  26.863  36.936   8.411
 1595POPC   C3A23465  26.906  36.662   8.111
 1595POPC   C4A23466  27.090  36.967   7.831
 1595POPC   C1B23467  26.289  36.999   8.855
 1595POPC   C2B23468  26.413  36.708   8.520
 1595POPC   C3B23469  26.421  36.874   8.122
 1595POPC   C4B23470  26.602  36.846   7.744
 1596POPC   NC323471  11.888  33.285   9.643
 1596POPC   PO423472  12.410  32.949   9.644
 1596POPC   GL123473  12.221  33.159   9.247
 1596POPC   GL223474  11.843  33.111   9.146
 1596POPC   C1A23475  12.194  33.112   8.784
 1596POPC   D2A23476  11.870  33.142   8.463
 1596POPC   C3A23477  12.044  33.166   8.050
 1596POPC   C4A23478  12.258  32.874   7.780
 1596POPC   C1B23479  11.855  32.728   8.827
 1596POPC   C2B23480  11.759  32.565   8.417
 1596POPC   C3B23481  11.858  32.679   8.007
 1596POPC   C4B23482  11.769  32.801   7.561
 1597POPC   NC323483  38.240  13.439   9.488
 1597POPC   PO423484  38.794  13.780   9.322
 1597POPC   GL123485  38.561  13.751   9.022
 1597POPC   GL223486  38.260  13.874   9.164
 1597POPC   C1A23487  38.610  13.691   8.588
 1597POPC   D2A23488  38.340  13.479   8.351
 1597POPC   C3A23489  38.570  13.566   8.032
 1597POPC   C4A23490  38.422  13.346   7.721
 1597POPC   C1B23491  38.221  13.960   8.712
 1597POPC   C2B23492  38.288  13.980   8.265
 1597POPC   C3B23493  38.119  13.737   7.895
 1597POPC   C4B23494  38.092  13.705   7.407
 1598POPC   NC323495   6.350   4.427   9.486
 1598POPC   PO423496   7.008   4.577   9.403
 1598POPC   GL123497   6.728   4.279   9.141
 1598POPC   GL223498   6.946   4.002   8.996
 1598POPC   C1A23499   6.540   4.146   8.727
 1598POPC   D2A23500   6.675   4.097   8.322
 1598POPC   C3A23501   6.379   4.306   8.055
 1598POPC   C4A23502   6.402   4.224   7.623
 1598POPC   C1B23503   6.957   4.423   8.730
 1598POPC   C2B23504   6.807   4.621   8.378
 1598POPC   C3B23505   6.841   4.476   7.974
 1598POPC   C4B23506   6.871   4.545   7.567
 1599POPC   NC323507  20.034   4.458   9.387
 1599POPC   PO423508  20.421   4.018   9.748
 1599POPC   GL123509  20.520   4.130   9.283
 1599POPC   GL223510  20.276   4.230   9.047
 1599POPC   C1A23511  20.688   4.119   8.813
 1599POPC   D2A23512  20.869   4.378   8.488
 1599POPC   C3A23513  20.657   4.581   8.163
 1599POPC   C4A23514  20.748   4.378   7.787
 1599POPC   C1B23515  20.181   4.386   8.663
 1599POPC   C2B23516  20.251   4.236   8.292
 1599POPC   C3B23517  20.235   4.324   7.902
 1599POPC   C4B23518  20.370   4.166   7.534
 1600POPC   NC323519   7.596   9.176   9.479
 1600POPC   PO423520   7.740   8.548   9.461
 1600POPC   GL123521   7.473   8.723   9.111
 1600POPC   GL223522   7.354   9.074   9.067
 1600POPC   C1A23523   7.500   8.807   8.672
 1600POPC   D2A23524   7.704   9.004   8.368
 1600POPC   C3A23525   7.430   8.923   8.075
 1600POPC   C4A23526   7.512   8.769   7.696
 1600POPC   C1B23527   7.601   9.308   8.769
 1600POPC   C2B23528   7.382   9.404   8.377
 1600POPC   C3B23529   7.389   9.405   7.958
 1600POPC   C4B23530   7.745   9.218   7.790
 1601POPC   NC323531  19.900  42.013   9.410
 1601POPC   PO423532  20.053  42.607   9.727
 1601POPC   GL123533  20.046  42.588   9.267
 1601POPC   GL223534  20.206  42.320   9.118
 1601POPC   C1A23535  19.808  42.640   8.875
 1601POPC   D2A23536  19.836  42.527   8.450
 1601POPC   C3A23537  19.601  42.610   8.092
 1601POPC   C4A23538  19.869  42.689   7.733
 1601POPC   C1B23539  19.954  42.125   8.771
 1601POPC   C2B23540  19.572  42.096   8.487
 1601POPC   C3B23541  19.533  42.083   8.025
 1601POPC   C4B23542  19.686  42.223   7.615
 1602POPC   NC323543   9.298  34.376   9.654
 1602POPC   PO423544   8.746  34.767   9.452
 1602POPC   GL123545   9.048  34.541   9.243
 1602POPC   GL223546   8.886  34.240   9.342
 1602POPC   C1A23547   9.339  34.520   8.882
 1602POPC   D2A23548   9.192  34.463   8.472
 1602POPC   C3A23549   9.413  34.414   8.094
 1602POPC   C4A23550   9.168  34.523   7.752
 1602POPC   C1B23551   8.909  34.211   8.874
 1602POPC   C2B23552   8.724  34.272   8.468
 1602POPC   C3B23553   8.928  34.221   8.092
 1602POPC   C4B23554   8.850  34.098   7.718
 1603POPC   NC323555  31.748  42.385   9.559
 1603POPC   PO423556  31.086  42.465   9.506
 1603POPC   GL123557  31.376  42.384   9.147
 1603POPC   GL223558  31.700  42.221   9.088
 1603POPC   C1A23559  31.383  42.364   8.706
 1603POPC   D2A23560  31.476  42.573   8.380
 1603POPC   C3A23561  31.369  42.361   8.051
 1603POPC   C4A23562  31.556  42.326   7.674
 1603POPC   C1B23563  31.660  41.951   8.754
 1603POPC   C2B23564  31.482  41.953   8.377
 1603POPC   C3B23565  31.625  41.906   7.991
 1603POPC   C4B23566  31.978  42.094   7.836
 1604POPC   NC323567  44.053   1.281   9.590
 1604POPC   PO423568  44.363   1.862   9.322
 1604POPC   GL123569  44.118   1.568   9.017
 1604POPC   GL223570  43.852   1.287   9.114
 1604POPC   C1A23571  44.113   1.253   8.659
 1604POPC   D2A23572  43.966   1.078   8.293
 1604POPC   C3A23573  44.133   1.343   7.977
 1604POPC   C4A23574  43.875   1.503   7.679
 1604POPC   C1B23575  43.743   0.945   8.806
 1604POPC   C2B23576  43.531   0.769   8.472
 1604POPC   C3B23577  43.688   0.692   8.052
 1604POPC   C4B23578  43.939   0.927   7.765
 1605POPC   NC323579   6.974  22.898   9.534
 1605POPC   PO423580   6.357  23.124   9.483
 1605POPC   GL123581   6.569  23.146   9.076
 1605POPC   GL223582   6.816  22.884   9.051
 1605POPC   C1A23583   6.467  23.010   8.642
 1605POPC   D2A23584   6.278  22.887   8.227
 1605POPC   C3A23585   6.444  23.075   7.832
 1605POPC   C4A23586   6.400  23.141   7.371
 1605POPC   C1B23587   6.995  23.073   8.687
 1605POPC   C2B23588   6.818  23.094   8.272
 1605POPC   C3B23589   6.870  22.804   7.912
 1605POPC   C4B23590   6.730  22.724   7.510
 1606POPC   NC323591  13.765  40.654   9.479
 1606POPC   PO423592  13.089  40.592   9.434
 1606POPC   GL123593  13.413  40.716   9.111
 1606POPC   GL223594  13.607  40.431   9.045
 1606POPC   C1A23595  13.666  40.809   8.701
 1606POPC   D2A23596  13.889  40.915   8.298
 1606POPC   C3A23597  13.641  40.970   7.983
 1606POPC   C4A23598  13.325  40.731   7.824
 1606POPC   C1B23599  13.930  40.329   8.731
 1606POPC   C2B23600  14.036  40.409   8.275
 1606POPC   C3B23601  13.758  40.463   7.928
 1606POPC   C4B23602  13.550  40.341   7.540
 1607POPC   NC323603  15.005   3.344   9.465
 1607POPC   PO423604  14.965   3.977   9.497
 1607POPC   GL123605  15.248   3.880   9.179
 1607POPC   GL223606  15.449   3.607   9.288
 1607POPC   C1A23607  15.156   3.669   8.772
 1607POPC   D2A23608  14.939   3.400   8.476
 1607POPC   C3A23609  14.654   3.621   8.193
 1607POPC   C4A23610  14.760   3.535   7.786
 1607POPC   C1B23611  15.512   3.355   8.919
 1607POPC   C2B23612  15.459   3.358   8.462
 1607POPC   C3B23613  15.261   3.523   8.077
 1607POPC   C4B23614  15.436   3.529   7.669
 1608POPC   NC323615  34.179  17.513   9.536
 1608POPC   PO423616  33.603  17.318   9.729
 1608POPC   GL123617  33.701  17.460   9.271
 1608POPC   GL223618  33.978  17.685   9.133
 1608POPC   C1A23619  33.709  17.359   8.811
 1608POPC   D2A23620  33.619  17.568   8.408
 1608POPC   C3A23621  33.788  17.376   8.055
 1608POPC   C4A23622  33.482  17.255   7.788
 1608POPC   C1B23623  33.957  17.801   8.765
 1608POPC   C2B23624  34.109  17.643   8.395
 1608POPC   C3B23625  34.023  17.828   7.965
 1608POPC   C4B23626  33.771  17.873   7.626
 1609POPC   NC323627   7.839   8.095   9.381
 1609POPC   PO423628   8.511   8.221   9.577
 1609POPC   GL123629   8.336   8.170   9.203
 1609POPC   GL223630   8.137   8.439   9.153
 1609POPC   C1A23631   8.299   8.001   8.805
 1609POPC   D2A23632   8.506   7.907   8.432
 1609POPC   C3A23633   8.228   8.079   8.127
 1609POPC   C4A23634   8.339   8.205   7.704
 1609POPC   C1B23635   7.887   8.490   8.820
 1609POPC   C2B23636   7.838   8.365   8.435
 1609POPC   C3B23637   7.832   8.583   8.069
 1609POPC   C4B23638   7.890   8.426   7.680
 1610POPC   NC323639  38.871   6.225   9.577
 1610POPC   PO423640  39.410   6.746   9.459
 1610POPC   GL123641  39.179   6.508   9.246
 1610POPC   GL223642  39.082   6.800   9.054
 1610POPC   C1A23643  39.265   6.366   8.827
 1610POPC   D2A23644  39.281   6.234   8.406
 1610POPC   C3A23645  39.630   6.130   8.171
 1610POPC   C4A23646  39.583   6.373   7.793
 1610POPC   C1B23647  39.355   6.848   8.707
 1610POPC   C2B23648  39.295   6.793   8.260
 1610POPC   C3B23649  39.120   6.579   7.877
 1610POPC   C4B23650  39.102   6.735   7.444
 1611POPC   NC323651  35.916  24.244   9.420
 1611POPC   PO423652  36.397  24.733   9.489
 1611POPC   GL123653  36.160  24.634   9.129
 1611POPC   GL223654  36.267  24.281   9.014
 1611POPC   C1A23655  36.288  24.671   8.692
 1611POPC   D2A23656  36.216  24.298   8.429
 1611POPC   C3A23657  36.153  24.413   8.058
 1611POPC   C4A23658  36.115  24.597   7.714
 1611POPC   C1B23659  35.874  24.368   8.790
 1611POPC   C2B23660  35.675  24.186   8.432
 1611POPC   C3B23661  35.881  23.986   8.074
 1611POPC   C4B23662  35.938  24.116   7.631
 1612POPC   NC323663  29.137  10.331   9.509
 1612POPC   PO423664  28.689  10.805   9.562
 1612POPC   GL123665  28.968  10.725   9.184
 1612POPC   GL223666  29.324  10.630   9.146
 1612POPC   C1A23667  28.967  10.513   8.771
 1612POPC   D2A23668  29.010  10.100   8.540
 1612POPC   C3A23669  28.948  10.227   8.131
 1612POPC   C4A23670  28.998  10.612   7.913
 1612POPC   C1B23671  29.487  10.423   8.754
 1612POPC   C2B23672  29.414  10.379   8.309
 1612POPC   C3B23673  29.539  10.476   7.906
 1612POPC   C4B23674  29.697  10.226   7.552
 1613POPC   NC323675   7.304  13.366   9.502
 1613POPC   PO423676   7.831  13.640   9.333
 1613POPC   GL123677   7.523  13.531   9.058
 1613POPC   GL223678   7.160  13.517   9.051
 1613POPC   C1A23679   7.426  13.674   8.656
 1613POPC   D2A23680   7.519  13.521   8.281
 1613POPC   C3A23681   7.519  13.851   7.964
 1613POPC   C4A23682   7.272  13.685   7.671
 1613POPC   C1B23683   7.011  13.376   8.654
 1613POPC   C2B23684   6.992  13.504   8.220
 1613POPC   C3B23685   6.987  13.297   7.821
 1613POPC   C4B23686   7.018  13.342   7.369
 1614POPC   NC323687  24.188  43.738   9.484
 1614POPC   PO423688  24.672  44.222   9.503
 1614POPC   GL123689  24.630  43.910   9.176
 1614POPC   GL223690  24.288  43.935   9.034
 1614POPC   C1A23691  24.680  43.817   8.724
 1614POPC   D2A23692  24.526  43.977   8.321
 1614POPC   C3A23693  24.667  43.785   7.955
 1614POPC   C4A23694  24.730  43.910   7.557
 1614POPC   C1B23695  24.126  44.083   8.628
 1614POPC   C2B23696  24.010  43.805   8.246
 1614POPC   C3B23697  24.191  43.635   7.856
 1614POPC   C4B23698  24.163  43.801   7.433
 1615POPC   NC323699  41.501  22.600   9.619
 1615POPC   PO423700  41.493  23.238   9.566
 1615POPC   GL123701  41.457  22.887   9.210
 1615POPC   GL223702  41.717  22.577   9.152
 1615POPC   C1A23703  41.391  22.760   8.782
 1615POPC   D2A23704  41.369  22.875   8.353
 1615POPC   C3A23705  41.518  23.143   8.015
 1615POPC   C4A23706  41.423  22.844   7.663
 1615POPC   C1B23707  41.836  22.533   8.713
 1615POPC   C2B23708  41.868  22.693   8.275
 1615POPC   C3B23709  41.889  22.820   7.821
 1615POPC   C4B23710  41.857  22.852   7.367
 1616POPC   NC323711  43.906  32.603   9.854
 1616POPC   PO423712  44.014  32.022   9.522
 1616POPC   GL123713  43.868  32.064   9.091
 1616POPC   GL223714  43.537  32.117   9.198
 1616POPC   C1A23715  43.789  32.062   8.635
 1616POPC   D2A23716  43.961  31.864   8.266
 1616POPC   C3A23717  44.165  32.176   7.996
 1616POPC   C4A23718  44.114  32.607   7.855
 1616POPC   C1B23719  43.320  32.113   8.804
 1616POPC   C2B23720  43.186  32.172   8.412
 1616POPC   C3B23721  43.560  32.214   8.191
 1616POPC   C4B23722  43.706  32.003   7.845
 1617POPC   NC323723  16.397  14.129   9.764
 1617POPC   PO423724  17.018  14.438   9.738
 1617POPC   GL123725  17.035  14.460   9.225
 1617POPC   GL223726  16.730  14.599   9.127
 1617POPC   C1A23727  17.022  14.424   8.783
 1617POPC   D2A23728  16.799  14.190   8.465
 1617POPC   C3A23729  16.883  14.353   8.054
 1617POPC   C4A23730  16.775  14.062   7.740
 1617POPC   C1B23731  16.514  14.432   8.823
 1617POPC   C2B23732  16.400  14.595   8.436
 1617POPC   C3B23733  16.362  14.415   8.040
 1617POPC   C4B23734  16.551  14.501   7.666
 1618POPC   NC323735  12.812   9.413   9.472
 1618POPC   PO423736  12.872   9.949   9.822
 1618POPC   GL123737  12.934   9.877   9.280
 1618POPC   GL223738  12.667   9.815   9.044
 1618POPC   C1A23739  13.069   9.692   8.790
 1618POPC   D2A23740  13.014   9.467   8.343
 1618POPC   C3A23741  13.133   9.679   7.943
 1618POPC   C4A23742  12.919   9.946   7.692
 1618POPC   C1B23743  12.612   9.430   8.788
 1618POPC   C2B23744  12.510   9.318   8.363
 1618POPC   C3B23745  12.650   9.431   7.958
 1618POPC   C4B23746  12.837   9.467   7.565
 1619POPC   NC323747   0.189   4.830   9.480
 1619POPC   PO423748   0.688   5.297   9.399
 1619POPC   GL123749   0.347   5.211   9.164
 1619POPC   GL223750   0.530   4.917   9.077
 1619POPC   C1A23751   0.315   5.385   8.760
 1619POPC   D2A23752   0.520   5.108   8.482
 1619POPC   C3A23753   0.469   5.266   8.090
 1619POPC   C4A23754   0.334   5.135   7.661
 1619POPC   C1B23755   0.145   4.914   8.811
 1619POPC   C2B23756  44.999   5.056   8.433
 1619POPC   C3B23757   0.121   4.896   8.061
 1619POPC   C4B23758  44.943   4.646   7.762
 1620POPC   NC323759   8.868  24.476   9.308
 1620POPC   PO423760   9.384  24.863   9.398
 1620POPC   GL123761   9.292  24.585   9.018
 1620POPC   GL223762   9.169  24.221   8.988
 1620POPC   C1A23763   9.040  24.577   8.625
 1620POPC   D2A23764   9.134  24.752   8.217
 1620POPC   C3A23765   9.032  24.544   7.850
 1620POPC   C4A23766   9.214  24.197   7.669
 1620POPC   C1B23767   8.764  24.133   8.749
 1620POPC   C2B23768   8.572  24.173   8.362
 1620POPC   C3B23769   8.788  24.132   7.999
 1620POPC   C4B23770   8.674  24.115   7.580
 1621POPC   NC323771  23.806  33.370   9.479
 1621POPC   PO423772  23.342  32.906   9.469
 1621POPC   GL123773  23.511  32.988   9.090
 1621POPC   GL223774  23.847  32.943   9.158
 1621POPC   C1A23775  23.671  32.833   8.696
 1621POPC   D2A23776  24.034  32.932   8.449
 1621POPC   C3A23777  23.833  32.943   8.069
 1621POPC   C4A23778  23.953  33.007   7.648
 1621POPC   C1B23779  23.866  33.295   8.812
 1621POPC   C2B23780  23.692  33.354   8.376
 1621POPC   C3B23781  23.827  33.428   7.940
 1621POPC   C4B23782  24.208  33.463   7.703
 1622POPC   NC323783   2.032  26.221   9.528
 1622POPC   PO423784   1.624  25.747   9.513
 1622POPC   GL123785   1.913  25.887   9.124
 1622POPC   GL223786   2.271  26.084   9.098
 1622POPC   C1A23787   2.032  25.920   8.675
 1622POPC   D2A23788   1.764  25.974   8.314
 1622POPC   C3A23789   1.931  26.163   7.951
 1622POPC   C4A23790   2.341  26.022   7.856
 1622POPC   C1B23791   2.224  26.391   8.754
 1622POPC   C2B23792   2.146  26.369   8.366
 1622POPC   C3B23793   2.289  26.556   8.014
 1622POPC   C4B23794   2.133  26.514   7.615
 1623POPC   NC323795  16.678  43.204   9.600
 1623POPC   PO423796  16.668  42.644   9.250
 1623POPC   GL123797  16.967  42.964   9.115
 1623POPC   GL223798  16.809  43.311   9.115
 1623POPC   C1A23799  16.853  43.015   8.683
 1623POPC   D2A23800  16.568  43.155   8.365
 1623POPC   C3A23801  16.521  42.924   7.985
 1623POPC   C4A23802  16.273  42.910   7.625
 1623POPC   C1B23803  17.028  43.471   8.743
 1623POPC   C2B23804  17.070  43.305   8.306
 1623POPC   C3B23805  16.807  43.345   7.916
 1623POPC   C4B23806  16.651  43.204   7.489
 1624POPC   NC323807  31.251  43.768   9.938
 1624POPC   PO423808  31.847  43.904   9.658
 1624POPC   GL123809  31.716  43.889   9.093
 1624POPC   GL223810  31.576  43.569   8.923
 1624POPC   C1A23811  31.507  44.036   8.676
 1624POPC   D2A23812  31.165  44.008   8.350
 1624POPC   C3A23813  31.272  43.905   7.915
 1624POPC   C4A23814  31.659  44.018   7.740
 1624POPC   C1B23815  31.310  43.573   8.586
 1624POPC   C2B23816  31.549  43.657   8.265
 1624POPC   C3B23817  31.866  43.631   8.004
 1624POPC   C4B23818  31.766  43.493   7.619
 1625POPC   NC323819   3.207   8.857   9.344
 1625POPC   PO423820   3.901   8.862   9.500
 1625POPC   GL123821   3.731   8.766   9.120
 1625POPC   GL223822   3.631   9.096   9.129
 1625POPC   C1A23823   3.543   8.818   8.700
 1625POPC   D2A23824   3.746   8.882   8.307
 1625POPC   C3A23825   3.494   8.752   7.962
 1625POPC   C4A23826   3.328   8.988   7.605
 1625POPC   C1B23827   3.792   9.268   8.768
 1625POPC   C2B23828   3.749   9.397   8.361
 1625POPC   C3B23829   3.668   9.243   7.943
 1625POPC   C4B23830   3.749   9.255   7.515
 1626POPC   NC323831  21.561  28.666   9.477
 1626POPC   PO423832  21.225  29.277   9.577
 1626POPC   GL123833  21.298  29.193   9.180
 1626POPC   GL223834  21.293  29.545   9.102
 1626POPC   C1A23835  21.601  29.067   8.894
 1626POPC   D2A23836  21.608  28.801   8.554
 1626POPC   C3A23837  21.524  28.911   8.152
 1626POPC   C4A23838  21.672  29.101   7.786
 1626POPC   C1B23839  21.192  29.399   8.695
 1626POPC   C2B23840  21.105  29.161   8.321
 1626POPC   C3B23841  21.169  29.152   7.865
 1626POPC   C4B23842  21.246  29.463   7.574
 1627POPC   NC323843  37.156  40.925   9.446
 1627POPC   PO423844  36.591  40.608   9.510
 1627POPC   GL123845  36.858  40.589   9.159
 1627POPC   GL223846  36.707  40.900   9.094
 1627POPC   C1A23847  37.055  40.697   8.749
 1627POPC   D2A23848  37.188  40.642   8.314
 1627POPC   C3A23849  36.849  40.671   8.012
 1627POPC   C4A23850  36.920  40.683   7.593
 1627POPC   C1B23851  36.730  41.098   8.693
 1627POPC   C2B23852  37.090  41.201   8.443
 1627POPC   C3B23853  37.161  41.100   8.035
 1627POPC   C4B23854  36.892  41.224   7.707
 1628POPC   NC323855  13.426  42.205   9.709
 1628POPC   PO423856  13.866  42.566   9.336
 1628POPC   GL123857  13.651  42.554   8.949
 1628POPC   GL223858  13.651  42.216   8.781
 1628POPC   C1A23859  13.314  42.537   8.628
 1628POPC   D2A23860  13.366  42.288   8.270
 1628POPC   C3A23861  13.664  42.466   7.989
 1628POPC   C4A23862  13.398  42.518   7.652
 1628POPC   C1B23863  13.868  42.443   8.476
 1628POPC   C2B23864  14.104  42.192   8.202
 1628POPC   C3B23865  14.078  42.221   7.774
 1628POPC   C4B23866  13.751  42.215   7.456
 1629POPC   NC323867  12.177  39.699   9.498
 1629POPC   PO423868  12.036  40.309   9.515
 1629POPC   GL123869  11.983  40.046   9.141
 1629POPC   GL223870  12.324  39.964   9.076
 1629POPC   C1A23871  11.925  39.865   8.715
 1629POPC   D2A23872  12.054  39.998   8.281
 1629POPC   C3A23873  11.911  39.769   7.901
 1629POPC   C4A23874  11.738  39.884   7.492
 1629POPC   C1B23875  12.433  39.902   8.660
 1629POPC   C2B23876  12.302  39.577   8.368
 1629POPC   C3B23877  12.394  39.636   7.964
 1629POPC   C4B23878  12.334  39.887   7.623
 1630POPC   NC323879   4.688  36.693   9.566
 1630POPC   PO423880   4.283  37.219   9.607
 1630POPC   GL123881   4.301  37.180   9.165
 1630POPC   GL223882   4.456  36.858   9.128
 1630POPC   C1A23883   4.441  37.246   8.739
 1630POPC   D2A23884   4.372  36.976   8.408
 1630POPC   C3A23885   4.442  37.167   8.038
 1630POPC   C4A23886   4.441  37.049   7.612
 1630POPC   C1B23887   4.332  36.604   8.777
 1630POPC   C2B23888   4.509  36.428   8.404
 1630POPC   C3B23889   4.406  36.643   8.019
 1630POPC   C4B23890   4.271  36.530   7.653
 1631POPC   NC323891  24.465   9.932   9.436
 1631POPC   PO423892  24.769   9.301   9.467
 1631POPC   GL123893  24.566   9.525   9.121
 1631POPC   GL223894  24.584   9.886   8.964
 1631POPC   C1A23895  24.411   9.455   8.743
 1631POPC   D2A23896  24.486   9.774   8.447
 1631POPC   C3A23897  24.352   9.746   8.034
 1631POPC   C4A23898  24.289   9.531   7.647
 1631POPC   C1B23899  24.145   9.909   8.812
 1631POPC   C2B23900  24.065  10.066   8.395
 1631POPC   C3B23901  24.271  10.256   8.028
 1631POPC   C4B23902  24.311  10.052   7.610
 1632POPC   NC323903  24.631  31.325   9.535
 1632POPC   PO423904  24.060  31.556   9.578
 1632POPC   GL123905  24.221  31.296   9.209
 1632POPC   GL223906  24.423  31.505   9.088
 1632POPC   C1A23907  24.354  31.162   8.730
 1632POPC   D2A23908  24.278  31.403   8.330
 1632POPC   C3A23909  24.442  31.302   7.933
 1632POPC   C4A23910  24.616  31.291   7.509
 1632POPC   C1B23911  24.719  31.510   8.766
 1632POPC   C2B23912  24.780  31.543   8.377
 1632POPC   C3B23913  24.590  31.754   8.109
 1632POPC   C4B23914  24.709  31.740   7.723
 1633POPC   NC323915  44.755  44.344   9.283
 1633POPC   PO423916  44.666  43.711   9.572
 1633POPC   GL123917  44.596  43.847   9.183
 1633POPC   GL223918  44.319  44.074   9.216
 1633POPC   C1A23919  44.718  43.842   8.764
 1633POPC   D2A23920  44.557  44.046   8.401
 1633POPC   C3A23921  44.789  44.025   8.038
 1633POPC   C4A23922  44.864  43.766   7.689
 1633POPC   C1B23923  44.290  44.265   8.807
 1633POPC   C2B23924  44.162  44.384   8.398
 1633POPC   C3B23925  44.185  44.116   8.019
 1633POPC   C4B23926  44.440  44.037   7.661
 1634POPC   NC323927   9.392  36.031   9.391
 1634POPC   PO423928   9.981  36.418   9.488
 1634POPC   GL123929   9.790  36.249   9.137
 1634POPC   GL223930   9.969  35.977   8.980
 1634POPC   C1A23931   9.710  36.356   8.702
 1634POPC   D2A23932   9.593  36.101   8.339
 1634POPC   C3A23933   9.510  36.302   7.955
 1634POPC   C4A23934   9.825  36.521   7.724
 1634POPC   C1B23935   9.679  35.748   8.705
 1634POPC   C2B23936   9.689  35.614   8.261
 1634POPC   C3B23937   9.674  35.850   7.860
 1634POPC   C4B23938   9.291  35.879   7.600
 1635POPC   NC323939  10.603   8.507   9.539
 1635POPC   PO423940  10.101   8.044   9.557
 1635POPC   GL123941  10.280   8.173   9.134
 1635POPC   GL223942  10.607   8.285   9.091
 1635POPC   C1A23943  10.427   8.123   8.663
 1635POPC   D2A23944  10.171   8.018   8.299
 1635POPC   C3A23945  10.316   8.107   7.877
 1635POPC   C4A23946  10.347   8.148   7.427
 1635POPC   C1B23947  10.742   8.572   8.819
 1635POPC   C2B23948  10.817   8.488   8.393
 1635POPC   C3B23949  10.812   8.581   7.969
 1635POPC   C4B23950  10.827   8.263   7.692
 1636POPC   NC323951   2.989   0.161   9.542
 1636POPC   PO423952   2.544   0.638   9.465
 1636POPC   GL123953   2.847   0.513   9.191
 1636POPC   GL223954   2.629   0.235   9.096
 1636POPC   C1A23955   2.925   0.683   8.806
 1636POPC   D2A23956   2.667   0.517   8.496
 1636POPC   C3A23957   2.686   0.634   8.074
 1636POPC   C4A23958   2.912   0.486   7.790
 1636POPC   C1B23959   3.030   0.116   8.892
 1636POPC   C2B23960   3.240   0.009   8.516
 1636POPC   C3B23961   3.171   0.136   8.080
 1636POPC   C4B23962   2.877  44.988   7.714
 1637POPC   NC323963  41.383  35.666   9.502
 1637POPC   PO423964  41.740  35.146   9.764
 1637POPC   GL123965  41.700  35.158   9.273
 1637POPC   GL223966  41.494  35.417   9.066
 1637POPC   C1A23967  41.675  34.959   8.846
 1637POPC   D2A23968  41.896  35.007   8.450
 1637POPC   C3A23969  41.641  35.042   8.067
 1637POPC   C4A23970  41.604  35.308   7.730
 1637POPC   C1B23971  41.608  35.561   8.654
 1637POPC   C2B23972  41.625  35.572   8.192
 1637POPC   C3B23973  41.711  35.815   7.830
 1637POPC   C4B23974  41.450  35.752   7.489
 1638POPC   NC323975  34.611  33.214   9.455
 1638POPC   PO423976  34.177  32.684   9.501
 1638POPC   GL123977  34.377  32.873   9.148
 1638POPC   GL223978  34.773  32.850   9.130
 1638POPC   C1A23979  34.442  32.986   8.734
 1638POPC   D2A23980  34.579  32.784   8.387
 1638POPC   C3A23981  34.421  32.963   8.039
 1638POPC   C4A23982  34.488  33.245   7.704
 1638POPC   C1B23983  34.952  33.140   8.810
 1638POPC   C2B23984  35.034  32.993   8.425
 1638POPC   C3B23985  34.902  33.048   8.007
 1638POPC   C4B23986  34.985  33.203   7.625
 1639POPC   NC323987  14.952  24.844   9.390
 1639POPC   PO423988  15.194  24.248   9.492
 1639POPC   GL123989  15.020  24.403   9.121
 1639POPC   GL223990  15.282  24.652   9.029
 1639POPC   C1A23991  14.895  24.575   8.712
 1639POPC   D2A23992  15.174  24.665   8.389
 1639POPC   C3A23993  15.223  24.453   8.003
 1639POPC   C4A23994  15.153  24.571   7.587
 1639POPC   C1B23995  15.354  24.307   8.735
 1639POPC   C2B23996  15.421  24.105   8.341
 1639POPC   C3B23997  15.562  24.036   7.925
 1639POPC   C4B23998  15.560  24.269   7.553
 1640POPC   NC323999  24.306  34.692   9.345
 1640POPC   PO424000  23.591  34.700   9.566
 1640POPC   GL124001  23.724  34.568   9.157
 1640POPC   GL224002  23.954  34.302   9.094
 1640POPC   C1A24003  23.919  34.695   8.750
 1640POPC   D2A24004  24.030  34.949   8.395
 1640POPC   C3A24005  23.848  34.854   8.021
 1640POPC   C4A24006  23.558  34.565   7.851
 1640POPC   C1B24007  24.088  34.224   8.650
 1640POPC   C2B24008  24.050  34.428   8.230
 1640POPC   C3B24009  23.994  34.311   7.766
 1640POPC   C4B24010  23.871  34.300   7.307
 1641POPC   NC324011  10.193  37.607   9.435
 1641POPC   PO424012   9.624  37.912   9.493
 1641POPC   GL124013   9.724  37.616   9.189
 1641POPC   GL224014   9.462  37.728   9.024
 1641POPC   C1A24015   9.819  37.523   8.737
 1641POPC   D2A24016   9.839  37.783   8.370
 1641POPC   C3A24017   9.995  37.611   7.994
 1641POPC   C4A24018   9.795  37.404   7.672
 1641POPC   C1B24019   9.294  37.398   8.789
 1641POPC   C2B24020   9.238  37.491   8.366
 1641POPC   C3B24021   9.467  37.618   8.013
 1641POPC   C4B24022   9.478  37.788   7.593
 1642POPC   NC324023   3.952  41.508   9.433
 1642POPC   PO424024   3.450  41.806   9.443
 1642POPC   GL124025   3.654  41.741   9.075
 1642POPC   GL224026   3.603  41.370   9.079
 1642POPC   C1A24027   3.570  41.658   8.641
 1642POPC   D2A24028   3.499  41.497   8.230
 1642POPC   C3A24029   3.654  41.791   7.920
 1642POPC   C4A24030   3.614  41.703   7.498
 1642POPC   C1B24031   3.616  41.124   8.705
 1642POPC   C2B24032   3.542  40.975   8.301
 1642POPC   C3B24033   3.436  41.075   7.900
 1642POPC   C4B24034   3.449  41.200   7.464
 1643POPC   NC324035  44.796  39.552   9.628
 1643POPC   PO424036  44.822  40.290   9.561
 1643POPC   GL124037  44.721  40.129   9.127
 1643POPC   GL224038  44.529  40.279   8.983
 1643POPC   C1A24039  44.849  39.875   8.757
 1643POPC   D2A24040  44.926  39.666   8.340
 1643POPC   C3A24041  44.845  39.919   7.957
 1643POPC   C4A24042  44.904  40.078   7.517
 1643POPC   C1B24043  44.341  39.948   8.809
 1643POPC   C2B24044  44.444  39.831   8.417
 1643POPC   C3B24045  44.345  40.004   8.046
 1643POPC   C4B24046  44.464  40.256   7.719
 1644POPC   NC324047  37.908  14.433   9.764
 1644POPC   PO424048  37.296  14.236   9.492
 1644POPC   GL124049  37.532  14.428   9.161
 1644POPC   GL224050  37.838  14.661   9.120
 1644POPC   C1A24051  37.472  14.489   8.741
 1644POPC   D2A24052  37.626  14.656   8.374
 1644POPC   C3A24053  37.457  14.442   8.011
 1644POPC   C4A24054  37.373  14.265   7.618
 1644POPC   C1B24055  37.953  14.321   8.911
 1644POPC   C2B24056  37.854  14.219   8.487
 1644POPC   C3B24057  37.956  14.354   8.091
 1644POPC   C4B24058  37.864  14.121   7.714
 1645POPC   NC324059  36.669  41.743   9.752
 1645POPC   PO424060  36.121  41.508   9.501
 1645POPC   GL124061  36.302  41.437   9.127
 1645POPC   GL224062  36.382  41.772   9.148
 1645POPC   C1A24063  36.210  41.316   8.707
 1645POPC   D2A24064  36.030  41.545   8.358
 1645POPC   C3A24065  36.159  41.415   7.943
 1645POPC   C4A24066  36.068  41.343   7.512
 1645POPC   C1B24067  36.166  41.836   8.785
 1645POPC   C2B24068  36.047  42.073   8.436
 1645POPC   C3B24069  35.966  41.958   8.028
 1645POPC   C4B24070  36.096  41.895   7.615
 1646POPC   NC324071   1.129  13.709   9.551
 1646POPC   PO424072   1.301  13.096   9.364
 1646POPC   GL124073   1.326  13.484   9.135
 1646POPC   GL224074   1.510  13.460   8.835
 1646POPC   C1A24075   1.111  13.807   8.879
 1646POPC   D2A24076   0.945  13.844   8.472
 1646POPC   C3A24077   1.162  13.595   8.171
 1646POPC   C4A24078   1.016  13.762   7.812
 1646POPC   C1B24079   1.092  13.274   8.717
 1646POPC   C2B24080   0.845  13.197   8.337
 1646POPC   C3B24081   0.993  13.170   7.907
 1646POPC   C4B24082   1.080  13.365   7.527
 1647POPC   NC324083  39.859   1.358   9.359
 1647POPC   PO424084  40.263   0.842   9.414
 1647POPC   GL124085  40.098   0.805   9.008
 1647POPC   GL224086  39.862   1.079   8.919
 1647POPC   C1A24087  40.243   0.946   8.602
 1647POPC   D2A24088  39.968   1.107   8.325
 1647POPC   C3A24089  39.917   0.937   7.931
 1647POPC   C4A24090  40.040   0.952   7.501
 1647POPC   C1B24091  40.124   1.440   8.756
 1647POPC   C2B24092  40.281   1.507   8.342
 1647POPC   C3B24093  40.247   1.342   7.938
 1647POPC   C4B24094  39.878   1.388   7.730
 1648POPC   NC324095  25.117  36.081   9.577
 1648POPC   PO424096  25.722  36.469   9.514
 1648POPC   GL124097  25.484  36.174   9.183
 1648POPC   GL224098  25.117  36.124   9.073
 1648POPC   C1A24099  25.415  36.241   8.697
 1648POPC   D2A24100  25.268  36.023   8.344
 1648POPC   C3A24101  25.210  36.256   7.997
 1648POPC   C4A24102  25.349  36.034   7.667
 1648POPC   C1B24103  24.952  35.780   8.780
 1648POPC   C2B24104  24.762  35.771   8.374
 1648POPC   C3B24105  24.959  35.769   7.990
 1648POPC   C4B24106  25.080  35.616   7.595
 1649POPC   NC324107   5.670   0.125   9.393
 1649POPC   PO424108   6.258   0.390   9.599
 1649POPC   GL124109   6.040   0.460   9.165
 1649POPC   GL224110   5.698   0.445   9.014
 1649POPC   C1A24111   6.068   0.350   8.705
 1649POPC   D2A24112   6.277   0.421   8.331
 1649POPC   C3A24113   6.031   0.406   8.000
 1649POPC   C4A24114   5.921   0.493   7.557
 1649POPC   C1B24115   5.583   0.084   8.731
 1649POPC   C2B24116   5.591  44.938   8.294
 1649POPC   C3B24117   5.382   0.082   7.920
 1649POPC   C4B24118   5.448   0.260   7.461
 1650POPC   NC324119  25.932  17.217   9.884
 1650POPC   PO424120  25.959  17.725   9.449
 1650POPC   GL124121  26.144  17.819   9.066
 1650POPC   GL224122  26.355  17.534   9.049
 1650POPC   C1A24123  25.880  17.679   8.712
 1650POPC   D2A24124  25.680  17.334   8.523
 1650POPC   C3A24125  25.705  17.392   8.105
 1650POPC   C4A24126  25.746  17.284   7.675
 1650POPC   C1B24127  26.367  17.558   8.659
 1650POPC   C2B24128  26.170  17.527   8.292
 1650POPC   C3B24129  26.166  17.560   7.853
 1650POPC   C4B24130  25.807  17.810   7.793
 1651POPC   NC324131  34.014  37.080   9.453
 1651POPC   PO424132  33.556  36.612   9.426
 1651POPC   GL124133  33.597  36.751   9.012
 1651POPC   GL224134  33.758  37.068   9.033
 1651POPC   C1A24135  33.804  36.802   8.608
 1651POPC   D2A24136  33.795  36.858   8.199
 1651POPC   C3A24137  34.133  36.768   7.953
 1651POPC   C4A24138  33.926  36.508   7.666
 1651POPC   C1B24139  33.518  37.214   8.737
 1651POPC   C2B24140  33.402  37.159   8.342
 1651POPC   C3B24141  33.534  37.261   7.949
 1651POPC   C4B24142  33.761  36.993   7.709
 1652POPC   NC324143   4.835  23.772   9.655
 1652POPC   PO424144   5.459  23.564   9.461
 1652POPC   GL124145   5.126  23.765   9.222
 1652POPC   GL224146   4.878  23.458   9.247
 1652POPC   C1A24147   5.129  24.023   8.826
 1652POPC   D2A24148   5.068  23.852   8.420
 1652POPC   C3A24149   5.078  24.064   8.039
 1652POPC   C4A24150   5.422  24.144   7.794
 1652POPC   C1B24151   4.714  23.676   8.875
 1652POPC   C2B24152   4.688  23.514   8.451
 1652POPC   C3B24153   4.892  23.536   8.045
 1652POPC   C4B24154   5.089  23.703   7.683
 1653POPC   NC324155  34.823  18.892   9.507
 1653POPC   PO424156  34.243  19.245   9.486
 1653POPC   GL124157  34.492  19.046   9.132
 1653POPC   GL224158  34.807  19.186   8.971
 1653POPC   C1A24159  34.407  18.883   8.730
 1653POPC   D2A24160  34.228  18.990   8.351
 1653POPC   C3A24161  34.327  18.807   7.975
 1653POPC   C4A24162  34.237  19.052   7.625
 1653POPC   C1B24163  34.918  18.808   8.752
 1653POPC   C2B24164  34.752  18.785   8.332
 1653POPC   C3B24165  34.875  18.859   7.892
 1653POPC   C4B24166  34.721  19.022   7.487
 1654POPC   NC324167   0.779   9.703   9.397
 1654POPC   PO424168   1.436  10.065   9.546
 1654POPC   GL124169   1.229   9.882   9.210
 1654POPC   GL224170   0.983  10.136   9.106
 1654POPC   C1A24171   1.329   9.767   8.782
 1654POPC   D2A24172   1.155   9.625   8.375
 1654POPC   C3A24173   1.281   9.718   7.942
 1654POPC   C4A24174   1.142   9.545   7.556
 1654POPC   C1B24175   1.027  10.182   8.656
 1654POPC   C2B24176   1.398  10.126   8.380
 1654POPC   C3B24177   1.503  10.171   7.941
 1654POPC   C4B24178   1.101  10.173   7.728
 1655POPC   NC324179  28.465  10.390   9.453
 1655POPC   PO424180  28.290  11.114   9.345
 1655POPC   GL124181  28.160  10.732   9.184
 1655POPC   GL224182  28.480  10.706   9.068
 1655POPC   C1A24183  28.159  10.466   8.776
 1655POPC   D2A24184  28.489  10.292   8.442
 1655POPC   C3A24185  28.427  10.376   7.987
 1655POPC   C4A24186  28.015  10.480   7.781
 1655POPC   C1B24187  28.552  10.963   8.731
 1655POPC   C2B24188  28.687  10.886   8.320
 1655POPC   C3B24189  28.521  10.857   7.908
 1655POPC   C4B24190  28.292  10.860   7.540
 1656POPC   NC324191  33.138   4.316   9.812
 1656POPC   PO424192  32.578   4.155   9.464
 1656POPC   GL124193  32.872   4.480   9.209
 1656POPC   GL224194  33.252   4.576   9.276
 1656POPC   C1A24195  32.842   4.496   8.735
 1656POPC   D2A24196  32.873   4.143   8.402
 1656POPC   C3A24197  32.933   4.265   7.977
 1656POPC   C4A24198  32.696   4.592   7.786
 1656POPC   C1B24199  33.317   4.355   8.865
 1656POPC   C2B24200  33.283   4.442   8.393
 1656POPC   C3B24201  33.224   4.679   8.005
 1656POPC   C4B24202  33.149   4.571   7.564
 1657POPC   NC324203  18.107  41.958   9.264
 1657POPC   PO424204  18.525  42.424   9.640
 1657POPC   GL124205  18.486  42.535   9.164
 1657POPC   GL224206  18.258  42.324   8.918
 1657POPC   C1A24207  18.409  42.763   8.743
 1657POPC   D2A24208  18.082  42.653   8.415
 1657POPC   C3A24209  18.195  42.330   8.144
 1657POPC   C4A24210  18.232  42.222   7.741
 1657POPC   C1B24211  17.975  42.147   8.584
 1657POPC   C2B24212  17.909  41.896   8.197
 1657POPC   C3B24213  17.910  41.837   7.727
 1657POPC   C4B24214  18.094  42.022   7.278
 1658POPC   NC324215  26.401   1.998   9.510
 1658POPC   PO424216  26.960   1.714   9.690
 1658POPC   GL124217  26.976   1.976   9.310
 1658POPC   GL224218  27.345   1.974   9.169
 1658POPC   C1A24219  26.737   2.063   8.911
 1658POPC   D2A24220  26.711   1.752   8.544
 1658POPC   C3A24221  26.710   1.979   8.146
 1658POPC   C4A24222  26.701   2.063   7.728
 1658POPC   C1B24223  27.167   1.849   8.763
 1658POPC   C2B24224  27.172   1.884   8.321
 1658POPC   C3B24225  27.108   1.779   7.877
 1658POPC   C4B24226  27.162   2.102   7.542
 1659POPC   NC324227   1.070   8.851   9.449
 1659POPC   PO424228   1.150   9.505   9.576
 1659POPC   GL124229   1.190   9.290   9.194
 1659POPC   GL224230   1.511   9.089   9.266
 1659POPC   C1A24231   1.140   8.969   8.816
 1659POPC   D2A24232   1.278   8.664   8.466
 1659POPC   C3A24233   1.236   8.825   8.018
 1659POPC   C4A24234   0.935   9.086   7.735
 1659POPC   C1B24235   1.552   9.284   8.859
 1659POPC   C2B24236   1.447   9.168   8.456
 1659POPC   C3B24237   1.502   9.276   8.061
 1659POPC   C4B24238   1.454   9.154   7.674
 1660POPC   NC324239  38.627   8.378   9.461
 1660POPC   PO424240  38.187   7.948   9.509
 1660POPC   GL124241  38.433   8.074   9.106
 1660POPC   GL224242  38.835   8.095   9.108
 1660POPC   C1A24243  38.232   8.169   8.719
 1660POPC   D2A24244  37.976   7.935   8.436
 1660POPC   C3A24245  38.183   8.004   8.060
 1660POPC   C4A24246  38.244   8.281   7.715
 1660POPC   C1B24247  38.746   8.259   8.709
 1660POPC   C2B24248  38.546   8.312   8.315
 1660POPC   C3B24249  38.708   8.336   7.915
 1660POPC   C4B24250  38.664   8.060   7.543
 1661POPC   NC324251   3.075  16.350   9.336
 1661POPC   PO424252   2.694  15.890   9.611
 1661POPC   GL124253   2.636  16.101   9.186
 1661POPC   GL224254   2.267  16.120   9.135
 1661POPC   C1A24255   2.867  16.096   8.751
 1661POPC   D2A24256   2.730  16.260   8.332
 1661POPC   C3A24257   2.852  16.109   7.928
 1661POPC   C4A24258   2.854  15.743   7.674
 1661POPC   C1B24259   2.395  15.921   8.751
 1661POPC   C2B24260   2.522  15.757   8.380
 1661POPC   C3B24261   2.354  15.967   8.058
 1661POPC   C4B24262   2.423  16.033   7.629
 1662POPC   NC324263  18.075   5.237   9.385
 1662POPC   PO424264  18.626   4.793   9.457
 1662POPC   GL124265  18.351   4.901   9.102
 1662POPC   GL224266  17.963   4.838   9.091
 1662POPC   C1A24267  18.469   4.933   8.681
 1662POPC   D2A24268  18.484   4.688   8.318
 1662POPC   C3A24269  18.529   4.954   7.972
 1662POPC   C4A24270  18.432   5.045   7.542
 1662POPC   C1B24271  17.968   5.117   8.712
 1662POPC   C2B24272  18.143   5.069   8.291
 1662POPC   C3B24273  18.038   5.032   7.865
 1662POPC   C4B24274  18.030   5.325   7.478
 1663POPC   NC324275   7.972  42.694   9.289
 1663POPC   PO424276   8.299  43.247   9.465
 1663POPC   GL124277   8.109  43.141   9.099
 1663POPC   GL224278   8.385  42.897   9.051
 1663POPC   C1A24279   7.834  43.273   8.760
 1663POPC   D2A24280   7.982  43.502   8.423
 1663POPC   C3A24281   7.888  43.429   8.026
 1663POPC   C4A24282   8.142  43.249   7.722
 1663POPC   C1B24283   8.309  43.098   8.636
 1663POPC   C2B24284   8.228  43.052   8.194
 1663POPC   C3B24285   8.508  42.906   7.854
 1663POPC   C4B24286   8.631  42.576   7.574
 1664POPC   NC324287   7.666  38.098   9.232
 1664POPC   PO424288   7.118  37.748   9.542
 1664POPC   GL124289   7.357  37.614   9.163
 1664POPC   GL224290   7.629  37.363   9.120
 1664POPC   C1A24291   7.268  37.444   8.756
 1664POPC   D2A24292   7.343  37.649   8.385
 1664POPC   C3A24293   7.333  37.418   8.016
 1664POPC   C4A24294   7.452  37.582   7.626
 1664POPC   C1B24295   7.757  37.613   8.746
 1664POPC   C2B24296   8.033  37.904   8.516
 1664POPC   C3B24297   8.075  38.055   8.082
 1664POPC   C4B24298   7.848  37.871   7.729
 1665POPC   NC324299  19.437   3.836   9.337
 1665POPC   PO424300  18.954   4.271   9.641
 1665POPC   GL124301  19.049   4.164   9.248
 1665POPC   GL224302  19.336   4.394   9.211
 1665POPC   C1A24303  19.012   4.172   8.812
 1665POPC   D2A24304  18.924   4.488   8.477
 1665POPC   C3A24305  18.787   4.326   8.078
 1665POPC   C4A24306  19.001   4.391   7.693
 1665POPC   C1B24307  19.346   4.565   8.776
 1665POPC   C2B24308  19.371   4.741   8.352
 1665POPC   C3B24309  19.356   4.412   8.042
 1665POPC   C4B24310  19.512   4.270   7.632
 1666POPC   NC324311  14.799   1.855   9.387
 1666POPC   PO424312  14.138   1.646   9.251
 1666POPC   GL124313  14.391   1.943   9.018
 1666POPC   GL224314  14.440   1.741   8.755
 1666POPC   C1A24315  14.366   2.227   8.640
 1666POPC   D2A24316  14.587   2.069   8.245
 1666POPC   C3A24317  14.433   1.679   7.993
 1666POPC   C4A24318  14.215   1.692   7.607
 1666POPC   C1B24319  14.823   2.008   8.729
 1666POPC   C2B24320  15.000   2.293   8.467
 1666POPC   C3B24321  15.016   2.288   8.040
 1666POPC   C4B24322  14.675   2.227   7.747
 1667POPC   NC324323  16.977  37.318   9.876
 1667POPC   PO424324  16.426  37.659   9.628
 1667POPC   GL124325  16.636  37.587   9.243
 1667POPC   GL224326  16.589  37.896   9.085
 1667POPC   C1A24327  16.812  37.468   8.827
 1667POPC   D2A24328  16.678  37.429   8.378
 1667POPC   C3A24329  16.762  37.827   8.116
 1667POPC   C4A24330  16.886  37.870   7.684
 1667POPC   C1B24331  16.268  37.996   8.773
 1667POPC   C2B24332  16.342  37.853   8.407
 1667POPC   C3B24333  16.281  37.965   8.010
 1667POPC   C4B24334  16.399  37.748   7.681
 1668POPC   NC324335  35.624  44.314   9.484
 1668POPC   PO424336  35.348  44.803   9.786
 1668POPC   GL124337  35.305  44.652   9.254
 1668POPC   GL224338  35.576  44.606   9.045
 1668POPC   C1A24339  35.170  44.754   8.806
 1668POPC   D2A24340  35.086  44.441   8.472
 1668POPC   C3A24341  35.001  44.621   8.090
 1668POPC   C4A24342  35.128  44.757   7.712
 1668POPC   C1B24343  35.670  44.606   8.581
 1668POPC   C2B24344  35.515  44.673   8.142
 1668POPC   C3B24345  35.615  44.622   7.679
 1668POPC   C4B24346  35.748  44.587   7.234
 1669POPC   NC324347  20.943  41.770   9.625
 1669POPC   PO424348  20.298  41.775   9.428
 1669POPC   GL124349  20.521  41.906   9.053
 1669POPC   GL224350  20.896  41.959   8.960
 1669POPC   C1A24351  20.524  41.878   8.615
 1669POPC   D2A24352  20.593  41.711   8.221
 1669POPC   C3A24353  20.341  41.863   7.881
 1669POPC   C4A24354  20.188  41.855   7.426
 1669POPC   C1B24355  21.018  41.767   8.528
 1669POPC   C2B24356  21.013  41.406   8.229
 1669POPC   C3B24357  20.743  41.410   7.834
 1669POPC   C4B24358  20.890  41.622   7.407
 1670POPC   NC324359   3.843  37.213   9.443
 1670POPC   PO424360   3.478  36.650   9.441
 1670POPC   GL124361   3.619  36.874   9.116
 1670POPC   GL224362   3.960  36.744   9.165
 1670POPC   C1A24363   3.507  36.937   8.689
 1670POPC   D2A24364   3.485  36.676   8.331
 1670POPC   C3A24365   3.495  36.924   7.988
 1670POPC   C4A24366   3.549  36.849   7.600
 1670POPC   C1B24367   3.994  37.017   8.777
 1670POPC   C2B24368   3.886  36.984   8.314
 1670POPC   C3B24369   3.990  37.000   7.849
 1670POPC   C4B24370   4.033  36.876   7.379
 1671POPC   NC324371  38.957  20.755   9.686
 1671POPC   PO424372  39.382  20.262   9.603
 1671POPC   GL124373  39.343  20.666   9.339
 1671POPC   GL224374  38.998  20.593   9.199
 1671POPC   C1A24375  39.404  20.756   8.884
 1671POPC   D2A24376  39.551  20.672   8.456
 1671POPC   C3A24377  39.311  20.688   8.096
 1671POPC   C4A24378  39.454  20.628   7.697
 1671POPC   C1B24379  38.970  20.386   8.780
 1671POPC   C2B24380  38.864  20.478   8.327
 1671POPC   C3B24381  38.988  20.315   7.916
 1671POPC   C4B24382  39.066  20.383   7.418
 1672POPC   NC324383  18.036  22.656   9.448
 1672POPC   PO424384  18.293  23.213   9.441
 1672POPC   GL124385  18.571  23.154   9.069
 1672POPC   GL224386  18.667  22.818   9.190
 1672POPC   C1A24387  18.461  23.227   8.603
 1672POPC   D2A24388  18.046  23.228   8.446
 1672POPC   C3A24389  17.974  23.113   8.017
 1672POPC   C4A24390  18.144  22.983   7.612
 1672POPC   C1B24391  18.602  22.724   8.749
 1672POPC   C2B24392  18.342  22.796   8.387
 1672POPC   C3B24393  18.304  22.682   7.988
 1672POPC   C4B24394  18.196  22.373   7.712
 1673POPC   NC324395  38.429  40.165   9.607
 1673POPC   PO424396  38.514  39.543   9.458
 1673POPC   GL124397  38.492  39.808   9.078
 1673POPC   GL224398  38.420  40.178   9.043
 1673POPC   C1A24399  38.380  39.808   8.643
 1673POPC   D2A24400  38.561  39.868   8.224
 1673POPC   C3A24401  38.326  39.890   7.836
 1673POPC   C4A24402  38.495  39.998   7.420
 1673POPC   C1B24403  38.236  40.311   8.647
 1673POPC   C2B24404  38.324  40.337   8.202
 1673POPC   C3B24405  38.023  40.303   7.874
 1673POPC   C4B24406  38.140  40.368   7.471
 1674POPC   NC324407  37.973  34.572   9.524
 1674POPC   PO424408  37.360  34.394   9.607
 1674POPC   GL124409  37.516  34.288   9.217
 1674POPC   GL224410  37.824  34.135   9.263
 1674POPC   C1A24411  37.588  34.507   8.845
 1674POPC   D2A24412  37.564  34.813   8.523
 1674POPC   C3A24413  37.600  34.640   8.128
 1674POPC   C4A24414  37.557  34.599   7.698
 1674POPC   C1B24415  38.056  34.317   8.910
 1674POPC   C2B24416  38.009  34.544   8.499
 1674POPC   C3B24417  38.011  34.311   8.113
 1674POPC   C4B24418  38.118  34.343   7.681
 1675POPC   NC324419  25.346  22.105   9.398
 1675POPC   PO424420  25.698  22.624   9.583
 1675POPC   GL124421  25.418  22.540   9.133
 1675POPC   GL224422  25.042  22.397   9.086
 1675POPC   C1A24423  25.357  22.277   8.708
 1675POPC   D2A24424  25.022  22.256   8.366
 1675POPC   C3A24425  25.241  22.284   7.958
 1675POPC   C4A24426  25.627  22.097   7.818
 1675POPC   C1B24427  24.997  21.962   8.813
 1675POPC   C2B24428  24.891  21.759   8.396
 1675POPC   C3B24429  24.906  21.895   7.996
 1675POPC   C4B24430  25.191  21.858   7.672
 1676POPC   NC324431  42.270  37.192   9.481
 1676POPC   PO424432  42.410  36.563   9.434
 1676POPC   GL124433  42.175  36.817   9.131
 1676POPC   GL224434  42.375  37.064   8.996
 1676POPC   C1A24435  42.063  36.810   8.679
 1676POPC   D2A24436  42.118  36.653   8.246
 1676POPC   C3A24437  42.181  36.906   7.900
 1676POPC   C4A24438  42.213  36.736   7.483
 1676POPC   C1B24439  42.614  37.230   8.660
 1676POPC   C2B24440  42.435  37.224   8.261
 1676POPC   C3B24441  42.570  37.286   7.884
 1676POPC   C4B24442  42.360  37.223   7.490
 1677POPC   NC324443  10.395  11.852   9.473
 1677POPC   PO424444  10.495  12.493   9.411
 1677POPC   GL124445  10.606  12.174   9.107
 1677POPC   GL224446  10.338  11.947   8.981
 1677POPC   C1A24447  10.648  12.211   8.674
 1677POPC   D2A24448  10.288  12.066   8.409
 1677POPC   C3A24449  10.426  12.272   8.032
 1677POPC   C4A24450  10.720  12.402   7.723
 1677POPC   C1B24451  10.634  11.718   8.734
 1677POPC   C2B24452  10.727  11.851   8.310
 1677POPC   C3B24453  10.666  11.857   7.871
 1677POPC   C4B24454  10.464  11.912   7.492
 1678POPC   NC324455  25.092  11.071   9.413
 1678POPC   PO424456  25.495  11.633   9.417
 1678POPC   GL124457  25.398  11.419   9.038
 1678POPC   GL224458  25.368  11.053   8.986
 1678POPC   C1A24459  25.466  11.355   8.591
 1678POPC   D2A24460  25.370  11.217   8.195
 1678POPC   C3A24461  25.385  11.471   7.803
 1678POPC   C4A24462  25.515  11.571   7.362
 1678POPC   C1B24463  25.165  10.906   8.602
 1678POPC   C2B24464  24.908  11.047   8.266
 1678POPC   C3B24465  24.968  11.004   7.846
 1678POPC   C4B24466  25.398  10.946   7.774
 1679POPC   NC324467  37.122   5.337   9.482
 1679POPC   PO424468  37.254   4.729   9.562
 1679POPC   GL124469  36.931   4.859   9.251
 1679POPC   GL224470  36.766   5.153   9.194
 1679POPC   C1A24471  36.888   4.820   8.791
 1679POPC   D2A24472  36.876   4.702   8.335
 1679POPC   C3A24473  36.854   4.975   7.978
 1679POPC   C4A24474  36.545   4.949   7.680
 1679POPC   C1B24475  36.635   5.265   8.836
 1679POPC   C2B24476  36.718   5.231   8.426
 1679POPC   C3B24477  36.773   5.475   8.059
 1679POPC   C4B24478  36.776   5.396   7.603
 1680POPC   NC324479  34.755   6.117   9.399
 1680POPC   PO424480  34.300   5.620   9.655
 1680POPC   GL124481  34.436   5.744   9.249
 1680POPC   GL224482  34.232   6.010   9.154
 1680POPC   C1A24483  34.559   5.795   8.804
 1680POPC   D2A24484  34.897   5.702   8.486
 1680POPC   C3A24485  34.865   6.027   8.157
 1680POPC   C4A24486  34.661   6.047   7.760
 1680POPC   C1B24487  34.140   6.128   8.722
 1680POPC   C2B24488  34.340   5.972   8.313
 1680POPC   C3B24489  34.424   5.662   7.945
 1680POPC   C4B24490  34.476   5.672   7.446
 1681POPC   NC324491  19.639   6.905   9.409
 1681POPC   PO424492  19.477   7.571   9.406
 1681POPC   GL124493  19.802   7.514   9.128
 1681POPC   GL224494  19.970   7.203   9.175
 1681POPC   C1A24495  19.848   7.516   8.729
 1681POPC   D2A24496  19.662   7.363   8.398
 1681POPC   C3A24497  19.825   7.600   8.075
 1681POPC   C4A24498  19.972   7.526   7.658
 1681POPC   C1B24499  19.836   7.013   8.766
 1681POPC   C2B24500  19.957   6.940   8.326
 1681POPC   C3B24501  19.768   7.111   7.975
 1681POPC   C4B24502  19.720   7.010   7.595
 1682POPC   NC324503  42.044   5.737   9.246
 1682POPC   PO424504  42.589   5.268   9.322
 1682POPC   GL124505  42.523   5.652   9.024
 1682POPC   GL224506  42.318   5.970   8.898
 1682POPC   C1A24507  42.775   5.859   8.722
 1682POPC   D2A24508  42.946   5.854   8.343
 1682POPC   C3A24509  42.654   5.909   8.011
 1682POPC   C4A24510  42.757   5.661   7.687
 1682POPC   C1B24511  42.046   5.782   8.593
 1682POPC   C2B24512  42.069   5.773   8.174
 1682POPC   C3B24513  42.140   5.854   7.778
 1682POPC   C4B24514  42.033   6.062   7.346
 1683POPC   NC324515  36.794   0.790   9.746
 1683POPC   PO424516  37.155   1.352   9.513
 1683POPC   GL124517  36.825   1.221   9.208
 1683POPC   GL224518  36.882   1.537   9.030
 1683POPC   C1A24519  36.779   1.081   8.770
 1683POPC   D2A24520  37.015   0.955   8.401
 1683POPC   C3A24521  36.781   1.116   8.086
 1683POPC   C4A24522  36.712   1.286   7.717
 1683POPC   C1B24523  37.176   1.414   8.702
 1683POPC   C2B24524  37.101   1.489   8.254
 1683POPC   C3B24525  37.158   1.534   7.816
 1683POPC   C4B24526  37.139   1.365   7.414
 1684POPC   NC324527   8.664   5.180   9.505
 1684POPC   PO424528   9.293   5.021   9.487
 1684POPC   GL124529   9.014   4.969   9.152
 1684POPC   GL224530   8.670   4.796   9.174
 1684POPC   C1A24531   9.220   5.086   8.728
 1684POPC   D2A24532   9.263   5.345   8.341
 1684POPC   C3A24533   9.222   5.135   7.939
 1684POPC   C4A24534   9.037   5.280   7.543
 1684POPC   C1B24535   8.729   4.895   8.746
 1684POPC   C2B24536   8.866   5.048   8.365
 1684POPC   C3B24537   8.709   5.096   7.988
 1684POPC   C4B24538   8.718   4.866   7.618
 1685POPC   NC324539  43.062  44.570   9.565
 1685POPC   PO424540  43.468   0.100   9.772
 1685POPC   GL124541  43.228  44.928   9.277
 1685POPC   GL224542  42.872  44.864   9.170
 1685POPC   C1A24543  43.428  44.788   8.837
 1685POPC   D2A24544  43.336  44.550   8.466
 1685POPC   C3A24545  43.437  44.741   8.077
 1685POPC   C4A24546  43.271  44.660   7.700
 1685POPC   C1B24547  42.935  44.723   8.785
 1685POPC   C2B24548  42.831  44.455   8.516
 1685POPC   C3B24549  42.902  44.660   8.131
 1685POPC   C4B24550  42.738  44.586   7.755
 1686POPC   NC324551  11.647  35.628   9.600
 1686POPC   PO424552  11.205  35.192   9.433
 1686POPC   GL124553  11.504  35.379   9.146
 1686POPC   GL224554  11.398  35.709   9.165
 1686POPC   C1A24555  11.555  35.274   8.716
 1686POPC   D2A24556  11.384  34.969   8.417
 1686POPC   C3A24557  11.313  35.145   8.035
 1686POPC   C4A24558  11.480  35.334   7.666
 1686POPC   C1B24559  11.117  35.684   8.805
 1686POPC   C2B24560  11.202  35.525   8.397
 1686POPC   C3B24561  11.178  35.642   7.984
 1686POPC   C4B24562  10.978  35.403   7.683
 1687POPC   NC324563  32.615   3.714   9.339
 1687POPC   PO424564  33.084   3.299   9.575
 1687POPC   GL124565  33.125   3.631   9.239
 1687POPC   GL224566  32.903   3.434   9.022
 1687POPC   C1A24567  33.023   3.892   8.840
 1687POPC   D2A24568  32.880   3.630   8.479
 1687POPC   C3A24569  32.815   3.763   8.027
 1687POPC   C4A24570  32.980   3.889   7.594
 1687POPC   C1B24571  33.292   3.441   8.784
 1687POPC   C2B24572  33.317   3.405   8.343
 1687POPC   C3B24573  33.082   3.302   7.951
 1687POPC   C4B24574  33.181   3.272   7.501
 1688POPC   NC324575   6.192  24.366   9.502
 1688POPC   PO424576   5.668  24.766   9.438
 1688POPC   GL124577   5.902  24.556   9.141
 1688POPC   GL224578   6.170  24.762   9.097
 1688POPC   C1A24579   5.894  24.370   8.755
 1688POPC   D2A24580   5.689  24.492   8.408
 1688POPC   C3A24581   5.839  24.302   8.071
 1688POPC   C4A24582   5.886  24.438   7.652
 1688POPC   C1B24583   5.943  24.894   8.758
 1688POPC   C2B24584   5.882  24.999   8.360
 1688POPC   C3B24585   5.980  24.849   7.945
 1688POPC   C4B24586   6.075  24.904   7.492
 1689POPC   NC324587  35.467  42.860   9.592
 1689POPC   PO424588  34.837  42.665   9.384
 1689POPC   GL124589  35.216  42.875   9.138
 1689POPC   GL224590  35.598  42.879   9.112
 1689POPC   C1A24591  35.308  43.129   8.760
 1689POPC   D2A24592  35.055  43.073   8.401
 1689POPC   C3A24593  35.241  43.144   8.039
 1689POPC   C4A24594  35.107  42.944   7.717
 1689POPC   C1B24595  35.542  42.646   8.728
 1689POPC   C2B24596  35.507  42.798   8.294
 1689POPC   C3B24597  35.588  42.756   7.836
 1689POPC   C4B24598  35.433  42.705   7.374
 1690POPC   NC324599  39.657  14.789   9.525
 1690POPC   PO424600  40.250  15.137   9.502
 1690POPC   GL124601  40.041  15.167   9.094
 1690POPC   GL224602  39.934  14.838   9.094
 1690POPC   C1A24603  39.827  15.337   8.673
 1690POPC   D2A24604  39.667  15.411   8.223
 1690POPC   C3A24605  40.012  15.460   7.889
 1690POPC   C4A24606  39.972  15.388   7.404
 1690POPC   C1B24607  40.162  14.879   8.710
 1690POPC   C2B24608  40.136  14.764   8.362
 1690POPC   C3B24609  39.908  14.968   8.057
 1690POPC   C4B24610  40.045  14.947   7.642
 1691POPC   NC324611  21.578  30.749   9.701
 1691POPC   PO424612  22.392  30.751   9.635
 1691POPC   GL124613  22.261  30.723   9.210
 1691POPC   GL224614  22.515  30.438   9.214
 1691POPC   C1A24615  22.017  30.745   8.789
 1691POPC   D2A24616  22.008  30.746   8.308
 1691POPC   C3A24617  21.993  30.969   7.934
 1691POPC   C4A24618  21.856  30.716   7.625
 1691POPC   C1B24619  22.367  30.316   8.843
 1691POPC   C2B24620  22.376  30.447   8.482
 1691POPC   C3B24621  22.421  30.348   8.070
 1691POPC   C4B24622  22.327  30.519   7.695
 1692POPC   NC324623  22.838  23.784   9.707
 1692POPC   PO424624  22.809  23.354   9.260
 1692POPC   GL124625  23.028  23.682   9.099
 1692POPC   GL224626  23.225  23.460   8.889
 1692POPC   C1A24627  23.034  23.917   8.702
 1692POPC   D2A24628  23.183  23.803   8.291
 1692POPC   C3A24629  22.875  23.908   7.981
 1692POPC   C4A24630  22.741  23.645   7.616
 1692POPC   C1B24631  22.871  23.441   8.578
 1692POPC   C2B24632  22.846  23.389   8.113
 1692POPC   C3B24633  22.716  23.170   7.752
 1692POPC   C4B24634  22.587  23.240   7.308
 1693POPC   NC324635  16.463  15.112   9.592
 1693POPC   PO424636  15.800  15.272   9.625
 1693POPC   GL124637  15.767  15.338   9.208
 1693POPC   GL224638  16.123  15.391   9.212
 1693POPC   C1A24639  15.705  15.427   8.769
 1693POPC   D2A24640  15.946  15.306   8.417
 1693POPC   C3A24641  15.761  15.389   8.061
 1693POPC   C4A24642  15.654  14.997   7.835
 1693POPC   C1B24643  16.263  15.340   8.804
 1693POPC   C2B24644  16.466  15.160   8.432
 1693POPC   C3B24645  16.305  15.322   8.036
 1693POPC   C4B24646  16.065  15.236   7.699
 1694POPC   NC324647  39.208  23.248   9.344
 1694POPC   PO424648  39.299  22.499   9.324
 1694POPC   GL124649  39.158  22.826   9.067
 1694POPC   GL224650  39.515  22.939   9.036
 1694POPC   C1A24651  39.180  23.088   8.670
 1694POPC   D2A24652  39.089  23.234   8.263
 1694POPC   C3A24653  39.351  23.099   7.882
 1694POPC   C4A24654  39.627  22.943   7.553
 1694POPC   C1B24655  39.441  22.665   8.691
 1694POPC   C2B24656  39.298  22.730   8.251
 1694POPC   C3B24657  39.243  22.610   7.800
 1694POPC   C4B24658  39.328  22.542   7.360
 1695POPC   NC324659  42.167  42.884   9.725
 1695POPC   PO424660  42.488  43.392   9.512
 1695POPC   GL124661  42.445  43.140   9.136
 1695POPC   GL224662  42.391  42.791   9.235
 1695POPC   C1A24663  42.346  43.169   8.701
 1695POPC   D2A24664  42.287  43.461   8.371
 1695POPC   C3A24665  42.377  43.174   8.072
 1695POPC   C4A24666  42.281  43.070   7.665
 1695POPC   C1B24667  42.505  42.697   8.789
 1695POPC   C2B24668  42.312  42.740   8.360
 1695POPC   C3B24669  42.435  42.653   7.911
 1695POPC   C4B24670  42.630  42.731   7.501
 1696POPC   NC324671  38.511   4.914   9.448
 1696POPC   PO424672  38.324   5.490   9.421
 1696POPC   GL124673  38.236   5.223   9.096
 1696POPC   GL224674  38.031   4.905   9.153
 1696POPC   C1A24675  38.475   5.231   8.735
 1696POPC   D2A24676  38.696   5.253   8.337
 1696POPC   C3A24677  38.380   5.182   8.067
 1696POPC   C4A24678  38.504   5.142   7.682
 1696POPC   C1B24679  38.362   4.737   8.850
 1696POPC   C2B24680  38.494   4.811   8.445
 1696POPC   C3B24681  38.592   4.711   8.038
 1696POPC   C4B24682  38.292   4.692   7.744
 1697POPC   NC324683  21.141  33.195   9.420
 1697POPC   PO424684  21.772  32.959   9.585
 1697POPC   GL124685  21.559  33.054   9.109
 1697POPC   GL224686  21.254  33.293   8.954
 1697POPC   C1A24687  21.661  33.242   8.679
 1697POPC   D2A24688  21.500  33.111   8.263
 1697POPC   C3A24689  21.621  33.098   7.818
 1697POPC   C4A24690  21.495  32.762   7.471
 1697POPC   C1B24691  21.262  32.913   8.708
 1697POPC   C2B24692  21.302  32.618   8.394
 1697POPC   C3B24693  21.295  32.703   7.973
 1697POPC   C4B24694  21.131  33.059   7.735
 1698POPC   NC324695  20.872  15.774   9.538
 1698POPC   PO424696  21.487  16.135   9.551
 1698POPC   GL124697  21.274  16.277   9.203
 1698POPC   GL224698  21.184  15.923   9.161
 1698POPC   C1A24699  21.282  16.209   8.753
 1698POPC   D2A24700  21.258  15.970   8.399
 1698POPC   C3A24701  21.355  16.126   7.981
 1698POPC   C4A24702  21.250  16.125   7.530
 1698POPC   C1B24703  21.268  15.662   8.814
 1698POPC   C2B24704  21.328  15.418   8.439
 1698POPC   C3B24705  21.336  15.623   8.037
 1698POPC   C4B24706  21.000  15.735   7.723
 1699POPC   NC324707  19.712  24.772   9.485
 1699POPC   PO424708  20.303  24.381   9.349
 1699POPC   GL124709  19.948  24.299   9.083
 1699POPC   GL224710  19.685  24.535   9.053
 1699POPC   C1A24711  19.897  24.329   8.637
 1699POPC   D2A24712  19.901  24.628   8.303
 1699POPC   C3A24713  19.922  24.446   7.895
 1699POPC   C4A24714  19.825  24.723   7.574
 1699POPC   C1B24715  19.401  24.568   8.756
 1699POPC   C2B24716  19.440  24.403   8.371
 1699POPC   C3B24717  19.388  24.584   7.993
 1699POPC   C4B24718  19.465  24.350   7.644
 1700POPC   NC324719  23.375  31.696   9.362
 1700POPC   PO424720  22.701  31.483   9.490
 1700POPC   GL124721  22.871  31.682   9.178
 1700POPC   GL224722  23.058  31.360   9.126
 1700POPC   C1A24723  23.003  31.765   8.763
 1700POPC   D2A24724  23.126  31.593   8.372
 1700POPC   C3A24725  22.960  31.740   8.000
 1700POPC   C4A24726  23.159  31.733   7.615
 1700POPC   C1B24727  22.863  31.253   8.750
 1700POPC   C2B24728  22.915  31.140   8.325
 1700POPC   C3B24729  22.838  31.251   7.909
 1700POPC   C4B24730  22.832  31.353   7.480
 1701POPC   NC324731  37.581  42.434   9.449
 1701POPC   PO424732  38.058  42.019   9.508
 1701POPC   GL124733  38.014  42.272   9.152
 1701POPC   GL224734  37.957  42.648   9.201
 1701POPC   C1A24735  37.962  42.087   8.751
 1701POPC   D2A24736  37.734  42.208   8.397
 1701POPC   C3A24737  37.859  42.308   7.997
 1701POPC   C4A24738  38.191  42.224   7.740
 1701POPC   C1B24739  37.756  42.561   8.792
 1701POPC   C2B24740  37.921  42.688   8.416
 1701POPC   C3B24741  37.791  42.833   8.028
 1701POPC   C4B24742  37.566  42.642   7.746
 1702POPC   NC324743  36.418  19.511   9.703
 1702POPC   PO424744  36.821  19.014   9.307
 1702POPC   GL124745  37.028  19.221   9.018
 1702POPC   GL224746  37.373  19.013   9.024
 1702POPC   C1A24747  36.837  19.353   8.662
 1702POPC   D2A24748  36.738  19.032   8.404
 1702POPC   C3A24749  36.985  19.021   8.062
 1702POPC   C4A24750  36.841  19.146   7.653
 1702POPC   C1B24751  37.206  18.940   8.634
 1702POPC   C2B24752  37.267  19.287   8.405
 1702POPC   C3B24753  37.357  19.380   8.036
 1702POPC   C4B24754  37.357  19.125   7.717
 1703POPC   NC324755   5.881  28.748   9.306
 1703POPC   PO424756   6.216  29.282   9.587
 1703POPC   GL124757   6.200  29.152   9.201
 1703POPC   GL224758   5.900  29.364   9.140
 1703POPC   C1A24759   6.120  29.089   8.779
 1703POPC   D2A24760   6.144  28.844   8.468
 1703POPC   C3A24761   5.906  29.097   8.172
 1703POPC   C4A24762   6.016  29.140   7.756
 1703POPC   C1B24763   5.905  29.553   8.709
 1703POPC   C2B24764   5.726  29.702   8.287
 1703POPC   C3B24765   5.675  29.486   7.872
 1703POPC   C4B24766   5.792  29.441   7.393
 1704POPC   NC324767   7.252  32.672   9.373
 1704POPC   PO424768   7.600  33.192   9.466
 1704POPC   GL124769   7.426  33.207   9.087
 1704POPC   GL224770   7.449  32.866   8.956
 1704POPC   C1A24771   7.286  33.281   8.699
 1704POPC   D2A24772   7.432  33.004   8.420
 1704POPC   C3A24773   7.489  33.222   8.083
 1704POPC   C4A24774   7.234  33.194   7.774
 1704POPC   C1B24775   7.788  32.663   8.715
 1704POPC   C2B24776   7.716  32.618   8.282
 1704POPC   C3B24777   7.487  32.729   7.893
 1704POPC   C4B24778   7.636  32.686   7.450
 1705POPC   NC324779  17.597  18.148   9.562
 1705POPC   PO424780  16.916  18.355   9.569
 1705POPC   GL124781  17.246  18.312   9.210
 1705POPC   GL224782  17.395  17.980   9.106
 1705POPC   C1A24783  17.509  18.387   8.809
 1705POPC   D2A24784  17.829  18.373   8.459
 1705POPC   C3A24785  17.725  18.451   7.990
 1705POPC   C4A24786  17.411  18.597   7.633
 1705POPC   C1B24787  17.755  17.926   8.806
 1705POPC   C2B24788  17.667  17.900   8.360
 1705POPC   C3B24789  17.831  17.919   7.979
 1705POPC   C4B24790  17.600  18.075   7.656
 1706POPC   NC324791  11.591  19.000   9.532
 1706POPC   PO424792  11.046  19.400   9.666
 1706POPC   GL124793  11.166  19.170   9.201
 1706POPC   GL224794  11.029  19.400   8.942
 1706POPC   C1A24795  11.519  18.895   8.878
 1706POPC   D2A24796  11.795  18.987   8.469
 1706POPC   C3A24797  11.687  18.941   8.032
 1706POPC   C4A24798  11.615  19.246   7.711
 1706POPC   C1B24799  11.250  19.201   8.590
 1706POPC   C2B24800  11.300  18.838   8.325
 1706POPC   C3B24801  11.217  18.802   7.861
 1706POPC   C4B24802  11.048  18.836   7.436
 1707POPC   NC324803  21.716  20.115   9.513
 1707POPC   PO424804  21.256  20.739   9.463
 1707POPC   GL124805  21.601  20.817   9.195
 1707POPC   GL224806  21.665  20.455   9.153
 1707POPC   C1A24807  21.593  20.761   8.754
 1707POPC   D2A24808  21.410  20.919   8.407
 1707POPC   C3A24809  21.240  20.790   8.053
 1707POPC   C4A24810  21.503  20.867   7.729
 1707POPC   C1B24811  21.334  20.306   8.858
 1707POPC   C2B24812  21.407  20.389   8.409
 1707POPC   C3B24813  21.523  20.364   7.954
 1707POPC   C4B24814  21.136  20.432   7.697
 1708POPC   NC324815   4.059  25.503   9.317
 1708POPC   PO424816   4.143  24.874   9.255
 1708POPC   GL124817   4.123  25.155   8.952
 1708POPC   GL224818   4.448  25.250   9.093
 1708POPC   C1A24819   4.199  25.443   8.611
 1708POPC   D2A24820   3.911  25.561   8.267
 1708POPC   C3A24821   4.108  25.323   7.988
 1708POPC   C4A24822   4.394  25.471   7.743
 1708POPC   C1B24823   4.558  25.004   8.742
 1708POPC   C2B24824   4.385  25.018   8.335
 1708POPC   C3B24825   4.602  25.048   7.931
 1708POPC   C4B24826   4.834  24.904   7.538
 1709POPC   NC324827   5.798   4.922   9.474
 1709POPC   PO424828   5.900   4.292   9.504
 1709POPC   GL124829   6.019   4.461   9.104
 1709POPC   GL224830   6.198   4.162   9.078
 1709POPC   C1A24831   6.022   4.390   8.640
 1709POPC   D2A24832   5.717   4.285   8.316
 1709POPC   C3A24833   5.888   4.269   7.902
 1709POPC   C4A24834   5.994   4.517   7.503
 1709POPC   C1B24835   6.109   3.866   8.748
 1709POPC   C2B24836   6.139   3.941   8.307
 1709POPC   C3B24837   6.170   3.848   7.854
 1709POPC   C4B24838   5.914   4.027   7.470
 1710POPC   NC324839  17.440  36.992   9.491
 1710POPC   PO424840  17.341  36.434   9.755
 1710POPC   GL124841  17.444  36.548   9.253
 1710POPC   GL224842  17.133  36.748   9.154
 1710POPC   C1A24843  17.522  36.866   8.856
 1710POPC   D2A24844  17.663  37.018   8.464
 1710POPC   C3A24845  17.535  36.844   8.077
 1710POPC   C4A24846  17.584  37.091   7.716
 1710POPC   C1B24847  17.021  36.992   8.784
 1710POPC   C2B24848  17.136  37.113   8.360
 1710POPC   C3B24849  17.120  37.107   7.916
 1710POPC   C4B24850  17.142  37.370   7.553
 1711POPC   NC324851  34.216  15.024   9.519
 1711POPC   PO424852  34.912  15.199   9.526
 1711POPC   GL124853  34.724  15.285   9.129
 1711POPC   GL224854  34.368  15.286   9.106
 1711POPC   C1A24855  34.644  15.104   8.716
 1711POPC   D2A24856  34.447  15.221   8.308
 1711POPC   C3A24857  34.601  15.157   7.878
 1711POPC   C4A24858  34.752  15.311   7.474
 1711POPC   C1B24859  34.126  15.166   8.742
 1711POPC   C2B24860  34.027  14.932   8.383
 1711POPC   C3B24861  34.037  15.013   7.956
 1711POPC   C4B24862  34.269  14.832   7.652
 1712POPC   NC324863  26.735  22.937   9.574
 1712POPC   PO424864  26.979  23.507   9.452
 1712POPC   GL124865  26.880  23.145   9.126
 1712POPC   GL224866  27.002  22.768   9.157
 1712POPC   C1A24867  26.529  23.003   8.829
 1712POPC   D2A24868  26.323  23.171   8.422
 1712POPC   C3A24869  26.599  23.101   8.060
 1712POPC   C4A24870  26.588  22.826   7.710
 1712POPC   C1B24871  26.985  22.775   8.701
 1712POPC   C2B24872  27.045  22.843   8.263
 1712POPC   C3B24873  27.081  23.103   7.901
 1712POPC   C4B24874  27.197  23.233   7.500
 1713POPC   NC324875  19.974  14.908   9.298
 1713POPC   PO424876  19.465  15.115   9.601
 1713POPC   GL124877  19.588  15.228   9.175
 1713POPC   GL224878  19.470  15.548   9.131
 1713POPC   C1A24879  19.806  15.220   8.751
 1713POPC   D2A24880  20.056  15.231   8.365
 1713POPC   C3A24881  19.837  15.022   8.058
 1713POPC   C4A24882  19.818  15.116   7.633
 1713POPC   C1B24883  19.562  15.672   8.740
 1713POPC   C2B24884  19.643  15.530   8.365
 1713POPC   C3B24885  19.432  15.330   8.066
 1713POPC   C4B24886  19.222  15.581   7.807
 1714POPC   NC324887  20.488  32.073   9.553
 1714POPC   PO424888  19.725  32.101   9.478
 1714POPC   GL124889  19.853  32.127   9.093
 1714POPC   GL224890  20.181  32.131   9.154
 1714POPC   C1A24891  19.916  32.362   8.707
 1714POPC   D2A24892  20.001  32.491   8.270
 1714POPC   C3A24893  19.738  32.317   7.948
 1714POPC   C4A24894  19.364  32.459   7.740
 1714POPC   C1B24895  20.277  31.979   8.764
 1714POPC   C2B24896  20.066  31.989   8.379
 1714POPC   C3B24897  20.157  32.051   7.950
 1714POPC   C4B24898  19.958  31.936   7.568
 1715POPC   NC324899  38.989   9.855   9.614
 1715POPC   PO424900  38.314   9.733   9.589
 1715POPC   GL124901  38.490   9.644   9.189
 1715POPC   GL224902  38.436   9.989   9.124
 1715POPC   C1A24903  38.437   9.637   8.742
 1715POPC   D2A24904  38.516   9.917   8.402
 1715POPC   C3A24905  38.345   9.736   8.037
 1715POPC   C4A24906  38.586   9.551   7.708
 1715POPC   C1B24907  38.187  10.121   8.761
 1715POPC   C2B24908  38.041  10.214   8.336
 1715POPC   C3B24909  38.267  10.245   7.948
 1715POPC   C4B24910  38.337   9.976   7.577
 1716POPC   NC324911  35.331  25.987   9.659
 1716POPC   PO424912  34.713  26.222   9.394
 1716POPC   GL124913  35.117  26.045   9.155
 1716POPC   GL224914  35.490  25.911   9.185
 1716POPC   C1A24915  35.210  25.926   8.707
 1716POPC   D2A24916  35.092  26.085   8.298
 1716POPC   C3A24917  35.310  25.990   7.901
 1716POPC   C4A24918  35.509  25.723   7.595
 1716POPC   C1B24919  35.555  26.243   8.909
 1716POPC   C2B24920  35.570  26.261   8.511
 1716POPC   C3B24921  35.673  26.263   8.130
 1716POPC   C4B24922  35.587  26.474   7.772
 1717POPC   NC324923  10.050  34.339   9.510
 1717POPC   PO424924   9.585  34.776   9.640
 1717POPC   GL124925   9.716  34.616   9.242
 1717POPC   GL224926   9.628  34.260   9.213
 1717POPC   C1A24927   9.836  34.741   8.835
 1717POPC   D2A24928   9.641  34.698   8.461
 1717POPC   C3A24929   9.854  34.691   8.089
 1717POPC   C4A24930   9.602  34.781   7.722
 1717POPC   C1B24931   9.951  34.260   8.871
 1717POPC   C2B24932  10.101  34.390   8.476
 1717POPC   C3B24933  10.091  34.201   8.074
 1717POPC   C4B24934   9.808  34.291   7.765
 1718POPC   NC324935  17.844  23.383   9.393
 1718POPC   PO424936  17.617  22.806   9.402
 1718POPC   GL124937  17.503  23.110   9.077
 1718POPC   GL224938  17.784  23.253   8.901
 1718POPC   C1A24939  17.330  23.279   8.670
 1718POPC   D2A24940  17.546  23.259   8.299
 1718POPC   C3A24941  17.459  23.087   7.916
 1718POPC   C4A24942  17.676  23.181   7.541
 1718POPC   C1B24943  17.695  22.890   8.639
 1718POPC   C2B24944  17.846  22.698   8.268
 1718POPC   C3B24945  17.790  22.668   7.812
 1718POPC   C4B24946  17.681  22.315   7.523
 1719POPC   NC324947  37.549   0.985   9.523
 1719POPC   PO424948  37.852   1.497   9.277
 1719POPC   GL124949  37.665   1.147   9.054
 1719POPC   GL224950  37.282   1.022   9.095
 1719POPC   C1A24951  37.907   1.103   8.688
 1719POPC   D2A24952  37.939   1.474   8.389
 1719POPC   C3A24953  37.874   1.266   7.998
 1719POPC   C4A24954  37.610   1.323   7.626
 1719POPC   C1B24955  37.432   0.867   8.706
 1719POPC   C2B24956  37.507   1.157   8.373
 1719POPC   C3B24957  37.348   1.095   7.996
 1719POPC   C4B24958  37.080   0.938   7.706
 1720POPC   NC324959  39.767  22.568   9.376
 1720POPC   PO424960  39.688  23.208   9.432
 1720POPC   GL124961  40.008  23.055   9.150
 1720POPC   GL224962  40.204  22.760   9.165
 1720POPC   C1A24963  40.158  23.216   8.763
 1720POPC   D2A24964  40.049  23.075   8.387
 1720POPC   C3A24965  40.269  23.113   8.024
 1720POPC   C4A24966  40.127  22.942   7.670
 1720POPC   C1B24967  39.952  22.708   8.770
 1720POPC   C2B24968  39.813  22.613   8.370
 1720POPC   C3B24969  39.768  22.755   7.999
 1720POPC   C4B24970  39.738  22.470   7.657
 1721POPC   NC324971  34.977   5.241   9.432
 1721POPC   PO424972  35.409   4.926   9.771
 1721POPC   GL124973  35.423   5.105   9.261
 1721POPC   GL224974  35.624   4.988   9.039
 1721POPC   C1A24975  35.235   5.252   8.838
 1721POPC   D2A24976  35.254   5.275   8.394
 1721POPC   C3A24977  35.155   4.935   8.116
 1721POPC   C4A24978  35.043   5.118   7.739
 1721POPC   C1B24979  35.718   5.103   8.629
 1721POPC   C2B24980  35.763   5.419   8.341
 1721POPC   C3B24981  35.549   5.352   7.967
 1721POPC   C4B24982  35.540   5.047   7.690
 1722POPC   NC324983   9.059  12.624   9.325
 1722POPC   PO424984   8.735  13.219   9.371
 1722POPC   GL124985   9.009  13.068   9.040
 1722POPC   GL224986   9.379  13.024   9.125
 1722POPC   C1A24987   9.009  12.785   8.689
 1722POPC   D2A24988   8.770  12.625   8.352
 1722POPC   C3A24989   9.069  12.479   8.049
 1722POPC   C4A24990   8.986  12.532   7.630
 1722POPC   C1B24991   9.383  13.140   8.678
 1722POPC   C2B24992   9.230  13.008   8.246
 1722POPC   C3B24993   9.066  12.986   7.807
 1722POPC   C4B24994   9.161  12.892   7.310
 1723POPC   NC324995  12.328  37.329   9.661
 1723POPC   PO424996  11.883  36.802   9.694
 1723POPC   GL124997  11.967  37.014   9.340
 1723POPC   GL224998  11.768  37.289   9.387
 1723POPC   C1A24999  12.109  36.878   8.916
 1723POPC   D2A25000  12.020  36.653   8.527
 1723POPC   C3A25001  12.096  36.839   8.119
 1723POPC   C4A25002  12.247  36.679   7.734
 1723POPC   C1B25003  11.908  37.343   8.952
 1723POPC   C2B25004  12.077  37.262   8.540
 1723POPC   C3B25005  11.986  37.339   8.109
 1723POPC   C4B25006  11.841  37.188   7.731
 1724POPC   NC325007  37.809  28.057   9.495
 1724POPC   PO425008  37.429  27.506   9.547
 1724POPC   GL125009  37.773  27.475   9.216
 1724POPC   GL225010  37.934  27.804   9.087
 1724POPC   C1A25011  37.769  27.486   8.753
 1724POPC   D2A25012  37.755  27.825   8.446
 1724POPC   C3A25013  37.585  27.661   8.059
 1724POPC   C4A25014  37.466  27.510   7.656
 1724POPC   C1B25015  38.176  27.995   8.777
 1724POPC   C2B25016  38.242  28.017   8.341
 1724POPC   C3B25017  38.126  27.713   8.052
 1724POPC   C4B25018  37.895  27.804   7.677
 1725POPC   NC325019  12.631  16.471   9.521
 1725POPC   PO425020  12.938  17.060   9.509
 1725POPC   GL125021  12.654  17.051   9.174
 1725POPC   GL225022  12.799  16.721   9.096
 1725POPC   C1A25023  12.731  17.102   8.734
 1725POPC   D2A25024  12.835  16.791   8.421
 1725POPC   C3A25025  12.944  16.975   8.055
 1725POPC   C4A25026  13.175  16.947   7.702
 1725POPC   C1B25027  13.132  16.695   8.835
 1725POPC   C2B25028  13.343  16.587   8.488
 1725POPC   C3B25029  13.233  16.538   8.074
 1725POPC   C4B25030  13.267  16.455   7.653
 1726POPC   NC325031  39.273  42.031   9.523
 1726POPC   PO425032  39.086  42.755   9.673
 1726POPC   GL125033  39.054  42.464   9.290
 1726POPC   GL225034  39.391  42.388   9.160
 1726POPC   C1A25035  38.952  42.414   8.832
 1726POPC   D2A25036  38.913  42.174   8.444
 1726POPC   C3A25037  39.009  42.451   8.097
 1726POPC   C4A25038  39.257  42.539   7.793
 1726POPC   C1B25039  39.388  42.149   8.795
 1726POPC   C2B25040  39.398  42.344   8.409
 1726POPC   C3B25041  39.402  42.124   8.019
 1726POPC   C4B25042  39.566  42.188   7.571
 1727POPC   NC325043  16.019  25.449   9.489
 1727POPC   PO425044  15.456  25.049   9.406
 1727POPC   GL125045  15.709  25.336   9.097
 1727POPC   GL225046  16.098  25.521   9.005
 1727POPC   C1A25047  15.880  25.124   8.760
 1727POPC   D2A25048  16.087  24.980   8.345
 1727POPC   C3A25049  15.834  25.013   7.995
 1727POPC   C4A25050  15.605  24.726   7.777
 1727POPC   C1B25051  16.260  25.401   8.589
 1727POPC   C2B25052  15.851  25.446   8.357
 1727POPC   C3B25053  15.755  25.522   7.950
 1727POPC   C4B25054  16.122  25.397   7.764
 1728POPC   NC325055  35.295  34.379   9.499
 1728POPC   PO425056  35.569  35.036   9.631
 1728POPC   GL125057  35.430  34.789   9.247
 1728POPC   GL225058  35.092  34.739   9.181
 1728POPC   C1A25059  35.528  34.606   8.832
 1728POPC   D2A25060  35.378  34.620   8.419
 1728POPC   C3A25061  35.590  34.766   8.052
 1728POPC   C4A25062  35.555  34.602   7.637
 1728POPC   C1B25063  35.025  34.421   8.859
 1728POPC   C2B25064  34.950  34.372   8.406
 1728POPC   C3B25065  35.203  34.373   8.013
 1728POPC   C4B25066  35.144  34.083   7.696
 1729POPC   NC325067  23.258  37.004   9.348
 1729POPC   PO425068  22.634  37.207   9.494
 1729POPC   GL125069  22.824  37.088   9.127
 1729POPC   GL225070  22.861  36.726   9.165
 1729POPC   C1A25071  23.053  37.045   8.743
 1729POPC   D2A25072  22.828  36.979   8.392
 1729POPC   C3A25073  23.061  37.060   8.034
 1729POPC   C4A25074  22.684  37.072   7.798
 1729POPC   C1B25075  22.712  36.609   8.779
 1729POPC   C2B25076  22.793  36.389   8.412
 1729POPC   C3B25077  22.710  36.393   7.966
 1729POPC   C4B25078  22.980  36.654   7.731
 1730POPC   NC325079  35.007  25.156   9.436
 1730POPC   PO425080  34.387  25.005   9.442
 1730POPC   GL125081  34.584  25.215   9.067
 1730POPC   GL225082  34.886  25.065   8.954
 1730POPC   C1A25083  34.561  25.303   8.597
 1730POPC   D2A25084  34.687  25.652   8.304
 1730POPC   C3A25085  34.667  25.470   7.902
 1730POPC   C4A25086  34.341  25.156   7.789
 1730POPC   C1B25087  35.011  25.472   8.814
 1730POPC   C2B25088  35.145  25.457   8.395
 1730POPC   C3B25089  34.916  25.114   8.183
 1730POPC   C4B25090  34.790  24.911   7.761
 1731POPC   NC325091  17.790  44.363   9.581
 1731POPC   PO425092  17.273  44.784   9.674
 1731POPC   GL125093  17.266  44.672   9.235
 1731POPC   GL225094  17.614  44.658   9.169
 1731POPC   C1A25095  17.153  44.601   8.804
 1731POPC   D2A25096  17.240  44.814   8.397
 1731POPC   C3A25097  17.276  44.592   8.014
 1731POPC   C4A25098  17.367  44.714   7.552
 1731POPC   C1B25099  17.633  44.773   8.726
 1731POPC   C2B25100  17.754  44.579   8.295
 1731POPC   C3B25101  17.735  44.506   7.838
 1731POPC   C4B25102  17.864  44.415   7.406
 1732POPC   NC325103  27.467   4.819   9.490
 1732POPC   PO425104  27.700   4.120   9.403
 1732POPC   GL125105  27.587   4.459   9.150
 1732POPC   GL225106  27.237   4.509   9.146
 1732POPC   C1A25107  27.597   4.574   8.711
 1732POPC   D2A25108  27.681   4.213   8.415
 1732POPC   C3A25109  27.461   4.212   8.006
 1732POPC   C4A25110  27.567   4.435   7.643
 1732POPC   C1B25111  27.252   4.210   8.786
 1732POPC   C2B25112  27.200   4.419   8.400
 1732POPC   C3B25113  27.321   4.711   8.068
 1732POPC   C4B25114  27.055   4.519   7.784
 1733POPC   NC325115  27.129   5.760   9.490
 1733POPC   PO425116  27.721   5.830   9.740
 1733POPC   GL125117  27.668   5.869   9.272
 1733POPC   GL225118  27.498   5.542   9.190
 1733POPC   C1A25119  27.783   5.914   8.798
 1733POPC   D2A25120  27.724   6.153   8.401
 1733POPC   C3A25121  27.631   5.957   8.018
 1733POPC   C4A25122  27.801   5.760   7.653
 1733POPC   C1B25123  27.306   5.816   8.881
 1733POPC   C2B25124  27.407   5.743   8.464
 1733POPC   C3B25125  27.198   5.662   8.103
 1733POPC   C4B25126  27.301   5.712   7.705
 1734POPC   NC325127  17.383  38.035   9.356
 1734POPC   PO425128  17.397  37.426   9.660
 1734POPC   GL125129  17.372  37.441   9.223
 1734POPC   GL225130  17.611  37.664   9.105
 1734POPC   C1A25131  17.379  37.362   8.770
 1734POPC   D2A25132  17.538  37.502   8.375
 1734POPC   C3A25133  17.246  37.624   8.056
 1734POPC   C4A25134  17.387  37.853   7.710
 1734POPC   C1B25135  17.688  37.978   8.776
 1734POPC   C2B25136  17.527  38.034   8.402
 1734POPC   C3B25137  17.728  37.900   8.093
 1734POPC   C4B25138  17.893  38.036   7.739
 1735POPC   NC325139  24.697  32.957   9.290
 1735POPC   PO425140  24.234  33.334   9.618
 1735POPC   GL125141  24.275  33.209   9.145
 1735POPC   GL225142  24.324  32.824   8.966
 1735POPC   C1A25143  24.364  33.237   8.694
 1735POPC   D2A25144  24.547  33.040   8.356
 1735POPC   C3A25145  24.335  33.013   7.991
 1735POPC   C4A25146  24.464  33.048   7.571
 1735POPC   C1B25147  24.713  32.692   8.682
 1735POPC   C2B25148  24.885  32.656   8.255
 1735POPC   C3B25149  24.649  32.626   7.856
 1735POPC   C4B25150  24.738  32.625   7.413
 1736POPC   NC325151  38.615   9.366   9.614
 1736POPC   PO425152  38.346   8.728   9.587
 1736POPC   GL125153  38.613   8.911   9.251
 1736POPC   GL225154  38.840   8.656   9.112
 1736POPC   C1A25155  38.376   9.117   8.877
 1736POPC   D2A25156  38.193   9.271   8.470
 1736POPC   C3A25157  38.367   9.210   8.023
 1736POPC   C4A25158  38.383   9.115   7.558
 1736POPC   C1B25159  38.761   8.802   8.704
 1736POPC   C2B25160  38.404   8.805   8.419
 1736POPC   C3B25161  38.370   8.697   7.988
 1736POPC   C4B25162  38.568   8.657   7.551
 1737POPC   NC325163  23.822  40.501   9.330
 1737POPC   PO425164  24.105  40.052   9.616
 1737POPC   GL125165  23.922  39.845   9.256
 1737POPC   GL225166  23.672  40.043   9.158
 1737POPC   C1A25167  24.037  39.868   8.827
 1737POPC   D2A25168  24.020  40.119   8.471
 1737POPC   C3A25169  24.075  39.932   8.093
 1737POPC   C4A25170  23.959  39.978   7.680
 1737POPC   C1B25171  23.563  40.072   8.711
 1737POPC   C2B25172  23.568  40.045   8.243
 1737POPC   C3B25173  23.417  39.777   7.919
 1737POPC   C4B25174  23.035  39.783   7.654
 1738POPC   NC325175  39.095  38.742   9.877
 1738POPC   PO425176  39.199  39.292   9.482
 1738POPC   GL125177  39.306  39.316   9.061
 1738POPC   GL225178  39.565  39.554   8.990
 1738POPC   C1A25179  39.180  39.002   8.768
 1738POPC   D2A25180  39.328  38.833   8.379
 1738POPC   C3A25181  39.208  38.933   7.957
 1738POPC   C4A25182  39.103  38.871   7.517
 1738POPC   C1B25183  39.525  39.330   8.597
 1738POPC   C2B25184  39.163  39.325   8.360
 1738POPC   C3B25185  39.051  39.623   8.077
 1738POPC   C4B25186  39.189  39.422   7.729
 1739POPC   NC325187  41.393  14.942   9.418
 1739POPC   PO425188  41.853  15.424   9.479
 1739POPC   GL125189  41.652  15.276   9.122
 1739POPC   GL225190  41.798  14.969   9.099
 1739POPC   C1A25191  41.745  15.309   8.685
 1739POPC   D2A25192  41.362  15.218   8.421
 1739POPC   C3A25193  41.443  15.292   7.998
 1739POPC   C4A25194  41.839  15.196   7.855
 1739POPC   C1B25195  41.645  14.825   8.722
 1739POPC   C2B25196  41.804  14.915   8.323
 1739POPC   C3B25197  41.632  14.749   7.976
 1739POPC   C4B25198  41.411  14.902   7.652
 1740POPC   NC325199   1.034   5.616   9.364
 1740POPC   PO425200   1.327   6.230   9.455
 1740POPC   GL125201   1.368   5.941   9.125
 1740POPC   GL225202   1.035   6.030   9.052
 1740POPC   C1A25203   1.349   5.682   8.756
 1740POPC   D2A25204   1.187   5.775   8.339
 1740POPC   C3A25205   1.417   5.665   8.001
 1740POPC   C4A25206   1.264   5.457   7.758
 1740POPC   C1B25207   1.171   6.155   8.674
 1740POPC   C2B25208   1.440   6.295   8.364
 1740POPC   C3B25209   1.382   6.160   7.975
 1740POPC   C4B25210   0.973   6.197   7.822
 1741POPC   NC325211   9.942  38.227   9.591
 1741POPC   PO425212   9.515  38.725   9.610
 1741POPC   GL125213   9.594  38.466   9.205
 1741POPC   GL225214   9.807  38.155   9.092
 1741POPC   C1A25215   9.642  38.610   8.769
 1741POPC   D2A25216   9.806  38.450   8.359
 1741POPC   C3A25217   9.562  38.629   8.023
 1741POPC   C4A25218   9.758  38.972   7.803
 1741POPC   C1B25219   9.585  38.101   8.698
 1741POPC   C2B25220   9.433  38.093   8.257
 1741POPC   C3B25221   9.746  38.076   7.939
 1741POPC   C4B25222   9.939  38.420   7.741
 1742POPC   NC325223  43.645  13.240   9.351
 1742POPC   PO425224  43.518  12.578   9.446
 1742POPC   GL125225  43.832  12.766   9.192
 1742POPC   GL225226  44.109  12.568   9.163
 1742POPC   C1A25227  43.905  12.967   8.805
 1742POPC   D2A25228  43.645  13.058   8.452
 1742POPC   C3A25229  43.668  12.854   8.073
 1742POPC   C4A25230  43.547  12.989   7.668
 1742POPC   C1B25231  44.282  12.613   8.762
 1742POPC   C2B25232  44.130  12.790   8.369
 1742POPC   C3B25233  44.115  12.593   7.959
 1742POPC   C4B25234  44.026  12.879   7.687
 1743POPC   NC325235  28.777  39.915   9.408
 1743POPC   PO425236  29.512  39.845   9.399
 1743POPC   GL125237  29.213  39.845   9.061
 1743POPC   GL225238  29.006  40.144   9.026
 1743POPC   C1A25239  29.038  39.856   8.634
 1743POPC   D2A25240  29.003  40.156   8.288
 1743POPC   C3A25241  29.045  39.914   7.958
 1743POPC   C4A25242  28.864  39.958   7.592
 1743POPC   C1B25243  29.280  40.293   8.680
 1743POPC   C2B25244  29.450  40.427   8.310
 1743POPC   C3B25245  29.424  40.264   7.934
 1743POPC   C4B25246  29.037  40.401   7.802
 1744POPC   NC325247   6.279  27.875   9.588
 1744POPC   PO425248   5.587  27.680   9.622
 1744POPC   GL125249   5.882  27.646   9.291
 1744POPC   GL225250   5.666  27.865   9.148
 1744POPC   C1A25251   5.875  27.502   8.853
 1744POPC   D2A25252   5.727  27.553   8.419
 1744POPC   C3A25253   6.023  27.703   8.108
 1744POPC   C4A25254   6.248  27.890   7.776
 1744POPC   C1B25255   5.722  27.983   8.730
 1744POPC   C2B25256   5.698  28.119   8.319
 1744POPC   C3B25257   5.845  28.243   7.922
 1744POPC   C4B25258   5.688  28.020   7.628
 1745POPC   NC325259  24.726  26.309   9.468
 1745POPC   PO425260  24.376  25.753   9.461
 1745POPC   GL125261  24.450  25.790   9.042
 1745POPC   GL225262  24.412  26.170   9.068
 1745POPC   C1A25263  24.492  25.945   8.617
 1745POPC   D2A25264  24.491  26.197   8.273
 1745POPC   C3A25265  24.494  25.933   7.932
 1745POPC   C4A25266  24.267  25.847   7.584
 1745POPC   C1B25267  24.755  26.335   8.796
 1745POPC   C2B25268  24.976  26.215   8.424
 1745POPC   C3B25269  24.898  26.314   8.001
 1745POPC   C4B25270  24.509  26.414   7.760
 1746POPC   NC325271   4.805   0.490   9.607
 1746POPC   PO425272   5.568   0.597   9.467
 1746POPC   GL125273   5.207   0.464   9.248
 1746POPC   GL225274   5.147   0.720   9.007
 1746POPC   C1A25275   5.091   0.202   8.894
 1746POPC   D2A25276   5.154   0.183   8.446
 1746POPC   C3A25277   5.091   0.492   8.153
 1746POPC   C4A25278   5.019   0.477   7.713
 1746POPC   C1B25279   5.371   0.582   8.681
 1746POPC   C2B25280   5.624   0.441   8.349
 1746POPC   C3B25281   5.551   0.552   7.931
 1746POPC   C4B25282   5.491   0.771   7.588
 1747POPC   NC325283   1.725  22.139   9.508
 1747POPC   PO425284   2.383  22.230   9.804
 1747POPC   GL125285   2.188  22.008   9.343
 1747POPC   GL225286   2.014  22.242   9.107
 1747POPC   C1A25287   2.271  21.889   8.864
 1747POPC   D2A25288   2.026  21.810   8.462
 1747POPC   C3A25289   2.014  22.034   8.054
 1747POPC   C4A25290   1.884  21.845   7.685
 1747POPC   C1B25291   1.732  22.411   8.770
 1747POPC   C2B25292   1.573  22.513   8.362
 1747POPC   C3B25293   1.751  22.518   7.927
 1747POPC   C4B25294   1.752  22.514   7.434
 1748POPC   NC325295  23.544   1.314   9.425
 1748POPC   PO425296  24.070   1.224   9.875
 1748POPC   GL125297  24.028   1.213   9.358
 1748POPC   GL225298  23.824   0.940   9.199
 1748POPC   C1A25299  23.994   1.273   8.867
 1748POPC   D2A25300  24.034   1.444   8.436
 1748POPC   C3A25301  23.725   1.440   8.092
 1748POPC   C4A25302  23.772   1.333   7.654
 1748POPC   C1B25303  23.518   0.840   8.860
 1748POPC   C2B25304  23.422   0.820   8.396
 1748POPC   C3B25305  23.649   0.938   8.027
 1748POPC   C4B25306  23.691   0.804   7.606
 1749POPC   NC325307  18.099   3.547   9.553
 1749POPC   PO425308  18.757   3.592   9.507
 1749POPC   GL125309  18.402   3.479   9.136
 1749POPC   GL225310  18.080   3.669   9.075
 1749POPC   C1A25311  18.199   3.340   8.703
 1749POPC   D2A25312  18.357   3.249   8.273
 1749POPC   C3A25313  18.327   3.491   7.864
 1749POPC   C4A25314  18.009   3.410   7.502
 1749POPC   C1B25315  18.089   3.881   8.708
 1749POPC   C2B25316  18.142   3.722   8.322
 1749POPC   C3B25317  17.904   3.698   7.987
 1749POPC   C4B25318  17.982   3.879   7.637
 1750POPC   NC325319  12.326   8.323   9.442
 1750POPC   PO425320  11.788   7.953   9.418
 1750POPC   GL125321  12.010   8.088   9.101
 1750POPC   GL225322  11.991   8.388   9.064
 1750POPC   C1A25323  12.113   8.018   8.694
 1750POPC   D2A25324  11.794   8.002   8.385
 1750POPC   C3A25325  11.991   8.016   8.000
 1750POPC   C4A25326  11.877   8.115   7.617
 1750POPC   C1B25327  12.150   8.527   8.720
 1750POPC   C2B25328  12.103   8.397   8.309
 1750POPC   C3B25329  12.186   8.559   7.903
 1750POPC   C4B25330  12.354   8.668   7.495
 1751POPC   NC325331  36.730   1.619   9.512
 1751POPC   PO425332  37.144   2.230   9.516
 1751POPC   GL125333  36.993   2.064   9.145
 1751POPC   GL225334  36.646   2.003   9.163
 1751POPC   C1A25335  37.166   1.963   8.753
 1751POPC   D2A25336  37.049   2.076   8.316
 1751POPC   C3A25337  36.794   1.880   8.002
 1751POPC   C4A25338  37.109   2.040   7.730
 1751POPC   C1B25339  36.658   2.034   8.701
 1751POPC   C2B25340  36.609   2.380   8.377
 1751POPC   C3B25341  36.728   2.405   7.957
 1751POPC   C4B25342  36.626   2.184   7.582
 1752POPC   NC325343  31.372  43.608   9.386
 1752POPC   PO425344  31.386  43.020   9.728
 1752POPC   GL125345  31.425  43.101   9.294
 1752POPC   GL225346  31.188  42.872   9.225
 1752POPC   C1A25347  31.580  43.058   8.878
 1752POPC   D2A25348  31.416  43.087   8.467
 1752POPC   C3A25349  31.654  43.154   8.083
 1752POPC   C4A25350  31.569  43.011   7.668
 1752POPC   C1B25351  31.143  42.779   8.822
 1752POPC   C2B25352  31.000  42.740   8.432
 1752POPC   C3B25353  31.202  42.868   8.056
 1752POPC   C4B25354  31.176  42.663   7.681
 1753POPC   NC325355   1.746  12.088   9.436
 1753POPC   PO425356   2.403  12.208   9.329
 1753POPC   GL125357   2.147  12.032   8.982
 1753POPC   GL225358   1.800  12.159   8.939
 1753POPC   C1A25359   2.033  11.910   8.551
 1753POPC   D2A25360   1.694  12.060   8.312
 1753POPC   C3A25361   1.775  11.939   7.898
 1753POPC   C4A25362   2.113  11.697   7.709
 1753POPC   C1B25363   1.984  12.416   8.599
 1753POPC   C2B25364   2.252  12.300   8.251
 1753POPC   C3B25365   2.269  12.166   7.814
 1753POPC   C4B25366   2.185  12.278   7.353
 1754POPC   NC325367   5.467  25.300   9.392
 1754POPC   PO425368   4.812  25.272   9.686
 1754POPC   GL125369   4.945  25.242   9.240
 1754POPC   GL225370   5.084  25.563   9.177
 1754POPC   C1A25371   5.055  25.089   8.804
 1754POPC   D2A25372   4.901  24.943   8.365
 1754POPC   C3A25373   5.108  25.077   7.958
 1754POPC   C4A25374   4.896  25.392   7.698
 1754POPC   C1B25375   5.255  25.550   8.746
 1754POPC   C2B25376   5.203  25.372   8.387
 1754POPC   C3B25377   5.210  25.583   8.057
 1754POPC   C4B25378   5.389  25.564   7.666
 1755POPC   NC325379  25.896  11.857   9.576
 1755POPC   PO425380  26.181  12.545   9.407
 1755POPC   GL125381  25.997  12.272   9.113
 1755POPC   GL225382  26.208  12.015   9.158
 1755POPC   C1A25383  25.956  12.155   8.643
 1755POPC   D2A25384  25.844  12.136   8.180
 1755POPC   C3A25385  26.161  12.158   7.826
 1755POPC   C4A25386  26.108  12.295   7.378
 1755POPC   C1B25387  26.008  11.711   8.931
 1755POPC   C2B25388  26.000  11.617   8.510
 1755POPC   C3B25389  26.080  11.673   8.076
 1755POPC   C4B25390  26.302  11.676   7.699
 1756POPC   NC325391  43.260  25.026   9.691
 1756POPC   PO425392  43.020  25.389   9.186
 1756POPC   GL125393  43.207  25.254   8.898
 1756POPC   GL225394  43.491  25.181   9.116
 1756POPC   C1A25395  43.099  25.500   8.549
 1756POPC   D2A25396  42.751  25.481   8.304
 1756POPC   C3A25397  42.983  25.227   8.055
 1756POPC   C4A25398  43.129  25.190   7.666
 1756POPC   C1B25399  43.636  25.464   8.755
 1756POPC   C2B25400  43.547  25.605   8.344
 1756POPC   C3B25401  43.605  25.675   7.937
 1756POPC   C4B25402  43.581  25.393   7.610
 1757POPC   NC325403  35.958  31.813   9.342
 1757POPC   PO425404  36.399  32.240   9.635
 1757POPC   GL125405  36.218  32.242   9.214
 1757POPC   GL225406  35.842  32.313   9.186
 1757POPC   C1A25407  36.183  32.347   8.777
 1757POPC   D2A25408  36.333  32.418   8.379
 1757POPC   C3A25409  36.354  32.056   8.129
 1757POPC   C4A25410  36.217  31.998   7.728
 1757POPC   C1B25411  35.766  32.046   8.798
 1757POPC   C2B25412  35.904  32.111   8.392
 1757POPC   C3B25413  35.710  32.265   8.040
 1757POPC   C4B25414  35.688  32.000   7.707
 1758POPC   NC325415  32.288  21.638   9.532
 1758POPC   PO425416  32.772  21.212   9.551
 1758POPC   GL125417  32.415  21.224   9.256
 1758POPC   GL225418  32.203  20.944   9.221
 1758POPC   C1A25419  32.210  21.413   8.903
 1758POPC   D2A25420  32.129  21.550   8.489
 1758POPC   C3A25421  32.323  21.461   8.141
 1758POPC   C4A25422  32.199  21.487   7.767
 1758POPC   C1B25423  32.445  20.953   8.830
 1758POPC   C2B25424  32.310  21.046   8.437
 1758POPC   C3B25425  32.485  20.979   8.045
 1758POPC   C4B25426  32.282  20.991   7.649
 1759POPC   NC325427  33.677  21.872   9.619
 1759POPC   PO425428  33.985  21.254   9.620
 1759POPC   GL125429  33.827  21.364   9.209
 1759POPC   GL225430  33.792  21.702   9.158
 1759POPC   C1A25431  33.973  21.397   8.764
 1759POPC   D2A25432  34.075  21.258   8.338
 1759POPC   C3A25433  33.865  21.456   7.999
 1759POPC   C4A25434  33.922  21.377   7.600
 1759POPC   C1B25435  33.549  21.688   8.790
 1759POPC   C2B25436  33.582  21.472   8.422
 1759POPC   C3B25437  33.351  21.368   8.080
 1759POPC   C4B25438  33.455  21.126   7.698
 1760POPC   NC325439  10.267  32.744   9.485
 1760POPC   PO425440  10.696  33.199   9.540
 1760POPC   GL125441  10.398  33.144   9.194
 1760POPC   GL225442  10.390  32.829   8.998
 1760POPC   C1A25443  10.333  33.302   8.797
 1760POPC   D2A25444  10.102  33.294   8.434
 1760POPC   C3A25445  10.356  33.161   8.084
 1760POPC   C4A25446  10.707  33.369   7.888
 1760POPC   C1B25447  10.428  32.862   8.539
 1760POPC   C2B25448  10.776  32.813   8.260
 1760POPC   C3B25449  10.825  32.856   7.845
 1760POPC   C4B25450  10.425  32.905   7.613
 1761POPC   NC325451  12.387   7.327   9.507
 1761POPC   PO425452  12.998   7.174   9.418
 1761POPC   GL125453  12.911   7.268   9.003
 1761POPC   GL225454  12.631   7.446   9.065
 1761POPC   C1A25455  12.968   7.448   8.592
 1761POPC   D2A25456  13.166   7.797   8.359
 1761POPC   C3A25457  13.402   7.611   8.085
 1761POPC   C4A25458  13.296   7.319   7.804
 1761POPC   C1B25459  12.465   7.539   8.715
 1761POPC   C2B25460  12.523   7.331   8.327
 1761POPC   C3B25461  12.849   7.415   8.052
 1761POPC   C4B25462  12.824   7.331   7.600
 1762POPC   NC325463  14.589  14.868   9.619
 1762POPC   PO425464  14.111  15.314   9.568
 1762POPC   GL125465  14.400  15.205   9.269
 1762POPC   GL225466  14.259  14.918   9.230
 1762POPC   C1A25467  14.278  15.279   8.859
 1762POPC   D2A25468  14.429  15.257   8.463
 1762POPC   C3A25469  14.223  15.189   8.110
 1762POPC   C4A25470  14.336  15.393   7.767
 1762POPC   C1B25471  14.463  14.777   8.860
 1762POPC   C2B25472  14.584  14.776   8.447
 1762POPC   C3B25473  14.450  14.681   8.068
 1762POPC   C4B25474  14.273  14.871   7.711
 1763POPC   NC325475  26.410   9.157   9.577
 1763POPC   PO425476  26.036   8.631   9.567
 1763POPC   GL125477  25.967   8.914   9.211
 1763POPC   GL225478  26.310   8.978   9.100
 1763POPC   C1A25479  25.866   8.788   8.758
 1763POPC   D2A25480  25.874   8.979   8.328
 1763POPC   C3A25481  25.976   8.694   7.987
 1763POPC   C4A25482  26.045   8.600   7.555
 1763POPC   C1B25483  26.185   9.193   8.733
 1763POPC   C2B25484  26.245   9.389   8.346
 1763POPC   C3B25485  26.211   9.409   7.895
 1763POPC   C4B25486  25.912   9.117   7.669
 1764POPC   NC325487   1.283   8.208   9.640
 1764POPC   PO425488   2.024   8.221   9.591
 1764POPC   GL125489   2.022   8.189   9.166
 1764POPC   GL225490   2.344   8.122   9.022
 1764POPC   C1A25491   1.858   8.142   8.765
 1764POPC   D2A25492   2.039   8.235   8.357
 1764POPC   C3A25493   1.896   8.051   7.981
 1764POPC   C4A25494   2.094   7.765   7.731
 1764POPC   C1B25495   2.202   8.516   8.790
 1764POPC   C2B25496   2.302   8.663   8.372
 1764POPC   C3B25497   2.362   8.487   7.972
 1764POPC   C4B25498   2.129   8.400   7.622
 1765POPC   NC325499  23.941   6.195   9.607
 1765POPC   PO425500  23.404   5.830   9.441
 1765POPC   GL125501  23.803   5.856   9.186
 1765POPC   GL225502  24.051   6.111   9.134
 1765POPC   C1A25503  23.900   5.757   8.748
 1765POPC   D2A25504  23.696   5.641   8.345
 1765POPC   C3A25505  23.668   5.934   7.989
 1765POPC   C4A25506  23.722   5.771   7.596
 1765POPC   C1B25507  23.957   6.273   8.765
 1765POPC   C2B25508  23.959   6.107   8.366
 1765POPC   C3B25509  24.043   6.306   7.969
 1765POPC   C4B25510  24.211   6.140   7.560
 1766POPC   NC325511   1.740  30.256   9.430
 1766POPC   PO425512   2.246  29.811   9.514
 1766POPC   GL125513   2.009  29.881   9.157
 1766POPC   GL225514   2.121  30.206   9.071
 1766POPC   C1A25515   2.143  29.819   8.730
 1766POPC   D2A25516   2.194  29.576   8.372
 1766POPC   C3A25517   2.171  29.843   8.009
 1766POPC   C4A25518   1.779  29.859   7.812
 1766POPC   C1B25519   1.777  30.195   8.752
 1766POPC   C2B25520   1.648  30.203   8.306
 1766POPC   C3B25521   1.426  30.196   7.910
 1766POPC   C4B25522   1.534  30.205   7.434
 1767POPC   NC325523  30.947  41.877   9.460
 1767POPC   PO425524  30.291  41.496   9.424
 1767POPC   GL125525  30.589  41.650   9.147
 1767POPC   GL225526  30.326  41.815   9.002
 1767POPC   C1A25527  30.698  41.440   8.759
 1767POPC   D2A25528  30.417  41.248   8.431
 1767POPC   C3A25529  30.590  41.252   8.021
 1767POPC   C4A25530  30.781  41.589   7.824
 1767POPC   C1B25531  30.588  41.942   8.703
 1767POPC   C2B25532  30.673  41.746   8.326
 1767POPC   C3B25533  30.585  42.021   8.027
 1767POPC   C4B25534  30.478  41.959   7.653
 1768POPC   NC325535   2.531  40.153   9.476
 1768POPC   PO425536   3.088  39.803   9.438
 1768POPC   GL125537   2.917  40.063   9.147
 1768POPC   GL225538   2.934  40.415   9.202
 1768POPC   C1A25539   2.690  39.939   8.804
 1768POPC   D2A25540   2.834  39.806   8.422
 1768POPC   C3A25541   2.558  40.025   8.148
 1768POPC   C4A25542   2.524  40.040   7.699
 1768POPC   C1B25543   2.747  40.442   8.820
 1768POPC   C2B25544   2.550  40.462   8.485
 1768POPC   C3B25545   2.714  40.671   8.157
 1768POPC   C4B25546   2.807  40.441   7.834
 1769POPC   NC325547  39.690  23.585   9.688
 1769POPC   PO425548  39.088  23.809   9.569
 1769POPC   GL125549  39.170  23.716   9.146
 1769POPC   GL225550  39.481  23.782   9.209
 1769POPC   C1A25551  39.119  23.588   8.707
 1769POPC   D2A25552  38.985  23.734   8.287
 1769POPC   C3A25553  39.213  23.601   7.938
 1769POPC   C4A25554  39.008  23.409   7.648
 1769POPC   C1B25555  39.557  23.895   8.785
 1769POPC   C2B25556  39.499  23.749   8.372
 1769POPC   C3B25557  39.683  23.788   7.970
 1769POPC   C4B25558  39.506  23.935   7.581
 1770POPC   NC325559   1.730   1.865   9.761
 1770POPC   PO425560   1.850   1.335   9.363
 1770POPC   GL125561   2.057   1.318   9.054
 1770POPC   GL225562   2.119   1.685   9.068
 1770POPC   C1A25563   1.885   1.062   8.695
 1770POPC   D2A25564   1.948   0.879   8.280
 1770POPC   C3A25565   1.862   1.095   7.839
 1770POPC   C4A25566   1.822   1.434   7.459
 1770POPC   C1B25567   1.919   1.571   8.662
 1770POPC   C2B25568   1.804   1.409   8.271
 1770POPC   C3B25569   1.988   1.590   7.909
 1770POPC   C4B25570   2.274   1.607   7.587
 1771POPC   NC325571  35.950  29.226   9.425
 1771POPC   PO425572  36.600  28.904   9.458
 1771POPC   GL125573  36.288  28.951   9.174
 1771POPC   GL225574  36.311  29.257   9.026
 1771POPC   C1A25575  35.959  28.947   8.803
 1771POPC   D2A25576  35.981  29.238   8.418
 1771POPC   C3A25577  36.157  29.273   7.967
 1771POPC   C4A25578  36.224  29.403   7.494
 1771POPC   C1B25579  36.457  28.915   8.717
 1771POPC   C2B25580  36.243  28.763   8.429
 1771POPC   C3B25581  36.241  28.772   8.057
 1771POPC   C4B25582  36.331  28.913   7.655
 1772POPC   NC325583   6.202  28.850   9.793
 1772POPC   PO425584   6.907  28.892   9.841
 1772POPC   GL125585   6.683  28.981   9.376
 1772POPC   GL225586   6.762  29.297   9.099
 1772POPC   C1A25587   6.563  28.874   8.915
 1772POPC   D2A25588   6.684  29.087   8.507
 1772POPC   C3A25589   6.436  29.081   8.102
 1772POPC   C4A25590   6.452  28.876   7.678
 1772POPC   C1B25591   7.055  29.495   8.748
 1772POPC   C2B25592   7.218  29.541   8.274
 1772POPC   C3B25593   7.183  29.486   7.817
 1772POPC   C4B25594   6.874  29.119   7.757
 1773POPC   NC325595  37.503  24.882   9.325
 1773POPC   PO425596  37.614  25.552   9.298
 1773POPC   GL125597  37.753  25.312   8.964
 1773POPC   GL225598  37.473  25.198   8.934
 1773POPC   C1A25599  37.769  25.494   8.583
 1773POPC   D2A25600  37.622  25.671   8.223
 1773POPC   C3A25601  37.597  25.407   7.883
 1773POPC   C4A25602  37.757  25.215   7.536
 1773POPC   C1B25603  37.216  25.163   8.628
 1773POPC   C2B25604  37.377  25.176   8.265
 1773POPC   C3B25605  37.356  24.975   7.889
 1773POPC   C4B25606  37.260  25.165   7.552
 1774POPC   NC325607  10.314  20.214   9.438
 1774POPC   PO425608  10.603  20.897   9.500
 1774POPC   GL125609  10.287  20.832   9.173
 1774POPC   GL225610  10.272  20.493   9.030
 1774POPC   C1A25611  10.450  20.932   8.776
 1774POPC   D2A25612  10.803  20.802   8.546
 1774POPC   C3A25613  10.722  20.771   8.104
 1774POPC   C4A25614  10.412  20.972   7.849
 1774POPC   C1B25615  10.394  20.449   8.629
 1774POPC   C2B25616  10.265  20.587   8.269
 1774POPC   C3B25617  10.356  20.462   7.844
 1774POPC   C4B25618  10.122  20.515   7.468
 1775POPC   NC325619  31.757   1.628   9.497
 1775POPC   PO425620  31.257   1.960   9.199
 1775POPC   GL125621  31.698   2.049   9.144
 1775POPC   GL225622  31.638   2.418   9.124
 1775POPC   C1A25623  31.799   1.781   8.787
 1775POPC   D2A25624  31.418   1.710   8.524
 1775POPC   C3A25625  31.373   1.827   8.076
 1775POPC   C4A25626  31.110   1.599   7.782
 1775POPC   C1B25627  31.453   2.387   8.706
 1775POPC   C2B25628  31.222   2.225   8.378
 1775POPC   C3B25629  31.389   2.391   7.996
 1775POPC   C4B25630  31.799   2.347   7.827
 1776POPC   NC325631  32.472  20.879   9.652
 1776POPC   PO425632  31.954  20.390   9.469
 1776POPC   GL125633  32.384  20.456   9.219
 1776POPC   GL225634  32.174  20.509   8.930
 1776POPC   C1A25635  32.668  20.495   8.820
 1776POPC   D2A25636  32.519  20.577   8.384
 1776POPC   C3A25637  32.463  20.465   7.928
 1776POPC   C4A25638  32.051  20.306   7.762
 1776POPC   C1B25639  31.942  20.889   8.789
 1776POPC   C2B25640  31.795  20.943   8.370
 1776POPC   C3B25641  32.001  20.745   8.009
 1776POPC   C4B25642  31.877  20.721   7.529
 1777POPC   NC325643  29.398   2.756   9.474
 1777POPC   PO425644  28.672   2.491   9.432
 1777POPC   GL125645  28.929   2.794   9.212
 1777POPC   GL225646  29.193   2.590   9.052
 1777POPC   C1A25647  28.971   3.049   8.829
 1777POPC   D2A25648  28.806   3.015   8.401
 1777POPC   C3A25649  29.060   2.997   7.999
 1777POPC   C4A25650  29.171   2.641   7.726
 1777POPC   C1B25651  29.364   2.648   8.649
 1777POPC   C2B25652  29.392   2.384   8.283
 1777POPC   C3B25653  29.609   2.409   7.861
 1777POPC   C4B25654  29.486   2.386   7.372
 1778POPC   NC325655  31.291   6.193   9.503
 1778POPC   PO425656  31.204   5.535   9.556
 1778POPC   GL125657  31.517   5.661   9.224
 1778POPC   GL225658  31.541   5.992   9.100
 1778POPC   C1A25659  31.529   5.585   8.785
 1778POPC   D2A25660  31.503   5.816   8.400
 1778POPC   C3A25661  31.533   5.601   8.030
 1778POPC   C4A25662  31.470   5.717   7.621
 1778POPC   C1B25663  31.659   6.199   8.713
 1778POPC   C2B25664  31.855   6.170   8.308
 1778POPC   C3B25665  31.585   6.099   7.965
 1778POPC   C4B25666  31.497   6.296   7.589
 1779POPC   NC325667  17.381   6.840   9.532
 1779POPC   PO425668  17.621   6.181   9.595
 1779POPC   GL125669  17.533   6.415   9.202
 1779POPC   GL225670  17.803   6.692   9.233
 1779POPC   C1A25671  17.356   6.361   8.747
 1779POPC   D2A25672  17.492   6.321   8.293
 1779POPC   C3A25673  17.374   6.602   7.945
 1779POPC   C4A25674  17.617   6.736   7.571
 1779POPC   C1B25675  17.546   6.831   8.872
 1779POPC   C2B25676  17.286   6.803   8.475
 1779POPC   C3B25677  17.286   7.084   8.152
 1779POPC   C4B25678  17.292   7.083   7.724
 1780POPC   NC325679  41.838  23.556   9.574
 1780POPC   PO425680  41.331  23.961   9.329
 1780POPC   GL125681  41.624  23.699   9.141
 1780POPC   GL225682  41.524  23.388   9.095
 1780POPC   C1A25683  41.792  23.637   8.748
 1780POPC   D2A25684  41.510  23.664   8.406
 1780POPC   C3A25685  41.744  23.653   8.048
 1780POPC   C4A25686  41.880  23.934   7.675
 1780POPC   C1B25687  41.346  23.262   8.718
 1780POPC   C2B25688  41.108  23.331   8.340
 1780POPC   C3B25689  41.191  23.619   8.003
 1780POPC   C4B25690  41.471  23.642   7.635
 1781POPC   NC325691  28.245  11.900   9.595
 1781POPC   PO425692  27.657  12.133   9.532
 1781POPC   GL125693  27.964  12.066   9.142
 1781POPC   GL225694  28.313  12.157   9.101
 1781POPC   C1A25695  28.129  11.853   8.749
 1781POPC   D2A25696  28.353  11.833   8.355
 1781POPC   C3A25697  28.216  11.972   7.957
 1781POPC   C4A25698  27.902  12.279   7.841
 1781POPC   C1B25699  28.595  12.117   8.712
 1781POPC   C2B25700  28.613  12.253   8.248
 1781POPC   C3B25701  28.781  12.153   7.815
 1781POPC   C4B25702  28.856  12.277   7.356
 1782POPC   NC325703   1.989  11.125   9.552
 1782POPC   PO425704   2.619  11.448   9.579
 1782POPC   GL125705   2.293  11.611   9.252
 1782POPC   GL225706   1.941  11.467   9.179
 1782POPC   C1A25707   2.238  11.515   8.789
 1782POPC   D2A25708   2.031  11.232   8.490
 1782POPC   C3A25709   1.953  11.351   8.073
 1782POPC   C4A25710   2.116  11.188   7.658
 1782POPC   C1B25711   1.696  11.650   8.860
 1782POPC   C2B25712   1.573  11.537   8.460
 1782POPC   C3B25713   1.453  11.518   8.050
 1782POPC   C4B25714   1.667  11.463   7.662
 1783POPC   NC325715  39.257   2.826   9.478
 1783POPC   PO425716  39.942   2.810   9.340
 1783POPC   GL125717  39.570   2.691   9.069
 1783POPC   GL225718  39.187   2.549   9.076
 1783POPC   C1A25719  39.545   2.792   8.639
 1783POPC   D2A25720  39.508   2.525   8.265
 1783POPC   C3A25721  39.437   2.627   7.887
 1783POPC   C4A25722  39.577   2.946   7.646
 1783POPC   C1B25723  39.032   2.868   8.826
 1783POPC   C2B25724  39.070   2.739   8.423
 1783POPC   C3B25725  38.941   2.765   8.013
 1783POPC   C4B25726  39.073   2.843   7.589
 1784POPC   NC325727  44.084  24.341   9.588
 1784POPC   PO425728  43.479  24.597   9.589
 1784POPC   GL125729  43.647  24.505   9.163
 1784POPC   GL225730  44.005  24.393   9.091
 1784POPC   C1A25731  43.659  24.430   8.716
 1784POPC   D2A25732  43.590  24.628   8.333
 1784POPC   C3A25733  43.754  24.462   7.996
 1784POPC   C4A25734  43.474  24.301   7.674
 1784POPC   C1B25735  44.198  24.269   8.697
 1784POPC   C2B25736  44.286  24.296   8.242
 1784POPC   C3B25737  44.142  24.125   7.861
 1784POPC   C4B25738  43.949  24.364   7.519
 1785POPC   NC325739  44.819  19.639   9.370
 1785POPC   PO425740  44.630  19.026   9.595
 1785POPC   GL125741  44.578  19.100   9.188
 1785POPC   GL225742  44.893  19.161   9.157
 1785POPC   C1A25743  44.601  18.936   8.782
 1785POPC   D2A25744  44.566  19.134   8.408
 1785POPC   C3A25745  44.527  18.975   8.006
 1785POPC   C4A25746  44.459  18.779   7.619
 1785POPC   C1B25747   0.003  19.275   8.771
 1785POPC   C2B25748   0.052  19.057   8.441
 1785POPC   C3B25749   0.083  19.115   8.040
 1785POPC   C4B25750  44.843  19.288   7.746
 1786POPC   NC325751  39.449  16.958   9.394
 1786POPC   PO425752  38.946  16.530   9.592
 1786POPC   GL125753  39.030  16.406   9.162
 1786POPC   GL225754  39.383  16.442   9.002
 1786POPC   C1A25755  38.967  16.644   8.789
 1786POPC   D2A25756  39.239  16.648   8.427
 1786POPC   C3A25757  39.088  16.541   8.043
 1786POPC   C4A25758  38.972  16.875   7.839
 1786POPC   C1B25759  39.596  16.809   8.749
 1786POPC   C2B25760  39.583  17.063   8.350
 1786POPC   C3B25761  39.537  16.855   7.943
 1786POPC   C4B25762  39.532  16.394   7.829
 1787POPC   NC325763  13.077  19.429   9.424
 1787POPC   PO425764  12.977  18.744   9.411
 1787POPC   GL125765  12.811  18.834   9.036
 1787POPC   GL225766  12.852  19.156   9.046
 1787POPC   C1A25767  13.061  18.925   8.620
 1787POPC   D2A25768  12.956  18.720   8.247
 1787POPC   C3A25769  12.879  18.972   7.903
 1787POPC   C4A25770  12.516  19.165   7.851
 1787POPC   C1B25771  12.628  19.169   8.662
 1787POPC   C2B25772  12.749  19.383   8.286
 1787POPC   C3B25773  12.698  19.625   7.928
 1787POPC   C4B25774  12.876  19.366   7.557
 1788POPC   NC325775   2.884  20.703   9.485
 1788POPC   PO425776   2.255  20.759   9.500
 1788POPC   GL125777   2.497  20.678   9.133
 1788POPC   GL225778   2.551  21.019   9.107
 1788POPC   C1A25779   2.866  20.676   8.822
 1788POPC   D2A25780   3.030  20.602   8.409
 1788POPC   C3A25781   2.815  20.339   8.134
 1788POPC   C4A25782   3.023  20.344   7.755
 1788POPC   C1B25783   2.392  20.863   8.670
 1788POPC   C2B25784   2.477  20.726   8.216
 1788POPC   C3B25785   2.636  20.767   7.775
 1788POPC   C4B25786   2.556  20.895   7.322
 1789POPC   NC325787  20.158  23.937   9.398
 1789POPC   PO425788  19.696  23.513   9.257
 1789POPC   GL125789  19.884  23.799   8.962
 1789POPC   GL225790  20.254  23.889   8.912
 1789POPC   C1A25791  19.744  23.850   8.557
 1789POPC   D2A25792  19.691  23.611   8.200
 1789POPC   C3A25793  19.510  23.865   7.872
 1789POPC   C4A25794  19.397  23.567   7.579
 1789POPC   C1B25795  20.223  23.626   8.557
 1789POPC   C2B25796  20.143  23.828   8.159
 1789POPC   C3B25797  19.971  23.692   7.761
 1789POPC   C4B25798  20.047  23.986   7.443
 1790POPC   NC325799  40.539  11.529   9.650
 1790POPC   PO425800  40.953  11.098   9.536
 1790POPC   GL125801  40.718  11.327   9.205
 1790POPC   GL225802  40.596  11.724   9.171
 1790POPC   C1A25803  40.738  11.354   8.775
 1790POPC   D2A25804  40.990  11.436   8.407
 1790POPC   C3A25805  40.840  11.147   8.127
 1790POPC   C4A25806  40.767  11.095   7.681
 1790POPC   C1B25807  40.546  11.832   8.705
 1790POPC   C2B25808  40.474  11.499   8.348
 1790POPC   C3B25809  40.454  11.455   7.891
 1790POPC   C4B25810  40.646  11.566   7.463
 1791POPC   NC325811  40.425  37.085   9.704
 1791POPC   PO425812  40.936  36.755   9.579
 1791POPC   GL125813  40.787  36.996   9.257
 1791POPC   GL225814  40.714  36.650   9.114
 1791POPC   C1A25815  40.747  37.163   8.827
 1791POPC   D2A25816  40.533  37.184   8.413
 1791POPC   C3A25817  40.624  36.855   8.089
 1791POPC   C4A25818  40.590  36.991   7.669
 1791POPC   C1B25819  41.074  36.774   8.884
 1791POPC   C2B25820  41.026  36.795   8.466
 1791POPC   C3B25821  41.161  36.837   8.072
 1791POPC   C4B25822  40.985  36.664   7.696
 1792POPC   NC325823  38.102  20.962   9.889
 1792POPC   PO425824  38.553  20.518   9.533
 1792POPC   GL125825  38.479  20.422   9.094
 1792POPC   GL225826  38.114  20.417   9.032
 1792POPC   C1A25827  38.563  20.662   8.716
 1792POPC   D2A25828  38.615  20.978   8.410
 1792POPC   C3A25829  38.622  20.799   7.998
 1792POPC   C4A25830  38.946  20.775   7.720
 1792POPC   C1B25831  38.079  20.740   8.702
 1792POPC   C2B25832  38.203  20.740   8.291
 1792POPC   C3B25833  38.057  20.739   7.900
 1792POPC   C4B25834  38.091  20.488   7.549
 1793POPC   NC325835  37.077   2.599   9.249
 1793POPC   PO425836  37.544   2.938   9.708
 1793POPC   GL125837  37.560   2.739   9.241
 1793POPC   GL225838  37.876   2.570   9.229
 1793POPC   C1A25839  37.409   2.845   8.775
 1793POPC   D2A25840  37.561   2.759   8.419
 1793POPC   C3A25841  37.462   2.986   8.077
 1793POPC   C4A25842  37.528   2.833   7.684
 1793POPC   C1B25843  37.913   2.784   8.822
 1793POPC   C2B25844  38.059   2.834   8.409
 1793POPC   C3B25845  37.886   2.657   8.048
 1793POPC   C4B25846  38.052   2.582   7.695
 1794POPC   NC325847  12.754  11.910   9.448
 1794POPC   PO425848  13.327  12.304   9.328
 1794POPC   GL125849  13.010  12.117   9.063
 1794POPC   GL225850  12.965  11.745   9.025
 1794POPC   C1A25851  12.735  12.206   8.735
 1794POPC   D2A25852  12.542  12.165   8.322
 1794POPC   C3A25853  12.762  12.265   7.966
 1794POPC   C4A25854  12.875  12.199   7.535
 1794POPC   C1B25855  12.641  11.711   8.669
 1794POPC   C2B25856  12.644  11.640   8.223
 1794POPC   C3B25857  12.868  11.757   7.822
 1794POPC   C4B25858  12.621  11.780   7.406
 1795POPC   NC325859  15.899  32.622   9.861
 1795POPC   PO425860  15.874  32.999   9.303
 1795POPC   GL125861  15.905  32.926   8.920
 1795POPC   GL225862  16.137  32.698   8.964
 1795POPC   C1A25863  15.986  32.843   8.503
 1795POPC   D2A25864  16.142  33.005   8.151
 1795POPC   C3A25865  15.837  32.988   7.861
 1795POPC   C4A25866  15.759  33.037   7.444
 1795POPC   C1B25867  16.453  32.771   8.710
 1795POPC   C2B25868  16.390  32.581   8.300
 1795POPC   C3B25869  16.139  32.551   7.934
 1795POPC   C4B25870  16.199  32.787   7.573
 1796POPC   NC325871   5.419  25.992   9.610
 1796POPC   PO425872   4.791  26.272   9.688
 1796POPC   GL125873   4.796  26.013   9.291
 1796POPC   GL225874   4.602  25.693   9.290
 1796POPC   C1A25875   5.055  26.004   8.902
 1796POPC   D2A25876   5.120  26.306   8.577
 1796POPC   C3A25877   5.054  26.176   8.159
 1796POPC   C4A25878   5.254  26.329   7.797
 1796POPC   C1B25879   4.725  25.562   8.833
 1796POPC   C2B25880   4.854  25.779   8.462
 1796POPC   C3B25881   4.730  25.776   8.043
 1796POPC   C4B25882   4.981  25.900   7.729
 1797POPC   NC325883  38.069  25.477   9.312
 1797POPC   PO425884  38.722  25.246   9.412
 1797POPC   GL125885  38.522  25.394   9.083
 1797POPC   GL225886  38.285  25.156   8.938
 1797POPC   C1A25887  38.712  25.401   8.713
 1797POPC   D2A25888  38.755  25.123   8.402
 1797POPC   C3A25889  38.545  25.276   8.074
 1797POPC   C4A25890  38.748  25.244   7.703
 1797POPC   C1B25891  38.235  25.267   8.518
 1797POPC   C2B25892  38.039  25.317   8.129
 1797POPC   C3B25893  38.166  25.068   7.774
 1797POPC   C4B25894  38.170  25.056   7.290
 1798POPC   NC325895  22.238  25.856   9.522
 1798POPC   PO425896  21.861  26.367   9.405
 1798POPC   GL125897  22.069  26.149   9.100
 1798POPC   GL225898  22.381  26.212   9.000
 1798POPC   C1A25899  22.090  25.731   8.886
 1798POPC   D2A25900  22.174  25.491   8.493
 1798POPC   C3A25901  22.225  25.738   8.120
 1798POPC   C4A25902  21.946  26.019   7.908
 1798POPC   C1B25903  22.193  26.381   8.601
 1798POPC   C2B25904  22.308  26.285   8.166
 1798POPC   C3B25905  22.439  26.083   7.771
 1798POPC   C4B25906  22.531  25.870   7.358
 1799POPC   NC325907   9.133  13.890   9.736
 1799POPC   PO425908   9.087  14.587   9.563
 1799POPC   GL125909   9.029  14.598   9.142
 1799POPC   GL225910   8.720  14.660   9.115
 1799POPC   C1A25911   9.045  14.728   8.699
 1799POPC   D2A25912   8.998  14.731   8.238
 1799POPC   C3A25913   9.010  14.343   8.094
 1799POPC   C4A25914   9.008  14.260   7.684
 1799POPC   C1B25915   8.720  14.261   8.847
 1799POPC   C2B25916   8.478  14.219   8.440
 1799POPC   C3B25917   8.533  14.327   7.976
 1799POPC   C4B25918   8.544  14.046   7.651
 1800POPC   NC325919  29.367  38.261   9.451
 1800POPC   PO425920  28.770  38.717   9.539
 1800POPC   GL125921  28.899  38.513   9.192
 1800POPC   GL225922  28.640  38.318   9.150
 1800POPC   C1A25923  29.212  38.473   8.873
 1800POPC   D2A25924  29.503  38.749   8.657
 1800POPC   C3A25925  29.558  38.658   8.226
 1800POPC   C4A25926  29.399  38.510   7.846
 1800POPC   C1B25927  28.774  38.232   8.763
 1800POPC   C2B25928  28.963  38.479   8.433
 1800POPC   C3B25929  28.919  38.577   8.018
 1800POPC   C4B25930  28.984  38.224   7.746
 1801POPC   NC325931  15.609   5.031   9.592
 1801POPC   PO425932  16.066   5.489   9.629
 1801POPC   GL125933  15.773   5.419   9.241
 1801POPC   GL225934  15.642   5.072   9.092
 1801POPC   C1A25935  15.934   5.376   8.797
 1801POPC   D2A25936  15.815   5.164   8.409
 1801POPC   C3A25937  16.098   5.233   8.061
 1801POPC   C4A25938  16.052   5.253   7.649
 1801POPC   C1B25939  15.937   4.848   8.827
 1801POPC   C2B25940  15.912   4.648   8.427
 1801POPC   C3B25941  16.087   4.692   8.051
 1801POPC   C4B25942  16.351   4.863   7.748
 1802POPC   NC325943  21.334  10.633   9.546
 1802POPC   PO425944  21.822  10.343   9.399
 1802POPC   GL125945  21.595  10.649   9.111
 1802POPC   GL225946  21.181  10.653   9.071
 1802POPC   C1A25947  21.500  10.838   8.719
 1802POPC   D2A25948  21.286  10.899   8.324
 1802POPC   C3A25949  21.487  10.691   7.988
 1802POPC   C4A25950  21.430  10.297   7.792
 1802POPC   C1B25951  21.361  10.277   8.848
 1802POPC   C2B25952  21.300  10.209   8.414
 1802POPC   C3B25953  21.057  10.429   8.113
 1802POPC   C4B25954  20.949  10.429   7.666
 1803POPC   NC325955  11.657  40.600   9.502
 1803POPC   PO425956  11.810  41.257   9.289
 1803POPC   GL125957  12.087  40.940   9.102
 1803POPC   GL225958  11.967  40.581   9.076
 1803POPC   C1A25959  12.251  40.838   8.695
 1803POPC   D2A25960  12.449  40.911   8.288
 1803POPC   C3A25961  12.223  40.863   7.887
 1803POPC   C4A25962  12.171  40.785   7.446
 1803POPC   C1B25963  12.100  40.351   8.696
 1803POPC   C2B25964  12.083  40.521   8.266
 1803POPC   C3B25965  12.121  40.307   7.875
 1803POPC   C4B25966  11.958  40.330   7.487
 1804POPC   NC325967  24.969  38.930   9.420
 1804POPC   PO425968  25.238  38.267   9.484
 1804POPC   GL125969  25.279  38.593   9.198
 1804POPC   GL225970  25.629  38.725   9.191
 1804POPC   C1A25971  25.045  38.517   8.818
 1804POPC   D2A25972  24.811  38.447   8.445
 1804POPC   C3A25973  24.963  38.362   8.027
 1804POPC   C4A25974  25.128  38.522   7.656
 1804POPC   C1B25975  25.573  38.453   8.808
 1804POPC   C2B25976  25.347  38.410   8.391
 1804POPC   C3B25977  25.525  38.424   7.958
 1804POPC   C4B25978  25.647  38.274   7.496
 1805POPC   NC325979  41.160  37.201   9.562
 1805POPC   PO425980  41.818  37.134   9.435
 1805POPC   GL125981  41.464  37.049   9.153
 1805POPC   GL225982  41.361  36.717   9.289
 1805POPC   C1A25983  41.463  37.045   8.691
 1805POPC   D2A25984  41.767  37.095   8.362
 1805POPC   C3A25985  41.621  37.186   7.957
 1805POPC   C4A25986  41.851  37.096   7.554
 1805POPC   C1B25987  41.588  36.585   8.904
 1805POPC   C2B25988  41.521  36.597   8.446
 1805POPC   C3B25989  41.659  36.695   8.037
 1805POPC   C4B25990  41.480  36.772   7.675
 1806POPC   NC325991  14.411  27.011   9.605
 1806POPC   PO425992  13.935  26.914   9.205
 1806POPC   GL125993  14.385  26.799   9.118
 1806POPC   GL225994  14.567  27.108   9.137
 1806POPC   C1A25995  14.602  26.529   8.806
 1806POPC   D2A25996  14.569  26.291   8.425
 1806POPC   C3A25997  14.206  26.492   8.239
 1806POPC   C4A25998  14.170  26.549   7.803
 1806POPC   C1B25999  14.419  27.178   8.749
 1806POPC   C2B26000  14.617  27.139   8.373
 1806POPC   C3B26001  14.472  26.903   8.052
 1806POPC   C4B26002  14.398  26.964   7.626
 1807POPC   NC326003   0.942   1.949   9.550
 1807POPC   PO426004   1.563   2.245   9.516
 1807POPC   GL126005   1.257   2.153   9.191
 1807POPC   GL226006   1.446   2.406   9.047
 1807POPC   C1A26007   0.975   2.007   8.805
 1807POPC   D2A26008   0.856   1.755   8.378
 1807POPC   C3A26009   1.138   1.818   7.978
 1807POPC   C4A26010   1.091   2.004   7.554
 1807POPC   C1B26011   1.480   2.105   8.735
 1807POPC   C2B26012   1.294   2.075   8.379
 1807POPC   C3B26013   1.238   2.331   8.019
 1807POPC   C4B26014   1.379   2.402   7.599
 1808POPC   NC326015  35.126  24.246   9.402
 1808POPC   PO426016  35.674  24.679   9.517
 1808POPC   GL126017  35.517  24.512   9.128
 1808POPC   GL226018  35.458  24.191   8.996
 1808POPC   C1A26019  35.409  24.595   8.682
 1808POPC   D2A26020  35.266  24.454   8.276
 1808POPC   C3A26021  35.636  24.442   7.978
 1808POPC   C4A26022  35.643  24.540   7.536
 1808POPC   C1B26023  35.099  24.196   8.710
 1808POPC   C2B26024  35.032  23.971   8.361
 1808POPC   C3B26025  35.228  24.009   7.987
 1808POPC   C4B26026  35.199  24.380   7.745
 1809POPC   NC326027  41.314   7.930   9.749
 1809POPC   PO426028  41.562   8.521   9.635
 1809POPC   GL126029  41.452   8.213   9.289
 1809POPC   GL226030  41.771   8.039   9.303
 1809POPC   C1A26031  41.331   8.135   8.817
 1809POPC   D2A26032  41.350   7.889   8.436
 1809POPC   C3A26033  41.467   8.116   8.066
 1809POPC   C4A26034  41.319   8.095   7.646
 1809POPC   C1B26035  41.798   8.285   8.918
 1809POPC   C2B26036  41.801   8.233   8.469
 1809POPC   C3B26037  41.899   8.467   8.098
 1809POPC   C4B26038  41.683   8.462   7.730
 1810POPC   NC326039  28.187   9.207   9.709
 1810POPC   PO426040  28.614   8.832   9.302
 1810POPC   GL126041  28.467   8.964   8.990
 1810POPC   GL226042  28.370   9.254   9.112
 1810POPC   C1A26043  28.428   8.766   8.628
 1810POPC   D2A26044  28.146   8.665   8.328
 1810POPC   C3A26045  28.380   8.777   8.005
 1810POPC   C4A26046  28.498   8.635   7.624
 1810POPC   C1B26047  28.374   9.394   8.707
 1810POPC   C2B26048  28.093   9.330   8.340
 1810POPC   C3B26049  28.224   9.385   7.916
 1810POPC   C4B26050  28.534   9.145   7.673
 1811POPC   NC326051  10.165  27.707   9.620
 1811POPC   PO426052  10.843  27.482   9.515
 1811POPC   GL126053  10.667  27.680   9.178
 1811POPC   GL226054  10.351  27.589   9.163
 1811POPC   C1A26055  10.640  27.826   8.776
 1811POPC   D2A26056  10.803  28.107   8.480
 1811POPC   C3A26057  10.559  27.926   8.155
 1811POPC   C4A26058  10.511  27.877   7.725
 1811POPC   C1B26059  10.379  27.376   8.776
 1811POPC   C2B26060  10.259  27.495   8.367
 1811POPC   C3B26061  10.329  27.454   7.936
 1811POPC   C4B26062  10.115  27.593   7.566
 1812POPC   NC326063  13.932  44.472   9.573
 1812POPC   PO426064  13.415  44.843   9.491
 1812POPC   GL126065  13.584  44.554   9.156
 1812POPC   GL226066  13.921  44.642   9.080
 1812POPC   C1A26067  13.585  44.565   8.680
 1812POPC   D2A26068  13.865  44.711   8.334
 1812POPC   C3A26069  13.620  44.777   7.958
 1812POPC   C4A26070  13.480  44.645   7.565
 1812POPC   C1B26071  14.049  44.395   8.735
 1812POPC   C2B26072  14.349  44.404   8.487
 1812POPC   C3B26073  14.160  44.351   8.104
 1812POPC   C4B26074  13.968  44.474   7.727
 1813POPC   NC326075  36.191  12.763   9.784
 1813POPC   PO426076  35.731  12.553   9.429
 1813POPC   GL126077  35.918  12.811   9.111
 1813POPC   GL226078  36.245  12.772   9.117
 1813POPC   C1A26079  36.096  13.056   8.753
 1813POPC   D2A26080  36.296  13.165   8.376
 1813POPC   C3A26081  36.166  13.021   7.984
 1813POPC   C4A26082  35.925  13.207   7.693
 1813POPC   C1B26083  36.150  12.560   8.714
 1813POPC   C2B26084  36.025  12.304   8.385
 1813POPC   C3B26085  36.064  12.483   7.986
 1813POPC   C4B26086  36.150  12.666   7.580
 1814POPC   NC326087   9.730  19.403   9.471
 1814POPC   PO426088   9.634  18.701   9.419
 1814POPC   GL126089   9.745  19.014   9.146
 1814POPC   GL226090  10.019  18.923   9.060
 1814POPC   C1A26091   9.591  19.145   8.736
 1814POPC   D2A26092   9.385  18.834   8.428
 1814POPC   C3A26093   9.440  18.911   7.978
 1814POPC   C4A26094   9.403  19.187   7.620
 1814POPC   C1B26095   9.914  18.770   8.663
 1814POPC   C2B26096   9.868  18.913   8.258
 1814POPC   C3B26097   9.880  19.152   7.875
 1814POPC   C4B26098   9.881  19.338   7.468
 1815POPC   NC326099  28.189  28.199   9.435
 1815POPC   PO426100  28.133  28.864   9.291
 1815POPC   GL126101  28.377  28.489   9.057
 1815POPC   GL226102  28.499  28.112   9.044
 1815POPC   C1A26103  28.552  28.467   8.663
 1815POPC   D2A26104  28.406  28.703   8.311
 1815POPC   C3A26105  28.412  28.479   7.941
 1815POPC   C4A26106  28.069  28.489   7.646
 1815POPC   C1B26107  28.126  28.082   8.776
 1815POPC   C2B26108  28.073  28.232   8.354
 1815POPC   C3B26109  28.081  28.089   7.943
 1815POPC   C4B26110  28.470  28.049   7.689
 1816POPC   NC326111  11.147  15.015   9.694
 1816POPC   PO426112  11.581  15.456   9.499
 1816POPC   GL126113  11.410  15.239   9.135
 1816POPC   GL226114  11.126  15.029   9.179
 1816POPC   C1A26115  11.498  15.369   8.721
 1816POPC   D2A26116  11.420  15.200   8.339
 1816POPC   C3A26117  11.146  15.433   8.063
 1816POPC   C4A26118  11.358  15.316   7.707
 1816POPC   C1B26119  11.024  15.230   8.810
 1816POPC   C2B26120  10.907  15.135   8.418
 1816POPC   C3B26121  11.083  14.917   8.066
 1816POPC   C4B26122  10.922  14.976   7.686
 1817POPC   NC326123  35.422   0.082   9.434
 1817POPC   PO426124  35.714   0.684   9.488
 1817POPC   GL126125  35.713   0.382   9.144
 1817POPC   GL226126  35.432   0.529   9.003
 1817POPC   C1A26127  35.623   0.100   8.771
 1817POPC   D2A26128  35.336   0.114   8.391
 1817POPC   C3A26129  35.425   0.142   7.925
 1817POPC   C4A26130  35.557   0.524   7.719
 1817POPC   C1B26131  35.095   0.530   8.702
 1817POPC   C2B26132  34.982   0.738   8.317
 1817POPC   C3B26133  35.076   0.541   7.932
 1817POPC   C4B26134  35.123   0.694   7.507
 1818POPC   NC326135  14.513  25.741   9.443
 1818POPC   PO426136  13.997  26.208   9.488
 1818POPC   GL126137  14.283  26.282   9.153
 1818POPC   GL226138  14.593  26.082   9.070
 1818POPC   C1A26139  14.153  26.294   8.735
 1818POPC   D2A26140  14.114  25.985   8.426
 1818POPC   C3A26141  14.285  26.037   8.034
 1818POPC   C4A26142  14.209  25.738   7.741
 1818POPC   C1B26143  14.545  25.831   8.683
 1818POPC   C2B26144  14.717  25.656   8.288
 1818POPC   C3B26145  14.728  25.833   7.882
 1818POPC   C4B26146  14.674  26.292   7.794
 1819POPC   NC326147  24.587   8.023   9.369
 1819POPC   PO426148  23.938   8.150   9.414
 1819POPC   GL126149  24.187   8.188   9.063
 1819POPC   GL226150  24.424   8.455   9.108
 1819POPC   C1A26151  24.472   8.130   8.714
 1819POPC   D2A26152  24.511   7.835   8.390
 1819POPC   C3A26153  24.613   8.039   8.024
 1819POPC   C4A26154  24.891   7.886   7.700
 1819POPC   C1B26155  24.182   8.574   8.729
 1819POPC   C2B26156  24.024   8.544   8.308
 1819POPC   C3B26157  24.157   8.635   7.867
 1819POPC   C4B26158  24.169   8.491   7.443
 1820POPC   NC326159   9.399   9.642   9.492
 1820POPC   PO426160   9.978   9.840   9.789
 1820POPC   GL126161   9.903   9.743   9.303
 1820POPC   GL226162   9.800   9.393   9.186
 1820POPC   C1A26163   9.670   9.766   8.856
 1820POPC   D2A26164   9.786   9.548   8.443
 1820POPC   C3A26165   9.918   9.747   8.038
 1820POPC   C4A26166  10.092  10.057   7.759
 1820POPC   C1B26167  10.116   9.532   8.831
 1820POPC   C2B26168  10.247   9.321   8.458
 1820POPC   C3B26169  10.109   9.244   8.039
 1820POPC   C4B26170   9.945   9.361   7.652
 1821POPC   NC326171  39.996  37.561   9.880
 1821POPC   PO426172  40.356  37.351   9.326
 1821POPC   GL126173  40.017  37.521   9.116
 1821POPC   GL226174  39.873  37.849   9.098
 1821POPC   C1A26175  40.104  37.630   8.697
 1821POPC   D2A26176  40.052  37.498   8.307
 1821POPC   C3A26177  40.121  37.815   8.016
 1821POPC   C4A26178  40.025  37.679   7.628
 1821POPC   C1B26179  39.896  38.104   8.761
 1821POPC   C2B26180  39.792  37.929   8.400
 1821POPC   C3B26181  39.614  37.872   8.011
 1821POPC   C4B26182  39.773  38.173   7.754
 1822POPC   NC326183  31.544  16.996   9.594
 1822POPC   PO426184  31.900  16.602   9.349
 1822POPC   GL126185  31.716  16.963   9.106
 1822POPC   GL226186  31.337  17.009   9.132
 1822POPC   C1A26187  31.603  16.932   8.662
 1822POPC   D2A26188  31.569  16.619   8.370
 1822POPC   C3A26189  31.481  16.785   7.975
 1822POPC   C4A26190  31.482  16.613   7.534
 1822POPC   C1B26191  31.087  17.120   8.769
 1822POPC   C2B26192  31.129  16.929   8.368
 1822POPC   C3B26193  30.998  16.950   7.956
 1822POPC   C4B26194  30.969  17.250   7.651
 1823POPC   NC326195   7.010  14.296   9.282
 1823POPC   PO426196   6.483  14.612   9.526
 1823POPC   GL126197   6.531  14.518   9.152
 1823POPC   GL226198   6.447  14.188   9.226
 1823POPC   C1A26199   6.684  14.592   8.739
 1823POPC   D2A26200   6.632  14.383   8.372
 1823POPC   C3A26201   6.587  14.617   7.995
 1823POPC   C4A26202   6.741  14.393   7.655
 1823POPC   C1B26203   6.375  14.185   8.799
 1823POPC   C2B26204   6.146  14.261   8.446
 1823POPC   C3B26205   6.314  14.157   8.040
 1823POPC   C4B26206   6.356  14.026   7.630
 1824POPC   NC326207  20.760  37.369   9.614
 1824POPC   PO426208  20.670  36.701   9.465
 1824POPC   GL126209  20.596  36.705   9.025
 1824POPC   GL226210  20.286  36.835   9.065
 1824POPC   C1A26211  20.764  36.634   8.592
 1824POPC   D2A26212  20.975  36.592   8.173
 1824POPC   C3A26213  20.958  36.867   7.807
 1824POPC   C4A26214  20.783  36.804   7.428
 1824POPC   C1B26215  20.369  36.960   8.627
 1824POPC   C2B26216  20.126  36.832   8.265
 1824POPC   C3B26217  20.234  36.883   7.857
 1824POPC   C4B26218  20.453  37.123   7.603
 1825POPC   NC326219  33.237  31.989   9.468
 1825POPC   PO426220  32.808  31.520   9.362
 1825POPC   GL126221  33.039  31.507   9.052
 1825POPC   GL226222  33.069  31.158   9.094
 1825POPC   C1A26223  32.967  31.624   8.641
 1825POPC   D2A26224  33.046  31.791   8.259
 1825POPC   C3A26225  32.925  31.557   7.935
 1825POPC   C4A26226  33.085  31.731   7.549
 1825POPC   C1B26227  32.941  31.102   8.710
 1825POPC   C2B26228  33.101  31.223   8.322
 1825POPC   C3B26229  33.008  31.042   7.921
 1825POPC   C4B26230  32.872  31.035   7.483
 1826POPC   NC326231  17.310   0.182   9.895
 1826POPC   PO426232  17.410   0.765   9.538
 1826POPC   GL126233  17.499   0.538   9.177
 1826POPC   GL226234  17.431   0.171   9.126
 1826POPC   C1A26235  17.378   0.669   8.804
 1826POPC   D2A26236  17.331   0.400   8.478
 1826POPC   C3A26237  17.543   0.540   8.156
 1826POPC   C4A26238  17.430   0.398   7.782
 1826POPC   C1B26239  17.707   0.281   8.763
 1826POPC   C2B26240  17.742   0.090   8.341
 1826POPC   C3B26241  17.770   0.018   7.909
 1826POPC   C4B26242  17.909  44.905   7.493
 1827POPC   NC326243  25.259  41.846   9.475
 1827POPC   PO426244  25.469  41.308   9.561
 1827POPC   GL126245  25.500  41.492   9.155
 1827POPC   GL226246  25.143  41.470   9.137
 1827POPC   C1A26247  25.399  41.766   8.796
 1827POPC   D2A26248  25.228  41.571   8.440
 1827POPC   C3A26249  25.236  41.718   8.040
 1827POPC   C4A26250  25.470  41.384   7.861
 1827POPC   C1B26251  25.054  41.186   8.811
 1827POPC   C2B26252  24.932  41.136   8.410
 1827POPC   C3B26253  25.007  41.272   8.018
 1827POPC   C4B26254  24.799  41.615   7.761
 1828POPC   NC326255  23.840  37.072   9.543
 1828POPC   PO426256  23.386  36.562   9.445
 1828POPC   GL126257  23.652  36.614   9.136
 1828POPC   GL226258  23.973  36.643   9.308
 1828POPC   C1A26259  23.515  36.761   8.738
 1828POPC   D2A26260  23.237  36.670   8.391
 1828POPC   C3A26261  23.419  36.687   7.975
 1828POPC   C4A26262  23.417  36.904   7.583
 1828POPC   C1B26263  24.001  36.906   8.911
 1828POPC   C2B26264  23.886  37.028   8.476
 1828POPC   C3B26265  23.748  37.067   8.048
 1828POPC   C4B26266  23.901  36.804   7.722
 1829POPC   NC326267   3.139  38.632   9.563
 1829POPC   PO426268   3.840  38.452   9.566
 1829POPC   GL126269   3.561  38.545   9.239
 1829POPC   GL226270   3.289  38.316   9.119
 1829POPC   C1A26271   3.656  38.544   8.804
 1829POPC   D2A26272   3.529  38.291   8.475
 1829POPC   C3A26273   3.734  38.348   8.112
 1829POPC   C4A26274   3.531  38.503   7.758
 1829POPC   C1B26275   3.296  37.963   8.823
 1829POPC   C2B26276   3.364  37.815   8.390
 1829POPC   C3B26277   3.320  38.032   8.009
 1829POPC   C4B26278   3.217  38.133   7.597
 1830POPC   NC326279  44.936  43.298   9.502
 1830POPC   PO426280  44.530  42.763   9.495
 1830POPC   GL126281  44.639  43.053   9.176
 1830POPC   GL226282  44.446  43.347   9.264
 1830POPC   C1A26283  44.857  43.335   8.854
 1830POPC   D2A26284  44.937  43.499   8.421
 1830POPC   C3A26285   0.016  43.238   8.077
 1830POPC   C4A26286  44.826  43.262   7.677
 1830POPC   C1B26287  44.345  43.291   8.829
 1830POPC   C2B26288  44.433  43.516   8.457
 1830POPC   C3B26289  44.551  43.525   8.038
 1830POPC   C4B26290  44.291  43.300   7.752
 1831POPC   NC326291  15.456  44.287   9.387
 1831POPC   PO426292  15.044  44.897   9.405
 1831POPC   GL126293  15.167  44.599   9.091
 1831POPC   GL226294  15.530  44.717   9.138
 1831POPC   C1A26295  15.073  44.366   8.696
 1831POPC   D2A26296  15.308  44.184   8.339
 1831POPC   C3A26297  15.155  44.355   7.923
 1831POPC   C4A26298  14.939  44.770   7.818
 1831POPC   C1B26299  15.550  44.564   8.706
 1831POPC   C2B26300  15.352  44.682   8.311
 1831POPC   C3B26301  15.358  44.985   8.003
 1831POPC   C4B26302  15.331   0.009   7.574
 1832POPC   NC326303   2.253   0.235   9.521
 1832POPC   PO426304   1.788   0.662   9.422
 1832POPC   GL126305   2.052   0.507   9.113
 1832POPC   GL226306   1.888   0.209   9.107
 1832POPC   C1A26307   2.147   0.531   8.662
 1832POPC   D2A26308   2.246   0.359   8.234
 1832POPC   C3A26309   2.211   0.687   7.905
 1832POPC   C4A26310   2.111   0.741   7.498
 1832POPC   C1B26311   1.712   0.121   8.700
 1832POPC   C2B26312   1.762   0.170   8.246
 1832POPC   C3B26313   1.914   0.279   7.807
 1832POPC   C4B26314   1.865   0.287   7.330
 1833POPC   NC326315  34.822  15.672   9.472
 1833POPC   PO426316  34.143  15.559   9.504
 1833POPC   GL126317  34.434  15.791   9.143
 1833POPC   GL226318  34.774  15.991   9.093
 1833POPC   C1A26319  34.530  15.771   8.686
 1833POPC   D2A26320  34.582  16.073   8.336
 1833POPC   C3A26321  34.601  15.884   7.959
 1833POPC   C4A26322  34.537  15.765   7.535
 1833POPC   C1B26323  34.983  16.036   8.697
 1833POPC   C2B26324  35.012  15.809   8.317
 1833POPC   C3B26325  35.052  16.125   8.019
 1833POPC   C4B26326  34.844  16.214   7.642
 1834POPC   NC326327  34.984  20.378   9.520
 1834POPC   PO426328  34.508  20.844   9.588
 1834POPC   GL126329  34.598  20.606   9.220
 1834POPC   GL226330  34.317  20.392   9.116
 1834POPC   C1A26331  34.643  20.718   8.772
 1834POPC   D2A26332  34.562  21.028   8.442
 1834POPC   C3A26333  34.695  20.872   8.063
 1834POPC   C4A26334  34.430  20.757   7.725
 1834POPC   C1B26335  34.697  20.221   8.874
 1834POPC   C2B26336  34.711  20.331   8.431
 1834POPC   C3B26337  34.575  20.332   7.997
 1834POPC   C4B26338  34.863  20.089   7.776
 1835POPC   NC326339  14.032  24.156   9.431
 1835POPC   PO426340  14.615  24.508   9.414
 1835POPC   GL126341  14.499  24.525   9.021
 1835POPC   GL226342  14.160  24.476   9.054
 1835POPC   C1A26343  14.444  24.301   8.646
 1835POPC   D2A26344  14.402  24.351   8.250
 1835POPC   C3A26345  14.720  24.616   8.105
 1835POPC   C4A26346  14.754  24.330   7.770
 1835POPC   C1B26347  14.025  24.629   8.656
 1835POPC   C2B26348  14.213  24.815   8.299
 1835POPC   C3B26349  14.271  24.710   7.878
 1835POPC   C4B26350  14.323  24.952   7.540
 1836POPC   NC326351  25.946  10.871   9.421
 1836POPC   PO426352  26.103  11.416   9.828
 1836POPC   GL126353  25.955  11.382   9.348
 1836POPC   GL226354  26.275  11.344   9.230
 1836POPC   C1A26355  25.867  11.214   8.871
 1836POPC   D2A26356  26.036  11.112   8.413
 1836POPC   C3A26357  25.837  11.137   8.018
 1836POPC   C4A26358  25.892  11.363   7.666
 1836POPC   C1B26359  26.366  11.314   8.782
 1836POPC   C2B26360  26.485  11.426   8.358
 1836POPC   C3B26361  26.358  11.241   7.977
 1836POPC   C4B26362  26.356  11.202   7.532
 1837POPC   NC326363  21.526  17.366   9.503
 1837POPC   PO426364  21.055  17.871   9.593
 1837POPC   GL126365  21.103  17.727   9.148
 1837POPC   GL226366  21.220  17.393   9.099
 1837POPC   C1A26367  21.265  17.678   8.697
 1837POPC   D2A26368  21.457  17.454   8.360
 1837POPC   C3A26369  21.238  17.582   7.988
 1837POPC   C4A26370  21.126  17.363   7.629
 1837POPC   C1B26371  21.636  17.312   8.839
 1837POPC   C2B26372  21.958  17.423   8.522
 1837POPC   C3B26373  21.906  17.626   8.116
 1837POPC   C4B26374  21.680  17.506   7.745
 1838POPC   NC326375   0.011   1.637   9.358
 1838POPC   PO426376  44.532   1.169   9.579
 1838POPC   GL126377  44.666   1.268   9.173
 1838POPC   GL226378  44.396   1.133   9.044
 1838POPC   C1A26379  44.816   1.092   8.748
 1838POPC   D2A26380  44.529   1.108   8.374
 1838POPC   C3A26381  44.693   1.285   8.003
 1838POPC   C4A26382   0.021   1.528   7.831
 1838POPC   C1B26383  44.544   1.509   8.744
 1838POPC   C2B26384  44.359   1.624   8.345
 1838POPC   C3B26385  44.481   1.747   7.917
 1838POPC   C4B26386  44.402   1.522   7.541
 1839POPC   NC326387  32.061   0.086   9.468
 1839POPC   PO426388  32.246  44.389   9.413
 1839POPC   GL126389  32.373  44.742   9.141
 1839POPC   GL226390  32.216   0.013   8.999
 1839POPC   C1A26391  32.582  44.731   8.748
 1839POPC   D2A26392  32.689  44.450   8.424
 1839POPC   C3A26393  32.627  44.734   8.125
 1839POPC   C4A26394  32.349  44.792   7.785
 1839POPC   C1B26395  32.050  44.697   8.739
 1839POPC   C2B26396  32.165  44.546   8.334
 1839POPC   C3B26397  31.908  44.612   7.991
 1839POPC   C4B26398  31.839  44.951   7.711
 1840POPC   NC326399  12.011  10.880  10.006
 1840POPC   PO426400  11.971  10.463   9.482
 1840POPC   GL126401  11.980  10.574   9.104
 1840POPC   GL226402  12.291  10.760   9.115
 1840POPC   C1A26403  11.709  10.425   8.792
 1840POPC   D2A26404  11.694  10.524   8.404
 1840POPC   C3A26405  11.815  10.300   8.098
 1840POPC   C4A26406  11.986  10.344   7.725
 1840POPC   C1B26407  12.432  10.632   8.740
 1840POPC   C2B26408  12.187  10.333   8.538
 1840POPC   C3B26409  12.320  10.362   8.136
 1840POPC   C4B26410  12.425  10.720   7.848
 1841POPC   NC326411  37.908  36.908   9.431
 1841POPC   PO426412  37.280  36.744   9.466
 1841POPC   GL126413  37.475  36.662   9.084
 1841POPC   GL226414  37.625  36.975   9.016
 1841POPC   C1A26415  37.401  36.623   8.656
 1841POPC   D2A26416  37.473  36.885   8.295
 1841POPC   C3A26417  37.715  36.754   7.922
 1841POPC   C4A26418  37.715  36.753   7.465
 1841POPC   C1B26419  37.352  37.167   8.729
 1841POPC   C2B26420  37.385  37.407   8.362
 1841POPC   C3B26421  37.391  37.283   7.986
 1841POPC   C4B26422  37.583  37.191   7.662
 1842POPC   NC326423  15.834  14.368   9.376
 1842POPC   PO426424  16.491  14.552   9.558
 1842POPC   GL126425  16.221  14.692   9.183
 1842POPC   GL226426  15.946  14.875   9.316
 1842POPC   C1A26427  16.020  14.471   8.785
 1842POPC   D2A26428  16.159  14.129   8.514
 1842POPC   C3A26429  15.917  14.208   8.166
 1842POPC   C4A26430  15.961  14.245   7.738
 1842POPC   C1B26431  15.848  14.949   8.871
 1842POPC   C2B26432  15.809  14.788   8.435
 1842POPC   C3B26433  16.086  14.861   8.099
 1842POPC   C4B26434  16.090  14.735   7.684
 1843POPC   NC326435  30.441   6.487   9.483
 1843POPC   PO426436  31.015   6.822   9.499
 1843POPC   GL126437  30.746   6.717   9.119
 1843POPC   GL226438  30.542   6.971   8.962
 1843POPC   C1A26439  30.613   6.519   8.728
 1843POPC   D2A26440  30.550   6.690   8.310
 1843POPC   C3A26441  30.618   6.434   7.945
 1843POPC   C4A26442  30.554   6.373   7.486
 1843POPC   C1B26443  30.928   6.931   8.704
 1843POPC   C2B26444  31.058   6.784   8.346
 1843POPC   C3B26445  30.898   6.894   7.978
 1843POPC   C4B26446  30.660   6.864   7.623
 1844POPC   NC326447  43.539  10.456   9.591
 1844POPC   PO426448  43.972  10.862   9.392
 1844POPC   GL126449  43.788  10.580   9.150
 1844POPC   GL226450  43.953  10.302   9.292
 1844POPC   C1A26451  43.749  10.657   8.735
 1844POPC   D2A26452  43.857  10.642   8.313
 1844POPC   C3A26453  43.600  10.618   7.955
 1844POPC   C4A26454  43.728  10.641   7.522
 1844POPC   C1B26455  44.075  10.237   8.870
 1844POPC   C2B26456  44.142  10.225   8.446
 1844POPC   C3B26457  44.179  10.388   8.021
 1844POPC   C4B26458  44.104  10.154   7.658
 1845POPC   NC326459  32.123   4.013   9.606
 1845POPC   PO426460  31.993   4.670   9.571
 1845POPC   GL126461  32.102   4.420   9.211
 1845POPC   GL226462  32.396   4.462   9.029
 1845POPC   C1A26463  32.001   4.280   8.755
 1845POPC   D2A26464  31.901   4.051   8.355
 1845POPC   C3A26465  31.834   4.231   7.969
 1845POPC   C4A26466  32.156   4.485   7.802
 1845POPC   C1B26467  32.517   4.081   8.764
 1845POPC   C2B26468  32.414   3.846   8.396
 1845POPC   C3B26469  32.331   4.039   8.038
 1845POPC   C4B26470  32.527   4.117   7.689
 1846POPC   NC326471  42.128  36.203   9.505
 1846POPC   PO426472  42.880  36.257   9.575
 1846POPC   GL126473  42.516  36.144   9.175
 1846POPC   GL226474  42.247  36.320   9.004
 1846POPC   C1A26475  42.585  35.985   8.776
 1846POPC   D2A26476  42.473  36.228   8.418
 1846POPC   C3A26477  42.679  36.131   8.025
 1846POPC   C4A26478  42.426  36.312   7.697
 1846POPC   C1B26479  42.077  35.922   8.855
 1846POPC   C2B26480  41.992  35.837   8.431
 1846POPC   C3B26481  42.195  35.920   8.037
 1846POPC   C4B26482  42.161  35.889   7.594
 1847POPC   NC326483  39.793  17.633   9.506
 1847POPC   PO426484  39.845  16.990   9.617
 1847POPC   GL126485  39.834  17.200   9.179
 1847POPC   GL226486  40.061  17.433   9.047
 1847POPC   C1A26487  39.657  17.368   8.761
 1847POPC   D2A26488  39.919  17.473   8.368
 1847POPC   C3A26489  39.819  17.336   7.934
 1847POPC   C4A26490  40.179  17.391   7.646
 1847POPC   C1B26491  40.084  17.777   8.751
 1847POPC   C2B26492  40.188  17.952   8.324
 1847POPC   C3B26493  40.060  17.801   7.905
 1847POPC   C4B26494  39.930  17.751   7.394
 1848POPC   NC326495  39.131  13.471   9.423
 1848POPC   PO426496  39.150  14.186   9.457
 1848POPC   GL126497  39.322  13.862   9.167
 1848POPC   GL226498  39.055  13.861   8.896
 1848POPC   C1A26499  39.463  13.593   8.799
 1848POPC   D2A26500  39.213  13.536   8.389
 1848POPC   C3A26501  39.294  13.620   7.943
 1848POPC   C4A26502  39.561  13.760   7.632
 1848POPC   C1B26503  38.949  13.405   8.808
 1848POPC   C2B26504  38.801  13.209   8.452
 1848POPC   C3B26505  38.942  13.231   8.047
 1848POPC   C4B26506  38.910  13.461   7.643
 1849POPC   NC326507  30.621   5.642   9.380
 1849POPC   PO426508  30.864   6.314   9.375
 1849POPC   GL126509  30.778   6.056   9.123
 1849POPC   GL226510  31.042   5.846   9.178
 1849POPC   C1A26511  30.642   5.994   8.737
 1849POPC   D2A26512  30.437   6.156   8.391
 1849POPC   C3A26513  30.483   5.817   8.126
 1849POPC   C4A26514  30.608   5.937   7.749
 1849POPC   C1B26515  31.152   5.936   8.763
 1849POPC   C2B26516  30.981   5.794   8.361
 1849POPC   C3B26517  31.070   5.820   7.941
 1849POPC   C4B26518  30.984   5.666   7.526
 1850POPC   NC326519  30.593  20.055   9.485
 1850POPC   PO426520  30.913  19.504   9.336
 1850POPC   GL126521  30.695  19.751   9.082
 1850POPC   GL226522  30.875  20.070   9.058
 1850POPC   C1A26523  30.656  19.673   8.657
 1850POPC   D2A26524  30.896  19.758   8.320
 1850POPC   C3A26525  30.718  19.717   7.946
 1850POPC   C4A26526  30.984  19.754   7.633
 1850POPC   C1B26527  30.530  20.155   8.795
 1850POPC   C2B26528  30.379  20.073   8.400
 1850POPC   C3B26529  30.545  20.200   8.013
 1850POPC   C4B26530  30.610  20.138   7.614
 1851POPC   NC326531  18.829   0.580   9.533
 1851POPC   PO426532  19.346   0.148   9.665
 1851POPC   GL126533  19.236   0.334   9.263
 1851POPC   GL226534  18.914   0.234   9.163
 1851POPC   C1A26535  19.169   0.481   8.810
 1851POPC   D2A26536  19.002   0.754   8.451
 1851POPC   C3A26537  19.032   0.546   8.020
 1851POPC   C4A26538  19.247   0.257   7.710
 1851POPC   C1B26539  18.708   0.126   8.768
 1851POPC   C2B26540  18.737  44.921   8.360
 1851POPC   C3B26541  18.753   0.114   7.965
 1851POPC   C4B26542  18.749   0.152   7.530
 1852POPC   NC326543  21.723   3.793   9.449
 1852POPC   PO426544  21.203   3.484   9.806
 1852POPC   GL126545  21.133   3.555   9.286
 1852POPC   GL226546  21.453   3.418   9.177
 1852POPC   C1A26547  21.076   3.520   8.788
 1852POPC   D2A26548  21.333   3.434   8.393
 1852POPC   C3A26549  21.263   3.496   7.960
 1852POPC   C4A26550  21.304   3.224   7.627
 1852POPC   C1B26551  21.562   3.609   8.802
 1852POPC   C2B26552  21.686   3.835   8.452
 1852POPC   C3B26553  21.762   3.615   8.085
 1852POPC   C4B26554  21.669   3.650   7.653
 1853POPC   NC326555  42.608  43.998   9.534
 1853POPC   PO426556  41.971  44.058   9.491
 1853POPC   GL126557  42.273  43.990   9.135
 1853POPC   GL226558  42.471  43.692   9.108
 1853POPC   C1A26559  42.186  43.845   8.718
 1853POPC   D2A26560  41.972  43.871   8.317
 1853POPC   C3A26561  42.191  43.878   7.936
 1853POPC   C4A26562  42.516  44.127   7.719
 1853POPC   C1B26563  42.705  43.511   8.749
 1853POPC   C2B26564  42.788  43.413   8.313
 1853POPC   C3B26565  42.632  43.622   7.935
 1853POPC   C4B26566  42.634  43.702   7.476
 1854POPC   NC326567  20.979  44.309   9.407
 1854POPC   PO426568  21.204  43.657   9.682
 1854POPC   GL126569  21.041  43.587   9.221
 1854POPC   GL226570  20.835  43.892   9.145
 1854POPC   C1A26571  20.934  43.572   8.775
 1854POPC   D2A26572  20.630  43.630   8.460
 1854POPC   C3A26573  20.769  43.721   8.058
 1854POPC   C4A26574  20.604  43.922   7.737
 1854POPC   C1B26575  20.508  43.992   8.823
 1854POPC   C2B26576  20.442  44.206   8.411
 1854POPC   C3B26577  20.234  44.183   8.003
 1854POPC   C4B26578  20.174  44.112   7.541
 1855POPC   NC326579  40.889  29.696   9.557
 1855POPC   PO426580  41.321  30.169   9.478
 1855POPC   GL126581  40.926  30.213   9.253
 1855POPC   GL226582  40.734  29.897   9.122
 1855POPC   C1A26583  41.009  30.207   8.832
 1855POPC   D2A26584  40.836  29.978   8.532
 1855POPC   C3A26585  40.923  29.896   8.114
 1855POPC   C4A26586  40.754  30.116   7.769
 1855POPC   C1B26587  40.413  29.796   8.816
 1855POPC   C2B26588  40.488  29.636   8.409
 1855POPC   C3B26589  40.449  29.760   7.999
 1855POPC   C4B26590  40.404  29.590   7.603
 1856POPC   NC326591  35.891  17.915   9.407
 1856POPC   PO426592  36.140  18.609   9.393
 1856POPC   GL126593  36.283  18.232   9.171
 1856POPC   GL226594  36.036  18.157   8.921
 1856POPC   C1A26595  36.515  18.130   8.786
 1856POPC   D2A26596  36.351  18.264   8.411
 1856POPC   C3A26597  36.469  18.189   7.992
 1856POPC   C4A26598  36.255  18.411   7.684
 1856POPC   C1B26599  35.889  17.957   8.518
 1856POPC   C2B26600  36.017  17.989   8.140
 1856POPC   C3B26601  35.949  17.980   7.770
 1856POPC   C4B26602  35.658  17.809   7.524
 1857POPC   NC326603  33.680  41.045   9.576
 1857POPC   PO426604  34.086  40.512   9.379
 1857POPC   GL126605  33.828  40.768   9.143
 1857POPC   GL226606  33.494  40.704   9.246
 1857POPC   C1A26607  33.909  40.744   8.717
 1857POPC   D2A26608  33.995  40.961   8.367
 1857POPC   C3A26609  33.935  40.736   7.997
 1857POPC   C4A26610  34.062  40.944   7.647
 1857POPC   C1B26611  33.372  40.765   8.827
 1857POPC   C2B26612  33.494  40.703   8.403
 1857POPC   C3B26613  33.446  40.863   8.017
 1857POPC   C4B26614  33.549  40.656   7.631
 1858POPC   NC326615  25.076   3.227   9.143
 1858POPC   PO426616  25.373   2.711   9.442
 1858POPC   GL126617  25.280   2.758   9.030
 1858POPC   GL226618  24.962   2.608   9.100
 1858POPC   C1A26619  25.531   2.897   8.675
 1858POPC   D2A26620  25.666   2.697   8.308
 1858POPC   C3A26621  25.466   2.792   7.909
 1858POPC   C4A26622  25.345   2.641   7.487
 1858POPC   C1B26623  24.983   2.451   8.702
 1858POPC   C2B26624  25.153   2.625   8.330
 1858POPC   C3B26625  24.984   2.524   7.911
 1858POPC   C4B26626  24.838   2.139   7.721
 1859POPC   NC326627   2.269  29.418   9.299
 1859POPC   PO426628   1.790  28.921   9.496
 1859POPC   GL126629   1.838  29.158   9.146
 1859POPC   GL226630   2.127  28.976   9.067
 1859POPC   C1A26631   1.857  29.370   8.746
 1859POPC   D2A26632   1.919  29.144   8.367
 1859POPC   C3A26633   2.043  29.295   7.968
 1859POPC   C4A26634   1.882  28.973   7.722
 1859POPC   C1B26635   2.304  29.120   8.707
 1859POPC   C2B26636   2.460  29.123   8.333
 1859POPC   C3B26637   2.363  28.882   8.040
 1859POPC   C4B26638   2.375  29.006   7.637
 1860POPC   NC326639   9.507   3.907   9.414
 1860POPC   PO426640  10.044   4.392   9.519
 1860POPC   GL126641   9.749   4.423   9.224
 1860POPC   GL226642   9.973   4.652   9.074
 1860POPC   C1A26643   9.582   4.381   8.812
 1860POPC   D2A26644   9.687   4.422   8.370
 1860POPC   C3A26645   9.536   4.158   8.028
 1860POPC   C4A26646   9.478   4.059   7.600
 1860POPC   C1B26647  10.110   4.332   8.777
 1860POPC   C2B26648  10.093   4.090   8.370
 1860POPC   C3B26649  10.015   4.189   7.910
 1860POPC   C4B26650  10.053   4.241   7.447
 1861POPC   NC326651  42.063  31.500   9.270
 1861POPC   PO426652  42.752  31.367   9.452
 1861POPC   GL126653  42.565  31.436   9.089
 1861POPC   GL226654  42.724  31.195   8.877
 1861POPC   C1A26655  42.497  31.644   8.718
 1861POPC   D2A26656  42.531  31.552   8.311
 1861POPC   C3A26657  42.322  31.831   8.056
 1861POPC   C4A26658  42.327  31.634   7.668
 1861POPC   C1B26659  42.262  31.195   8.706
 1861POPC   C2B26660  42.028  31.426   8.410
 1861POPC   C3B26661  42.133  31.294   8.015
 1861POPC   C4B26662  42.037  31.226   7.605
 1862POPC   NC326663   4.358  26.357   9.529
 1862POPC   PO426664   3.907  25.931   9.369
 1862POPC   GL126665   3.842  25.845   8.987
 1862POPC   GL226666   4.223  25.804   8.953
 1862POPC   C1A26667   3.923  25.952   8.588
 1862POPC   D2A26668   4.324  25.906   8.401
 1862POPC   C3A26669   4.250  25.915   8.004
 1862POPC   C4A26670   4.023  25.823   7.713
 1862POPC   C1B26671   4.562  26.039   8.827
 1862POPC   C2B26672   4.611  26.353   8.526
 1862POPC   C3B26673   4.559  26.301   8.124
 1862POPC   C4B26674   4.575  26.210   7.723
 1863POPC   NC326675  36.323  26.026   9.538
 1863POPC   PO426676  35.695  26.345   9.542
 1863POPC   GL126677  35.960  26.205   9.216
 1863POPC   GL226678  36.043  25.850   9.120
 1863POPC   C1A26679  36.055  26.237   8.782
 1863POPC   D2A26680  36.146  26.388   8.374
 1863POPC   C3A26681  36.230  25.999   8.191
 1863POPC   C4A26682  35.878  25.818   7.953
 1863POPC   C1B26683  36.399  25.785   8.804
 1863POPC   C2B26684  36.443  25.561   8.384
 1863POPC   C3B26685  36.571  25.637   7.951
 1863POPC   C4B26686  36.477  26.026   7.734
 1864POPC   NC326687  36.615  20.986   9.477
 1864POPC   PO426688  37.100  20.430   9.489
 1864POPC   GL126689  37.098  20.555   9.074
 1864POPC   GL226690  36.950  20.872   9.114
 1864POPC   C1A26691  36.901  20.460   8.635
 1864POPC   D2A26692  36.548  20.453   8.290
 1864POPC   C3A26693  36.663  20.470   7.839
 1864POPC   C4A26694  37.039  20.230   7.721
 1864POPC   C1B26695  37.124  20.921   8.726
 1864POPC   C2B26696  37.277  20.720   8.336
 1864POPC   C3B26697  37.088  20.719   7.940
 1864POPC   C4B26698  36.769  20.968   7.700
 1865POPC   NC326699  44.050  39.207   9.552
 1865POPC   PO426700  44.475  39.840   9.454
 1865POPC   GL126701  44.112  39.611   9.161
 1865POPC   GL226702  44.112  39.244   9.041
 1865POPC   C1A26703  43.684  39.450   8.915
 1865POPC   D2A26704  43.664  39.262   8.501
 1865POPC   C3A26705  43.559  39.293   8.095
 1865POPC   C4A26706  43.795  39.361   7.717
 1865POPC   C1B26707  43.940  38.921   8.767
 1865POPC   C2B26708  43.799  38.778   8.372
 1865POPC   C3B26709  43.899  38.928   7.962
 1865POPC   C4B26710  43.794  38.896   7.530
 1866POPC   NC326711  11.503  32.447   9.741
 1866POPC   PO426712  11.226  31.917   9.639
 1866POPC   GL126713  11.307  32.192   9.263
 1866POPC   GL226714  10.961  32.192   9.153
 1866POPC   C1A26715  11.397  32.328   8.796
 1866POPC   D2A26716  11.366  32.202   8.327
 1866POPC   C3A26717  11.436  32.404   7.915
 1866POPC   C4A26718  11.575  32.340   7.489
 1866POPC   C1B26719  10.871  32.145   8.709
 1866POPC   C2B26720  10.792  31.932   8.298
 1866POPC   C3B26721  11.048  31.960   7.944
 1866POPC   C4B26722  11.103  32.200   7.572
 1867POPC   NC326723  27.800  43.407   9.592
 1867POPC   PO426724  27.674  42.724   9.694
 1867POPC   GL126725  27.531  43.017   9.358
 1867POPC   GL226726  27.839  43.100   9.202
 1867POPC   C1A26727  27.385  43.030   8.908
 1867POPC   D2A26728  27.557  43.125   8.498
 1867POPC   C3A26729  27.389  43.060   8.084
 1867POPC   C4A26730  27.635  43.135   7.680
 1867POPC   C1B26731  27.878  42.917   8.833
 1867POPC   C2B26732  27.938  42.755   8.455
 1867POPC   C3B26733  27.907  42.960   8.079
 1867POPC   C4B26734  27.950  42.712   7.711
 1868POPC   NC326735  29.302  41.537   9.694
 1868POPC   PO426736  28.840  41.169   9.531
 1868POPC   GL126737  28.867  41.488   9.198
 1868POPC   GL226738  29.215  41.446   9.196
 1868POPC   C1A26739  29.022  41.728   8.820
 1868POPC   D2A26740  29.252  41.619   8.417
 1868POPC   C3A26741  29.078  41.773   8.047
 1868POPC   C4A26742  28.801  41.795   7.688
 1868POPC   C1B26743  29.462  41.407   8.821
 1868POPC   C2B26744  29.512  41.155   8.427
 1868POPC   C3B26745  29.435  41.311   7.998
 1868POPC   C4B26746  29.276  41.581   7.639
 1869POPC   NC326747  35.485   6.158   9.400
 1869POPC   PO426748  34.998   5.714   9.349
 1869POPC   GL126749  35.290   5.780   9.033
 1869POPC   GL226750  35.636   5.775   9.102
 1869POPC   C1A26751  35.452   5.690   8.635
 1869POPC   D2A26752  35.446   5.809   8.222
 1869POPC   C3A26753  35.123   5.607   8.017
 1869POPC   C4A26754  34.907   5.604   7.679
 1869POPC   C1B26755  35.622   6.152   8.778
 1869POPC   C2B26756  35.511   6.329   8.369
 1869POPC   C3B26757  35.414   6.229   7.920
 1869POPC   C4B26758  35.486   5.819   7.695
 1870POPC   NC326759   7.254  36.607   9.390
 1870POPC   PO426760   7.587  36.076   9.464
 1870POPC   GL126761   7.250  36.111   9.189
 1870POPC   GL226762   7.117  35.771   9.221
 1870POPC   C1A26763   7.316  36.301   8.773
 1870POPC   D2A26764   7.582  36.209   8.389
 1870POPC   C3A26765   7.463  36.304   7.958
 1870POPC   C4A26766   7.318  36.560   7.577
 1870POPC   C1B26767   7.352  35.794   8.803
 1870POPC   C2B26768   7.218  35.821   8.418
 1870POPC   C3B26769   7.415  35.779   8.058
 1870POPC   C4B26770   7.807  35.858   7.887
 1871POPC   NC326771  38.034  38.572   9.480
 1871POPC   PO426772  38.706  38.637   9.655
 1871POPC   GL126773  38.478  38.677   9.249
 1871POPC   GL226774  38.407  38.321   9.214
 1871POPC   C1A26775  38.447  38.627   8.793
 1871POPC   D2A26776  38.506  38.416   8.406
 1871POPC   C3A26777  38.259  38.543   8.049
 1871POPC   C4A26778  38.214  38.839   7.717
 1871POPC   C1B26779  38.323  38.132   8.817
 1871POPC   C2B26780  38.251  37.982   8.393
 1871POPC   C3B26781  38.404  38.071   7.994
 1871POPC   C4B26782  38.442  38.351   7.609
 1872POPC   NC326783  33.634   6.868   9.677
 1872POPC   PO426784  34.049   6.394   9.495
 1872POPC   GL126785  33.843   6.693   9.212
 1872POPC   GL226786  33.498   6.563   9.199
 1872POPC   C1A26787  33.652   6.915   8.836
 1872POPC   D2A26788  33.574   6.821   8.364
 1872POPC   C3A26789  33.933   6.779   8.060
 1872POPC   C4A26790  33.933   6.913   7.612
 1872POPC   C1B26791  33.698   6.413   8.807
 1872POPC   C2B26792  33.802   6.371   8.397
 1872POPC   C3B26793  33.595   6.373   8.026
 1872POPC   C4B26794  33.821   6.433   7.672
 1873POPC   NC326795  35.445  37.474   9.771
 1873POPC   PO426796  35.401  36.807   9.605
 1873POPC   GL126797  35.522  36.927   9.154
 1873POPC   GL226798  35.257  37.143   8.965
 1873POPC   C1A26799  35.615  36.955   8.694
 1873POPC   D2A26800  35.385  37.189   8.420
 1873POPC   C3A26801  35.439  36.952   8.095
 1873POPC   C4A26802  35.450  36.830   7.704
 1873POPC   C1B26803  35.069  36.914   8.696
 1873POPC   C2B26804  34.935  36.942   8.281
 1873POPC   C3B26805  34.981  36.956   7.831
 1873POPC   C4B26806  35.007  36.678   7.453
 1874POPC   NC326807  41.534  31.206   9.541
 1874POPC   PO426808  41.231  31.793   9.495
 1874POPC   GL126809  41.567  31.664   9.187
 1874POPC   GL226810  41.498  31.303   9.053
 1874POPC   C1A26811  41.657  31.617   8.716
 1874POPC   D2A26812  41.455  31.421   8.360
 1874POPC   C3A26813  41.467  31.632   7.973
 1874POPC   C4A26814  41.836  31.714   7.750
 1874POPC   C1B26815  41.707  31.102   8.683
 1874POPC   C2B26816  41.729  30.997   8.272
 1874POPC   C3B26817  41.605  31.085   7.892
 1874POPC   C4B26818  41.536  31.295   7.548
 1875POPC   NC326819  38.758  33.613   9.514
 1875POPC   PO426820  38.253  34.156   9.545
 1875POPC   GL126821  38.267  33.873   9.139
 1875POPC   GL226822  38.577  33.690   9.051
 1875POPC   C1A26823  38.311  33.927   8.674
 1875POPC   D2A26824  38.593  34.153   8.382
 1875POPC   C3A26825  38.455  34.079   7.968
 1875POPC   C4A26826  38.135  33.804   7.753
 1875POPC   C1B26827  38.822  33.350   8.849
 1875POPC   C2B26828  38.866  33.209   8.425
 1875POPC   C3B26829  38.706  33.243   8.000
 1875POPC   C4B26830  38.638  33.638   7.751
 1876POPC   NC326831  32.108  35.998   9.389
 1876POPC   PO426832  32.626  36.337   9.352
 1876POPC   GL126833  32.450  36.180   9.042
 1876POPC   GL226834  32.519  35.875   9.089
 1876POPC   C1A26835  32.512  36.127   8.625
 1876POPC   D2A26836  32.376  36.451   8.358
 1876POPC   C3A26837  32.156  36.314   7.985
 1876POPC   C4A26838  32.469  36.169   7.743
 1876POPC   C1B26839  32.132  35.792   8.803
 1876POPC   C2B26840  32.076  35.949   8.399
 1876POPC   C3B26841  32.210  35.790   8.015
 1876POPC   C4B26842  31.965  35.856   7.661
 1877POPC   NC326843   4.897  13.805   9.417
 1877POPC   PO426844   4.821  13.181   9.597
 1877POPC   GL126845   4.844  13.376   9.145
 1877POPC   GL226846   5.173  13.567   9.072
 1877POPC   C1A26847   4.945  13.370   8.679
 1877POPC   D2A26848   5.276  13.495   8.388
 1877POPC   C3A26849   5.070  13.488   7.975
 1877POPC   C4A26850   5.262  13.149   7.823
 1877POPC   C1B26851   5.411  13.824   8.803
 1877POPC   C2B26852   5.321  14.016   8.423
 1877POPC   C3B26853   5.400  13.874   8.031
 1877POPC   C4B26854   5.165  13.960   7.696
 1878POPC   NC326855  18.912  10.908   9.695
 1878POPC   PO426856  19.467  10.536   9.480
 1878POPC   GL126857  19.182  10.562   9.172
 1878POPC   GL226858  18.843  10.552   9.312
 1878POPC   C1A26859  18.981  10.450   8.785
 1878POPC   D2A26860  18.780  10.362   8.377
 1878POPC   C3A26861  18.985  10.365   7.937
 1878POPC   C4A26862  18.935  10.173   7.483
 1878POPC   C1B26863  18.775  10.875   9.007
 1878POPC   C2B26864  18.770  10.904   8.566
 1878POPC   C3B26865  18.715  10.810   8.156
 1878POPC   C4B26866  18.705  10.919   7.763
 1879POPC   NC326867  39.583   6.353   9.606
 1879POPC   PO426868  40.130   6.785   9.721
 1879POPC   GL126869  40.000   6.713   9.297
 1879POPC   GL226870  40.280   6.640   9.085
 1879POPC   C1A26871  39.776   6.572   8.923
 1879POPC   D2A26872  39.698   6.528   8.484
 1879POPC   C3A26873  39.993   6.516   8.134
 1879POPC   C4A26874  39.929   6.769   7.815
 1879POPC   C1B26875  40.456   6.829   8.744
 1879POPC   C2B26876  40.456   6.632   8.387
 1879POPC   C3B26877  40.371   6.870   8.072
 1879POPC   C4B26878  40.198   7.195   7.888
 1880POPC   NC326879  43.616   7.933   9.512
 1880POPC   PO426880  43.980   8.523   9.341
 1880POPC   GL126881  43.872   8.214   9.066
 1880POPC   GL226882  44.017   7.917   9.162
 1880POPC   C1A26883  43.731   8.264   8.651
 1880POPC   D2A26884  43.499   8.215   8.288
 1880POPC   C3A26885  43.788   8.121   8.010
 1880POPC   C4A26886  44.042   8.440   7.830
 1880POPC   C1B26887  44.126   7.911   8.712
 1880POPC   C2B26888  44.238   7.712   8.327
 1880POPC   C3B26889  44.299   7.942   7.950
 1880POPC   C4B26890  44.055   7.993   7.599
 1881POPC   NC326891  13.019  41.321   9.482
 1881POPC   PO426892  12.487  41.794   9.458
 1881POPC   GL126893  12.761  41.758   9.095
 1881POPC   GL226894  12.716  41.413   9.058
 1881POPC   C1A26895  12.936  41.625   8.657
 1881POPC   D2A26896  13.163  41.660   8.252
 1881POPC   C3A26897  12.869  41.641   7.889
 1881POPC   C4A26898  12.911  41.721   7.442
 1881POPC   C1B26899  12.634  41.206   8.688
 1881POPC   C2B26900  12.786  41.285   8.273
 1881POPC   C3B26901  12.496  41.301   7.923
 1881POPC   C4B26902  12.438  41.198   7.495
 1882POPC   NC326903  21.680  43.766   9.815
 1882POPC   PO426904  21.330  43.995   9.304
 1882POPC   GL126905  21.333  43.892   8.935
 1882POPC   GL226906  21.639  43.779   8.951
 1882POPC   C1A26907  21.305  44.097   8.579
 1882POPC   D2A26908  21.669  44.233   8.359
 1882POPC   C3A26909  21.681  43.933   8.032
 1882POPC   C4A26910  21.262  43.814   7.805
 1882POPC   C1B26911  21.707  43.760   8.559
 1882POPC   C2B26912  21.692  43.466   8.286
 1882POPC   C3B26913  21.594  43.419   7.882
 1882POPC   C4B26914  21.703  43.761   7.553
 1883POPC   NC326915  29.709  37.120   9.714
 1883POPC   PO426916  30.253  36.728   9.482
 1883POPC   GL126917  30.107  37.067   9.197
 1883POPC   GL226918  29.750  37.134   9.177
 1883POPC   C1A26919  30.060  37.063   8.748
 1883POPC   D2A26920  29.893  36.804   8.449
 1883POPC   C3A26921  29.981  36.947   8.042
 1883POPC   C4A26922  29.826  36.730   7.619
 1883POPC   C1B26923  29.575  37.213   8.752
 1883POPC   C2B26924  29.702  37.278   8.322
 1883POPC   C3B26925  29.545  37.103   7.892
 1883POPC   C4B26926  29.436  37.042   7.448
 1884POPC   NC326927   2.643  25.520   9.481
 1884POPC   PO426928   3.238  25.201   9.511
 1884POPC   GL126929   3.025  25.431   9.148
 1884POPC   GL226930   2.698  25.263   9.043
 1884POPC   C1A26931   3.034  25.369   8.684
 1884POPC   D2A26932   2.723  25.294   8.358
 1884POPC   C3A26933   2.723  25.490   7.956
 1884POPC   C4A26934   2.353  25.499   7.708
 1884POPC   C1B26935   2.736  24.938   8.722
 1884POPC   C2B26936   2.899  24.790   8.331
 1884POPC   C3B26937   2.808  24.988   7.935
 1884POPC   C4B26938   2.945  24.849   7.560
 1885POPC   NC326939   9.900  35.172   9.590
 1885POPC   PO426940   9.756  35.739   9.388
 1885POPC   GL126941   9.869  35.449   9.143
 1885POPC   GL226942  10.176  35.532   9.115
 1885POPC   C1A26943   9.713  35.240   8.812
 1885POPC   D2A26944   9.892  35.142   8.442
 1885POPC   C3A26945   9.680  35.159   8.062
 1885POPC   C4A26946   9.553  35.381   7.727
 1885POPC   C1B26947  10.144  35.538   8.678
 1885POPC   C2B26948  10.196  35.691   8.263
 1885POPC   C3B26949  10.057  35.532   7.850
 1885POPC   C4B26950  10.173  35.442   7.386
 1886POPC   NC326951  21.605  29.535   9.524
 1886POPC   PO426952  21.607  30.260   9.548
 1886POPC   GL126953  21.477  30.084   9.157
 1886POPC   GL226954  21.727  29.840   9.122
 1886POPC   C1A26955  21.371  29.928   8.740
 1886POPC   D2A26956  21.647  29.849   8.401
 1886POPC   C3A26957  21.520  30.058   8.054
 1886POPC   C4A26958  21.283  29.953   7.717
 1886POPC   C1B26959  21.714  29.549   8.813
 1886POPC   C2B26960  21.604  29.341   8.423
 1886POPC   C3B26961  21.506  29.517   8.025
 1886POPC   C4B26962  21.767  29.725   7.722
 1887POPC   NC326963  29.708  23.462   9.418
 1887POPC   PO426964  29.935  22.806   9.506
 1887POPC   GL126965  29.909  23.053   9.145
 1887POPC   GL226966  30.234  23.002   9.066
 1887POPC   C1A26967  29.734  23.096   8.726
 1887POPC   D2A26968  29.600  22.947   8.305
 1887POPC   C3A26969  29.748  23.162   7.957
 1887POPC   C4A26970  29.838  23.105   7.548
 1887POPC   C1B26971  30.203  23.262   8.726
 1887POPC   C2B26972  30.107  23.217   8.310
 1887POPC   C3B26973  30.261  23.060   7.896
 1887POPC   C4B26974  30.192  22.736   7.544
 1888POPC   NC326975   8.772  43.267   9.521
 1888POPC   PO426976   9.086  42.657   9.587
 1888POPC   GL126977   9.076  42.760   9.123
 1888POPC   GL226978   8.936  43.076   9.076
 1888POPC   C1A26979   8.741  42.816   8.709
 1888POPC   D2A26980   8.727  43.048   8.313
 1888POPC   C3A26981   8.993  43.040   7.933
 1888POPC   C4A26982   8.981  42.949   7.523
 1888POPC   C1B26983   9.207  42.992   8.687
 1888POPC   C2B26984   9.239  43.207   8.331
 1888POPC   C3B26985   9.269  43.478   7.981
 1888POPC   C4B26986   9.349  43.312   7.616
 1889POPC   NC326987  14.878  30.344   9.312
 1889POPC   PO426988  15.400  30.658   9.621
 1889POPC   GL126989  15.222  30.867   9.193
 1889POPC   GL226990  14.918  30.763   8.998
 1889POPC   C1A26991  15.250  31.007   8.719
 1889POPC   D2A26992  15.046  30.844   8.335
 1889POPC   C3A26993  15.146  30.903   7.868
 1889POPC   C4A26994  14.938  30.842   7.422
 1889POPC   C1B26995  15.230  30.462   8.804
 1889POPC   C2B26996  15.277  30.207   8.427
 1889POPC   C3B26997  15.108  30.398   8.074
 1889POPC   C4B26998  14.970  30.406   7.671
 1890POPC   NC326999  13.106  18.433   9.727
 1890POPC   PO427000  13.878  18.388   9.580
 1890POPC   GL127001  13.778  18.290   9.104
 1890POPC   GL227002  13.596  18.496   8.903
 1890POPC   C1A27003  13.771  18.050   8.724
 1890POPC   D2A27004  13.732  18.222   8.300
 1890POPC   C3A27005  13.907  18.117   7.889
 1890POPC   C4A27006  13.707  18.142   7.462
 1890POPC   C1B27007  13.326  18.467   8.538
 1890POPC   C2B27008  13.302  18.394   8.079
 1890POPC   C3B27009  13.611  18.513   7.793
 1890POPC   C4B27010  13.773  18.637   7.400
 1891POPC   NC327011  11.890   6.424   9.553
 1891POPC   PO427012  12.040   7.056   9.463
 1891POPC   GL127013  12.077   6.716   9.160
 1891POPC   GL227014  11.842   6.491   9.053
 1891POPC   C1A27015  12.214   6.565   8.732
 1891POPC   D2A27016  12.184   6.216   8.440
 1891POPC   C3A27017  12.362   6.397   8.080
 1891POPC   C4A27018  12.244   6.624   7.694
 1891POPC   C1B27019  11.803   6.925   8.793
 1891POPC   C2B27020  11.708   7.013   8.322
 1891POPC   C3B27021  11.816   6.885   7.875
 1891POPC   C4B27022  11.973   6.994   7.447
 1892POPC   NC327023   7.164   2.140   9.572
 1892POPC   PO427024   6.474   1.932   9.462
 1892POPC   GL127025   6.622   2.123   9.143
 1892POPC   GL227026   6.285   2.180   9.032
 1892POPC   C1A27027   6.759   2.179   8.757
 1892POPC   D2A27028   6.622   2.108   8.322
 1892POPC   C3A27029   6.866   1.968   8.003
 1892POPC   C4A27030   6.755   2.197   7.671
 1892POPC   C1B27031   6.393   1.837   8.758
 1892POPC   C2B27032   6.581   1.617   8.406
 1892POPC   C3B27033   6.444   1.667   8.024
 1892POPC   C4B27034   6.522   1.702   7.628
 1893POPC   NC327035   6.551  13.521   9.662
 1893POPC   PO427036   7.112  13.870   9.461
 1893POPC   GL127037   6.760  13.797   9.163
 1893POPC   GL227038   6.397  13.673   9.191
 1893POPC   C1A27039   6.685  13.782   8.718
 1893POPC   D2A27040   6.358  13.780   8.395
 1893POPC   C3A27041   6.551  13.686   7.979
 1893POPC   C4A27042   6.528  13.451   7.567
 1893POPC   C1B27043   6.338  13.417   8.824
 1893POPC   C2B27044   6.541  13.302   8.427
 1893POPC   C3B27045   6.532  13.174   8.008
 1893POPC   C4B27046   6.262  13.017   7.672
 1894POPC   NC327047  27.870  27.590   9.555
 1894POPC   PO427048  27.230  27.551   9.680
 1894POPC   GL127049  27.526  27.545   9.195
 1894POPC   GL227050  27.835  27.249   9.180
 1894POPC   C1A27051  27.567  27.818   8.757
 1894POPC   D2A27052  27.594  28.030   8.318
 1894POPC   C3A27053  27.701  27.763   7.952
 1894POPC   C4A27054  27.498  27.623   7.585
 1894POPC   C1B27055  27.802  27.113   8.751
 1894POPC   C2B27056  27.575  27.343   8.435
 1894POPC   C3B27057  27.547  27.275   8.004
 1894POPC   C4B27058  27.878  27.294   7.733
 1895POPC   NC327059  21.829  22.489   9.483
 1895POPC   PO427060  22.342  22.121   9.766
 1895POPC   GL127061  22.194  22.028   9.267
 1895POPC   GL227062  22.044  22.297   9.032
 1895POPC   C1A27063  21.980  21.829   8.891
 1895POPC   D2A27064  22.130  22.071   8.549
 1895POPC   C3A27065  22.336  21.908   8.199
 1895POPC   C4A27066  22.073  22.012   7.875
 1895POPC   C1B27067  22.255  22.539   8.723
 1895POPC   C2B27068  22.276  22.662   8.320
 1895POPC   C3B27069  22.023  22.596   7.931
 1895POPC   C4B27070  22.206  22.396   7.564
 1896POPC   NC327071  19.293  16.301   9.427
 1896POPC   PO427072  18.728  15.784   9.505
 1896POPC   GL127073  19.035  15.861   9.223
 1896POPC   GL227074  18.948  16.164   9.096
 1896POPC   C1A27075  19.072  15.705   8.837
 1896POPC   D2A27076  19.117  15.584   8.418
 1896POPC   C3A27077  18.869  15.837   8.149
 1896POPC   C4A27078  18.880  15.933   7.722
 1896POPC   C1B27079  19.264  16.201   8.785
 1896POPC   C2B27080  19.358  16.024   8.397
 1896POPC   C3B27081  19.255  16.159   8.019
 1896POPC   C4B27082  19.201  16.321   7.650
 1897POPC   NC327083  34.372   0.292   9.479
 1897POPC   PO427084  35.056   0.339   9.338
 1897POPC   GL127085  34.741   0.614   9.113
 1897POPC   GL227086  34.366   0.700   9.151
 1897POPC   C1A27087  34.668   0.842   8.731
 1897POPC   D2A27088  34.399   0.734   8.402
 1897POPC   C3A27089  34.553   0.525   8.057
 1897POPC   C4A27090  34.670   0.516   7.630
 1897POPC   C1B27091  34.337   0.419   8.817
 1897POPC   C2B27092  34.308   0.187   8.462
 1897POPC   C3B27093  34.114   0.227   8.082
 1897POPC   C4B27094  34.303   0.206   7.716
 1898POPC   NC327095   5.910  23.410   9.585
 1898POPC   PO427096   6.262  23.948   9.705
 1898POPC   GL127097   5.882  23.838   9.326
 1898POPC   GL227098   5.874  23.472   9.103
 1898POPC   C1A27099   5.724  23.897   8.875
 1898POPC   D2A27100   5.564  24.003   8.459
 1898POPC   C3A27101   5.738  23.769   8.106
 1898POPC   C4A27102   5.871  23.929   7.717
 1898POPC   C1B27103   6.152  23.565   8.767
 1898POPC   C2B27104   6.135  23.928   8.485
 1898POPC   C3B27105   6.253  23.887   8.059
 1898POPC   C4B27106   6.160  23.509   7.814
 1899POPC   NC327107   7.889  36.456   9.460
 1899POPC   PO427108   8.269  35.935   9.501
 1899POPC   GL127109   8.070  36.073   9.155
 1899POPC   GL227110   8.275  36.365   9.120
 1899POPC   C1A27111   7.864  35.989   8.768
 1899POPC   D2A27112   8.066  36.000   8.344
 1899POPC   C3A27113   7.977  36.311   8.035
 1899POPC   C4A27114   8.081  36.158   7.598
 1899POPC   C1B27115   8.114  36.460   8.730
 1899POPC   C2B27116   8.351  36.440   8.371
 1899POPC   C3B27117   8.477  36.280   7.997
 1899POPC   C4B27118   8.351  36.567   7.682
 1900POPC   NC327119  13.211   5.909   9.410
 1900POPC   PO427120  13.919   5.732   9.465
 1900POPC   GL127121  13.656   5.754   9.102
 1900POPC   GL227122  13.303   5.654   8.991
 1900POPC   C1A27123  13.737   5.595   8.709
 1900POPC   D2A27124  13.649   5.460   8.315
 1900POPC   C3A27125  13.545   5.816   8.085
 1900POPC   C4A27126  13.744   5.964   7.747
 1900POPC   C1B27127  13.400   5.999   8.709
 1900POPC   C2B27128  13.232   6.140   8.326
 1900POPC   C3B27129  13.068   5.955   7.932
 1900POPC   C4B27130  13.210   5.545   7.785
 1901POPC   NC327131  26.221  13.945   9.364
 1901POPC   PO427132  26.548  13.434   9.466
 1901POPC   GL127133  26.120  13.518   9.150
 1901POPC   GL227134  25.804  13.473   8.966
 1901POPC   C1A27135  26.092  13.830   8.753
 1901POPC   D2A27136  26.178  13.870   8.309
 1901POPC   C3A27137  25.859  13.680   8.073
 1901POPC   C4A27138  25.833  13.765   7.653
 1901POPC   C1B27139  26.165  13.341   8.660
 1901POPC   C2B27140  26.318  13.397   8.244
 1901POPC   C3B27141  26.291  13.471   7.857
 1901POPC   C4B27142  25.978  13.264   7.675
 1902POPC   NC327143  16.907   0.871   9.398
 1902POPC   PO427144  16.540   0.275   9.466
 1902POPC   GL127145  16.641   0.440   9.073
 1902POPC   GL227146  16.987   0.456   9.094
 1902POPC   C1A27147  16.521   0.264   8.649
 1902POPC   D2A27148  16.517   0.548   8.277
 1902POPC   C3A27149  16.518   0.233   7.993
 1902POPC   C4A27150  16.698   0.158   7.596
 1902POPC   C1B27151  16.894   0.609   8.661
 1902POPC   C2B27152  17.023   0.729   8.245
 1902POPC   C3B27153  16.920   0.535   7.857
 1902POPC   C4B27154  17.093   0.489   7.415
 1903POPC   NC327155  23.029  24.765   9.687
 1903POPC   PO427156  23.150  24.104   9.464
 1903POPC   GL127157  23.056  24.420   9.070
 1903POPC   GL227158  22.848  24.743   9.038
 1903POPC   C1A27159  22.796  24.384   8.676
 1903POPC   D2A27160  22.548  24.654   8.417
 1903POPC   C3A27161  22.528  24.438   8.033
 1903POPC   C4A27162  22.564  24.518   7.628
 1903POPC   C1B27163  23.064  24.810   8.633
 1903POPC   C2B27164  23.210  24.511   8.321
 1903POPC   C3B27165  23.023  24.447   7.925
 1903POPC   C4B27166  23.083  24.602   7.522
 1904POPC   NC327167  42.926   9.047   9.410
 1904POPC   PO427168  43.085   8.532   9.040
 1904POPC   GL127169  43.291   8.850   8.878
 1904POPC   GL227170  43.018   9.076   8.905
 1904POPC   C1A27171  43.288   8.984   8.461
 1904POPC   D2A27172  42.863   9.043   8.342
 1904POPC   C3A27173  42.833   8.930   7.944
 1904POPC   C4A27174  43.240   8.685   7.813
 1904POPC   C1B27175  43.078   9.421   8.630
 1904POPC   C2B27176  43.077   9.466   8.180
 1904POPC   C3B27177  43.147   9.290   7.764
 1904POPC   C4B27178  43.206   9.292   7.263
 1905POPC   NC327179  43.940  43.231   9.546
 1905POPC   PO427180  43.818  42.618   9.478
 1905POPC   GL127181  43.778  42.925   9.173
 1905POPC   GL227182  44.139  42.927   9.157
 1905POPC   C1A27183  43.743  43.281   8.894
 1905POPC   D2A27184  43.932  43.385   8.536
 1905POPC   C3A27185  43.748  43.214   8.170
 1905POPC   C4A27186  43.764  43.293   7.729
 1905POPC   C1B27187  44.307  42.795   8.757
 1905POPC   C2B27188  44.182  42.973   8.348
 1905POPC   C3B27189  44.060  42.892   7.908
 1905POPC   C4B27190  43.997  42.904   7.438
 1906POPC   NC327191  15.311  43.709   9.663
 1906POPC   PO427192  15.017  44.147   9.419
 1906POPC   GL127193  15.186  44.007   9.055
 1906POPC   GL227194  15.265  43.680   9.154
 1906POPC   C1A27195  15.187  43.816   8.668
 1906POPC   D2A27196  15.214  43.669   8.295
 1906POPC   C3A27197  14.928  43.922   8.121
 1906POPC   C4A27198  14.959  43.862   7.738
 1906POPC   C1B27199  15.528  43.480   8.840
 1906POPC   C2B27200  15.563  43.289   8.416
 1906POPC   C3B27201  15.533  43.427   7.975
 1906POPC   C4B27202  15.409  43.642   7.581
 1907POPC   NC327203  28.003  29.315   9.425
 1907POPC   PO427204  27.348  28.989   9.524
 1907POPC   GL127205  27.478  29.209   9.163
 1907POPC   GL227206  27.202  29.404   9.082
 1907POPC   C1A27207  27.692  29.124   8.774
 1907POPC   D2A27208  27.853  29.364   8.420
 1907POPC   C3A27209  27.860  29.138   8.048
 1907POPC   C4A27210  27.819  29.328   7.646
 1907POPC   C1B27211  27.210  29.290   8.663
 1907POPC   C2B27212  27.393  29.086   8.330
 1907POPC   C3B27213  27.382  29.232   7.947
 1907POPC   C4B27214  27.328  29.544   7.714
 1908POPC   NC327215   8.601  31.034   9.350
 1908POPC   PO427216   8.003  30.711   9.509
 1908POPC   GL127217   8.262  30.686   9.145
 1908POPC   GL227218   8.120  30.956   8.996
 1908POPC   C1A27219   8.277  30.543   8.733
 1908POPC   D2A27220   8.153  30.801   8.368
 1908POPC   C3A27221   8.044  30.590   7.977
 1908POPC   C4A27222   8.017  30.749   7.544
 1908POPC   C1B27223   8.467  31.024   8.728
 1908POPC   C2B27224   8.685  30.753   8.470
 1908POPC   C3B27225   8.614  30.844   8.076
 1908POPC   C4B27226   8.500  30.672   7.706
 1909POPC   NC327227  25.874  43.551   9.414
 1909POPC   PO427228  26.298  44.077   9.695
 1909POPC   GL127229  26.156  43.961   9.301
 1909POPC   GL227230  26.220  44.232   9.203
 1909POPC   C1A27231  26.162  43.792   8.853
 1909POPC   D2A27232  25.863  43.740   8.512
 1909POPC   C3A27233  25.959  43.724   8.067
 1909POPC   C4A27234  25.657  43.904   7.796
 1909POPC   C1B27235  25.914  44.228   8.891
 1909POPC   C2B27236  26.095  44.208   8.483
 1909POPC   C3B27237  25.949  44.262   8.075
 1909POPC   C4B27238  26.084  44.300   7.651
 1910POPC   NC327239  16.215  40.699   9.455
 1910POPC   PO427240  15.624  41.015   9.489
 1910POPC   GL127241  15.836  40.900   9.138
 1910POPC   GL227242  16.133  41.073   9.116
 1910POPC   C1A27243  15.801  40.676   8.766
 1910POPC   D2A27244  15.870  40.874   8.374
 1910POPC   C3A27245  16.024  40.575   8.091
 1910POPC   C4A27246  15.984  40.702   7.680
 1910POPC   C1B27247  16.234  40.917   8.740
 1910POPC   C2B27248  16.400  40.992   8.356
 1910POPC   C3B27249  16.199  41.060   7.993
 1910POPC   C4B27250  16.294  41.193   7.583
 1911POPC   NC327251  40.277  17.062   9.488
 1911POPC   PO427252  39.723  16.559   9.356
 1911POPC   GL127253  39.941  16.541   9.022
 1911POPC   GL227254  40.170  16.797   9.078
 1911POPC   C1A27255  40.089  16.520   8.630
 1911POPC   D2A27256  39.956  16.713   8.281
 1911POPC   C3A27257  40.219  16.522   8.009
 1911POPC   C4A27258  40.039  16.345   7.690
 1911POPC   C1B27259  40.053  17.028   8.729
 1911POPC   C2B27260  40.270  17.098   8.379
 1911POPC   C3B27261  40.287  17.036   7.985
 1911POPC   C4B27262  40.108  16.880   7.636
 1912POPC   NC327263  29.133  39.020   9.674
 1912POPC   PO427264  28.677  39.396   9.511
 1912POPC   GL127265  29.009  39.240   9.206
 1912POPC   GL227266  29.207  38.930   9.169
 1912POPC   C1A27267  29.164  39.346   8.791
 1912POPC   D2A27268  29.215  39.472   8.383
 1912POPC   C3A27269  28.981  39.411   8.086
 1912POPC   C4A27270  29.131  39.479   7.704
 1912POPC   C1B27271  28.957  38.893   8.781
 1912POPC   C2B27272  29.138  38.965   8.360
 1912POPC   C3B27273  29.204  38.986   7.917
 1912POPC   C4B27274  28.814  39.074   7.722
 1913POPC   NC327275  37.488   1.725   9.438
 1913POPC   PO427276  38.105   1.967   9.594
 1913POPC   GL127277  37.839   2.026   9.185
 1913POPC   GL227278  37.509   2.200   9.156
 1913POPC   C1A27279  37.816   1.904   8.725
 1913POPC   D2A27280  37.500   1.760   8.423
 1913POPC   C3A27281  37.605   1.719   7.998
 1913POPC   C4A27282  37.956   1.673   7.713
 1913POPC   C1B27283  37.569   2.351   8.734
 1913POPC   C2B27284  37.538   2.263   8.266
 1913POPC   C3B27285  37.652   2.226   7.818
 1913POPC   C4B27286  37.432   2.342   7.444
 1914POPC   NC327287  21.272   7.393   9.513
 1914POPC   PO427288  21.770   7.799   9.384
 1914POPC   GL127289  21.513   7.526   9.056
 1914POPC   GL227290  21.163   7.373   9.029
 1914POPC   C1A27291  21.429   7.505   8.602
 1914POPC   D2A27292  21.175   7.695   8.264
 1914POPC   C3A27293  21.442   7.759   7.904
 1914POPC   C4A27294  21.669   7.397   7.848
 1914POPC   C1B27295  21.071   7.139   8.655
 1914POPC   C2B27296  21.097   7.044   8.223
 1914POPC   C3B27297  21.160   7.311   7.866
 1914POPC   C4B27298  20.945   7.572   7.535
 1915POPC   NC327299  35.681  11.439   9.507
 1915POPC   PO427300  35.054  11.082   9.532
 1915POPC   GL127301  35.265  11.259   9.213
 1915POPC   GL227302  35.472  11.007   9.122
 1915POPC   C1A27303  35.162  11.439   8.826
 1915POPC   D2A27304  35.393  11.478   8.439
 1915POPC   C3A27305  35.273  11.367   8.031
 1915POPC   C4A27306  35.094  11.264   7.648
 1915POPC   C1B27307  35.450  11.045   8.693
 1915POPC   C2B27308  35.466  10.955   8.266
 1915POPC   C3B27309  35.417  10.897   7.816
 1915POPC   C4B27310  35.278  10.855   7.371
 1916POPC   NC327311   9.033  44.262   9.606
 1916POPC   PO427312   9.120  43.599   9.563
 1916POPC   GL127313   9.066  43.794   9.141
 1916POPC   GL227314   8.801  43.572   9.105
 1916POPC   C1A27315   8.845  43.952   8.723
 1916POPC   D2A27316   8.763  44.327   8.416
 1916POPC   C3A27317   8.894  44.315   7.947
 1916POPC   C4A27318   9.067  43.915   7.736
 1916POPC   C1B27319   8.441  43.609   8.813
 1916POPC   C2B27320   8.475  43.499   8.362
 1916POPC   C3B27321   8.595  43.402   7.945
 1916POPC   C4B27322   8.854  43.441   7.571
 1917POPC   NC327323  39.683  21.849   9.609
 1917POPC   PO427324  40.166  22.310   9.462
 1917POPC   GL127325  40.336  22.149   9.101
 1917POPC   GL227326  40.097  21.887   9.134
 1917POPC   C1A27327  40.306  22.263   8.676
 1917POPC   D2A27328  39.986  22.136   8.408
 1917POPC   C3A27329  40.050  22.290   8.007
 1917POPC   C4A27330  40.239  22.395   7.637
 1917POPC   C1B27331  39.921  21.703   8.763
 1917POPC   C2B27332  39.638  21.760   8.411
 1917POPC   C3B27333  39.832  21.821   8.014
 1917POPC   C4B27334  39.901  21.954   7.572
 1918POPC   NC327335  22.872  10.242   9.507
 1918POPC   PO427336  22.991  10.877   9.628
 1918POPC   GL127337  23.109  10.636   9.200
 1918POPC   GL227338  23.141  10.230   9.098
 1918POPC   C1A27339  22.925  10.749   8.770
 1918POPC   D2A27340  22.638  10.905   8.391
 1918POPC   C3A27341  22.598  10.671   7.963
 1918POPC   C4A27342  22.815  10.298   7.749
 1918POPC   C1B27343  22.887  10.227   8.740
 1918POPC   C2B27344  22.858  10.432   8.340
 1918POPC   C3B27345  23.115  10.616   8.010
 1918POPC   C4B27346  23.351  10.412   7.726
 1919POPC   NC327347  12.254  41.385   9.339
 1919POPC   PO427348  11.694  41.838   9.362
 1919POPC   GL127349  11.975  41.701   9.073
 1919POPC   GL227350  11.710  41.595   8.873
 1919POPC   C1A27351  12.352  41.674   8.776
 1919POPC   D2A27352  12.332  41.511   8.371
 1919POPC   C3A27353  12.335  41.789   8.045
 1919POPC   C4A27354  12.199  41.635   7.658
 1919POPC   C1B27355  11.997  41.295   8.693
 1919POPC   C2B27356  11.977  41.088   8.328
 1919POPC   C3B27357  11.967  41.310   7.980
 1919POPC   C4B27358  11.867  41.146   7.607
 1920POPC   NC327359  33.492  18.234   9.626
 1920POPC   PO427360  34.047  18.013   9.550
 1920POPC   GL127361  33.834  18.203   9.203
 1920POPC   GL227362  33.570  17.979   9.165
 1920POPC   C1A27363  34.004  18.317   8.794
 1920POPC   D2A27364  33.943  18.129   8.388
 1920POPC   C3A27365  34.122  18.325   8.047
 1920POPC   C4A27366  34.105  18.286   7.653
 1920POPC   C1B27367  33.497  18.203   8.788
 1920POPC   C2B27368  33.416  18.359   8.397
 1920POPC   C3B27369  33.585  18.197   8.024
 1920POPC   C4B27370  33.599  18.342   7.639
 1921POPC   NC327371  13.039  34.011   9.632
 1921POPC   PO427372  13.129  33.344   9.549
 1921POPC   GL127373  13.036  33.696   9.214
 1921POPC   GL227374  12.688  33.764   9.197
 1921POPC   C1A27375  12.903  33.860   8.743
 1921POPC   D2A27376  13.062  33.883   8.278
 1921POPC   C3A27377  12.842  33.851   7.866
 1921POPC   C4A27378  13.035  33.929   7.452
 1921POPC   C1B27379  12.546  33.479   8.835
 1921POPC   C2B27380  12.408  33.397   8.397
 1921POPC   C3B27381  12.483  33.437   7.934
 1921POPC   C4B27382  12.675  33.511   7.499
 1922POPC   NC327383   1.820  10.351   9.505
 1922POPC   PO427384   2.365  10.792   9.534
 1922POPC   GL127385   2.272  10.459   9.238
 1922POPC   GL227386   1.961  10.571   9.089
 1922POPC   C1A27387   2.365  10.489   8.790
 1922POPC   D2A27388   2.067  10.583   8.458
 1922POPC   C3A27389   2.168  10.748   8.044
 1922POPC   C4A27390   2.027  10.607   7.634
 1922POPC   C1B27391   1.845  10.900   8.844
 1922POPC   C2B27392   1.631  10.889   8.453
 1922POPC   C3B27393   1.665  10.638   8.114
 1922POPC   C4B27394   1.735  10.940   7.830
 1923POPC   NC327395  23.693  20.385   9.366
 1923POPC   PO427396  23.632  20.985   9.506
 1923POPC   GL127397  23.642  20.835   9.116
 1923POPC   GL227398  24.011  20.774   9.132
 1923POPC   C1A27399  23.706  20.875   8.700
 1923POPC   D2A27400  24.033  20.795   8.402
 1923POPC   C3A27401  23.802  20.885   8.095
 1923POPC   C4A27402  23.693  20.761   7.676
 1923POPC   C1B27403  24.010  20.466   8.788
 1923POPC   C2B27404  23.672  20.435   8.475
 1923POPC   C3B27405  23.652  20.401   8.039
 1923POPC   C4B27406  23.543  20.153   7.704
 1924POPC   NC327407  34.204  27.284   9.474
 1924POPC   PO427408  34.792  27.657   9.509
 1924POPC   GL127409  34.912  27.627   9.066
 1924POPC   GL227410  34.900  27.259   9.085
 1924POPC   C1A27411  34.874  27.485   8.644
 1924POPC   D2A27412  34.605  27.388   8.358
 1924POPC   C3A27413  34.687  27.553   7.972
 1924POPC   C4A27414  34.413  27.604   7.653
 1924POPC   C1B27415  34.532  27.096   8.832
 1924POPC   C2B27416  34.444  26.914   8.406
 1924POPC   C3B27417  34.394  27.089   7.977
 1924POPC   C4B27418  34.399  27.119   7.525
 1925POPC   NC327419  25.145  44.203   9.467
 1925POPC   PO427420  25.388  43.537   9.365
 1925POPC   GL127421  25.175  43.832   9.076
 1925POPC   GL227422  25.380  44.168   9.013
 1925POPC   C1A27423  25.153  43.632   8.658
 1925POPC   D2A27424  24.956  43.514   8.275
 1925POPC   C3A27425  25.167  43.675   7.888
 1925POPC   C4A27426  25.254  43.815   7.451
 1925POPC   C1B27427  25.089  44.145   8.659
 1925POPC   C2B27428  25.038  44.067   8.219
 1925POPC   C3B27429  25.125  44.182   7.771
 1925POPC   C4B27430  25.233  44.322   7.337
 1926POPC   NC327431  40.397  25.965   9.411
 1926POPC   PO427432  39.844  26.202   9.791
 1926POPC   GL127433  39.929  26.240   9.344
 1926POPC   GL227434  39.869  25.956   9.216
 1926POPC   C1A27435  39.921  26.304   8.850
 1926POPC   D2A27436  39.880  26.116   8.410
 1926POPC   C3A27437  39.980  26.307   7.982
 1926POPC   C4A27438  40.024  26.201   7.512
 1926POPC   C1B27439  40.057  25.753   8.833
 1926POPC   C2B27440  40.061  25.641   8.373
 1926POPC   C3B27441  39.978  25.790   7.911
 1926POPC   C4B27442  39.909  25.705   7.441
 1927POPC   NC327443   8.252  13.117   9.429
 1927POPC   PO427444   7.907  12.462   9.352
 1927POPC   GL127445   8.133  12.738   9.087
 1927POPC   GL227446   8.503  12.694   9.174
 1927POPC   C1A27447   8.011  12.918   8.684
 1927POPC   D2A27448   7.894  13.159   8.324
 1927POPC   C3A27449   8.086  13.117   7.917
 1927POPC   C4A27450   7.915  13.120   7.439
 1927POPC   C1B27451   8.522  12.957   8.797
 1927POPC   C2B27452   8.413  13.143   8.401
 1927POPC   C3B27453   8.585  12.998   8.023
 1927POPC   C4B27454   8.501  12.656   7.762
 1928POPC   NC327455  26.396  39.850   9.855
 1928POPC   PO427456  26.706  40.188   9.361
 1928POPC   GL127457  26.995  40.146   9.023
 1928POPC   GL227458  27.045  39.842   9.166
 1928POPC   C1A27459  26.873  40.310   8.632
 1928POPC   D2A27460  26.464  40.208   8.416
 1928POPC   C3A27461  26.378  40.326   8.012
 1928POPC   C4A27462  26.582  40.255   7.634
 1928POPC   C1B27463  26.834  39.726   8.781
 1928POPC   C2B27464  26.848  39.876   8.375
 1928POPC   C3B27465  26.900  40.106   8.025
 1928POPC   C4B27466  26.921  39.852   7.681
 1929POPC   NC327467  35.951   0.253   9.592
 1929POPC   PO427468  36.653   0.359   9.604
 1929POPC   GL127469  36.317   0.292   9.253
 1929POPC   GL227470  36.145   0.655   9.200
 1929POPC   C1A27471  36.117   0.267   8.851
 1929POPC   D2A27472  36.075   0.505   8.474
 1929POPC   C3A27473  35.840   0.397   8.129
 1929POPC   C4A27474  36.087   0.424   7.761
 1929POPC   C1B27475  36.268   0.853   8.790
 1929POPC   C2B27476  36.504   0.805   8.399
 1929POPC   C3B27477  36.380   0.812   7.957
 1929POPC   C4B27478  36.351   0.855   7.500
 1930POPC   NC327479  14.015   5.341   9.239
 1930POPC   PO427480  14.275   4.983   9.756
 1930POPC   GL127481  14.380   4.942   9.266
 1930POPC   GL227482  14.652   5.192   9.122
 1930POPC   C1A27483  14.382   4.945   8.791
 1930POPC   D2A27484  14.507   4.756   8.419
 1930POPC   C3A27485  14.443   5.021   8.045
 1930POPC   C4A27486  14.365   4.904   7.595
 1930POPC   C1B27487  14.529   5.462   8.748
 1930POPC   C2B27488  14.187   5.480   8.440
 1930POPC   C3B27489  14.197   5.569   8.003
 1930POPC   C4B27490  14.431   5.394   7.663
 1931POPC   NC327491  24.026  27.688   9.371
 1931POPC   PO427492  24.766  27.624   9.494
 1931POPC   GL127493  24.496  27.638   9.162
 1931POPC   GL227494  24.544  27.287   9.000
 1931POPC   C1A27495  24.447  27.772   8.764
 1931POPC   D2A27496  24.639  27.495   8.480
 1931POPC   C3A27497  24.537  27.588   8.052
 1931POPC   C4A27498  24.498  27.818   7.689
 1931POPC   C1B27499  24.173  27.371   8.791
 1931POPC   C2B27500  24.129  27.526   8.373
 1931POPC   C3B27501  24.100  27.324   7.967
 1931POPC   C4B27502  24.305  27.342   7.591
 1932POPC   NC327503  23.099   5.579   9.694
 1932POPC   PO427504  22.481   5.602   9.493
 1932POPC   GL127505  22.700   5.580   9.160
 1932POPC   GL227506  22.947   5.762   9.233
 1932POPC   C1A27507  22.590   5.560   8.764
 1932POPC   D2A27508  22.684   5.773   8.419
 1932POPC   C3A27509  22.748   5.617   8.057
 1932POPC   C4A27510  22.815   5.850   7.673
 1932POPC   C1B27511  22.968   5.926   8.822
 1932POPC   C2B27512  23.209   5.803   8.473
 1932POPC   C3B27513  23.167   5.902   8.042
 1932POPC   C4B27514  23.281   6.046   7.618
 1933POPC   NC327515  13.908  34.183   9.509
 1933POPC   PO427516  14.589  34.329   9.632
 1933POPC   GL127517  14.499  34.660   9.282
 1933POPC   GL227518  14.148  34.845   9.253
 1933POPC   C1A27519  14.668  34.645   8.853
 1933POPC   D2A27520  14.689  34.372   8.472
 1933POPC   C3A27521  14.561  34.558   8.077
 1933POPC   C4A27522  14.686  34.546   7.630
 1933POPC   C1B27523  14.156  34.516   8.932
 1933POPC   C2B27524  14.171  34.511   8.493
 1933POPC   C3B27525  14.022  34.464   8.074
 1933POPC   C4B27526  14.204  34.656   7.702
 1934POPC   NC327527  36.498  36.145   9.575
 1934POPC   PO427528  35.994  36.472   9.991
 1934POPC   GL127529  35.977  36.271   9.526
 1934POPC   GL227530  35.846  36.539   9.332
 1934POPC   C1A27531  36.027  36.129   9.040
 1934POPC   D2A27532  36.283  36.321   8.662
 1934POPC   C3A27533  36.274  36.257   8.190
 1934POPC   C4A27534  36.392  35.884   7.910
 1934POPC   C1B27535  35.882  36.587   8.905
 1934POPC   C2B27536  35.764  36.354   8.528
 1934POPC   C3B27537  35.705  36.420   8.083
 1934POPC   C4B27538  35.987  36.266   7.767
 1935POPC   NC327539  30.119  28.556   9.552
 1935POPC   PO427540  30.201  29.281   9.430
 1935POPC   GL127541  30.035  29.156   9.081
 1935POPC   GL227542  30.105  28.815   9.114
 1935POPC   C1A27543  30.012  29.118   8.659
 1935POPC   D2A27544  30.007  29.070   8.253
 1935POPC   C3A27545  29.957  29.195   7.915
 1935POPC   C4A27546  29.633  29.203   7.751
 1935POPC   C1B27547  30.372  28.721   8.803
 1935POPC   C2B27548  30.444  28.904   8.432
 1935POPC   C3B27549  30.314  28.740   8.041
 1935POPC   C4B27550  30.119  28.769   7.675
 1936POPC   NC327551   1.829  13.090   9.337
 1936POPC   PO427552   1.845  13.757   9.566
 1936POPC   GL127553   1.783  13.780   9.127
 1936POPC   GL227554   2.033  13.529   9.034
 1936POPC   C1A27555   1.838  13.798   8.659
 1936POPC   D2A27556   1.933  13.406   8.431
 1936POPC   C3A27557   1.836  13.460   8.008
 1936POPC   C4A27558   1.948  13.827   7.771
 1936POPC   C1B27559   2.322  13.852   8.803
 1936POPC   C2B27560   2.454  13.821   8.364
 1936POPC   C3B27561   2.404  13.972   7.923
 1936POPC   C4B27562   2.384  13.804   7.475
 1937POPC   NC327563  10.617  10.121   9.457
 1937POPC   PO427564  10.217  10.632   9.504
 1937POPC   GL127565  10.383  10.467   9.133
 1937POPC   GL227566  10.733  10.461   9.115
 1937POPC   C1A27567  10.338  10.219   8.781
 1937POPC   D2A27568  10.420  10.091   8.380
 1937POPC   C3A27569  10.407  10.448   8.118
 1937POPC   C4A27570  10.505  10.316   7.736
 1937POPC   C1B27571  10.736  10.699   8.759
 1937POPC   C2B27572  10.611  10.874   8.390
 1937POPC   C3B27573  10.807  10.871   8.044
 1937POPC   C4B27574  10.641  10.772   7.701
 1938POPC   NC327575   8.042  33.257   9.557
 1938POPC   PO427576   8.538  32.783   9.450
 1938POPC   GL127577   8.295  33.056   9.142
 1938POPC   GL227578   7.931  32.965   9.128
 1938POPC   C1A27579   8.248  32.960   8.708
 1938POPC   D2A27580   8.210  32.698   8.331
 1938POPC   C3A27581   8.424  32.918   7.997
 1938POPC   C4A27582   8.298  33.360   7.923
 1938POPC   C1B27583   7.790  33.178   8.740
 1938POPC   C2B27584   7.955  33.190   8.336
 1938POPC   C3B27585   7.927  32.986   7.961
 1938POPC   C4B27586   7.985  32.578   7.861
 1939POPC   NC327587  18.794  37.611   9.971
 1939POPC   PO427588  19.392  37.542   9.616
 1939POPC   GL127589  19.140  37.610   9.207
 1939POPC   GL227590  18.818  37.405   9.148
 1939POPC   C1A27591  19.174  37.490   8.766
 1939POPC   D2A27592  19.457  37.539   8.447
 1939POPC   C3A27593  19.269  37.590   8.063
 1939POPC   C4A27594  19.480  37.463   7.716
 1939POPC   C1B27595  18.787  37.803   8.880
 1939POPC   C2B27596  18.949  37.870   8.455
 1939POPC   C3B27597  18.798  37.845   8.051
 1939POPC   C4B27598  18.864  37.633   7.674
 1940POPC   NC327599  23.664  10.081   9.572
 1940POPC   PO427600  23.873  10.772   9.542
 1940POPC   GL127601  23.679  10.718   9.156
 1940POPC   GL227602  23.610  10.394   9.172
 1940POPC   C1A27603  23.912  10.496   8.782
 1940POPC   D2A27604  24.064  10.567   8.409
 1940POPC   C3A27605  23.714  10.848   8.257
 1940POPC   C4A27606  23.591  10.825   7.834
 1940POPC   C1B27607  23.389  10.515   8.779
 1940POPC   C2B27608  23.400  10.399   8.379
 1940POPC   C3B27609  23.723  10.372   8.094
 1940POPC   C4B27610  23.871  10.319   7.693
 1941POPC   NC327611   0.968  38.089   9.491
 1941POPC   PO427612   0.344  37.819   9.480
 1941POPC   GL127613   0.672  37.739   9.189
 1941POPC   GL227614   0.403  37.801   8.963
 1941POPC   C1A27615   0.741  37.459   8.837
 1941POPC   D2A27616   0.656  37.630   8.446
 1941POPC   C3A27617   0.537  37.338   8.157
 1941POPC   C4A27618   0.457  37.291   7.733
 1941POPC   C1B27619   0.020  37.995   8.845
 1941POPC   C2B27620  44.906  38.063   8.423
 1941POPC   C3B27621   0.116  38.069   8.014
 1941POPC   C4B27622   0.489  37.792   7.891
 1942POPC   NC327623  17.015  34.751   9.481
 1942POPC   PO427624  16.483  34.400   9.376
 1942POPC   GL127625  16.812  34.541   9.074
 1942POPC   GL227626  16.726  34.910   9.085
 1942POPC   C1A27627  16.949  34.324   8.710
 1942POPC   D2A27628  16.729  34.409   8.363
 1942POPC   C3A27629  16.905  34.451   7.979
 1942POPC   C4A27630  16.501  34.341   7.807
 1942POPC   C1B27631  16.561  34.959   8.662
 1942POPC   C2B27632  16.771  34.909   8.251
 1942POPC   C3B27633  16.572  34.855   7.856
 1942POPC   C4B27634  16.641  34.943   7.447
 1943POPC   NC327635   1.373  41.942   9.373
 1943POPC   PO427636   0.791  42.193   9.423
 1943POPC   GL127637   1.098  42.309   9.135
 1943POPC   GL227638   1.059  42.653   9.173
 1943POPC   C1A27639   1.134  42.158   8.714
 1943POPC   D2A27640   1.021  42.366   8.313
 1943POPC   C3A27641   1.227  42.227   7.920
 1943POPC   C4A27642   1.431  42.043   7.542
 1943POPC   C1B27643   1.271  42.655   8.765
 1943POPC   C2B27644   1.509  42.426   8.463
 1943POPC   C3B27645   1.631  42.505   8.029
 1943POPC   C4B27646   1.543  42.545   7.568
 1944POPC   NC327647  14.913  34.674   9.584
 1944POPC   PO427648  15.047  34.145   9.283
 1944POPC   GL127649  15.169  34.514   9.068
 1944POPC   GL227650  15.255  34.818   9.224
 1944POPC   C1A27651  15.144  34.595   8.636
 1944POPC   D2A27652  15.339  34.555   8.262
 1944POPC   C3A27653  15.084  34.479   7.940
 1944POPC   C4A27654  15.186  34.428   7.516
 1944POPC   C1B27655  15.048  35.038   8.887
 1944POPC   C2B27656  15.209  35.098   8.484
 1944POPC   C3B27657  15.111  34.980   8.074
 1944POPC   C4B27658  15.043  34.912   7.653
 1945POPC   NC327659  40.664  10.743   9.487
 1945POPC   PO427660  40.863  10.099   9.543
 1945POPC   GL127661  40.967  10.408   9.177
 1945POPC   GL227662  41.049  10.769   9.147
 1945POPC   C1A27663  41.071  10.475   8.721
 1945POPC   D2A27664  40.854  10.689   8.376
 1945POPC   C3A27665  40.936  10.637   7.942
 1945POPC   C4A27666  40.715  10.357   7.686
 1945POPC   C1B27667  40.689  10.829   8.840
 1945POPC   C2B27668  40.461  11.007   8.473
 1945POPC   C3B27669  40.388  10.947   8.038
 1945POPC   C4B27670  40.387  10.777   7.640
 1946POPC   NC327671  14.616  27.898   9.422
 1946POPC   PO427672  15.319  27.744   9.529
 1946POPC   GL127673  15.216  27.594   9.150
 1946POPC   GL227674  14.915  27.481   9.260
 1946POPC   C1A27675  15.368  27.532   8.729
 1946POPC   D2A27676  15.619  27.386   8.387
 1946POPC   C3A27677  15.361  27.327   8.037
 1946POPC   C4A27678  15.130  27.639   7.831
 1946POPC   C1B27679  14.874  27.417   8.827
 1946POPC   C2B27680  14.959  27.520   8.400
 1946POPC   C3B27681  14.674  27.608   8.097
 1946POPC   C4B27682  14.755  27.297   7.826
 1947POPC   NC327683  22.020   8.894   9.541
 1947POPC   PO427684  22.681   9.110   9.746
 1947POPC   GL127685  22.450   8.923   9.296
 1947POPC   GL227686  22.357   9.110   9.093
 1947POPC   C1A27687  22.011   8.866   8.876
 1947POPC   D2A27688  21.790   8.932   8.420
 1947POPC   C3A27689  21.919   9.067   7.986
 1947POPC   C4A27690  22.265   8.919   7.758
 1947POPC   C1B27691  22.441   9.031   8.664
 1947POPC   C2B27692  22.361   9.085   8.247
 1947POPC   C3B27693  22.488   9.337   7.915
 1947POPC   C4B27694  22.548   9.239   7.482
 1948POPC   NC327695  11.642  23.065   9.723
 1948POPC   PO427696  11.112  22.747   9.437
 1948POPC   GL127697  11.005  22.904   9.029
 1948POPC   GL227698  11.058  23.215   9.064
 1948POPC   C1A27699  11.051  22.968   8.558
 1948POPC   D2A27700  10.942  22.742   8.141
 1948POPC   C3A27701  11.281  22.652   7.841
 1948POPC   C4A27702  11.402  22.668   7.422
 1948POPC   C1B27703  11.433  23.404   8.847
 1948POPC   C2B27704  11.407  23.392   8.407
 1948POPC   C3B27705  11.328  23.109   8.062
 1948POPC   C4B27706  11.349  23.130   7.602
 1949POPC   NC327707  43.473  22.485   9.456
 1949POPC   PO427708  43.252  21.841   9.600
 1949POPC   GL127709  43.024  21.845   9.183
 1949POPC   GL227710  42.986  22.204   9.101
 1949POPC   C1A27711  42.791  21.857   8.782
 1949POPC   D2A27712  42.858  22.150   8.411
 1949POPC   C3A27713  42.953  21.928   8.035
 1949POPC   C4A27714  43.339  21.949   7.788
 1949POPC   C1B27715  43.038  22.501   8.778
 1949POPC   C2B27716  43.232  22.608   8.416
 1949POPC   C3B27717  43.142  22.467   8.018
 1949POPC   C4B27718  43.408  22.441   7.670
 1950POPC   NC327719  24.604   6.229   9.435
 1950POPC   PO427720  24.933   6.833   9.489
 1950POPC   GL127721  24.667   6.717   9.110
 1950POPC   GL227722  24.426   6.451   9.015
 1950POPC   C1A27723  24.692   6.814   8.660
 1950POPC   D2A27724  24.998   6.890   8.306
 1950POPC   C3A27725  24.757   6.860   7.930
 1950POPC   C4A27726  24.493   6.508   7.831
 1950POPC   C1B27727  24.191   6.733   8.770
 1950POPC   C2B27728  24.245   6.967   8.366
 1950POPC   C3B27729  24.160   6.872   7.939
 1950POPC   C4B27730  24.086   6.643   7.542
 1951POPC   NC327731   8.167   8.632   9.626
 1951POPC   PO427732   8.505   9.162   9.655
 1951POPC   GL127733   8.336   9.174   9.231
 1951POPC   GL227734   8.454   8.845   9.192
 1951POPC   C1A27735   8.060   9.002   8.875
 1951POPC   D2A27736   8.154   8.790   8.479
 1951POPC   C3A27737   8.124   9.031   8.069
 1951POPC   C4A27738   8.227   9.242   7.649
 1951POPC   C1B27739   8.522   8.549   8.859
 1951POPC   C2B27740   8.502   8.406   8.447
 1951POPC   C3B27741   8.359   8.565   8.063
 1951POPC   C4B27742   8.271   8.742   7.682
 1952POPC   NC327743  34.935  36.170   9.433
 1952POPC   PO427744  34.324  35.985   9.556
 1952POPC   GL127745  34.542  35.983   9.168
 1952POPC   GL227746  34.455  36.347   9.177
 1952POPC   C1A27747  34.801  36.008   8.755
 1952POPC   D2A27748  34.861  35.769   8.339
 1952POPC   C3A27749  34.798  36.075   8.030
 1952POPC   C4A27750  34.780  36.276   7.652
 1952POPC   C1B27751  34.177  36.557   8.852
 1952POPC   C2B27752  34.165  36.472   8.370
 1952POPC   C3B27753  34.304  36.285   7.925
 1952POPC   C4B27754  34.335  36.343   7.422
 1953POPC   NC327755  41.220  33.964   9.469
 1953POPC   PO427756  41.834  33.619   9.536
 1953POPC   GL127757  41.587  33.701   9.191
 1953POPC   GL227758  41.374  33.439   9.194
 1953POPC   C1A27759  41.440  33.958   8.831
 1953POPC   D2A27760  41.532  34.184   8.434
 1953POPC   C3A27761  41.411  34.055   8.021
 1953POPC   C4A27762  41.126  33.987   7.683
 1953POPC   C1B27763  41.506  33.454   8.762
 1953POPC   C2B27764  41.529  33.662   8.390
 1953POPC   C3B27765  41.584  33.558   7.997
 1953POPC   C4B27766  41.391  33.548   7.571
 1954POPC   NC327767   4.917  31.865   9.546
 1954POPC   PO427768   5.156  32.487   9.595
 1954POPC   GL127769   5.255  32.345   9.162
 1954POPC   GL227770   5.316  31.984   9.145
 1954POPC   C1A27771   5.012  32.205   8.780
 1954POPC   D2A27772   5.093  32.044   8.348
 1954POPC   C3A27773   4.996  32.295   7.980
 1954POPC   C4A27774   4.945  32.236   7.527
 1954POPC   C1B27775   5.511  32.163   8.740
 1954POPC   C2B27776   5.524  32.369   8.367
 1954POPC   C3B27777   5.487  32.142   7.982
 1954POPC   C4B27778   5.534  31.855   7.685
 1955POPC   NC327779   9.037  32.618   9.560
 1955POPC   PO427780   8.679  32.024   9.680
 1955POPC   GL127781   8.807  32.093   9.276
 1955POPC   GL227782   8.512  31.977   9.099
 1955POPC   C1A27783   8.778  32.397   8.938
 1955POPC   D2A27784   9.055  32.433   8.601
 1955POPC   C3A27785   8.972  32.275   8.212
 1955POPC   C4A27786   9.093  32.391   7.819
 1955POPC   C1B27787   8.841  31.913   8.793
 1955POPC   C2B27788   8.903  31.758   8.415
 1955POPC   C3B27789   9.070  31.814   8.028
 1955POPC   C4B27790   8.773  31.983   7.768
 1956POPC   NC327791   7.962  10.120   9.508
 1956POPC   PO427792   7.563   9.612   9.381
 1956POPC   GL127793   7.431   9.846   9.082
 1956POPC   GL227794   7.709   9.993   9.031
 1956POPC   C1A27795   7.169  10.006   8.815
 1956POPC   D2A27796   7.075   9.871   8.438
 1956POPC   C3A27797   7.381   9.893   8.140
 1956POPC   C4A27798   7.440   9.834   7.702
 1956POPC   C1B27799   7.620   9.809   8.597
 1956POPC   C2B27800   7.825   9.591   8.205
 1956POPC   C3B27801   7.941   9.689   7.745
 1956POPC   C4B27802   7.929   9.508   7.303
 1957POPC   NC327803  34.081  41.793   9.456
 1957POPC   PO427804  33.497  41.543   9.652
 1957POPC   GL127805  33.669  41.534   9.258
 1957POPC   GL227806  33.478  41.248   9.176
 1957POPC   C1A27807  33.852  41.714   8.844
 1957POPC   D2A27808  33.919  41.500   8.463
 1957POPC   C3A27809  34.051  41.650   8.085
 1957POPC   C4A27810  34.146  41.439   7.728
 1957POPC   C1B27811  33.695  41.198   8.832
 1957POPC   C2B27812  33.521  41.195   8.440
 1957POPC   C3B27813  33.725  41.273   8.026
 1957POPC   C4B27814  33.630  41.176   7.604
 1958POPC   NC327815  26.515  10.471   9.665
 1958POPC   PO427816  26.947  11.027   9.685
 1958POPC   GL127817  26.834  10.619   9.299
 1958POPC   GL227818  26.619  10.360   9.184
 1958POPC   C1A27819  27.080  10.434   8.952
 1958POPC   D2A27820  27.150  10.299   8.536
 1958POPC   C3A27821  27.080  10.431   8.107
 1958POPC   C4A27822  27.117  10.164   7.729
 1958POPC   C1B27823  26.624  10.635   8.827
 1958POPC   C2B27824  26.571  10.750   8.403
 1958POPC   C3B27825  26.542  10.426   8.110
 1958POPC   C4B27826  26.619  10.272   7.741
 1959POPC   NC327827   2.101  20.364   9.343
 1959POPC   PO427828   1.663  20.869   9.483
 1959POPC   GL127829   1.791  20.662   9.096
 1959POPC   GL227830   2.035  20.931   9.059
 1959POPC   C1A27831   1.971  20.425   8.713
 1959POPC   D2A27832   2.052  20.337   8.269
 1959POPC   C3A27833   1.689  20.493   8.025
 1959POPC   C4A27834   1.836  20.360   7.643
 1959POPC   C1B27835   1.858  20.924   8.661
 1959POPC   C2B27836   1.979  20.839   8.260
 1959POPC   C3B27837   2.109  20.734   7.827
 1959POPC   C4B27838   2.072  20.956   7.404
 1960POPC   NC327839   2.503  12.680   9.394
 1960POPC   PO427840   1.882  12.717   9.605
 1960POPC   GL127841   2.040  12.645   9.159
 1960POPC   GL227842   1.711  12.648   9.074
 1960POPC   C1A27843   2.057  12.902   8.745
 1960POPC   D2A27844   1.915  12.900   8.343
 1960POPC   C3A27845   2.145  13.016   8.016
 1960POPC   C4A27846   1.956  13.097   7.649
 1960POPC   C1B27847   1.491  12.493   8.705
 1960POPC   C2B27848   1.529  12.596   8.304
 1960POPC   C3B27849   1.826  12.483   8.023
 1960POPC   C4B27850   2.076  12.621   7.718
 1961POPC   NC327851  34.643  19.468   9.388
 1961POPC   PO427852  34.510  20.112   9.515
 1961POPC   GL127853  34.405  19.885   9.159
 1961POPC   GL227854  34.185  19.627   9.180
 1961POPC   C1A27855  34.307  19.932   8.737
 1961POPC   D2A27856  34.648  19.816   8.499
 1961POPC   C3A27857  34.538  19.819   8.103
 1961POPC   C4A27858  34.378  19.928   7.690
 1961POPC   C1B27859  34.358  19.419   8.799
 1961POPC   C2B27860  34.626  19.295   8.465
 1961POPC   C3B27861  34.580  19.272   8.018
 1961POPC   C4B27862  34.741  19.563   7.719
 1962POPC   NC327863  37.170  43.300   9.520
 1962POPC   PO427864  36.559  42.940   9.696
 1962POPC   GL127865  36.731  43.120   9.272
 1962POPC   GL227866  37.048  42.946   9.160
 1962POPC   C1A27867  36.859  43.279   8.832
 1962POPC   D2A27868  36.909  43.129   8.373
 1962POPC   C3A27869  36.898  43.353   7.958
 1962POPC   C4A27870  36.829  43.082   7.576
 1962POPC   C1B27871  37.121  42.832   8.745
 1962POPC   C2B27872  36.963  42.619   8.372
 1962POPC   C3B27873  36.765  42.621   7.971
 1962POPC   C4B27874  36.887  42.494   7.560
 1963POPC   NC327875   8.027  41.914   9.490
 1963POPC   PO427876   8.316  41.270   9.547
 1963POPC   GL127877   8.198  41.409   9.122
 1963POPC   GL227878   7.993  41.674   9.064
 1963POPC   C1A27879   8.385  41.400   8.706
 1963POPC   D2A27880   8.640  41.662   8.442
 1963POPC   C3A27881   8.665  41.449   8.081
 1963POPC   C4A27882   8.350  41.206   7.847
 1963POPC   C1B27883   7.709  41.847   8.774
 1963POPC   C2B27884   7.520  41.819   8.368
 1963POPC   C3B27885   7.777  41.880   8.006
 1963POPC   C4B27886   8.115  41.665   7.852
 1964POPC   NC327887  18.268  24.911   9.983
 1964POPC   PO427888  18.078  25.476   9.592
 1964POPC   GL127889  18.016  25.409   9.183
 1964POPC   GL227890  18.377  25.340   9.184
 1964POPC   C1A27891  18.030  25.125   8.840
 1964POPC   D2A27892  17.983  25.019   8.425
 1964POPC   C3A27893  18.150  25.359   8.171
 1964POPC   C4A27894  18.215  25.364   7.759
 1964POPC   C1B27895  18.625  25.159   8.889
 1964POPC   C2B27896  18.492  25.183   8.500
 1964POPC   C3B27897  18.635  25.153   8.090
 1964POPC   C4B27898  18.662  25.527   7.889
 1965POPC   NC327899   7.226  38.852   9.478
 1965POPC   PO427900   7.797  39.259   9.431
 1965POPC   GL127901   7.562  39.438   9.146
 1965POPC   GL227902   7.240  39.270   9.185
 1965POPC   C1A27903   7.516  39.323   8.730
 1965POPC   D2A27904   7.624  38.912   8.539
 1965POPC   C3A27905   7.641  39.041   8.126
 1965POPC   C4A27906   7.790  39.181   7.728
 1965POPC   C1B27907   7.140  38.986   8.837
 1965POPC   C2B27908   7.143  39.079   8.427
 1965POPC   C3B27909   7.135  39.375   8.139
 1965POPC   C4B27910   7.255  39.166   7.784
 1966POPC   NC327911  28.278  29.991   9.562
 1966POPC   PO427912  28.876  30.143   9.448
 1966POPC   GL127913  28.614  29.882   9.150
 1966POPC   GL227914  28.221  29.779   9.119
 1966POPC   C1A27915  28.542  29.851   8.753
 1966POPC   D2A27916  28.302  29.609   8.533
 1966POPC   C3A27917  28.299  29.709   8.107
 1966POPC   C4A27918  28.585  29.888   7.802
 1966POPC   C1B27919  27.916  29.974   8.890
 1966POPC   C2B27920  27.924  29.945   8.452
 1966POPC   C3B27921  27.983  30.105   8.040
 1966POPC   C4B27922  28.104  29.862   7.647
 1967POPC   NC327923  14.019  33.206   9.689
 1967POPC   PO427924  14.579  32.878   9.874
 1967POPC   GL127925  14.505  32.946   9.408
 1967POPC   GL227926  14.140  32.904   9.274
 1967POPC   C1A27927  14.566  33.046   8.950
 1967POPC   D2A27928  14.638  33.203   8.505
 1967POPC   C3A27929  14.373  33.081   8.153
 1967POPC   C4A27930  14.509  32.979   7.752
 1967POPC   C1B27931  14.085  32.907   8.815
 1967POPC   C2B27932  14.095  32.674   8.393
 1967POPC   C3B27933  14.209  32.614   7.950
 1967POPC   C4B27934  14.153  32.678   7.491
 1968POPC   NC327935   3.697  20.942   9.363
 1968POPC   PO427936   3.287  20.620   9.721
 1968POPC   GL127937   3.324  20.515   9.192
 1968POPC   GL227938   3.453  20.803   8.930
 1968POPC   C1A27939   3.337  20.369   8.745
 1968POPC   D2A27940   3.682  20.379   8.426
 1968POPC   C3A27941   3.579  20.595   8.050
 1968POPC   C4A27942   3.278  20.872   7.867
 1968POPC   C1B27943   3.784  20.852   8.612
 1968POPC   C2B27944   4.034  20.782   8.246
 1968POPC   C3B27945   3.988  20.765   7.782
 1968POPC   C4B27946   3.652  20.785   7.487
 1969POPC   NC327947  15.447  34.075   9.508
 1969POPC   PO427948  15.023  33.508   9.541
 1969POPC   GL127949  15.322  33.702   9.173
 1969POPC   GL227950  15.438  34.058   8.986
 1969POPC   C1A27951  15.429  33.598   8.752
 1969POPC   D2A27952  15.501  33.804   8.358
 1969POPC   C3A27953  15.302  33.579   8.035
 1969POPC   C4A27954  15.482  33.375   7.706
 1969POPC   C1B27955  15.143  34.071   8.638
 1969POPC   C2B27956  15.039  34.040   8.211
 1969POPC   C3B27957  15.114  33.990   7.781
 1969POPC   C4B27958  14.845  34.060   7.416
 1970POPC   NC327959  30.799  28.317   9.548
 1970POPC   PO427960  30.145  28.057   9.594
 1970POPC   GL127961  30.406  28.310   9.203
 1970POPC   GL227962  30.766  28.527   9.093
 1970POPC   C1A27963  30.562  28.212   8.771
 1970POPC   D2A27964  30.598  28.438   8.396
 1970POPC   C3A27965  30.643  28.326   7.975
 1970POPC   C4A27966  30.574  28.565   7.624
 1970POPC   C1B27967  31.038  28.430   8.712
 1970POPC   C2B27968  31.099  28.342   8.237
 1970POPC   C3B27969  31.090  28.486   7.768
 1970POPC   C4B27970  30.968  28.617   7.300
 1971POPC   NC327971  28.492  37.885   9.394
 1971POPC   PO427972  28.347  37.238   9.612
 1971POPC   GL127973  28.418  37.354   9.208
 1971POPC   GL227974  28.085  37.503   9.141
 1971POPC   C1A27975  28.577  37.534   8.821
 1971POPC   D2A27976  28.539  37.860   8.507
 1971POPC   C3A27977  28.489  37.753   8.079
 1971POPC   C4A27978  28.623  37.848   7.642
 1971POPC   C1B27979  28.078  37.702   8.704
 1971POPC   C2B27980  28.062  37.976   8.300
 1971POPC   C3B27981  28.036  37.864   7.852
 1971POPC   C4B27982  28.253  37.483   7.713
 1972POPC   NC327983  26.539  39.751   9.329
 1972POPC   PO427984  26.056  40.150   9.557
 1972POPC   GL127985  26.185  40.203   9.096
 1972POPC   GL227986  26.484  40.105   8.925
 1972POPC   C1A27987  26.017  40.162   8.672
 1972POPC   D2A27988  26.066  39.904   8.280
 1972POPC   C3A27989  25.749  39.884   7.981
 1972POPC   C4A27990  25.750  40.319   7.796
 1972POPC   C1B27991  26.337  39.754   8.697
 1972POPC   C2B27992  26.461  39.561   8.317
 1972POPC   C3B27993  26.480  39.817   7.957
 1972POPC   C4B27994  26.148  39.988   7.694
 1973POPC   NC327995  10.218  42.815   9.647
 1973POPC   PO427996  10.680  42.369   9.765
 1973POPC   GL127997  10.723  42.278   9.293
 1973POPC   GL227998  10.362  42.249   9.169
 1973POPC   C1A27999  10.759  42.076   8.862
 1973POPC   D2A28000  10.402  41.921   8.590
 1973POPC   C3A28001  10.366  42.016   8.159
 1973POPC   C4A28002  10.645  42.146   7.856
 1973POPC   C1B28003  10.393  42.413   8.733
 1973POPC   C2B28004  10.446  42.521   8.286
 1973POPC   C3B28005  10.323  42.613   7.897
 1973POPC   C4B28006  10.137  42.322   7.638
 1974POPC   NC328007   4.635   3.690   9.622
 1974POPC   PO428008   4.016   3.560   9.524
 1974POPC   GL128009   4.370   3.440   9.226
 1974POPC   GL228010   4.134   3.435   9.012
 1974POPC   C1A28011   4.529   3.330   8.761
 1974POPC   D2A28012   4.293   3.523   8.424
 1974POPC   C3A28013   4.528   3.483   8.051
 1974POPC   C4A28014   4.606   3.737   7.696
 1974POPC   C1B28015   3.972   3.207   8.716
 1974POPC   C2B28016   3.799   3.287   8.380
 1974POPC   C3B28017   3.982   3.381   8.029
 1974POPC   C4B28018   4.046   3.448   7.639
 1975POPC   NC328019  15.857   4.093   9.434
 1975POPC   PO428020  15.859   3.544   9.611
 1975POPC   GL128021  15.937   3.470   9.180
 1975POPC   GL228022  16.051   3.765   9.080
 1975POPC   C1A28023  15.979   3.365   8.733
 1975POPC   D2A28024  15.916   3.636   8.386
 1975POPC   C3A28025  15.805   3.445   8.019
 1975POPC   C4A28026  16.036   3.219   7.742
 1975POPC   C1B28027  16.284   3.779   8.720
 1975POPC   C2B28028  16.412   3.740   8.279
 1975POPC   C3B28029  16.215   3.757   7.863
 1975POPC   C4B28030  16.330   3.962   7.468
 1976POPC   NC328031  44.179  41.140   9.554
 1976POPC   PO428032  43.980  40.507   9.617
 1976POPC   GL128033  43.789  40.596   9.205
 1976POPC   GL228034  43.594  40.910   9.119
 1976POPC   C1A28035  43.597  40.549   8.787
 1976POPC   D2A28036  43.547  40.351   8.438
 1976POPC   C3A28037  43.733  40.602   8.143
 1976POPC   C4A28038  43.607  40.685   7.750
 1976POPC   C1B28039  43.975  40.927   8.858
 1976POPC   C2B28040  43.980  40.986   8.419
 1976POPC   C3B28041  43.741  41.113   8.063
 1976POPC   C4B28042  43.981  41.011   7.716
 1977POPC   NC328043  28.671  40.730   9.600
 1977POPC   PO428044  29.151  40.276   9.483
 1977POPC   GL128045  29.190  40.625   9.108
 1977POPC   GL228046  29.057  40.960   9.125
 1977POPC   C1A28047  29.178  40.776   8.657
 1977POPC   D2A28048  28.993  40.679   8.264
 1977POPC   C3A28049  29.304  40.818   7.999
 1977POPC   C4A28050  29.469  40.686   7.635
 1977POPC   C1B28051  28.997  41.225   8.761
 1977POPC   C2B28052  29.005  41.198   8.318
 1977POPC   C3B28053  28.931  41.288   7.904
 1977POPC   C4B28054  28.852  40.896   7.775
 1978POPC   NC328055  34.039  13.419   9.388
 1978POPC   PO428056  33.723  13.977   9.508
 1978POPC   GL128057  33.715  13.734   9.143
 1978POPC   GL228058  34.026  13.856   9.067
 1978POPC   C1A28059  33.824  13.528   8.729
 1978POPC   D2A28060  33.751  13.241   8.381
 1978POPC   C3A28061  33.737  13.416   7.980
 1978POPC   C4A28062  34.007  13.375   7.648
 1978POPC   C1B28063  34.140  13.954   8.659
 1978POPC   C2B28064  34.038  13.758   8.247
 1978POPC   C3B28065  34.020  13.856   7.787
 1978POPC   C4B28066  33.985  13.992   7.349
 1979POPC   NC328067  39.528  34.178   9.263
 1979POPC   PO428068  39.612  34.840   9.483
 1979POPC   GL128069  39.385  34.696   9.122
 1979POPC   GL228070  39.068  34.554   9.223
 1979POPC   C1A28071  39.374  34.667   8.666
 1979POPC   D2A28072  39.345  34.951   8.326
 1979POPC   C3A28073  39.532  34.851   7.947
 1979POPC   C4A28074  39.236  34.803   7.640
 1979POPC   C1B28075  38.972  34.348   8.814
 1979POPC   C2B28076  39.188  34.217   8.430
 1979POPC   C3B28077  39.209  34.452   8.052
 1979POPC   C4B28078  38.918  34.385   7.729
 1980POPC   NC328079   8.025  22.349   9.515
 1980POPC   PO428080   8.088  21.731   9.466
 1980POPC   GL128081   8.009  22.036   9.114
 1980POPC   GL228082   8.249  22.309   9.029
 1980POPC   C1A28083   8.017  22.014   8.687
 1980POPC   D2A28084   8.082  22.206   8.370
 1980POPC   C3A28085   7.903  22.075   8.064
 1980POPC   C4A28086   7.948  22.076   7.648
 1980POPC   C1B28087   8.330  22.558   8.637
 1980POPC   C2B28088   8.242  22.635   8.168
 1980POPC   C3B28089   8.344  22.440   7.744
 1980POPC   C4B28090   8.502  22.689   7.373
 1981POPC   NC328091  18.252  18.601   9.971
 1981POPC   PO428092  17.921  18.635   9.370
 1981POPC   GL128093  18.187  18.798   9.010
 1981POPC   GL228094  18.327  19.091   9.144
 1981POPC   C1A28095  18.226  18.987   8.587
 1981POPC   D2A28096  18.382  18.917   8.171
 1981POPC   C3A28097  18.070  18.832   7.836
 1981POPC   C4A28098  17.830  18.981   7.456
 1981POPC   C1B28099  18.550  19.306   8.811
 1981POPC   C2B28100  18.472  19.444   8.376
 1981POPC   C3B28101  18.546  19.345   7.942
 1981POPC   C4B28102  18.572  18.988   7.689
 1982POPC   NC328103  12.022  11.634   9.767
 1982POPC   PO428104  12.350  12.186   9.502
 1982POPC   GL128105  12.145  12.041   9.131
 1982POPC   GL228106  11.787  11.926   9.160
 1982POPC   C1A28107  12.239  12.063   8.703
 1982POPC   D2A28108  12.135  11.837   8.327
 1982POPC   C3A28109  12.372  11.921   7.913
 1982POPC   C4A28110  12.335  12.157   7.554
 1982POPC   C1B28111  11.740  12.072   8.732
 1982POPC   C2B28112  11.900  12.314   8.366
 1982POPC   C3B28113  11.920  12.135   7.955
 1982POPC   C4B28114  11.844  12.154   7.537
 1983POPC   NC328115   3.701  11.713   9.408
 1983POPC   PO428116   3.818  12.352   9.471
 1983POPC   GL128117   3.685  12.146   9.104
 1983POPC   GL228118   3.353  11.998   9.097
 1983POPC   C1A28119   3.712  12.039   8.678
 1983POPC   D2A28120   3.981  12.000   8.294
 1983POPC   C3A28121   3.901  12.323   7.968
 1983POPC   C4A28122   3.475  12.323   7.756
 1983POPC   C1B28123   3.148  12.021   8.660
 1983POPC   C2B28124   2.971  11.854   8.272
 1983POPC   C3B28125   3.226  11.861   7.901
 1983POPC   C4B28126   3.158  12.001   7.467
 1984POPC   NC328127  24.605  36.374   9.380
 1984POPC   PO428128  24.300  36.932   9.612
 1984POPC   GL128129  24.446  36.833   9.186
 1984POPC   GL228130  24.351  36.535   8.978
 1984POPC   C1A28131  24.502  37.106   8.851
 1984POPC   D2A28132  24.540  37.132   8.422
 1984POPC   C3A28133  24.264  37.025   8.127
 1984POPC   C4A28134  24.404  36.836   7.788
 1984POPC   C1B28135  24.585  36.663   8.626
 1984POPC   C2B28136  24.687  36.694   8.198
 1984POPC   C3B28137  24.856  36.594   7.803
 1984POPC   C4B28138  24.592  36.520   7.433
 1985POPC   NC328139  38.972  15.393   9.556
 1985POPC   PO428140  39.536  15.131   9.245
 1985POPC   GL128141  39.211  15.353   9.083
 1985POPC   GL228142  38.994  15.058   9.180
 1985POPC   C1A28143  39.275  15.438   8.624
 1985POPC   D2A28144  39.084  15.372   8.219
 1985POPC   C3A28145  39.313  15.082   7.998
 1985POPC   C4A28146  39.604  15.234   7.723
 1985POPC   C1B28147  38.835  15.142   8.761
 1985POPC   C2B28148  38.928  14.912   8.394
 1985POPC   C3B28149  38.788  14.934   7.999
 1985POPC   C4B28150  38.903  15.222   7.701
 1986POPC   NC328151  27.365   2.242   9.615
 1986POPC   PO428152  27.572   1.634   9.501
 1986POPC   GL128153  27.849   1.816   9.171
 1986POPC   GL228154  27.927   2.120   9.109
 1986POPC   C1A28155  27.665   1.908   8.742
 1986POPC   D2A28156  27.653   1.780   8.327
 1986POPC   C3A28157  27.559   2.013   7.927
 1986POPC   C4A28158  27.743   1.878   7.516
 1986POPC   C1B28159  27.784   2.394   8.722
 1986POPC   C2B28160  27.548   2.288   8.378
 1986POPC   C3B28161  27.676   2.483   8.052
 1986POPC   C4B28162  27.852   2.366   7.676
 1987POPC   NC328163  34.985  44.582   9.639
 1987POPC   PO428164  34.314  44.712   9.574
 1987POPC   GL128165  34.544  44.623   9.208
 1987POPC   GL228166  34.825  44.872   9.204
 1987POPC   C1A28167  34.679  44.589   8.784
 1987POPC   D2A28168  34.575  44.761   8.359
 1987POPC   C3A28169  34.525  44.471   7.996
 1987POPC   C4A28170  34.830  44.331   7.672
 1987POPC   C1B28171  34.749   0.102   8.793
 1987POPC   C2B28172  34.832   0.225   8.365
 1987POPC   C3B28173  34.785   0.083   7.941
 1987POPC   C4B28174  34.613  44.809   7.635
 1988POPC   NC328175  33.106  41.344   9.775
 1988POPC   PO428176  32.840  41.908   9.504
 1988POPC   GL128177  33.086  41.584   9.271
 1988POPC   GL228178  32.777  41.405   9.185
 1988POPC   C1A28179  33.354  41.626   8.865
 1988POPC   D2A28180  33.462  41.721   8.419
 1988POPC   C3A28181  33.247  41.467   8.109
 1988POPC   C4A28182  33.231  41.445   7.691
 1988POPC   C1B28183  32.857  41.682   8.811
 1988POPC   C2B28184  32.804  41.620   8.350
 1988POPC   C3B28185  32.767  41.559   7.887
 1988POPC   C4B28186  32.776  41.281   7.526
 1989POPC   NC328187  27.566  38.806   9.509
 1989POPC   PO428188  27.964  38.161   9.616
 1989POPC   GL128189  27.646  38.263   9.252
 1989POPC   GL228190  27.716  38.587   9.090
 1989POPC   C1A28191  27.686  38.214   8.765
 1989POPC   D2A28192  27.656  38.497   8.395
 1989POPC   C3A28193  27.388  38.515   7.994
 1989POPC   C4A28194  27.454  38.279   7.609
 1989POPC   C1B28195  27.964  38.737   8.769
 1989POPC   C2B28196  28.118  38.735   8.385
 1989POPC   C3B28197  28.046  38.467   8.062
 1989POPC   C4B28198  27.864  38.585   7.701
 1990POPC   NC328199   5.203  11.615   9.414
 1990POPC   PO428200   4.885  11.057   9.650
 1990POPC   GL128201   4.986  11.051   9.181
 1990POPC   GL228202   5.238  10.883   9.054
 1990POPC   C1A28203   4.891  11.133   8.720
 1990POPC   D2A28204   5.070  11.218   8.298
 1990POPC   C3A28205   4.815  11.010   7.975
 1990POPC   C4A28206   4.796  11.148   7.542
 1990POPC   C1B28207   5.399  11.220   8.754
 1990POPC   C2B28208   5.617  11.122   8.401
 1990POPC   C3B28209   5.532  11.313   8.054
 1990POPC   C4B28210   5.261  11.159   7.783
 1991POPC   NC328211  20.718  43.643   9.595
 1991POPC   PO428212  20.392  43.085   9.571
 1991POPC   GL128213  20.630  43.083   9.221
 1991POPC   GL228214  20.528  42.760   9.128
 1991POPC   C1A28215  20.522  43.260   8.823
 1991POPC   D2A28216  20.225  43.298   8.495
 1991POPC   C3A28217  20.462  43.265   8.127
 1991POPC   C4A28218  20.529  43.370   7.716
 1991POPC   C1B28219  20.850  42.873   8.806
 1991POPC   C2B28220  20.895  43.105   8.412
 1991POPC   C3B28221  20.830  42.921   7.991
 1991POPC   C4B28222  20.877  43.018   7.563
 1992POPC   NC328223  22.734  13.398   9.467
 1992POPC   PO428224  23.239  13.697   9.557
 1992POPC   GL128225  23.167  13.760   9.129
 1992POPC   GL228226  22.824  13.719   9.069
 1992POPC   C1A28227  23.161  13.573   8.736
 1992POPC   D2A28228  23.151  13.737   8.347
 1992POPC   C3A28229  23.100  13.472   8.035
 1992POPC   C4A28230  22.853  13.715   7.780
 1992POPC   C1B28231  22.653  13.520   8.691
 1992POPC   C2B28232  22.621  13.574   8.247
 1992POPC   C3B28233  22.373  13.575   7.850
 1992POPC   C4B28234  22.623  13.318   7.527
 1993POPC   NC328235  14.719  33.889   9.480
 1993POPC   PO428236  14.034  33.654   9.558
 1993POPC   GL128237  14.179  33.681   9.175
 1993POPC   GL228238  13.981  33.388   9.101
 1993POPC   C1A28239  14.379  33.952   8.846
 1993POPC   D2A28240  14.640  33.859   8.498
 1993POPC   C3A28241  14.491  33.962   8.078
 1993POPC   C4A28242  14.678  33.713   7.743
 1993POPC   C1B28243  14.228  33.404   8.746
 1993POPC   C2B28244  14.229  33.574   8.353
 1993POPC   C3B28245  14.109  33.513   7.943
 1993POPC   C4B28246  14.332  33.406   7.553
 1994POPC   NC328247  12.810  15.569   9.364
 1994POPC   PO428248  13.058  16.255   9.506
 1994POPC   GL128249  12.819  16.142   9.161
 1994POPC   GL228250  13.070  15.899   9.082
 1994POPC   C1A28251  12.619  15.918   8.803
 1994POPC   D2A28252  12.785  15.825   8.391
 1994POPC   C3A28253  12.653  15.745   7.966
 1994POPC   C4A28254  13.039  15.657   7.712
 1994POPC   C1B28255  13.090  16.160   8.717
 1994POPC   C2B28256  13.232  16.081   8.331
 1994POPC   C3B28257  13.014  16.111   7.947
 1994POPC   C4B28258  12.780  16.499   7.815
 1995POPC   NC328259  39.976  43.754   9.796
 1995POPC   PO428260  39.703  44.192   9.359
 1995POPC   GL128261  39.950  43.894   9.160
 1995POPC   GL228262  40.113  43.584   9.326
 1995POPC   C1A28263  39.909  43.925   8.711
 1995POPC   D2A28264  39.941  44.060   8.286
 1995POPC   C3A28265  39.861  43.890   7.913
 1995POPC   C4A28266  39.918  44.046   7.482
 1995POPC   C1B28267  40.086  43.459   8.900
 1995POPC   C2B28268  40.193  43.567   8.474
 1995POPC   C3B28269  40.203  43.441   8.069
 1995POPC   C4B28270  40.252  43.632   7.675
 1996POPC   NC328271   8.679  28.307   9.413
 1996POPC   PO428272   8.031  28.139   9.375
 1996POPC   GL128273   8.204  28.404   9.075
 1996POPC   GL228274   7.898  28.471   8.963
 1996POPC   C1A28275   8.281  28.614   8.682
 1996POPC   D2A28276   8.294  28.369   8.300
 1996POPC   C3A28277   8.138  28.563   7.947
 1996POPC   C4A28278   8.496  28.522   7.727
 1996POPC   C1B28279   7.857  28.337   8.566
 1996POPC   C2B28280   7.607  28.199   8.246
 1996POPC   C3B28281   7.750  28.164   7.881
 1996POPC   C4B28282   8.174  28.080   7.808
 1997POPC   NC328283  16.691   1.709   9.540
 1997POPC   PO428284  16.458   1.061   9.461
 1997POPC   GL128285  16.655   1.284   9.143
 1997POPC   GL228286  17.010   1.332   9.175
 1997POPC   C1A28287  16.646   1.034   8.763
 1997POPC   D2A28288  16.468   1.075   8.371
 1997POPC   C3A28289  16.695   0.998   7.973
 1997POPC   C4A28290  16.787   0.945   7.499
 1997POPC   C1B28291  16.996   1.385   8.734
 1997POPC   C2B28292  16.860   1.401   8.313
 1997POPC   C3B28293  16.994   1.387   7.891
 1997POPC   C4B28294  16.992   1.408   7.434
 1998POPC   NC328295  41.076   5.571   9.435
 1998POPC   PO428296  40.628   6.073   9.455
 1998POPC   GL128297  40.701   5.742   9.119
 1998POPC   GL228298  41.057   5.692   8.952
 1998POPC   C1A28299  40.624   5.728   8.678
 1998POPC   D2A28300  40.849   5.651   8.295
 1998POPC   C3A28301  40.640   5.810   7.925
 1998POPC   C4A28302  40.722   6.112   7.563
 1998POPC   C1B28303  41.034   6.064   8.692
 1998POPC   C2B28304  41.215   6.048   8.275
 1998POPC   C3B28305  41.116   5.957   7.900
 1998POPC   C4B28306  41.072   5.521   7.813
 1999POPC   NC328307  36.278  28.285   9.503
 1999POPC   PO428308  35.965  28.788   9.565
 1999POPC   GL128309  36.004  28.543   9.127
 1999POPC   GL228310  36.188  28.240   9.027
 1999POPC   C1A28311  35.912  28.443   8.685
 1999POPC   D2A28312  35.818  28.521   8.280
 1999POPC   C3A28313  35.979  28.236   8.021
 1999POPC   C4A28314  36.031  28.502   7.709
 1999POPC   C1B28315  36.454  28.286   8.689
 1999POPC   C2B28316  36.441  27.985   8.360
 1999POPC   C3B28317  36.463  28.059   7.945
 1999POPC   C4B28318  36.533  28.441   7.788
 2000POPC   NC328319  44.882  41.477   9.505
 2000POPC   PO428320  44.314  41.482   9.820
 2000POPC   GL128321  44.380  41.509   9.295
 2000POPC   GL228322  44.640  41.652   9.113
 2000POPC   C1A28323  44.279  41.409   8.835
 2000POPC   D2A28324  44.180  41.478   8.382
 2000POPC   C3A28325  44.359  41.238   8.041
 2000POPC   C4A28326  44.429  41.206   7.610
 2000POPC   C1B28327  44.728  41.807   8.742
 2000POPC   C2B28328  44.590  41.973   8.367
 2000POPC   C3B28329  44.793  41.783   8.041
 2000POPC   C4B28330  44.704  41.605   7.659
 2001POPC   NC328331  17.927  39.924   9.927
 2001POPC   PO428332  18.014  40.090   9.292
 2001POPC   GL128333  18.052  40.123   8.913
 2001POPC   GL228334  18.293  39.842   8.912
 2001POPC   C1A28335  18.035  40.013   8.497
 2001POPC   D2A28336  18.338  39.729   8.351
 2001POPC   C3A28337  18.375  39.928   7.990
 2001POPC   C4A28338  18.330  40.273   7.737
 2001POPC   C1B28339  18.013  39.569   8.735
 2001POPC   C2B28340  17.881  39.454   8.352
 2001POPC   C3B28341  17.993  39.615   7.976
 2001POPC   C4B28342  18.103  39.808   7.571
 2002POPC   NC328343  10.345  26.119   9.578
 2002POPC   PO428344  10.987  25.975   9.448
 2002POPC   GL128345  10.615  26.155   9.142
 2002POPC   GL228346  10.216  26.140   9.098
 2002POPC   C1A28347  10.493  26.328   8.737
 2002POPC   D2A28348  10.587  26.074   8.417
 2002POPC   C3A28349  10.432  26.088   8.062
 2002POPC   C4A28350  10.579  26.029   7.644
 2002POPC   C1B28351  10.268  25.827   8.761
 2002POPC   C2B28352  10.364  25.606   8.353
 2002POPC   C3B28353  10.245  25.652   7.899
 2002POPC   C4B28354  10.540  25.530   7.587
 2003POPC   NC328355  22.168  42.838   9.535
 2003POPC   PO428356  22.007  43.455   9.805
 2003POPC   GL128357  22.067  43.319   9.335
 2003POPC   GL228358  21.808  43.278   9.040
 2003POPC   C1A28359  22.290  43.144   8.950
 2003POPC   D2A28360  22.444  43.066   8.507
 2003POPC   C3A28361  22.431  43.121   8.056
 2003POPC   C4A28362  22.394  42.780   7.759
 2003POPC   C1B28363  21.805  43.074   8.648
 2003POPC   C2B28364  21.961  43.049   8.239
 2003POPC   C3B28365  21.910  42.964   7.818
 2003POPC   C4B28366  22.036  42.810   7.385
 2004POPC   NC328367  31.515   0.905   9.569
 2004POPC   PO428368  31.344   1.514   9.688
 2004POPC   GL128369  31.415   1.324   9.259
 2004POPC   GL228370  31.633   1.040   9.092
 2004POPC   C1A28371  31.210   1.258   8.874
 2004POPC   D2A28372  31.213   1.243   8.434
 2004POPC   C3A28373  31.596   1.330   8.211
 2004POPC   C4A28374  31.652   1.473   7.819
 2004POPC   C1B28375  31.653   1.064   8.655
 2004POPC   C2B28376  31.631   0.797   8.271
 2004POPC   C3B28377  31.690   0.946   7.827
 2004POPC   C4B28378  31.612   0.815   7.366
 2005POPC   NC328379   9.530  15.721   9.437
 2005POPC   PO428380  10.234  15.677   9.238
 2005POPC   GL128381   9.894  15.969   9.168
 2005POPC   GL228382   9.772  15.700   9.000
 2005POPC   C1A28383   9.710  16.169   8.821
 2005POPC   D2A28384   9.698  16.221   8.412
 2005POPC   C3A28385   9.710  15.885   8.141
 2005POPC   C4A28386   9.693  15.983   7.727
 2005POPC   C1B28387   9.427  15.720   8.753
 2005POPC   C2B28388   9.387  15.553   8.370
 2005POPC   C3B28389   9.256  15.661   7.950
 2005POPC   C4B28390   9.501  15.516   7.630
 2006POPC   NC328391  26.247  33.830   9.323
 2006POPC   PO428392  25.682  33.609   9.390
 2006POPC   GL128393  25.813  33.730   9.025
 2006POPC   GL228394  25.585  34.020   9.007
 2006POPC   C1A28395  25.964  33.654   8.607
 2006POPC   D2A28396  25.824  33.691   8.213
 2006POPC   C3A28397  25.937  33.464   7.865
 2006POPC   C4A28398  26.249  33.673   7.601
 2006POPC   C1B28399  25.951  34.135   8.726
 2006POPC   C2B28400  26.184  34.046   8.325
 2006POPC   C3B28401  26.038  34.034   7.902
 2006POPC   C4B28402  25.599  34.102   7.926
 2007POPC   NC328403  41.271  30.620   9.554
 2007POPC   PO428404  41.882  30.615   9.695
 2007POPC   GL128405  41.691  30.619   9.271
 2007POPC   GL228406  41.983  30.490   9.119
 2007POPC   C1A28407  41.492  30.634   8.863
 2007POPC   D2A28408  41.647  30.516   8.442
 2007POPC   C3A28409  41.438  30.600   8.048
 2007POPC   C4A28410  41.355  30.675   7.613
 2007POPC   C1B28411  42.020  30.706   8.729
 2007POPC   C2B28412  42.181  30.791   8.300
 2007POPC   C3B28413  42.031  30.787   7.860
 2007POPC   C4B28414  41.788  30.834   7.433
 2008POPC   NC328415   5.652  44.143   9.397
 2008POPC   PO428416   5.095  44.107   9.800
 2008POPC   GL128417   5.184  43.930   9.389
 2008POPC   GL228418   4.896  44.046   9.262
 2008POPC   C1A28419   5.201  43.753   8.945
 2008POPC   D2A28420   4.926  43.766   8.567
 2008POPC   C3A28421   5.042  43.884   8.127
 2008POPC   C4A28422   5.289  43.884   7.741
 2008POPC   C1B28423   4.962  44.222   8.866
 2008POPC   C2B28424   4.914  44.282   8.446
 2008POPC   C3B28425   4.897  44.375   8.020
 2008POPC   C4B28426   4.867  44.229   7.656
 2009POPC   NC328427  23.237  18.969   9.529
 2009POPC   PO428428  22.544  18.900   9.635
 2009POPC   GL128429  22.849  19.088   9.218
 2009POPC   GL228430  23.215  19.073   9.019
 2009POPC   C1A28431  22.783  19.054   8.748
 2009POPC   D2A28432  22.492  18.874   8.437
 2009POPC   C3A28433  22.742  18.779   8.073
 2009POPC   C4A28434  22.833  19.037   7.736
 2009POPC   C1B28435  23.460  18.825   8.651
 2009POPC   C2B28436  23.550  18.868   8.177
 2009POPC   C3B28437  23.351  18.970   7.766
 2009POPC   C4B28438  23.114  18.745   7.414
 2010POPC   NC328439  32.666  44.600   9.521
 2010POPC   PO428440  33.275  44.850   9.718
 2010POPC   GL128441  33.134  44.790   9.265
 2010POPC   GL228442  32.844  44.977   9.117
 2010POPC   C1A28443  33.030  44.519   8.904
 2010POPC   D2A28444  33.164  44.292   8.535
 2010POPC   C3A28445  33.104  44.429   8.075
 2010POPC   C4A28446  32.823  44.537   7.715
 2010POPC   C1B28447  33.141   0.001   8.741
 2010POPC   C2B28448  33.095  44.935   8.268
 2010POPC   C3B28449  33.196  44.863   7.820
 2010POPC   C4B28450  33.338   0.099   7.479
 2011POPC   NC328451  13.679  15.093   9.496
 2011POPC   PO428452  13.152  15.333   9.131
 2011POPC   GL128453  13.535  15.188   9.016
 2011POPC   GL228454  13.783  14.908   9.041
 2011POPC   C1A28455  13.784  15.365   8.742
 2011POPC   D2A28456  13.788  15.228   8.343
 2011POPC   C3A28457  13.507  15.323   8.020
 2011POPC   C4A28458  13.347  15.088   7.707
 2011POPC   C1B28459  14.003  14.898   8.681
 2011POPC   C2B28460  13.987  14.769   8.289
 2011POPC   C3B28461  13.804  14.913   7.937
 2011POPC   C4B28462  13.870  15.202   7.657
 2012POPC   NC328463  22.895  20.964   9.555
 2012POPC   PO428464  22.891  20.324   9.393
 2012POPC   GL128465  22.928  20.681   9.145
 2012POPC   GL228466  22.575  20.838   9.138
 2012POPC   C1A28467  23.189  20.786   8.797
 2012POPC   D2A28468  23.200  20.560   8.409
 2012POPC   C3A28469  23.290  20.773   8.045
 2012POPC   C4A28470  23.222  20.525   7.704
 2012POPC   C1B28471  22.674  20.700   8.721
 2012POPC   C2B28472  22.854  20.914   8.395
 2012POPC   C3B28473  22.798  20.647   8.065
 2012POPC   C4B28474  22.808  20.782   7.716
 2013POPC   NC328475  38.327   0.137   9.286
 2013POPC   PO428476  38.042  44.489   9.439
 2013POPC   GL128477  38.410  44.633   9.154
 2013POPC   GL228478  38.502  44.328   8.977
 2013POPC   C1A28479  38.543  44.774   8.707
 2013POPC   D2A28480  38.675  44.966   8.310
 2013POPC   C3A28481  38.562  44.674   7.983
 2013POPC   C4A28482  38.595  44.734   7.558
 2013POPC   C1B28483  38.080  44.521   8.778
 2013POPC   C2B28484  37.822  44.407   8.410
 2013POPC   C3B28485  37.886  44.255   7.980
 2013POPC   C4B28486  38.234  44.349   7.692
 2014POPC   NC328487   2.270   7.173   9.375
 2014POPC   PO428488   2.066   6.565   9.617
 2014POPC   GL128489   2.117   6.685   9.184
 2014POPC   GL228490   2.224   6.390   9.021
 2014POPC   C1A28491   1.933   6.744   8.755
 2014POPC   D2A28492   1.731   6.718   8.347
 2014POPC   C3A28493   1.801   6.955   8.011
 2014POPC   C4A28494   1.867   6.716   7.655
 2014POPC   C1B28495   2.437   6.619   8.756
 2014POPC   C2B28496   2.295   6.639   8.376
 2014POPC   C3B28497   2.259   6.722   7.989
 2014POPC   C4B28498   2.331   6.525   7.623
 2015POPC   NC328499   5.997  29.720   9.509
 2015POPC   PO428500   5.369  29.803   9.484
 2015POPC   GL128501   5.673  29.843   9.108
 2015POPC   GL228502   5.915  30.133   9.160
 2015POPC   C1A28503   5.755  30.030   8.686
 2015POPC   D2A28504   5.931  30.266   8.369
 2015POPC   C3A28505   5.877  30.123   7.975
 2015POPC   C4A28506   6.132  30.283   7.647
 2015POPC   C1B28507   6.226  29.988   8.844
 2015POPC   C2B28508   6.235  29.845   8.422
 2015POPC   C3B28509   6.174  29.565   8.084
 2015POPC   C4B28510   6.062  29.750   7.672
 2016POPC   NC328511  33.793  10.807   9.613
 2016POPC   PO428512  33.618  10.067   9.502
 2016POPC   GL128513  33.676  10.441   9.226
 2016POPC   GL228514  33.967  10.681   9.170
 2016POPC   C1A28515  33.619  10.516   8.793
 2016POPC   D2A28516  33.443  10.473   8.379
 2016POPC   C3A28517  33.704  10.680   8.107
 2016POPC   C4A28518  33.763  10.688   7.676
 2016POPC   C1B28519  34.159  10.452   8.891
 2016POPC   C2B28520  34.024  10.414   8.480
 2016POPC   C3B28521  34.218  10.397   8.110
 2016POPC   C4B28522  34.118  10.298   7.691
 2017POPC   NC328523   2.714  27.166   9.541
 2017POPC   PO428524   3.040  27.791   9.616
 2017POPC   GL128525   2.939  27.858   9.173
 2017POPC   GL228526   2.598  27.709   9.206
 2017POPC   C1A28527   2.895  27.713   8.736
 2017POPC   D2A28528   2.867  27.376   8.383
 2017POPC   C3A28529   2.957  27.498   7.937
 2017POPC   C4A28530   2.841  27.746   7.538
 2017POPC   C1B28531   2.414  27.524   8.825
 2017POPC   C2B28532   2.368  27.255   8.489
 2017POPC   C3B28533   2.432  27.441   8.076
 2017POPC   C4B28534   2.551  27.358   7.662
 2018POPC   NC328535  35.969  34.948   9.417
 2018POPC   PO428536  36.438  34.570   9.467
 2018POPC   GL128537  36.178  34.546   9.138
 2018POPC   GL228538  35.848  34.444   9.218
 2018POPC   C1A28539  36.059  34.687   8.763
 2018POPC   D2A28540  35.869  34.516   8.437
 2018POPC   C3A28541  36.098  34.584   8.110
 2018POPC   C4A28542  36.028  34.900   7.797
 2018POPC   C1B28543  35.914  34.182   8.827
 2018POPC   C2B28544  35.809  34.014   8.392
 2018POPC   C3B28545  35.711  34.258   8.015
 2018POPC   C4B28546  36.006  34.370   7.664
 2019POPC   NC328547  43.115  34.077   9.381
 2019POPC   PO428548  43.425  33.508   9.123
 2019POPC   GL128549  43.176  33.810   8.965
 2019POPC   GL228550  42.882  33.717   9.124
 2019POPC   C1A28551  43.197  34.089   8.624
 2019POPC   D2A28552  43.286  33.852   8.240
 2019POPC   C3A28553  43.162  33.993   7.828
 2019POPC   C4A28554  43.100  33.731   7.470
 2019POPC   C1B28555  42.765  33.841   8.687
 2019POPC   C2B28556  42.805  34.025   8.269
 2019POPC   C3B28557  42.682  33.827   7.871
 2019POPC   C4B28558  42.662  33.429   7.624
 2020POPC   NC328559  20.617   1.804   9.445
 2020POPC   PO428560  20.724   2.528   9.478
 2020POPC   GL128561  20.745   2.215   9.122
 2020POPC   GL228562  20.461   1.974   8.994
 2020POPC   C1A28563  20.836   2.199   8.687
 2020POPC   D2A28564  20.622   2.224   8.324
 2020POPC   C3A28565  20.779   2.065   7.950
 2020POPC   C4A28566  20.433   2.083   7.677
 2020POPC   C1B28567  20.825   1.710   8.834
 2020POPC   C2B28568  20.775   1.715   8.402
 2020POPC   C3B28569  20.410   1.760   8.121
 2020POPC   C4B28570  20.517   1.572   7.738
 2021POPC   NC328571  40.809   2.918   9.573
 2021POPC   PO428572  40.790   2.281   9.370
 2021POPC   GL128573  40.883   2.654   9.124
 2021POPC   GL228574  40.917   3.052   9.114
 2021POPC   C1A28575  40.722   2.758   8.743
 2021POPC   D2A28576  40.478   2.572   8.429
 2021POPC   C3A28577  40.632   2.730   8.064
 2021POPC   C4A28578  40.853   2.789   7.699
 2021POPC   C1B28579  41.188   3.031   8.787
 2021POPC   C2B28580  41.038   3.133   8.414
 2021POPC   C3B28581  40.973   3.157   8.005
 2021POPC   C4B28582  41.316   3.107   7.701
 2022POPC   NC328583   8.679  26.136   9.630
 2022POPC   PO428584   9.253  25.906   9.448
 2022POPC   GL128585   8.905  25.946   9.184
 2022POPC   GL228586   9.030  25.681   9.012
 2022POPC   C1A28587   8.771  26.077   8.767
 2022POPC   D2A28588   8.678  26.341   8.393
 2022POPC   C3A28589   8.827  26.249   7.955
 2022POPC   C4A28590   8.874  25.835   7.743
 2022POPC   C1B28591   9.260  26.002   8.764
 2022POPC   C2B28592   9.093  25.986   8.337
 2022POPC   C3B28593   9.309  26.034   7.951
 2022POPC   C4B28594   9.595  26.299   7.726
 2023POPC   NC328595   0.820  16.828   9.858
 2023POPC   PO428596   0.387  16.717   9.478
 2023POPC   GL128597   0.367  16.793   9.080
 2023POPC   GL228598   0.713  16.671   9.103
 2023POPC   C1A28599   0.553  16.956   8.714
 2023POPC   D2A28600   0.786  16.860   8.340
 2023POPC   C3A28601   0.537  16.819   7.989
 2023POPC   C4A28602   0.178  16.775   7.791
 2023POPC   C1B28603   0.931  16.564   8.768
 2023POPC   C2B28604   1.007  16.376   8.396
 2023POPC   C3B28605   0.897  16.428   8.006
 2023POPC   C4B28606   0.767  16.561   7.632
 2024POPC   NC328607  37.348  20.869   9.467
 2024POPC   PO428608  37.909  20.475   9.519
 2024POPC   GL128609  37.633  20.555   9.166
 2024POPC   GL228610  37.719  20.834   9.059
 2024POPC   C1A28611  37.690  20.406   8.729
 2024POPC   D2A28612  37.756  20.512   8.323
 2024POPC   C3A28613  37.815  20.278   7.967
 2024POPC   C4A28614  37.493  20.457   7.728
 2024POPC   C1B28615  37.617  20.926   8.664
 2024POPC   C2B28616  37.777  21.023   8.272
 2024POPC   C3B28617  37.568  20.960   7.873
 2024POPC   C4B28618  37.260  20.977   7.544
 2025POPC   NC328619  41.999   8.604   9.472
 2025POPC   PO428620  42.365   7.960   9.432
 2025POPC   GL128621  42.256   8.174   9.104
 2025POPC   GL228622  42.102   7.882   8.931
 2025POPC   C1A28623  42.260   8.356   8.705
 2025POPC   D2A28624  42.329   8.245   8.302
 2025POPC   C3A28625  42.061   7.980   8.040
 2025POPC   C4A28626  42.208   8.268   7.729
 2025POPC   C1B28627  42.486   7.833   8.766
 2025POPC   C2B28628  42.596   7.790   8.328
 2025POPC   C3B28629  42.582   7.985   7.945
 2025POPC   C4B28630  42.755   8.025   7.554
 2026POPC   NC328631  16.318   3.477   9.509
 2026POPC   PO428632  17.067   3.616   9.359
 2026POPC   GL128633  16.671   3.641   9.113
 2026POPC   GL228634  16.430   3.378   9.034
 2026POPC   C1A28635  16.744   3.579   8.678
 2026POPC   D2A28636  16.806   3.305   8.349
 2026POPC   C3A28637  17.000   3.473   7.995
 2026POPC   C4A28638  16.733   3.730   7.730
 2026POPC   C1B28639  16.441   3.144   8.679
 2026POPC   C2B28640  16.238   3.243   8.275
 2026POPC   C3B28641  16.499   3.328   7.934
 2026POPC   C4B28642  16.790   3.230   7.600
 2027POPC   NC328643   0.664  16.276   9.475
 2027POPC   PO428644   0.132  15.833   9.321
 2027POPC   GL128645   0.472  15.951   9.088
 2027POPC   GL228646   0.391  16.281   9.058
 2027POPC   C1A28647   0.733  16.070   8.737
 2027POPC   D2A28648   0.904  15.882   8.370
 2027POPC   C3A28649   0.539  15.869   8.097
 2027POPC   C4A28650   0.502  16.093   7.705
 2027POPC   C1B28651   0.409  16.471   8.652
 2027POPC   C2B28652   0.374  16.368   8.214
 2027POPC   C3B28653   0.065  16.290   7.884
 2027POPC   C4B28654   0.164  16.374   7.434
 2028POPC   NC328655   7.168  42.101   9.341
 2028POPC   PO428656   7.779  42.315   9.482
 2028POPC   GL128657   7.520  42.465   9.170
 2028POPC   GL228658   7.262  42.628   9.337
 2028POPC   C1A28659   7.476  42.309   8.769
 2028POPC   D2A28660   7.727  42.330   8.425
 2028POPC   C3A28661   7.464  42.272   8.113
 2028POPC   C4A28662   7.467  42.333   7.690
 2028POPC   C1B28663   7.079  42.615   8.884
 2028POPC   C2B28664   7.171  42.590   8.422
 2028POPC   C3B28665   7.306  42.746   8.017
 2028POPC   C4B28666   7.327  42.794   7.568
 2029POPC   NC328667  12.412  38.819   9.911
 2029POPC   PO428668  11.980  39.268   9.551
 2029POPC   GL128669  12.219  39.244   9.193
 2029POPC   GL228670  12.538  39.433   9.240
 2029POPC   C1A28671  12.025  39.364   8.802
 2029POPC   D2A28672  11.786  39.152   8.515
 2029POPC   C3A28673  11.880  39.296   8.114
 2029POPC   C4A28674  11.962  39.102   7.718
 2029POPC   C1B28675  12.520  39.406   8.799
 2029POPC   C2B28676  12.327  39.083   8.480
 2029POPC   C3B28677  12.375  39.135   8.045
 2029POPC   C4B28678  12.467  39.258   7.625
 2030POPC   NC328679  14.544  23.203   9.149
 2030POPC   PO428680  14.316  23.768   9.468
 2030POPC   GL128681  14.151  23.795   9.076
 2030POPC   GL228682  14.458  23.995   9.032
 2030POPC   C1A28683  14.070  23.721   8.633
 2030POPC   D2A28684  14.307  23.534   8.297
 2030POPC   C3A28685  14.533  23.844   8.065
 2030POPC   C4A28686  14.307  23.663   7.760
 2030POPC   C1B28687  14.573  23.680   8.700
 2030POPC   C2B28688  14.810  23.473   8.358
 2030POPC   C3B28689  14.884  23.475   7.903
 2030POPC   C4B28690  14.733  23.597   7.504
 2031POPC   NC328691  14.650  37.174   9.522
 2031POPC   PO428692  14.163  36.631   9.439
 2031POPC   GL128693  14.348  36.898   9.108
 2031POPC   GL228694  14.715  36.933   9.072
 2031POPC   C1A28695  14.433  36.972   8.671
 2031POPC   D2A28696  14.301  37.110   8.303
 2031POPC   C3A28697  14.277  36.817   7.971
 2031POPC   C4A28698  14.408  37.021   7.610
 2031POPC   C1B28699  14.809  36.612   8.722
 2031POPC   C2B28700  14.746  36.691   8.282
 2031POPC   C3B28701  14.790  36.776   7.847
 2031POPC   C4B28702  14.943  37.173   7.698
 2032POPC   NC328703  11.833   4.118   9.451
 2032POPC   PO428704  12.480   4.487   9.529
 2032POPC   GL128705  12.212   4.402   9.197
 2032POPC   GL228706  12.148   4.093   9.040
 2032POPC   C1A28707  12.110   4.529   8.779
 2032POPC   D2A28708  12.142   4.705   8.389
 2032POPC   C3A28709  11.974   4.421   8.093
 2032POPC   C4A28710  12.150   4.447   7.724
 2032POPC   C1B28711  12.024   4.062   8.623
 2032POPC   C2B28712  12.353   4.229   8.387
 2032POPC   C3B28713  12.443   4.089   8.002
 2032POPC   C4B28714  12.078   3.900   7.817
 2033POPC   NC328715  30.017   7.385   9.594
 2033POPC   PO428716  30.080   6.903   9.152
 2033POPC   GL128717  30.061   7.316   9.064
 2033POPC   GL228718  29.738   7.351   9.018
 2033POPC   C1A28719  30.055   7.593   8.700
 2033POPC   D2A28720  30.238   7.506   8.311
 2033POPC   C3A28721  29.960   7.304   7.983
 2033POPC   C4A28722  29.744   7.026   7.698
 2033POPC   C1B28723  29.515   7.565   8.739
 2033POPC   C2B28724  29.664   7.587   8.345
 2033POPC   C3B28725  29.513   7.575   7.931
 2033POPC   C4B28726  29.277   7.238   7.758
 2034POPC   NC328727  30.078  17.673   9.623
 2034POPC   PO428728  29.701  17.217   9.362
 2034POPC   GL128729  29.825  17.555   9.038
 2034POPC   GL228730  30.108  17.725   9.126
 2034POPC   C1A28731  30.000  17.562   8.591
 2034POPC   D2A28732  30.274  17.352   8.284
 2034POPC   C3A28733  30.145  17.362   7.864
 2034POPC   C4A28734  29.729  17.540   7.834
 2034POPC   C1B28735  30.204  17.974   8.815
 2034POPC   C2B28736  30.088  18.061   8.414
 2034POPC   C3B28737  30.101  17.826   8.083
 2034POPC   C4B28738  30.277  17.967   7.743
 2035POPC   NC328739  43.499  18.334   9.504
 2035POPC   PO428740  42.761  18.164   9.405
 2035POPC   GL128741  42.900  18.372   9.055
 2035POPC   GL228742  43.242  18.256   9.063
 2035POPC   C1A28743  42.957  18.459   8.650
 2035POPC   D2A28744  43.023  18.152   8.355
 2035POPC   C3A28745  42.845  18.137   7.967
 2035POPC   C4A28746  43.021  17.999   7.626
 2035POPC   C1B28747  43.495  18.481   8.745
 2035POPC   C2B28748  43.344  18.557   8.312
 2035POPC   C3B28749  43.165  18.550   7.888
 2035POPC   C4B28750  43.509  18.716   7.628
 2036POPC   NC328751  17.705  16.302   9.413
 2036POPC   PO428752  17.473  16.941   9.412
 2036POPC   GL128753  17.581  16.683   9.076
 2036POPC   GL228754  17.325  16.441   8.923
 2036POPC   C1A28755  17.721  16.595   8.677
 2036POPC   D2A28756  17.463  16.451   8.399
 2036POPC   C3A28757  17.683  16.583   8.066
 2036POPC   C4A28758  17.523  16.593   7.703
 2036POPC   C1B28759  17.206  16.782   8.725
 2036POPC   C2B28760  17.324  16.929   8.370
 2036POPC   C3B28761  17.197  16.810   8.027
 2036POPC   C4B28762  17.147  16.953   7.626
 2037POPC   NC328763  40.489  21.899   9.547
 2037POPC   PO428764  41.114  22.329   9.741
 2037POPC   GL128765  40.804  22.198   9.288
 2037POPC   GL228766  40.815  21.880   9.133
 2037POPC   C1A28767  40.818  22.238   8.803
 2037POPC   D2A28768  40.757  22.466   8.450
 2037POPC   C3A28769  40.525  22.221   8.171
 2037POPC   C4A28770  40.723  22.207   7.795
 2037POPC   C1B28771  40.989  21.768   8.746
 2037POPC   C2B28772  40.917  21.944   8.326
 2037POPC   C3B28773  40.982  21.789   7.894
 2037POPC   C4B28774  40.879  21.842   7.406
 2038POPC   NC328775   0.578  23.081   9.674
 2038POPC   PO428776   0.558  22.465   9.543
 2038POPC   GL128777   0.398  22.732   9.196
 2038POPC   GL228778   0.515  23.077   9.111
 2038POPC   C1A28779   0.408  22.739   8.735
 2038POPC   D2A28780   0.552  22.794   8.293
 2038POPC   C3A28781   0.299  22.911   7.930
 2038POPC   C4A28782   0.466  22.875   7.499
 2038POPC   C1B28783   0.798  23.053   8.705
 2038POPC   C2B28784   0.940  23.194   8.293
 2038POPC   C3B28785   0.775  23.107   7.876
 2038POPC   C4B28786   0.753  23.341   7.486
 2039POPC   NC328787   9.444  27.313   9.546
 2039POPC   PO428788  10.121  27.248   9.501
 2039POPC   GL128789   9.855  27.503   9.244
 2039POPC   GL228790   9.645  27.770   9.351
 2039POPC   C1A28791   9.909  27.567   8.816
 2039POPC   D2A28792   9.807  27.266   8.503
 2039POPC   C3A28793   9.808  27.416   8.061
 2039POPC   C4A28794   9.632  27.407   7.631
 2039POPC   C1B28795   9.427  27.645   8.944
 2039POPC   C2B28796   9.489  27.677   8.496
 2039POPC   C3B28797   9.419  27.742   8.074
 2039POPC   C4B28798   9.303  27.789   7.660
 2040POPC   NC328799  40.648  34.494   9.423
 2040POPC   PO428800  41.230  34.414   9.575
 2040POPC   GL128801  41.073  34.671   9.196
 2040POPC   GL228802  40.783  34.944   9.209
 2040POPC   C1A28803  40.878  34.510   8.782
 2040POPC   D2A28804  41.069  34.410   8.359
 2040POPC   C3A28805  40.868  34.359   7.938
 2040POPC   C4A28806  40.840  34.563   7.502
 2040POPC   C1B28807  40.644  34.983   8.783
 2040POPC   C2B28808  40.637  34.764   8.398
 2040POPC   C3B28809  40.830  34.844   8.049
 2040POPC   C4B28810  40.580  34.982   7.754
 2041POPC   NC328811  25.011  42.814   9.507
 2041POPC   PO428812  24.926  42.144   9.489
 2041POPC   GL128813  25.209  42.287   9.159
 2041POPC   GL228814  25.079  42.596   9.057
 2041POPC   C1A28815  25.270  42.274   8.703
 2041POPC   D2A28816  25.065  42.070   8.378
 2041POPC   C3A28817  25.208  42.226   7.967
 2041POPC   C4A28818  25.464  42.264   7.626
 2041POPC   C1B28819  24.978  42.764   8.701
 2041POPC   C2B28820  25.026  42.587   8.313
 2041POPC   C3B28821  24.986  42.686   7.881
 2041POPC   C4B28822  25.025  42.565   7.440
 2042POPC   NC328823  38.003   4.060   9.344
 2042POPC   PO428824  37.404   3.874   9.611
 2042POPC   GL128825  37.495   4.105   9.277
 2042POPC   GL228826  37.658   4.447   9.219
 2042POPC   C1A28827  37.458   4.055   8.870
 2042POPC   D2A28828  37.655   4.233   8.517
 2042POPC   C3A28829  37.709   4.056   8.144
 2042POPC   C4A28830  37.504   4.293   7.822
 2042POPC   C1B28831  37.928   4.487   8.850
 2042POPC   C2B28832  38.069   4.532   8.424
 2042POPC   C3B28833  37.908   4.540   8.041
 2042POPC   C4B28834  38.000   4.280   7.730
 2043POPC   NC328835   4.983  42.812   9.477
 2043POPC   PO428836   5.399  43.314   9.549
 2043POPC   GL128837   5.316  43.085   9.122
 2043POPC   GL228838   4.954  42.963   9.000
 2043POPC   C1A28839   5.361  43.225   8.670
 2043POPC   D2A28840   5.145  43.386   8.286
 2043POPC   C3A28841   5.220  43.350   7.838
 2043POPC   C4A28842   5.039  43.114   7.431
 2043POPC   C1B28843   5.187  42.725   8.690
 2043POPC   C2B28844   5.337  42.868   8.276
 2043POPC   C3B28845   5.072  42.864   7.886
 2043POPC   C4B28846   4.721  42.738   7.566
 2044POPC   NC328847  18.017  11.115   9.473
 2044POPC   PO428848  18.090  11.757   9.481
 2044POPC   GL128849  18.441  11.544   9.239
 2044POPC   GL228850  18.435  11.195   9.195
 2044POPC   C1A28851  18.410  11.505   8.781
 2044POPC   D2A28852  18.280  11.556   8.356
 2044POPC   C3A28853  18.490  11.336   8.017
 2044POPC   C4A28854  18.393  11.279   7.593
 2044POPC   C1B28855  18.308  11.002   8.801
 2044POPC   C2B28856  18.258  11.063   8.357
 2044POPC   C3B28857  18.250  10.863   7.939
 2044POPC   C4B28858  18.309  10.814   7.468
 2045POPC   NC328859  33.956  38.794   9.403
 2045POPC   PO428860  33.573  38.324   9.636
 2045POPC   GL128861  33.627  38.461   9.202
 2045POPC   GL228862  33.943  38.316   9.126
 2045POPC   C1A28863  33.769  38.618   8.789
 2045POPC   D2A28864  33.976  38.435   8.447
 2045POPC   C3A28865  33.843  38.610   8.087
 2045POPC   C4A28866  33.669  38.494   7.729
 2045POPC   C1B28867  34.157  38.088   8.798
 2045POPC   C2B28868  34.063  37.876   8.415
 2045POPC   C3B28869  34.111  38.127   8.044
 2045POPC   C4B28870  34.170  38.010   7.658
 2046POPC   NC328871  34.976  16.229   9.991
 2046POPC   PO428872  35.228  15.893   9.413
 2046POPC   GL128873  35.312  15.980   9.079
 2046POPC   GL228874  35.202  16.317   9.085
 2046POPC   C1A28875  35.461  15.750   8.750
 2046POPC   D2A28876  35.441  15.526   8.366
 2046POPC   C3A28877  35.443  15.758   8.011
 2046POPC   C4A28878  35.451  15.955   7.643
 2046POPC   C1B28879  35.476  16.299   8.741
 2046POPC   C2B28880  35.421  16.101   8.388
 2046POPC   C3B28881  35.567  16.251   8.039
 2046POPC   C4B28882  35.334  16.422   7.717
 2047POPC   NC328883   4.396  34.149   9.759
 2047POPC   PO428884   4.175  34.737   9.604
 2047POPC   GL128885   4.337  34.759   9.192
 2047POPC   GL228886   4.135  35.051   9.149
 2047POPC   C1A28887   4.574  34.487   8.921
 2047POPC   D2A28888   4.562  34.467   8.473
 2047POPC   C3A28889   4.431  34.541   8.053
 2047POPC   C4A28890   4.501  34.787   7.677
 2047POPC   C1B28891   4.070  35.106   8.710
 2047POPC   C2B28892   4.100  34.837   8.336
 2047POPC   C3B28893   4.063  34.893   7.915
 2047POPC   C4B28894   3.978  35.028   7.507
 2048POPC   NC328895  34.392  40.851   9.333
 2048POPC   PO428896  34.927  41.224   9.324
 2048POPC   GL128897  34.767  41.040   9.017
 2048POPC   GL228898  34.819  40.686   9.093
 2048POPC   C1A28899  34.525  40.893   8.698
 2048POPC   D2A28900  34.692  40.929   8.352
 2048POPC   C3A28901  34.430  40.894   8.041
 2048POPC   C4A28902  34.528  40.761   7.670
 2048POPC   C1B28903  35.044  40.736   8.700
 2048POPC   C2B28904  34.975  40.529   8.319
 2048POPC   C3B28905  34.747  40.453   8.001
 2048POPC   C4B28906  34.905  40.293   7.658
 2049POPC   NC328907  39.733  35.958   9.295
 2049POPC   PO428908  40.129  36.485   9.347
 2049POPC   GL128909  39.976  36.286   9.002
 2049POPC   GL228910  40.130  35.979   8.972
 2049POPC   C1A28911  39.599  36.333   8.751
 2049POPC   D2A28912  39.692  36.461   8.351
 2049POPC   C3A28913  39.822  36.168   8.070
 2049POPC   C4A28914  39.871  36.269   7.666
 2049POPC   C1B28915  39.899  35.912   8.611
 2049POPC   C2B28916  39.902  35.691   8.209
 2049POPC   C3B28917  40.087  35.797   7.791
 2049POPC   C4B28918  40.130  35.942   7.341
 2050POPC   NC328919  15.318  37.666   9.607
 2050POPC   PO428920  14.639  37.964   9.544
 2050POPC   GL128921  14.977  37.884   9.265
 2050POPC   GL228922  14.961  37.546   9.246
 2050POPC   C1A28923  15.093  37.949   8.816
 2050POPC   D2A28924  14.927  37.945   8.401
 2050POPC   C3A28925  15.205  37.986   8.061
 2050POPC   C4A28926  15.316  37.794   7.690
 2050POPC   C1B28927  15.342  37.522   8.936
 2050POPC   C2B28928  15.376  37.617   8.473
 2050POPC   C3B28929  15.241  37.472   8.065
 2050POPC   C4B28930  15.437  37.296   7.714
 2051POPC   NC328931  29.445  44.311   9.384
 2051POPC   PO428932  28.972  43.758   9.488
 2051POPC   GL128933  29.286  43.835   9.166
 2051POPC   GL228934  29.525  43.570   9.096
 2051POPC   C1A28935  29.298  43.974   8.766
 2051POPC   D2A28936  29.036  44.097   8.442
 2051POPC   C3A28937  29.258  43.988   8.078
 2051POPC   C4A28938  29.034  44.082   7.730
 2051POPC   C1B28939  29.246  43.453   8.744
 2051POPC   C2B28940  29.054  43.573   8.362
 2051POPC   C3B28941  28.945  43.605   7.922
 2051POPC   C4B28942  29.309  43.645   7.654
 2052POPC   NC328943  34.137  30.586   9.489
 2052POPC   PO428944  33.548  30.898   9.620
 2052POPC   GL128945  33.837  30.945   9.256
 2052POPC   GL228946  33.876  30.637   9.063
 2052POPC   C1A28947  33.834  31.079   8.836
 2052POPC   D2A28948  33.884  30.777   8.520
 2052POPC   C3A28949  33.929  30.879   8.092
 2052POPC   C4A28950  33.976  30.707   7.685
 2052POPC   C1B28951  33.558  30.429   8.827
 2052POPC   C2B28952  33.540  30.292   8.420
 2052POPC   C3B28953  33.708  30.391   8.028
 2052POPC   C4B28954  33.494  30.372   7.659
 2053POPC   NC328955  44.563  13.397   9.397
 2053POPC   PO428956  44.968  13.912   9.321
 2053POPC   GL128957  44.714  13.802   9.015
 2053POPC   GL228958  44.455  14.052   9.068
 2053POPC   C1A28959  44.697  13.522   8.642
 2053POPC   D2A28960  44.464  13.526   8.257
 2053POPC   C3A28961  44.543  13.807   7.936
 2053POPC   C4A28962  44.789  13.523   7.707
 2053POPC   C1B28963  44.271  13.792   8.753
 2053POPC   C2B28964  44.048  13.840   8.396
 2053POPC   C3B28965  43.922  13.738   8.035
 2053POPC   C4B28966  44.111  13.873   7.646
 2054POPC   NC328967  40.833  18.705   9.584
 2054POPC   PO428968  40.900  18.059   9.443
 2054POPC   GL128969  40.881  18.360   9.125
 2054POPC   GL228970  40.567  18.361   8.969
 2054POPC   C1A28971  41.005  18.227   8.702
 2054POPC   D2A28972  41.068  18.454   8.339
 2054POPC   C3A28973  40.863  18.417   7.980
 2054POPC   C4A28974  40.985  18.178   7.666
 2054POPC   C1B28975  40.569  17.977   8.742
 2054POPC   C2B28976  40.721  17.985   8.313
 2054POPC   C3B28977  40.534  18.034   7.924
 2054POPC   C4B28978  40.362  17.963   7.536
 2055POPC   NC328979   1.648   5.842   9.550
 2055POPC   PO428980   2.306   6.042   9.368
 2055POPC   GL128981   1.983   5.913   9.164
 2055POPC   GL228982   1.798   6.206   9.230
 2055POPC   C1A28983   1.888   5.726   8.787
 2055POPC   D2A28984   1.695   5.837   8.398
 2055POPC   C3A28985   1.930   5.698   8.052
 2055POPC   C4A28986   2.291   5.518   7.862
 2055POPC   C1B28987   1.707   6.212   8.810
 2055POPC   C2B28988   1.954   6.275   8.463
 2055POPC   C3B28989   1.900   6.315   8.017
 2055POPC   C4B28990   2.180   6.063   7.781
 2056POPC   NC328991  42.734   7.661   9.541
 2056POPC   PO428992  42.232   7.182   9.419
 2056POPC   GL128993  42.269   7.327   8.989
 2056POPC   GL228994  41.966   7.366   8.934
 2056POPC   C1A28995  42.297   7.434   8.535
 2056POPC   D2A28996  42.562   7.259   8.217
 2056POPC   C3A28997  42.505   7.484   7.865
 2056POPC   C4A28998  42.273   7.784   7.591
 2056POPC   C1B28999  42.056   7.024   8.627
 2056POPC   C2B29000  42.034   7.132   8.193
 2056POPC   C3B29001  42.008   7.421   7.846
 2056POPC   C4B29002  41.872   7.479   7.410
 2057POPC   NC329003  26.937   3.072   9.450
 2057POPC   PO429004  26.842   3.761   9.289
 2057POPC   GL129005  26.822   3.368   9.055
 2057POPC   GL229006  26.556   3.093   9.085
 2057POPC   C1A29007  26.967   3.336   8.657
 2057POPC   D2A29008  26.817   3.589   8.329
 2057POPC   C3A29009  26.951   3.490   7.947
 2057POPC   C4A29010  27.121   3.703   7.621
 2057POPC   C1B29011  26.379   3.385   8.761
 2057POPC   C2B29012  26.315   3.461   8.315
 2057POPC   C3B29013  26.437   3.656   7.901
 2057POPC   C4B29014  26.644   3.466   7.540
 2058POPC   NC329015  38.152   7.502   9.376
 2058POPC   PO429016  38.609   7.056   9.308
 2058POPC   GL129017  38.515   7.341   9.028
 2058POPC   GL229018  38.641   7.619   9.220
 2058POPC   C1A29019  38.509   7.284   8.597
 2058POPC   D2A29020  38.517   7.037   8.243
 2058POPC   C3A29021  38.464   7.361   7.937
 2058POPC   C4A29022  38.354   7.684   7.680
 2058POPC   C1B29023  38.750   7.718   8.782
 2058POPC   C2B29024  38.509   7.794   8.423
 2058POPC   C3B29025  38.676   7.838   8.034
 2058POPC   C4B29026  38.889   7.610   7.742
 2059POPC   NC329027  44.825  25.881   9.389
 2059POPC   PO429028  44.332  26.304   9.580
 2059POPC   GL129029  44.473  26.263   9.177
 2059POPC   GL229030  44.781  26.378   9.150
 2059POPC   C1A29031  44.339  26.154   8.767
 2059POPC   D2A29032  44.476  25.956   8.399
 2059POPC   C3A29033  44.581  26.140   8.016
 2059POPC   C4A29034  44.509  25.785   7.784
 2059POPC   C1B29035  44.852  26.140   8.774
 2059POPC   C2B29036  44.970  26.075   8.355
 2059POPC   C3B29037  44.971  25.790   8.032
 2059POPC   C4B29038   0.117  26.012   7.715
 2060POPC   NC329039  28.733  36.975   9.551
 2060POPC   PO429040  29.327  37.104   9.466
 2060POPC   GL129041  29.227  36.969   9.072
 2060POPC   GL229042  28.881  36.936   9.066
 2060POPC   C1A29043  29.207  36.869   8.631
 2060POPC   D2A29044  29.218  37.155   8.283
 2060POPC   C3A29045  29.032  37.042   7.890
 2060POPC   C4A29046  29.185  36.681   7.769
 2060POPC   C1B29047  28.696  37.037   8.692
 2060POPC   C2B29048  28.791  36.876   8.324
 2060POPC   C3B29049  28.757  36.559   8.039
 2060POPC   C4B29050  28.675  36.529   7.627
 2061POPC   NC329051   0.080  23.073   9.422
 2061POPC   PO429052  44.375  23.208   9.361
 2061POPC   GL129053  44.613  22.915   9.110
 2061POPC   GL229054  44.955  22.926   8.956
 2061POPC   C1A29055  44.503  22.895   8.680
 2061POPC   D2A29056  44.533  23.069   8.272
 2061POPC   C3A29057  44.775  22.829   7.965
 2061POPC   C4A29058  44.572  22.696   7.594
 2061POPC   C1B29059   0.001  22.916   8.487
 2061POPC   C2B29060  44.988  23.248   8.185
 2061POPC   C3B29061  44.821  23.301   7.801
 2061POPC   C4B29062  44.927  23.024   7.456
 2062POPC   NC329063  27.605  19.641   9.536
 2062POPC   PO429064  27.778  20.277   9.482
 2062POPC   GL129065  27.709  19.973   9.150
 2062POPC   GL229066  27.337  19.967   9.225
 2062POPC   C1A29067  27.873  19.745   8.771
 2062POPC   D2A29068  27.719  19.695   8.332
 2062POPC   C3A29069  27.991  19.707   7.955
 2062POPC   C4A29070  27.918  19.738   7.494
 2062POPC   C1B29071  27.356  19.773   8.824
 2062POPC   C2B29072  27.234  19.915   8.442
 2062POPC   C3B29073  27.333  20.102   8.082
 2062POPC   C4B29074  27.545  19.901   7.778
 2063POPC   NC329075  17.876  39.645   9.381
 2063POPC   PO429076  17.410  39.996   9.724
 2063POPC   GL129077  17.498  39.976   9.264
 2063POPC   GL229078  17.196  40.039   9.122
 2063POPC   C1A29079  17.586  39.878   8.825
 2063POPC   D2A29080  17.347  40.031   8.500
 2063POPC   C3A29081  17.616  39.917   8.180
 2063POPC   C4A29082  17.664  39.999   7.766
 2063POPC   C1B29083  17.099  39.684   8.865
 2063POPC   C2B29084  16.905  39.633   8.434
 2063POPC   C3B29085  17.077  39.812   8.044
 2063POPC   C4B29086  17.219  39.641   7.642
 2064POPC   NC329087  34.993  21.199   9.529
 2064POPC   PO429088  35.608  21.555   9.489
 2064POPC   GL129089  35.319  21.489   9.149
 2064POPC   GL229090  35.274  21.149   9.101
 2064POPC   C1A29091  35.357  21.579   8.696
 2064POPC   D2A29092  35.649  21.474   8.329
 2064POPC   C3A29093  35.423  21.421   7.944
 2064POPC   C4A29094  35.225  21.765   7.696
 2064POPC   C1B29095  35.490  21.081   8.723
 2064POPC   C2B29096  35.464  20.984   8.276
 2064POPC   C3B29097  35.190  20.963   7.936
 2064POPC   C4B29098  35.235  20.941   7.498
 2065POPC   NC329099  31.201  19.880   9.422
 2065POPC   PO429100  31.672  19.430   9.463
 2065POPC   GL129101  31.455  19.543   9.105
 2065POPC   GL229102  31.592  19.849   9.060
 2065POPC   C1A29103  31.220  19.609   8.732
 2065POPC   D2A29104  31.249  19.382   8.342
 2065POPC   C3A29105  31.368  19.643   7.995
 2065POPC   C4A29106  31.706  19.639   7.681
 2065POPC   C1B29107  31.860  20.022   8.743
 2065POPC   C2B29108  31.831  20.254   8.360
 2065POPC   C3B29109  31.695  20.051   8.002
 2065POPC   C4B29110  31.545  20.116   7.602
 2066POPC   NC329111  38.739  43.013   9.813
 2066POPC   PO429112  39.288  43.242   9.450
 2066POPC   GL129113  39.115  43.057   9.091
 2066POPC   GL229114  38.788  42.903   9.251
 2066POPC   C1A29115  39.294  43.115   8.642
 2066POPC   D2A29116  39.472  42.841   8.277
 2066POPC   C3A29117  39.489  42.982   7.837
 2066POPC   C4A29118  39.286  43.359   7.675
 2066POPC   C1B29119  38.717  42.899   8.814
 2066POPC   C2B29120  38.947  42.801   8.448
 2066POPC   C3B29121  39.016  42.981   8.026
 2066POPC   C4B29122  39.041  42.927   7.572
 2067POPC   NC329123  33.337  23.081   9.533
 2067POPC   PO429124  34.035  22.943   9.533
 2067POPC   GL129125  33.848  23.016   9.146
 2067POPC   GL229126  33.491  22.998   9.045
 2067POPC   C1A29127  33.952  23.198   8.724
 2067POPC   D2A29128  33.695  23.143   8.345
 2067POPC   C3A29129  33.867  23.207   7.941
 2067POPC   C4A29130  34.204  23.099   7.693
 2067POPC   C1B29131  33.711  22.778   8.720
 2067POPC   C2B29132  33.796  22.466   8.493
 2067POPC   C3B29133  33.774  22.456   8.052
 2067POPC   C4B29134  33.787  22.748   7.720
 2068POPC   NC329135  17.436  14.531   9.542
 2068POPC   PO429136  18.048  14.254   9.492
 2068POPC   GL129137  17.771  14.351   9.157
 2068POPC   GL229138  17.743  14.705   9.120
 2068POPC   C1A29139  17.531  14.384   8.769
 2068POPC   D2A29140  17.298  14.314   8.391
 2068POPC   C3A29141  17.522  14.180   8.106
 2068POPC   C4A29142  17.411  14.087   7.734
 2068POPC   C1B29143  17.892  14.824   8.697
 2068POPC   C2B29144  17.711  14.628   8.320
 2068POPC   C3B29145  17.490  14.681   7.917
 2068POPC   C4B29146  17.712  14.851   7.560
 2069POPC   NC329147  40.232   4.145   9.490
 2069POPC   PO429148  39.832   4.733   9.418
 2069POPC   GL129149  39.932   4.428   9.120
 2069POPC   GL229150  40.266   4.523   9.141
 2069POPC   C1A29151  39.817   4.213   8.705
 2069POPC   D2A29152  39.833   3.951   8.327
 2069POPC   C3A29153  39.925   4.144   7.938
 2069POPC   C4A29154  39.657   4.359   7.651
 2069POPC   C1B29155  40.332   4.234   8.798
 2069POPC   C2B29156  40.385   4.057   8.384
 2069POPC   C3B29157  40.594   4.316   8.061
 2069POPC   C4B29158  40.307   4.463   7.742
 2070POPC   NC329159  10.937  38.220   9.489
 2070POPC   PO429160  10.354  38.210   9.786
 2070POPC   GL129161  10.344  38.215   9.276
 2070POPC   GL229162  10.140  38.537   9.222
 2070POPC   C1A29163  10.588  38.197   8.854
 2070POPC   D2A29164  10.925  38.159   8.516
 2070POPC   C3A29165  10.822  38.261   8.062
 2070POPC   C4A29166  10.745  38.036   7.673
 2070POPC   C1B29167  10.122  38.417   8.799
 2070POPC   C2B29168  10.299  38.641   8.476
 2070POPC   C3B29169  10.199  38.699   8.072
 2070POPC   C4B29170  10.446  38.531   7.757
 2071POPC   NC329171  36.043  27.605   9.645
 2071POPC   PO429172  35.835  28.145   9.407
 2071POPC   GL129173  36.028  27.758   9.133
 2071POPC   GL229174  36.188  27.443   9.172
 2071POPC   C1A29175  35.892  27.473   8.745
 2071POPC   D2A29176  35.684  27.582   8.362
 2071POPC   C3A29177  35.686  27.456   7.929
 2071POPC   C4A29178  36.001  27.721   7.738
 2071POPC   C1B29179  36.379  27.596   8.772
 2071POPC   C2B29180  36.271  27.478   8.358
 2071POPC   C3B29181  36.492  27.554   7.990
 2071POPC   C4B29182  36.512  27.339   7.617
 2072POPC   NC329183  22.304  19.306   9.490
 2072POPC   PO429184  22.186  18.695   9.247
 2072POPC   GL129185  22.139  19.085   9.053
 2072POPC   GL229186  22.427  19.278   9.012
 2072POPC   C1A29187  21.919  19.112   8.679
 2072POPC   D2A29188  21.966  18.755   8.376
 2072POPC   C3A29189  21.903  18.892   7.943
 2072POPC   C4A29190  21.800  19.324   7.807
 2072POPC   C1B29191  22.359  19.365   8.614
 2072POPC   C2B29192  22.166  19.233   8.241
 2072POPC   C3B29193  22.347  19.190   7.872
 2072POPC   C4B29194  22.477  19.403   7.513
 2073POPC   NC329195  23.579   7.856   9.500
 2073POPC   PO429196  24.065   7.286   9.539
 2073POPC   GL129197  23.886   7.383   9.096
 2073POPC   GL229198  23.738   7.761   9.044
 2073POPC   C1A29199  23.876   7.132   8.735
 2073POPC   D2A29200  23.729   7.093   8.332
 2073POPC   C3A29201  23.874   7.286   7.992
 2073POPC   C4A29202  23.901   7.430   7.565
 2073POPC   C1B29203  23.672   7.585   8.658
 2073POPC   C2B29204  23.668   7.700   8.261
 2073POPC   C3B29205  23.569   7.683   7.869
 2073POPC   C4B29206  23.373   7.369   7.666
 2074POPC   NC329207  42.683  10.216   9.855
 2074POPC   PO429208  43.127  10.690   9.642
 2074POPC   GL129209  43.214  10.597   9.217
 2074POPC   GL229210  42.872  10.638   9.175
 2074POPC   C1A29211  43.249  10.442   8.808
 2074POPC   D2A29212  43.335  10.582   8.411
 2074POPC   C3A29213  43.225  10.304   8.091
 2074POPC   C4A29214  43.179  10.474   7.673
 2074POPC   C1B29215  42.858  10.802   8.778
 2074POPC   C2B29216  42.968  10.947   8.402
 2074POPC   C3B29217  43.101  10.846   8.031
 2074POPC   C4B29218  42.866  10.961   7.685
 2075POPC   NC329219  16.147   0.002   9.496
 2075POPC   PO429220  15.927  44.307   9.484
 2075POPC   GL129221  15.922  44.395   9.067
 2075POPC   GL229222  16.168  44.650   9.085
 2075POPC   C1A29223  16.036  44.381   8.642
 2075POPC   D2A29224  15.814  44.287   8.272
 2075POPC   C3A29225  15.988  44.479   7.903
 2075POPC   C4A29226  15.845  44.931   7.854
 2075POPC   C1B29227  16.152  44.884   8.682
 2075POPC   C2B29228  16.220  44.839   8.220
 2075POPC   C3B29229  16.344  44.824   7.770
 2075POPC   C4B29230  16.455  44.565   7.445
 2076POPC   NC329231  34.566  10.177   9.543
 2076POPC   PO429232  34.272  10.744   9.593
 2076POPC   GL129233  34.542  10.639   9.263
 2076POPC   GL229234  34.445  10.881   9.045
 2076POPC   C1A29235  34.722  10.461   8.886
 2076POPC   D2A29236  34.560  10.345   8.484
 2076POPC   C3A29237  34.741  10.468   8.133
 2076POPC   C4A29238  34.616  10.384   7.750
 2076POPC   C1B29239  34.373  10.787   8.588
 2076POPC   C2B29240  34.450  10.897   8.174
 2076POPC   C3B29241  34.264  10.775   7.791
 2076POPC   C4B29242  34.406  10.802   7.421
 2077POPC   NC329243  43.007  21.435   9.522
 2077POPC   PO429244  43.527  21.584   9.132
 2077POPC   GL129245  43.205  21.446   8.940
 2077POPC   GL229246  43.076  21.157   9.091
 2077POPC   C1A29247  43.121  21.546   8.527
 2077POPC   D2A29248  43.367  21.290   8.303
 2077POPC   C3A29249  43.326  21.309   7.906
 2077POPC   C4A29250  43.277  20.922   7.728
 2077POPC   C1B29251  42.730  21.337   8.832
 2077POPC   C2B29252  42.625  21.441   8.434
 2077POPC   C3B29253  42.846  21.381   8.063
 2077POPC   C4B29254  42.774  21.184   7.665
 2078POPC   NC329255  16.253  37.272   9.399
 2078POPC   PO429256  15.841  37.751   9.698
 2078POPC   GL129257  15.790  37.805   9.221
 2078POPC   GL229258  16.126  37.732   9.200
 2078POPC   C1A29259  15.822  37.724   8.726
 2078POPC   D2A29260  15.867  37.756   8.241
 2078POPC   C3A29261  15.838  37.632   7.769
 2078POPC   C4A29262  15.614  37.609   7.327
 2078POPC   C1B29263  16.297  37.509   8.828
 2078POPC   C2B29264  16.154  37.376   8.482
 2078POPC   C3B29265  16.237  37.421   8.060
 2078POPC   C4B29266  16.293  37.226   7.672
 2079POPC   NC329267   4.180  12.164   9.678
 2079POPC   PO429268   4.555  11.682   9.378
 2079POPC   GL129269   4.163  11.929   9.200
 2079POPC   GL229270   4.198  12.316   9.085
 2079POPC   C1A29271   4.214  11.936   8.754
 2079POPC   D2A29272   4.540  11.976   8.446
 2079POPC   C3A29273   4.411  11.890   8.038
 2079POPC   C4A29274   4.059  11.857   7.776
 2079POPC   C1B29275   4.607  12.489   8.811
 2079POPC   C2B29276   4.786  12.536   8.383
 2079POPC   C3B29277   4.706  12.313   8.000
 2079POPC   C4B29278   4.375  12.273   7.665
 2080POPC   NC329279  36.316   2.399   9.411
 2080POPC   PO429280  36.259   1.796   9.513
 2080POPC   GL129281  36.143   1.960   9.126
 2080POPC   GL229282  35.923   1.707   9.090
 2080POPC   C1A29283  36.163   2.165   8.732
 2080POPC   D2A29284  36.075   2.378   8.321
 2080POPC   C3A29285  36.262   2.154   7.949
 2080POPC   C4A29286  36.301   1.783   7.668
 2080POPC   C1B29287  35.927   1.682   8.670
 2080POPC   C2B29288  35.993   1.875   8.290
 2080POPC   C3B29289  35.828   1.862   7.883
 2080POPC   C4B29290  35.775   1.498   7.626
 2081POPC   NC329291  25.535  28.507   9.286
 2081POPC   PO429292  24.875  28.618   9.507
 2081POPC   GL129293  25.012  28.571   9.103
 2081POPC   GL229294  25.125  28.273   9.036
 2081POPC   C1A29295  25.242  28.607   8.685
 2081POPC   D2A29296  25.119  28.311   8.367
 2081POPC   C3A29297  25.205  28.456   7.991
 2081POPC   C4A29298  25.448  28.383   7.682
 2081POPC   C1B29299  25.410  28.100   8.753
 2081POPC   C2B29300  25.322  27.851   8.404
 2081POPC   C3B29301  25.411  27.983   8.017
 2081POPC   C4B29302  25.553  27.898   7.631
 2082POPC   NC329303  41.673   4.203   9.785
 2082POPC   PO429304  41.989   4.687   9.411
 2082POPC   GL129305  41.648   4.551   9.168
 2082POPC   GL229306  41.590   4.227   9.073
 2082POPC   C1A29307  41.536   4.656   8.752
 2082POPC   D2A29308  41.787   4.635   8.379
 2082POPC   C3A29309  41.580   4.673   8.011
 2082POPC   C4A29310  41.691   4.409   7.665
 2082POPC   C1B29311  41.282   4.210   8.748
 2082POPC   C2B29312  41.376   4.301   8.329
 2082POPC   C3B29313  41.537   4.058   7.996
 2082POPC   C4B29314  41.375   3.976   7.573
 2083POPC   NC329315  10.096  41.029   9.464
 2083POPC   PO429316  10.032  41.671   9.462
 2083POPC   GL129317   9.810  41.530   9.113
 2083POPC   GL229318   9.691  41.215   9.187
 2083POPC   C1A29319   9.975  41.657   8.728
 2083POPC   D2A29320   9.917  41.949   8.397
 2083POPC   C3A29321   9.855  41.721   8.029
 2083POPC   C4A29322   9.504  41.631   7.797
 2083POPC   C1B29323   9.592  41.204   8.728
 2083POPC   C2B29324   9.595  41.309   8.275
 2083POPC   C3B29325   9.700  41.186   7.847
 2083POPC   C4B29326   9.365  41.190   7.506
 2084POPC   NC329327  18.921  35.632   9.616
 2084POPC   PO429328  19.423  35.255   9.422
 2084POPC   GL129329  19.155  35.254   9.075
 2084POPC   GL229330  18.909  35.530   9.112
 2084POPC   C1A29331  19.213  35.472   8.700
 2084POPC   D2A29332  18.966  35.697   8.428
 2084POPC   C3A29333  19.032  35.401   8.110
 2084POPC   C4A29334  19.427  35.244   7.946
 2084POPC   C1B29335  18.605  35.745   8.823
 2084POPC   C2B29336  18.471  35.846   8.379
 2084POPC   C3B29337  18.681  35.745   7.971
 2084POPC   C4B29338  18.756  35.525   7.573
 2085POPC   NC329339   7.659  15.822   9.506
 2085POPC   PO429340   8.266  16.004   9.486
 2085POPC   GL129341   8.009  15.936   9.119
 2085POPC   GL229342   8.002  15.623   9.035
 2085POPC   C1A29343   8.144  15.952   8.669
 2085POPC   D2A29344   8.313  16.154   8.282
 2085POPC   C3A29345   8.283  16.091   7.831
 2085POPC   C4A29346   8.431  16.180   7.413
 2085POPC   C1B29347   7.958  15.466   8.632
 2085POPC   C2B29348   7.926  15.717   8.262
 2085POPC   C3B29349   7.922  15.695   7.841
 2085POPC   C4B29350   8.188  15.704   7.475
 2086POPC   NC329351  27.008  13.338   9.476
 2086POPC   PO429352  26.686  13.994   9.317
 2086POPC   GL129353  26.563  13.728   9.010
 2086POPC   GL229354  26.839  13.505   9.022
 2086POPC   C1A29355  26.595  13.644   8.584
 2086POPC   D2A29356  26.798  13.582   8.183
 2086POPC   C3A29357  26.649  13.858   7.927
 2086POPC   C4A29358  26.294  13.963   7.744
 2086POPC   C1B29359  27.094  13.501   8.621
 2086POPC   C2B29360  27.205  13.292   8.215
 2086POPC   C3B29361  27.135  13.393   7.768
 2086POPC   C4B29362  27.140  13.245   7.315
 2087POPC   NC329363  29.980   4.878   9.377
 2087POPC   PO429364  29.770   5.385   9.741
 2087POPC   GL129365  29.785   5.350   9.264
 2087POPC   GL229366  30.018   5.510   9.063
 2087POPC   C1A29367  29.776   5.141   8.807
 2087POPC   D2A29368  29.801   5.159   8.342
 2087POPC   C3A29369  30.227   5.244   8.140
 2087POPC   C4A29370  30.291   5.012   7.761
 2087POPC   C1B29371  29.603   5.608   8.859
 2087POPC   C2B29372  29.394   5.480   8.497
 2087POPC   C3B29373  29.520   5.514   8.074
 2087POPC   C4B29374  29.842   5.316   7.814
 2088POPC   NC329375  41.797  28.293   9.927
 2088POPC   PO429376  41.811  27.938   9.427
 2088POPC   GL129377  41.787  28.160   9.048
 2088POPC   GL229378  41.868  28.440   9.190
 2088POPC   C1A29379  41.576  28.220   8.638
 2088POPC   D2A29380  41.519  28.041   8.215
 2088POPC   C3A29381  41.571  28.245   7.825
 2088POPC   C4A29382  41.290  28.247   7.476
 2088POPC   C1B29383  41.834  28.642   8.781
 2088POPC   C2B29384  41.631  28.698   8.358
 2088POPC   C3B29385  41.783  28.730   7.905
 2088POPC   C4B29386  41.600  28.649   7.463
 2089POPC   NC329387  39.287   1.827   9.440
 2089POPC   PO429388  39.455   2.412   9.503
 2089POPC   GL129389  39.506   2.155   9.104
 2089POPC   GL229390  39.136   2.029   9.008
 2089POPC   C1A29391  39.412   2.295   8.695
 2089POPC   D2A29392  39.157   2.163   8.312
 2089POPC   C3A29393  39.416   2.022   7.930
 2089POPC   C4A29394  39.423   1.611   7.760
 2089POPC   C1B29395  39.310   1.776   8.684
 2089POPC   C2B29396  39.195   1.630   8.255
 2089POPC   C3B29397  38.968   1.799   7.881
 2089POPC   C4B29398  39.006   2.281   7.831
 2090POPC   NC329399  36.517  19.371   9.219
 2090POPC   PO429400  35.872  19.287   9.463
 2090POPC   GL129401  36.010  19.066   9.090
 2090POPC   GL229402  36.361  18.918   9.041
 2090POPC   C1A29403  36.049  19.150   8.643
 2090POPC   D2A29404  36.382  19.395   8.426
 2090POPC   C3A29405  36.443  19.215   8.029
 2090POPC   C4A29406  36.025  19.241   7.882
 2090POPC   C1B29407  36.206  18.658   8.711
 2090POPC   C2B29408  36.193  18.765   8.258
 2090POPC   C3B29409  35.922  18.731   7.894
 2090POPC   C4B29410  35.938  18.717   7.426
 2091POPC   NC329411  36.492  32.895   9.885
 2091POPC   PO429412  35.962  33.045   9.503
 2091POPC   GL129413  35.923  33.033   9.055
 2091POPC   GL229414  36.130  32.741   9.098
 2091POPC   C1A29415  35.972  33.207   8.606
 2091POPC   D2A29416  35.709  33.496   8.336
 2091POPC   C3A29417  35.809  33.390   7.973
 2091POPC   C4A29418  36.068  33.102   7.841
 2091POPC   C1B29419  36.333  32.840   8.704
 2091POPC   C2B29420  36.358  33.009   8.295
 2091POPC   C3B29421  36.471  32.820   7.948
 2091POPC   C4B29422  36.187  32.481   7.871
 2092POPC   NC329423   5.761  12.285   9.499
 2092POPC   PO429424   6.108  11.725   9.720
 2092POPC   GL129425   6.031  11.907   9.293
 2092POPC   GL229426   5.689  11.789   9.173
 2092POPC   C1A29427   6.012  12.035   8.823
 2092POPC   D2A29428   5.937  11.948   8.344
 2092POPC   C3A29429   6.114  12.103   7.902
 2092POPC   C4A29430   6.053  12.216   7.418
 2092POPC   C1B29431   5.444  11.859   8.766
 2092POPC   C2B29432   5.443  11.735   8.325
 2092POPC   C3B29433   5.631  11.818   7.907
 2092POPC   C4B29434   5.639  12.201   7.687
 2093POPC   NC329435   5.401  13.832   9.567
 2093POPC   PO429436   6.113  13.692   9.641
 2093POPC   GL129437   5.876  13.670   9.251
 2093POPC   GL229438   5.751  13.949   9.180
 2093POPC   C1A29439   5.759  13.428   8.869
 2093POPC   D2A29440   5.955  13.392   8.486
 2093POPC   C3A29441   5.735  13.437   8.125
 2093POPC   C4A29442   6.093  13.467   7.862
 2093POPC   C1B29443   5.990  13.858   8.775
 2093POPC   C2B29444   5.839  13.889   8.323
 2093POPC   C3B29445   5.883  13.942   7.856
 2093POPC   C4B29446   5.623  14.004   7.472
 2094POPC   NC329447  41.924  20.656   9.374
 2094POPC   PO429448  41.304  20.712   9.362
 2094POPC   GL129449  41.512  20.391   9.112
 2094POPC   GL229450  41.846  20.366   8.969
 2094POPC   C1A29451  41.341  20.384   8.707
 2094POPC   D2A29452  41.107  20.473   8.327
 2094POPC   C3A29453  41.420  20.669   8.106
 2094POPC   C4A29454  41.564  20.904   7.757
 2094POPC   C1B29455  41.864  20.756   8.702
 2094POPC   C2B29456  41.931  20.745   8.260
 2094POPC   C3B29457  41.845  20.463   7.921
 2094POPC   C4B29458  41.761  20.543   7.457
 2095POPC   NC329459  27.553  24.146   9.440
 2095POPC   PO429460  28.007  24.631   9.438
 2095POPC   GL129461  27.638  24.600   9.205
 2095POPC   GL229462  27.862  24.687   8.941
 2095POPC   C1A29463  27.321  24.569   8.866
 2095POPC   D2A29464  27.218  24.417   8.453
 2095POPC   C3A29465  26.945  24.568   8.147
 2095POPC   C4A29466  27.162  24.625   7.769
 2095POPC   C1B29467  27.743  24.460   8.616
 2095POPC   C2B29468  27.794  24.201   8.306
 2095POPC   C3B29469  27.522  24.370   8.031
 2095POPC   C4B29470  27.655  24.452   7.633
 2096POPC   NC329471  36.225   3.830   9.401
 2096POPC   PO429472  35.822   3.204   9.410
 2096POPC   GL129473  36.106   3.409   9.087
 2096POPC   GL229474  36.223   3.713   8.905
 2096POPC   C1A29475  36.322   3.232   8.712
 2096POPC   D2A29476  36.488   3.357   8.293
 2096POPC   C3A29477  36.236   3.212   7.940
 2096POPC   C4A29478  36.043   3.320   7.566
 2096POPC   C1B29479  35.824   3.767   8.652
 2096POPC   C2B29480  35.712   3.827   8.197
 2096POPC   C3B29481  36.011   3.731   7.864
 2096POPC   C4B29482  36.472   3.733   7.904
 2097POPC   NC329483   3.757  23.455   9.442
 2097POPC   PO429484   3.866  24.070   9.325
 2097POPC   GL129485   3.553  23.832   9.099
 2097POPC   GL229486   3.572  23.473   8.950
 2097POPC   C1A29487   3.430  23.915   8.687
 2097POPC   D2A29488   3.652  24.093   8.332
 2097POPC   C3A29489   3.519  23.887   7.968
 2097POPC   C4A29490   3.687  23.622   7.701
 2097POPC   C1B29491   3.177  23.420   8.681
 2097POPC   C2B29492   3.019  23.278   8.293
 2097POPC   C3B29493   3.179  23.502   7.915
 2097POPC   C4B29494   3.233  23.536   7.450
 2098POPC   NC329495  19.051   8.541   9.442
 2098POPC   PO429496  18.644   7.969   9.400
 2098POPC   GL129497  18.972   8.131   9.114
 2098POPC   GL229498  19.348   8.053   9.178
 2098POPC   C1A29499  18.999   7.974   8.698
 2098POPC   D2A29500  18.906   7.941   8.237
 2098POPC   C3A29501  18.775   8.288   7.947
 2098POPC   C4A29502  18.851   8.259   7.489
 2098POPC   C1B29503  19.375   8.346   8.804
 2098POPC   C2B29504  19.252   8.296   8.356
 2098POPC   C3B29505  19.251   8.233   7.868
 2098POPC   C4B29506  19.358   8.349   7.459
 2099POPC   NC329507  41.401  11.113   9.598
 2099POPC   PO429508  41.769  11.701   9.526
 2099POPC   GL129509  41.665  11.332   9.216
 2099POPC   GL229510  41.289  11.237   9.111
 2099POPC   C1A29511  41.692  11.163   8.793
 2099POPC   D2A29512  41.532  11.337   8.412
 2099POPC   C3A29513  41.696  11.131   8.044
 2099POPC   C4A29514  41.895  11.234   7.641
 2099POPC   C1B29515  41.174  11.016   8.703
 2099POPC   C2B29516  41.284  10.916   8.261
 2099POPC   C3B29517  41.247  11.062   7.827
 2099POPC   C4B29518  41.195  10.943   7.396
 2100POPC   NC329519  34.744   9.430   9.528
 2100POPC   PO429520  35.022  10.082   9.528
 2100POPC   GL129521  34.722   9.954   9.135
 2100POPC   GL229522  34.638   9.578   9.055
 2100POPC   C1A29523  34.414  10.011   8.822
 2100POPC   D2A29524  34.211   9.931   8.424
 2100POPC   C3A29525  34.488   9.959   8.070
 2100POPC   C4A29526  34.458   9.889   7.650
 2100POPC   C1B29527  34.525   9.549   8.624
 2100POPC   C2B29528  34.714   9.469   8.234
 2100POPC   C3B29529  34.733   9.268   7.850
 2100POPC   C4B29530  34.712   9.443   7.418
 2101POPC   NC329531  33.648  16.859   9.637
 2101POPC   PO429532  34.226  17.057   9.391
 2101POPC   GL129533  33.916  16.760   9.181
 2101POPC   GL229534  34.046  16.444   9.017
 2101POPC   C1A29535  33.717  16.838   8.771
 2101POPC   D2A29536  33.526  17.051   8.404
 2101POPC   C3A29537  33.681  16.849   8.036
 2101POPC   C4A29538  33.644  16.618   7.644
 2101POPC   C1B29539  34.252  16.807   8.779
 2101POPC   C2B29540  34.078  17.113   8.470
 2101POPC   C3B29541  34.176  17.037   8.039
 2101POPC   C4B29542  33.961  17.027   7.642
 2102POPC   NC329543   6.005   1.825   9.459
 2102POPC   PO429544   5.965   2.447   9.363
 2102POPC   GL129545   5.772   2.163   9.042
 2102POPC   GL229546   5.921   1.805   8.973
 2102POPC   C1A29547   5.905   2.162   8.609
 2102POPC   D2A29548   6.139   1.938   8.317
 2102POPC   C3A29549   6.216   2.095   7.894
 2102POPC   C4A29550   6.140   2.027   7.469
 2102POPC   C1B29551   5.570   1.766   8.743
 2102POPC   C2B29552   5.653   1.782   8.344
 2102POPC   C3B29553   5.714   2.054   8.011
 2102POPC   C4B29554   5.535   1.816   7.685
 2103POPC   NC329555  15.457  12.668   9.721
 2103POPC   PO429556  15.088  13.243   9.557
 2103POPC   GL129557  15.083  12.992   9.210
 2103POPC   GL229558  15.401  12.892   9.246
 2103POPC   C1A29559  14.903  12.988   8.780
 2103POPC   D2A29560  15.051  13.057   8.368
 2103POPC   C3A29561  14.815  13.063   8.029
 2103POPC   C4A29562  14.929  12.921   7.635
 2103POPC   C1B29563  15.511  12.830   8.810
 2103POPC   C2B29564  15.520  12.876   8.356
 2103POPC   C3B29565  15.361  12.934   7.947
 2103POPC   C4B29566  15.629  12.832   7.619
 2104POPC   NC329567  10.264  16.048   9.504
 2104POPC   PO429568  10.721  15.576   9.625
 2104POPC   GL129569  10.740  15.866   9.229
 2104POPC   GL229570  10.627  16.227   9.173
 2104POPC   C1A29571  10.676  15.912   8.772
 2104POPC   D2A29572  10.799  15.681   8.408
 2104POPC   C3A29573  10.547  15.835   8.107
 2104POPC   C4A29574  10.692  15.847   7.714
 2104POPC   C1B29575  10.254  16.205   8.866
 2104POPC   C2B29576  10.155  15.996   8.490
 2104POPC   C3B29577  10.153  16.175   8.076
 2104POPC   C4B29578  10.191  16.068   7.647
 2105POPC   NC329579  17.977  33.220   9.616
 2105POPC   PO429580  17.372  33.055   9.486
 2105POPC   GL129581  17.441  33.186   9.091
 2105POPC   GL229582  17.358  32.871   8.965
 2105POPC   C1A29583  17.280  33.435   8.745
 2105POPC   D2A29584  17.335  33.598   8.301
 2105POPC   C3A29585  17.296  33.287   7.994
 2105POPC   C4A29586  17.045  33.191   7.629
 2105POPC   C1B29587  17.664  32.981   8.682
 2105POPC   C2B29588  17.607  32.899   8.263
 2105POPC   C3B29589  17.745  33.055   7.919
 2105POPC   C4B29590  17.923  32.952   7.562
 2106POPC   NC329591  41.745  42.102   9.473
 2106POPC   PO429592  41.187  42.530   9.339
 2106POPC   GL129593  41.398  42.228   9.102
 2106POPC   GL229594  41.141  42.020   9.038
 2106POPC   C1A29595  41.619  42.354   8.749
 2106POPC   D2A29596  41.349  42.659   8.571
 2106POPC   C3A29597  41.333  42.741   8.136
 2106POPC   C4A29598  41.475  42.628   7.757
 2106POPC   C1B29599  41.225  42.057   8.602
 2106POPC   C2B29600  41.476  42.236   8.259
 2106POPC   C3B29601  41.395  42.114   7.849
 2106POPC   C4B29602  41.330  42.277   7.422
 2107POPC   NC329603   7.616  30.967   9.505
 2107POPC   PO429604   7.004  30.753   9.479
 2107POPC   GL129605   7.131  30.871   9.068
 2107POPC   GL229606   7.506  30.832   9.030
 2107POPC   C1A29607   7.226  30.742   8.624
 2107POPC   D2A29608   7.579  30.683   8.341
 2107POPC   C3A29609   7.404  30.491   7.991
 2107POPC   C4A29610   7.648  30.412   7.659
 2107POPC   C1B29611   7.700  31.038   8.679
 2107POPC   C2B29612   7.800  31.162   8.255
 2107POPC   C3B29613   7.667  30.944   7.893
 2107POPC   C4B29614   7.597  31.014   7.474
 2108POPC   NC329615  24.009   2.665   9.456
 2108POPC   PO429616  23.370   2.594   9.257
 2108POPC   GL129617  23.662   2.872   9.132
 2108POPC   GL229618  23.826   2.620   8.986
 2108POPC   C1A29619  23.780   3.079   8.750
 2108POPC   D2A29620  23.766   2.773   8.437
 2108POPC   C3A29621  23.775   2.857   8.030
 2108POPC   C4A29622  23.580   2.674   7.727
 2108POPC   C1B29623  23.944   2.367   8.676
 2108POPC   C2B29624  24.116   2.407   8.269
 2108POPC   C3B29625  23.980   2.352   7.822
 2108POPC   C4B29626  23.967   2.262   7.335
 2109POPC   NC329627   8.682  33.251   9.443
 2109POPC   PO429628   9.266  33.045   9.598
 2109POPC   GL129629   9.046  32.988   9.217
 2109POPC   GL229630   9.068  33.296   9.076
 2109POPC   C1A29631   8.907  32.880   8.822
 2109POPC   D2A29632   8.685  32.773   8.467
 2109POPC   C3A29633   8.925  32.787   8.104
 2109POPC   C4A29634   8.839  32.813   7.668
 2109POPC   C1B29635   8.666  33.347   8.813
 2109POPC   C2B29636   8.494  33.277   8.397
 2109POPC   C3B29637   8.771  33.308   8.076
 2109POPC   C4B29638   9.089  33.221   7.836
 2110POPC   NC329639  12.979  25.833   9.396
 2110POPC   PO429640  12.494  26.297   9.556
 2110POPC   GL129641  12.702  26.203   9.163
 2110POPC   GL229642  12.533  25.891   9.103
 2110POPC   C1A29643  12.903  26.268   8.749
 2110POPC   D2A29644  12.735  26.122   8.326
 2110POPC   C3A29645  12.976  26.297   7.948
 2110POPC   C4A29646  13.104  26.354   7.500
 2110POPC   C1B29647  12.722  25.789   8.725
 2110POPC   C2B29648  12.955  25.662   8.335
 2110POPC   C3B29649  12.784  25.823   7.925
 2110POPC   C4B29650  12.990  25.853   7.556
 2111POPC   NC329651  35.474  38.058   9.436
 2111POPC   PO429652  35.044  37.560   9.556
 2111POPC   GL129653  35.391  37.553   9.244
 2111POPC   GL229654  35.336  37.831   9.018
 2111POPC   C1A29655  35.605  37.469   8.822
 2111POPC   D2A29656  35.428  37.696   8.476
 2111POPC   C3A29657  35.527  37.547   8.084
 2111POPC   C4A29658  35.337  37.331   7.763
 2111POPC   C1B29659  35.654  38.034   8.770
 2111POPC   C2B29660  35.605  38.210   8.365
 2111POPC   C3B29661  35.706  38.016   7.970
 2111POPC   C4B29662  35.694  37.726   7.626
 2112POPC   NC329663  41.325  18.287   9.402
 2112POPC   PO429664  41.843  17.910   9.397
 2112POPC   GL129665  41.664  18.086   9.066
 2112POPC   GL229666  41.800  18.403   9.156
 2112POPC   C1A29667  41.517  18.329   8.720
 2112POPC   D2A29668  41.499  18.160   8.313
 2112POPC   C3A29669  41.413  18.406   7.944
 2112POPC   C4A29670  41.531  18.167   7.601
 2112POPC   C1B29671  42.001  18.555   8.790
 2112POPC   C2B29672  41.848  18.565   8.387
 2112POPC   C3B29673  42.085  18.703   8.059
 2112POPC   C4B29674  41.868  18.595   7.672
 2113POPC   NC329675   0.264   4.031   9.384
 2113POPC   PO429676   0.635   4.569   9.471
 2113POPC   GL129677   0.545   4.394   9.116
 2113POPC   GL229678   0.228   4.493   9.078
 2113POPC   C1A29679   0.538   4.584   8.702
 2113POPC   D2A29680   0.277   4.583   8.410
 2113POPC   C3A29681   0.415   4.493   7.987
 2113POPC   C4A29682   0.479   4.578   7.553
 2113POPC   C1B29683   0.218   4.183   8.767
 2113POPC   C2B29684   0.144   4.083   8.372
 2113POPC   C3B29685   0.512   4.035   8.162
 2113POPC   C4B29686   0.587   4.067   7.716
 2114POPC   NC329687  43.736  16.242   9.581
 2114POPC   PO429688  44.187  15.810   9.516
 2114POPC   GL129689  44.150  15.911   9.117
 2114POPC   GL229690  43.808  15.965   9.154
 2114POPC   C1A29691  44.088  15.808   8.697
 2114POPC   D2A29692  44.035  15.590   8.316
 2114POPC   C3A29693  44.127  15.798   7.924
 2114POPC   C4A29694  44.242  16.026   7.535
 2114POPC   C1B29695  43.714  16.173   8.773
 2114POPC   C2B29696  43.817  16.079   8.340
 2114POPC   C3B29697  43.624  15.788   8.046
 2114POPC   C4B29698  43.709  15.803   7.611
 2115POPC   NC329699   1.623   9.619   9.567
 2115POPC   PO429700   2.199   9.957   9.398
 2115POPC   GL129701   1.873   9.807   9.164
 2115POPC   GL229702   1.677  10.087   9.087
 2115POPC   C1A29703   1.846   9.676   8.750
 2115POPC   D2A29704   1.868   9.446   8.383
 2115POPC   C3A29705   1.811   9.698   7.996
 2115POPC   C4A29706   2.178   9.694   7.757
 2115POPC   C1B29707   1.955  10.173   8.774
 2115POPC   C2B29708   1.903  10.056   8.371
 2115POPC   C3B29709   2.013  10.243   8.018
 2115POPC   C4B29710   1.912  10.115   7.623
 2116POPC   NC329711  23.508  22.188   9.662
 2116POPC   PO429712  23.915  21.873   9.133
 2116POPC   GL129713  23.864  22.203   8.808
 2116POPC   GL229714  23.716  22.547   8.979
 2116POPC   C1A29715  23.910  21.886   8.466
 2116POPC   D2A29716  23.529  21.616   8.450
 2116POPC   C3A29717  23.350  21.795   8.095
 2116POPC   C4A29718  23.537  22.099   7.828
 2116POPC   C1B29719  23.527  22.565   8.585
 2116POPC   C2B29720  23.737  22.329   8.258
 2116POPC   C3B29721  23.976  22.381   7.864
 2116POPC   C4B29722  23.732  22.390   7.461
 2117POPC   NC329723   5.343  14.694   9.437
 2117POPC   PO429724   4.893  14.173   9.697
 2117POPC   GL129725   4.831  14.282   9.228
 2117POPC   GL229726   4.833  14.648   9.223
 2117POPC   C1A29727   4.979  14.159   8.801
 2117POPC   D2A29728   4.800  14.270   8.412
 2117POPC   C3A29729   5.066  14.314   8.068
 2117POPC   C4A29730   4.846  14.339   7.674
 2117POPC   C1B29731   4.780  14.630   8.787
 2117POPC   C2B29732   5.166  14.623   8.511
 2117POPC   C3B29733   5.337  14.755   8.106
 2117POPC   C4B29734   5.198  14.691   7.723
 2118POPC   NC329735  26.543  26.321   9.296
 2118POPC   PO429736  26.128  25.769   9.495
 2118POPC   GL129737  25.987  25.886   9.086
 2118POPC   GL229738  26.161  26.173   9.004
 2118POPC   C1A29739  26.002  25.854   8.632
 2118POPC   D2A29740  25.891  25.934   8.224
 2118POPC   C3A29741  26.210  25.926   7.914
 2118POPC   C4A29742  26.065  26.034   7.489
 2118POPC   C1B29743  26.346  26.343   8.626
 2118POPC   C2B29744  26.403  26.310   8.212
 2118POPC   C3B29745  26.307  26.413   7.789
 2118POPC   C4B29746  26.256  26.505   7.352
 2119POPC   NC329747  39.904  19.431   9.486
 2119POPC   PO429748  40.266  19.999   9.486
 2119POPC   GL129749  40.129  19.905   9.094
 2119POPC   GL229750  39.843  20.031   8.934
 2119POPC   C1A29751  40.130  19.713   8.696
 2119POPC   D2A29752  40.055  19.820   8.295
 2119POPC   C3A29753  40.166  19.531   8.000
 2119POPC   C4A29754  40.274  19.705   7.580
 2119POPC   C1B29755  39.613  19.788   8.612
 2119POPC   C2B29756  39.577  19.724   8.178
 2119POPC   C3B29757  39.824  19.861   7.837
 2119POPC   C4B29758  39.786  19.895   7.410
 2120POPC   NC329759   7.023  37.275   9.512
 2120POPC   PO429760   7.636  36.871   9.431
 2120POPC   GL129761   7.520  36.866   9.037
 2120POPC   GL229762   7.225  37.055   9.107
 2120POPC   C1A29763   7.607  36.697   8.646
 2120POPC   D2A29764   7.350  36.702   8.306
 2120POPC   C3A29765   7.558  36.865   7.991
 2120POPC   C4A29766   7.456  37.074   7.650
 2120POPC   C1B29767   7.113  36.928   8.720
 2120POPC   C2B29768   7.069  37.151   8.356
 2120POPC   C3B29769   7.026  37.019   7.946
 2120POPC   C4B29770   6.987  36.942   7.509
 2121POPC   NC329771  30.265  43.818   9.776
 2121POPC   PO429772  29.642  44.012   9.678
 2121POPC   GL129773  29.802  43.998   9.241
 2121POPC   GL229774  30.132  44.032   9.191
 2121POPC   C1A29775  29.826  43.889   8.803
 2121POPC   D2A29776  29.739  43.847   8.359
 2121POPC   C3A29777  30.050  43.675   8.030
 2121POPC   C4A29778  29.963  43.836   7.621
 2121POPC   C1B29779  30.342  44.029   8.784
 2121POPC   C2B29780  30.251  44.031   8.334
 2121POPC   C3B29781  30.286  44.129   7.886
 2121POPC   C4B29782  30.069  44.279   7.441
 2122POPC   NC329783  38.468  27.234   9.347
 2122POPC   PO429784  38.256  27.875   9.474
 2122POPC   GL129785  38.511  27.763   9.122
 2122POPC   GL229786  38.328  27.503   8.920
 2122POPC   C1A29787  38.668  27.865   8.720
 2122POPC   D2A29788  38.512  27.593   8.401
 2122POPC   C3A29789  38.669  27.766   8.033
 2122POPC   C4A29790  38.525  27.597   7.674
 2122POPC   C1B29791  38.759  27.365   8.789
 2122POPC   C2B29792  38.844  27.090   8.436
 2122POPC   C3B29793  38.678  27.246   8.036
 2122POPC   C4B29794  38.792  27.158   7.609
 2123POPC   NC329795  11.079  27.904   9.419
 2123POPC   PO429796  11.577  27.583   9.592
 2123POPC   GL129797  11.489  27.667   9.181
 2123POPC   GL229798  11.163  27.532   9.106
 2123POPC   C1A29799  11.545  27.468   8.770
 2123POPC   D2A29800  11.706  27.403   8.351
 2123POPC   C3A29801  11.443  27.599   8.043
 2123POPC   C4A29802  11.422  27.649   7.610
 2123POPC   C1B29803  11.144  27.798   8.753
 2123POPC   C2B29804  11.024  27.685   8.330
 2123POPC   C3B29805  10.981  27.763   7.881
 2123POPC   C4B29806  10.886  27.470   7.569
 2124POPC   NC329807  28.637  41.924   9.392
 2124POPC   PO429808  28.651  42.593   9.525
 2124POPC   GL129809  28.412  42.359   9.176
 2124POPC   GL229810  28.252  42.636   9.051
 2124POPC   C1A29811  28.312  42.275   8.697
 2124POPC   D2A29812  28.441  42.054   8.288
 2124POPC   C3A29813  28.466  42.152   7.832
 2124POPC   C4A29814  28.230  42.315   7.478
 2124POPC   C1B29815  28.634  42.675   8.798
 2124POPC   C2B29816  28.643  42.509   8.391
 2124POPC   C3B29817  28.325  42.577   8.068
 2124POPC   C4B29818  28.459  42.725   7.675
 2125POPC   NC329819   8.020  37.247   9.447
 2125POPC   PO429820   8.400  36.656   9.517
 2125POPC   GL129821   8.395  36.912   9.136
 2125POPC   GL229822   8.046  36.844   9.093
 2125POPC   C1A29823   8.358  36.931   8.655
 2125POPC   D2A29824   8.008  36.824   8.329
 2125POPC   C3A29825   8.095  36.951   7.901
 2125POPC   C4A29826   8.462  37.093   7.659
 2125POPC   C1B29827   7.882  37.108   8.768
 2125POPC   C2B29828   7.634  37.203   8.389
 2125POPC   C3B29829   7.820  37.374   7.971
 2125POPC   C4B29830   7.878  37.311   7.519
 2126POPC   NC329831  16.706  15.850   9.612
 2126POPC   PO429832  17.231  16.099   9.256
 2126POPC   GL129833  16.889  15.992   9.004
 2126POPC   GL229834  16.591  16.107   9.157
 2126POPC   C1A29835  16.853  15.962   8.546
 2126POPC   D2A29836  17.032  15.753   8.162
 2126POPC   C3A29837  17.016  15.968   7.771
 2126POPC   C4A29838  17.052  16.411   7.753
 2126POPC   C1B29839  16.389  15.849   8.824
 2126POPC   C2B29840  16.463  15.676   8.379
 2126POPC   C3B29841  16.563  15.752   7.921
 2126POPC   C4B29842  16.450  15.530   7.564
 2127POPC   NC329843  34.322   2.986   9.461
 2127POPC   PO429844  34.984   2.882   9.653
 2127POPC   GL129845  34.962   2.696   9.166
 2127POPC   GL229846  34.592   2.664   9.127
 2127POPC   C1A29847  34.872   2.599   8.704
 2127POPC   D2A29848  34.489   2.549   8.451
 2127POPC   C3A29849  34.429   2.737   8.036
 2127POPC   C4A29850  34.776   2.964   7.846
 2127POPC   C1B29851  34.420   2.911   8.812
 2127POPC   C2B29852  34.192   2.994   8.450
 2127POPC   C3B29853  34.078   3.156   8.088
 2127POPC   C4B29854  34.143   3.018   7.690
 2128POPC   NC329855  13.249  21.891   9.330
 2128POPC   PO429856  12.834  21.554   9.799
 2128POPC   GL129857  12.814  21.580   9.317
 2128POPC   GL229858  12.645  21.294   9.194
 2128POPC   C1A29859  12.732  21.681   8.848
 2128POPC   D2A29860  12.937  21.619   8.455
 2128POPC   C3A29861  12.707  21.537   8.057
 2128POPC   C4A29862  12.941  21.461   7.655
 2128POPC   C1B29863  12.717  21.182   8.725
 2128POPC   C2B29864  12.898  21.128   8.319
 2128POPC   C3B29865  12.834  21.029   7.897
 2128POPC   C4B29866  12.405  21.158   7.830
 2129POPC   NC329867  29.160   9.375   9.554
 2129POPC   PO429868  28.812  10.001   9.425
 2129POPC   GL129869  29.067   9.754   9.188
 2129POPC   GL229870  29.411   9.814   9.297
 2129POPC   C1A29871  29.004   9.621   8.772
 2129POPC   D2A29872  28.864   9.583   8.356
 2129POPC   C3A29873  29.078   9.714   7.972
 2129POPC   C4A29874  29.279  10.047   7.775
 2129POPC   C1B29875  29.512   9.710   8.861
 2129POPC   C2B29876  29.375   9.676   8.424
 2129POPC   C3B29877  29.421   9.369   8.120
 2129POPC   C4B29878  29.476   9.374   7.678
 2130POPC   NC329879  22.710  26.444   9.300
 2130POPC   PO429880  23.160  26.875   9.588
 2130POPC   GL129881  23.082  26.799   9.189
 2130POPC   GL229882  23.222  26.463   9.224
 2130POPC   C1A29883  22.865  26.886   8.773
 2130POPC   D2A29884  22.700  27.060   8.395
 2130POPC   C3A29885  22.968  26.983   8.025
 2130POPC   C4A29886  22.871  26.907   7.593
 2130POPC   C1B29887  23.257  26.562   8.785
 2130POPC   C2B29888  23.241  26.733   8.398
 2130POPC   C3B29889  23.218  26.548   8.009
 2130POPC   C4B29890  23.270  26.591   7.572
 2131POPC   NC329891  34.825  31.311   9.514
 2131POPC   PO429892  35.608  31.506   9.554
 2131POPC   GL129893  35.430  31.512   9.152
 2131POPC   GL229894  35.092  31.461   9.112
 2131POPC   C1A29895  35.456  31.438   8.711
 2131POPC   D2A29896  35.500  31.767   8.392
 2131POPC   C3A29897  35.401  31.627   7.968
 2131POPC   C4A29898  35.151  31.315   7.703
 2131POPC   C1B29899  34.998  31.659   8.721
 2131POPC   C2B29900  35.038  31.478   8.337
 2131POPC   C3B29901  34.899  31.666   7.994
 2131POPC   C4B29902  34.980  31.782   7.606
 2132POPC   NC329903   6.110  25.088   9.505
 2132POPC   PO429904   5.827  25.710   9.724
 2132POPC   GL129905   5.981  25.499   9.249
 2132POPC   GL229906   6.208  25.279   9.047
 2132POPC   C1A29907   5.782  25.383   8.782
 2132POPC   D2A29908   5.708  25.498   8.337
 2132POPC   C3A29909   5.593  25.229   8.016
 2132POPC   C4A29910   5.802  25.273   7.662
 2132POPC   C1B29911   6.271  25.446   8.626
 2132POPC   C2B29912   6.217  25.561   8.191
 2132POPC   C3B29913   6.293  25.416   7.762
 2132POPC   C4B29914   6.232  25.375   7.311
 2133POPC   NC329915  43.414  35.882   9.436
 2133POPC   PO429916  42.993  35.391   9.412
 2133POPC   GL129917  42.912  35.605   9.008
 2133POPC   GL229918  43.256  35.666   8.983
 2133POPC   C1A29919  42.949  35.558   8.548
 2133POPC   D2A29920  43.132  35.208   8.339
 2133POPC   C3A29921  42.979  34.976   7.962
 2133POPC   C4A29922  43.306  35.024   7.668
 2133POPC   C1B29923  43.467  35.705   8.588
 2133POPC   C2B29924  43.373  35.625   8.158
 2133POPC   C3B29925  43.003  35.499   7.921
 2133POPC   C4B29926  42.572  35.624   7.847
 2134POPC   NC329927  18.534   4.347   9.466
 2134POPC   PO429928  18.003   4.008   9.474
 2134POPC   GL129929  18.210   4.183   9.097
 2134POPC   GL229930  18.547   3.981   9.093
 2134POPC   C1A29931  18.126   4.504   8.737
 2134POPC   D2A29932  17.927   4.617   8.333
 2134POPC   C3A29933  18.161   4.535   7.941
 2134POPC   C4A29934  18.522   4.545   7.682
 2134POPC   C1B29935  18.520   4.194   8.683
 2134POPC   C2B29936  18.275   4.213   8.315
 2134POPC   C3B29937  18.374   4.054   7.894
 2134POPC   C4B29938  18.683   4.030   7.543
 2135POPC   NC329939  33.442  14.602   9.850
 2135POPC   PO429940  34.064  14.587   9.403
 2135POPC   GL129941  33.988  14.385   9.036
 2135POPC   GL229942  33.679  14.244   9.069
 2135POPC   C1A29943  33.796  14.616   8.719
 2135POPC   D2A29944  33.559  14.719   8.353
 2135POPC   C3A29945  33.759  14.546   8.017
 2135POPC   C4A29946  33.797  14.646   7.609
 2135POPC   C1B29947  33.650  14.035   8.740
 2135POPC   C2B29948  33.775  14.181   8.378
 2135POPC   C3B29949  33.617  14.021   8.023
 2135POPC   C4B29950  33.583  14.188   7.655
 2136POPC   NC329951  23.151  38.534   9.512
 2136POPC   PO429952  23.010  39.164   9.624
 2136POPC   GL129953  22.901  39.112   9.175
 2136POPC   GL229954  22.553  39.183   9.086
 2136POPC   C1A29955  22.933  39.179   8.710
 2136POPC   D2A29956  22.733  39.231   8.292
 2136POPC   C3A29957  23.025  39.438   8.009
 2136POPC   C4A29958  23.341  39.337   7.658
 2136POPC   C1B29959  22.561  38.839   8.770
 2136POPC   C2B29960  22.832  38.746   8.410
 2136POPC   C3B29961  22.623  38.688   8.009
 2136POPC   C4B29962  22.700  38.709   7.559
 2137POPC   NC329963   6.641   0.635   9.636
 2137POPC   PO429964   6.947   0.081   9.541
 2137POPC   GL129965   6.616   0.301   9.216
 2137POPC   GL229966   6.497   0.689   9.142
 2137POPC   C1A29967   6.578   0.382   8.754
 2137POPC   D2A29968   6.735   0.202   8.389
 2137POPC   C3A29969   6.656   0.344   7.968
 2137POPC   C4A29970   6.356   0.208   7.632
 2137POPC   C1B29971   6.366   0.836   8.674
 2137POPC   C2B29972   6.492   0.863   8.197
 2137POPC   C3B29973   6.352   0.722   7.765
 2137POPC   C4B29974   6.326   0.685   7.306
 2138POPC   NC329975   8.706   9.533   9.425
 2138POPC   PO429976   9.250  10.069   9.440
 2138POPC   GL129977   9.047   9.813   9.141
 2138POPC   GL229978   8.718   9.940   9.083
 2138POPC   C1A29979   9.099   9.814   8.703
 2138POPC   D2A29980   9.124  10.040   8.298
 2138POPC   C3A29981   9.352   9.832   7.958
 2138POPC   C4A29982   9.238   9.512   7.658
 2138POPC   C1B29983   8.606   9.594   8.766
 2138POPC   C2B29984   8.766   9.414   8.357
 2138POPC   C3B29985   8.869   9.703   8.003
 2138POPC   C4B29986   8.863   9.829   7.515
 2139POPC   NC329987   5.303   7.285   9.581
 2139POPC   PO429988   5.946   7.575   9.478
 2139POPC   GL129989   5.892   7.565   9.085
 2139POPC   GL229990   6.217   7.528   9.030
 2139POPC   C1A29991   5.701   7.469   8.726
 2139POPC   D2A29992   5.845   7.356   8.310
 2139POPC   C3A29993   5.602   7.343   7.953
 2139POPC   C4A29994   5.790   7.369   7.567
 2139POPC   C1B29995   6.227   7.368   8.655
 2139POPC   C2B29996   6.370   7.406   8.265
 2139POPC   C3B29997   6.160   7.709   8.072
 2139POPC   C4B29998   6.179   7.642   7.693
 2140POPC   NC329999   0.622  41.760   9.419
 2140POPC   PO430000   0.244  41.196   9.585
 2140POPC   GL130001   0.404  41.356   9.204
 2140POPC   GL230002   0.185  41.618   9.085
 2140POPC   C1A30003   0.612  41.442   8.802
 2140POPC   D2A30004   0.624  41.669   8.417
 2140POPC   C3A30005   0.626  41.392   8.070
 2140POPC   C4A30006   0.691  41.545   7.684
 2140POPC   C1B30007   0.249  41.947   8.764
 2140POPC   C2B30008   0.129  42.041   8.352
 2140POPC   C3B30009   0.319  41.840   7.993
 2140POPC   C4B30010   0.190  41.515   7.735
 2141POPC   NC330011  35.576  36.431   9.800
 2141POPC   PO430012  35.318  35.890   9.496
 2141POPC   GL130013  35.542  36.117   9.238
 2141POPC   GL230014  35.364  36.411   9.288
 2141POPC   C1A30015  35.526  36.009   8.807
 2141POPC   D2A30016  35.245  36.097   8.450
 2141POPC   C3A30017  35.340  35.944   8.033
 2141POPC   C4A30018  35.099  35.872   7.659
 2141POPC   C1B30019  35.368  36.513   8.863
 2141POPC   C2B30020  35.330  36.595   8.429
 2141POPC   C3B30021  35.142  36.492   8.062
 2141POPC   C4B30022  35.308  36.345   7.715
 2142POPC   NC330023  31.582  20.718   9.482
 2142POPC   PO430024  30.972  20.330   9.493
 2142POPC   GL130025  31.399  20.310   9.241
 2142POPC   GL230026  31.275  20.548   9.089
 2142POPC   C1A30027  31.656  20.470   8.808
 2142POPC   D2A30028  31.380  20.507   8.416
 2142POPC   C3A30029  31.493  20.540   7.968
 2142POPC   C4A30030  31.216  20.819   7.734
 2142POPC   C1B30031  31.276  20.145   8.781
 2142POPC   C2B30032  31.362  19.982   8.384
 2142POPC   C3B30033  31.159  20.099   7.975
 2142POPC   C4B30034  31.075  20.307   7.567
 2143POPC   NC330035  14.717  44.487   9.377
 2143POPC   PO430036  14.329  44.885   9.677
 2143POPC   GL130037  14.392  44.841   9.186
 2143POPC   GL230038  14.393   0.170   9.022
 2143POPC   C1A30039  14.678  44.768   8.799
 2143POPC   D2A30040  14.846  44.757   8.378
 2143POPC   C3A30041  14.686  44.431   8.111
 2143POPC   C4A30042  14.452  44.600   7.774
 2143POPC   C1B30043  14.218  44.930   8.665
 2143POPC   C2B30044  14.347  44.866   8.236
 2143POPC   C3B30045  14.092  44.948   7.868
 2143POPC   C4B30046  13.934  44.905   7.438
 2144POPC   NC330047   7.831  21.370   9.567
 2144POPC   PO430048   8.481  21.219   9.620
 2144POPC   GL130049   8.414  21.335   9.194
 2144POPC   GL230050   8.131  21.145   9.134
 2144POPC   C1A30051   8.248  21.604   8.842
 2144POPC   D2A30052   8.027  21.600   8.394
 2144POPC   C3A30053   8.257  21.721   8.052
 2144POPC   C4A30054   8.387  21.499   7.737
 2144POPC   C1B30055   8.374  21.144   8.689
 2144POPC   C2B30056   8.378  21.196   8.206
 2144POPC   C3B30057   8.278  21.015   7.799
 2144POPC   C4B30058   7.990  21.153   7.496
 2145POPC   NC330059   6.609   9.400   9.426
 2145POPC   PO430060   7.157   9.045   9.527
 2145POPC   GL130061   6.808   8.966   9.196
 2145POPC   GL230062   6.710   9.250   8.954
 2145POPC   C1A30063   6.563   8.793   8.790
 2145POPC   D2A30064   6.515   9.039   8.416
 2145POPC   C3A30065   6.411   8.864   7.998
 2145POPC   C4A30066   6.672   8.777   7.651
 2145POPC   C1B30067   7.013   9.005   8.732
 2145POPC   C2B30068   7.000   8.856   8.377
 2145POPC   C3B30069   6.894   9.085   8.019
 2145POPC   C4B30070   7.112   9.079   7.663
 2146POPC   NC330071  40.912  27.260   9.319
 2146POPC   PO430072  40.425  27.001   9.634
 2146POPC   GL130073  40.562  26.901   9.141
 2146POPC   GL230074  40.935  26.795   9.066
 2146POPC   C1A30075  40.610  26.646   8.730
 2146POPC   D2A30076  40.699  26.389   8.382
 2146POPC   C3A30077  40.760  26.593   7.992
 2146POPC   C4A30078  40.578  26.754   7.609
 2146POPC   C1B30079  41.005  27.048   8.703
 2146POPC   C2B30080  41.065  27.169   8.276
 2146POPC   C3B30081  41.034  27.000   7.878
 2146POPC   C4B30082  41.205  27.133   7.529
 2147POPC   NC330083   4.767  26.747   9.683
 2147POPC   PO430084   5.252  27.158   9.642
 2147POPC   GL130085   5.215  26.981   9.245
 2147POPC   GL230086   4.929  26.792   9.203
 2147POPC   C1A30087   5.240  27.074   8.814
 2147POPC   D2A30088   5.533  27.084   8.462
 2147POPC   C3A30089   5.319  27.182   8.062
 2147POPC   C4A30090   5.297  26.847   7.780
 2147POPC   C1B30091   4.863  26.726   8.771
 2147POPC   C2B30092   4.889  26.900   8.366
 2147POPC   C3B30093   4.871  26.666   7.999
 2147POPC   C4B30094   4.898  26.604   7.565
 2148POPC   NC330095  18.578  31.572   9.527
 2148POPC   PO430096  19.242  31.660   9.792
 2148POPC   GL130097  19.152  31.735   9.304
 2148POPC   GL230098  19.483  31.746   9.159
 2148POPC   C1A30099  19.059  31.755   8.814
 2148POPC   D2A30100  19.316  31.642   8.397
 2148POPC   C3A30101  19.172  31.625   7.942
 2148POPC   C4A30102  18.740  31.575   7.759
 2148POPC   C1B30103  19.452  31.413   8.845
 2148POPC   C2B30104  19.525  31.151   8.482
 2148POPC   C3B30105  19.486  31.235   8.047
 2148POPC   C4B30106  19.258  31.234   7.620
 2149POPC   NC330107  15.017  30.446   9.796
 2149POPC   PO430108  14.894  29.859   9.379
 2149POPC   GL130109  15.092  29.940   9.014
 2149POPC   GL230110  15.444  29.812   9.026
 2149POPC   C1A30111  15.107  29.749   8.632
 2149POPC   D2A30112  15.162  29.706   8.203
 2149POPC   C3A30113  15.137  29.941   7.851
 2149POPC   C4A30114  14.867  29.870   7.547
 2149POPC   C1B30115  15.564  29.514   8.668
 2149POPC   C2B30116  15.558  29.419   8.219
 2149POPC   C3B30117  15.455  29.515   7.802
 2149POPC   C4B30118  15.643  29.860   7.548
 2150POPC   NC330119  44.612  36.825   9.639
 2150POPC   PO430120  44.993  37.311   9.509
 2150POPC   GL130121  44.810  37.014   9.193
 2150POPC   GL230122  44.487  37.136   9.061
 2150POPC   C1A30123  44.726  36.694   8.846
 2150POPC   D2A30124  44.548  36.803   8.425
 2150POPC   C3A30125  44.755  36.751   8.021
 2150POPC   C4A30126  44.507  36.802   7.646
 2150POPC   C1B30127  44.777  37.168   8.701
 2150POPC   C2B30128  44.874  37.214   8.265
 2150POPC   C3B30129  44.657  37.230   7.899
 2150POPC   C4B30130  44.932  37.089   7.571
 2151POPC   NC330131  41.973  43.582   9.516
 2151POPC   PO430132  41.326  43.795   9.376
 2151POPC   GL130133  41.669  43.755   9.141
 2151POPC   GL230134  41.780  44.033   9.026
 2151POPC   C1A30135  41.686  43.681   8.704
 2151POPC   D2A30136  41.423  43.643   8.398
 2151POPC   C3A30137  41.565  43.748   8.025
 2151POPC   C4A30138  41.357  44.040   7.797
 2151POPC   C1B30139  41.797  44.231   8.652
 2151POPC   C2B30140  41.592  44.215   8.259
 2151POPC   C3B30141  41.824  44.250   7.867
 2151POPC   C4B30142  41.715  44.194   7.440
 2152POPC   NC330143   4.520  11.146   9.328
 2152POPC   PO430144   4.085  11.657   9.660
 2152POPC   GL130145   4.052  11.416   9.214
 2152POPC   GL230146   4.309  11.471   9.008
 2152POPC   C1A30147   3.910  11.508   8.725
 2152POPC   D2A30148   4.046  11.287   8.316
 2152POPC   C3A30149   4.158  11.345   7.879
 2152POPC   C4A30150   4.223  11.075   7.506
 2152POPC   C1B30151   4.442  11.382   8.648
 2152POPC   C2B30152   4.586  11.410   8.266
 2152POPC   C3B30153   4.662  11.489   7.866
 2152POPC   C4B30154   4.462  11.546   7.466
 2153POPC   NC330155  12.996  32.727   9.330
 2153POPC   PO430156  13.646  32.966   9.526
 2153POPC   GL130157  13.626  33.034   9.113
 2153POPC   GL230158  13.305  33.096   9.136
 2153POPC   C1A30159  13.636  33.193   8.708
 2153POPC   D2A30160  13.923  33.165   8.393
 2153POPC   C3A30161  13.825  32.948   8.049
 2153POPC   C4A30162  13.950  33.094   7.673
 2153POPC   C1B30163  13.202  32.881   8.752
 2153POPC   C2B30164  13.259  32.681   8.389
 2153POPC   C3B30165  13.287  32.950   8.069
 2153POPC   C4B30166  13.451  32.894   7.688
 2154POPC   NC330167  42.366  33.431   9.526
 2154POPC   PO430168  42.638  34.066   9.386
 2154POPC   GL130169  42.378  33.806   9.127
 2154POPC   GL230170  42.068  33.906   9.179
 2154POPC   C1A30171  42.361  33.550   8.755
 2154POPC   D2A30172  42.424  33.683   8.330
 2154POPC   C3A30173  42.235  33.559   7.957
 2154POPC   C4A30174  42.221  33.651   7.517
 2154POPC   C1B30175  41.913  33.760   8.790
 2154POPC   C2B30176  41.957  33.914   8.409
 2154POPC   C3B30177  41.918  33.954   8.027
 2154POPC   C4B30178  41.777  33.859   7.656
 2155POPC   NC330179  19.193  18.691   9.439
 2155POPC   PO430180  18.619  18.812   9.785
 2155POPC   GL130181  18.763  18.846   9.246
 2155POPC   GL230182  19.089  18.928   9.017
 2155POPC   C1A30183  18.666  18.785   8.776
 2155POPC   D2A30184  18.771  18.624   8.311
 2155POPC   C3A30185  18.967  18.912   7.985
 2155POPC   C4A30186  19.049  19.071   7.532
 2155POPC   C1B30187  19.445  19.213   8.873
 2155POPC   C2B30188  19.670  19.378   8.491
 2155POPC   C3B30189  19.498  19.354   8.096
 2155POPC   C4B30190  19.459  19.006   7.816
 2156POPC   NC330191  16.402   2.547   9.312
 2156POPC   PO430192  16.720   2.148   9.696
 2156POPC   GL130193  16.731   2.096   9.228
 2156POPC   GL230194  16.489   2.200   8.972
 2156POPC   C1A30195  16.716   1.776   8.872
 2156POPC   D2A30196  16.592   1.874   8.447
 2156POPC   C3A30197  16.842   1.868   8.071
 2156POPC   C4A30198  16.695   1.738   7.680
 2156POPC   C1B30199  16.937   2.254   8.811
 2156POPC   C2B30200  17.009   2.271   8.391
 2156POPC   C3B30201  16.764   2.408   8.047
 2156POPC   C4B30202  16.846   2.221   7.636
 2157POPC   NC330203  12.653  30.408   9.474
 2157POPC   PO430204  13.083  29.859   9.543
 2157POPC   GL130205  12.862  30.015   9.199
 2157POPC   GL230206  13.167  30.174   9.123
 2157POPC   C1A30207  12.809  30.130   8.761
 2157POPC   D2A30208  12.556  30.086   8.409
 2157POPC   C3A30209  12.755  30.010   8.029
 2157POPC   C4A30210  12.489  29.821   7.758
 2157POPC   C1B30211  13.130  29.744   8.854
 2157POPC   C2B30212  13.041  29.767   8.390
 2157POPC   C3B30213  13.231  29.810   7.962
 2157POPC   C4B30214  13.243  30.252   7.843
 2158POPC   NC330215  39.801  15.470   9.420
 2158POPC   PO430216  40.329  15.922   9.435
 2158POPC   GL130217  40.044  16.018   9.099
 2158POPC   GL230218  39.751  15.797   8.997
 2158POPC   C1A30219  40.188  15.950   8.692
 2158POPC   D2A30220  40.012  15.755   8.349
 2158POPC   C3A30221  40.192  15.943   7.996
 2158POPC   C4A30222  40.562  16.122   7.892
 2158POPC   C1B30223  39.727  16.173   8.701
 2158POPC   C2B30224  39.793  16.217   8.240
 2158POPC   C3B30225  39.697  15.906   7.888
 2158POPC   C4B30226  39.970  15.863   7.542
 2159POPC   NC330227  33.005  15.419   9.473
 2159POPC   PO430228  33.219  14.840   9.513
 2159POPC   GL130229  33.263  15.117   9.128
 2159POPC   GL230230  32.928  15.004   9.050
 2159POPC   C1A30231  33.087  15.386   8.734
 2159POPC   D2A30232  32.720  15.360   8.398
 2159POPC   C3A30233  32.825  15.461   7.947
 2159POPC   C4A30234  33.268  15.475   7.855
 2159POPC   C1B30235  33.152  14.892   8.660
 2159POPC   C2B30236  33.060  14.636   8.305
 2159POPC   C3B30237  33.084  14.684   7.876
 2159POPC   C4B30238  33.030  15.057   7.679
 2160POPC   NC330239  22.671  11.147   9.816
 2160POPC   PO430240  23.108  11.511   9.552
 2160POPC   GL130241  22.939  11.257   9.233
 2160POPC   GL230242  23.257  11.146   9.133
 2160POPC   C1A30243  22.918  11.301   8.755
 2160POPC   D2A30244  23.143  11.489   8.404
 2160POPC   C3A30245  22.983  11.632   7.987
 2160POPC   C4A30246  23.027  11.564   7.548
 2160POPC   C1B30247  23.369  11.020   8.738
 2160POPC   C2B30248  23.168  10.960   8.374
 2160POPC   C3B30249  22.932  11.113   8.015
 2160POPC   C4B30250  23.011  10.963   7.607
 2161POPC   NC330251  43.832  37.433   9.489
 2161POPC   PO430252  44.154  36.841   9.603
 2161POPC   GL130253  44.005  36.912   9.203
 2161POPC   GL230254  43.661  36.920   9.114
 2161POPC   C1A30255  44.079  36.825   8.774
 2161POPC   D2A30256  44.042  37.091   8.418
 2161POPC   C3A30257  44.206  36.970   8.042
 2161POPC   C4A30258  44.068  37.141   7.676
 2161POPC   C1B30259  43.589  37.050   8.683
 2161POPC   C2B30260  43.531  36.877   8.251
 2161POPC   C3B30261  43.712  36.787   7.844
 2161POPC   C4B30262  43.696  36.952   7.417
 2162POPC   NC330263  25.645   5.455   9.516
 2162POPC   PO430264  26.239   5.002   9.654
 2162POPC   GL130265  26.045   5.218   9.311
 2162POPC   GL230266  26.013   4.941   9.148
 2162POPC   C1A30267  26.015   5.354   8.865
 2162POPC   D2A30268  26.155   5.137   8.492
 2162POPC   C3A30269  26.076   5.297   8.101
 2162POPC   C4A30270  25.939   5.299   7.696
 2162POPC   C1B30271  25.819   4.863   8.752
 2162POPC   C2B30272  25.678   5.037   8.293
 2162POPC   C3B30273  25.509   5.086   7.858
 2162POPC   C4B30274  25.637   5.110   7.346
 2163POPC   NC330275  15.304  25.567   9.417
 2163POPC   PO430276  14.658  25.209   9.389
 2163POPC   GL130277  14.996  25.287   9.130
 2163POPC   GL230278  14.901  25.648   9.074
 2163POPC   C1A30279  15.227  25.080   8.774
 2163POPC   D2A30280  15.520  25.032   8.420
 2163POPC   C3A30281  15.300  25.024   8.030
 2163POPC   C4A30282  15.456  25.228   7.637
 2163POPC   C1B30283  15.208  25.600   8.769
 2163POPC   C2B30284  15.164  25.402   8.381
 2163POPC   C3B30285  15.164  25.508   7.979
 2163POPC   C4B30286  15.005  25.498   7.594
 2164POPC   NC330287  19.553  44.930   9.303
 2164POPC   PO430288  19.869  44.454   9.600
 2164POPC   GL130289  20.000  44.670   9.161
 2164POPC   GL230290  19.988  44.989   8.941
 2164POPC   C1A30291  20.207  44.575   8.765
 2164POPC   D2A30292  20.018  44.521   8.350
 2164POPC   C3A30293  20.135  44.690   7.950
 2164POPC   C4A30294  19.876  44.496   7.620
 2164POPC   C1B30295  19.685  44.736   8.680
 2164POPC   C2B30296  19.543  44.763   8.222
 2164POPC   C3B30297  19.595  44.885   7.784
 2164POPC   C4B30298  19.585   0.039   7.341
 2165POPC   NC330299  32.062  38.226   9.492
 2165POPC   PO430300  32.032  38.884   9.483
 2165POPC   GL130301  32.143  38.603   9.129
 2165POPC   GL230302  32.304  38.233   9.058
 2165POPC   C1A30303  32.356  38.661   8.758
 2165POPC   D2A30304  32.369  38.557   8.335
 2165POPC   C3A30305  32.103  38.759   8.023
 2165POPC   C4A30306  32.241  38.650   7.647
 2165POPC   C1B30307  31.955  38.244   8.778
 2165POPC   C2B30308  31.872  38.412   8.386
 2165POPC   C3B30309  32.068  38.237   8.032
 2165POPC   C4B30310  31.921  38.242   7.646
 2166POPC   NC330311  24.751   1.776   9.364
 2166POPC   PO430312  24.388   2.382   9.519
 2166POPC   GL130313  24.229   2.235   9.097
 2166POPC   GL230314  24.476   1.999   8.984
 2166POPC   C1A30315  24.461   2.381   8.671
 2166POPC   D2A30316  24.705   2.263   8.292
 2166POPC   C3A30317  24.420   2.085   8.007
 2166POPC   C4A30318  24.231   1.923   7.632
 2166POPC   C1B30319  24.619   1.697   8.674
 2166POPC   C2B30320  24.476   1.629   8.256
 2166POPC   C3B30321  24.615   1.639   7.842
 2166POPC   C4B30322  24.674   1.775   7.406
 2167POPC   NC330323  31.956  35.911   9.837
 2167POPC   PO430324  31.356  36.011   9.508
 2167POPC   GL130325  31.409  36.153   9.090
 2167POPC   GL230326  31.750  36.056   9.064
 2167POPC   C1A30327  31.573  36.031   8.612
 2167POPC   D2A30328  31.300  36.002   8.246
 2167POPC   C3A30329  31.455  35.908   7.864
 2167POPC   C4A30330  31.192  36.197   7.679
 2167POPC   C1B30331  32.039  36.309   8.789
 2167POPC   C2B30332  31.873  36.432   8.401
 2167POPC   C3B30333  31.621  36.372   8.070
 2167POPC   C4B30334  31.710  36.331   7.642
 2168POPC   NC330335  40.344  21.109   9.492
 2168POPC   PO430336  40.846  21.578   9.524
 2168POPC   GL130337  40.728  21.349   9.204
 2168POPC   GL230338  40.457  21.525   9.170
 2168POPC   C1A30339  40.752  21.264   8.777
 2168POPC   D2A30340  40.752  21.483   8.400
 2168POPC   C3A30341  40.748  21.317   8.023
 2168POPC   C4A30342  40.812  21.370   7.601
 2168POPC   C1B30343  40.455  21.738   8.772
 2168POPC   C2B30344  40.273  21.691   8.352
 2168POPC   C3B30345  40.468  21.755   7.955
 2168POPC   C4B30346  40.396  21.918   7.539
 2169POPC   NC330347  29.716  18.454   9.516
 2169POPC   PO430348  30.318  18.044   9.481
 2169POPC   GL130349  30.071  18.291   9.186
 2169POPC   GL230350  29.747  18.117   9.092
 2169POPC   C1A30351  30.004  18.428   8.759
 2169POPC   D2A30352  29.805  18.494   8.346
 2169POPC   C3A30353  30.010  18.349   7.986
 2169POPC   C4A30354  30.345  18.465   7.721
 2169POPC   C1B30355  29.645  17.956   8.654
 2169POPC   C2B30356  29.631  17.983   8.172
 2169POPC   C3B30357  29.714  18.040   7.706
 2169POPC   C4B30358  29.630  17.954   7.233
 2170POPC   NC330359  13.008  36.551   9.503
 2170POPC   PO430360  12.748  37.136   9.773
 2170POPC   GL130361  12.825  37.061   9.311
 2170POPC   GL230362  12.486  37.048   9.261
 2170POPC   C1A30363  12.980  36.902   8.886
 2170POPC   D2A30364  12.957  37.072   8.479
 2170POPC   C3A30365  12.978  36.898   8.099
 2170POPC   C4A30366  12.863  37.106   7.757
 2170POPC   C1B30367  12.528  37.189   8.854
 2170POPC   C2B30368  12.470  36.941   8.504
 2170POPC   C3B30369  12.495  37.162   8.154
 2170POPC   C4B30370  12.355  37.168   7.774
 2171POPC   NC330371  22.626  31.975   9.578
 2171POPC   PO430372  23.240  32.123   9.495
 2171POPC   GL130373  23.044  32.194   9.109
 2171POPC   GL230374  22.725  32.327   9.201
 2171POPC   C1A30375  22.960  32.505   8.761
 2171POPC   D2A30376  22.648  32.537   8.436
 2171POPC   C3A30377  22.880  32.421   8.077
 2171POPC   C4A30378  23.098  32.206   7.782
 2171POPC   C1B30379  22.621  32.140   8.813
 2171POPC   C2B30380  22.740  32.026   8.400
 2171POPC   C3B30381  22.547  32.040   7.999
 2171POPC   C4B30382  22.637  32.311   7.625
 2172POPC   NC330383  44.417  29.669   9.447
 2172POPC   PO430384   0.040  29.800   9.200
 2172POPC   GL130385  44.674  29.851   9.042
 2172POPC   GL230386  44.540  30.142   9.169
 2172POPC   C1A30387  44.624  29.636   8.683
 2172POPC   D2A30388  44.978  29.728   8.426
 2172POPC   C3A30389  44.888  29.688   8.027
 2172POPC   C4A30390  44.788  29.938   7.722
 2172POPC   C1B30391  44.320  30.071   8.752
 2172POPC   C2B30392  44.507  29.979   8.338
 2172POPC   C3B30393  44.369  29.780   7.985
 2172POPC   C4B30394  44.322  30.084   7.670
 2173POPC   NC330395  10.753  34.383   9.264
 2173POPC   PO430396  11.249  34.573   9.563
 2173POPC   GL130397  11.289  34.372   9.154
 2173POPC   GL230398  11.635  34.315   9.057
 2173POPC   C1A30399  11.253  34.430   8.685
 2173POPC   D2A30400  11.466  34.464   8.268
 2173POPC   C3A30401  11.198  34.639   7.944
 2173POPC   C4A30402  11.117  34.931   7.619
 2173POPC   C1B30403  11.690  34.705   8.748
 2173POPC   C2B30404  11.868  34.807   8.318
 2173POPC   C3B30405  11.700  34.801   7.892
 2173POPC   C4B30406  11.565  34.457   7.646
 2174POPC   NC330407  28.514  15.000   9.928
 2174POPC   PO430408  28.367  14.552   9.556
 2174POPC   GL130409  28.370  14.397   9.082
 2174POPC   GL230410  28.553  14.091   9.031
 2174POPC   C1A30411  28.448  14.423   8.602
 2174POPC   D2A30412  28.408  14.759   8.275
 2174POPC   C3A30413  28.235  14.649   7.901
 2174POPC   C4A30414  28.494  14.495   7.573
 2174POPC   C1B30415  28.214  13.991   8.734
 2174POPC   C2B30416  28.225  13.990   8.280
 2174POPC   C3B30417  28.518  13.794   7.969
 2174POPC   C4B30418  28.486  13.845   7.520
 2175POPC   NC330419   7.859  43.433   9.447
 2175POPC   PO430420   7.701  44.065   9.631
 2175POPC   GL130421   7.810  43.958   9.238
 2175POPC   GL230422   8.115  44.053   9.230
 2175POPC   C1A30423   7.901  43.820   8.808
 2175POPC   D2A30424   7.815  43.983   8.365
 2175POPC   C3A30425   8.130  43.872   8.037
 2175POPC   C4A30426   8.044  43.731   7.605
 2175POPC   C1B30427   8.308  44.176   8.824
 2175POPC   C2B30428   8.373  43.991   8.463
 2175POPC   C3B30429   8.665  43.902   8.130
 2175POPC   C4B30430   8.556  43.853   7.709
 2176POPC   NC330431  35.799  39.551   9.482
 2176POPC   PO430432  36.003  38.903   9.232
 2176POPC   GL130433  36.179  39.281   9.135
 2176POPC   GL230434  36.499  39.398   9.013
 2176POPC   C1A30435  36.169  39.224   8.678
 2176POPC   D2A30436  36.186  38.862   8.413
 2176POPC   C3A30437  36.094  39.028   8.024
 2176POPC   C4A30438  36.301  38.918   7.679
 2176POPC   C1B30439  36.432  39.655   8.655
 2176POPC   C2B30440  36.311  39.536   8.229
 2176POPC   C3B30441  36.378  39.410   7.786
 2176POPC   C4B30442  36.503  39.394   7.360
 2177POPC   NC330443  24.072   5.391   9.558
 2177POPC   PO430444  24.597   4.957   9.496
 2177POPC   GL130445  24.657   5.172   9.114
 2177POPC   GL230446  25.024   5.217   9.103
 2177POPC   C1A30447  24.399   5.140   8.770
 2177POPC   D2A30448  24.236   4.782   8.574
 2177POPC   C3A30449  24.161   4.839   8.160
 2177POPC   C4A30450  24.264   4.873   7.729
 2177POPC   C1B30451  24.922   5.166   8.685
 2177POPC   C2B30452  24.683   5.249   8.332
 2177POPC   C3B30453  24.488   5.266   7.961
 2177POPC   C4B30454  24.627   5.191   7.555
 2178POPC   NC330455  13.437  42.748   9.415
 2178POPC   PO430456  13.114  43.294   9.541
 2178POPC   GL130457  13.383  43.235   9.191
 2178POPC   GL230458  13.440  43.605   9.181
 2178POPC   C1A30459  13.494  43.017   8.764
 2178POPC   D2A30460  13.475  42.873   8.283
 2178POPC   C3A30461  13.681  42.957   7.875
 2178POPC   C4A30462  13.564  42.959   7.434
 2178POPC   C1B30463  13.597  43.531   8.787
 2178POPC   C2B30464  13.758  43.335   8.433
 2178POPC   C3B30465  13.612  43.428   8.047
 2178POPC   C4B30466  13.386  43.362   7.667
 2179POPC   NC330467  13.133  23.474   9.394
 2179POPC   PO430468  13.637  23.911   9.464
 2179POPC   GL130469  13.529  23.666   9.133
 2179POPC   GL230470  13.238  23.873   9.077
 2179POPC   C1A30471  13.692  23.431   8.807
 2179POPC   D2A30472  13.741  23.329   8.357
 2179POPC   C3A30473  13.846  23.684   8.149
 2179POPC   C4A30474  13.822  23.800   7.765
 2179POPC   C1B30475  13.397  23.910   8.666
 2179POPC   C2B30476  13.403  23.936   8.232
 2179POPC   C3B30477  13.312  23.867   7.810
 2179POPC   C4B30478  13.526  24.174   7.610
 2180POPC   NC330479  18.957  42.461   9.418
 2180POPC   PO430480  19.518  42.227   9.277
 2180POPC   GL130481  19.296  42.624   9.038
 2180POPC   GL230482  18.926  42.802   9.036
 2180POPC   C1A30483  19.330  42.581   8.581
 2180POPC   D2A30484  19.127  42.352   8.236
 2180POPC   C3A30485  19.209  42.401   7.794
 2180POPC   C4A30486  18.985  42.637   7.505
 2180POPC   C1B30487  18.843  42.499   8.735
 2180POPC   C2B30488  18.627  42.499   8.350
 2180POPC   C3B30489  18.691  42.424   7.914
 2180POPC   C4B30490  18.832  41.994   7.762
 2181POPC   NC330491  16.827  12.371   9.505
 2181POPC   PO430492  16.439  11.905   9.696
 2181POPC   GL130493  16.590  11.955   9.263
 2181POPC   GL230494  16.596  12.288   9.060
 2181POPC   C1A30495  16.745  11.817   8.864
 2181POPC   D2A30496  17.009  11.898   8.517
 2181POPC   C3A30497  16.867  11.898   8.099
 2181POPC   C4A30498  16.747  11.895   7.648
 2181POPC   C1B30499  16.966  12.335   8.768
 2181POPC   C2B30500  17.029  12.390   8.299
 2181POPC   C3B30501  17.015  12.315   7.832
 2181POPC   C4B30502  16.887  12.317   7.367
 2182POPC   NC330503  30.895  22.153   9.757
 2182POPC   PO430504  31.516  22.057   9.425
 2182POPC   GL130505  31.517  22.101   9.005
 2182POPC   GL230506  31.802  22.297   8.927
 2182POPC   C1A30507  31.275  21.900   8.624
 2182POPC   D2A30508  31.433  21.964   8.202
 2182POPC   C3A30509  31.294  22.028   7.791
 2182POPC   C4A30510  31.204  22.272   7.416
 2182POPC   C1B30511  31.484  22.365   8.583
 2182POPC   C2B30512  31.509  22.470   8.166
 2182POPC   C3B30513  31.592  22.440   7.744
 2182POPC   C4B30514  31.732  22.813   7.525
 2183POPC   NC330515   7.843  27.730   9.490
 2183POPC   PO430516   8.419  27.279   9.461
 2183POPC   GL130517   8.096  27.454   9.107
 2183POPC   GL230518   7.856  27.795   8.997
 2183POPC   C1A30519   8.153  27.550   8.660
 2183POPC   D2A30520   8.416  27.773   8.362
 2183POPC   C3A30521   8.385  27.635   7.945
 2183POPC   C4A30522   8.279  27.452   7.552
 2183POPC   C1B30523   7.716  27.831   8.566
 2183POPC   C2B30524   7.922  27.759   8.164
 2183POPC   C3B30525   7.856  27.701   7.708
 2183POPC   C4B30526   8.058  27.851   7.320
 2184POPC   NC330527  17.144  17.258   9.507
 2184POPC   PO430528  17.640  17.678   9.438
 2184POPC   GL130529  17.476  17.453   9.095
 2184POPC   GL230530  17.254  17.178   9.014
 2184POPC   C1A30531  17.434  17.559   8.677
 2184POPC   D2A30532  17.485  17.397   8.264
 2184POPC   C3A30533  17.434  17.603   7.897
 2184POPC   C4A30534  17.674  17.571   7.574
 2184POPC   C1B30535  17.644  17.096   8.745
 2184POPC   C2B30536  17.819  17.005   8.320
 2184POPC   C3B30537  17.627  17.077   7.882
 2184POPC   C4B30538  17.628  16.991   7.414
 2185POPC   NC330539  24.761  29.092   9.528
 2185POPC   PO430540  24.089  28.994   9.400
 2185POPC   GL130541  24.460  28.957   9.139
 2185POPC   GL230542  24.531  29.320   9.132
 2185POPC   C1A30543  24.627  28.959   8.734
 2185POPC   D2A30544  24.341  29.013   8.410
 2185POPC   C3A30545  24.477  29.048   7.984
 2185POPC   C4A30546  24.328  29.213   7.596
 2185POPC   C1B30547  24.377  29.413   8.732
 2185POPC   C2B30548  24.585  29.442   8.318
 2185POPC   C3B30549  24.759  29.480   7.893
 2185POPC   C4B30550  24.598  29.624   7.477
 2186POPC   NC330551  32.241  32.406   9.552
 2186POPC   PO430552  31.950  31.839   9.476
 2186POPC   GL130553  32.175  32.113   9.135
 2186POPC   GL230554  32.468  32.348   9.109
 2186POPC   C1A30555  32.035  32.232   8.748
 2186POPC   D2A30556  32.036  32.041   8.328
 2186POPC   C3A30557  31.992  32.248   7.991
 2186POPC   C4A30558  32.261  32.308   7.684
 2186POPC   C1B30559  32.332  32.655   8.800
 2186POPC   C2B30560  32.226  32.535   8.378
 2186POPC   C3B30561  32.473  32.603   8.037
 2186POPC   C4B30562  32.801  32.524   7.756
 2187POPC   NC330563  27.248  42.605   9.530
 2187POPC   PO430564  26.551  42.471   9.546
 2187POPC   GL130565  26.822  42.586   9.224
 2187POPC   GL230566  26.713  42.265   9.087
 2187POPC   C1A30567  27.018  42.610   8.836
 2187POPC   D2A30568  26.979  42.309   8.483
 2187POPC   C3A30569  27.110  42.480   8.079
 2187POPC   C4A30570  27.011  42.426   7.673
 2187POPC   C1B30571  26.502  42.492   8.767
 2187POPC   C2B30572  26.489  42.501   8.344
 2187POPC   C3B30573  26.663  42.264   8.060
 2187POPC   C4B30574  26.610  42.111   7.687
 2188POPC   NC330575  32.890  34.661   9.679
 2188POPC   PO430576  32.665  35.078   9.281
 2188POPC   GL130577  32.982  34.784   9.171
 2188POPC   GL230578  32.957  34.416   9.209
 2188POPC   C1A30579  33.217  34.857   8.768
 2188POPC   D2A30580  32.972  34.933   8.393
 2188POPC   C3A30581  33.000  34.652   8.043
 2188POPC   C4A30582  32.944  34.572   7.615
 2188POPC   C1B30583  32.850  34.524   8.755
 2188POPC   C2B30584  32.775  34.323   8.362
 2188POPC   C3B30585  32.569  34.397   7.952
 2188POPC   C4B30586  32.553  34.252   7.551
 2189POPC   NC330587   6.273   5.424   9.504
 2189POPC   PO430588   5.621   5.344   9.574
 2189POPC   GL130589   5.814   5.296   9.139
 2189POPC   GL230590   5.954   5.611   9.058
 2189POPC   C1A30591   5.883   4.923   8.824
 2189POPC   D2A30592   5.685   4.784   8.432
 2189POPC   C3A30593   5.943   4.752   8.057
 2189POPC   C4A30594   5.771   4.925   7.689
 2189POPC   C1B30595   5.967   5.383   8.648
 2189POPC   C2B30596   5.914   5.240   8.211
 2189POPC   C3B30597   5.682   5.405   7.844
 2189POPC   C4B30598   5.630   5.327   7.386
 2190POPC   NC330599   3.830  42.238   9.453
 2190POPC   PO430600   3.199  42.454   9.581
 2190POPC   GL130601   3.389  42.268   9.206
 2190POPC   GL230602   3.499  42.584   9.111
 2190POPC   C1A30603   3.622  42.201   8.788
 2190POPC   D2A30604   3.517  42.093   8.351
 2190POPC   C3A30605   3.603  42.314   7.956
 2190POPC   C4A30606   3.326  42.123   7.603
 2190POPC   C1B30607   3.721  42.718   8.775
 2190POPC   C2B30608   3.865  42.591   8.371
 2190POPC   C3B30609   3.831  42.786   7.965
 2190POPC   C4B30610   3.781  42.690   7.529
 2191POPC   NC330611  27.680  41.777   9.341
 2191POPC   PO430612  28.019  41.118   9.151
 2191POPC   GL130613  27.882  41.487   8.980
 2191POPC   GL230614  27.577  41.343   9.020
 2191POPC   C1A30615  27.679  41.571   8.575
 2191POPC   D2A30616  27.646  41.216   8.277
 2191POPC   C3A30617  27.729  41.381   7.887
 2191POPC   C4A30618  27.579  41.803   7.755
 2191POPC   C1B30619  27.310  41.197   8.696
 2191POPC   C2B30620  27.166  41.415   8.314
 2191POPC   C3B30621  27.185  41.454   7.857
 2191POPC   C4B30622  27.405  41.249   7.521
 2192POPC   NC330623  26.131  20.790   9.757
 2192POPC   PO430624  25.837  20.260   9.466
 2192POPC   GL130625  26.058  20.507   9.123
 2192POPC   GL230626  26.196  20.837   9.230
 2192POPC   C1A30627  26.102  20.457   8.662
 2192POPC   D2A30628  25.810  20.591   8.323
 2192POPC   C3A30629  25.920  20.578   7.878
 2192POPC   C4A30630  26.191  20.490   7.520
 2192POPC   C1B30631  26.203  20.954   8.793
 2192POPC   C2B30632  26.379  20.792   8.371
 2192POPC   C3B30633  26.422  20.732   7.916
 2192POPC   C4B30634  26.185  20.983   7.596
 2193POPC   NC330635  33.677  15.552   9.637
 2193POPC   PO430636  33.770  14.928   9.698
 2193POPC   GL130637  33.795  15.021   9.195
 2193POPC   GL230638  33.858  15.335   9.155
 2193POPC   C1A30639  33.618  15.105   8.733
 2193POPC   D2A30640  33.634  15.237   8.258
 2193POPC   C3A30641  33.509  14.987   7.867
 2193POPC   C4A30642  33.443  14.933   7.373
 2193POPC   C1B30643  34.030  15.649   8.833
 2193POPC   C2B30644  34.099  15.588   8.371
 2193POPC   C3B30645  34.235  15.534   7.924
 2193POPC   C4B30646  34.231  15.328   7.498
 2194POPC   NC330647  31.055   2.384   9.195
 2194POPC   PO430648  31.624   2.742   9.556
 2194POPC   GL130649  31.640   2.964   9.179
 2194POPC   GL230650  31.305   3.057   9.187
 2194POPC   C1A30651  31.756   2.792   8.784
 2194POPC   D2A30652  31.824   2.601   8.386
 2194POPC   C3A30653  31.708   2.810   8.066
 2194POPC   C4A30654  31.582   2.823   7.688
 2194POPC   C1B30655  31.264   2.938   8.756
 2194POPC   C2B30656  31.284   2.756   8.368
 2194POPC   C3B30657  31.168   2.884   7.970
 2194POPC   C4B30658  31.081   2.629   7.597
 2195POPC   NC330659   0.182  28.313   9.481
 2195POPC   PO430660   0.857  28.378   9.505
 2195POPC   GL130661   0.609  28.248   9.103
 2195POPC   GL230662   0.324  28.043   9.032
 2195POPC   C1A30663   0.615  28.247   8.646
 2195POPC   D2A30664   0.639  28.618   8.397
 2195POPC   C3A30665   0.632  28.603   7.947
 2195POPC   C4A30666   0.646  28.300   7.585
 2195POPC   C1B30667   0.124  28.344   8.758
 2195POPC   C2B30668   0.151  28.471   8.340
 2195POPC   C3B30669   0.168  28.342   7.907
 2195POPC   C4B30670   0.171  28.355   7.459
 2196POPC   NC330671  36.849  31.716   9.231
 2196POPC   PO430672  36.530  31.340   9.755
 2196POPC   GL130673  36.829  31.228   9.323
 2196POPC   GL230674  36.642  31.239   9.007
 2196POPC   C1A30675  37.136  31.257   8.874
 2196POPC   D2A30676  37.223  31.532   8.456
 2196POPC   C3A30677  37.158  31.454   8.011
 2196POPC   C4A30678  36.854  31.251   7.770
 2196POPC   C1B30679  36.710  31.445   8.588
 2196POPC   C2B30680  36.661  31.578   8.133
 2196POPC   C3B30681  36.696  31.821   7.727
 2196POPC   C4B30682  36.513  31.813   7.316
 2197POPC   NC330683  24.847   3.856   9.569
 2197POPC   PO430684  25.442   3.480   9.260
 2197POPC   GL130685  25.374   3.704   8.953
 2197POPC   GL230686  25.087   3.837   9.130
 2197POPC   C1A30687  25.388   3.601   8.534
 2197POPC   D2A30688  25.428   3.246   8.264
 2197POPC   C3A30689  25.515   3.428   7.880
 2197POPC   C4A30690  25.599   3.485   7.463
 2197POPC   C1B30691  24.915   3.795   8.749
 2197POPC   C2B30692  25.020   3.894   8.321
 2197POPC   C3B30693  25.022   3.530   8.064
 2197POPC   C4B30694  25.069   3.467   7.625
 2198POPC   NC330695   9.225   3.013   9.505
 2198POPC   PO430696   8.589   2.771   9.533
 2198POPC   GL130697   8.692   2.619   9.124
 2198POPC   GL230698   9.055   2.736   9.066
 2198POPC   C1A30699   8.638   2.796   8.707
 2198POPC   D2A30700   8.769   3.133   8.435
 2198POPC   C3A30701   8.885   2.903   8.059
 2198POPC   C4A30702   8.577   2.742   7.794
 2198POPC   C1B30703   9.255   2.997   8.730
 2198POPC   C2B30704   9.276   3.159   8.301
 2198POPC   C3B30705   9.384   2.912   7.900
 2198POPC   C4B30706   9.255   2.544   7.637
 2199POPC   NC330707  10.149  13.537   9.833
 2199POPC   PO430708   9.517  13.684   9.547
 2199POPC   GL130709   9.607  13.540   9.136
 2199POPC   GL230710   9.651  13.889   8.989
 2199POPC   C1A30711   9.756  13.483   8.714
 2199POPC   D2A30712   9.668  13.728   8.370
 2199POPC   C3A30713   9.666  13.407   8.091
 2199POPC   C4A30714   9.719  13.396   7.643
 2199POPC   C1B30715  10.052  13.890   8.707
 2199POPC   C2B30716  10.181  13.768   8.316
 2199POPC   C3B30717  10.096  13.627   7.898
 2199POPC   C4B30718   9.890  13.853   7.567
 2200POPC   NC330719  33.530   0.544   9.692
 2200POPC   PO430720  34.167   0.700   9.618
 2200POPC   GL130721  33.865   0.599   9.292
 2200POPC   GL230722  33.966   0.298   9.171
 2200POPC   C1A30723  33.888   0.679   8.850
 2200POPC   D2A30724  33.934   0.542   8.464
 2200POPC   C3A30725  33.727   0.577   8.117
 2200POPC   C4A30726  33.980   0.629   7.744
 2200POPC   C1B30727  33.859   0.144   8.769
 2200POPC   C2B30728  33.586   0.139   8.418
 2200POPC   C3B30729  33.632   0.046   7.991
 2200POPC   C4B30730  33.814   0.177   7.622
 2201POPC   NC330731  36.047  36.849   9.669
 2201POPC   PO430732  36.522  37.324   9.629
 2201POPC   GL130733  36.479  37.034   9.209
 2201POPC   GL230734  36.087  36.987   9.162
 2201POPC   C1A30735  36.396  36.815   8.799
 2201POPC   D2A30736  36.063  36.749   8.456
 2201POPC   C3A30737  36.155  36.776   8.040
 2201POPC   C4A30738  36.367  37.138   7.905
 2201POPC   C1B30739  36.064  37.195   8.729
 2201POPC   C2B30740  35.890  37.227   8.305
 2201POPC   C3B30741  35.835  37.159   7.847
 2201POPC   C4B30742  35.710  37.207   7.410
 2202POPC   NC330743  18.887  26.565   9.589
 2202POPC   PO430744  19.432  26.967   9.521
 2202POPC   GL130745  19.255  26.932   9.120
 2202POPC   GL230746  19.169  26.594   9.142
 2202POPC   C1A30747  19.158  26.935   8.670
 2202POPC   D2A30748  18.878  26.754   8.361
 2202POPC   C3A30749  18.862  26.977   7.943
 2202POPC   C4A30750  18.745  27.137   7.523
 2202POPC   C1B30751  19.016  26.415   8.760
 2202POPC   C2B30752  18.974  26.234   8.363
 2202POPC   C3B30753  18.962  26.458   7.958
 2202POPC   C4B30754  18.972  26.650   7.556
 2203POPC   NC330755  12.388   4.944   9.553
 2203POPC   PO430756  11.929   5.332   9.258
 2203POPC   GL130757  11.903   4.926   9.120
 2203POPC   GL230758  12.234   4.899   9.072
 2203POPC   C1A30759  11.772   4.909   8.700
 2203POPC   D2A30760  11.898   5.145   8.343
 2203POPC   C3A30761  11.789   4.903   8.024
 2203POPC   C4A30762  11.554   4.972   7.680
 2203POPC   C1B30763  12.286   5.139   8.707
 2203POPC   C2B30764  12.409   5.269   8.308
 2203POPC   C3B30765  12.291   5.035   7.968
 2203POPC   C4B30766  12.061   5.020   7.616
 2204POPC   NC330767   3.715   2.333   9.540
 2204POPC   PO430768   3.390   2.974   9.443
 2204POPC   GL130769   3.335   2.797   9.049
 2204POPC   GL230770   3.426   2.440   9.117
 2204POPC   C1A30771   3.509   2.944   8.664
 2204POPC   D2A30772   3.870   2.763   8.479
 2204POPC   C3A30773   3.861   2.853   8.097
 2204POPC   C4A30774   3.832   2.968   7.725
 2204POPC   C1B30775   3.553   2.432   8.707
 2204POPC   C2B30776   3.379   2.572   8.318
 2204POPC   C3B30777   3.461   2.617   7.900
 2204POPC   C4B30778   3.481   2.453   7.524
 2205POPC   NC330779  33.184   2.893   9.397
 2205POPC   PO430780  33.321   2.329   9.275
 2205POPC   GL130781  33.025   2.580   9.027
 2205POPC   GL230782  32.824   2.927   9.038
 2205POPC   C1A30783  32.802   2.579   8.671
 2205POPC   D2A30784  32.645   2.728   8.282
 2205POPC   C3A30785  32.805   2.547   7.881
 2205POPC   C4A30786  32.695   2.495   7.440
 2205POPC   C1B30787  32.954   3.077   8.634
 2205POPC   C2B30788  33.171   2.835   8.337
 2205POPC   C3B30789  33.268   2.780   7.921
 2205POPC   C4B30790  33.119   2.774   7.495
 2206POPC   NC330791  39.201  32.638   9.461
 2206POPC   PO430792  39.107  33.309   9.623
 2206POPC   GL130793  39.138  33.097   9.239
 2206POPC   GL230794  39.457  33.213   9.210
 2206POPC   C1A30795  39.103  32.923   8.832
 2206POPC   D2A30796  39.083  32.677   8.491
 2206POPC   C3A30797  39.056  32.863   8.098
 2206POPC   C4A30798  39.025  33.000   7.688
 2206POPC   C1B30799  39.584  33.118   8.790
 2206POPC   C2B30800  39.367  33.142   8.398
 2206POPC   C3B30801  39.477  33.129   7.963
 2206POPC   C4B30802  39.452  33.274   7.527
 2207POPC   NC330803  25.691  40.263   9.279
 2207POPC   PO430804  25.471  39.624   9.282
 2207POPC   GL130805  25.229  39.955   9.119
 2207POPC   GL230806  24.915  39.805   9.064
 2207POPC   C1A30807  25.337  40.154   8.724
 2207POPC   D2A30808  25.550  40.134   8.366
 2207POPC   C3A30809  25.309  40.214   7.993
 2207POPC   C4A30810  25.419  39.976   7.615
 2207POPC   C1B30811  25.064  39.712   8.689
 2207POPC   C2B30812  25.072  39.904   8.323
 2207POPC   C3B30813  25.203  39.691   7.985
 2207POPC   C4B30814  25.054  39.600   7.599
 2208POPC   NC330815  30.617  18.415   9.483
 2208POPC   PO430816  31.121  18.078   9.731
 2208POPC   GL130817  30.961  18.085   9.273
 2208POPC   GL230818  30.931  18.441   9.103
 2208POPC   C1A30819  30.715  18.040   8.877
 2208POPC   D2A30820  30.528  18.292   8.548
 2208POPC   C3A30821  30.580  18.171   8.109
 2208POPC   C4A30822  30.785  18.049   7.713
 2208POPC   C1B30823  30.897  18.628   8.695
 2208POPC   C2B30824  30.813  18.615   8.251
 2208POPC   C3B30825  30.826  18.602   7.821
 2208POPC   C4B30826  31.011  18.872   7.520
 2209POPC   NC330827  10.722  19.463   9.358
 2209POPC   PO430828  10.141  19.135   9.577
 2209POPC   GL130829  10.246  19.354   9.160
 2209POPC   GL230830  10.511  19.113   9.058
 2209POPC   C1A30831  10.189  19.222   8.686
 2209POPC   D2A30832  10.371  18.828   8.441
 2209POPC   C3A30833  10.311  18.865   7.986
 2209POPC   C4A30834  10.209  18.941   7.547
 2209POPC   C1B30835  10.779  19.002   8.716
 2209POPC   C2B30836  10.830  19.073   8.281
 2209POPC   C3B30837  10.757  19.075   7.849
 2209POPC   C4B30838  10.637  19.190   7.434
 2210POPC   NC330839   5.658   7.931   9.378
 2210POPC   PO430840   5.621   8.541   9.350
 2210POPC   GL130841   5.841   8.294   9.045
 2210POPC   GL230842   6.138   8.048   9.127
 2210POPC   C1A30843   5.844   8.329   8.628
 2210POPC   D2A30844   6.078   8.247   8.260
 2210POPC   C3A30845   5.871   8.277   7.854
 2210POPC   C4A30846   5.933   8.201   7.385
 2210POPC   C1B30847   6.081   7.884   8.704
 2210POPC   C2B30848   5.780   7.859   8.426
 2210POPC   C3B30849   5.678   7.831   8.046
 2210POPC   C4B30850   5.663   7.847   7.640
 2211POPC   NC330851   4.821   6.875   9.364
 2211POPC   PO430852   5.337   6.322   9.404
 2211POPC   GL130853   5.085   6.529   9.066
 2211POPC   GL230854   4.730   6.487   9.037
 2211POPC   C1A30855   5.041   6.584   8.625
 2211POPC   D2A30856   5.388   6.503   8.346
 2211POPC   C3A30857   5.265   6.657   7.950
 2211POPC   C4A30858   5.148   7.063   7.774
 2211POPC   C1B30859   4.661   6.183   8.717
 2211POPC   C2B30860   4.862   6.132   8.308
 2211POPC   C3B30861   4.794   6.281   7.886
 2211POPC   C4B30862   4.875   6.605   7.593
 2212POPC   NC330863  43.077  12.600   9.613
 2212POPC   PO430864  42.769  13.141   9.442
 2212POPC   GL130865  42.982  13.016   9.094
 2212POPC   GL230866  43.101  12.704   9.128
 2212POPC   C1A30867  42.987  12.956   8.665
 2212POPC   D2A30868  43.157  13.129   8.297
 2212POPC   C3A30869  42.929  13.169   7.924
 2212POPC   C4A30870  43.090  13.108   7.506
 2212POPC   C1B30871  43.419  12.771   8.821
 2212POPC   C2B30872  43.318  12.632   8.387
 2212POPC   C3B30873  43.185  12.721   7.928
 2212POPC   C4B30874  43.238  12.628   7.471
 2213POPC   NC330875  42.290  18.037   9.490
 2213POPC   PO430876  42.164  18.659   9.420
 2213POPC   GL130877  42.348  18.366   9.098
 2213POPC   GL230878  42.180  18.065   9.012
 2213POPC   C1A30879  42.462  18.315   8.677
 2213POPC   D2A30880  42.578  18.467   8.269
 2213POPC   C3A30881  42.412  18.363   7.854
 2213POPC   C4A30882  42.530  18.026   7.529
 2213POPC   C1B30883  41.984  18.070   8.660
 2213POPC   C2B30884  42.147  18.180   8.303
 2213POPC   C3B30885  41.919  18.225   7.992
 2213POPC   C4B30886  42.043  18.128   7.593
 2214POPC   NC330887  37.180   9.358   9.682
 2214POPC   PO430888  36.810   8.836   9.484
 2214POPC   GL130889  36.817   9.076   9.114
 2214POPC   GL230890  37.087   9.357   9.105
 2214POPC   C1A30891  36.902   9.097   8.677
 2214POPC   D2A30892  36.779   9.289   8.313
 2214POPC   C3A30893  36.741   8.984   8.035
 2214POPC   C4A30894  36.822   8.782   7.681
 2214POPC   C1B30895  37.255   9.492   8.676
 2214POPC   C2B30896  37.257   9.447   8.200
 2214POPC   C3B30897  37.074   9.300   7.782
 2214POPC   C4B30898  36.967   9.401   7.335
 2215POPC   NC330899  36.773  25.514   9.485
 2215POPC   PO430900  37.088  24.936   9.537
 2215POPC   GL130901  36.993  25.155   9.133
 2215POPC   GL230902  37.117  25.519   9.111
 2215POPC   C1A30903  36.738  25.319   8.770
 2215POPC   D2A30904  36.627  25.091   8.379
 2215POPC   C3A30905  36.877  25.104   8.013
 2215POPC   C4A30906  36.754  25.256   7.624
 2215POPC   C1B30907  37.232  25.643   8.696
 2215POPC   C2B30908  37.001  25.544   8.298
 2215POPC   C3B30909  37.105  25.554   7.847
 2215POPC   C4B30910  37.071  25.566   7.330
 2216POPC   NC330911   0.441  15.515   9.399
 2216POPC   PO430912   0.300  14.851   9.413
 2216POPC   GL130913   0.426  15.123   9.043
 2216POPC   GL230914   0.254  15.468   8.939
 2216POPC   C1A30915   0.399  15.108   8.593
 2216POPC   D2A30916   0.237  15.306   8.236
 2216POPC   C3A30917   0.444  15.088   7.930
 2216POPC   C4A30918   0.416  14.917   7.530
 2216POPC   C1B30919   0.502  15.619   8.600
 2216POPC   C2B30920   0.755  15.405   8.278
 2216POPC   C3B30921   0.782  15.492   7.836
 2216POPC   C4B30922   0.421  15.558   7.671
 2217POPC   NC330923  18.267   7.704   9.561
 2217POPC   PO430924  17.773   7.150   9.524
 2217POPC   GL130925  18.024   7.301   9.160
 2217POPC   GL230926  18.326   7.469   9.113
 2217POPC   C1A30927  18.098   7.234   8.726
 2217POPC   D2A30928  17.832   7.272   8.392
 2217POPC   C3A30929  18.107   7.273   8.063
 2217POPC   C4A30930  18.171   7.386   7.627
 2217POPC   C1B30931  18.560   7.666   8.805
 2217POPC   C2B30932  18.604   7.571   8.384
 2217POPC   C3B30933  18.507   7.560   7.976
 2217POPC   C4B30934  18.526   7.088   7.864
 2218POPC   NC330935  25.212  35.116   9.335
 2218POPC   PO430936  25.445  34.543   9.656
 2218POPC   GL130937  25.410  34.634   9.228
 2218POPC   GL230938  25.190  34.360   9.118
 2218POPC   C1A30939  25.573  34.518   8.819
 2218POPC   D2A30940  25.514  34.261   8.478
 2218POPC   C3A30941  25.438  34.538   8.157
 2218POPC   C4A30942  25.522  34.574   7.726
 2218POPC   C1B30943  25.048  34.435   8.720
 2218POPC   C2B30944  25.009  34.238   8.321
 2218POPC   C3B30945  25.071  34.279   7.879
 2218POPC   C4B30946  24.697  34.432   7.662
 2219POPC   NC330947  13.555  16.076   9.565
 2219POPC   PO430948  13.213  15.427   9.635
 2219POPC   GL130949  13.502  15.664   9.249
 2219POPC   GL230950  13.717  15.949   9.124
 2219POPC   C1A30951  13.435  15.766   8.759
 2219POPC   D2A30952  13.585  15.683   8.374
 2219POPC   C3A30953  13.460  15.822   7.960
 2219POPC   C4A30954  13.393  15.994   7.557
 2219POPC   C1B30955  13.970  15.845   8.776
 2219POPC   C2B30956  14.108  15.645   8.415
 2219POPC   C3B30957  13.943  15.617   8.002
 2219POPC   C4B30958  13.903  15.916   7.690
 2220POPC   NC330959   2.108  36.605   9.537
 2220POPC   PO430960   1.780  37.253   9.411
 2220POPC   GL130961   2.030  37.185   9.073
 2220POPC   GL230962   2.156  36.864   9.106
 2220POPC   C1A30963   2.043  37.116   8.628
 2220POPC   D2A30964   2.218  37.132   8.240
 2220POPC   C3A30965   1.954  37.006   7.991
 2220POPC   C4A30966   1.875  36.937   7.560
 2220POPC   C1B30967   2.085  36.619   8.722
 2220POPC   C2B30968   2.157  36.610   8.263
 2220POPC   C3B30969   1.940  36.519   7.862
 2220POPC   C4B30970   2.144  36.527   7.446
 2221POPC   NC330971  18.560  42.899   9.647
 2221POPC   PO430972  17.957  43.213   9.550
 2221POPC   GL130973  18.054  43.008   9.177
 2221POPC   GL230974  18.425  43.055   9.163
 2221POPC   C1A30975  17.976  43.020   8.751
 2221POPC   D2A30976  18.304  43.154   8.422
 2221POPC   C3A30977  18.380  42.867   8.080
 2221POPC   C4A30978  18.031  42.730   7.827
 2221POPC   C1B30979  18.273  43.412   8.903
 2221POPC   C2B30980  18.432  43.659   8.580
 2221POPC   C3B30981  18.431  43.589   8.160
 2221POPC   C4B30982  18.230  43.314   7.876
 2222POPC   NC330983   6.859   3.268   9.445
 2222POPC   PO430984   6.514   3.973   9.480
 2222POPC   GL130985   6.497   3.750   9.089
 2222POPC   GL230986   6.538   3.406   9.095
 2222POPC   C1A30987   6.660   3.645   8.671
 2222POPC   D2A30988   6.766   3.379   8.338
 2222POPC   C3A30989   6.621   3.662   8.029
 2222POPC   C4A30990   6.700   3.750   7.599
 2222POPC   C1B30991   6.463   3.145   8.761
 2222POPC   C2B30992   6.450   2.952   8.388
 2222POPC   C3B30993   6.657   2.928   8.043
 2222POPC   C4B30994   6.817   3.239   7.826
 2223POPC   NC330995   0.640  12.099   9.581
 2223POPC   PO430996   0.016  11.945   9.603
 2223POPC   GL130997   0.262  12.007   9.210
 2223POPC   GL230998   0.587  12.123   9.091
 2223POPC   C1A30999   0.213  12.100   8.777
 2223POPC   D2A31000   0.165  12.060   8.384
 2223POPC   C3A31001   0.275  12.338   8.065
 2223POPC   C4A31002   0.342  12.164   7.647
 2223POPC   C1B31003   0.720  11.945   8.703
 2223POPC   C2B31004   0.669  12.055   8.258
 2223POPC   C3B31005   0.785  12.260   7.865
 2223POPC   C4B31006   0.877  12.040   7.431
 2224POPC   NC331007  18.184   6.955   9.505
 2224POPC   PO431008  18.411   6.359   9.441
 2224POPC   GL131009  18.450   6.574   9.058
 2224POPC   GL231010  18.408   6.947   9.042
 2224POPC   C1A31011  18.540   6.654   8.638
 2224POPC   D2A31012  18.291   6.839   8.310
 2224POPC   C3A31013  18.373   6.572   7.977
 2224POPC   C4A31014  18.514   6.635   7.570
 2224POPC   C1B31015  18.053   6.725   8.783
 2224POPC   C2B31016  17.781   6.755   8.421
 2224POPC   C3B31017  17.758   6.923   8.026
 2224POPC   C4B31018  18.076   6.891   7.699
 2225POPC   NC331019   5.761   2.869   9.496
 2225POPC   PO431020   6.449   2.985   9.399
 2225POPC   GL131021   6.102   2.901   9.080
 2225POPC   GL231022   5.721   2.746   9.017
 2225POPC   C1A31023   6.047   2.818   8.646
 2225POPC   D2A31024   5.733   2.595   8.381
 2225POPC   C3A31025   5.835   2.587   7.946
 2225POPC   C4A31026   6.054   2.916   7.729
 2225POPC   C1B31027   5.604   3.029   8.696
 2225POPC   C2B31028   5.804   3.118   8.300
 2225POPC   C3B31029   5.620   3.124   7.923
 2225POPC   C4B31030   5.416   2.817   7.750
 2226POPC   NC331031  44.908  30.981   9.395
 2226POPC   PO431032  44.411  30.525   9.481
 2226POPC   GL131033  44.578  30.686   9.118
 2226POPC   GL231034  44.942  30.555   9.098
 2226POPC   C1A31035  44.582  30.879   8.717
 2226POPC   D2A31036  44.763  30.953   8.311
 2226POPC   C3A31037  44.521  30.845   7.986
 2226POPC   C4A31038  44.514  30.947   7.588
 2226POPC   C1B31039  44.733  30.369   8.743
 2226POPC   C2B31040  44.514  30.486   8.374
 2226POPC   C3B31041  44.626  30.347   7.982
 2226POPC   C4B31042  44.703  30.448   7.558
 2227POPC   NC331043  25.254   9.332   9.569
 2227POPC   PO431044  25.486   9.907   9.742
 2227POPC   GL131045  25.354   9.783   9.315
 2227POPC   GL231046  24.995   9.772   9.283
 2227POPC   C1A31047  25.491   9.721   8.883
 2227POPC   D2A31048  25.342   9.896   8.491
 2227POPC   C3A31049  25.330   9.692   8.090
 2227POPC   C4A31050  25.259   9.862   7.699
 2227POPC   C1B31051  24.990   9.649   8.829
 2227POPC   C2B31052  24.946   9.556   8.401
 2227POPC   C3B31053  24.950   9.355   8.019
 2227POPC   C4B31054  24.785   9.665   7.765
 2228POPC   NC331055  22.175  13.286   9.699
 2228POPC   PO431056  22.520  13.817   9.449
 2228POPC   GL131057  22.349  13.486   9.157
 2228POPC   GL231058  22.313  13.785   8.965
 2228POPC   C1A31059  22.197  13.280   8.753
 2228POPC   D2A31060  22.130  13.460   8.331
 2228POPC   C3A31061  21.977  13.258   7.950
 2228POPC   C4A31062  22.115  13.270   7.498
 2228POPC   C1B31063  22.360  13.949   8.560
 2228POPC   C2B31064  21.989  13.959   8.323
 2228POPC   C3B31065  21.830  13.745   7.994
 2228POPC   C4B31066  21.953  13.825   7.579
 2229POPC   NC331067  11.453   5.307   9.344
 2229POPC   PO431068  10.786   4.944   9.521
 2229POPC   GL131069  10.889   5.077   9.086
 2229POPC   GL231070  11.138   5.325   8.935
 2229POPC   C1A31071  11.103   4.866   8.723
 2229POPC   D2A31072  11.380   4.837   8.345
 2229POPC   C3A31073  11.150   4.892   7.964
 2229POPC   C4A31074  11.099   5.169   7.586
 2229POPC   C1B31075  11.443   5.311   8.589
 2229POPC   C2B31076  11.453   5.303   8.129
 2229POPC   C3B31077  11.767   5.411   7.827
 2229POPC   C4B31078  11.643   5.377   7.385
 2230POPC   NC331079   5.403  41.905   9.482
 2230POPC   PO431080   5.039  41.384   9.669
 2230POPC   GL131081   5.170  41.497   9.272
 2230POPC   GL231082   4.841  41.635   9.211
 2230POPC   C1A31083   5.215  41.617   8.845
 2230POPC   D2A31084   5.228  41.334   8.488
 2230POPC   C3A31085   5.272  41.564   8.100
 2230POPC   C4A31086   4.972  41.868   7.970
 2230POPC   C1B31087   4.741  41.444   8.806
 2230POPC   C2B31088   4.779  41.581   8.384
 2230POPC   C3B31089   4.823  41.354   8.062
 2230POPC   C4B31090   5.035  41.278   7.727
 2231POPC   NC331091   3.086  15.384   9.592
 2231POPC   PO431092   3.680  14.975   9.681
 2231POPC   GL131093   3.775  15.138   9.282
 2231POPC   GL231094   3.418  15.173   9.238
 2231POPC   C1A31095   3.751  15.107   8.820
 2231POPC   D2A31096   3.480  15.043   8.465
 2231POPC   C3A31097   3.604  14.942   8.046
 2231POPC   C4A31098   3.700  15.177   7.715
 2231POPC   C1B31099   3.223  15.241   8.857
 2231POPC   C2B31100   3.107  15.411   8.463
 2231POPC   C3B31101   3.343  15.377   8.099
 2231POPC   C4B31102   3.282  15.494   7.668
 2232POPC   NC331103  39.838  18.689   9.531
 2232POPC   PO431104  40.354  19.135   9.475
 2232POPC   GL131105  40.030  19.005   9.178
 2232POPC   GL231106  40.073  18.659   9.085
 2232POPC   C1A31107  39.800  19.019   8.767
 2232POPC   D2A31108  39.863  19.335   8.418
 2232POPC   C3A31109  39.716  19.261   7.992
 2232POPC   C4A31110  39.864  19.399   7.598
 2232POPC   C1B31111  40.272  18.794   8.739
 2232POPC   C2B31112  40.158  18.889   8.343
 2232POPC   C3B31113  39.926  18.786   7.998
 2232POPC   C4B31114  40.075  18.926   7.651
 2233POPC   NC331115  26.503   2.742   9.694
 2233POPC   PO431116  27.113   2.677   9.659
 2233POPC   GL131117  26.842   2.595   9.285
 2233POPC   GL231118  27.118   2.441   9.175
 2233POPC   C1A31119  26.690   2.641   8.828
 2233POPC   D2A31120  26.874   2.874   8.441
 2233POPC   C3A31121  26.757   3.003   8.014
 2233POPC   C4A31122  27.028   3.037   7.645
 2233POPC   C1B31123  27.264   2.360   8.802
 2233POPC   C2B31124  27.039   2.365   8.436
 2233POPC   C3B31125  27.109   2.302   8.007
 2233POPC   C4B31126  26.850   2.556   7.727
 2234POPC   NC331127  21.773  11.584   9.764
 2234POPC   PO431128  21.931  12.206   9.456
 2234POPC   GL131129  22.097  11.934   9.172
 2234POPC   GL231130  22.435  12.065   9.213
 2234POPC   C1A31131  22.020  11.851   8.740
 2234POPC   D2A31132  22.233  11.992   8.364
 2234POPC   C3A31133  22.019  11.940   7.959
 2234POPC   C4A31134  22.215  11.923   7.532
 2234POPC   C1B31135  22.295  12.296   8.817
 2234POPC   C2B31136  22.474  12.452   8.387
 2234POPC   C3B31137  22.353  12.351   7.932
 2234POPC   C4B31138  22.327  12.397   7.480
 2235POPC   NC331139  21.384  19.379   9.516
 2235POPC   PO431140  21.558  18.734   9.637
 2235POPC   GL131141  21.628  18.950   9.162
 2235POPC   GL231142  21.691  19.314   9.116
 2235POPC   C1A31143  21.457  18.887   8.688
 2235POPC   D2A31144  21.145  18.890   8.320
 2235POPC   C3A31145  21.395  19.005   7.961
 2235POPC   C4A31146  21.556  18.912   7.558
 2235POPC   C1B31147  21.330  19.386   8.868
 2235POPC   C2B31148  21.288  19.358   8.453
 2235POPC   C3B31149  21.286  19.519   8.071
 2235POPC   C4B31150  21.326  19.449   7.664
 2236POPC   NC331151  36.542   9.232   9.569
 2236POPC   PO431152  35.874   9.564   9.450
 2236POPC   GL131153  36.039   9.461   9.081
 2236POPC   GL231154  35.804   9.263   8.983
 2236POPC   C1A31155  36.187   9.637   8.689
 2236POPC   D2A31156  35.914   9.828   8.368
 2236POPC   C3A31157  35.960   9.747   7.948
 2236POPC   C4A31158  36.328   9.819   7.705
 2236POPC   C1B31159  35.897   9.242   8.612
 2236POPC   C2B31160  35.664   9.355   8.305
 2236POPC   C3B31161  35.757   9.271   7.923
 2236POPC   C4B31162  36.077   9.361   7.603
 2237POPC   NC331163  42.859  32.777   9.703
 2237POPC   PO431164  42.217  32.951   9.488
 2237POPC   GL131165  42.231  33.113   9.137
 2237POPC   GL231166  42.030  33.391   9.128
 2237POPC   C1A31167  42.436  32.987   8.795
 2237POPC   D2A31168  42.552  33.163   8.435
 2237POPC   C3A31169  42.466  32.895   8.147
 2237POPC   C4A31170  42.319  33.079   7.791
 2237POPC   C1B31171  41.968  33.247   8.731
 2237POPC   C2B31172  41.972  33.383   8.372
 2237POPC   C3B31173  41.885  33.138   8.058
 2237POPC   C4B31174  41.879  33.320   7.677
 2238POPC   NC331175  44.260  10.155   9.667
 2238POPC   PO431176  44.975   9.955   9.533
 2238POPC   GL131177  44.808   9.874   9.099
 2238POPC   GL231178  44.527  10.099   9.212
 2238POPC   C1A31179  44.710   9.467   8.799
 2238POPC   D2A31180  44.647   9.300   8.370
 2238POPC   C3A31181  44.701   9.665   8.084
 2238POPC   C4A31182  44.854   9.754   7.660
 2238POPC   C1B31183  44.339   9.803   8.917
 2238POPC   C2B31184  44.333   9.715   8.480
 2238POPC   C3B31185  44.209   9.860   8.085
 2238POPC   C4B31186  44.343   9.702   7.702
 2239POPC   NC331187  14.284  38.000   9.256
 2239POPC   PO431188  14.227  37.304   9.387
 2239POPC   GL131189  14.485  37.405   9.039
 2239POPC   GL231190  14.606  37.744   8.934
 2239POPC   C1A31191  14.241  37.492   8.667
 2239POPC   D2A31192  13.986  37.550   8.306
 2239POPC   C3A31193  14.206  37.468   7.951
 2239POPC   C4A31194  14.030  37.354   7.619
 2239POPC   C1B31195  14.410  38.003   8.603
 2239POPC   C2B31196  14.191  38.035   8.188
 2239POPC   C3B31197  14.409  37.908   7.815
 2239POPC   C4B31198  14.822  37.715   7.815
 2240POPC   NC331199  38.422   2.295   9.620
 2240POPC   PO431200  38.806   1.761   9.417
 2240POPC   GL131201  38.670   2.122   9.192
 2240POPC   GL231202  38.341   2.087   9.155
 2240POPC   C1A31203  38.628   2.131   8.741
 2240POPC   D2A31204  38.408   1.892   8.432
 2240POPC   C3A31205  38.567   2.037   8.026
 2240POPC   C4A31206  38.658   2.064   7.525
 2240POPC   C1B31207  38.129   2.320   8.857
 2240POPC   C2B31208  38.017   2.320   8.446
 2240POPC   C3B31209  38.021   2.026   8.116
 2240POPC   C4B31210  38.193   2.110   7.720
 2241POPC   NC331211  44.965   9.511   9.412
 2241POPC   PO431212  44.381   9.160   9.411
 2241POPC   GL131213  44.729   9.036   9.122
 2241POPC   GL231214  44.698   8.691   9.021
 2241POPC   C1A31215  44.943   8.985   8.700
 2241POPC   D2A31216   0.078   8.995   8.291
 2241POPC   C3A31217  44.798   8.950   7.983
 2241POPC   C4A31218  44.658   9.270   7.758
 2241POPC   C1B31219  44.437   8.900   8.699
 2241POPC   C2B31220  44.349   8.803   8.276
 2241POPC   C3B31221  44.318   8.864   7.841
 2241POPC   C4B31222  44.377   8.965   7.425
 2242POPC   NC331223  38.279  35.421   9.594
 2242POPC   PO431224  38.786  34.966   9.537
 2242POPC   GL131225  38.661  35.318   9.232
 2242POPC   GL231226  38.368  35.564   9.134
 2242POPC   C1A31227  38.561  35.233   8.816
 2242POPC   D2A31228  38.451  34.988   8.513
 2242POPC   C3A31229  38.418  35.098   8.097
 2242POPC   C4A31230  38.417  35.358   7.752
 2242POPC   C1B31231  38.411  35.716   8.755
 2242POPC   C2B31232  38.459  35.528   8.390
 2242POPC   C3B31233  38.138  35.543   8.122
 2242POPC   C4B31234  38.079  35.794   7.765
 2243POPC   NC331235  21.179  16.358   9.815
 2243POPC   PO431236  21.355  16.922   9.506
 2243POPC   GL131237  21.417  16.916   9.096
 2243POPC   GL231238  21.066  16.910   9.031
 2243POPC   C1A31239  21.495  16.670   8.742
 2243POPC   D2A31240  21.662  16.351   8.441
 2243POPC   C3A31241  21.667  16.563   8.047
 2243POPC   C4A31242  21.498  16.545   7.640
 2243POPC   C1B31243  21.187  17.113   8.667
 2243POPC   C2B31244  21.347  16.954   8.305
 2243POPC   C3B31245  21.285  16.944   7.877
 2243POPC   C4B31246  20.997  16.887   7.516
 2244POPC   NC331247  39.369  36.853   9.554
 2244POPC   PO431248  39.251  37.412   9.268
 2244POPC   GL131249  39.320  37.080   9.009
 2244POPC   GL231250  39.165  36.781   9.103
 2244POPC   C1A31251  39.446  36.839   8.656
 2244POPC   D2A31252  39.345  36.805   8.231
 2244POPC   C3A31253  39.621  36.825   7.856
 2244POPC   C4A31254  39.480  37.078   7.438
 2244POPC   C1B31255  38.879  36.941   8.781
 2244POPC   C2B31256  38.838  36.878   8.346
 2244POPC   C3B31257  38.990  36.981   7.928
 2244POPC   C4B31258  39.170  36.732   7.650
 2245POPC   NC331259  27.169   8.591   9.256
 2245POPC   PO431260  26.876   9.164   9.504
 2245POPC   GL131261  26.822   8.990   9.145
 2245POPC   GL231262  27.129   9.091   9.038
 2245POPC   C1A31263  26.700   9.117   8.748
 2245POPC   D2A31264  26.766   9.015   8.342
 2245POPC   C3A31265  26.413   8.938   8.121
 2245POPC   C4A31266  26.389   8.973   7.684
 2245POPC   C1B31267  27.127   8.806   8.660
 2245POPC   C2B31268  27.336   8.510   8.388
 2245POPC   C3B31269  27.251   8.626   7.990
 2245POPC   C4B31270  26.857   8.816   7.862
 2246POPC   NC331271  26.641  19.508   9.498
 2246POPC   PO431272  26.832  20.191   9.394
 2246POPC   GL131273  26.686  19.875   9.120
 2246POPC   GL231274  26.946  19.623   9.115
 2246POPC   C1A31275  26.758  19.852   8.683
 2246POPC   D2A31276  26.849  19.628   8.305
 2246POPC   C3A31277  26.871  19.890   7.963
 2246POPC   C4A31278  26.469  19.855   7.831
 2246POPC   C1B31279  27.008  19.405   8.740
 2246POPC   C2B31280  27.316  19.400   8.430
 2246POPC   C3B31281  27.278  19.544   8.034
 2246POPC   C4B31282  27.040  19.497   7.648
 2247POPC   NC331283   7.162   5.763   9.492
 2247POPC   PO431284   7.856   5.946   9.601
 2247POPC   GL131285   7.567   5.877   9.234
 2247POPC   GL231286   7.637   5.616   9.054
 2247POPC   C1A31287   7.299   5.949   8.835
 2247POPC   D2A31288   7.399   6.021   8.367
 2247POPC   C3A31289   7.154   5.780   8.038
 2247POPC   C4A31290   7.189   5.760   7.589
 2247POPC   C1B31291   7.785   5.850   8.710
 2247POPC   C2B31292   7.902   5.874   8.265
 2247POPC   C3B31293   7.643   5.889   7.864
 2247POPC   C4B31294   7.668   5.752   7.405
 2248POPC   NC331295  16.344  42.396   9.530
 2248POPC   PO431296  15.686  42.499   9.326
 2248POPC   GL131297  16.035  42.236   9.158
 2248POPC   GL231298  16.172  42.567   9.097
 2248POPC   C1A31299  16.099  41.901   8.852
 2248POPC   D2A31300  15.889  41.863   8.471
 2248POPC   C3A31301  16.084  42.038   8.123
 2248POPC   C4A31302  15.981  42.123   7.717
 2248POPC   C1B31303  15.983  42.469   8.727
 2248POPC   C2B31304  16.198  42.474   8.361
 2248POPC   C3B31305  16.159  42.545   7.959
 2248POPC   C4B31306  15.848  42.626   7.685
 2249POPC   NC331307  17.191   3.154   9.410
 2249POPC   PO431308  17.693   3.453   9.747
 2249POPC   GL131309  17.635   3.459   9.274
 2249POPC   GL231310  17.591   3.110   9.113
 2249POPC   C1A31311  17.556   3.780   8.936
 2249POPC   D2A31312  17.267   3.674   8.593
 2249POPC   C3A31313  17.438   3.662   8.177
 2249POPC   C4A31314  17.541   3.441   7.759
 2249POPC   C1B31315  17.680   3.341   8.733
 2249POPC   C2B31316  17.823   3.312   8.318
 2249POPC   C3B31317  17.942   3.128   7.943
 2249POPC   C4B31318  17.761   2.981   7.570
 2250POPC   NC331319  40.292   4.933   9.487
 2250POPC   PO431320  39.906   5.433   9.629
 2250POPC   GL131321  39.817   5.203   9.196
 2250POPC   GL231322  40.076   4.988   9.041
 2250POPC   C1A31323  39.833   5.256   8.716
 2250POPC   D2A31324  40.060   5.067   8.355
 2250POPC   C3A31325  39.778   5.183   8.051
 2250POPC   C4A31326  39.795   5.361   7.669
 2250POPC   C1B31327  40.055   4.683   8.701
 2250POPC   C2B31328  40.069   4.476   8.299
 2250POPC   C3B31329  39.928   4.704   7.950
 2250POPC   C4B31330  40.158   5.020   7.721
 2251POPC   NC331331  19.438  25.733   9.534
 2251POPC   PO431332  18.863  26.095   9.573
 2251POPC   GL131333  19.095  26.015   9.207
 2251POPC   GL231334  19.411  26.189   9.322
 2251POPC   C1A31335  19.019  25.853   8.743
 2251POPC   D2A31336  19.005  25.702   8.279
 2251POPC   C3A31337  18.829  25.980   7.943
 2251POPC   C4A31338  19.043  26.118   7.573
 2251POPC   C1B31339  19.430  26.136   8.869
 2251POPC   C2B31340  19.442  25.968   8.450
 2251POPC   C3B31341  19.346  26.092   8.024
 2251POPC   C4B31342  19.669  26.278   7.763
 2252POPC   NC331343  18.453  36.837   9.426
 2252POPC   PO431344  17.887  37.009   9.398
 2252POPC   GL131345  18.165  37.095   9.067
 2252POPC   GL231346  18.523  36.986   8.964
 2252POPC   C1A31347  18.126  37.006   8.664
 2252POPC   D2A31348  18.294  37.014   8.314
 2252POPC   C3A31349  17.999  37.039   8.022
 2252POPC   C4A31350  17.963  36.742   7.680
 2252POPC   C1B31351  18.620  36.696   8.610
 2252POPC   C2B31352  18.717  36.791   8.171
 2252POPC   C3B31353  18.449  36.993   7.808
 2252POPC   C4B31354  18.548  37.303   7.445
 2253POPC   NC331355  19.809  27.336   9.468
 2253POPC   PO431356  20.147  26.704   9.571
 2253POPC   GL131357  20.116  26.769   9.170
 2253POPC   GL231358  19.761  26.854   9.128
 2253POPC   C1A31359  20.044  26.676   8.748
 2253POPC   D2A31360  19.797  26.850   8.424
 2253POPC   C3A31361  19.914  26.732   8.016
 2253POPC   C4A31362  20.204  26.928   7.737
 2253POPC   C1B31363  19.538  26.615   8.788
 2253POPC   C2B31364  19.376  26.550   8.332
 2253POPC   C3B31365  19.411  26.699   7.865
 2253POPC   C4B31366  19.762  26.725   7.519
 2254POPC   NC331367   9.746   4.871   9.528
 2254POPC   PO431368   9.903   5.447   9.384
 2254POPC   GL131369   9.627   5.215   9.091
 2254POPC   GL231370   9.515   4.860   9.070
 2254POPC   C1A31371   9.662   5.371   8.662
 2254POPC   D2A31372   9.749   5.415   8.209
 2254POPC   C3A31373   9.819   5.071   7.916
 2254POPC   C4A31374  10.092   5.275   7.681
 2254POPC   C1B31375   9.713   4.864   8.690
 2254POPC   C2B31376   9.544   4.930   8.314
 2254POPC   C3B31377   9.452   4.671   7.968
 2254POPC   C4B31378   9.671   4.532   7.623
 2255POPC   NC331379  13.691  19.723   9.613
 2255POPC   PO431380  13.095  19.868   9.568
 2255POPC   GL131381  13.283  19.831   9.140
 2255POPC   GL231382  13.610  19.727   9.098
 2255POPC   C1A31383  13.327  19.932   8.673
 2255POPC   D2A31384  13.624  19.821   8.314
 2255POPC   C3A31385  13.565  19.748   7.883
 2255POPC   C4A31386  13.505  19.785   7.414
 2255POPC   C1B31387  13.897  19.770   8.743
 2255POPC   C2B31388  14.109  19.636   8.343
 2255POPC   C3B31389  14.064  19.768   7.893
 2255POPC   C4B31390  13.808  20.116   7.655
 2256POPC   NC331391  44.613  17.577   9.647
 2256POPC   PO431392   0.147  17.276   9.386
 2256POPC   GL131393  44.806  17.614   9.174
 2256POPC   GL231394  44.410  17.513   9.156
 2256POPC   C1A31395  44.550  17.890   8.852
 2256POPC   D2A31396  44.335  17.770   8.466
 2256POPC   C3A31397  44.578  17.529   8.166
 2256POPC   C4A31398  44.834  17.634   7.822
 2256POPC   C1B31399  44.263  17.223   8.762
 2256POPC   C2B31400  44.300  17.049   8.297
 2256POPC   C3B31401  44.175  17.144   7.829
 2256POPC   C4B31402  44.433  17.006   7.419
 2257POPC   NC331403  35.875  41.951   9.510
 2257POPC   PO431404  35.220  41.672   9.592
 2257POPC   GL131405  35.296  41.551   9.189
 2257POPC   GL231406  35.639  41.538   9.276
 2257POPC   C1A31407  35.219  41.760   8.812
 2257POPC   D2A31408  35.044  41.876   8.418
 2257POPC   C3A31409  35.268  41.720   8.054
 2257POPC   C4A31410  35.197  41.349   7.794
 2257POPC   C1B31411  35.713  41.587   8.838
 2257POPC   C2B31412  35.514  41.504   8.456
 2257POPC   C3B31413  35.639  41.335   8.077
 2257POPC   C4B31414  35.695  41.600   7.756
 2258POPC   NC331415  10.578  39.549   9.463
 2258POPC   PO431416  10.021  39.306   9.493
 2258POPC   GL131417  10.351  39.149   9.181
 2258POPC   GL231418  10.715  39.050   9.218
 2258POPC   C1A31419  10.543  39.296   8.778
 2258POPC   D2A31420  10.421  39.601   8.451
 2258POPC   C3A31421  10.616  39.563   8.072
 2258POPC   C4A31422  10.526  39.429   7.690
 2258POPC   C1B31423  10.706  38.802   8.811
 2258POPC   C2B31424  10.723  38.966   8.382
 2258POPC   C3B31425  10.624  38.979   7.947
 2258POPC   C4B31426  10.802  39.034   7.547
 2259POPC   NC331427  24.973  32.252   9.380
 2259POPC   PO431428  25.546  31.894   9.578
 2259POPC   GL131429  25.412  32.038   9.179
 2259POPC   GL231430  25.122  31.896   9.007
 2259POPC   C1A31431  25.477  32.282   8.811
 2259POPC   D2A31432  25.575  32.185   8.384
 2259POPC   C3A31433  25.349  32.418   8.073
 2259POPC   C4A31434  25.567  32.633   7.754
 2259POPC   C1B31435  24.968  32.193   8.679
 2259POPC   C2B31436  24.873  32.156   8.236
 2259POPC   C3B31437  24.968  32.202   7.805
 2259POPC   C4B31438  25.070  31.927   7.436
 2260POPC   NC331439  16.006  35.934   9.744
 2260POPC   PO431440  15.427  36.229   9.603
 2260POPC   GL131441  15.748  36.166   9.249
 2260POPC   GL231442  16.085  35.965   9.240
 2260POPC   C1A31443  15.872  36.352   8.823
 2260POPC   D2A31444  16.049  36.423   8.388
 2260POPC   C3A31445  16.052  36.181   8.012
 2260POPC   C4A31446  15.717  36.047   7.722
 2260POPC   C1B31447  16.278  35.849   8.842
 2260POPC   C2B31448  16.202  35.911   8.423
 2260POPC   C3B31449  16.337  35.775   8.014
 2260POPC   C4B31450  16.180  35.831   7.622
 2261POPC   NC331451  31.550  10.165   9.448
 2261POPC   PO431452  31.647  10.835   9.467
 2261POPC   GL131453  31.692  10.774   9.052
 2261POPC   GL231454  31.777  10.453   9.115
 2261POPC   C1A31455  31.618  10.758   8.590
 2261POPC   D2A31456  31.254  10.581   8.400
 2261POPC   C3A31457  31.263  10.610   7.972
 2261POPC   C4A31458  31.700  10.663   7.889
 2261POPC   C1B31459  31.777  10.311   8.748
 2261POPC   C2B31460  31.973  10.434   8.387
 2261POPC   C3B31461  32.004  10.249   8.039
 2261POPC   C4B31462  31.780  10.167   7.715
 2262POPC   NC331463   1.890  35.383   9.919
 2262POPC   PO431464   1.769  35.275   9.459
 2262POPC   GL131465   2.032  35.462   9.108
 2262POPC   GL231466   2.295  35.273   8.993
 2262POPC   C1A31467   2.038  35.531   8.633
 2262POPC   D2A31468   1.740  35.490   8.253
 2262POPC   C3A31469   1.748  35.156   7.909
 2262POPC   C4A31470   1.716  35.066   7.455
 2262POPC   C1B31471   2.169  35.027   8.664
 2262POPC   C2B31472   2.126  35.154   8.284
 2262POPC   C3B31473   2.328  35.130   7.935
 2262POPC   C4B31474   2.146  34.882   7.665
 2263POPC   NC331475  37.075  44.004   9.618
 2263POPC   PO431476  36.741  43.429   9.684
 2263POPC   GL131477  36.938  43.656   9.256
 2263POPC   GL231478  36.889  44.052   9.141
 2263POPC   C1A31479  37.129  43.716   8.850
 2263POPC   D2A31480  36.945  43.629   8.442
 2263POPC   C3A31481  36.957  43.980   8.135
 2263POPC   C4A31482  37.002  43.861   7.694
 2263POPC   C1B31483  36.863  44.140   8.678
 2263POPC   C2B31484  36.616  44.331   8.359
 2263POPC   C3B31485  36.481  44.243   7.973
 2263POPC   C4B31486  36.551  44.043   7.553
 2264POPC   NC331487  12.569  27.387   9.463
 2264POPC   PO431488  12.928  27.852   9.757
 2264POPC   GL131489  12.798  27.835   9.285
 2264POPC   GL231490  12.888  27.525   9.111
 2264POPC   C1A31491  12.847  27.898   8.809
 2264POPC   D2A31492  12.852  27.639   8.444
 2264POPC   C3A31493  13.016  27.795   8.066
 2264POPC   C4A31494  12.744  27.742   7.727
 2264POPC   C1B31495  12.698  27.296   8.793
 2264POPC   C2B31496  12.735  27.106   8.397
 2264POPC   C3B31497  12.699  27.307   8.009
 2264POPC   C4B31498  12.854  27.179   7.603
 2265POPC   NC331499  14.096  31.701   9.446
 2265POPC   PO431500  14.739  31.629   9.588
 2265POPC   GL131501  14.548  31.473   9.190
 2265POPC   GL231502  14.412  31.145   9.332
 2265POPC   C1A31503  14.697  31.638   8.734
 2265POPC   D2A31504  14.861  31.774   8.291
 2265POPC   C3A31505  14.554  31.649   7.952
 2265POPC   C4A31506  14.093  31.658   7.790
 2265POPC   C1B31507  14.291  31.049   8.913
 2265POPC   C2B31508  14.258  31.289   8.530
 2265POPC   C3B31509  14.263  31.246   8.083
 2265POPC   C4B31510  14.229  31.082   7.698
 2266POPC   NC331511  32.104   6.444   9.688
 2266POPC   PO431512  32.254   7.003   9.272
 2266POPC   GL131513  32.352   6.794   8.970
 2266POPC   GL231514  32.345   6.474   9.144
 2266POPC   C1A31515  32.113   6.902   8.615
 2266POPC   D2A31516  31.863   6.923   8.302
 2266POPC   C3A31517  32.172   6.804   8.060
 2266POPC   C4A31518  32.240   6.695   7.661
 2266POPC   C1B31519  32.171   6.403   8.706
 2266POPC   C2B31520  32.337   6.321   8.319
 2266POPC   C3B31521  32.191   6.281   7.917
 2266POPC   C4B31522  32.371   6.155   7.520
 2267POPC   NC331523  36.010  21.782   9.448
 2267POPC   PO431524  36.684  21.794   9.635
 2267POPC   GL131525  36.491  21.680   9.210
 2267POPC   GL231526  36.419  21.282   9.115
 2267POPC   C1A31527  36.239  21.664   8.821
 2267POPC   D2A31528  36.316  21.414   8.458
 2267POPC   C3A31529  36.222  21.546   8.047
 2267POPC   C4A31530  35.902  21.487   7.761
 2267POPC   C1B31531  36.498  20.867   8.854
 2267POPC   C2B31532  36.411  20.914   8.451
 2267POPC   C3B31533  36.397  20.884   8.029
 2267POPC   C4B31534  36.263  21.124   7.685
 2268POPC   NC331535  35.086   8.836   9.781
 2268POPC   PO431536  35.553   8.681   9.280
 2268POPC   GL131537  35.327   8.999   9.068
 2268POPC   GL231538  34.991   9.162   9.124
 2268POPC   C1A31539  35.422   9.008   8.656
 2268POPC   D2A31540  35.382   8.644   8.416
 2268POPC   C3A31541  35.407   8.777   7.983
 2268POPC   C4A31542  35.290   8.709   7.561
 2268POPC   C1B31543  34.970   9.274   8.676
 2268POPC   C2B31544  35.117   9.117   8.253
 2268POPC   C3B31545  35.243   9.238   7.833
 2268POPC   C4B31546  35.348   9.196   7.409
 2269POPC   NC331547  21.209  23.253   9.528
 2269POPC   PO431548  21.895  23.024   9.495
 2269POPC   GL131549  21.659  23.021   9.119
 2269POPC   GL231550  21.268  23.034   9.088
 2269POPC   C1A31551  21.566  22.792   8.748
 2269POPC   D2A31552  21.290  22.590   8.491
 2269POPC   C3A31553  21.448  22.685   8.105
 2269POPC   C4A31554  21.581  22.948   7.786
 2269POPC   C1B31555  21.136  23.098   8.686
 2269POPC   C2B31556  21.372  23.123   8.344
 2269POPC   C3B31557  21.157  23.125   7.998
 2269POPC   C4B31558  21.088  23.145   7.576
 2270POPC   NC331559  28.438  41.199   9.322
 2270POPC   PO431560  28.168  41.870   9.340
 2270POPC   GL131561  28.364  41.619   9.068
 2270POPC   GL231562  28.524  41.859   8.897
 2270POPC   C1A31563  28.533  41.397   8.706
 2270POPC   D2A31564  28.731  41.631   8.405
 2270POPC   C3A31565  28.502  41.606   8.048
 2270POPC   C4A31566  28.464  41.368   7.698
 2270POPC   C1B31567  28.175  41.748   8.603
 2270POPC   C2B31568  28.004  41.730   8.168
 2270POPC   C3B31569  28.098  41.792   7.710
 2270POPC   C4B31570  27.967  41.939   7.264
 2271POPC   NC331571  11.611  21.606   9.362
 2271POPC   PO431572  11.507  20.947   9.453
 2271POPC   GL131573  11.245  21.134   9.135
 2271POPC   GL231574  11.094  21.471   9.162
 2271POPC   C1A31575  11.351  21.246   8.739
 2271POPC   D2A31576  11.649  21.445   8.495
 2271POPC   C3A31577  11.507  21.422   8.070
 2271POPC   C4A31578  11.385  21.155   7.734
 2271POPC   C1B31579  11.144  21.713   8.752
 2271POPC   C2B31580  11.289  21.818   8.346
 2271POPC   C3B31581  11.289  21.858   7.915
 2271POPC   C4B31582  11.133  21.596   7.658
 2272POPC   NC331583  18.431  40.102   9.506
 2272POPC   PO431584  19.002  40.242   9.324
 2272POPC   GL131585  18.784  39.995   9.032
 2272POPC   GL231586  18.544  40.262   9.032
 2272POPC   C1A31587  18.959  39.802   8.620
 2272POPC   D2A31588  19.300  39.860   8.270
 2272POPC   C3A31589  19.179  39.876   7.826
 2272POPC   C4A31590  19.060  39.574   7.535
 2272POPC   C1B31591  18.573  40.132   8.588
 2272POPC   C2B31592  18.817  40.035   8.175
 2272POPC   C3B31593  18.845  40.261   7.755
 2272POPC   C4B31594  19.078  40.633   7.645
 2273POPC   NC331595   1.059  10.363   9.558
 2273POPC   PO431596   1.608  10.789   9.524
 2273POPC   GL131597   1.422  10.518   9.217
 2273POPC   GL231598   1.099  10.675   9.115
 2273POPC   C1A31599   1.475  10.478   8.782
 2273POPC   D2A31600   1.170  10.679   8.519
 2273POPC   C3A31601   1.170  10.522   8.120
 2273POPC   C4A31602   1.343  10.616   7.685
 2273POPC   C1B31603   0.816  10.915   8.826
 2273POPC   C2B31604   0.655  11.037   8.418
 2273POPC   C3B31605   0.818  10.926   8.056
 2273POPC   C4B31606   0.835  10.629   7.775
 2274POPC   NC331607  43.670   4.660   9.497
 2274POPC   PO431608  44.080   5.251   9.491
 2274POPC   GL131609  43.898   5.062   9.158
 2274POPC   GL231610  44.247   5.188   9.011
 2274POPC   C1A31611  43.970   4.803   8.790
 2274POPC   D2A31612  44.162   4.745   8.391
 2274POPC   C3A31613  43.929   4.760   8.018
 2274POPC   C4A31614  43.893   4.917   7.609
 2274POPC   C1B31615  43.956   5.313   8.711
 2274POPC   C2B31616  43.822   5.127   8.383
 2274POPC   C3B31617  43.950   5.280   8.002
 2274POPC   C4B31618  43.697   5.461   7.732
 2275POPC   NC331619  22.463  23.168   9.515
 2275POPC   PO431620  22.276  22.520   9.404
 2275POPC   GL131621  22.337  22.853   9.114
 2275POPC   GL231622  22.191  23.181   9.098
 2275POPC   C1A31623  22.543  22.996   8.718
 2275POPC   D2A31624  22.424  23.228   8.365
 2275POPC   C3A31625  22.272  23.057   7.997
 2275POPC   C4A31626  22.301  22.915   7.585
 2275POPC   C1B31627  22.024  23.023   8.726
 2275POPC   C2B31628  21.859  22.971   8.336
 2275POPC   C3B31629  21.815  23.312   8.080
 2275POPC   C4B31630  21.950  23.300   7.672
 2276POPC   NC331631  23.920  22.260   9.342
 2276POPC   PO431632  24.632  22.284   9.433
 2276POPC   GL131633  24.619  22.048   9.102
 2276POPC   GL231634  24.320  22.236   9.029
 2276POPC   C1A31635  24.502  21.914   8.702
 2276POPC   D2A31636  24.510  22.085   8.290
 2276POPC   C3A31637  24.393  21.816   7.947
 2276POPC   C4A31638  23.997  21.836   7.744
 2276POPC   C1B31639  24.639  22.408   8.752
 2276POPC   C2B31640  24.594  22.588   8.370
 2276POPC   C3B31641  24.552  22.493   7.952
 2276POPC   C4B31642  24.899  22.587   7.703
 2277POPC   NC331643  26.190  18.203   9.426
 2277POPC   PO431644  25.720  18.643   9.549
 2277POPC   GL131645  25.842  18.398   9.143
 2277POPC   GL231646  26.185  18.432   8.940
 2277POPC   C1A31647  25.817  18.171   8.781
 2277POPC   D2A31648  25.926  18.374   8.369
 2277POPC   C3A31649  25.770  18.290   7.941
 2277POPC   C4A31650  25.666  18.481   7.543
 2277POPC   C1B31651  26.280  18.065   8.611
 2277POPC   C2B31652  26.220  18.013   8.141
 2277POPC   C3B31653  26.271  18.166   7.718
 2277POPC   C4B31654  26.436  18.223   7.266
 2278POPC   NC331655  29.630   6.943   9.301
 2278POPC   PO431656  30.051   6.653   9.724
 2278POPC   GL131657  29.981   6.424   9.291
 2278POPC   GL231658  29.715   6.478   9.092
 2278POPC   C1A31659  30.112   6.386   8.790
 2278POPC   D2A31660  30.081   6.786   8.502
 2278POPC   C3A31661  30.098   6.761   8.031
 2278POPC   C4A31662  30.133   6.361   7.813
 2278POPC   C1B31663  29.624   6.580   8.660
 2278POPC   C2B31664  29.744   6.436   8.259
 2278POPC   C3B31665  29.637   6.556   7.850
 2278POPC   C4B31666  29.692   6.617   7.395
 2279POPC   NC331667  38.868  38.130   9.586
 2279POPC   PO431668  39.457  38.509   9.725
 2279POPC   GL131669  39.273  38.569   9.276
 2279POPC   GL231670  38.938  38.433   9.188
 2279POPC   C1A31671  39.350  38.504   8.795
 2279POPC   D2A31672  39.569  38.388   8.372
 2279POPC   C3A31673  39.338  38.395   7.929
 2279POPC   C4A31674  39.417  38.372   7.421
 2279POPC   C1B31675  38.908  38.214   8.795
 2279POPC   C2B31676  39.023  38.388   8.386
 2279POPC   C3B31677  38.820  38.384   8.004
 2279POPC   C4B31678  38.704  38.745   7.802
 2280POPC   NC331679  36.620  29.359   9.447
 2280POPC   PO431680  37.290  29.104   9.506
 2280POPC   GL131681  37.087  29.301   9.175
 2280POPC   GL231682  36.827  29.064   9.054
 2280POPC   C1A31683  37.212  29.184   8.773
 2280POPC   D2A31684  37.021  29.031   8.414
 2280POPC   C3A31685  37.179  29.172   8.013
 2280POPC   C4A31686  37.122  29.063   7.579
 2280POPC   C1B31687  36.714  29.334   8.728
 2280POPC   C2B31688  36.493  29.334   8.382
 2280POPC   C3B31689  36.637  29.099   8.072
 2280POPC   C4B31690  36.679  29.258   7.709
 2281POPC   NC331691   7.625  24.580   9.466
 2281POPC   PO431692   7.151  24.059   9.532
 2281POPC   GL131693   7.375  24.208   9.168
 2281POPC   GL231694   7.319  24.560   9.055
 2281POPC   C1A31695   7.305  24.111   8.746
 2281POPC   D2A31696   7.090  24.269   8.351
 2281POPC   C3A31697   7.264  24.616   8.117
 2281POPC   C4A31698   7.502  24.787   7.776
 2281POPC   C1B31699   7.414  24.580   8.608
 2281POPC   C2B31700   7.743  24.687   8.309
 2281POPC   C3B31701   7.990  24.717   7.921
 2281POPC   C4B31702   7.943  24.775   7.464
 2282POPC   NC331703   5.363  44.679   9.781
 2282POPC   PO431704   4.884   0.036   9.496
 2282POPC   GL131705   4.986  44.711   9.157
 2282POPC   GL231706   5.270  44.466   9.212
 2282POPC   C1A31707   4.928  44.738   8.705
 2282POPC   D2A31708   5.131  44.718   8.303
 2282POPC   C3A31709   4.901  44.938   7.988
 2282POPC   C4A31710   4.692  44.739   7.666
 2282POPC   C1B31711   5.387  44.495   8.735
 2282POPC   C2B31712   5.397  44.279   8.296
 2282POPC   C3B31713   5.370  44.502   7.885
 2282POPC   C4B31714   5.327  44.356   7.465
 2283POPC   NC331715  40.203  24.264   9.434
 2283POPC   PO431716  39.620  24.652   9.483
 2283POPC   GL131717  39.822  24.559   9.127
 2283POPC   GL231718  39.732  24.251   9.113
 2283POPC   C1A31719  39.908  24.784   8.751
 2283POPC   D2A31720  39.784  24.645   8.337
 2283POPC   C3A31721  40.081  24.651   7.984
 2283POPC   C4A31722  40.203  24.725   7.557
 2283POPC   C1B31723  39.988  24.210   8.748
 2283POPC   C2B31724  39.906  24.110   8.318
 2283POPC   C3B31725  39.710  24.290   7.960
 2283POPC   C4B31726  39.836  24.354   7.578
 2284POPC   NC331727  25.610  24.491   9.358
 2284POPC   PO431728  26.221  24.106   9.265
 2284POPC   GL131729  26.011  24.392   9.086
 2284POPC   GL231730  25.745  24.119   9.057
 2284POPC   C1A31731  25.901  24.688   8.771
 2284POPC   D2A31732  25.803  24.565   8.360
 2284POPC   C3A31733  25.992  24.777   8.055
 2284POPC   C4A31734  25.803  24.757   7.685
 2284POPC   C1B31735  25.899  24.154   8.659
 2284POPC   C2B31736  26.007  24.078   8.256
 2284POPC   C3B31737  25.890  24.272   7.905
 2284POPC   C4B31738  26.215  24.425   7.668
 2285POPC   NC331739  44.142  30.901   9.330
 2285POPC   PO431740  43.524  30.507   9.464
 2285POPC   GL131741  43.791  30.599   9.099
 2285POPC   GL231742  44.085  30.379   9.115
 2285POPC   C1A31743  43.800  30.880   8.702
 2285POPC   D2A31744  44.168  30.919   8.375
 2285POPC   C3A31745  44.029  30.980   7.965
 2285POPC   C4A31746  43.733  31.003   7.650
 2285POPC   C1B31747  44.187  30.559   8.762
 2285POPC   C2B31748  43.969  30.461   8.399
 2285POPC   C3B31749  44.105  30.377   8.029
 2285POPC   C4B31750  44.164  30.588   7.671
 2286POPC   NC331751  32.833  11.729   9.423
 2286POPC   PO431752  33.397  12.046   9.569
 2286POPC   GL131753  33.207  11.983   9.159
 2286POPC   GL231754  33.385  12.285   9.085
 2286POPC   C1A31755  32.944  11.813   8.770
 2286POPC   D2A31756  32.809  11.998   8.348
 2286POPC   C3A31757  32.784  11.753   7.968
 2286POPC   C4A31758  32.931  11.957   7.629
 2286POPC   C1B31759  33.326  12.137   8.683
 2286POPC   C2B31760  33.506  11.963   8.323
 2286POPC   C3B31761  33.246  12.018   8.035
 2286POPC   C4B31762  33.364  12.262   7.746
 2287POPC   NC331763  24.186  19.945   9.672
 2287POPC   PO431764  23.575  19.986   9.563
 2287POPC   GL131765  23.535  19.909   9.144
 2287POPC   GL231766  23.912  19.943   9.140
 2287POPC   C1A31767  23.422  19.663   8.760
 2287POPC   D2A31768  23.668  19.648   8.361
 2287POPC   C3A31769  23.467  19.681   7.935
 2287POPC   C4A31770  23.372  19.707   7.493
 2287POPC   C1B31771  23.816  20.001   8.705
 2287POPC   C2B31772  24.039  20.148   8.334
 2287POPC   C3B31773  23.920  19.970   7.967
 2287POPC   C4B31774  23.873  19.804   7.558
 2288POPC   NC331775   2.864  19.720   9.287
 2288POPC   PO431776   2.556  20.260   9.419
 2288POPC   GL131777   2.814  20.217   9.063
 2288POPC   GL231778   2.546  19.999   8.959
 2288POPC   C1A31779   2.922  20.104   8.602
 2288POPC   D2A31780   3.001  19.752   8.277
 2288POPC   C3A31781   3.109  19.833   7.827
 2288POPC   C4A31782   2.942  19.961   7.399
 2288POPC   C1B31783   2.610  19.689   8.619
 2288POPC   C2B31784   2.478  19.659   8.231
 2288POPC   C3B31785   2.620  19.897   7.915
 2288POPC   C4B31786   2.483  20.280   7.741
 2289POPC   NC331787  11.523  24.938   9.245
 2289POPC   PO431788  11.409  24.363   9.612
 2289POPC   GL131789  11.207  24.513   9.208
 2289POPC   GL231790  11.529  24.448   9.065
 2289POPC   C1A31791  11.153  24.377   8.731
 2289POPC   D2A31792  10.996  24.383   8.280
 2289POPC   C3A31793  11.208  24.511   7.896
 2289POPC   C4A31794  11.540  24.246   7.860
 2289POPC   C1B31795  11.535  24.702   8.662
 2289POPC   C2B31796  11.577  24.543   8.276
 2289POPC   C3B31797  11.737  24.718   7.928
 2289POPC   C4B31798  11.609  24.741   7.522
 2290POPC   NC331799  22.123  10.683   9.377
 2290POPC   PO431800  22.443  10.050   9.512
 2290POPC   GL131801  22.451  10.336   9.140
 2290POPC   GL231802  22.088  10.353   8.985
 2290POPC   C1A31803  22.465  10.534   8.718
 2290POPC   D2A31804  22.277  10.452   8.325
 2290POPC   C3A31805  22.064  10.712   7.995
 2290POPC   C4A31806  22.081  10.645   7.541
 2290POPC   C1B31807  21.828  10.357   8.621
 2290POPC   C2B31808  21.782  10.293   8.181
 2290POPC   C3B31809  21.911  10.156   7.771
 2290POPC   C4B31810  21.788  10.271   7.354
 2291POPC   NC331811   0.157  17.953   9.482
 2291POPC   PO431812   0.519  18.597   9.437
 2291POPC   GL131813   0.404  18.559   9.058
 2291POPC   GL231814   0.251  18.243   9.092
 2291POPC   C1A31815   0.466  18.360   8.662
 2291POPC   D2A31816   0.725  18.299   8.344
 2291POPC   C3A31817   0.553  18.280   7.952
 2291POPC   C4A31818   0.721  18.435   7.580
 2291POPC   C1B31819   0.015  18.099   8.744
 2291POPC   C2B31820   0.017  18.218   8.305
 2291POPC   C3B31821   0.081  18.106   7.871
 2291POPC   C4B31822   0.343  18.066   7.492
 2292POPC   NC331823  24.302  21.891   9.438
 2292POPC   PO431824  24.574  21.301   9.622
 2292POPC   GL131825  24.590  21.391   9.215
 2292POPC   GL231826  24.916  21.587   9.197
 2292POPC   C1A31827  24.341  21.443   8.832
 2292POPC   D2A31828  24.365  21.553   8.395
 2292POPC   C3A31829  24.317  21.240   8.129
 2292POPC   C4A31830  24.346  21.345   7.710
 2292POPC   C1B31831  24.835  21.453   8.781
 2292POPC   C2B31832  24.788  21.253   8.378
 2292POPC   C3B31833  24.785  21.402   7.953
 2292POPC   C4B31834  24.839  21.522   7.519
 2293POPC   NC331835  23.365  11.934   9.508
 2293POPC   PO431836  23.973  11.837   9.171
 2293POPC   GL131837  23.823  12.184   9.060
 2293POPC   GL231838  23.477  12.155   9.048
 2293POPC   C1A31839  23.965  12.422   8.743
 2293POPC   D2A31840  23.750  12.447   8.374
 2293POPC   C3A31841  23.995  12.355   8.027
 2293POPC   C4A31842  23.844  12.045   7.745
 2293POPC   C1B31843  23.675  12.000   8.629
 2293POPC   C2B31844  23.836  11.928   8.271
 2293POPC   C3B31845  23.785  11.613   8.006
 2293POPC   C4B31846  23.465  11.706   7.780
 2294POPC   NC331847   3.951   4.030   9.572
 2294POPC   PO431848   4.626   4.211   9.629
 2294POPC   GL131849   4.446   4.195   9.219
 2294POPC   GL231850   4.219   3.936   9.168
 2294POPC   C1A31851   4.341   4.364   8.801
 2294POPC   D2A31852   4.280   4.579   8.398
 2294POPC   C3A31853   4.408   4.371   8.012
 2294POPC   C4A31854   4.582   4.230   7.625
 2294POPC   C1B31855   4.392   3.840   8.807
 2294POPC   C2B31856   4.361   4.016   8.391
 2294POPC   C3B31857   4.191   3.875   7.994
 2294POPC   C4B31858   4.151   3.930   7.538
 2295POPC   NC331859   3.498  12.688   9.497
 2295POPC   PO431860   3.394  13.309   9.288
 2295POPC   GL131861   3.553  12.945   9.085
 2295POPC   GL231862   3.298  12.716   9.012
 2295POPC   C1A31863   3.688  12.666   8.698
 2295POPC   D2A31864   3.904  12.754   8.287
 2295POPC   C3A31865   3.720  12.944   7.896
 2295POPC   C4A31866   3.587  12.760   7.510
 2295POPC   C1B31867   3.331  13.045   8.667
 2295POPC   C2B31868   3.419  12.931   8.288
 2295POPC   C3B31869   3.220  12.760   7.917
 2295POPC   C4B31870   3.168  13.039   7.578
 2296POPC   NC331871  29.840  21.602   9.519
 2296POPC   PO431872  30.291  21.057   9.578
 2296POPC   GL131873  30.016  21.166   9.250
 2296POPC   GL231874  30.157  20.851   9.133
 2296POPC   C1A31875  29.748  21.316   8.900
 2296POPC   D2A31876  29.905  21.397   8.486
 2296POPC   C3A31877  29.617  21.437   8.142
 2296POPC   C4A31878  29.753  21.384   7.738
 2296POPC   C1B31879  30.238  21.141   8.800
 2296POPC   C2B31880  30.244  21.008   8.400
 2296POPC   C3B31881  30.168  21.222   8.045
 2296POPC   C4B31882  30.252  21.105   7.641
 2297POPC   NC331883  32.696  14.231   9.574
 2297POPC   PO431884  32.235  14.646   9.517
 2297POPC   GL131885  32.467  14.505   9.119
 2297POPC   GL231886  32.612  14.164   9.082
 2297POPC   C1A31887  32.351  14.426   8.631
 2297POPC   D2A31888  32.129  14.428   8.184
 2297POPC   C3A31889  32.262  14.550   7.742
 2297POPC   C4A31890  32.557  14.859   7.597
 2297POPC   C1B31891  32.527  13.923   8.717
 2297POPC   C2B31892  32.343  13.959   8.302
 2297POPC   C3B31893  32.312  14.062   7.867
 2297POPC   C4B31894  32.193  14.063   7.450
 2298POPC   NC331895  16.685  25.748   9.632
 2298POPC   PO431896  16.435  26.410   9.669
 2298POPC   GL131897  16.581  26.225   9.280
 2298POPC   GL231898  16.606  25.887   9.168
 2298POPC   C1A31899  16.532  26.234   8.814
 2298POPC   D2A31900  16.510  26.143   8.358
 2298POPC   C3A31901  16.520  26.294   7.910
 2298POPC   C4A31902  16.490  26.235   7.442
 2298POPC   C1B31903  16.609  25.724   8.776
 2298POPC   C2B31904  16.741  25.665   8.369
 2298POPC   C3B31905  16.884  25.695   7.954
 2298POPC   C4B31906  16.922  26.022   7.656
 2299POPC   NC331907  41.492  29.293   9.309
 2299POPC   PO431908  41.789  28.689   9.664
 2299POPC   GL131909  41.847  28.942   9.227
 2299POPC   GL231910  41.487  28.838   9.081
 2299POPC   C1A31911  41.801  29.158   8.768
 2299POPC   D2A31912  42.005  29.333   8.385
 2299POPC   C3A31913  41.766  29.336   7.970
 2299POPC   C4A31914  41.603  29.129   7.593
 2299POPC   C1B31915  41.297  29.044   8.696
 2299POPC   C2B31916  41.331  29.244   8.277
 2299POPC   C3B31917  41.202  29.260   7.834
 2299POPC   C4B31918  41.155  29.246   7.337
 2300POPC   NC331919  30.571  11.161   9.468
 2300POPC   PO431920  31.049  11.485   9.239
 2300POPC   GL131921  30.733  11.290   9.007
 2300POPC   GL231922  30.920  11.426   8.744
 2300POPC   C1A31923  30.346  11.113   8.777
 2300POPC   D2A31924  30.248  10.870   8.364
 2300POPC   C3A31925  30.322  11.067   7.921
 2300POPC   C4A31926  30.393  11.315   7.497
 2300POPC   C1B31927  30.790  11.025   8.587
 2300POPC   C2B31928  30.565  11.265   8.321
 2300POPC   C3B31929  30.650  11.452   7.944
 2300POPC   C4B31930  30.857  11.191   7.625
 2301POPC   NC331931   3.570  25.751   9.645
 2301POPC   PO431932   3.440  26.420   9.776
 2301POPC   GL131933   3.425  26.226   9.319
 2301POPC   GL231934   3.321  25.889   9.241
 2301POPC   C1A31935   3.503  26.227   8.850
 2301POPC   D2A31936   3.622  26.349   8.427
 2301POPC   C3A31937   3.760  26.068   8.091
 2301POPC   C4A31938   3.654  26.216   7.658
 2301POPC   C1B31939   3.328  25.744   8.851
 2301POPC   C2B31940   3.447  25.814   8.440
 2301POPC   C3B31941   3.299  25.674   8.054
 2301POPC   C4B31942   3.259  25.841   7.654
 2302POPC   NC331943   3.127  37.690   9.657
 2302POPC   PO431944   2.685  37.249   9.559
 2302POPC   GL131945   2.915  37.419   9.163
 2302POPC   GL231946   2.987  37.796   9.181
 2302POPC   C1A31947   3.012  37.541   8.693
 2302POPC   D2A31948   2.906  37.642   8.224
 2302POPC   C3A31949   2.597  37.391   7.945
 2302POPC   C4A31950   2.166  37.403   7.769
 2302POPC   C1B31951   2.632  37.861   8.897
 2302POPC   C2B31952   2.528  37.993   8.468
 2302POPC   C3B31953   2.677  38.164   8.081
 2302POPC   C4B31954   2.752  37.983   7.693
 2303POPC   NC331955   9.770   8.404   9.486
 2303POPC   PO431956   9.635   7.707   9.410
 2303POPC   GL131957   9.763   8.056   9.116
 2303POPC   GL231958   9.567   8.400   9.039
 2303POPC   C1A31959   9.928   8.199   8.748
 2303POPC   D2A31960   9.699   8.260   8.394
 2303POPC   C3A31961   9.855   8.365   8.044
 2303POPC   C4A31962   9.863   8.254   7.647
 2303POPC   C1B31963   9.498   8.645   8.683
 2303POPC   C2B31964   9.332   8.609   8.255
 2303POPC   C3B31965   9.432   8.607   7.805
 2303POPC   C4B31966   9.561   8.560   7.352
 2304POPC   NC331967  21.940   7.386   9.294
 2304POPC   PO431968  22.524   7.414   9.533
 2304POPC   GL131969  22.442   7.518   9.142
 2304POPC   GL231970  22.710   7.295   9.011
 2304POPC   C1A31971  22.274   7.463   8.742
 2304POPC   D2A31972  21.929   7.395   8.462
 2304POPC   C3A31973  21.983   7.680   8.165
 2304POPC   C4A31974  22.069   7.701   7.772
 2304POPC   C1B31975  22.594   6.989   8.736
 2304POPC   C2B31976  22.346   7.088   8.393
 2304POPC   C3B31977  22.250   7.017   7.987
 2304POPC   C4B31978  22.384   7.041   7.590
 2305POPC   NC331979  15.531   5.862   9.558
 2305POPC   PO431980  16.148   6.098   9.684
 2305POPC   GL131981  16.142   5.864   9.282
 2305POPC   GL231982  15.824   5.926   9.160
 2305POPC   C1A31983  16.176   5.826   8.802
 2305POPC   D2A31984  16.120   6.007   8.386
 2305POPC   C3A31985  16.037   5.752   8.016
 2305POPC   C4A31986  16.155   5.815   7.594
 2305POPC   C1B31987  15.679   5.918   8.766
 2305POPC   C2B31988  15.724   5.678   8.424
 2305POPC   C3B31989  15.522   5.751   8.063
 2305POPC   C4B31990  15.652   5.993   7.698
 2306POPC   NC331991  28.220  39.402   9.566
 2306POPC   PO431992  27.620  39.489   9.490
 2306POPC   GL131993  27.629  39.166   9.126
 2306POPC   GL231994  27.320  38.904   9.091
 2306POPC   C1A31995  27.747  39.342   8.718
 2306POPC   D2A31996  27.702  39.628   8.351
 2306POPC   C3A31997  27.483  39.447   8.057
 2306POPC   C4A31998  27.653  39.439   7.655
 2306POPC   C1B31999  27.495  38.905   8.664
 2306POPC   C2B32000  27.570  38.965   8.208
 2306POPC   C3B32001  27.533  38.961   7.749
 2306POPC   C4B32002  27.857  39.058   7.377
 2307POPC   NC332003  36.664   0.656   9.249
 2307POPC   PO432004  37.241   0.631   9.594
 2307POPC   GL132005  37.133   0.457   9.194
 2307POPC   GL232006  37.033   0.141   9.317
 2307POPC   C1A32007  37.022   0.549   8.740
 2307POPC   D2A32008  36.816   0.345   8.407
 2307POPC   C3A32009  36.872   0.576   8.031
 2307POPC   C4A32010  36.689   0.504   7.634
 2307POPC   C1B32011  36.997   0.038   8.876
 2307POPC   C2B32012  37.165  44.918   8.475
 2307POPC   C3B32013  37.086   0.026   8.047
 2307POPC   C4B32014  37.103   0.178   7.628
 2308POPC   NC332015  42.336  30.608   9.555
 2308POPC   PO432016  41.895  31.074   9.290
 2308POPC   GL132017  42.341  30.872   9.107
 2308POPC   GL232018  42.511  30.497   9.104
 2308POPC   C1A32019  42.516  30.755   8.685
 2308POPC   D2A32020  42.655  31.043   8.364
 2308POPC   C3A32021  42.544  30.912   7.957
 2308POPC   C4A32022  42.537  31.154   7.610
 2308POPC   C1B32023  42.321  30.271   8.763
 2308POPC   C2B32024  42.377  30.311   8.324
 2308POPC   C3B32025  42.184  30.215   7.924
 2308POPC   C4B32026  42.256  30.452   7.545
 2309POPC   NC332027  44.414   7.337   9.430
 2309POPC   PO432028   0.008   7.595   9.372
 2309POPC   GL132029  44.733   7.539   9.015
 2309POPC   GL232030  44.375   7.583   8.996
 2309POPC   C1A32031  44.683   7.548   8.569
 2309POPC   D2A32032  44.878   7.361   8.238
 2309POPC   C3A32033  44.770   7.477   7.839
 2309POPC   C4A32034  44.657   7.310   7.470
 2309POPC   C1B32035  44.419   7.162   8.794
 2309POPC   C2B32036  44.508   6.984   8.395
 2309POPC   C3B32037  44.400   7.124   7.995
 2309POPC   C4B32038  44.273   7.479   7.771
 2310POPC   NC332039  11.351  37.449   9.692
 2310POPC   PO432040  11.989  37.728   9.728
 2310POPC   GL132041  12.079  37.699   9.275
 2310POPC   GL232042  11.865  37.981   9.260
 2310POPC   C1A32043  12.283  37.674   8.818
 2310POPC   D2A32044  12.394  37.646   8.350
 2310POPC   C3A32045  12.161  37.783   7.978
 2310POPC   C4A32046  12.190  37.583   7.556
 2310POPC   C1B32047  11.785  37.837   8.843
 2310POPC   C2B32048  11.811  37.701   8.440
 2310POPC   C3B32049  11.676  37.894   8.071
 2310POPC   C4B32050  11.720  37.697   7.696
 2311POPC   NC332051   2.809  42.696   9.606
 2311POPC   PO432052   2.548  42.194   9.454
 2311POPC   GL132053   2.770  42.253   9.128
 2311POPC   GL232054   2.975  42.556   9.144
 2311POPC   C1A32055   2.599  42.137   8.742
 2311POPC   D2A32056   2.462  42.338   8.347
 2311POPC   C3A32057   2.646  42.202   7.983
 2311POPC   C4A32058   2.776  42.342   7.566
 2311POPC   C1B32059   3.114  42.284   8.777
 2311POPC   C2B32060   2.984  42.204   8.380
 2311POPC   C3B32061   3.110  42.366   7.985
 2311POPC   C4B32062   3.188  42.631   7.592
 2312POPC   NC332063  30.383  22.990   9.564
 2312POPC   PO432064  30.907  23.399   9.579
 2312POPC   GL132065  30.737  23.093   9.210
 2312POPC   GL232066  30.666  22.736   9.091
 2312POPC   C1A32067  30.701  23.136   8.747
 2312POPC   D2A32068  30.869  23.263   8.326
 2312POPC   C3A32069  30.812  23.102   7.901
 2312POPC   C4A32070  30.848  23.214   7.457
 2312POPC   C1B32071  30.943  22.655   8.707
 2312POPC   C2B32072  31.011  22.456   8.273
 2312POPC   C3B32073  31.126  22.607   7.824
 2312POPC   C4B32074  31.211  22.791   7.390
 2313POPC   NC332075   8.419  37.913   9.452
 2313POPC   PO432076   7.762  37.696   9.467
 2313POPC   GL132077   8.084  37.657   9.153
 2313POPC   GL232078   8.156  37.950   9.016
 2313POPC   C1A32079   8.260  37.481   8.776
 2313POPC   D2A32080   8.141  37.330   8.387
 2313POPC   C3A32081   8.330  37.404   8.026
 2313POPC   C4A32082   8.264  37.600   7.673
 2313POPC   C1B32083   8.521  37.948   8.743
 2313POPC   C2B32084   8.485  37.767   8.327
 2313POPC   C3B32085   8.558  37.952   7.918
 2313POPC   C4B32086   8.314  38.096   7.556
 2314POPC   NC332087  11.854  15.844   9.465
 2314POPC   PO432088  12.159  16.436   9.566
 2314POPC   GL132089  12.167  16.171   9.199
 2314POPC   GL232090  11.827  16.240   9.120
 2314POPC   C1A32091  12.154  16.160   8.729
 2314POPC   D2A32092  12.258  15.833   8.405
 2314POPC   C3A32093  12.082  15.868   7.986
 2314POPC   C4A32094  12.247  15.695   7.626
 2314POPC   C1B32095  11.574  16.155   8.753
 2314POPC   C2B32096  11.751  16.038   8.355
 2314POPC   C3B32097  11.589  16.170   7.943
 2314POPC   C4B32098  11.886  16.241   7.611
 2315POPC   NC332099  20.835   9.597   9.750
 2315POPC   PO432100  20.279   9.960   9.577
 2315POPC   GL132101  20.535   9.696   9.285
 2315POPC   GL232102  20.291   9.744   9.017
 2315POPC   C1A32103  20.761   9.630   8.871
 2315POPC   D2A32104  20.535   9.634   8.466
 2315POPC   C3A32105  20.748   9.600   8.077
 2315POPC   C4A32106  20.645   9.610   7.651
 2315POPC   C1B32107  20.355  10.082   8.702
 2315POPC   C2B32108  20.247  10.103   8.276
 2315POPC   C3B32109  20.271   9.788   8.007
 2315POPC   C4B32110  20.238   9.913   7.587
 2316POPC   NC332111   7.600  12.077   9.436
 2316POPC   PO432112   6.953  12.144   9.390
 2316POPC   GL132113   7.273  12.006   9.056
 2316POPC   GL232114   7.476  11.697   9.125
 2316POPC   C1A32115   7.433  12.134   8.678
 2316POPC   D2A32116   7.228  12.430   8.422
 2316POPC   C3A32117   7.259  12.267   8.028
 2316POPC   C4A32118   7.366  12.514   7.697
 2316POPC   C1B32119   7.378  11.617   8.695
 2316POPC   C2B32120   7.541  11.685   8.287
 2316POPC   C3B32121   7.729  11.941   7.991
 2316POPC   C4B32122   7.455  11.933   7.666
 2317POPC   NC332123  43.537  38.195   9.371
 2317POPC   PO432124  43.977  38.653   9.443
 2317POPC   GL132125  44.061  38.540   9.063
 2317POPC   GL232126  43.951  38.207   9.061
 2317POPC   C1A32127  44.146  38.427   8.655
 2317POPC   D2A32128  43.929  38.284   8.329
 2317POPC   C3A32129  44.111  38.491   8.050
 2317POPC   C4A32130  43.919  38.335   7.744
 2317POPC   C1B32131  43.636  38.457   8.776
 2317POPC   C2B32132  43.411  38.425   8.388
 2317POPC   C3B32133  43.458  38.346   7.958
 2317POPC   C4B32134  43.503  38.456   7.508
 2318POPC   NC332135  35.038  42.081   9.468
 2318POPC   PO432136  35.716  42.420   9.554
 2318POPC   GL132137  35.426  42.389   9.226
 2318POPC   GL232138  35.471  42.034   9.206
 2318POPC   C1A32139  35.186  42.277   8.840
 2318POPC   D2A32140  35.154  42.421   8.425
 2318POPC   C3A32141  35.054  42.208   8.043
 2318POPC   C4A32142  35.178  42.463   7.754
 2318POPC   C1B32143  35.712  42.128   8.857
 2318POPC   C2B32144  35.536  42.064   8.468
 2318POPC   C3B32145  35.576  42.304   8.113
 2318POPC   C4B32146  35.508  42.081   7.753
 2319POPC   NC332147   7.787  34.062   9.442
 2319POPC   PO432148   8.386  33.557   9.596
 2319POPC   GL132149   8.164  33.675   9.215
 2319POPC   GL232150   7.895  33.485   9.133
 2319POPC   C1A32151   8.014  33.942   8.842
 2319POPC   D2A32152   8.228  34.187   8.537
 2319POPC   C3A32153   8.169  34.121   8.087
 2319POPC   C4A32154   8.197  33.836   7.749
 2319POPC   C1B32155   8.182  33.483   8.753
 2319POPC   C2B32156   8.110  33.682   8.353
 2319POPC   C3B32157   7.852  33.577   8.002
 2319POPC   C4B32158   7.895  33.342   7.605
 2320POPC   NC332159  20.789  14.942   9.551
 2320POPC   PO432160  20.435  15.602   9.561
 2320POPC   GL132161  20.678  15.372   9.264
 2320POPC   GL232162  20.441  15.129   9.220
 2320POPC   C1A32163  20.843  15.360   8.836
 2320POPC   D2A32164  20.853  15.667   8.504
 2320POPC   C3A32165  20.854  15.480   8.124
 2320POPC   C4A32166  20.701  15.237   7.780
 2320POPC   C1B32167  20.349  15.198   8.796
 2320POPC   C2B32168  20.573  15.167   8.407
 2320POPC   C3B32169  20.614  14.842   8.086
 2320POPC   C4B32170  20.284  14.937   7.788
 2321POPC   NC332171  14.016  38.961   9.322
 2321POPC   PO432172  13.472  39.318   9.520
 2321POPC   GL132173  13.573  39.204   9.110
 2321POPC   GL232174  13.843  39.437   9.079
 2321POPC   C1A32175  13.440  39.016   8.711
 2321POPC   D2A32176  13.546  38.950   8.266
 2321POPC   C3A32177  13.325  39.179   7.904
 2321POPC   C4A32178  13.442  39.500   7.600
 2321POPC   C1B32179  13.645  39.503   8.622
 2321POPC   C2B32180  13.670  39.487   8.133
 2321POPC   C3B32181  13.822  39.176   7.767
 2321POPC   C4B32182  13.715  38.832   7.467
 2322POPC   NC332183  28.262  35.559   9.508
 2322POPC   PO432184  28.094  34.952   9.537
 2322POPC   GL132185  28.250  35.203   9.165
 2322POPC   GL232186  28.570  35.381   9.130
 2322POPC   C1A32187  28.152  35.491   8.811
 2322POPC   D2A32188  28.201  35.336   8.368
 2322POPC   C3A32189  27.969  35.449   7.994
 2322POPC   C4A32190  28.101  35.224   7.615
 2322POPC   C1B32191  28.608  35.301   8.678
 2322POPC   C2B32192  28.647  35.537   8.272
 2322POPC   C3B32193  28.469  35.548   7.896
 2322POPC   C4B32194  28.586  35.326   7.552
 2323POPC   NC332195  41.291   9.971   9.381
 2323POPC   PO432196  41.763   9.500   9.620
 2323POPC   GL132197  41.582   9.570   9.198
 2323POPC   GL232198  41.276   9.567   9.071
 2323POPC   C1A32199  41.706   9.568   8.778
 2323POPC   D2A32200  41.819   9.761   8.406
 2323POPC   C3A32201  41.756   9.570   7.988
 2323POPC   C4A32202  41.418   9.743   7.758
 2323POPC   C1B32203  41.294   9.890   8.735
 2323POPC   C2B32204  41.292   9.885   8.290
 2323POPC   C3B32205  41.081  10.093   7.967
 2323POPC   C4B32206  41.033   9.997   7.536
 2324POPC   NC332207  13.583  33.432   9.448
 2324POPC   PO432208  13.444  34.049   9.410
 2324POPC   GL132209  13.684  33.832   9.136
 2324POPC   GL232210  13.482  33.579   8.995
 2324POPC   C1A32211  13.905  33.807   8.751
 2324POPC   D2A32212  14.014  34.033   8.369
 2324POPC   C3A32213  13.777  33.942   7.980
 2324POPC   C4A32214  13.461  34.110   7.716
 2324POPC   C1B32215  13.415  33.783   8.645
 2324POPC   C2B32216  13.672  33.601   8.339
 2324POPC   C3B32217  13.582  33.395   7.967
 2324POPC   C4B32218  13.309  33.631   7.739
 2325POPC   NC332219  43.691  23.455   9.344
 2325POPC   PO432220  44.188  23.892   9.571
 2325POPC   GL132221  43.985  23.846   9.169
 2325POPC   GL232222  43.614  23.965   9.150
 2325POPC   C1A32223  44.060  23.529   8.797
 2325POPC   D2A32224  44.102  23.341   8.367
 2325POPC   C3A32225  44.016  23.598   7.999
 2325POPC   C4A32226  44.087  23.500   7.580
 2325POPC   C1B32227  43.753  23.925   8.732
 2325POPC   C2B32228  43.834  24.080   8.358
 2325POPC   C3B32229  43.658  23.968   8.014
 2325POPC   C4B32230  43.748  23.880   7.627
 2326POPC   NC332231   3.094  37.002   9.460
 2326POPC   PO432232   2.563  36.635   9.481
 2326POPC   GL132233   2.683  36.914   9.170
 2326POPC   GL232234   2.962  36.690   9.062
 2326POPC   C1A32235   2.519  37.114   8.820
 2326POPC   D2A32236   2.687  37.128   8.402
 2326POPC   C3A32237   2.601  36.799   8.093
 2326POPC   C4A32238   2.371  36.930   7.721
 2326POPC   C1B32239   3.026  37.034   8.777
 2326POPC   C2B32240   3.175  37.148   8.334
 2326POPC   C3B32241   3.014  37.035   7.889
 2326POPC   C4B32242   3.050  36.759   7.474
 2327POPC   NC332243   2.276  16.942   9.505
 2327POPC   PO432244   2.937  16.861   9.470
 2327POPC   GL132245   2.773  16.713   9.106
 2327POPC   GL232246   2.641  17.032   9.079
 2327POPC   C1A32247   2.865  16.603   8.687
 2327POPC   D2A32248   2.920  16.782   8.282
 2327POPC   C3A32249   3.012  16.597   7.876
 2327POPC   C4A32250   3.057  16.757   7.416
 2327POPC   C1B32251   2.453  16.965   8.694
 2327POPC   C2B32252   2.543  17.109   8.266
 2327POPC   C3B32253   2.637  16.946   7.881
 2327POPC   C4B32254   2.273  16.910   7.725
 2328POPC   NC332255   0.722  14.622   9.516
 2328POPC   PO432256   0.128  14.366   9.646
 2328POPC   GL132257   0.435  14.335   9.217
 2328POPC   GL232258   0.543  14.611   9.040
 2328POPC   C1A32259   0.659  14.139   8.841
 2328POPC   D2A32260   0.481  14.099   8.447
 2328POPC   C3A32261   0.610  14.103   8.032
 2328POPC   C4A32262   0.312  14.299   7.729
 2328POPC   C1B32263   0.529  14.599   8.634
 2328POPC   C2B32264   0.403  14.580   8.224
 2328POPC   C3B32265   0.670  14.608   7.887
 2328POPC   C4B32266   0.674  14.494   7.428
 2329POPC   NC332267   2.360   9.563   9.209
 2329POPC   PO432268   2.987   9.343   9.444
 2329POPC   GL132269   2.889   9.689   9.144
 2329POPC   GL232270   2.741  10.021   9.220
 2329POPC   C1A32271   3.060   9.803   8.745
 2329POPC   D2A32272   2.833   9.854   8.355
 2329POPC   C3A32273   2.945   9.818   7.911
 2329POPC   C4A32274   2.877   9.736   7.481
 2329POPC   C1B32275   2.571  10.007   8.796
 2329POPC   C2B32276   2.401  10.137   8.417
 2329POPC   C3B32277   2.486  10.033   8.015
 2329POPC   C4B32278   2.428  10.269   7.699
 2330POPC   NC332279  19.808   7.888   9.475
 2330POPC   PO432280  19.496   8.444   9.505
 2330POPC   GL132281  19.811   8.327   9.162
 2330POPC   GL232282  20.063   8.050   9.082
 2330POPC   C1A32283  19.979   8.436   8.779
 2330POPC   D2A32284  19.747   8.493   8.446
 2330POPC   C3A32285  19.988   8.437   8.117
 2330POPC   C4A32286  19.770   8.479   7.751
 2330POPC   C1B32287  19.728   7.981   8.815
 2330POPC   C2B32288  19.864   7.984   8.431
 2330POPC   C3B32289  19.652   8.086   8.109
 2330POPC   C4B32290  19.655   7.967   7.693
 2331POPC   NC332291   9.906  31.966   9.555
 2331POPC   PO432292   9.430  32.379   9.651
 2331POPC   GL132293   9.576  32.497   9.236
 2331POPC   GL232294   9.251  32.523   9.103
 2331POPC   C1A32295   9.775  32.397   8.807
 2331POPC   D2A32296   9.995  32.541   8.406
 2331POPC   C3A32297   9.951  32.345   8.049
 2331POPC   C4A32298  10.092  32.476   7.622
 2331POPC   C1B32299   9.323  32.112   8.907
 2331POPC   C2B32300   9.348  32.017   8.457
 2331POPC   C3B32301   9.484  32.107   8.028
 2331POPC   C4B32302   9.592  32.411   7.715
 2332POPC   NC332303  30.510   8.020   9.709
 2332POPC   PO432304  31.142   8.280   9.631
 2332POPC   GL132305  30.880   8.303   9.241
 2332POPC   GL232306  30.539   8.168   9.225
 2332POPC   C1A32307  30.855   8.188   8.800
 2332POPC   D2A32308  31.023   8.091   8.384
 2332POPC   C3A32309  30.842   8.211   7.978
 2332POPC   C4A32310  30.815   8.573   7.663
 2332POPC   C1B32311  30.415   7.911   8.887
 2332POPC   C2B32312  30.583   7.854   8.490
 2332POPC   C3B32313  30.421   7.981   8.136
 2332POPC   C4B32314  30.413   8.054   7.719
 2333POPC   NC332315   3.728  28.436   9.562
 2333POPC   PO432316   3.987  27.777   9.438
 2333POPC   GL132317   3.649  28.063   9.204
 2333POPC   GL232318   3.662  28.421   9.077
 2333POPC   C1A32319   3.313  28.110   8.875
 2333POPC   D2A32320   3.259  28.471   8.557
 2333POPC   C3A32321   3.466  28.324   8.171
 2333POPC   C4A32322   3.431  28.339   7.724
 2333POPC   C1B32323   3.742  28.342   8.682
 2333POPC   C2B32324   3.790  28.648   8.390
 2333POPC   C3B32325   3.849  28.651   7.972
 2333POPC   C4B32326   3.938  28.355   7.689
 2334POPC   NC332327  20.006   4.514   9.876
 2334POPC   PO432328  19.890   4.001   9.422
 2334POPC   GL132329  19.761   4.136   9.053
 2334POPC   GL232330  19.794   4.495   8.965
 2334POPC   C1A32331  19.739   4.118   8.645
 2334POPC   D2A32332  19.758   4.384   8.350
 2334POPC   C3A32333  19.776   4.102   8.049
 2334POPC   C4A32334  19.922   3.936   7.707
 2334POPC   C1B32335  19.790   4.811   8.650
 2334POPC   C2B32336  19.877   4.855   8.209
 2334POPC   C3B32337  19.819   4.608   7.848
 2334POPC   C4B32338  19.959   4.421   7.450
 2335POPC   NC332339  41.816  14.026   9.220
 2335POPC   PO432340  41.775  14.636   9.469
 2335POPC   GL132341  41.562  14.501   9.112
 2335POPC   GL232342  41.300  14.289   9.132
 2335POPC   C1A32343  41.578  14.326   8.690
 2335POPC   D2A32344  41.429  14.062   8.380
 2335POPC   C3A32345  41.552  14.236   7.996
 2335POPC   C4A32346  41.784  14.349   7.669
 2335POPC   C1B32347  41.085  14.177   8.744
 2335POPC   C2B32348  40.952  14.238   8.314
 2335POPC   C3B32349  41.107  14.020   7.971
 2335POPC   C4B32350  41.247  14.180   7.555
 2336POPC   NC332351   5.792  10.148   9.567
 2336POPC   PO432352   5.541   9.521   9.336
 2336POPC   GL132353   5.756   9.826   9.078
 2336POPC   GL232354   5.580  10.121   9.112
 2336POPC   C1A32355   5.971   9.797   8.661
 2336POPC   D2A32356   5.774   9.573   8.334
 2336POPC   C3A32357   5.810   9.671   7.908
 2336POPC   C4A32358   5.772   9.848   7.491
 2336POPC   C1B32359   5.749  10.255   8.748
 2336POPC   C2B32360   5.642  10.081   8.356
 2336POPC   C3B32361   5.822  10.170   8.005
 2336POPC   C4B32362   5.862  10.347   7.635
 2337POPC   NC332363  35.722  35.562   9.328
 2337POPC   PO432364  36.330  35.687   9.470
 2337POPC   GL132365  36.199  35.399   9.121
 2337POPC   GL232366  36.323  35.060   9.072
 2337POPC   C1A32367  36.107  35.507   8.678
 2337POPC   D2A32368  35.990  35.899   8.424
 2337POPC   C3A32369  35.866  35.804   7.983
 2337POPC   C4A32370  35.992  35.431   7.732
 2337POPC   C1B32371  36.449  35.041   8.640
 2337POPC   C2B32372  36.398  34.985   8.187
 2337POPC   C3B32373  36.471  35.152   7.761
 2337POPC   C4B32374  36.450  34.928   7.367
 2338POPC   NC332375   4.900   6.372   9.532
 2338POPC   PO432376   5.029   5.732   9.730
 2338POPC   GL132377   5.014   5.750   9.292
 2338POPC   GL232378   4.947   6.035   9.146
 2338POPC   C1A32379   5.042   5.623   8.852
 2338POPC   D2A32380   4.953   5.628   8.414
 2338POPC   C3A32381   5.279   5.594   8.071
 2338POPC   C4A32382   5.337   5.718   7.619
 2338POPC   C1B32383   5.198   6.109   8.764
 2338POPC   C2B32384   5.350   6.001   8.361
 2338POPC   C3B32385   5.286   6.120   7.938
 2338POPC   C4B32386   5.326   6.354   7.550
 2339POPC   NC332387  36.988  44.916   9.839
 2339POPC   PO432388  36.767  44.364   9.541
 2339POPC   GL132389  36.931  44.631   9.255
 2339POPC   GL232390  36.618  44.832   9.232
 2339POPC   C1A32391  37.148  44.540   8.868
 2339POPC   D2A32392  37.294  44.396   8.459
 2339POPC   C3A32393  37.029  44.501   8.116
 2339POPC   C4A32394  36.890  44.389   7.705
 2339POPC   C1B32395  36.638  44.626   8.814
 2339POPC   C2B32396  36.667  44.827   8.404
 2339POPC   C3B32397  36.600  44.749   7.963
 2339POPC   C4B32398  36.602  44.981   7.594
 2340POPC   NC332399  40.909  17.389   9.543
 2340POPC   PO432400  40.282  17.561   9.471
 2340POPC   GL132401  40.554  17.401   9.190
 2340POPC   GL232402  40.805  17.648   9.102
 2340POPC   C1A32403  40.503  17.271   8.803
 2340POPC   D2A32404  40.473  17.553   8.477
 2340POPC   C3A32405  40.498  17.505   8.052
 2340POPC   C4A32406  40.726  17.629   7.685
 2340POPC   C1B32407  40.954  17.459   8.716
 2340POPC   C2B32408  40.982  17.553   8.298
 2340POPC   C3B32409  41.119  17.842   7.998
 2340POPC   C4B32410  41.224  17.754   7.533
 2341POPC   NC332411  36.751  17.609   9.458
 2341POPC   PO432412  37.448  17.547   9.471
 2341POPC   GL132413  37.161  17.703   9.114
 2341POPC   GL232414  36.998  17.388   9.064
 2341POPC   C1A32415  36.829  17.721   8.758
 2341POPC   D2A32416  36.829  17.448   8.414
 2341POPC   C3A32417  36.914  17.641   8.027
 2341POPC   C4A32418  36.857  17.791   7.636
 2341POPC   C1B32419  36.929  17.083   8.766
 2341POPC   C2B32420  36.990  16.894   8.406
 2341POPC   C3B32421  37.026  17.134   8.058
 2341POPC   C4B32422  36.737  17.265   7.731
 2342POPC   NC332423  23.757   0.640   9.599
 2342POPC   PO432424  23.384   0.122   9.599
 2342POPC   GL132425  23.385   0.449   9.282
 2342POPC   GL232426  23.743   0.426   9.124
 2342POPC   C1A32427  23.305   0.365   8.873
 2342POPC   D2A32428  23.637   0.374   8.571
 2342POPC   C3A32429  23.637   0.408   8.122
 2342POPC   C4A32430  23.528   0.212   7.714
 2342POPC   C1B32431  24.008   0.654   8.818
 2342POPC   C2B32432  23.985   0.913   8.457
 2342POPC   C3B32433  24.117   0.748   8.078
 2342POPC   C4B32434  24.002   0.437   7.762
 2343POPC   NC332435  28.022  37.134   9.929
 2343POPC   PO432436  28.363  36.709   9.500
 2343POPC   GL132437  28.380  36.844   9.097
 2343POPC   GL232438  28.134  36.600   9.037
 2343POPC   C1A32439  28.212  37.165   8.781
 2343POPC   D2A32440  28.336  37.371   8.391
 2343POPC   C3A32441  28.555  37.215   8.018
 2343POPC   C4A32442  28.561  37.038   7.602
 2343POPC   C1B32443  28.303  36.705   8.626
 2343POPC   C2B32444  28.292  36.862   8.245
 2343POPC   C3B32445  28.116  36.954   7.843
 2343POPC   C4B32446  28.187  36.703   7.459
 2344POPC   NC332447  38.022  15.424   9.824
 2344POPC   PO432448  37.698  14.879   9.546
 2344POPC   GL132449  37.523  15.065   9.153
 2344POPC   GL232450  37.521  15.423   9.166
 2344POPC   C1A32451  37.700  15.037   8.726
 2344POPC   D2A32452  37.926  15.071   8.312
 2344POPC   C3A32453  37.646  14.957   7.967
 2344POPC   C4A32454  37.469  14.768   7.603
 2344POPC   C1B32455  37.694  15.575   8.756
 2344POPC   C2B32456  37.652  15.507   8.298
 2344POPC   C3B32457  37.885  15.416   7.896
 2344POPC   C4B32458  37.988  15.618   7.503
 2345POPC   NC332459  43.417   0.502   9.498
 2345POPC   PO432460  42.817   0.706   9.857
 2345POPC   GL132461  42.950   0.664   9.376
 2345POPC   GL232462  42.990   0.368   9.253
 2345POPC   C1A32463  43.012   0.731   8.879
 2345POPC   D2A32464  42.979   0.976   8.502
 2345POPC   C3A32465  43.176   0.868   8.134
 2345POPC   C4A32466  43.258   0.628   7.805
 2345POPC   C1B32467  43.104   0.226   8.844
 2345POPC   C2B32468  43.130   0.424   8.432
 2345POPC   C3B32469  43.095   0.180   8.038
 2345POPC   C4B32470  43.178   0.184   7.594
 2346POPC   NC332471  35.855  19.944   9.753
 2346POPC   PO432472  36.350  19.791   9.324
 2346POPC   GL132473  36.010  19.671   9.139
 2346POPC   GL232474  35.815  19.957   9.228
 2346POPC   C1A32475  35.914  19.647   8.711
 2346POPC   D2A32476  35.935  19.587   8.269
 2346POPC   C3A32477  36.262  19.702   7.990
 2346POPC   C4A32478  36.026  19.737   7.608
 2346POPC   C1B32479  35.880  20.152   8.838
 2346POPC   C2B32480  35.992  20.076   8.417
 2346POPC   C3B32481  35.962  20.121   7.996
 2346POPC   C4B32482  36.296  20.157   7.698
 2347POPC   NC332483   7.364  31.885   9.707
 2347POPC   PO432484   7.041  32.281   9.235
 2347POPC   GL132485   7.438  32.310   9.039
 2347POPC   GL232486   7.565  31.943   9.101
 2347POPC   C1A32487   7.319  32.492   8.621
 2347POPC   D2A32488   7.003  32.319   8.318
 2347POPC   C3A32489   7.081  32.397   7.881
 2347POPC   C4A32490   7.322  32.262   7.517
 2347POPC   C1B32491   7.369  31.980   8.666
 2347POPC   C2B32492   7.544  32.153   8.327
 2347POPC   C3B32493   7.605  32.227   7.940
 2347POPC   C4B32494   7.610  31.876   7.714
 2348POPC   NC332495  25.832   2.943   9.458
 2348POPC   PO432496  26.335   2.440   9.402
 2348POPC   GL132497  26.155   2.735   9.138
 2348POPC   GL232498  25.783   2.603   9.090
 2348POPC   C1A32499  26.108   2.884   8.727
 2348POPC   D2A32500  26.183   2.631   8.348
 2348POPC   C3A32501  26.100   2.798   7.936
 2348POPC   C4A32502  26.366   3.070   7.678
 2348POPC   C1B32503  25.988   2.378   8.793
 2348POPC   C2B32504  25.882   2.226   8.416
 2348POPC   C3B32505  25.843   2.332   8.018
 2348POPC   C4B32506  25.801   2.493   7.641
 2349POPC   NC332507   7.075  11.226   9.404
 2349POPC   PO432508   6.484  11.426   9.378
 2349POPC   GL132509   6.741  11.403   9.072
 2349POPC   GL232510   6.930  11.663   9.181
 2349POPC   C1A32511   6.688  11.318   8.692
 2349POPC   D2A32512   6.471  11.247   8.363
 2349POPC   C3A32513   6.655  11.342   8.011
 2349POPC   C4A32514   6.450  11.390   7.654
 2349POPC   C1B32515   6.880  11.793   8.751
 2349POPC   C2B32516   6.962  11.599   8.356
 2349POPC   C3B32517   7.055  11.776   7.953
 2349POPC   C4B32518   6.879  11.658   7.562
 2350POPC   NC332519  27.281  30.065   9.552
 2350POPC   PO432520  27.877  29.767   9.524
 2350POPC   GL132521  27.564  29.743   9.206
 2350POPC   GL232522  27.433  30.047   9.072
 2350POPC   C1A32523  27.569  29.628   8.767
 2350POPC   D2A32524  27.389  29.643   8.340
 2350POPC   C3A32525  27.704  29.681   8.025
 2350POPC   C4A32526  27.610  29.949   7.665
 2350POPC   C1B32527  27.472  30.116   8.648
 2350POPC   C2B32528  27.514  30.152   8.249
 2350POPC   C3B32529  27.546  30.362   7.915
 2350POPC   C4B32530  27.272  30.388   7.626
 2351POPC   NC332531   9.650  28.286   9.474
 2351POPC   PO432532   9.286  28.574   9.904
 2351POPC   GL132533   9.516  28.747   9.353
 2351POPC   GL232534   9.470  28.455   9.036
 2351POPC   C1A32535   9.744  28.838   8.914
 2351POPC   D2A32536   9.562  28.791   8.487
 2351POPC   C3A32537   9.837  28.603   8.145
 2351POPC   C4A32538  10.067  28.784   7.809
 2351POPC   C1B32539   9.383  28.157   8.677
 2351POPC   C2B32540   9.256  28.211   8.222
 2351POPC   C3B32541   9.567  28.184   7.882
 2351POPC   C4B32542   9.944  27.929   7.890
 2352POPC   NC332543  38.215  20.793   9.353
 2352POPC   PO432544  38.362  21.336   9.753
 2352POPC   GL132545  38.438  21.287   9.312
 2352POPC   GL232546  38.763  21.152   9.325
 2352POPC   C1A32547  38.411  21.168   8.857
 2352POPC   D2A32548  38.369  21.401   8.466
 2352POPC   C3A32549  38.302  21.215   8.055
 2352POPC   C4A32550  38.284  21.546   7.752
 2352POPC   C1B32551  38.819  21.461   8.951
 2352POPC   C2B32552  38.889  21.474   8.493
 2352POPC   C3B32553  38.726  21.536   8.065
 2352POPC   C4B32554  38.740  21.279   7.699
 2353POPC   NC332555  36.343  41.068   9.486
 2353POPC   PO432556  35.703  40.801   9.482
 2353POPC   GL132557  35.935  40.813   9.111
 2353POPC   GL232558  35.860  41.139   9.060
 2353POPC   C1A32559  36.301  40.668   8.847
 2353POPC   D2A32560  36.554  40.633   8.460
 2353POPC   C3A32561  36.319  40.551   8.073
 2353POPC   C4A32562  36.475  40.412   7.681
 2353POPC   C1B32563  35.749  41.065   8.618
 2353POPC   C2B32564  36.068  40.998   8.306
 2353POPC   C3B32565  36.482  41.042   8.134
 2353POPC   C4B32566  36.467  40.933   7.712
 2354POPC   NC332567  19.234  18.771   9.930
 2354POPC   PO432568  18.855  18.346   9.501
 2354POPC   GL132569  19.005  18.368   9.116
 2354POPC   GL232570  19.048  18.020   9.126
 2354POPC   C1A32571  19.071  18.481   8.709
 2354POPC   D2A32572  19.184  18.254   8.354
 2354POPC   C3A32573  19.266  18.485   7.960
 2354POPC   C4A32574  19.458  18.259   7.610
 2354POPC   C1B32575  18.675  18.136   8.837
 2354POPC   C2B32576  18.673  18.131   8.413
 2354POPC   C3B32577  18.819  18.192   8.003
 2354POPC   C4B32578  18.666  17.960   7.694
 2355POPC   NC332579  15.448  15.017   9.502
 2355POPC   PO432580  14.806  15.346   9.555
 2355POPC   GL132581  15.056  15.164   9.220
 2355POPC   GL232582  14.852  14.871   9.180
 2355POPC   C1A32583  15.320  15.059   8.809
 2355POPC   D2A32584  15.430  15.129   8.341
 2355POPC   C3A32585  15.179  14.969   7.939
 2355POPC   C4A32586  15.283  15.125   7.493
 2355POPC   C1B32587  14.787  15.162   8.816
 2355POPC   C2B32588  14.933  15.185   8.410
 2355POPC   C3B32589  14.719  15.137   8.040
 2355POPC   C4B32590  14.799  15.208   7.636
 2356POPC   NC332591  25.418  40.867   9.678
 2356POPC   PO432592  24.742  40.823   9.630
 2356POPC   GL132593  25.048  40.804   9.251
 2356POPC   GL232594  25.349  40.993   9.184
 2356POPC   C1A32595  25.230  40.632   8.855
 2356POPC   D2A32596  25.399  40.617   8.435
 2356POPC   C3A32597  25.122  40.757   8.126
 2356POPC   C4A32598  25.119  40.874   7.713
 2356POPC   C1B32599  25.553  41.050   8.785
 2356POPC   C2B32600  25.443  41.124   8.346
 2356POPC   C3B32601  25.585  40.886   7.992
 2356POPC   C4B32602  25.726  40.876   7.586
 2357POPC   NC332603  20.797   8.650   9.430
 2357POPC   PO432604  20.242   8.204   9.519
 2357POPC   GL132605  20.527   8.293   9.161
 2357POPC   GL232606  20.607   7.998   9.006
 2357POPC   C1A32607  20.696   8.434   8.744
 2357POPC   D2A32608  20.472   8.415   8.327
 2357POPC   C3A32609  20.705   8.309   7.935
 2357POPC   C4A32610  20.995   7.990   7.807
 2357POPC   C1B32611  20.308   7.833   8.696
 2357POPC   C2B32612  20.316   7.819   8.249
 2357POPC   C3B32613  20.106   7.995   7.910
 2357POPC   C4B32614  20.265   8.313   7.665
 2358POPC   NC332615  38.312   1.614   9.374
 2358POPC   PO432616  38.505   0.999   9.481
 2358POPC   GL132617  38.557   1.116   9.074
 2358POPC   GL232618  38.684   1.421   9.079
 2358POPC   C1A32619  38.384   1.321   8.688
 2358POPC   D2A32620  38.275   1.109   8.313
 2358POPC   C3A32621  38.534   1.022   7.991
 2358POPC   C4A32622  38.266   1.136   7.658
 2358POPC   C1B32623  38.812   1.633   8.704
 2358POPC   C2B32624  38.699   1.459   8.305
 2358POPC   C3B32625  38.349   1.535   8.053
 2358POPC   C4B32626  38.479   1.623   7.694
 2359POPC   NC332627  29.711  11.007   9.351
 2359POPC   PO432628  29.594  10.353   9.456
 2359POPC   GL132629  29.843  10.519   9.112
 2359POPC   GL232630  30.066  10.809   9.068
 2359POPC   C1A32631  30.026  10.428   8.711
 2359POPC   D2A32632  30.013  10.390   8.277
 2359POPC   C3A32633  30.277  10.552   7.975
 2359POPC   C4A32634  30.092  10.546   7.597
 2359POPC   C1B32635  29.854  10.933   8.694
 2359POPC   C2B32636  29.730  10.808   8.284
 2359POPC   C3B32637  29.842  10.901   7.858
 2359POPC   C4B32638  29.627  10.739   7.482
 2360POPC   NC332639  23.159  42.937   9.446
 2360POPC   PO432640  22.566  42.984   9.728
 2360POPC   GL132641  22.668  43.283   9.310
 2360POPC   GL232642  23.029  43.408   9.242
 2360POPC   C1A32643  22.736  43.355   8.825
 2360POPC   D2A32644  22.949  43.122   8.444
 2360POPC   C3A32645  22.921  43.254   8.016
 2360POPC   C4A32646  22.822  43.126   7.588
 2360POPC   C1B32647  23.238  43.294   8.837
 2360POPC   C2B32648  23.452  43.122   8.489
 2360POPC   C3B32649  23.389  43.058   8.077
 2360POPC   C4B32650  23.343  43.289   7.749
 2361POPC   NC332651   6.610  32.370   9.429
 2361POPC   PO432652   6.802  31.729   9.561
 2361POPC   GL132653   6.613  31.976   9.115
 2361POPC   GL232654   6.316  32.163   9.093
 2361POPC   C1A32655   6.586  32.068   8.656
 2361POPC   D2A32656   6.400  32.040   8.242
 2361POPC   C3A32657   6.732  32.003   7.942
 2361POPC   C4A32658   6.811  32.132   7.525
 2361POPC   C1B32659   6.427  32.544   8.820
 2361POPC   C2B32660   6.614  32.680   8.415
 2361POPC   C3B32661   6.567  32.491   8.037
 2361POPC   C4B32662   6.333  32.297   7.740
 2362POPC   NC332663  26.423  42.872   9.340
 2362POPC   PO432664  27.010  43.084   9.432
 2362POPC   GL132665  26.748  43.212   9.099
 2362POPC   GL232666  27.016  43.448   9.025
 2362POPC   C1A32667  26.594  43.013   8.706
 2362POPC   D2A32668  26.883  42.813   8.392
 2362POPC   C3A32669  26.720  42.830   7.975
 2362POPC   C4A32670  26.612  43.202   7.699
 2362POPC   C1B32671  27.027  43.251   8.614
 2362POPC   C2B32672  26.763  43.285   8.238
 2362POPC   C3B32673  26.896  43.557   7.915
 2362POPC   C4B32674  27.013  43.541   7.503
 2363POPC   NC332675  40.889  32.777   9.532
 2363POPC   PO432676  40.445  33.229   9.485
 2363POPC   GL132677  40.477  33.068   9.083
 2363POPC   GL232678  40.804  32.924   9.062
 2363POPC   C1A32679  40.505  32.892   8.664
 2363POPC   D2A32680  40.831  33.012   8.387
 2363POPC   C3A32681  40.653  33.269   8.100
 2363POPC   C4A32682  40.495  33.064   7.748
 2363POPC   C1B32683  40.948  32.641   8.736
 2363POPC   C2B32684  41.183  32.660   8.328
 2363POPC   C3B32685  41.051  32.836   7.908
 2363POPC   C4B32686  40.860  32.780   7.479
 2364POPC   NC332687  16.858  44.876   9.478
 2364POPC   PO432688  16.562  44.280   9.500
 2364POPC   GL132689  16.700  44.540   9.108
 2364POPC   GL232690  16.601  44.931   9.056
 2364POPC   C1A32691  16.633  44.650   8.654
 2364POPC   D2A32692  16.729  44.716   8.224
 2364POPC   C3A32693  16.533  44.386   7.977
 2364POPC   C4A32694  16.773  44.180   7.636
 2364POPC   C1B32695  16.962   0.072   8.765
 2364POPC   C2B32696  16.910   0.205   8.316
 2364POPC   C3B32697  17.060   0.045   7.934
 2364POPC   C4B32698  16.871  44.692   7.718
 2365POPC   NC332699  29.918  10.010   9.403
 2365POPC   PO432700  29.607   9.353   9.433
 2365POPC   GL132701  29.944   9.548   9.155
 2365POPC   GL232702  30.296   9.436   9.179
 2365POPC   C1A32703  30.021   9.845   8.789
 2365POPC   D2A32704  29.727  10.033   8.509
 2365POPC   C3A32705  29.756  10.017   8.050
 2365POPC   C4A32706  30.176  10.071   7.840
 2365POPC   C1B32707  30.240   9.389   8.729
 2365POPC   C2B32708  29.876   9.521   8.423
 2365POPC   C3B32709  29.894   9.533   7.995
 2365POPC   C4B32710  29.960   9.254   7.699
 2366POPC   NC332711   5.186   5.309   9.731
 2366POPC   PO432712   5.005   4.738   9.539
 2366POPC   GL132713   4.964   5.146   9.279
 2366POPC   GL232714   5.276   5.327   9.210
 2366POPC   C1A32715   4.857   5.153   8.839
 2366POPC   D2A32716   5.010   4.990   8.449
 2366POPC   C3A32717   4.903   5.241   8.081
 2366POPC   C4A32718   4.620   5.195   7.739
 2366POPC   C1B32719   5.399   5.166   8.827
 2366POPC   C2B32720   5.450   5.245   8.406
 2366POPC   C3B32721   5.388   5.037   8.040
 2366POPC   C4B32722   5.210   5.226   7.675
 2367POPC   NC332723  41.768  10.204   9.792
 2367POPC   PO432724  41.623  10.743   9.455
 2367POPC   GL132725  41.543  10.724   9.053
 2367POPC   GL232726  41.466  10.362   9.062
 2367POPC   C1A32727  41.549  10.648   8.632
 2367POPC   D2A32728  41.390  10.402   8.312
 2367POPC   C3A32729  41.667  10.617   8.067
 2367POPC   C4A32730  41.641  10.784   7.669
 2367POPC   C1B32731  41.739  10.171   8.746
 2367POPC   C2B32732  41.898  10.253   8.378
 2367POPC   C3B32733  41.709  10.095   8.027
 2367POPC   C4B32734  41.470  10.286   7.728
 2368POPC   NC332735  40.413  31.098   9.366
 2368POPC   PO432736  41.086  31.066   9.597
 2368POPC   GL132737  40.850  30.770   9.282
 2368POPC   GL232738  40.511  30.631   9.227
 2368POPC   C1A32739  40.853  30.694   8.838
 2368POPC   D2A32740  41.120  30.572   8.504
 2368POPC   C3A32741  40.905  30.409   8.178
 2368POPC   C4A32742  40.895  30.607   7.807
 2368POPC   C1B32743  40.334  30.775   8.809
 2368POPC   C2B32744  40.505  30.680   8.379
 2368POPC   C3B32745  40.445  30.809   7.921
 2368POPC   C4B32746  40.615  31.042   7.551
 2369POPC   NC332747  16.902  14.822   9.532
 2369POPC   PO432748  16.786  15.411   9.721
 2369POPC   GL132749  16.652  15.468   9.242
 2369POPC   GL232750  16.601  15.106   9.099
 2369POPC   C1A32751  16.760  15.484   8.775
 2369POPC   D2A32752  17.012  15.308   8.437
 2369POPC   C3A32753  16.812  15.312   8.041
 2369POPC   C4A32754  16.954  15.464   7.658
 2369POPC   C1B32755  16.864  14.921   8.751
 2369POPC   C2B32756  16.967  14.791   8.334
 2369POPC   C3B32757  16.635  14.841   8.038
 2369POPC   C4B32758  16.527  15.035   7.650
 2370POPC   NC332759  32.388  10.242   9.508
 2370POPC   PO432760  32.508  10.908   9.484
 2370POPC   GL132761  32.227  10.674   9.211
 2370POPC   GL232762  32.271  10.367   9.042
 2370POPC   C1A32763  32.105  10.744   8.767
 2370POPC   D2A32764  32.050  10.960   8.357
 2370POPC   C3A32765  32.201  10.729   8.007
 2370POPC   C4A32766  32.101  10.560   7.599
 2370POPC   C1B32767  32.477  10.315   8.677
 2370POPC   C2B32768  32.477  10.338   8.232
 2370POPC   C3B32769  32.463  10.230   7.808
 2370POPC   C4B32770  32.205  10.088   7.435
 2371POPC   NC332771  43.874  12.282   9.520
 2371POPC   PO432772  44.253  11.799   9.278
 2371POPC   GL132773  43.959  12.076   9.054
 2371POPC   GL232774  43.664  12.289   9.059
 2371POPC   C1A32775  43.798  11.953   8.667
 2371POPC   D2A32776  44.066  11.889   8.324
 2371POPC   C3A32777  43.837  11.950   7.960
 2371POPC   C4A32778  43.393  11.821   7.994
 2371POPC   C1B32779  43.808  12.468   8.716
 2371POPC   C2B32780  43.827  12.360   8.332
 2371POPC   C3B32781  43.573  12.358   8.034
 2371POPC   C4B32782  43.668  12.480   7.679
 2372POPC   NC332783  22.212  32.861   9.657
 2372POPC   PO432784  22.480  33.385   9.302
 2372POPC   GL132785  22.172  33.229   9.054
 2372POPC   GL232786  22.070  32.931   9.174
 2372POPC   C1A32787  22.125  33.054   8.683
 2372POPC   D2A32788  22.231  32.845   8.356
 2372POPC   C3A32789  22.185  33.043   7.975
 2372POPC   C4A32790  22.449  33.044   7.601
 2372POPC   C1B32791  21.817  32.669   8.929
 2372POPC   C2B32792  21.750  32.739   8.541
 2372POPC   C3B32793  21.791  32.703   8.114
 2372POPC   C4B32794  21.933  32.710   7.716
 2373POPC   NC332795   2.701  10.425   9.535
 2373POPC   PO432796   3.234  10.807   9.424
 2373POPC   GL132797   3.003  10.596   9.141
 2373POPC   GL232798   2.696  10.725   9.106
 2373POPC   C1A32799   2.996  10.297   8.828
 2373POPC   D2A32800   3.204  10.194   8.440
 2373POPC   C3A32801   2.968  10.306   8.089
 2373POPC   C4A32802   3.059  10.292   7.670
 2373POPC   C1B32803   2.806  10.739   8.675
 2373POPC   C2B32804   2.596  10.609   8.314
 2373POPC   C3B32805   2.656  10.693   7.886
 2373POPC   C4B32806   2.475  10.709   7.457
 2374POPC   NC332807  44.553  21.186   9.652
 2374POPC   PO432808  44.959  21.721   9.839
 2374POPC   GL132809  44.645  21.561   9.335
 2374POPC   GL232810  44.689  21.238   9.163
 2374POPC   C1A32811  44.609  21.613   8.828
 2374POPC   D2A32812  44.923  21.509   8.422
 2374POPC   C3A32813  44.741  21.523   7.999
 2374POPC   C4A32814  44.580  21.825   7.714
 2374POPC   C1B32815  44.755  21.146   8.723
 2374POPC   C2B32816  44.489  21.136   8.346
 2374POPC   C3B32817  44.375  21.129   7.899
 2374POPC   C4B32818  44.504  20.873   7.532
 2375POPC   NC332819  34.729  28.750   9.499
 2375POPC   PO432820  34.569  29.373   9.537
 2375POPC   GL132821  34.539  29.224   9.171
 2375POPC   GL232822  34.728  29.481   9.015
 2375POPC   C1A32823  34.656  28.957   8.866
 2375POPC   D2A32824  34.529  28.909   8.469
 2375POPC   C3A32825  34.751  29.092   8.154
 2375POPC   C4A32826  34.766  29.016   7.736
 2375POPC   C1B32827  34.682  29.396   8.612
 2375POPC   C2B32828  34.402  29.409   8.310
 2375POPC   C3B32829  34.484  29.449   7.892
 2375POPC   C4B32830  34.380  29.336   7.476
 2376POPC   NC332831  21.137  35.714   9.514
 2376POPC   PO432832  21.035  35.021   9.602
 2376POPC   GL132833  21.119  35.271   9.203
 2376POPC   GL232834  21.377  35.524   9.118
 2376POPC   C1A32835  21.178  35.252   8.731
 2376POPC   D2A32836  21.460  35.269   8.375
 2376POPC   C3A32837  21.204  35.326   8.032
 2376POPC   C4A32838  21.094  35.379   7.627
 2376POPC   C1B32839  21.554  35.648   8.731
 2376POPC   C2B32840  21.714  35.805   8.322
 2376POPC   C3B32841  21.563  35.671   7.924
 2376POPC   C4B32842  21.470  35.790   7.518
 2377POPC   NC332843   5.067  30.150   9.585
 2377POPC   PO432844   4.656  29.690   9.236
 2377POPC   GL132845   5.095  29.770   9.020
 2377POPC   GL232846   5.227  30.089   9.087
 2377POPC   C1A32847   5.243  29.761   8.587
 2377POPC   D2A32848   4.954  29.984   8.277
 2377POPC   C3A32849   4.756  29.813   7.878
 2377POPC   C4A32850   4.722  29.828   7.386
 2377POPC   C1B32851   5.327  30.257   8.708
 2377POPC   C2B32852   5.437  30.141   8.275
 2377POPC   C3B32853   5.310  30.353   7.898
 2377POPC   C4B32854   5.073  30.124   7.580
 2378POPC   NC332855  22.695  18.623   9.293
 2378POPC   PO432856  22.380  18.165   9.672
 2378POPC   GL132857  22.739  18.013   9.341
 2378POPC   GL232858  23.132  18.076   9.186
 2378POPC   C1A32859  22.732  18.032   8.885
 2378POPC   D2A32860  22.736  17.967   8.445
 2378POPC   C3A32861  22.776  18.221   8.060
 2378POPC   C4A32862  22.545  18.155   7.681
 2378POPC   C1B32863  23.172  18.245   8.711
 2378POPC   C2B32864  23.302  18.369   8.282
 2378POPC   C3B32865  23.152  18.507   7.862
 2378POPC   C4B32866  22.997  18.230   7.498
 2379POPC   NC332867  42.198  12.692   9.532
 2379POPC   PO432868  42.625  12.193   9.681
 2379POPC   GL132869  42.630  12.461   9.218
 2379POPC   GL232870  42.488  12.823   9.139
 2379POPC   C1A32871  42.601  12.612   8.715
 2379POPC   D2A32872  42.745  12.777   8.273
 2379POPC   C3A32873  42.539  12.715   7.906
 2379POPC   C4A32874  42.196  12.441   7.820
 2379POPC   C1B32875  42.189  12.928   8.750
 2379POPC   C2B32876  42.096  12.930   8.257
 2379POPC   C3B32877  42.107  12.978   7.773
 2379POPC   C4B32878  42.116  13.115   7.334
 2380POPC   NC332879  42.938   3.981   9.415
 2380POPC   PO432880  43.426   4.302   9.674
 2380POPC   GL132881  43.180   4.424   9.244
 2380POPC   GL232882  43.221   4.784   9.203
 2380POPC   C1A32883  43.132   4.228   8.796
 2380POPC   D2A32884  43.361   4.035   8.419
 2380POPC   C3A32885  43.185   3.995   7.999
 2380POPC   C4A32886  42.977   4.286   7.724
 2380POPC   C1B32887  43.007   4.739   8.796
 2380POPC   C2B32888  42.943   4.576   8.337
 2380POPC   C3B32889  43.065   4.746   7.915
 2380POPC   C4B32890  43.093   4.734   7.450
 2381POPC   NC332891  13.273  27.444   9.734
 2381POPC   PO432892  13.777  27.841   9.544
 2381POPC   GL132893  13.647  27.759   9.155
 2381POPC   GL232894  13.301  27.825   9.190
 2381POPC   C1A32895  13.813  27.572   8.775
 2381POPC   D2A32896  13.783  27.739   8.388
 2381POPC   C3A32897  13.695  27.537   8.011
 2381POPC   C4A32898  13.908  27.596   7.643
 2381POPC   C1B32899  13.292  27.574   8.814
 2381POPC   C2B32900  13.340  27.462   8.393
 2381POPC   C3B32901  13.213  27.305   7.994
 2381POPC   C4B32902  13.209  27.549   7.621
 2382POPC   NC332903  32.783  11.113   9.799
 2382POPC   PO432904  33.126  11.400   9.284
 2382POPC   GL132905  33.344  11.237   9.019
 2382POPC   GL232906  33.461  10.909   9.107
 2382POPC   C1A32907  33.136  11.318   8.640
 2382POPC   D2A32908  33.145  11.608   8.332
 2382POPC   C3A32909  33.093  11.348   7.989
 2382POPC   C4A32910  32.877  11.118   7.741
 2382POPC   C1B32911  33.567  11.003   8.641
 2382POPC   C2B32912  33.316  10.990   8.300
 2382POPC   C3B32913  33.218  10.813   7.963
 2382POPC   C4B32914  33.259  10.793   7.525
 2383POPC   NC332915   4.737  39.334   9.328
 2383POPC   PO432916   5.291  38.921   9.449
 2383POPC   GL132917   5.156  38.961   9.072
 2383POPC   GL232918   5.197  39.296   9.068
 2383POPC   C1A32919   5.121  39.044   8.625
 2383POPC   D2A32920   4.929  39.185   8.246
 2383POPC   C3A32921   5.201  39.165   7.913
 2383POPC   C4A32922   5.267  39.117   7.482
 2383POPC   C1B32923   5.145  39.570   8.720
 2383POPC   C2B32924   4.966  39.688   8.336
 2383POPC   C3B32925   4.992  39.615   7.914
 2383POPC   C4B32926   4.965  39.868   7.599
 2384POPC   NC332927  17.020  40.932   9.442
 2384POPC   PO432928  16.385  41.167   9.549
 2384POPC   GL132929  16.640  41.108   9.178
 2384POPC   GL232930  16.623  40.789   9.037
 2384POPC   C1A32931  16.949  41.125   8.809
 2384POPC   D2A32932  16.893  40.846   8.469
 2384POPC   C3A32933  16.883  41.011   8.058
 2384POPC   C4A32934  16.607  40.832   7.788
 2384POPC   C1B32935  16.523  40.510   8.677
 2384POPC   C2B32936  16.529  40.526   8.220
 2384POPC   C3B32937  16.932  40.503   8.065
 2384POPC   C4B32938  17.130  40.609   7.699
 2385POPC   NC332939  36.391  37.790   9.708
 2385POPC   PO432940  35.830  37.449   9.511
 2385POPC   GL132941  35.874  37.771   9.167
 2385POPC   GL232942  36.235  37.934   9.182
 2385POPC   C1A32943  36.046  37.704   8.735
 2385POPC   D2A32944  35.934  37.804   8.355
 2385POPC   C3A32945  36.039  37.597   7.980
 2385POPC   C4A32946  36.116  37.481   7.547
 2385POPC   C1B32947  36.301  38.127   8.780
 2385POPC   C2B32948  36.424  37.968   8.390
 2385POPC   C3B32949  36.260  38.052   7.955
 2385POPC   C4B32950  36.350  37.913   7.519
 2386POPC   NC332951  28.142   4.480   9.477
 2386POPC   PO432952  28.774   4.078   9.372
 2386POPC   GL132953  28.766   4.381   9.089
 2386POPC   GL232954  28.433   4.376   9.069
 2386POPC   C1A32955  28.716   4.205   8.677
 2386POPC   D2A32956  28.329   4.163   8.475
 2386POPC   C3A32957  28.305   4.306   8.054
 2386POPC   C4A32958  28.016   4.092   7.762
 2386POPC   C1B32959  28.081   4.465   8.834
 2386POPC   C2B32960  28.057   4.617   8.441
 2386POPC   C3B32961  27.844   4.570   8.075
 2386POPC   C4B32962  28.042   4.582   7.693
 2387POPC   NC332963  12.467  12.645   9.444
 2387POPC   PO432964  11.955  13.104   9.478
 2387POPC   GL132965  11.923  12.862   9.118
 2387POPC   GL232966  11.842  12.473   9.123
 2387POPC   C1A32967  11.806  12.990   8.740
 2387POPC   D2A32968  11.728  12.904   8.325
 2387POPC   C3A32969  11.997  13.111   8.055
 2387POPC   C4A32970  12.319  12.974   7.797
 2387POPC   C1B32971  12.119  12.563   8.768
 2387POPC   C2B32972  12.300  12.622   8.363
 2387POPC   C3B32973  12.293  12.484   7.957
 2387POPC   C4B32974  12.578  12.591   7.632
 2388POPC   NC332975  13.916  41.400   9.622
 2388POPC   PO432976  14.376  41.711   9.248
 2388POPC   GL132977  14.395  41.454   8.896
 2388POPC   GL232978  14.295  41.131   8.953
 2388POPC   C1A32979  14.614  41.425   8.525
 2388POPC   D2A32980  14.725  41.748   8.274
 2388POPC   C3A32981  14.363  41.759   8.058
 2388POPC   C4A32982  14.446  41.556   7.686
 2388POPC   C1B32983  13.962  41.234   8.696
 2388POPC   C2B32984  14.019  41.445   8.321
 2388POPC   C3B32985  14.079  41.270   7.925
 2388POPC   C4B32986  14.156  41.120   7.509
 2389POPC   NC332987  37.915  12.663   9.175
 2389POPC   PO432988  37.447  12.354   9.498
 2389POPC   GL132989  37.669  12.240   9.055
 2389POPC   GL232990  37.967  12.020   9.032
 2389POPC   C1A32991  37.626  12.020   8.631
 2389POPC   D2A32992  37.912  12.044   8.221
 2389POPC   C3A32993  37.605  12.099   7.884
 2389POPC   C4A32994  37.225  11.933   7.717
 2389POPC   C1B32995  38.033  12.310   8.659
 2389POPC   C2B32996  38.190  12.500   8.264
 2389POPC   C3B32997  37.957  12.472   7.888
 2389POPC   C4B32998  37.949  12.226   7.522
 2390POPC   NC332999  21.346  27.310   9.601
 2390POPC   PO433000  21.086  27.909   9.393
 2390POPC   GL133001  21.407  27.624   9.120
 2390POPC   GL233002  21.574  27.258   9.141
 2390POPC   C1A33003  21.586  27.747   8.704
 2390POPC   D2A33004  21.382  27.891   8.330
 2390POPC   C3A33005  21.231  27.610   8.058
 2390POPC   C4A33006  21.234  27.698   7.667
 2390POPC   C1B33007  21.700  27.234   8.696
 2390POPC   C2B33008  21.696  27.425   8.245
 2390POPC   C3B33009  21.559  27.297   7.788
 2390POPC   C4B33010  21.672  27.009   7.452
 2391POPC   NC333011  33.109  16.359   9.800
 2391POPC   PO433012  33.288  15.782   9.501
 2391POPC   GL133013  33.098  15.778   9.094
 2391POPC   GL233014  32.804  16.003   9.054
 2391POPC   C1A33015  33.205  15.929   8.688
 2391POPC   D2A33016  33.117  15.694   8.310
 2391POPC   C3A33017  33.071  15.946   7.957
 2391POPC   C4A33018  33.303  16.276   7.797
 2391POPC   C1B33019  32.732  15.774   8.681
 2391POPC   C2B33020  32.586  15.848   8.251
 2391POPC   C3B33021  32.586  15.904   7.798
 2391POPC   C4B33022  32.915  15.805   7.473
 2392POPC   NC333023  16.664  31.323   9.415
 2392POPC   PO433024  17.194  31.537   9.617
 2392POPC   GL133025  17.069  31.485   9.136
 2392POPC   GL233026  16.802  31.721   9.061
 2392POPC   C1A33027  17.057  31.614   8.654
 2392POPC   D2A33028  16.815  31.689   8.233
 2392POPC   C3A33029  16.863  31.371   7.861
 2392POPC   C4A33030  16.777  30.973   7.570
 2392POPC   C1B33031  16.505  31.794   8.758
 2392POPC   C2B33032  16.273  31.726   8.346
 2392POPC   C3B33033  16.370  31.651   7.928
 2392POPC   C4B33034  16.723  31.855   7.741
 2393POPC   NC333035  44.669  28.773   9.533
 2393POPC   PO433036  44.819  29.492   9.619
 2393POPC   GL133037  44.747  29.354   9.181
 2393POPC   GL233038  44.982  29.126   9.099
 2393POPC   C1A33039  44.513  29.147   8.817
 2393POPC   D2A33040  44.243  29.108   8.410
 2393POPC   C3A33041  44.413  29.228   7.988
 2393POPC   C4A33042  44.450  29.017   7.591
 2393POPC   C1B33043   0.003  29.288   8.702
 2393POPC   C2B33044  44.842  29.237   8.272
 2393POPC   C3B33045  44.909  29.227   7.792
 2393POPC   C4B33046   0.281  29.310   7.484
 2394POPC   NC333047  42.698  13.574   9.352
 2394POPC   PO433048  42.119  13.896   9.543
 2394POPC   GL133049  42.211  13.671   9.158
 2394POPC   GL233050  42.289  13.300   9.169
 2394POPC   C1A33051  42.404  13.689   8.749
 2394POPC   D2A33052  42.512  13.785   8.319
 2394POPC   C3A33053  42.256  13.976   7.993
 2394POPC   C4A33054  42.221  14.020   7.547
 2394POPC   C1B33055  42.595  13.229   8.816
 2394POPC   C2B33056  42.657  13.279   8.392
 2394POPC   C3B33057  42.433  13.293   8.023
 2394POPC   C4B33058  42.151  13.512   7.755
 2395POPC   NC333059   1.661  31.034   9.418
 2395POPC   PO433060   2.231  30.541   9.450
 2395POPC   GL133061   1.941  30.677   9.158
 2395POPC   GL233062   2.258  30.693   8.942
 2395POPC   C1A33063   1.800  30.717   8.737
 2395POPC   D2A33064   2.078  30.530   8.437
 2395POPC   C3A33065   1.907  30.581   8.043
 2395POPC   C4A33066   1.571  30.643   7.747
 2395POPC   C1B33067   2.243  31.001   8.618
 2395POPC   C2B33068   1.923  31.023   8.308
 2395POPC   C3B33069   1.801  31.090   7.914
 2395POPC   C4B33070   2.049  30.910   7.669
 2396POPC   NC333071  10.277   9.480   9.942
 2396POPC   PO433072  10.507   9.680   9.367
 2396POPC   GL133073  10.530   9.836   9.031
 2396POPC   GL233074  10.828   9.963   9.012
 2396POPC   C1A33075  10.598   9.667   8.666
 2396POPC   D2A33076  10.768   9.406   8.399
 2396POPC   C3A33077  10.528   9.560   8.097
 2396POPC   C4A33078  10.367   9.646   7.730
 2396POPC   C1B33079  10.854  10.161   8.699
 2396POPC   C2B33080  10.919   9.932   8.364
 2396POPC   C3B33081  10.776   9.990   8.004
 2396POPC   C4B33082  10.801   9.949   7.591
 2397POPC   NC333083   2.985   7.379   9.635
 2397POPC   PO433084   2.348   7.642   9.441
 2397POPC   GL133085   2.683   7.628   9.141
 2397POPC   GL233086   2.761   7.273   9.079
 2397POPC   C1A33087   2.781   7.569   8.682
 2397POPC   D2A33088   2.531   7.497   8.317
 2397POPC   C3A33089   2.745   7.490   7.906
 2397POPC   C4A33090   2.787   7.692   7.479
 2397POPC   C1B33091   2.532   7.123   8.693
 2397POPC   C2B33092   2.628   7.001   8.246
 2397POPC   C3B33093   2.676   6.970   7.810
 2397POPC   C4B33094   2.742   7.192   7.434
 2398POPC   NC333095   1.541  44.575   9.572
 2398POPC   PO433096   1.029  44.983   9.346
 2398POPC   GL133097   1.292   0.053   9.009
 2398POPC   GL233098   1.526  44.847   9.129
 2398POPC   C1A33099   1.275  44.833   8.617
 2398POPC   D2A33100   1.207  44.430   8.371
 2398POPC   C3A33101   1.038  44.525   7.965
 2398POPC   C4A33102   1.109  44.967   7.843
 2398POPC   C1B33103   1.723  44.620   8.817
 2398POPC   C2B33104   1.704  44.670   8.392
 2398POPC   C3B33105   1.519  44.684   8.022
 2398POPC   C4B33106   1.494  44.386   7.695
 2399POPC   NC333107  21.216  31.421   9.524
 2399POPC   PO433108  21.802  31.047   9.440
 2399POPC   GL133109  21.566  31.332   9.119
 2399POPC   GL233110  21.364  31.684   9.115
 2399POPC   C1A33111  21.453  31.383   8.666
 2399POPC   D2A33112  21.217  31.509   8.339
 2399POPC   C3A33113  21.157  31.199   8.035
 2399POPC   C4A33114  21.286  31.425   7.684
 2399POPC   C1B33115  21.743  31.731   8.866
 2399POPC   C2B33116  21.733  31.744   8.397
 2399POPC   C3B33117  21.554  31.788   7.955
 2399POPC   C4B33118  21.750  31.891   7.523
 2400POPC   NC333119  43.068  23.214   9.451
 2400POPC   PO433120  42.953  22.531   9.491
 2400POPC   GL133121  43.135  22.775   9.186
 2400POPC   GL233122  42.819  22.900   9.106
 2400POPC   C1A33123  43.221  22.989   8.798
 2400POPC   D2A33124  43.138  23.167   8.407
 2400POPC   C3A33125  43.296  22.969   8.035
 2400POPC   C4A33126  43.107  23.223   7.767
 2400POPC   C1B33127  42.708  23.044   8.706
 2400POPC   C2B33128  42.760  22.785   8.337
 2400POPC   C3B33129  42.803  22.833   7.892
 2400POPC   C4B33130  43.032  22.745   7.562
 2401POPC   NC333131   8.373  32.316   9.499
 2401POPC   PO433132   7.709  32.150   9.540
 2401POPC   GL133133   7.914  32.435   9.197
 2401POPC   GL233134   8.040  32.167   9.136
 2401POPC   C1A33135   8.264  32.464   8.813
 2401POPC   D2A33136   8.543  32.268   8.490
 2401POPC   C3A33137   8.499  32.377   8.036
 2401POPC   C4A33138   8.418  32.543   7.626
 2401POPC   C1B33139   7.883  32.118   8.717
 2401POPC   C2B33140   8.057  32.188   8.297
 2401POPC   C3B33141   8.089  32.088   7.859
 2401POPC   C4B33142   7.893  32.252   7.481
 2402POPC   NC333143   5.165  20.942   9.495
 2402POPC   PO433144   4.973  20.334   9.466
 2402POPC   GL133145   5.042  20.584   9.065
 2402POPC   GL233146   5.315  20.798   9.043
 2402POPC   C1A33147   5.006  20.778   8.618
 2402POPC   D2A33148   4.923  20.918   8.160
 2402POPC   C3A33149   4.926  20.629   7.799
 2402POPC   C4A33150   4.964  20.685   7.351
 2402POPC   C1B33151   5.545  20.773   8.682
 2402POPC   C2B33152   5.402  20.837   8.292
 2402POPC   C3B33153   5.514  20.794   7.884
 2402POPC   C4B33154   5.490  20.784   7.435
 2403POPC   NC333155  12.082  19.512   9.372
 2403POPC   PO433156  12.151  20.182   9.465
 2403POPC   GL133157  12.144  20.055   9.044
 2403POPC   GL233158  12.333  19.785   9.042
 2403POPC   C1A33159  11.987  19.905   8.648
 2403POPC   D2A33160  11.837  19.554   8.366
 2403POPC   C3A33161  11.636  19.686   7.979
 2403POPC   C4A33162  11.791  19.968   7.690
 2403POPC   C1B33163  12.467  19.647   8.677
 2403POPC   C2B33164  12.354  19.769   8.310
 2403POPC   C3B33165  12.058  20.016   8.137
 2403POPC   C4B33166  12.335  19.995   7.812
 2404POPC   NC333167   1.492   1.016   9.396
 2404POPC   PO433168   1.299   1.656   9.563
 2404POPC   GL133169   1.198   1.404   9.201
 2404POPC   GL233170   1.513   1.326   8.986
 2404POPC   C1A33171   1.089   1.501   8.783
 2404POPC   D2A33172   1.328   1.527   8.420
 2404POPC   C3A33173   1.089   1.328   8.104
 2404POPC   C4A33174   0.993   1.432   7.679
 2404POPC   C1B33175   1.335   1.030   8.726
 2404POPC   C2B33176   1.453   1.000   8.311
 2404POPC   C3B33177   1.300   0.895   7.924
 2404POPC   C4B33178   1.406   1.166   7.588
 2405POPC   NC333179  28.044  23.016   9.504
 2405POPC   PO433180  27.745  23.710   9.444
 2405POPC   GL133181  27.627  23.782   9.078
 2405POPC   GL233182  27.826  24.117   9.004
 2405POPC   C1A33183  27.468  23.551   8.723
 2405POPC   D2A33184  27.298  23.283   8.425
 2405POPC   C3A33185  27.435  23.444   8.045
 2405POPC   C4A33186  27.634  23.469   7.650
 2405POPC   C1B33187  27.449  24.060   8.718
 2405POPC   C2B33188  27.370  23.901   8.295
 2405POPC   C3B33189  27.596  23.906   7.900
 2405POPC   C4B33190  27.746  23.958   7.467
 2406POPC   NC333191  30.532   0.662   9.422
 2406POPC   PO433192  30.867   0.066   9.505
 2406POPC   GL133193  30.734   0.302   9.123
 2406POPC   GL233194  30.362   0.272   9.115
 2406POPC   C1A33195  30.932   0.517   8.767
 2406POPC   D2A33196  31.080   0.744   8.392
 2406POPC   C3A33197  30.915   0.575   8.018
 2406POPC   C4A33198  30.581   0.453   7.769
 2406POPC   C1B33199  30.425   0.633   8.807
 2406POPC   C2B33200  30.549   0.643   8.401
 2406POPC   C3B33201  30.530   0.891   8.065
 2406POPC   C4B33202  30.282   0.888   7.734
 2407POPC   NC333203  32.989  21.941   9.464
 2407POPC   PO433204  33.289  22.638   9.369
 2407POPC   GL133205  33.071  22.280   9.087
 2407POPC   GL233206  33.138  21.896   8.997
 2407POPC   C1A33207  32.896  22.280   8.661
 2407POPC   D2A33208  32.910  22.598   8.304
 2407POPC   C3A33209  32.890  22.349   7.936
 2407POPC   C4A33210  32.992  22.086   7.572
 2407POPC   C1B33211  32.706  21.842   8.842
 2407POPC   C2B33212  32.576  21.835   8.400
 2407POPC   C3B33213  32.394  21.952   8.005
 2407POPC   C4B33214  32.618  21.769   7.701
 2408POPC   NC333215  21.742  16.678   9.422
 2408POPC   PO433216  22.350  16.440   9.520
 2408POPC   GL133217  22.351  16.570   9.103
 2408POPC   GL233218  22.385  16.927   9.021
 2408POPC   C1A33219  22.349  16.570   8.663
 2408POPC   D2A33220  22.134  16.515   8.320
 2408POPC   C3A33221  22.171  16.708   7.955
 2408POPC   C4A33222  22.000  16.475   7.620
 2408POPC   C1B33223  21.989  16.910   8.830
 2408POPC   C2B33224  21.828  16.906   8.444
 2408POPC   C3B33225  21.789  17.115   8.097
 2408POPC   C4B33226  21.777  16.963   7.708
 2409POPC   NC333227   0.838  12.962   9.382
 2409POPC   PO433228   0.402  12.472   9.459
 2409POPC   GL133229   0.463  12.646   9.094
 2409POPC   GL233230   0.120  12.499   9.053
 2409POPC   C1A33231   0.647  12.872   8.733
 2409POPC   D2A33232   0.656  12.617   8.347
 2409POPC   C3A33233   0.591  12.870   8.013
 2409POPC   C4A33234   0.440  12.660   7.713
 2409POPC   C1B33235   0.232  12.582   8.639
 2409POPC   C2B33236   0.233  12.925   8.396
 2409POPC   C3B33237   0.070  12.842   8.034
 2409POPC   C4B33238  44.889  13.012   7.713
 2410POPC   NC333239  21.473   4.463   9.206
 2410POPC   PO433240  21.302   3.968   9.531
 2410POPC   GL133241  21.094   4.095   9.151
 2410POPC   GL233242  20.922   4.441   9.184
 2410POPC   C1A33243  21.199   4.022   8.702
 2410POPC   D2A33244  21.012   3.843   8.315
 2410POPC   C3A33245  21.122   3.992   7.883
 2410POPC   C4A33246  21.510   4.121   7.627
 2410POPC   C1B33247  20.995   4.732   8.840
 2410POPC   C2B33248  21.247   4.758   8.504
 2410POPC   C3B33249  21.180   4.787   8.086
 2410POPC   C4B33250  21.260   4.533   7.769
 2411POPC   NC333251   3.143   5.621   9.432
 2411POPC   PO433252   3.752   5.968   9.350
 2411POPC   GL133253   3.542   6.121   9.057
 2411POPC   GL233254   3.385   5.805   9.017
 2411POPC   C1A33255   3.651   6.149   8.642
 2411POPC   D2A33256   3.478   6.175   8.263
 2411POPC   C3A33257   3.735   6.155   7.930
 2411POPC   C4A33258   3.618   5.951   7.572
 2411POPC   C1B33259   3.681   5.662   8.721
 2411POPC   C2B33260   3.825   5.768   8.324
 2411POPC   C3B33261   3.551   5.674   8.020
 2411POPC   C4B33262   3.615   5.458   7.633
 2412POPC   NC333263  36.761  31.944   9.736
 2412POPC   PO433264  37.051  32.453   9.474
 2412POPC   GL133265  36.990  32.276   9.100
 2412POPC   GL233266  37.252  32.037   9.055
 2412POPC   C1A33267  36.745  32.426   8.745
 2412POPC   D2A33268  36.757  32.685   8.386
 2412POPC   C3A33269  36.707  32.395   8.030
 2412POPC   C4A33270  36.935  32.334   7.719
 2412POPC   C1B33271  37.083  31.977   8.675
 2412POPC   C2B33272  36.779  32.030   8.411
 2412POPC   C3B33273  37.007  31.951   8.098
 2412POPC   C4B33274  37.209  31.905   7.765
 2413POPC   NC333275  17.321  35.290   9.773
 2413POPC   PO433276  17.701  35.756   9.420
 2413POPC   GL133277  17.533  35.481   9.149
 2413POPC   GL233278  17.642  35.184   9.332
 2413POPC   C1A33279  17.426  35.435   8.705
 2413POPC   D2A33280  17.450  35.648   8.296
 2413POPC   C3A33281  17.687  35.611   7.935
 2413POPC   C4A33282  17.343  35.571   7.655
 2413POPC   C1B33283  17.690  35.025   8.886
 2413POPC   C2B33284  17.494  34.973   8.460
 2413POPC   C3B33285  17.475  35.148   8.041
 2413POPC   C4B33286  17.883  35.164   7.801
 2414POPC   NC333287  30.855  44.583   9.508
 2414POPC   PO433288  30.316  44.238   9.606
 2414POPC   GL133289  30.467  44.434   9.184
 2414POPC   GL233290  30.624  44.808   9.108
 2414POPC   C1A33291  30.457  44.547   8.734
 2414POPC   D2A33292  30.706  44.723   8.383
 2414POPC   C3A33293  30.655  44.503   7.999
 2414POPC   C4A33294  30.525  44.460   7.580
 2414POPC   C1B33295  30.550   0.098   8.693
 2414POPC   C2B33296  30.839   0.212   8.354
 2414POPC   C3B33297  30.845   0.033   7.941
 2414POPC   C4B33298  30.435  44.951   7.771
 2415POPC   NC333299  28.824  22.903   9.464
 2415POPC   PO433300  28.253  22.561   9.522
 2415POPC   GL133301  28.460  22.665   9.185
 2415POPC   GL233302  28.360  22.984   9.110
 2415POPC   C1A33303  28.321  22.616   8.768
 2415POPC   D2A33304  28.162  22.877   8.454
 2415POPC   C3A33305  28.308  22.741   8.060
 2415POPC   C4A33306  28.338  22.766   7.642
 2415POPC   C1B33307  28.378  23.248   8.774
 2415POPC   C2B33308  28.230  23.398   8.428
 2415POPC   C3B33309  28.350  23.247   8.056
 2415POPC   C4B33310  28.547  23.225   7.691
 2416POPC   NC333311   1.353   2.686   9.459
 2416POPC   PO433312   1.118   3.170   9.236
 2416POPC   GL133313   1.162   2.865   9.007
 2416POPC   GL233314   0.971   2.591   9.107
 2416POPC   C1A33315   1.374   2.932   8.636
 2416POPC   D2A33316   1.507   2.787   8.300
 2416POPC   C3A33317   1.331   2.844   7.881
 2416POPC   C4A33318   1.195   3.170   7.609
 2416POPC   C1B33319   1.131   2.499   8.665
 2416POPC   C2B33320   1.006   2.728   8.286
 2416POPC   C3B33321   0.830   2.629   7.912
 2416POPC   C4B33322   0.950   2.700   7.525
 2417POPC   NC333323  20.689  28.177   9.494
 2417POPC   PO433324  20.113  27.699   9.481
 2417POPC   GL133325  20.363  28.029   9.140
 2417POPC   GL233326  20.715  27.935   9.033
 2417POPC   C1A33327  20.642  28.396   8.865
 2417POPC   D2A33328  20.712  28.379   8.423
 2417POPC   C3A33329  20.364  28.557   8.208
 2417POPC   C4A33330  20.270  28.740   7.790
 2417POPC   C1B33331  20.455  27.974   8.634
 2417POPC   C2B33332  20.494  27.981   8.171
 2417POPC   C3B33333  20.772  27.828   7.846
 2417POPC   C4B33334  20.968  28.091   7.506
 2418POPC   NC333335  31.219  40.252   9.373
 2418POPC   PO433336  31.825  39.773   9.381
 2418POPC   GL133337  31.537  39.938   9.087
 2418POPC   GL233338  31.606  40.242   9.026
 2418POPC   C1A33339  31.216  40.082   8.741
 2418POPC   D2A33340  30.976  39.881   8.381
 2418POPC   C3A33341  31.176  40.055   7.998
 2418POPC   C4A33342  31.545  40.003   7.733
 2418POPC   C1B33343  31.737  40.223   8.625
 2418POPC   C2B33344  31.770  40.151   8.200
 2418POPC   C3B33345  31.895  40.359   7.835
 2418POPC   C4B33346  31.735  40.533   7.451
 2419POPC   NC333347  40.634  13.028   9.401
 2419POPC   PO433348  41.036  12.518   9.532
 2419POPC   GL133349  40.977  12.760   9.134
 2419POPC   GL233350  41.027  13.162   9.105
 2419POPC   C1A33351  40.798  12.744   8.727
 2419POPC   D2A33352  41.015  12.632   8.368
 2419POPC   C3A33353  40.793  12.791   8.063
 2419POPC   C4A33354  40.577  12.728   7.715
 2419POPC   C1B33355  40.735  13.265   8.783
 2419POPC   C2B33356  40.726  13.217   8.361
 2419POPC   C3B33357  40.459  13.210   8.018
 2419POPC   C4B33358  40.453  13.419   7.651
 2420POPC   NC333359  19.166  24.009   9.503
 2420POPC   PO433360  19.201  23.399   9.725
 2420POPC   GL133361  19.169  23.515   9.228
 2420POPC   GL233362  18.965  23.775   9.084
 2420POPC   C1A33363  19.288  23.635   8.751
 2420POPC   D2A33364  19.262  23.824   8.346
 2420POPC   C3A33365  19.128  23.558   8.013
 2420POPC   C4A33366  18.799  23.454   7.759
 2420POPC   C1B33367  18.766  23.555   8.826
 2420POPC   C2B33368  18.799  23.595   8.408
 2420POPC   C3B33369  18.697  23.851   8.058
 2420POPC   C4B33370  18.456  23.816   7.679
 2421POPC   NC333371  24.614  18.538   9.323
 2421POPC   PO433372  24.158  18.072   9.327
 2421POPC   GL133373  24.448  17.923   9.017
 2421POPC   GL233374  24.762  18.074   9.045
 2421POPC   C1A33375  24.587  17.988   8.580
 2421POPC   D2A33376  24.540  18.400   8.377
 2421POPC   C3A33377  24.447  18.400   7.954
 2421POPC   C4A33378  24.110  18.468   7.654
 2421POPC   C1B33379  24.894  18.385   8.760
 2421POPC   C2B33380  25.035  18.192   8.417
 2421POPC   C3B33381  24.821  18.083   8.087
 2421POPC   C4B33382  24.884  17.983   7.706
 2422POPC   NC333383   4.119   3.207   9.810
 2422POPC   PO433384   4.137   2.569   9.579
 2422POPC   GL133385   4.189   2.803   9.180
 2422POPC   GL233386   3.858   2.762   9.021
 2422POPC   C1A33387   4.357   2.851   8.732
 2422POPC   D2A33388   4.269   3.048   8.317
 2422POPC   C3A33389   4.350   2.858   7.940
 2422POPC   C4A33390   4.647   2.635   8.169
 2422POPC   C1B33391   4.091   2.438   8.800
 2422POPC   C2B33392   4.305   2.361   8.428
 2422POPC   C3B33393   4.108   2.422   8.048
 2422POPC   C4B33394   4.085   2.550   7.598
 2423POPC   NC333395  19.262  12.464   9.405
 2423POPC   PO433396  18.926  11.920   9.414
 2423POPC   GL133397  18.904  12.180   9.098
 2423POPC   GL233398  18.644  12.396   9.135
 2423POPC   C1A33399  19.070  12.114   8.702
 2423POPC   D2A33400  18.929  12.158   8.288
 2423POPC   C3A33401  19.166  12.057   7.894
 2423POPC   C4A33402  19.043  11.837   7.504
 2423POPC   C1B33403  18.685  12.502   8.682
 2423POPC   C2B33404  18.823  12.681   8.295
 2423POPC   C3B33405  18.899  12.499   7.916
 2423POPC   C4B33406  18.763  12.259   7.603
 2424POPC   NC333407   8.516   4.032   9.396
 2424POPC   PO433408   9.112   4.049   9.637
 2424POPC   GL133409   9.216   4.298   9.241
 2424POPC   GL233410   8.881   4.335   9.216
 2424POPC   C1A33411   9.129   4.588   8.862
 2424POPC   D2A33412   9.177   4.610   8.429
 2424POPC   C3A33413   8.945   4.636   8.031
 2424POPC   C4A33414   9.061   4.344   7.701
 2424POPC   C1B33415   8.661   4.383   8.842
 2424POPC   C2B33416   8.674   4.430   8.418
 2424POPC   C3B33417   8.675   4.192   8.042
 2424POPC   C4B33418   8.543   4.336   7.645
 2425POPC   NC333419   4.084  15.347   9.656
 2425POPC   PO433420   4.678  14.947   9.630
 2425POPC   GL133421   4.351  14.992   9.267
 2425POPC   GL233422   4.223  15.348   9.149
 2425POPC   C1A33423   4.478  15.055   8.816
 2425POPC   D2A33424   4.358  15.133   8.389
 2425POPC   C3A33425   4.615  15.129   8.036
 2425POPC   C4A33426   4.560  15.233   7.624
 2425POPC   C1B33427   4.105  15.460   8.704
 2425POPC   C2B33428   3.902  15.348   8.290
 2425POPC   C3B33429   4.151  15.396   7.905
 2425POPC   C4B33430   4.099  15.343   7.445
 2426POPC   NC333431   7.460  38.041   9.685
 2426POPC   PO433432   7.609  38.591   9.321
 2426POPC   GL133433   7.276  38.447   9.122
 2426POPC   GL233434   7.148  38.106   9.177
 2426POPC   C1A33435   7.385  38.365   8.703
 2426POPC   D2A33436   7.367  38.171   8.325
 2426POPC   C3A33437   7.599  38.473   8.115
 2426POPC   C4A33438   7.504  38.711   7.767
 2426POPC   C1B33439   7.050  37.960   8.754
 2426POPC   C2B33440   6.816  38.121   8.386
 2426POPC   C3B33441   6.986  38.272   7.961
 2426POPC   C4B33442   7.377  38.164   7.739
 2427POPC   NC333443  38.619  34.520   9.503
 2427POPC   PO433444  38.094  35.007   9.426
 2427POPC   GL133445  38.305  34.727   9.115
 2427POPC   GL233446  38.631  34.816   9.087
 2427POPC   C1A33447  38.482  34.528   8.702
 2427POPC   D2A33448  38.432  34.589   8.204
 2427POPC   C3A33449  38.056  34.783   7.950
 2427POPC   C4A33450  38.008  34.812   7.487
 2427POPC   C1B33451  38.934  34.880   8.803
 2427POPC   C2B33452  38.908  34.697   8.408
 2427POPC   C3B33453  38.851  34.834   7.994
 2427POPC   C4B33454  38.498  34.719   7.718
 2428POPC   NC333455  27.869   8.273   9.770
 2428POPC   PO433456  27.621   8.722   9.277
 2428POPC   GL133457  27.551   8.258   9.142
 2428POPC   GL233458  27.296   8.000   9.248
 2428POPC   C1A33459  27.530   8.104   8.717
 2428POPC   D2A33460  27.813   8.285   8.425
 2428POPC   C3A33461  27.728   8.414   8.026
 2428POPC   C4A33462  27.828   8.211   7.649
 2428POPC   C1B33463  27.055   7.941   8.835
 2428POPC   C2B33464  27.103   8.031   8.393
 2428POPC   C3B33465  27.375   8.044   8.058
 2428POPC   C4B33466  27.330   8.208   7.662
 2429POPC   NC333467  33.383   7.358   9.307
 2429POPC   PO433468  33.964   7.226   9.644
 2429POPC   GL133469  33.876   7.220   9.246
 2429POPC   GL233470  33.814   7.592   9.191
 2429POPC   C1A33471  34.015   7.271   8.847
 2429POPC   D2A33472  33.765   7.275   8.468
 2429POPC   C3A33473  33.958   7.290   8.093
 2429POPC   C4A33474  33.893   7.407   7.712
 2429POPC   C1B33475  33.745   7.701   8.751
 2429POPC   C2B33476  33.435   7.667   8.400
 2429POPC   C3B33477  33.489   7.598   7.951
 2429POPC   C4B33478  33.486   7.633   7.463
 2430POPC   NC333479  15.245  11.700   9.582
 2430POPC   PO433480  15.478  12.289   9.459
 2430POPC   GL133481  15.117  12.091   9.240
 2430POPC   GL233482  14.908  12.332   9.367
 2430POPC   C1A33483  14.907  12.099   8.805
 2430POPC   D2A33484  14.739  12.207   8.359
 2430POPC   C3A33485  14.970  11.992   8.022
 2430POPC   C4A33486  14.984  11.880   7.575
 2430POPC   C1B33487  15.102  12.541   8.983
 2430POPC   C2B33488  15.112  12.568   8.540
 2430POPC   C3B33489  15.085  12.537   8.099
 2430POPC   C4B33490  15.317  12.421   7.721
 2431POPC   NC333491   9.512  16.562   9.548
 2431POPC   PO433492   8.913  16.746   9.662
 2431POPC   GL133493   9.115  16.763   9.220
 2431POPC   GL233494   9.330  16.521   9.070
 2431POPC   C1A33495   8.945  16.634   8.782
 2431POPC   D2A33496   8.773  16.295   8.514
 2431POPC   C3A33497   8.809  16.486   8.142
 2431POPC   C4A33498   8.840  16.862   7.871
 2431POPC   C1B33499   9.450  16.596   8.655
 2431POPC   C2B33500   9.325  16.548   8.233
 2431POPC   C3B33501   9.307  16.670   7.801
 2431POPC   C4B33502   9.369  16.410   7.448
 2432POPC   NC333503  38.658  39.104   9.502
 2432POPC   PO433504  37.991  39.020   9.337
 2432POPC   GL133505  38.402  39.185   9.069
 2432POPC   GL233506  38.793  39.364   9.092
 2432POPC   C1A33507  38.683  39.060   8.719
 2432POPC   D2A33508  38.776  38.868   8.325
 2432POPC   C3A33509  38.377  39.016   8.156
 2432POPC   C4A33510  38.280  39.342   7.837
 2432POPC   C1B33511  38.844  39.565   8.705
 2432POPC   C2B33512  38.665  39.389   8.334
 2432POPC   C3B33513  38.771  39.233   7.934
 2432POPC   C4B33514  38.697  39.570   7.657
 2433POPC   NC333515  24.781   2.716   9.569
 2433POPC   PO433516  24.234   3.067   9.430
 2433POPC   GL133517  24.592   2.978   9.165
 2433POPC   GL233518  24.449   2.684   9.105
 2433POPC   C1A33519  24.717   2.894   8.718
 2433POPC   D2A33520  24.679   2.790   8.294
 2433POPC   C3A33521  25.010   3.014   8.039
 2433POPC   C4A33522  24.937   2.986   7.603
 2433POPC   C1B33523  24.216   2.823   8.745
 2433POPC   C2B33524  24.211   2.993   8.338
 2433POPC   C3B33525  24.272   2.777   7.962
 2433POPC   C4B33526  24.471   2.500   7.715
 2434POPC   NC333527  35.875   7.338   9.493
 2434POPC   PO433528  36.399   7.249   9.136
 2434POPC   GL133529  36.129   7.628   9.074
 2434POPC   GL233530  35.825   7.782   9.225
 2434POPC   C1A33531  36.262   7.792   8.695
 2434POPC   D2A33532  36.263   7.518   8.359
 2434POPC   C3A33533  36.367   7.635   7.971
 2434POPC   C4A33534  36.256   7.366   7.640
 2434POPC   C1B33535  35.725   7.766   8.770
 2434POPC   C2B33536  35.875   7.861   8.332
 2434POPC   C3B33537  35.744   7.869   7.907
 2434POPC   C4B33538  35.830   7.641   7.546
 2435POPC   NC333539  13.912  38.046   9.712
 2435POPC   PO433540  14.365  38.436   9.410
 2435POPC   GL133541  14.559  38.573   9.096
 2435POPC   GL233542  14.699  38.245   9.044
 2435POPC   C1A33543  14.332  38.508   8.733
 2435POPC   D2A33544  14.267  38.739   8.406
 2435POPC   C3A33545  14.271  38.528   8.016
 2435POPC   C4A33546  14.151  38.637   7.611
 2435POPC   C1B33547  14.829  38.376   8.691
 2435POPC   C2B33548  14.639  38.372   8.334
 2435POPC   C3B33549  14.744  38.221   7.995
 2435POPC   C4B33550  14.601  38.402   7.642
 2436POPC   NC333551  10.479  41.860   9.507
 2436POPC   PO433552  10.613  41.087   9.470
 2436POPC   GL133553  10.628  41.434   9.226
 2436POPC   GL233554  10.299  41.375   9.124
 2436POPC   C1A33555  10.667  41.546   8.798
 2436POPC   D2A33556  10.831  41.696   8.392
 2436POPC   C3A33557  10.635  41.612   7.975
 2436POPC   C4A33558  10.734  41.734   7.516
 2436POPC   C1B33559  10.221  41.230   8.712
 2436POPC   C2B33560  10.243  41.478   8.322
 2436POPC   C3B33561  10.179  41.354   7.908
 2436POPC   C4B33562  10.430  41.317   7.553
 2437POPC   NC333563  24.889   8.849   9.430
 2437POPC   PO433564  24.310   8.829   9.424
 2437POPC   GL133565  24.327   8.971   9.016
 2437POPC   GL233566  24.631   9.022   9.036
 2437POPC   C1A33567  24.446   8.981   8.557
 2437POPC   D2A33568  24.506   9.286   8.257
 2437POPC   C3A33569  24.483   9.097   7.866
 2437POPC   C4A33570  24.250   9.024   7.502
 2437POPC   C1B33571  24.762   8.651   8.777
 2437POPC   C2B33572  24.677   8.453   8.355
 2437POPC   C3B33573  24.663   8.596   7.909
 2437POPC   C4B33574  24.620   8.713   7.435
 2438POPC   NC333575  16.790  26.729   9.544
 2438POPC   PO433576  16.187  26.873   9.467
 2438POPC   GL133577  16.406  26.674   9.093
 2438POPC   GL233578  16.822  26.615   9.040
 2438POPC   C1A33579  16.463  26.687   8.641
 2438POPC   D2A33580  16.874  26.544   8.460
 2438POPC   C3A33581  16.871  26.646   8.036
 2438POPC   C4A33582  16.466  26.810   7.860
 2438POPC   C1B33583  16.880  26.956   8.742
 2438POPC   C2B33584  16.672  27.015   8.319
 2438POPC   C3B33585  16.827  27.178   7.934
 2438POPC   C4B33586  16.928  27.022   7.509
 2439POPC   NC333587  14.555  39.772   9.548
 2439POPC   PO433588  15.210  39.703   9.516
 2439POPC   GL133589  15.319  40.028   9.214
 2439POPC   GL233590  15.007  39.951   9.020
 2439POPC   C1A33591  15.450  40.165   8.805
 2439POPC   D2A33592  15.137  40.078   8.503
 2439POPC   C3A33593  15.239  40.181   8.104
 2439POPC   C4A33594  15.223  40.116   7.691
 2439POPC   C1B33595  15.328  39.672   8.835
 2439POPC   C2B33596  15.417  39.651   8.406
 2439POPC   C3B33597  15.072  39.684   8.128
 2439POPC   C4B33598  14.897  39.732   7.705
 2440POPC   NC333599   1.675  25.270   9.479
 2440POPC   PO433600   2.372  25.082   9.477
 2440POPC   GL133601   2.206  25.340   9.142
 2440POPC   GL233602   1.895  25.223   9.026
 2440POPC   C1A33603   2.281  25.255   8.694
 2440POPC   D2A33604   1.922  25.038   8.413
 2440POPC   C3A33605   1.990  25.120   7.952
 2440POPC   C4A33606   1.944  25.255   7.500
 2440POPC   C1B33607   1.810  25.452   8.684
 2440POPC   C2B33608   2.071  25.536   8.329
 2440POPC   C3B33609   1.957  25.655   7.967
 2440POPC   C4B33610   1.948  25.789   7.569
 2441POPC   NC333611  39.510  44.332   9.762
 2441POPC   PO433612  38.858  44.477   9.452
 2441POPC   GL133613  38.947  44.644   9.022
 2441POPC   GL233614  39.320  44.758   9.002
 2441POPC   C1A33615  39.088  44.452   8.643
 2441POPC   D2A33616  39.004  44.564   8.223
 2441POPC   C3A33617  39.127  44.971   8.070
 2441POPC   C4A33618  38.981   0.114   7.661
 2441POPC   C1B33619  39.568  44.595   8.715
 2441POPC   C2B33620  39.674  44.479   8.350
 2441POPC   C3B33621  39.390  44.280   8.094
 2441POPC   C4B33622  39.321  44.605   7.764
 2442POPC   NC333623  25.010   4.754   9.437
 2442POPC   PO433624  25.596   4.998   9.559
 2442POPC   GL133625  25.519   5.078   9.156
 2442POPC   GL233626  25.402   4.782   9.108
 2442POPC   C1A33627  25.411   5.147   8.703
 2442POPC   D2A33628  25.181   4.937   8.294
 2442POPC   C3A33629  25.012   5.133   7.921
 2442POPC   C4A33630  25.135   5.122   7.484
 2442POPC   C1B33631  25.199   4.688   8.750
 2442POPC   C2B33632  25.502   4.579   8.483
 2442POPC   C3B33633  25.550   4.537   8.085
 2442POPC   C4B33634  25.225   4.650   7.818
 2443POPC   NC333635   7.144   8.557   9.469
 2443POPC   PO433636   7.441   7.851   9.477
 2443POPC   GL133637   7.448   7.941   9.082
 2443POPC   GL233638   7.126   8.090   9.110
 2443POPC   C1A33639   7.731   7.914   8.728
 2443POPC   D2A33640   7.801   7.738   8.305
 2443POPC   C3A33641   7.722   8.067   8.034
 2443POPC   C4A33642   7.408   8.288   7.822
 2443POPC   C1B33643   7.388   8.318   8.761
 2443POPC   C2B33644   7.339   8.469   8.310
 2443POPC   C3B33645   7.051   8.604   7.942
 2443POPC   C4B33646   7.110   8.542   7.487
 2444POPC   NC333647  41.162   1.992   9.437
 2444POPC   PO433648  40.484   1.718   9.502
 2444POPC   GL133649  40.647   1.597   9.094
 2444POPC   GL233650  40.898   1.864   9.030
 2444POPC   C1A33651  40.586   1.745   8.665
 2444POPC   D2A33652  40.694   1.995   8.310
 2444POPC   C3A33653  40.619   1.707   8.019
 2444POPC   C4A33654  40.594   1.592   7.605
 2444POPC   C1B33655  40.842   2.229   8.743
 2444POPC   C2B33656  40.969   2.440   8.388
 2444POPC   C3B33657  40.938   2.328   7.955
 2444POPC   C4B33658  41.021   1.917   7.808
 2445POPC   NC333659   7.910   5.481   9.457
 2445POPC   PO433660   8.228   4.814   9.580
 2445POPC   GL133661   8.197   5.045   9.192
 2445POPC   GL233662   7.860   5.138   9.108
 2445POPC   C1A33663   8.278   5.216   8.773
 2445POPC   D2A33664   8.440   5.375   8.380
 2445POPC   C3A33665   8.207   5.228   8.029
 2445POPC   C4A33666   8.232   5.095   7.611
 2445POPC   C1B33667   7.811   4.914   8.775
 2445POPC   C2B33668   7.904   4.963   8.369
 2445POPC   C3B33669   7.731   4.974   7.980
 2445POPC   C4B33670   7.713   4.989   7.529
 2446POPC   NC333671  26.772  41.335   9.472
 2446POPC   PO433672  27.399  41.423   9.480
 2446POPC   GL133673  27.091  41.457   9.108
 2446POPC   GL233674  26.817  41.726   9.138
 2446POPC   C1A33675  26.828  41.381   8.746
 2446POPC   D2A33676  26.661  41.328   8.326
 2446POPC   C3A33677  26.892  41.061   8.049
 2446POPC   C4A33678  26.962  41.038   7.608
 2446POPC   C1B33679  26.706  41.897   8.737
 2446POPC   C2B33680  26.777  41.824   8.304
 2446POPC   C3B33681  27.088  41.956   8.005
 2446POPC   C4B33682  27.096  41.940   7.570
 2447POPC   NC333683  44.405   8.682   9.414
 2447POPC   PO433684  44.998   8.445   9.493
 2447POPC   GL133685  44.795   8.197   9.175
 2447POPC   GL233686  44.428   8.238   9.109
 2447POPC   C1A33687  44.865   7.986   8.805
 2447POPC   D2A33688  44.619   8.057   8.464
 2447POPC   C3A33689  44.794   7.908   8.098
 2447POPC   C4A33690  44.871   8.120   7.725
 2447POPC   C1B33691  44.237   8.420   8.734
 2447POPC   C2B33692  44.196   8.287   8.320
 2447POPC   C3B33693  44.526   8.386   8.021
 2447POPC   C4B33694  44.510   8.450   7.603
 2448POPC   NC333695   5.145  40.241   9.431
 2448POPC   PO433696   5.076  39.550   9.524
 2448POPC   GL133697   5.115  39.803   9.157
 2448POPC   GL233698   5.454  39.744   9.146
 2448POPC   C1A33699   5.090  40.080   8.748
 2448POPC   D2A33700   5.213  40.419   8.457
 2448POPC   C3A33701   4.942  40.447   8.093
 2448POPC   C4A33702   5.002  40.363   7.658
 2448POPC   C1B33703   5.582  39.958   8.818
 2448POPC   C2B33704   5.427  39.889   8.415
 2448POPC   C3B33705   5.242  40.041   8.060
 2448POPC   C4B33706   5.458  40.081   7.706
 2449POPC   NC333707  40.540   6.629   9.520
 2449POPC   PO433708  41.125   6.940   9.470
 2449POPC   GL133709  40.865   6.781   9.113
 2449POPC   GL233710  40.804   6.429   9.118
 2449POPC   C1A33711  40.931   6.652   8.676
 2449POPC   D2A33712  40.949   6.495   8.261
 2449POPC   C3A33713  40.832   6.747   7.904
 2449POPC   C4A33714  40.575   6.995   7.597
 2449POPC   C1B33715  40.557   6.274   8.775
 2449POPC   C2B33716  40.610   6.118   8.357
 2449POPC   C3B33717  40.547   6.313   7.994
 2449POPC   C4B33718  40.376   6.527   7.701
 2450POPC   NC333719  23.292  24.907   9.226
 2450POPC   PO433720  23.821  24.691   9.498
 2450POPC   GL133721  23.881  24.420   9.108
 2450POPC   GL233722  23.545  24.275   9.023
 2450POPC   C1A33723  23.918  24.165   8.711
 2450POPC   D2A33724  23.624  24.131   8.305
 2450POPC   C3A33725  23.826  24.174   7.852
 2450POPC   C4A33726  24.135  24.112   7.464
 2450POPC   C1B33727  23.658  24.607   8.686
 2450POPC   C2B33728  23.981  24.858   8.456
 2450POPC   C3B33729  23.839  24.787   8.044
 2450POPC   C4B33730  23.523  24.572   7.798
 2451POPC   NC333731  17.036  11.000   9.311
 2451POPC   PO433732  17.580  11.303   9.425
 2451POPC   GL133733  17.617  11.463   9.039
 2451POPC   GL233734  17.962  11.503   9.059
 2451POPC   C1A33735  17.500  11.668   8.655
 2451POPC   D2A33736  17.302  11.574   8.288
 2451POPC   C3A33737  17.298  11.172   8.148
 2451POPC   C4A33738  17.477  11.165   7.768
 2451POPC   C1B33739  17.930  11.335   8.664
 2451POPC   C2B33740  17.784  11.333   8.270
 2451POPC   C3B33741  17.974  11.298   7.885
 2451POPC   C4B33742  17.901  11.125   7.463
 2452POPC   NC333743   2.728  11.900   9.467
 2452POPC   PO433744   2.989  12.590   9.405
 2452POPC   GL133745   2.852  12.209   9.069
 2452POPC   GL233746   2.882  11.799   9.016
 2452POPC   C1A33747   2.619  12.090   8.665
 2452POPC   D2A33748   2.763  12.336   8.304
 2452POPC   C3A33749   2.804  12.174   7.859
 2452POPC   C4A33750   2.626  12.033   7.448
 2452POPC   C1B33751   2.728  11.581   8.675
 2452POPC   C2B33752   2.461  11.646   8.318
 2452POPC   C3B33753   2.583  11.702   7.891
 2452POPC   C4B33754   2.902  11.597   7.614
 2453POPC   NC333755  42.067   7.611   9.367
 2453POPC   PO433756  41.458   7.498   9.635
 2453POPC   GL133757  41.393   7.684   9.248
 2453POPC   GL233758  41.443   7.315   9.131
 2453POPC   C1A33759  41.614   7.713   8.860
 2453POPC   D2A33760  41.626   7.333   8.581
 2453POPC   C3A33761  41.648   7.515   8.198
 2453POPC   C4A33762  41.574   7.684   7.805
 2453POPC   C1B33763  41.214   7.072   8.814
 2453POPC   C2B33764  41.310   6.913   8.391
 2453POPC   C3B33765  41.542   7.041   8.022
 2453POPC   C4B33766  41.461   7.230   7.595
 2454POPC   NC333767  38.844  43.372   9.408
 2454POPC   PO433768  38.359  42.894   9.574
 2454POPC   GL133769  38.269  43.046   9.128
 2454POPC   GL233770  38.468  43.314   9.073
 2454POPC   C1A33771  38.278  43.094   8.641
 2454POPC   D2A33772  38.583  43.135   8.284
 2454POPC   C3A33773  38.539  43.006   7.821
 2454POPC   C4A33774  38.582  42.861   7.377
 2454POPC   C1B33775  38.362  43.592   8.748
 2454POPC   C2B33776  38.222  43.530   8.343
 2454POPC   C3B33777  38.375  43.470   7.943
 2454POPC   C4B33778  38.277  43.482   7.516
 2455POPC   NC333779  44.555  23.598   9.545
 2455POPC   PO433780   0.092  23.897   9.465
 2455POPC   GL133781  44.887  23.774   9.117
 2455POPC   GL233782  44.826  23.412   9.139
 2455POPC   C1A33783  44.665  23.928   8.748
 2455POPC   D2A33784  44.333  23.818   8.444
 2455POPC   C3A33785  44.515  23.599   8.098
 2455POPC   C4A33786  44.499  23.787   7.689
 2455POPC   C1B33787   0.040  23.430   8.742
 2455POPC   C2B33788  44.998  23.710   8.384
 2455POPC   C3B33789  44.976  23.772   7.931
 2455POPC   C4B33790  44.969  23.676   7.466
 2456POPC   NC333791  33.132  12.455   9.495
 2456POPC   PO433792  33.331  13.016   9.803
 2456POPC   GL133793  33.171  12.974   9.375
 2456POPC   GL233794  33.401  12.799   9.165
 2456POPC   C1A33795  33.083  13.171   8.949
 2456POPC   D2A33796  33.263  13.226   8.531
 2456POPC   C3A33797  33.180  12.949   8.197
 2456POPC   C4A33798  32.880  12.939   7.842
 2456POPC   C1B33799  33.231  12.694   8.730
 2456POPC   C2B33800  33.078  12.448   8.346
 2456POPC   C3B33801  32.906  12.406   7.926
 2456POPC   C4B33802  32.702  12.398   7.526
 2457POPC   NC333803  34.537  29.848   9.572
 2457POPC   PO433804  34.303  30.338   9.137
 2457POPC   GL133805  34.565  29.979   9.092
 2457POPC   GL233806  34.289  29.679   9.164
 2457POPC   C1A33807  34.814  29.898   8.716
 2457POPC   D2A33808  34.696  29.803   8.280
 2457POPC   C3A33809  34.603  30.081   7.941
 2457POPC   C4A33810  34.907  30.281   7.714
 2457POPC   C1B33811  34.306  29.746   8.734
 2457POPC   C2B33812  34.183  30.025   8.426
 2457POPC   C3B33813  34.161  29.849   8.043
 2457POPC   C4B33814  34.265  29.824   7.607
 2458POPC   NC333815   6.532  11.865   9.518
 2458POPC   PO433816   6.242  12.410   9.379
 2458POPC   GL133817   6.478  12.173   9.082
 2458POPC   GL233818   6.451  11.822   9.029
 2458POPC   C1A33819   6.502  12.163   8.630
 2458POPC   D2A33820   6.827  12.093   8.314
 2458POPC   C3A33821   6.769  12.279   7.914
 2458POPC   C4A33822   7.001  12.157   7.580
 2458POPC   C1B33823   6.321  11.656   8.675
 2458POPC   C2B33824   6.435  11.757   8.302
 2458POPC   C3B33825   6.548  11.829   7.915
 2458POPC   C4B33826   6.491  11.998   7.527
 2459POPC   NC333827   4.890  38.695   9.491
 2459POPC   PO433828   5.422  38.253   9.587
 2459POPC   GL133829   5.314  38.472   9.166
 2459POPC   GL233830   4.961  38.390   9.091
 2459POPC   C1A33831   5.244  38.512   8.696
 2459POPC   D2A33832   5.107  38.194   8.393
 2459POPC   C3A33833   5.071  38.330   7.970
 2459POPC   C4A33834   5.200  38.691   7.742
 2459POPC   C1B33835   4.728  38.408   8.699
 2459POPC   C2B33836   4.668  38.565   8.282
 2459POPC   C3B33837   4.670  38.656   7.831
 2459POPC   C4B33838   4.518  38.420   7.478
 2460POPC   NC333839  33.163  17.289   9.636
 2460POPC   PO433840  32.578  17.337   9.336
 2460POPC   GL133841  32.802  17.696   9.134
 2460POPC   GL233842  33.168  17.654   9.216
 2460POPC   C1A33843  32.826  17.640   8.691
 2460POPC   D2A33844  33.116  17.373   8.478
 2460POPC   C3A33845  33.022  17.443   8.083
 2460POPC   C4A33846  32.972  17.279   7.721
 2460POPC   C1B33847  33.319  17.734   8.783
 2460POPC   C2B33848  33.214  17.877   8.319
 2460POPC   C3B33849  33.313  17.782   7.834
 2460POPC   C4B33850  33.348  17.965   7.365
 2461POPC   NC333851  28.910   1.024   9.502
 2461POPC   PO433852  29.175   1.626   9.445
 2461POPC   GL133853  29.165   1.295   9.137
 2461POPC   GL233854  29.462   1.111   9.086
 2461POPC   C1A33855  28.872   1.183   8.798
 2461POPC   D2A33856  28.752   0.914   8.439
 2461POPC   C3A33857  28.857   1.099   8.042
 2461POPC   C4A33858  29.061   1.151   7.650
 2461POPC   C1B33859  29.408   1.294   8.679
 2461POPC   C2B33860  29.355   1.140   8.263
 2461POPC   C3B33861  29.520   1.210   7.847
 2461POPC   C4B33862  29.519   1.492   7.522
 2462POPC   NC333863   7.586  13.983   9.499
 2462POPC   PO433864   7.303  14.599   9.463
 2462POPC   GL133865   7.517  14.354   9.145
 2462POPC   GL233866   7.351  14.017   9.029
 2462POPC   C1A33867   7.534  14.349   8.704
 2462POPC   D2A33868   7.495  14.106   8.397
 2462POPC   C3A33869   7.560  14.364   8.098
 2462POPC   C4A33870   7.633  14.392   7.708
 2462POPC   C1B33871   7.054  14.172   8.675
 2462POPC   C2B33872   7.125  14.466   8.345
 2462POPC   C3B33873   7.087  14.169   7.989
 2462POPC   C4B33874   7.205  14.179   7.558
 2463POPC   NC333875  14.099   2.921   9.429
 2463POPC   PO433876  14.600   2.299   9.352
 2463POPC   GL133877  14.306   2.521   9.131
 2463POPC   GL233878  14.535   2.807   9.151
 2463POPC   C1A33879  14.236   2.733   8.743
 2463POPC   D2A33880  14.467   2.669   8.377
 2463POPC   C3A33881  14.235   2.767   8.039
 2463POPC   C4A33882  14.293   2.570   7.647
 2463POPC   C1B33883  14.632   3.082   8.801
 2463POPC   C2B33884  14.486   3.179   8.413
 2463POPC   C3B33885  14.675   3.103   8.075
 2463POPC   C4B33886  14.735   2.716   7.920
 2464POPC   NC333887  24.136  38.673   9.618
 2464POPC   PO433888  23.598  38.381   9.423
 2464POPC   GL133889  23.766  38.251   9.025
 2464POPC   GL233890  23.590  38.543   8.887
 2464POPC   C1A33891  23.733  38.179   8.568
 2464POPC   D2A33892  23.478  38.350   8.209
 2464POPC   C3A33893  23.772  38.385   7.887
 2464POPC   C4A33894  24.169  38.508   7.743
 2464POPC   C1B33895  23.252  38.269   8.721
 2464POPC   C2B33896  22.972  38.254   8.334
 2464POPC   C3B33897  23.019  38.401   7.878
 2464POPC   C4B33898  23.214  38.647   7.533
 2465POPC   NC333899  35.939   8.473   9.453
 2465POPC   PO433900  36.261   8.000   9.464
 2465POPC   GL133901  36.245   8.229   9.120
 2465POPC   GL233902  36.437   8.531   9.167
 2465POPC   C1A33903  36.026   8.231   8.754
 2465POPC   D2A33904  35.866   8.367   8.371
 2465POPC   C3A33905  36.078   8.232   7.989
 2465POPC   C4A33906  36.207   7.989   7.638
 2465POPC   C1B33907  36.375   8.609   8.779
 2465POPC   C2B33908  36.373   8.384   8.399
 2465POPC   C3B33909  36.452   8.570   8.036
 2465POPC   C4B33910  36.466   8.432   7.649
 2466POPC   NC333911  34.251  12.050   9.449
 2466POPC   PO433912  34.811  12.288   9.606
 2466POPC   GL133913  34.705  12.184   9.203
 2466POPC   GL233914  34.642  11.837   9.183
 2466POPC   C1A33915  34.802  12.165   8.784
 2466POPC   D2A33916  34.528  12.122   8.432
 2466POPC   C3A33917  34.759  11.973   8.083
 2466POPC   C4A33918  34.941  12.153   7.754
 2466POPC   C1B33919  34.613  11.712   8.748
 2466POPC   C2B33920  34.458  11.623   8.306
 2466POPC   C3B33921  34.393  11.756   7.850
 2466POPC   C4B33922  34.757  11.700   7.590
 2467POPC   NC333923  42.882  38.842   9.575
 2467POPC   PO433924  43.079  38.213   9.435
 2467POPC   GL133925  43.051  38.529   9.166
 2467POPC   GL233926  43.301  38.784   9.221
 2467POPC   C1A33927  43.079  38.575   8.751
 2467POPC   D2A33928  42.841  38.587   8.414
 2467POPC   C3A33929  42.994  38.554   8.053
 2467POPC   C4A33930  43.033  38.464   7.655
 2467POPC   C1B33931  43.419  38.939   8.803
 2467POPC   C2B33932  43.286  38.921   8.335
 2467POPC   C3B33933  43.372  38.854   7.856
 2467POPC   C4B33934  43.331  38.896   7.361
 2468POPC   NC333935  22.954   8.598   9.742
 2468POPC   PO433936  23.061   9.169   9.322
 2468POPC   GL133937  22.873   9.004   9.026
 2468POPC   GL233938  22.784   9.305   8.909
 2468POPC   C1A33939  22.898   8.814   8.642
 2468POPC   D2A33940  23.045   8.939   8.249
 2468POPC   C3A33941  22.798   8.915   7.858
 2468POPC   C4A33942  22.979   8.970   7.445
 2468POPC   C1B33943  23.065   9.306   8.636
 2468POPC   C2B33944  22.784   9.376   8.330
 2468POPC   C3B33945  23.007   9.373   7.966
 2468POPC   C4B33946  22.978   9.507   7.577
 2469POPC   NC333947  35.117  37.124   9.427
 2469POPC   PO433948  34.459  36.965   9.408
 2469POPC   GL133949  34.743  37.025   9.095
 2469POPC   GL233950  34.964  36.719   9.153
 2469POPC   C1A33951  34.632  37.144   8.691
 2469POPC   D2A33952  34.404  36.956   8.355
 2469POPC   C3A33953  34.514  37.155   7.947
 2469POPC   C4A33954  34.229  37.137   7.553
 2469POPC   C1B33955  34.696  36.588   8.802
 2469POPC   C2B33956  34.714  36.437   8.402
 2469POPC   C3B33957  34.646  36.621   8.029
 2469POPC   C4B33958  34.539  36.741   7.651
 2470POPC   NC333959  21.656   8.315   9.458
 2470POPC   PO433960  20.972   8.221   9.455
 2470POPC   GL133961  21.241   8.362   9.147
 2470POPC   GL233962  21.452   8.052   9.068
 2470POPC   C1A33963  21.429   8.459   8.760
 2470POPC   D2A33964  21.563   8.475   8.368
 2470POPC   C3A33965  21.307   8.265   8.085
 2470POPC   C4A33966  21.351   8.309   7.648
 2470POPC   C1B33967  21.748   7.892   8.746
 2470POPC   C2B33968  21.617   7.958   8.359
 2470POPC   C3B33969  21.791   8.142   7.996
 2470POPC   C4B33970  21.770   8.063   7.584
 2471POPC   NC333971  17.294   5.843   9.535
 2471POPC   PO433972  17.826   5.613   9.245
 2471POPC   GL133973  17.443   5.687   9.056
 2471POPC   GL233974  17.653   5.666   8.755
 2471POPC   C1A33975  17.153   5.658   8.721
 2471POPC   D2A33976  17.165   5.888   8.319
 2471POPC   C3A33977  17.503   5.771   8.072
 2471POPC   C4A33978  17.390   5.775   7.614
 2471POPC   C1B33979  17.832   5.998   8.505
 2471POPC   C2B33980  18.050   6.345   8.318
 2471POPC   C3B33981  17.882   6.457   7.948
 2471POPC   C4B33982  17.631   6.172   7.819
 2472POPC   NC333983  40.305  13.913   9.390
 2472POPC   PO433984  39.755  13.705   9.585
 2472POPC   GL133985  39.845  13.847   9.150
 2472POPC   GL233986  40.077  13.590   9.066
 2472POPC   C1A33987  39.902  13.855   8.677
 2472POPC   D2A33988  39.719  13.675   8.283
 2472POPC   C3A33989  39.921  13.937   7.947
 2472POPC   C4A33990  40.371  13.912   7.787
 2472POPC   C1B33991  39.874  13.275   8.783
 2472POPC   C2B33992  39.902  13.092   8.366
 2472POPC   C3B33993  39.945  13.286   7.946
 2472POPC   C4B33994  39.732  13.290   7.552
 2473POPC   NC333995  23.270   8.747   9.359
 2473POPC   PO433996  22.858   8.210   9.520
 2473POPC   GL133997  22.706   8.205   9.133
 2473POPC   GL233998  22.912   8.495   9.087
 2473POPC   C1A33999  22.733   8.235   8.675
 2473POPC   D2A34000  22.948   7.938   8.390
 2473POPC   C3A34001  22.881   8.020   7.949
 2473POPC   C4A34002  23.056   7.755   7.609
 2473POPC   C1B34003  23.218   8.438   8.762
 2473POPC   C2B34004  23.091   8.438   8.345
 2473POPC   C3B34005  23.145   8.536   7.941
 2473POPC   C4B34006  22.953   8.412   7.591
 2474POPC   NC334007  16.550   6.190   9.491
 2474POPC   PO434008  16.956   6.663   9.503
 2474POPC   GL134009  16.873   6.454   9.124
 2474POPC   GL234010  16.525   6.496   9.090
 2474POPC   C1A34011  16.863   6.578   8.689
 2474POPC   D2A34012  16.990   6.397   8.314
 2474POPC   C3A34013  16.894   6.717   8.067
 2474POPC   C4A34014  16.900   6.786   7.644
 2474POPC   C1B34015  16.431   6.283   8.706
 2474POPC   C2B34016  16.478   6.419   8.269
 2474POPC   C3B34017  16.499   6.474   7.798
 2474POPC   C4B34018  16.339   6.348   7.370
 2475POPC   NC334019  37.597  44.370   9.369
 2475POPC   PO434020  37.434  43.696   9.495
 2475POPC   GL134021  37.710  43.799   9.146
 2475POPC   GL234022  37.938  43.496   9.051
 2475POPC   C1A34023  37.601  44.070   8.764
 2475POPC   D2A34024  37.375  43.877   8.434
 2475POPC   C3A34025  37.457  43.866   8.002
 2475POPC   C4A34026  37.366  44.201   7.751
 2475POPC   C1B34027  37.792  43.611   8.668
 2475POPC   C2B34028  37.868  43.878   8.326
 2475POPC   C3B34029  37.949  43.743   7.897
 2475POPC   C4B34030  37.812  43.684   7.496
 2476POPC   NC334031   2.238  39.276   9.857
 2476POPC   PO434032   1.666  39.110   9.470
 2476POPC   GL134033   1.837  39.364   9.160
 2476POPC   GL234034   2.198  39.358   9.218
 2476POPC   C1A34035   1.691  39.453   8.747
 2476POPC   D2A34036   1.730  39.222   8.378
 2476POPC   C3A34037   1.723  39.442   8.018
 2476POPC   C4A34038   1.745  39.215   7.646
 2476POPC   C1B34039   2.125  39.153   8.787
 2476POPC   C2B34040   2.291  39.068   8.394
 2476POPC   C3B34041   2.184  39.222   7.968
 2476POPC   C4B34042   2.238  39.205   7.516
 2477POPC   NC334043  40.416  37.804   9.271
 2477POPC   PO434044  40.766  37.422   9.701
 2477POPC   GL134045  40.852  37.535   9.241
 2477POPC   GL234046  41.106  37.789   9.190
 2477POPC   C1A34047  40.759  37.691   8.755
 2477POPC   D2A34048  40.486  37.964   8.432
 2477POPC   C3A34049  40.619  37.896   7.987
 2477POPC   C4A34050  40.494  37.506   7.796
 2477POPC   C1B34051  41.185  37.437   8.879
 2477POPC   C2B34052  41.062  37.315   8.458
 2477POPC   C3B34053  40.905  37.291   8.042
 2477POPC   C4B34054  41.130  37.177   7.677
 2478POPC   NC334055  28.779  43.040   9.523
 2478POPC   PO434056  28.188  43.125   9.584
 2478POPC   GL134057  28.377  43.100   9.204
 2478POPC   GL234058  28.475  43.420   9.140
 2478POPC   C1A34059  28.341  43.077   8.766
 2478POPC   D2A34060  28.409  42.953   8.393
 2478POPC   C3A34061  28.370  43.119   8.021
 2478POPC   C4A34062  28.186  43.162   7.641
 2478POPC   C1B34063  28.046  43.445   8.899
 2478POPC   C2B34064  28.026  43.348   8.430
 2478POPC   C3B34065  27.950  43.487   7.979
 2478POPC   C4B34066  27.794  43.621   7.552
 2479POPC   NC334067  44.229  27.140   9.471
 2479POPC   PO434068  43.637  26.932   9.168
 2479POPC   GL134069  43.959  26.971   9.029
 2479POPC   GL234070  44.167  26.709   9.187
 2479POPC   C1A34071  43.927  27.049   8.575
 2479POPC   D2A34072  44.023  26.875   8.179
 2479POPC   C3A34073  43.731  27.061   7.930
 2479POPC   C4A34074  43.352  26.886   7.784
 2479POPC   C1B34075  44.155  26.621   8.739
 2479POPC   C2B34076  44.068  26.372   8.365
 2479POPC   C3B34077  44.170  26.432   7.931
 2479POPC   C4B34078  44.146  26.412   7.455
 2480POPC   NC334079  28.488   2.949   9.530
 2480POPC   PO434080  27.926   2.632   9.836
 2480POPC   GL134081  28.035   2.856   9.314
 2480POPC   GL234082  28.093   2.611   9.067
 2480POPC   C1A34083  28.403   2.970   8.896
 2480POPC   D2A34084  28.305   3.170   8.448
 2480POPC   C3A34085  28.504   3.075   8.003
 2480POPC   C4A34086  28.678   2.644   7.882
 2480POPC   C1B34087  28.282   2.533   8.681
 2480POPC   C2B34088  28.377   2.657   8.293
 2480POPC   C3B34089  28.134   2.738   7.931
 2480POPC   C4B34090  28.284   2.659   7.558
 2481POPC   NC334091  29.857   5.827   9.667
 2481POPC   PO434092  30.401   6.025   9.507
 2481POPC   GL134093  30.206   5.991   9.130
 2481POPC   GL234094  29.826   5.960   9.173
 2481POPC   C1A34095  30.140   5.861   8.711
 2481POPC   D2A34096  29.935   5.644   8.388
 2481POPC   C3A34097  29.980   5.804   7.965
 2481POPC   C4A34098  30.247   5.590   7.698
 2481POPC   C1B34099  29.686   6.090   8.760
 2481POPC   C2B34100  29.546   5.955   8.358
 2481POPC   C3B34101  29.527   6.050   7.931
 2481POPC   C4B34102  29.745   6.153   7.578
 2482POPC   NC334103   1.541  29.366   9.514
 2482POPC   PO434104   0.824  29.309   9.579
 2482POPC   GL134105   0.990  29.167   9.191
 2482POPC   GL234106   1.310  29.003   9.220
 2482POPC   C1A34107   0.961  29.031   8.749
 2482POPC   D2A34108   0.747  29.107   8.377
 2482POPC   C3A34109   1.023  29.057   8.098
 2482POPC   C4A34110   1.106  29.261   7.722
 2482POPC   C1B34111   1.375  29.297   8.879
 2482POPC   C2B34112   1.390  29.213   8.451
 2482POPC   C3B34113   1.519  29.153   8.035
 2482POPC   C4B34114   1.606  29.396   7.694
 2483POPC   NC334115   2.699  28.091   9.571
 2483POPC   PO434116   3.280  28.484   9.437
 2483POPC   GL134117   2.917  28.390   9.164
 2483POPC   GL234118   2.550  28.426   9.225
 2483POPC   C1A34119   2.832  28.242   8.757
 2483POPC   D2A34120   2.996  28.066   8.361
 2483POPC   C3A34121   2.964  28.348   8.010
 2483POPC   C4A34122   2.721  28.628   7.773
 2483POPC   C1B34123   2.387  28.088   8.925
 2483POPC   C2B34124   2.489  27.930   8.464
 2483POPC   C3B34125   2.638  27.914   7.994
 2483POPC   C4B34126   2.462  28.115   7.584
 2484POPC   NC334127   6.788  30.330   9.457
 2484POPC   PO434128   6.320  30.853   9.513
 2484POPC   GL134129   6.592  30.711   9.179
 2484POPC   GL234130   6.369  30.427   9.119
 2484POPC   C1A34131   6.805  30.509   8.802
 2484POPC   D2A34132   6.720  30.658   8.356
 2484POPC   C3A34133   6.940  30.822   7.964
 2484POPC   C4A34134   6.705  30.900   7.553
 2484POPC   C1B34135   6.318  30.459   8.660
 2484POPC   C2B34136   6.420  30.284   8.213
 2484POPC   C3B34137   6.648  30.406   7.807
 2484POPC   C4B34138   6.899  30.261   7.451
 2485POPC   NC334139  35.237  31.815   9.594
 2485POPC   PO434140  35.336  32.378   9.387
 2485POPC   GL134141  35.364  32.276   8.990
 2485POPC   GL234142  35.201  31.975   9.051
 2485POPC   C1A34143  35.450  32.329   8.523
 2485POPC   D2A34144  35.236  32.577   8.246
 2485POPC   C3A34145  35.213  32.663   7.819
 2485POPC   C4A34146  35.461  32.438   7.508
 2485POPC   C1B34147  34.985  32.181   8.679
 2485POPC   C2B34148  35.061  32.038   8.297
 2485POPC   C3B34149  35.214  32.135   7.903
 2485POPC   C4B34150  34.971  32.287   7.562
 2486POPC   NC334151  11.773   2.581   9.297
 2486POPC   PO434152  12.199   2.206   9.392
 2486POPC   GL134153  12.041   2.289   8.966
 2486POPC   GL234154  11.681   2.271   8.879
 2486POPC   C1A34155  12.051   2.217   8.513
 2486POPC   D2A34156  12.335   1.972   8.283
 2486POPC   C3A34157  12.234   1.897   7.851
 2486POPC   C4A34158  12.084   2.060   7.460
 2486POPC   C1B34159  11.623   1.934   8.563
 2486POPC   C2B34160  11.825   1.804   8.177
 2486POPC   C3B34161  11.718   1.807   7.733
 2486POPC   C4B34162  11.343   1.977   7.535
 2487POPC   NC334163  32.144  11.853   9.560
 2487POPC   PO434164  32.773  12.187   9.384
 2487POPC   GL134165  32.464  11.915   9.124
 2487POPC   GL234166  32.102  12.031   9.071
 2487POPC   C1A34167  32.429  11.871   8.671
 2487POPC   D2A34168  32.308  11.837   8.213
 2487POPC   C3A34169  32.435  12.107   7.876
 2487POPC   C4A34170  32.441  11.967   7.455
 2487POPC   C1B34171  31.909  11.865   8.674
 2487POPC   C2B34172  31.782  11.866   8.257
 2487POPC   C3B34173  31.902  12.056   7.848
 2487POPC   C4B34174  32.038  12.308   7.452
 2488POPC   NC334175  38.219  23.112   9.387
 2488POPC   PO434176  38.367  22.369   9.557
 2488POPC   GL134177  38.332  22.642   9.208
 2488POPC   GL234178  38.644  22.738   9.121
 2488POPC   C1A34179  38.219  22.723   8.773
 2488POPC   D2A34180  38.247  22.996   8.394
 2488POPC   C3A34181  38.350  22.911   7.935
 2488POPC   C4A34182  38.316  22.737   7.481
 2488POPC   C1B34183  38.687  22.934   8.707
 2488POPC   C2B34184  38.758  22.838   8.279
 2488POPC   C3B34185  38.861  22.988   7.884
 2488POPC   C4B34186  38.688  23.048   7.497
 2489POPC   NC334187   9.204  30.682   9.324
 2489POPC   PO434188   9.901  30.797   9.588
 2489POPC   GL134189   9.763  30.775   9.154
 2489POPC   GL234190   9.495  31.024   9.043
 2489POPC   C1A34191   9.990  30.813   8.740
 2489POPC   D2A34192   9.888  30.619   8.350
 2489POPC   C3A34193  10.152  30.641   8.009
 2489POPC   C4A34194  10.041  30.809   7.648
 2489POPC   C1B34195   9.513  30.629   8.750
 2489POPC   C2B34196   9.489  30.321   8.438
 2489POPC   C3B34197   9.463  30.543   8.055
 2489POPC   C4B34198   9.532  30.912   7.822
 2490POPC   NC334199  13.813  29.068   9.549
 2490POPC   PO434200  13.144  29.036   9.388
 2490POPC   GL134201  13.510  29.037   9.101
 2490POPC   GL234202  13.828  29.237   9.078
 2490POPC   C1A34203  13.500  29.149   8.677
 2490POPC   D2A34204  13.407  29.425   8.354
 2490POPC   C3A34205  13.593  29.262   8.012
 2490POPC   C4A34206  13.314  29.186   7.684
 2490POPC   C1B34207  14.001  28.964   8.806
 2490POPC   C2B34208  13.873  28.963   8.382
 2490POPC   C3B34209  13.907  28.818   7.984
 2490POPC   C4B34210  13.871  29.069   7.627
 2491POPC   NC334211  39.977  41.875   9.543
 2491POPC   PO434212  40.137  41.302   9.356
 2491POPC   GL134213  39.870  41.565   9.120
 2491POPC   GL234214  39.659  41.894   9.141
 2491POPC   C1A34215  39.955  41.450   8.714
 2491POPC   D2A34216  39.798  41.589   8.345
 2491POPC   C3A34217  40.032  41.492   8.011
 2491POPC   C4A34218  40.001  41.235   7.669
 2491POPC   C1B34219  39.865  41.948   8.754
 2491POPC   C2B34220  39.828  42.098   8.373
 2491POPC   C3B34221  39.885  41.980   7.975
 2491POPC   C4B34222  39.750  41.705   7.638
 2492POPC   NC334223   7.723  29.572   9.516
 2492POPC   PO434224   7.063  29.755   9.462
 2492POPC   GL134225   7.202  29.881   9.058
 2492POPC   GL234226   7.550  29.778   9.063
 2492POPC   C1A34227   7.395  30.220   8.791
 2492POPC   D2A34228   7.639  30.189   8.394
 2492POPC   C3A34229   7.456  29.947   8.059
 2492POPC   C4A34230   7.259  30.029   7.687
 2492POPC   C1B34231   7.543  29.741   8.622
 2492POPC   C2B34232   7.860  29.733   8.289
 2492POPC   C3B34233   7.861  29.566   7.891
 2492POPC   C4B34234   7.646  29.725   7.593
 2493POPC   NC334235  23.467  44.674   9.663
 2493POPC   PO434236  23.937  44.209   9.428
 2493POPC   GL134237  23.877  44.497   9.056
 2493POPC   GL234238  23.570  44.627   9.152
 2493POPC   C1A34239  23.990  44.630   8.621
 2493POPC   D2A34240  23.812  44.940   8.330
 2493POPC   C3A34241  23.906  44.909   7.903
 2493POPC   C4A34242  23.924  44.474   7.821
 2493POPC   C1B34243  23.548  44.894   8.798
 2493POPC   C2B34244  23.314  44.838   8.422
 2493POPC   C3B34245  23.416  44.777   8.008
 2493POPC   C4B34246  23.526  44.659   7.591
 2494POPC   NC334247  16.906  33.053   9.564
 2494POPC   PO434248  16.241  32.960   9.738
 2494POPC   GL134249  16.488  33.032   9.263
 2494POPC   GL234250  16.308  33.210   9.045
 2494POPC   C1A34251  16.871  33.011   8.904
 2494POPC   D2A34252  17.145  33.020   8.480
 2494POPC   C3A34253  17.029  32.849   8.052
 2494POPC   C4A34254  16.645  32.725   7.825
 2494POPC   C1B34255  16.522  33.285   8.680
 2494POPC   C2B34256  16.635  33.031   8.321
 2494POPC   C3B34257  16.606  33.218   7.934
 2494POPC   C4B34258  16.232  33.297   7.740
 2495POPC   NC334259   7.556  41.099   9.588
 2495POPC   PO434260   7.461  41.788   9.574
 2495POPC   GL134261   7.472  41.600   9.166
 2495POPC   GL234262   7.663  41.283   9.127
 2495POPC   C1A34263   7.311  41.489   8.751
 2495POPC   D2A34264   7.098  41.354   8.363
 2495POPC   C3A34265   7.367  41.486   7.993
 2495POPC   C4A34266   7.299  41.877   7.834
 2495POPC   C1B34267   7.867  41.330   8.729
 2495POPC   C2B34268   7.966  41.493   8.315
 2495POPC   C3B34269   7.829  41.246   7.916
 2495POPC   C4B34270   7.524  41.123   7.599
 2496POPC   NC334271  40.920   4.753   9.790
 2496POPC   PO434272  40.635   5.321   9.510
 2496POPC   GL134273  40.861   5.159   9.191
 2496POPC   GL234274  40.835   4.803   9.229
 2496POPC   C1A34275  40.801   5.270   8.785
 2496POPC   D2A34276  40.585   5.172   8.443
 2496POPC   C3A34277  40.858   5.161   8.117
 2496POPC   C4A34278  40.663   5.194   7.707
 2496POPC   C1B34279  40.539   4.846   8.867
 2496POPC   C2B34280  40.514   4.656   8.460
 2496POPC   C3B34281  40.500   4.814   8.049
 2496POPC   C4B34282  40.767   4.672   7.684
 2497POPC   NC334283  13.162   3.259   9.513
 2497POPC   PO434284  12.940   2.592   9.631
 2497POPC   GL134285  12.920   2.837   9.226
 2497POPC   GL234286  13.268   2.972   9.089
 2497POPC   C1A34287  12.780   2.743   8.795
 2497POPC   D2A34288  12.941   2.872   8.395
 2497POPC   C3A34289  12.846   2.628   8.025
 2497POPC   C4A34290  12.650   2.706   7.651
 2497POPC   C1B34291  12.967   3.228   8.840
 2497POPC   C2B34292  12.770   3.358   8.442
 2497POPC   C3B34293  12.772   3.164   7.997
 2497POPC   C4B34294  13.080   2.986   7.742
 2498POPC   NC334295   8.765  35.216   9.556
 2498POPC   PO434296   8.971  35.839   9.438
 2498POPC   GL134297   8.759  35.510   9.134
 2498POPC   GL234298   8.773  35.122   9.053
 2498POPC   C1A34299   8.731  35.496   8.694
 2498POPC   D2A34300   8.803  35.190   8.389
 2498POPC   C3A34301   9.019  35.383   8.043
 2498POPC   C4A34302   8.905  35.480   7.620
 2498POPC   C1B34303   9.166  35.270   8.851
 2498POPC   C2B34304   9.348  35.144   8.458
 2498POPC   C3B34305   9.235  34.903   8.105
 2498POPC   C4B34306   9.172  35.049   7.678
 2499POPC   NC334307  39.445   3.797   9.578
 2499POPC   PO434308  39.075   3.260   9.470
 2499POPC   GL134309  39.199   3.388   9.048
 2499POPC   GL234310  39.318   3.725   9.091
 2499POPC   C1A34311  39.299   3.257   8.604
 2499POPC   D2A34312  39.423   3.043   8.209
 2499POPC   C3A34313  39.336   3.313   7.906
 2499POPC   C4A34314  39.203   3.559   7.579
 2499POPC   C1B34315  39.506   3.735   8.688
 2499POPC   C2B34316  39.323   3.738   8.258
 2499POPC   C3B34317  39.587   3.766   7.871
 2499POPC   C4B34318  39.619   3.902   7.425
 2500POPC   NC334319  10.798  22.027   9.447
 2500POPC   PO434320  10.322  22.542   9.591
 2500POPC   GL134321  10.363  22.315   9.223
 2500POPC   GL234322  10.493  22.035   9.055
 2500POPC   C1A34323  10.222  22.388   8.857
 2500POPC   D2A34324  10.504  22.475   8.516
 2500POPC   C3A34325  10.522  22.159   8.202
 2500POPC   C4A34326  10.439  22.229   7.773
 2500POPC   C1B34327  10.401  21.934   8.668
 2500POPC   C2B34328  10.697  21.715   8.459
 2500POPC   C3B34329  10.837  21.751   8.078
 2500POPC   C4B34330  10.652  21.793   7.696
 2501POPC   NC334331   4.493  42.309   9.391
 2501POPC   PO434332   3.863  42.717   9.460
 2501POPC   GL134333   4.100  42.573   9.120
 2501POPC   GL234334   4.114  42.220   9.009
 2501POPC   C1A34335   4.235  42.699   8.720
 2501POPC   D2A34336   4.415  42.620   8.315
 2501POPC   C3A34337   4.167  42.364   8.030
 2501POPC   C4A34338   4.256  42.414   7.615
 2501POPC   C1B34339   4.492  42.260   8.705
 2501POPC   C2B34340   4.608  42.121   8.261
 2501POPC   C3B34341   4.480  42.005   7.831
 2501POPC   C4B34342   4.113  41.773   7.650
 2502POPC   NC334343  20.801  18.987   9.420
 2502POPC   PO434344  20.173  19.354   9.463
 2502POPC   GL134345  20.432  19.162   9.093
 2502POPC   GL234346  20.842  19.171   8.972
 2502POPC   C1A34347  20.295  18.791   8.866
 2502POPC   D2A34348  20.309  18.592   8.454
 2502POPC   C3A34349  20.287  18.887   8.126
 2502POPC   C4A34350  20.462  19.066   7.758
 2502POPC   C1B34351  20.674  19.007   8.586
 2502POPC   C2B34352  20.659  19.253   8.222
 2502POPC   C3B34353  20.926  19.172   7.909
 2502POPC   C4B34354  20.907  18.719   7.832
 2503POPC   NC334355  34.665  38.222   9.460
 2503POPC   PO434356  34.403  38.853   9.460
 2503POPC   GL134357  34.414  38.539   9.145
 2503POPC   GL234358  34.795  38.504   9.040
 2503POPC   C1A34359  34.368  38.601   8.723
 2503POPC   D2A34360  34.693  38.678   8.421
 2503POPC   C3A34361  34.606  38.567   7.970
 2503POPC   C4A34362  34.228  38.527   7.708
 2503POPC   C1B34363  34.664  38.171   8.758
 2503POPC   C2B34364  34.544  38.059   8.328
 2503POPC   C3B34365  34.668  38.052   7.862
 2503POPC   C4B34366  34.564  38.233   7.430
 2504POPC   NC334367  14.399  28.679   9.581
 2504POPC   PO434368  14.673  29.265   9.565
 2504POPC   GL134369  14.386  29.184   9.220
 2504POPC   GL234370  14.575  28.858   9.148
 2504POPC   C1A34371  14.250  29.411   8.831
 2504POPC   D2A34372  14.312  29.208   8.434
 2504POPC   C3A34373  14.154  29.287   8.024
 2504POPC   C4A34374  14.438  29.364   7.696
 2504POPC   C1B34375  14.515  28.854   8.747
 2504POPC   C2B34376  14.752  28.954   8.411
 2504POPC   C3B34377  14.648  29.029   8.018
 2504POPC   C4B34378  14.350  28.825   7.778
 2505POPC   NC334379  11.719  38.103   9.829
 2505POPC   PO434380  11.265  38.569   9.585
 2505POPC   GL134381  11.428  38.244   9.326
 2505POPC   GL234382  11.621  38.489   9.152
 2505POPC   C1A34383  11.386  38.156   8.873
 2505POPC   D2A34384  11.630  38.219   8.506
 2505POPC   C3A34385  11.335  38.255   8.176
 2505POPC   C4A34386  11.354  38.420   7.781
 2505POPC   C1B34387  11.487  38.698   8.773
 2505POPC   C2B34388  11.141  38.641   8.474
 2505POPC   C3B34389  11.068  38.745   8.046
 2505POPC   C4B34390  11.317  38.984   7.734
 2506POPC   NC334391  40.672  12.453   9.804
 2506POPC   PO434392  40.890  11.840   9.650
 2506POPC   GL134393  40.961  12.091   9.252
 2506POPC   GL234394  40.663  12.324   9.249
 2506POPC   C1A34395  40.902  12.228   8.798
 2506POPC   D2A34396  40.932  12.139   8.337
 2506POPC   C3A34397  40.740  11.860   8.045
 2506POPC   C4A34398  40.989  11.542   7.852
 2506POPC   C1B34399  40.402  12.439   8.890
 2506POPC   C2B34400  40.477  12.352   8.485
 2506POPC   C3B34401  40.486  12.351   8.051
 2506POPC   C4B34402  40.882  12.330   7.856
 2507POPC   NC334403  40.311  33.605   9.732
 2507POPC   PO434404  39.876  34.053   9.540
 2507POPC   GL134405  39.931  33.895   9.119
 2507POPC   GL234406  39.633  33.685   9.120
 2507POPC   C1A34407  40.121  34.001   8.675
 2507POPC   D2A34408  40.155  34.133   8.210
 2507POPC   C3A34409  40.171  33.800   7.863
 2507POPC   C4A34410  40.208  33.891   7.387
 2507POPC   C1B34411  39.773  33.628   8.715
 2507POPC   C2B34412  39.749  33.804   8.305
 2507POPC   C3B34413  39.687  33.584   7.933
 2507POPC   C4B34414  39.794  33.642   7.535
 2508POPC   NC334415  23.708  31.756   9.795
 2508POPC   PO434416  23.371  31.231   9.551
 2508POPC   GL134417  23.576  31.280   9.147
 2508POPC   GL234418  23.807  31.572   9.114
 2508POPC   C1A34419  23.429  31.408   8.738
 2508POPC   D2A34420  23.618  31.747   8.455
 2508POPC   C3A34421  23.553  31.711   7.987
 2508POPC   C4A34422  23.719  31.592   7.557
 2508POPC   C1B34423  23.935  31.422   8.741
 2508POPC   C2B34424  23.789  31.267   8.345
 2508POPC   C3B34425  23.875  31.228   7.917
 2508POPC   C4B34426  24.119  31.256   7.546
 2509POPC   NC334427  33.769  11.794   9.768
 2509POPC   PO434428  33.468  11.157   9.613
 2509POPC   GL134429  33.841  11.200   9.268
 2509POPC   GL234430  33.821  11.469   9.021
 2509POPC   C1A34431  34.026  11.069   8.833
 2509POPC   D2A34432  34.098  11.216   8.383
 2509POPC   C3A34433  33.932  11.113   7.986
 2509POPC   C4A34434  33.556  11.148   7.736
 2509POPC   C1B34435  33.607  11.537   8.618
 2509POPC   C2B34436  33.568  11.431   8.165
 2509POPC   C3B34437  33.436  11.645   7.747
 2509POPC   C4B34438  33.652  11.510   7.362
 2510POPC   NC334439  27.072  21.998   9.504
 2510POPC   PO434440  26.688  22.490   9.536
 2510POPC   GL134441  26.595  22.303   9.151
 2510POPC   GL234442  26.773  21.982   9.104
 2510POPC   C1A34443  26.569  22.462   8.745
 2510POPC   D2A34444  26.539  22.696   8.371
 2510POPC   C3A34445  26.591  22.428   8.018
 2510POPC   C4A34446  26.953  22.388   7.742
 2510POPC   C1B34447  27.007  22.225   8.823
 2510POPC   C2B34448  26.886  22.213   8.394
 2510POPC   C3B34449  27.172  22.028   8.109
 2510POPC   C4B34450  27.205  21.911   7.692
 2511POPC   NC334451  14.426  15.609   9.712
 2511POPC   PO434452  14.025  16.069   9.684
 2511POPC   GL134453  14.198  15.990   9.256
 2511POPC   GL234454  14.319  15.694   9.161
 2511POPC   C1A34455  14.366  16.152   8.853
 2511POPC   D2A34456  14.149  16.315   8.518
 2511POPC   C3A34457  14.198  16.072   8.126
 2511POPC   C4A34458  14.442  16.077   7.762
 2511POPC   C1B34459  14.564  15.681   8.744
 2511POPC   C2B34460  14.635  15.775   8.316
 2511POPC   C3B34461  14.737  15.670   7.895
 2511POPC   C4B34462  14.585  15.707   7.437
 2512POPC   NC334463  12.462  38.749   9.372
 2512POPC   PO434464  12.123  38.391   9.824
 2512POPC   GL134465  12.069  38.436   9.380
 2512POPC   GL234466  11.961  38.797   9.358
 2512POPC   C1A34467  12.047  38.321   8.911
 2512POPC   D2A34468  12.149  38.087   8.533
 2512POPC   C3A34469  12.159  38.281   8.134
 2512POPC   C4A34470  11.859  38.395   7.820
 2512POPC   C1B34471  11.987  38.846   8.904
 2512POPC   C2B34472  11.935  38.647   8.501
 2512POPC   C3B34473  12.035  38.777   8.104
 2512POPC   C4B34474  12.307  38.676   7.717
 2513POPC   NC334475  32.439   4.817   9.454
 2513POPC   PO434476  31.959   5.330   9.353
 2513POPC   GL134477  32.296   5.177   9.126
 2513POPC   GL234478  32.567   5.377   9.179
 2513POPC   C1A34479  32.497   4.927   8.787
 2513POPC   D2A34480  32.298   4.646   8.478
 2513POPC   C3A34481  32.187   4.904   8.107
 2513POPC   C4A34482  32.391   4.984   7.740
 2513POPC   C1B34483  32.444   5.458   8.743
 2513POPC   C2B34484  32.528   5.276   8.350
 2513POPC   C3B34485  32.403   5.436   7.972
 2513POPC   C4B34486  32.025   5.336   7.799
 2514POPC   NC334487   8.877   7.957   9.428
 2514POPC   PO434488   9.244   8.515   9.470
 2514POPC   GL134489   9.064   8.317   9.125
 2514POPC   GL234490   9.264   7.993   9.125
 2514POPC   C1A34491   8.830   8.143   8.788
 2514POPC   D2A34492   8.989   8.179   8.378
 2514POPC   C3A34493   8.758   8.189   8.007
 2514POPC   C4A34494   8.753   8.539   7.720
 2514POPC   C1B34495   9.361   8.063   8.725
 2514POPC   C2B34496   9.394   7.866   8.318
 2514POPC   C3B34497   9.334   8.135   7.974
 2514POPC   C4B34498   9.222   8.237   7.534
 2515POPC   NC334499  29.886  44.410   9.649
 2515POPC   PO434500  29.569  44.660   9.094
 2515POPC   GL134501  29.942  44.493   9.060
 2515POPC   GL234502  30.107  44.797   9.189
 2515POPC   C1A34503  29.993  44.378   8.619
 2515POPC   D2A34504  30.222  44.592   8.277
 2515POPC   C3A34505  30.091  44.594   7.858
 2515POPC   C4A34506  29.708  44.578   7.661
 2515POPC   C1B34507  30.079  44.896   8.743
 2515POPC   C2B34508  29.740  44.977   8.465
 2515POPC   C3B34509  29.744  44.932   8.033
 2515POPC   C4B34510  29.929   0.039   7.625
 2516POPC   NC334511  17.184  25.264   9.534
 2516POPC   PO434512  16.470  25.340   9.575
 2516POPC   GL134513  16.593  25.364   9.159
 2516POPC   GL234514  16.932  25.495   9.158
 2516POPC   C1A34515  16.746  25.223   8.763
 2516POPC   D2A34516  16.654  25.039   8.391
 2516POPC   C3A34517  16.499  25.280   8.103
 2516POPC   C4A34518  16.623  25.325   7.695
 2516POPC   C1B34519  17.132  25.562   8.789
 2516POPC   C2B34520  17.121  25.333   8.394
 2516POPC   C3B34521  17.309  25.416   7.981
 2516POPC   C4B34522  17.117  25.410   7.577
 2517POPC   NC334523  22.320  28.844   9.630
 2517POPC   PO434524  21.901  28.327   9.448
 2517POPC   GL134525  22.160  28.309   9.096
 2517POPC   GL234526  22.287  28.639   9.165
 2517POPC   C1A34527  22.044  28.112   8.701
 2517POPC   D2A34528  21.874  27.977   8.302
 2517POPC   C3A34529  22.050  28.140   7.915
 2517POPC   C4A34530  22.088  27.939   7.452
 2517POPC   C1B34531  22.060  28.701   8.775
 2517POPC   C2B34532  21.993  28.520   8.361
 2517POPC   C3B34533  21.931  28.673   7.959
 2517POPC   C4B34534  22.235  28.654   7.688
 2518POPC   NC334535  11.594  23.986   9.337
 2518POPC   PO434536  11.324  23.396   9.587
 2518POPC   GL134537  11.210  23.691   9.184
 2518POPC   GL234538  11.076  24.027   9.135
 2518POPC   C1A34539  11.324  23.874   8.736
 2518POPC   D2A34540  11.544  24.059   8.429
 2518POPC   C3A34541  11.541  23.789   8.107
 2518POPC   C4A34542  11.412  23.602   7.765
 2518POPC   C1B34543  10.827  23.989   8.716
 2518POPC   C2B34544  10.917  23.866   8.301
 2518POPC   C3B34545  11.079  23.975   7.913
 2518POPC   C4B34546  11.222  24.029   7.503
 2519POPC   NC334547  15.482  13.505   9.531
 2519POPC   PO434548  16.041  13.985   9.521
 2519POPC   GL134549  15.837  13.769   9.224
 2519POPC   GL234550  16.131  13.541   9.227
 2519POPC   C1A34551  15.571  13.794   8.853
 2519POPC   D2A34552  15.739  13.803   8.437
 2519POPC   C3A34553  15.652  13.809   8.000
 2519POPC   C4A34554  15.913  13.724   7.634
 2519POPC   C1B34555  16.067  13.562   8.777
 2519POPC   C2B34556  16.244  13.603   8.361
 2519POPC   C3B34557  16.156  13.441   7.958
 2519POPC   C4B34558  16.360  13.494   7.545
 2520POPC   NC334559  31.563   4.513   9.568
 2520POPC   PO434560  31.663   3.878   9.664
 2520POPC   GL134561  31.355   4.095   9.297
 2520POPC   GL234562  31.622   4.293   9.119
 2520POPC   C1A34563  31.226   4.265   8.842
 2520POPC   D2A34564  31.429   4.236   8.429
 2520POPC   C3A34565  31.195   4.312   8.095
 2520POPC   C4A34566  31.367   4.336   7.714
 2520POPC   C1B34567  31.593   4.593   8.752
 2520POPC   C2B34568  31.781   4.630   8.331
 2520POPC   C3B34569  31.706   4.724   7.877
 2520POPC   C4B34570  31.927   4.920   7.514
 2521POPC   NC334571  43.005  34.938   9.506
 2521POPC   PO434572  43.380  34.454   9.429
 2521POPC   GL134573  43.053  34.533   9.081
 2521POPC   GL234574  42.848  34.257   8.971
 2521POPC   C1A34575  43.133  34.624   8.592
 2521POPC   D2A34576  43.211  34.365   8.188
 2521POPC   C3A34577  43.257  34.517   7.751
 2521POPC   C4A34578  43.547  34.635   7.400
 2521POPC   C1B34579  42.665  34.465   8.620
 2521POPC   C2B34580  42.744  34.537   8.201
 2521POPC   C3B34581  42.753  34.367   7.829
 2521POPC   C4B34582  42.818  34.706   7.539
 2522POPC   NC334583  43.375   3.093   9.292
 2522POPC   PO434584  42.971   2.641   9.594
 2522POPC   GL134585  43.235   2.582   9.213
 2522POPC   GL234586  42.976   2.793   9.098
 2522POPC   C1A34587  43.323   2.722   8.746
 2522POPC   D2A34588  43.042   2.867   8.461
 2522POPC   C3A34589  43.156   2.751   8.044
 2522POPC   C4A34590  43.550   2.718   7.921
 2522POPC   C1B34591  42.859   3.161   8.861
 2522POPC   C2B34592  42.751   3.294   8.469
 2522POPC   C3B34593  42.726   3.022   8.107
 2522POPC   C4B34594  42.903   3.073   7.722
 2523POPC   NC334595  12.818  28.704   9.408
 2523POPC   PO434596  12.128  28.418   9.561
 2523POPC   GL134597  12.044  28.522   9.163
 2523POPC   GL234598  12.357  28.666   9.172
 2523POPC   C1A34599  11.936  28.393   8.745
 2523POPC   D2A34600  12.113  28.347   8.322
 2523POPC   C3A34601  11.905  28.318   7.914
 2523POPC   C4A34602  12.068  28.302   7.485
 2523POPC   C1B34603  12.343  28.710   8.744
 2523POPC   C2B34604  12.550  28.629   8.365
 2523POPC   C3B34605  12.374  28.631   7.981
 2523POPC   C4B34606  12.444  28.611   7.576
 2524POPC   NC334607  29.645   0.080   9.263
 2524POPC   PO434608  30.048   0.580   9.385
 2524POPC   GL134609  29.907   0.491   9.004
 2524POPC   GL234610  29.578   0.604   9.047
 2524POPC   C1A34611  30.062   0.380   8.582
 2524POPC   D2A34612  30.205   0.132   8.242
 2524POPC   C3A34613  30.105   0.407   7.910
 2524POPC   C4A34614  30.079   0.520   7.451
 2524POPC   C1B34615  29.561   0.448   8.635
 2524POPC   C2B34616  29.679   0.459   8.220
 2524POPC   C3B34617  29.554   0.347   7.827
 2524POPC   C4B34618  29.358  44.970   7.649
 2525POPC   NC334619  37.261  14.731   9.464
 2525POPC   PO434620  36.718  15.074   9.578
 2525POPC   GL134621  36.954  15.176   9.169
 2525POPC   GL234622  37.012  15.545   9.089
 2525POPC   C1A34623  36.767  15.251   8.738
 2525POPC   D2A34624  36.778  15.009   8.342
 2525POPC   C3A34625  36.727  15.203   7.948
 2525POPC   C4A34626  36.694  15.388   7.540
 2525POPC   C1B34627  37.259  15.298   8.755
 2525POPC   C2B34628  37.312  15.110   8.351
 2525POPC   C3B34629  37.241  15.271   7.920
 2525POPC   C4B34630  37.076  15.074   7.543
 2526POPC   NC334631  28.895  20.415   9.423
 2526POPC   PO434632  29.536  20.406   9.505
 2526POPC   GL134633  29.291  20.354   9.100
 2526POPC   GL234634  29.037  20.589   8.974
 2526POPC   C1A34635  29.440  20.403   8.684
 2526POPC   D2A34636  29.566  20.400   8.263
 2526POPC   C3A34637  29.254  20.483   8.005
 2526POPC   C4A34638  29.386  20.641   7.682
 2526POPC   C1B34639  28.846  20.898   8.721
 2526POPC   C2B34640  28.602  20.903   8.390
 2526POPC   C3B34641  28.821  20.997   8.026
 2526POPC   C4B34642  28.895  20.757   7.664
 2527POPC   NC334643  15.422  32.094   9.601
 2527POPC   PO434644  14.927  32.537   9.476
 2527POPC   GL134645  15.181  32.294   9.183
 2527POPC   GL234646  15.132  31.916   9.200
 2527POPC   C1A34647  15.196  32.344   8.750
 2527POPC   D2A34648  14.981  32.309   8.374
 2527POPC   C3A34649  15.184  32.542   8.081
 2527POPC   C4A34650  15.126  32.441   7.668
 2527POPC   C1B34651  15.476  31.927   8.881
 2527POPC   C2B34652  15.486  32.046   8.435
 2527POPC   C3B34653  15.295  32.018   8.021
 2527POPC   C4B34654  15.557  31.838   7.709
 2528POPC   NC334655  37.274  10.838   9.477
 2528POPC   PO434656  36.711  10.395   9.466
 2528POPC   GL134657  36.867  10.524   9.121
 2528POPC   GL234658  36.648  10.775   9.013
 2528POPC   C1A34659  36.761  10.373   8.702
 2528POPC   D2A34660  36.602  10.332   8.278
 2528POPC   C3A34661  36.859  10.278   7.923
 2528POPC   C4A34662  37.160  10.548   7.685
 2528POPC   C1B34663  37.052  10.850   8.776
 2528POPC   C2B34664  37.167  10.984   8.352
 2528POPC   C3B34665  36.907  10.834   8.006
 2528POPC   C4B34666  36.770  11.004   7.589
 2529POPC   NC334667  26.303  30.406   9.622
 2529POPC   PO434668  25.890  29.750   9.582
 2529POPC   GL134669  25.832  29.641   9.156
 2529POPC   GL234670  26.164  29.622   8.929
 2529POPC   C1A34671  25.661  29.745   8.766
 2529POPC   D2A34672  25.948  29.700   8.456
 2529POPC   C3A34673  25.876  29.804   8.071
 2529POPC   C4A34674  26.000  29.583   7.695
 2529POPC   C1B34675  26.063  30.067   8.838
 2529POPC   C2B34676  25.968  30.237   8.432
 2529POPC   C3B34677  26.184  30.293   8.053
 2529POPC   C4B34678  26.041  30.079   7.685
 2530POPC   NC334679   6.709  12.577   9.373
 2530POPC   PO434680   6.407  13.161   9.435
 2530POPC   GL134681   6.529  12.983   9.081
 2530POPC   GL234682   6.839  13.099   9.056
 2530POPC   C1A34683   6.550  12.847   8.669
 2530POPC   D2A34684   6.696  12.584   8.355
 2530POPC   C3A34685   6.471  12.680   8.005
 2530POPC   C4A34686   6.385  12.505   7.649
 2530POPC   C1B34687   7.063  12.868   8.719
 2530POPC   C2B34688   6.998  12.987   8.290
 2530POPC   C3B34689   6.974  12.779   7.902
 2530POPC   C4B34690   6.748  12.916   7.541
 2531POPC   NC334691  28.887  44.918   9.645
 2531POPC   PO434692  29.540  44.746   9.600
 2531POPC   GL134693  29.107  44.662   9.279
 2531POPC   GL234694  28.939  44.953   9.143
 2531POPC   C1A34695  28.983  44.477   8.850
 2531POPC   D2A34696  29.067  44.647   8.401
 2531POPC   C3A34697  29.287  44.507   7.977
 2531POPC   C4A34698  29.235  44.495   7.502
 2531POPC   C1B34699  28.736  44.933   8.757
 2531POPC   C2B34700  28.764   0.099   8.314
 2531POPC   C3B34701  28.907  44.853   7.964
 2531POPC   C4B34702  28.762  44.512   7.851
 2532POPC   NC334703   0.266   5.598   9.467
 2532POPC   PO434704   0.781   5.966   9.514
 2532POPC   GL134705   0.542   6.061   9.159
 2532POPC   GL234706   0.234   5.953   9.062
 2532POPC   C1A34707   0.624   5.842   8.765
 2532POPC   D2A34708   0.714   5.590   8.442
 2532POPC   C3A34709   0.796   5.701   8.006
 2532POPC   C4A34710   0.778   5.378   7.694
 2532POPC   C1B34711   0.096   5.846   8.651
 2532POPC   C2B34712   0.257   5.703   8.260
 2532POPC   C3B34713   0.306   5.663   7.822
 2532POPC   C4B34714   0.158   6.014   7.575
 2533POPC   NC334715  31.657  31.433   9.480
 2533POPC   PO434716  31.000  31.251   9.383
 2533POPC   GL134717  31.265  31.397   9.039
 2533POPC   GL234718  31.628  31.378   8.983
 2533POPC   C1A34719  31.301  31.315   8.602
 2533POPC   D2A34720  31.557  31.248   8.248
 2533POPC   C3A34721  31.245  31.211   7.897
 2533POPC   C4A34722  31.088  31.572   7.677
 2533POPC   C1B34723  31.953  31.300   8.661
 2533POPC   C2B34724  32.113  31.408   8.279
 2533POPC   C3B34725  31.828  31.652   8.063
 2533POPC   C4B34726  31.599  31.517   7.697
 2534POPC   NC334727   5.085   9.453   9.458
 2534POPC   PO434728   4.879  10.110   9.601
 2534POPC   GL134729   5.121   9.922   9.254
 2534POPC   GL234730   4.815   9.849   9.154
 2534POPC   C1A34731   5.220   9.785   8.808
 2534POPC   D2A34732   5.079   9.520   8.432
 2534POPC   C3A34733   5.325   9.609   8.086
 2534POPC   C4A34734   5.386   9.931   7.809
 2534POPC   C1B34735   4.724   9.619   8.814
 2534POPC   C2B34736   4.596   9.714   8.412
 2534POPC   C3B34737   4.836   9.800   8.039
 2534POPC   C4B34738   5.002   9.583   7.675
 2535POPC   NC334739   1.441  14.585   9.454
 2535POPC   PO434740   0.922  14.137   9.521
 2535POPC   GL134741   1.008  14.324   9.157
 2535POPC   GL234742   1.052  14.657   9.103
 2535POPC   C1A34743   1.131  14.314   8.737
 2535POPC   D2A34744   0.918  14.358   8.377
 2535POPC   C3A34745   1.166  14.137   8.096
 2535POPC   C4A34746   1.014  14.254   7.694
 2535POPC   C1B34747   1.390  14.753   8.823
 2535POPC   C2B34748   1.314  14.689   8.413
 2535POPC   C3B34749   1.169  14.617   8.007
 2535POPC   C4B34750   1.428  14.661   7.661
 2536POPC   NC334751   6.057   3.850   9.457
 2536POPC   PO434752   5.668   3.327   9.516
 2536POPC   GL134753   5.747   3.292   9.125
 2536POPC   GL234754   6.038   3.452   9.120
 2536POPC   C1A34755   5.536   3.517   8.800
 2536POPC   D2A34756   5.656   3.789   8.477
 2536POPC   C3A34757   5.802   3.593   8.111
 2536POPC   C4A34758   5.858   3.494   7.684
 2536POPC   C1B34759   6.011   3.363   8.700
 2536POPC   C2B34760   6.250   3.452   8.387
 2536POPC   C3B34761   6.246   3.281   8.032
 2536POPC   C4B34762   6.352   3.388   7.670
 2537POPC   NC334763  26.380  33.035   9.530
 2537POPC   PO434764  25.764  32.870   9.599
 2537POPC   GL134765  25.929  33.162   9.296
 2537POPC   GL234766  26.058  32.862   9.135
 2537POPC   C1A34767  26.151  33.319   8.929
 2537POPC   D2A34768  26.163  33.213   8.490
 2537POPC   C3A34769  26.363  33.416   8.117
 2537POPC   C4A34770  26.356  33.197   7.656
 2537POPC   C1B34771  26.399  32.889   8.834
 2537POPC   C2B34772  26.368  32.758   8.424
 2537POPC   C3B34773  26.304  32.538   8.029
 2537POPC   C4B34774  26.096  32.688   7.628
 2538POPC   NC334775  38.000  43.328   9.517
 2538POPC   PO434776  37.398  42.859   9.511
 2538POPC   GL134777  37.610  43.097   9.217
 2538POPC   GL234778  37.414  43.362   9.071
 2538POPC   C1A34779  37.786  43.069   8.811
 2538POPC   D2A34780  37.849  43.196   8.388
 2538POPC   C3A34781  37.614  43.326   8.048
 2538POPC   C4A34782  37.804  43.194   7.642
 2538POPC   C1B34783  37.362  43.296   8.619
 2538POPC   C2B34784  37.399  42.932   8.336
 2538POPC   C3B34785  37.195  42.917   7.941
 2538POPC   C4B34786  37.318  43.019   7.507
 2539POPC   NC334787   6.518  10.396   9.442
 2539POPC   PO434788   7.080  10.766   9.426
 2539POPC   GL134789   6.767  10.697   9.095
 2539POPC   GL234790   6.477  10.950   9.085
 2539POPC   C1A34791   6.671  10.338   8.764
 2539POPC   D2A34792   6.599  10.073   8.393
 2539POPC   C3A34793   6.618  10.194   7.966
 2539POPC   C4A34794   7.000  10.087   7.767
 2539POPC   C1B34795   6.594  10.829   8.644
 2539POPC   C2B34796   6.621  10.633   8.257
 2539POPC   C3B34797   6.591  10.833   7.846
 2539POPC   C4B34798   6.539  10.927   7.383
 2540POPC   NC334799  42.395  20.262   9.656
 2540POPC   PO434800  42.264  20.884   9.581
 2540POPC   GL134801  42.416  20.598   9.231
 2540POPC   GL234802  42.553  20.250   9.175
 2540POPC   C1A34803  42.313  20.524   8.811
 2540POPC   D2A34804  42.430  20.744   8.465
 2540POPC   C3A34805  42.379  20.587   8.071
 2540POPC   C4A34806  42.193  20.759   7.735
 2540POPC   C1B34807  42.772  20.300   8.792
 2540POPC   C2B34808  42.846  20.460   8.380
 2540POPC   C3B34809  42.766  20.293   7.965
 2540POPC   C4B34810  42.506  20.210   7.626
 2541POPC   NC334811  25.555   3.901   9.385
 2541POPC   PO434812  25.026   4.296   9.490
 2541POPC   GL134813  25.058   4.339   9.080
 2541POPC   GL234814  25.390   4.271   9.079
 2541POPC   C1A34815  24.874   4.293   8.672
 2541POPC   D2A34816  25.060   4.423   8.285
 2541POPC   C3A34817  24.850   4.300   7.946
 2541POPC   C4A34818  24.955   3.942   7.795
 2541POPC   C1B34819  25.349   4.128   8.694
 2541POPC   C2B34820  25.514   4.080   8.340
 2541POPC   C3B34821  25.441   3.963   7.954
 2541POPC   C4B34822  25.533   4.240   7.641
 2542POPC   NC334823  39.722  10.398   9.498
 2542POPC   PO434824  40.205  10.852   9.547
 2542POPC   GL134825  40.038  10.665   9.181
 2542POPC   GL234826  39.787  10.890   9.097
 2542POPC   C1A34827  40.173  10.357   8.866
 2542POPC   D2A34828  40.388  10.502   8.502
 2542POPC   C3A34829  40.356  10.411   8.078
 2542POPC   C4A34830  40.057  10.434   7.754
 2542POPC   C1B34831  39.666  10.459   8.853
 2542POPC   C2B34832  39.850  10.307   8.461
 2542POPC   C3B34833  39.673  10.315   8.036
 2542POPC   C4B34834  39.578  10.417   7.616
 2543POPC   NC334835  37.726   3.554   9.771
 2543POPC   PO434836  37.476   3.246   9.253
 2543POPC   GL134837  37.819   3.300   8.966
 2543POPC   GL234838  37.818   3.631   9.148
 2543POPC   C1A34839  37.772   3.254   8.511
 2543POPC   D2A34840  37.546   3.519   8.189
 2543POPC   C3A34841  37.550   3.375   7.748
 2543POPC   C4A34842  37.609   3.190   7.320
 2543POPC   C1B34843  37.832   3.751   8.708
 2543POPC   C2B34844  38.056   3.663   8.346
 2543POPC   C3B34845  38.000   3.582   7.949
 2543POPC   C4B34846  37.769   3.849   7.686
 2544POPC   NC334847   1.129  17.756   9.609
 2544POPC   PO434848   1.106  17.077   9.589
 2544POPC   GL134849   1.213  17.391   9.256
 2544POPC   GL234850   1.508  17.635   9.243
 2544POPC   C1A34851   1.175  17.502   8.833
 2544POPC   D2A34852   1.406  17.581   8.471
 2544POPC   C3A34853   1.178  17.456   8.109
 2544POPC   C4A34854   1.007  17.473   7.695
 2544POPC   C1B34855   1.562  17.888   8.855
 2544POPC   C2B34856   1.706  18.010   8.446
 2544POPC   C3B34857   1.697  17.768   8.047
 2544POPC   C4B34858   1.365  17.846   7.722
 2545POPC   NC334859   6.667  24.057   9.495
 2545POPC   PO434860   6.453  24.767   9.528
 2545POPC   GL134861   6.577  24.485   9.168
 2545POPC   GL234862   6.875  24.368   9.157
 2545POPC   C1A34863   6.410  24.456   8.733
 2545POPC   D2A34864   6.194  24.584   8.377
 2545POPC   C3A34865   6.339  24.408   8.011
 2545POPC   C4A34866   6.389  24.523   7.610
 2545POPC   C1B34867   6.897  24.588   8.740
 2545POPC   C2B34868   6.716  24.647   8.314
 2545POPC   C3B34869   6.824  24.557   7.872
 2545POPC   C4B34870   7.018  24.284   7.578
 2546POPC   NC334871  34.344  21.182   9.336
 2546POPC   PO434872  34.879  21.634   9.385
 2546POPC   GL134873  34.784  21.435   9.037
 2546POPC   GL234874  34.770  21.085   9.081
 2546POPC   C1A34875  34.486  21.497   8.688
 2546POPC   D2A34876  34.217  21.771   8.413
 2546POPC   C3A34877  34.352  21.616   8.028
 2546POPC   C4A34878  34.361  21.233   7.889
 2546POPC   C1B34879  34.991  21.148   8.683
 2546POPC   C2B34880  35.063  21.361   8.306
 2546POPC   C3B34881  34.885  21.405   7.901
 2546POPC   C4B34882  34.782  21.126   7.609
 2547POPC   NC334883  33.588  42.831   9.493
 2547POPC   PO434884  33.799  42.169   9.391
 2547POPC   GL134885  33.915  42.529   9.120
 2547POPC   GL234886  33.681  42.784   8.988
 2547POPC   C1A34887  33.954  42.312   8.716
 2547POPC   D2A34888  33.957  42.023   8.412
 2547POPC   C3A34889  33.878  42.110   7.968
 2547POPC   C4A34890  33.653  41.773   7.735
 2547POPC   C1B34891  33.945  42.792   8.620
 2547POPC   C2B34892  33.952  42.571   8.255
 2547POPC   C3B34893  34.084  42.570   7.848
 2547POPC   C4B34894  33.930  42.372   7.466
 2548POPC   NC334895  38.769  36.404   9.494
 2548POPC   PO434896  38.384  35.881   9.526
 2548POPC   GL134897  38.398  36.102   9.153
 2548POPC   GL234898  38.717  35.949   9.076
 2548POPC   C1A34899  38.246  36.214   8.749
 2548POPC   D2A34900  38.124  35.960   8.403
 2548POPC   C3A34901  38.426  35.998   8.082
 2548POPC   C4A34902  38.342  36.384   7.875
 2548POPC   C1B34903  38.734  36.089   8.635
 2548POPC   C2B34904  38.616  36.416   8.346
 2548POPC   C3B34905  38.830  36.488   7.944
 2548POPC   C4B34906  38.833  36.251   7.551
 2549POPC   NC334907  41.153  39.723   9.470
 2549POPC   PO434908  40.488  39.898   9.489
 2549POPC   GL134909  40.632  40.142   9.152
 2549POPC   GL234910  40.970  40.176   9.174
 2549POPC   C1A34911  40.777  39.988   8.723
 2549POPC   D2A34912  41.082  39.839   8.420
 2549POPC   C3A34913  40.953  39.662   7.998
 2549POPC   C4A34914  40.745  39.822   7.637
 2549POPC   C1B34915  41.217  40.223   8.777
 2549POPC   C2B34916  41.205  40.321   8.352
 2549POPC   C3B34917  40.987  40.203   7.974
 2549POPC   C4B34918  41.089  40.206   7.530
 2550POPC   NC334919   7.588   7.407   9.463
 2550POPC   PO434920   7.500   6.795   9.389
 2550POPC   GL134921   7.304   7.134   9.107
 2550POPC   GL234922   7.199   7.497   9.132
 2550POPC   C1A34923   7.516   7.394   8.759
 2550POPC   D2A34924   7.349   7.457   8.358
 2550POPC   C3A34925   7.510   7.310   7.993
 2550POPC   C4A34926   7.771   7.496   7.715
 2550POPC   C1B34927   7.113   7.742   8.753
 2550POPC   C2B34928   7.327   7.955   8.401
 2550POPC   C3B34929   7.284   7.813   7.968
 2550POPC   C4B34930   7.070   7.533   7.724
 2551POPC   NC334931  33.518  11.633   9.363
 2551POPC   PO434932  33.872  12.233   9.637
 2551POPC   GL134933  33.819  12.012   9.187
 2551POPC   GL234934  34.151  11.864   9.012
 2551POPC   C1A34935  33.819  12.057   8.708
 2551POPC   D2A34936  34.010  12.219   8.314
 2551POPC   C3A34937  33.849  12.108   7.885
 2551POPC   C4A34938  34.009  12.334   7.503
 2551POPC   C1B34939  34.110  11.639   8.657
 2551POPC   C2B34940  33.969  11.713   8.224
 2551POPC   C3B34941  33.936  11.583   7.777
 2551POPC   C4B34942  34.097  11.817   7.395
 2552POPC   NC334943   7.239   9.886   9.547
 2552POPC   PO434944   6.607   9.887   9.489
 2552POPC   GL134945   6.878   9.765   9.165
 2552POPC   GL234946   7.084   9.478   9.251
 2552POPC   C1A34947   6.685   9.735   8.763
 2552POPC   D2A34948   6.393   9.550   8.439
 2552POPC   C3A34949   6.213   9.840   8.155
 2552POPC   C4A34950   6.202   9.985   7.730
 2552POPC   C1B34951   7.134   9.493   8.814
 2552POPC   C2B34952   6.890   9.397   8.432
 2552POPC   C3B34953   6.919   9.604   8.033
 2552POPC   C4B34954   6.590   9.684   7.796
 2553POPC   NC334955  30.557  12.160   9.430
 2553POPC   PO434956  30.914  11.755   9.709
 2553POPC   GL134957  30.977  11.967   9.222
 2553POPC   GL234958  30.652  11.795   9.089
 2553POPC   C1A34959  30.940  11.925   8.719
 2553POPC   D2A34960  30.769  11.766   8.347
 2553POPC   C3A34961  30.913  12.063   8.060
 2553POPC   C4A34962  31.007  12.095   7.614
 2553POPC   C1B34963  30.421  11.938   8.699
 2553POPC   C2B34964  30.451  12.155   8.280
 2553POPC   C3B34965  30.484  12.035   7.820
 2553POPC   C4B34966  30.210  11.843   7.533
 2554POPC   NC334967  19.539   0.582   9.709
 2554POPC   PO434968  19.989   0.122   9.428
 2554POPC   GL134969  19.776   0.407   9.182
 2554POPC   GL234970  19.949   0.702   9.247
 2554POPC   C1A34971  19.704   0.367   8.740
 2554POPC   D2A34972  19.875   0.129   8.383
 2554POPC   C3A34973  19.701   0.340   8.043
 2554POPC   C4A34974  19.789   0.399   7.651
 2554POPC   C1B34975  19.906   0.837   8.795
 2554POPC   C2B34976  19.725   0.805   8.346
 2554POPC   C3B34977  19.907   0.831   7.894
 2554POPC   C4B34978  19.822   0.886   7.408
 2555POPC   NC334979   3.195   6.951   9.335
 2555POPC   PO434980   3.492   7.443   9.571
 2555POPC   GL134981   3.523   7.367   9.177
 2555POPC   GL234982   3.202   7.535   9.158
 2555POPC   C1A34983   3.701   7.470   8.777
 2555POPC   D2A34984   3.561   7.445   8.370
 2555POPC   C3A34985   3.921   7.476   8.083
 2555POPC   C4A34986   3.609   7.583   7.787
 2555POPC   C1B34987   3.206   7.279   8.774
 2555POPC   C2B34988   3.049   7.241   8.380
 2555POPC   C3B34989   3.157   7.138   7.970
 2555POPC   C4B34990   3.172   7.391   7.599
 2556POPC   NC334991  40.928  22.647   9.455
 2556POPC   PO434992  40.686  23.197   9.366
 2556POPC   GL134993  40.876  22.968   9.057
 2556POPC   GL234994  40.680  22.655   9.019
 2556POPC   C1A34995  40.930  22.935   8.641
 2556POPC   D2A34996  40.721  22.974   8.275
 2556POPC   C3A34997  41.024  22.964   7.972
 2556POPC   C4A34998  41.135  23.260   7.649
 2556POPC   C1B34999  40.436  22.800   8.681
 2556POPC   C2B35000  40.311  22.662   8.269
 2556POPC   C3B35001  40.552  22.685   7.874
 2556POPC   C4B35002  40.485  22.775   7.364
 2557POPC   NC335003  43.667   5.472   9.555
 2557POPC   PO435004  44.158   5.914   9.540
 2557POPC   GL135005  43.801   5.881   9.241
 2557POPC   GL235006  43.793   5.581   9.086
 2557POPC   C1A35007  43.699   6.031   8.836
 2557POPC   D2A35008  43.950   6.076   8.475
 2557POPC   C3A35009  43.809   5.799   8.155
 2557POPC   C4A35010  43.646   5.964   7.772
 2557POPC   C1B35011  44.177   5.748   8.884
 2557POPC   C2B35012  44.336   5.736   8.473
 2557POPC   C3B35013  44.335   5.886   8.078
 2557POPC   C4B35014  44.109   5.760   7.744
 2558POPC   NC335015   2.296  44.470   9.586
 2558POPC   PO435016   1.817  44.956   9.550
 2558POPC   GL135017   2.009  44.692   9.237
 2558POPC   GL235018   2.278  44.863   9.173
 2558POPC   C1A35019   2.218  44.497   8.844
 2558POPC   D2A35020   2.031  44.288   8.492
 2558POPC   C3A35021   2.178  44.297   8.066
 2558POPC   C4A35022   1.997  44.377   7.683
 2558POPC   C1B35023   2.219   0.031   8.776
 2558POPC   C2B35024   2.188  44.811   8.410
 2558POPC   C3B35025   2.018  44.796   7.986
 2558POPC   C4B35026   2.060  44.875   7.541
 2559POPC   NC335027  40.678  38.844   9.508
 2559POPC   PO435028  41.001  38.249   9.475
 2559POPC   GL135029  40.757  38.167   9.142
 2559POPC   GL235030  40.587  38.445   9.223
 2559POPC   C1A35031  40.834  38.211   8.715
 2559POPC   D2A35032  41.090  38.397   8.401
 2559POPC   C3A35033  41.004  38.247   7.976
 2559POPC   C4A35034  40.684  38.332   7.693
 2559POPC   C1B35035  40.725  38.690   8.867
 2559POPC   C2B35036  40.598  38.613   8.455
 2559POPC   C3B35037  40.739  38.678   8.060
 2559POPC   C4B35038  40.550  38.855   7.705
 2560POPC   NC335039   0.818  18.957   9.462
 2560POPC   PO435040   1.564  19.087   9.462
 2560POPC   GL135041   1.233  19.040   9.176
 2560POPC   GL235042   1.133  18.679   9.139
 2560POPC   C1A35043   0.996  19.175   8.812
 2560POPC   D2A35044   0.975  19.364   8.402
 2560POPC   C3A35045   1.154  19.250   7.997
 2560POPC   C4A35046   1.595  19.259   7.837
 2560POPC   C1B35047   0.902  18.669   8.729
 2560POPC   C2B35048   0.823  18.854   8.292
 2560POPC   C3B35049   0.920  18.830   7.820
 2560POPC   C4B35050   0.650  18.928   7.431
 2561POPC   NC335051  14.700  13.940   9.924
 2561POPC   PO435052  14.338  13.565   9.511
 2561POPC   GL135053  14.556  13.743   9.186
 2561POPC   GL235054  14.316  13.980   9.162
 2561POPC   C1A35055  14.630  13.704   8.750
 2561POPC   D2A35056  14.641  13.390   8.426
 2561POPC   C3A35057  14.646  13.567   8.015
 2561POPC   C4A35058  14.617  13.361   7.656
 2561POPC   C1B35059  14.154  13.908   8.759
 2561POPC   C2B35060  14.295  13.826   8.332
 2561POPC   C3B35061  14.126  13.953   7.909
 2561POPC   C4B35062  14.434  13.850   7.628
 2562POPC   NC335063  42.780  11.082   9.444
 2562POPC   PO435064  43.348  11.545   9.440
 2562POPC   GL135065  43.039  11.432   9.156
 2562POPC   GL235066  43.160  11.102   9.127
 2562POPC   C1A35067  42.988  11.347   8.716
 2562POPC   D2A35068  43.201  11.401   8.327
 2562POPC   C3A35069  43.100  11.386   7.887
 2562POPC   C4A35070  43.448  11.477   7.623
 2562POPC   C1B35071  43.350  10.972   8.775
 2562POPC   C2B35072  43.572  11.047   8.414
 2562POPC   C3B35073  43.534  11.126   7.999
 2562POPC   C4B35074  43.371  10.975   7.619
 2563POPC   NC335075  20.180  11.745   9.451
 2563POPC   PO435076  19.664  12.180   9.540
 2563POPC   GL135077  19.868  12.099   9.177
 2563POPC   GL235078  19.769  11.767   9.037
 2563POPC   C1A35079  19.690  12.224   8.771
 2563POPC   D2A35080  19.805  12.460   8.423
 2563POPC   C3A35081  19.774  12.227   8.046
 2563POPC   C4A35082  19.904  12.248   7.650
 2563POPC   C1B35083  20.096  11.911   8.763
 2563POPC   C2B35084  20.158  12.081   8.366
 2563POPC   C3B35085  20.174  11.916   7.971
 2563POPC   C4B35086  19.970  11.709   7.658
 2564POPC   NC335087  26.930  27.882   9.666
 2564POPC   PO435088  26.486  27.429   9.511
 2564POPC   GL135089  26.706  27.628   9.185
 2564POPC   GL235090  27.047  27.710   9.212
 2564POPC   C1A35091  26.601  27.676   8.753
 2564POPC   D2A35092  26.579  27.920   8.378
 2564POPC   C3A35093  26.639  27.710   7.979
 2564POPC   C4A35094  26.875  27.814   7.611
 2564POPC   C1B35095  27.104  27.622   8.797
 2564POPC   C2B35096  27.102  27.867   8.427
 2564POPC   C3B35097  27.193  27.764   8.012
 2564POPC   C4B35098  27.098  27.391   7.785
 2565POPC   NC335099  41.563   6.976   9.594
 2565POPC   PO435100  42.003   6.479   9.596
 2565POPC   GL135101  41.727   6.637   9.255
 2565POPC   GL235102  41.841   6.939   9.160
 2565POPC   C1A35103  41.351   6.475   9.001
 2565POPC   D2A35104  41.378   6.423   8.549
 2565POPC   C3A35105  41.425   6.508   8.080
 2565POPC   C4A35106  41.518   6.677   7.664
 2565POPC   C1B35107  41.648   6.804   8.774
 2565POPC   C2B35108  41.820   6.649   8.386
 2565POPC   C3B35109  41.929   6.690   7.972
 2565POPC   C4B35110  41.899   6.989   7.623
 2566POPC   NC335111   1.386  26.200   9.609
 2566POPC   PO435112   0.822  25.974   9.342
 2566POPC   GL135113   1.151  25.962   9.091
 2566POPC   GL235114   1.447  26.180   9.120
 2566POPC   C1A35115   0.990  25.863   8.672
 2566POPC   D2A35116   0.915  25.731   8.259
 2566POPC   C3A35117   0.960  26.006   7.929
 2566POPC   C4A35118   0.978  25.802   7.534
 2566POPC   C1B35119   1.219  26.330   8.733
 2566POPC   C2B35120   1.279  26.123   8.335
 2566POPC   C3B35121   1.419  26.237   7.924
 2566POPC   C4B35122   1.175  26.289   7.557
 2567POPC   NC335123  33.703  34.471   9.658
 2567POPC   PO435124  33.998  35.077   9.713
 2567POPC   GL135125  33.823  34.786   9.275
 2567POPC   GL235126  33.730  34.384   9.167
 2567POPC   C1A35127  33.721  34.732   8.810
 2567POPC   D2A35128  33.804  34.560   8.384
 2567POPC   C3A35129  33.839  34.748   7.972
 2567POPC   C4A35130  33.971  34.655   7.564
 2567POPC   C1B35131  33.358  34.351   8.879
 2567POPC   C2B35132  33.284  34.484   8.441
 2567POPC   C3B35133  33.435  34.396   8.034
 2567POPC   C4B35134  33.361  34.278   7.598
 2568POPC   NC335135  19.014   7.685   9.383
 2568POPC   PO435136  18.537   7.244   9.505
 2568POPC   GL135137  18.809   7.300   9.129
 2568POPC   GL235138  19.190   7.233   9.150
 2568POPC   C1A35139  18.868   7.247   8.687
 2568POPC   D2A35140  19.148   7.306   8.318
 2568POPC   C3A35141  18.975   7.380   7.906
 2568POPC   C4A35142  18.904   7.813   7.743
 2568POPC   C1B35143  19.321   7.508   8.785
 2568POPC   C2B35144  19.390   7.787   8.443
 2568POPC   C3B35145  19.327   7.722   8.018
 2568POPC   C4B35146  19.460   7.453   7.695
 2569POPC   NC335147  20.118  33.480   9.382
 2569POPC   PO435148  19.689  33.937   9.343
 2569POPC   GL135149  19.971  33.828   9.041
 2569POPC   GL235150  20.238  34.008   9.243
 2569POPC   C1A35151  19.875  33.846   8.597
 2569POPC   D2A35152  19.535  33.704   8.292
 2569POPC   C3A35153  19.688  33.866   7.898
 2569POPC   C4A35154  19.953  33.670   7.570
 2569POPC   C1B35155  20.053  34.300   8.900
 2569POPC   C2B35156  19.988  34.400   8.461
 2569POPC   C3B35157  20.164  34.428   8.046
 2569POPC   C4B35158  20.108  34.157   7.692
 2570POPC   NC335159  35.204  27.466   9.435
 2570POPC   PO435160  35.866  27.161   9.534
 2570POPC   GL135161  35.628  27.387   9.160
 2570POPC   GL235162  35.525  27.772   9.190
 2570POPC   C1A35163  35.359  27.564   8.764
 2570POPC   D2A35164  35.193  27.729   8.329
 2570POPC   C3A35165  35.184  27.475   7.935
 2570POPC   C4A35166  34.962  27.538   7.524
 2570POPC   C1B35167  35.695  27.963   8.800
 2570POPC   C2B35168  35.584  28.084   8.404
 2570POPC   C3B35169  35.552  27.942   7.985
 2570POPC   C4B35170  35.674  28.148   7.598
 2571POPC   NC335171   2.491   8.175   9.497
 2571POPC   PO435172   3.023   7.834   9.659
 2571POPC   GL135173   3.022   8.028   9.220
 2571POPC   GL235174   2.844   8.374   9.180
 2571POPC   C1A35175   2.835   8.047   8.794
 2571POPC   D2A35176   2.442   7.965   8.556
 2571POPC   C3A35177   2.426   7.957   8.104
 2571POPC   C4A35178   2.517   8.063   7.690
 2571POPC   C1B35179   2.702   8.528   8.756
 2571POPC   C2B35180   2.723   8.344   8.321
 2571POPC   C3B35181   2.872   8.370   7.873
 2571POPC   C4B35182   3.225   8.483   7.609
 2572POPC   NC335183  40.099  44.428   9.428
 2572POPC   PO435184  39.501  44.725   9.500
 2572POPC   GL135185  39.819  44.730   9.134
 2572POPC   GL235186  39.930  44.392   8.962
 2572POPC   C1A35187  40.004  44.886   8.729
 2572POPC   D2A35188  40.066   0.041   8.288
 2572POPC   C3A35189  39.856  44.821   7.940
 2572POPC   C4A35190  39.807  44.388   7.851
 2572POPC   C1B35191  40.163  44.401   8.613
 2572POPC   C2B35192  40.184  44.498   8.190
 2572POPC   C3B35193  40.376  44.798   7.960
 2572POPC   C4B35194  40.275   0.027   7.606
 2573POPC   NC335195  32.070   7.426   9.508
 2573POPC   PO435196  32.490   6.911   9.700
 2573POPC   GL135197  32.461   7.431   9.210
 2573POPC   GL235198  32.139   7.637   9.047
 2573POPC   C1A35199  32.369   7.325   8.754
 2573POPC   D2A35200  32.459   7.281   8.380
 2573POPC   C3A35201  32.150   7.319   8.110
 2573POPC   C4A35202  32.233   7.201   7.730
 2573POPC   C1B35203  32.397   7.837   8.693
 2573POPC   C2B35204  32.371   7.770   8.227
 2573POPC   C3B35205  32.228   7.748   7.779
 2573POPC   C4B35206  32.287   7.863   7.307
 2574POPC   NC335207  34.219   8.622   9.498
 2574POPC   PO435208  33.685   9.114   9.401
 2574POPC   GL135209  33.861   8.803   9.176
 2574POPC   GL235210  33.641   8.530   9.305
 2574POPC   C1A35211  33.982   8.875   8.739
 2574POPC   D2A35212  33.668   8.993   8.415
 2574POPC   C3A35213  33.863   9.120   8.036
 2574POPC   C4A35214  33.619   9.306   7.754
 2574POPC   C1B35215  33.577   8.566   8.841
 2574POPC   C2B35216  33.786   8.499   8.439
 2574POPC   C3B35217  33.709   8.624   8.001
 2574POPC   C4B35218  34.017   8.699   7.646
 2575POPC   NC335219  37.021  28.673   9.486
 2575POPC   PO435220  36.678  28.086   9.586
 2575POPC   GL135221  36.889  28.263   9.205
 2575POPC   GL235222  36.634  28.515   9.127
 2575POPC   C1A35223  37.209  28.255   8.849
 2575POPC   D2A35224  37.254  28.042   8.438
 2575POPC   C3A35225  36.922  28.181   8.149
 2575POPC   C4A35226  36.975  28.215   7.698
 2575POPC   C1B35227  36.872  28.630   8.749
 2575POPC   C2B35228  36.719  28.629   8.307
 2575POPC   C3B35229  36.946  28.704   7.914
 2575POPC   C4B35230  36.874  28.649   7.450
 2576POPC   NC335231  29.677   0.852   9.489
 2576POPC   PO435232  29.902   1.439   9.732
 2576POPC   GL135233  29.855   1.373   9.276
 2576POPC   GL235234  29.982   1.034   9.116
 2576POPC   C1A35235  29.870   1.446   8.821
 2576POPC   D2A35236  29.822   1.316   8.377
 2576POPC   C3A35237  29.836   1.570   8.007
 2576POPC   C4A35238  29.990   1.340   7.613
 2576POPC   C1B35239  29.861   0.894   8.686
 2576POPC   C2B35240  30.025   0.841   8.240
 2576POPC   C3B35241  29.796   0.799   7.831
 2576POPC   C4B35242  29.766   0.916   7.398
 2577POPC   NC335243  21.986   6.697   9.440
 2577POPC   PO435244  22.543   6.422   9.407
 2577POPC   GL135245  22.357   6.660   9.078
 2577POPC   GL235246  22.301   7.015   9.171
 2577POPC   C1A35247  22.262   6.573   8.654
 2577POPC   D2A35248  22.536   6.632   8.302
 2577POPC   C3A35249  22.299   6.493   7.978
 2577POPC   C4A35250  22.388   6.451   7.561
 2577POPC   C1B35251  22.041   7.002   8.793
 2577POPC   C2B35252  21.880   6.847   8.404
 2577POPC   C3B35253  21.757   6.902   7.993
 2577POPC   C4B35254  21.939   6.673   7.681
 2578POPC   NC335255  10.049  12.937   9.475
 2578POPC   PO435256   9.499  12.575   9.415
 2578POPC   GL135257   9.803  12.704   9.093
 2578POPC   GL235258   9.892  13.086   9.004
 2578POPC   C1A35259   9.846  12.690   8.671
 2578POPC   D2A35260   9.769  12.979   8.380
 2578POPC   C3A35261   9.622  12.755   8.041
 2578POPC   C4A35262   9.551  12.887   7.640
 2578POPC   C1B35263  10.218  13.274   8.688
 2578POPC   C2B35264  10.165  13.263   8.254
 2578POPC   C3B35265   9.997  13.080   7.902
 2578POPC   C4B35266  10.047  13.045   7.467
 2579POPC   NC335267   6.828  34.024   9.725
 2579POPC   PO435268   6.811  34.596   9.394
 2579POPC   GL135269   6.683  34.627   9.022
 2579POPC   GL235270   6.333  34.539   9.075
 2579POPC   C1A35271   6.888  34.516   8.655
 2579POPC   D2A35272   6.691  34.395   8.281
 2579POPC   C3A35273   6.481  34.703   7.996
 2579POPC   C4A35274   6.578  34.807   7.567
 2579POPC   C1B35275   6.408  34.283   8.712
 2579POPC   C2B35276   6.266  34.128   8.298
 2579POPC   C3B35277   6.279  34.224   7.848
 2579POPC   C4B35278   6.436  34.236   7.390
 2580POPC   NC335279  43.827  17.166   9.555
 2580POPC   PO435280  43.682  17.877   9.517
 2580POPC   GL135281  43.865  17.591   9.248
 2580POPC   GL235282  43.585  17.440   9.079
 2580POPC   C1A35283  44.008  17.667   8.843
 2580POPC   D2A35284  43.838  17.649   8.416
 2580POPC   C3A35285  44.074  17.603   8.048
 2580POPC   C4A35286  43.825  17.681   7.704
 2580POPC   C1B35287  43.738  17.237   8.709
 2580POPC   C2B35288  43.798  17.113   8.323
 2580POPC   C3B35289  43.662  17.297   8.012
 2580POPC   C4B35290  43.603  17.205   7.629
 2581POPC   NC335291  37.038  33.548   9.674
 2581POPC   PO435292  36.706  34.043   9.475
 2581POPC   GL135293  36.766  33.748   9.159
 2581POPC   GL235294  37.114  33.709   9.181
 2581POPC   C1A35295  36.873  33.795   8.721
 2581POPC   D2A35296  36.837  34.097   8.413
 2581POPC   C3A35297  36.638  33.862   8.120
 2581POPC   C4A35298  36.722  33.664   7.737
 2581POPC   C1B35299  37.319  33.981   8.862
 2581POPC   C2B35300  37.310  33.871   8.431
 2581POPC   C3B35301  37.134  33.737   8.053
 2581POPC   C4B35302  37.211  33.748   7.613
 2582POPC   NC335303   2.183  43.016   9.441
 2582POPC   PO435304   2.877  43.137   9.507
 2582POPC   GL135305   2.667  42.976   9.153
 2582POPC   GL235306   2.461  42.660   9.187
 2582POPC   C1A35307   2.792  43.126   8.739
 2582POPC   D2A35308   3.011  43.183   8.333
 2582POPC   C3A35309   2.650  43.189   8.037
 2582POPC   C4A35310   2.638  43.280   7.599
 2582POPC   C1B35311   2.681  42.626   8.754
 2582POPC   C2B35312   2.855  42.694   8.328
 2582POPC   C3B35313   2.762  42.720   7.890
 2582POPC   C4B35314   2.516  42.792   7.498
 2583POPC   NC335315  25.930  10.069   9.748
 2583POPC   PO435316  26.376   9.590   9.699
 2583POPC   GL135317  26.348   9.549   9.246
 2583POPC   GL235318  26.427   9.887   9.198
 2583POPC   C1A35319  26.041   9.658   8.914
 2583POPC   D2A35320  25.888   9.773   8.507
 2583POPC   C3A35321  25.783   9.491   8.181
 2583POPC   C4A35322  25.741   9.601   7.759
 2583POPC   C1B35323  26.256  10.127   8.841
 2583POPC   C2B35324  26.317  10.056   8.410
 2583POPC   C3B35325  26.131   9.950   8.015
 2583POPC   C4B35326  26.241   9.929   7.580
 2584POPC   NC335327  42.454  29.551   9.406
 2584POPC   PO435328  42.279  30.163   9.433
 2584POPC   GL135329  42.137  29.874   9.110
 2584POPC   GL235330  42.198  29.498   8.971
 2584POPC   C1A35331  41.976  29.842   8.681
 2584POPC   D2A35332  42.186  29.821   8.278
 2584POPC   C3A35333  42.194  29.618   7.850
 2584POPC   C4A35334  42.168  29.925   7.477
 2584POPC   C1B35335  42.511  29.788   8.771
 2584POPC   C2B35336  42.707  29.934   8.399
 2584POPC   C3B35337  42.604  29.901   7.977
 2584POPC   C4B35338  42.683  29.658   7.627
 2585POPC   NC335339  28.703  17.109   9.622
 2585POPC   PO435340  28.030  17.066   9.445
 2585POPC   GL135341  28.163  16.895   9.074
 2585POPC   GL235342  28.499  16.950   9.105
 2585POPC   C1A35343  28.094  16.985   8.643
 2585POPC   D2A35344  28.457  17.095   8.376
 2585POPC   C3A35345  28.487  16.975   7.973
 2585POPC   C4A35346  28.114  16.896   7.777
 2585POPC   C1B35347  28.468  16.659   8.691
 2585POPC   C2B35348  28.486  16.527   8.221
 2585POPC   C3B35349  28.569  16.492   7.771
 2585POPC   C4B35350  28.903  16.508   7.448
 2586POPC   NC335351  25.649  25.925   9.476
 2586POPC   PO435352  25.179  26.349   9.456
 2586POPC   GL135353  25.251  26.057   9.136
 2586POPC   GL235354  24.938  25.896   9.181
 2586POPC   C1A35355  25.462  25.988   8.722
 2586POPC   D2A35356  25.471  26.199   8.312
 2586POPC   C3A35357  25.438  26.004   7.936
 2586POPC   C4A35358  25.560  26.008   7.489
 2586POPC   C1B35359  24.975  25.816   8.754
 2586POPC   C2B35360  25.157  25.739   8.344
 2586POPC   C3B35361  24.980  25.821   7.937
 2586POPC   C4B35362  25.074  26.101   7.581
 2587POPC   NC335363  24.065   2.017   9.567
 2587POPC   PO435364  23.625   2.438   9.677
 2587POPC   GL135365  23.700   2.197   9.248
 2587POPC   GL235366  23.415   2.164   8.997
 2587POPC   C1A35367  23.846   1.914   8.889
 2587POPC   D2A35368  24.170   1.935   8.550
 2587POPC   C3A35369  23.971   1.903   8.155
 2587POPC   C4A35370  23.740   1.902   7.788
 2587POPC   C1B35371  23.432   2.370   8.614
 2587POPC   C2B35372  23.608   2.309   8.217
 2587POPC   C3B35373  23.354   2.238   7.888
 2587POPC   C4B35374  23.152   2.467   7.576
 2588POPC   NC335375  21.388   5.330   9.696
 2588POPC   PO435376  21.208   4.812   9.438
 2588POPC   GL135377  21.488   5.012   9.167
 2588POPC   GL235378  21.250   5.158   8.967
 2588POPC   C1A35379  21.667   4.980   8.733
 2588POPC   D2A35380  21.504   5.170   8.348
 2588POPC   C3A35381  21.615   5.031   7.932
 2588POPC   C4A35382  21.328   5.022   7.635
 2588POPC   C1B35383  21.570   5.483   8.798
 2588POPC   C2B35384  21.643   5.663   8.376
 2588POPC   C3B35385  21.458   5.524   7.965
 2588POPC   C4B35386  21.520   5.464   7.523
 2589POPC   NC335387  39.552  35.934   9.901
 2589POPC   PO435388  39.239  36.399   9.556
 2589POPC   GL135389  39.111  36.269   9.134
 2589POPC   GL235390  38.779  36.456   8.998
 2589POPC   C1A35391  39.218  35.990   8.793
 2589POPC   D2A35392  39.449  35.963   8.398
 2589POPC   C3A35393  39.250  35.856   8.010
 2589POPC   C4A35394  39.572  35.815   7.731
 2589POPC   C1B35395  39.074  36.488   8.681
 2589POPC   C2B35396  39.134  36.341   8.328
 2589POPC   C3B35397  39.358  36.365   7.979
 2589POPC   C4B35398  39.340  36.254   7.615
 2590POPC   NC335399  34.193  29.093   9.588
 2590POPC   PO435400  33.571  29.344   9.585
 2590POPC   GL135401  33.647  29.114   9.215
 2590POPC   GL235402  34.000  29.188   9.145
 2590POPC   C1A35403  33.675  29.013   8.768
 2590POPC   D2A35404  33.541  29.270   8.394
 2590POPC   C3A35405  33.554  29.125   7.999
 2590POPC   C4A35406  33.841  28.906   7.790
 2590POPC   C1B35407  34.198  29.238   8.764
 2590POPC   C2B35408  34.048  29.056   8.388
 2590POPC   C3B35409  34.296  28.946   7.999
 2590POPC   C4B35410  34.275  28.851   7.540
 2591POPC   NC335411  28.882  23.562   9.481
 2591POPC   PO435412  29.438  23.915   9.475
 2591POPC   GL135413  29.255  23.706   9.160
 2591POPC   GL235414  28.945  23.885   9.060
 2591POPC   C1A35415  29.310  23.701   8.739
 2591POPC   D2A35416  29.051  23.773   8.400
 2591POPC   C3A35417  29.371  23.590   8.148
 2591POPC   C4A35418  29.434  23.489   7.737
 2591POPC   C1B35419  28.858  23.465   8.828
 2591POPC   C2B35420  28.716  23.397   8.403
 2591POPC   C3B35421  28.894  23.458   7.999
 2591POPC   C4B35422  29.073  23.851   7.831
 2592POPC   NC335423  24.176  23.647   9.465
 2592POPC   PO435424  24.796  23.851   9.363
 2592POPC   GL135425  24.480  23.790   9.067
 2592POPC   GL235426  24.433  23.447   9.081
 2592POPC   C1A35427  24.441  23.982   8.660
 2592POPC   D2A35428  24.519  24.183   8.273
 2592POPC   C3A35429  24.750  23.947   7.992
 2592POPC   C4A35430  24.606  23.836   7.613
 2592POPC   C1B35431  24.558  23.468   8.672
 2592POPC   C2B35432  24.507  23.621   8.288
 2592POPC   C3B35433  24.411  23.423   7.926
 2592POPC   C4B35434  24.464  23.350   7.521
 2593POPC   NC335435  20.270  26.278   9.432
 2593POPC   PO435436  20.839  26.053   9.472
 2593POPC   GL135437  20.673  25.861   9.131
 2593POPC   GL235438  20.350  25.718   9.232
 2593POPC   C1A35439  20.705  26.053   8.735
 2593POPC   D2A35440  20.895  26.230   8.404
 2593POPC   C3A35441  20.646  26.170   8.061
 2593POPC   C4A35442  20.692  25.995   7.684
 2593POPC   C1B35443  20.243  25.874   8.826
 2593POPC   C2B35444  20.314  25.943   8.371
 2593POPC   C3B35445  20.273  25.785   7.923
 2593POPC   C4B35446  20.331  25.723   7.467
 2594POPC   NC335447  35.557  16.339   9.455
 2594POPC   PO435448  35.104  16.874   9.564
 2594POPC   GL135449  35.297  16.818   9.181
 2594POPC   GL235450  35.664  16.851   9.280
 2594POPC   C1A35451  35.189  16.731   8.735
 2594POPC   D2A35452  35.286  16.578   8.345
 2594POPC   C3A35453  35.045  16.671   8.023
 2594POPC   C4A35454  35.299  16.932   7.785
 2594POPC   C1B35455  35.679  16.777   8.844
 2594POPC   C2B35456  35.605  16.989   8.434
 2594POPC   C3B35457  35.766  17.009   8.032
 2594POPC   C4B35458  35.766  16.655   7.794
 2595POPC   NC335459  42.933  26.184   9.614
 2595POPC   PO435460  43.069  25.473   9.703
 2595POPC   GL135461  42.860  25.831   9.277
 2595POPC   GL235462  43.145  26.049   9.136
 2595POPC   C1A35463  42.874  25.921   8.760
 2595POPC   D2A35464  43.044  26.107   8.370
 2595POPC   C3A35465  43.123  25.779   8.092
 2595POPC   C4A35466  42.919  25.643   7.737
 2595POPC   C1B35467  43.404  25.940   8.741
 2595POPC   C2B35468  43.588  26.112   8.336
 2595POPC   C3B35469  43.415  26.170   7.914
 2595POPC   C4B35470  43.239  26.427   7.538
 2596POPC   NC335471  39.603   7.970   9.437
 2596POPC   PO435472  39.073   8.410   9.500
 2596POPC   GL135473  39.292   8.339   9.135
 2596POPC   GL235474  39.278   8.577   8.874
 2596POPC   C1A35475  39.249   8.084   8.750
 2596POPC   D2A35476  39.540   8.129   8.400
 2596POPC   C3A35477  39.437   8.398   8.054
 2596POPC   C4A35478  39.475   8.409   7.602
 2596POPC   C1B35479  39.117   8.514   8.456
 2596POPC   C2B35480  39.042   8.115   8.253
 2596POPC   C3B35481  39.114   8.077   7.806
 2596POPC   C4B35482  39.005   8.405   7.474
 2597POPC   NC335483  25.366  31.465   9.538
 2597POPC   PO435484  24.744  31.757   9.401
 2597POPC   GL135485  25.019  31.412   9.129
 2597POPC   GL235486  25.347  31.249   9.091
 2597POPC   C1A35487  25.202  31.416   8.651
 2597POPC   D2A35488  25.225  31.813   8.424
 2597POPC   C3A35489  25.138  31.747   7.993
 2597POPC   C4A35490  24.950  31.339   7.922
 2597POPC   C1B35491  25.580  31.628   8.902
 2597POPC   C2B35492  25.718  31.693   8.474
 2597POPC   C3B35493  25.562  31.490   8.124
 2597POPC   C4B35494  25.419  31.245   7.783
 2598POPC   NC335495   1.207  21.456   9.568
 2598POPC   PO435496   0.758  21.053   9.866
 2598POPC   GL135497   0.806  21.402   9.274
 2598POPC   GL235498   1.150  21.424   9.092
 2598POPC   C1A35499   0.864  21.288   8.730
 2598POPC   D2A35500   1.003  21.104   8.291
 2598POPC   C3A35501   1.166  21.251   7.931
 2598POPC   C4A35502   1.354  21.261   7.541
 2598POPC   C1B35503   1.389  21.616   8.758
 2598POPC   C2B35504   1.306  21.547   8.322
 2598POPC   C3B35505   1.467  21.659   7.902
 2598POPC   C4B35506   1.365  21.754   7.456
 2599POPC   NC335507  37.917   9.456   9.653
 2599POPC   PO435508  37.328   9.725   9.453
 2599POPC   GL135509  37.642   9.604   9.179
 2599POPC   GL235510  37.994   9.457   9.147
 2599POPC   C1A35511  37.776   9.820   8.813
 2599POPC   D2A35512  37.561  10.080   8.535
 2599POPC   C3A35513  37.591   9.883   8.166
 2599POPC   C4A35514  37.825  10.009   7.815
 2599POPC   C1B35515  37.744   9.311   8.782
 2599POPC   C2B35516  37.730   9.405   8.359
 2599POPC   C3B35517  37.871   9.478   7.949
 2599POPC   C4B35518  37.497   9.597   7.752
 2600POPC   NC335519  25.111  11.906   9.461
 2600POPC   PO435520  25.631  12.251   9.546
 2600POPC   GL135521  25.538  12.055   9.151
 2600POPC   GL235522  25.259  12.285   9.141
 2600POPC   C1A35523  25.549  11.859   8.706
 2600POPC   D2A35524  25.579  11.708   8.234
 2600POPC   C3A35525  25.380  11.996   7.934
 2600POPC   C4A35526  25.011  12.277   7.952
 2600POPC   C1B35527  25.515  12.403   8.792
 2600POPC   C2B35528  25.370  12.340   8.378
 2600POPC   C3B35529  25.484  12.505   8.002
 2600POPC   C4B35530  25.703  12.341   7.696
 2601POPC   NC335531  24.763   5.404   9.538
 2601POPC   PO435532  24.241   5.835   9.542
 2601POPC   GL135533  24.468   5.815   9.151
 2601POPC   GL235534  24.832   5.735   9.150
 2601POPC   C1A35535  24.398   6.029   8.739
 2601POPC   D2A35536  24.402   6.345   8.391
 2601POPC   C3A35537  24.469   6.036   8.038
 2601POPC   C4A35538  24.712   6.063   7.679
 2601POPC   C1B35539  24.676   5.598   8.741
 2601POPC   C2B35540  24.807   5.744   8.321
 2601POPC   C3B35541  24.881   5.618   7.889
 2601POPC   C4B35542  24.919   5.611   7.425
 2602POPC   NC335543  39.829  20.196   9.440
 2602POPC   PO435544  39.976  20.879   9.352
 2602POPC   GL135545  40.150  20.511   9.189
 2602POPC   GL235546  39.816  20.513   9.025
 2602POPC   C1A35547  40.251  20.315   8.811
 2602POPC   D2A35548  39.922  20.278   8.498
 2602POPC   C3A35549  39.991  20.377   8.091
 2602POPC   C4A35550  39.869  20.341   7.677
 2602POPC   C1B35551  39.994  20.782   8.696
 2602POPC   C2B35552  39.973  20.853   8.252
 2602POPC   C3B35553  39.969  20.838   7.828
 2602POPC   C4B35554  40.236  21.047   7.496
 2603POPC   NC335555   9.210  23.461   9.574
 2603POPC   PO435556   8.802  24.019   9.403
 2603POPC   GL135557   8.942  23.741   9.110
 2603POPC   GL235558   8.633  23.670   8.926
 2603POPC   C1A35559   9.218  23.780   8.752
 2603POPC   D2A35560   9.171  24.072   8.409
 2603POPC   C3A35561   9.204  23.842   8.031
 2603POPC   C4A35562   8.927  23.698   7.698
 2603POPC   C1B35563   8.906  23.384   8.744
 2603POPC   C2B35564   9.083  23.457   8.356
 2603POPC   C3B35565   8.839  23.329   8.042
 2603POPC   C4B35566   8.594  23.306   7.697
 2604POPC   NC335567  39.848  34.490   9.692
 2604POPC   PO435568  40.364  34.926   9.530
 2604POPC   GL135569  40.079  34.739   9.251
 2604POPC   GL235570  40.352  34.644   9.049
 2604POPC   C1A35571  39.846  34.611   8.869
 2604POPC   D2A35572  39.717  34.297   8.526
 2604POPC   C3A35573  39.731  34.391   8.070
 2604POPC   C4A35574  39.871  34.163   7.706
 2604POPC   C1B35575  40.295  34.493   8.656
 2604POPC   C2B35576  40.027  34.708   8.386
 2604POPC   C3B35577  40.127  34.799   7.987
 2604POPC   C4B35578  40.339  34.477   7.739
 2605POPC   NC335579  41.547  41.367   9.525
 2605POPC   PO435580  41.321  41.921   9.509
 2605POPC   GL135581  41.559  41.715   9.128
 2605POPC   GL235582  41.792  41.393   9.074
 2605POPC   C1A35583  41.569  41.669   8.664
 2605POPC   D2A35584  41.398  41.722   8.236
 2605POPC   C3A35585  41.734  41.711   7.926
 2605POPC   C4A35586  41.775  41.398   7.581
 2605POPC   C1B35587  41.391  41.240   8.879
 2605POPC   C2B35588  41.331  41.234   8.434
 2605POPC   C3B35589  41.501  41.261   8.004
 2605POPC   C4B35590  41.274  41.133   7.601
 2606POPC   NC335591  30.813  38.768   9.519
 2606POPC   PO435592  30.860  38.123   9.505
 2606POPC   GL135593  30.934  38.425   9.157
 2606POPC   GL235594  31.200  38.694   9.191
 2606POPC   C1A35595  30.585  38.512   8.826
 2606POPC   D2A35596  30.540  38.421   8.384
 2606POPC   C3A35597  30.549  38.738   8.080
 2606POPC   C4A35598  30.686  38.710   7.700
 2606POPC   C1B35599  30.967  38.845   8.822
 2606POPC   C2B35600  30.961  38.748   8.400
 2606POPC   C3B35601  31.075  38.579   8.008
 2606POPC   C4B35602  31.177  38.727   7.592
 2607POPC   NC335603   9.569  41.878   9.453
 2607POPC   PO435604   9.958  42.471   9.492
 2607POPC   GL135605   9.867  42.399   9.071
 2607POPC   GL235606   9.854  42.037   9.052
 2607POPC   C1A35607   9.684  42.330   8.671
 2607POPC   D2A35608   9.537  42.548   8.344
 2607POPC   C3A35609   9.830  42.543   8.034
 2607POPC   C4A35610   9.667  42.463   7.636
 2607POPC   C1B35611   9.517  41.843   8.741
 2607POPC   C2B35612   9.400  42.036   8.361
 2607POPC   C3B35613   9.538  42.122   7.987
 2607POPC   C4B35614   9.329  42.082   7.632
 2608POPC   NC335615  27.664  11.712   9.327
 2608POPC   PO435616  27.107  12.169   9.419
 2608POPC   GL135617  27.339  12.016   9.100
 2608POPC   GL235618  27.515  12.313   9.068
 2608POPC   C1A35619  27.620  11.945   8.717
 2608POPC   D2A35620  27.876  12.062   8.349
 2608POPC   C3A35621  27.635  11.884   8.013
 2608POPC   C4A35622  27.435  11.705   7.666
 2608POPC   C1B35623  27.290  12.339   8.706
 2608POPC   C2B35624  27.421  12.292   8.323
 2608POPC   C3B35625  27.411  12.430   7.938
 2608POPC   C4B35626  27.375  12.248   7.600
 2609POPC   NC335627  14.411  11.311   9.523
 2609POPC   PO435628  13.762  11.267   9.464
 2609POPC   GL135629  14.058  11.259   9.128
 2609POPC   GL235630  14.406  11.136   9.045
 2609POPC   C1A35631  14.110  11.421   8.737
 2609POPC   D2A35632  13.919  11.369   8.367
 2609POPC   C3A35633  14.093  11.212   7.975
 2609POPC   C4A35634  14.192  11.556   7.726
 2609POPC   C1B35635  14.563  11.234   8.611
 2609POPC   C2B35636  14.523  11.377   8.177
 2609POPC   C3B35637  14.754  11.498   7.818
 2609POPC   C4B35638  14.963  11.390   7.394
 2610POPC   NC335639  23.070   3.184   9.455
 2610POPC   PO435640  22.625   3.687   9.391
 2610POPC   GL135641  22.846   3.485   9.100
 2610POPC   GL235642  22.650   3.196   9.141
 2610POPC   C1A35643  22.889   3.617   8.698
 2610POPC   D2A35644  22.706   3.576   8.313
 2610POPC   C3A35645  23.026   3.502   7.978
 2610POPC   C4A35646  23.050   3.534   7.536
 2610POPC   C1B35647  22.798   3.105   8.730
 2610POPC   C2B35648  22.976   3.144   8.333
 2610POPC   C3B35649  22.727   3.089   7.942
 2610POPC   C4B35650  22.800   3.099   7.468
 2611POPC   NC335651  23.484  16.425   9.456
 2611POPC   PO435652  23.518  17.103   9.280
 2611POPC   GL135653  23.744  16.914   9.001
 2611POPC   GL235654  23.820  16.580   9.041
 2611POPC   C1A35655  23.525  16.824   8.635
 2611POPC   D2A35656  23.479  16.528   8.322
 2611POPC   C3A35657  23.653  16.698   8.021
 2611POPC   C4A35658  23.621  16.814   7.614
 2611POPC   C1B35659  24.007  16.704   8.609
 2611POPC   C2B35660  24.165  16.871   8.217
 2611POPC   C3B35661  24.100  16.703   7.803
 2611POPC   C4B35662  24.016  16.617   7.367
 2612POPC   NC335663  27.231   7.701   9.708
 2612POPC   PO435664  26.839   8.169   9.413
 2612POPC   GL135665  26.703   8.378   9.071
 2612POPC   GL235666  26.509   8.087   9.024
 2612POPC   C1A35667  26.777   8.342   8.649
 2612POPC   D2A35668  26.824   8.513   8.272
 2612POPC   C3A35669  26.916   8.250   7.949
 2612POPC   C4A35670  26.820   8.177   7.527
 2612POPC   C1B35671  26.560   7.837   8.684
 2612POPC   C2B35672  26.609   7.986   8.294
 2612POPC   C3B35673  26.500   7.982   7.908
 2612POPC   C4B35674  26.609   7.730   7.619
 2613POPC   NC335675  25.978  44.411   9.718
 2613POPC   PO435676  26.453  44.844   9.625
 2613POPC   GL135677  26.215  44.724   9.258
 2613POPC   GL235678  25.877  44.627   9.244
 2613POPC   C1A35679  26.265  44.600   8.816
 2613POPC   D2A35680  26.426  44.601   8.371
 2613POPC   C3A35681  26.208  44.770   8.008
 2613POPC   C4A35682  26.385  44.881   7.625
 2613POPC   C1B35683  25.745  44.708   8.831
 2613POPC   C2B35684  25.903  44.730   8.427
 2613POPC   C3B35685  25.692  44.700   8.048
 2613POPC   C4B35686  25.584  44.427   7.732
 2614POPC   NC335687  27.415  23.377   9.350
 2614POPC   PO435688  27.637  22.783   9.422
 2614POPC   GL135689  27.701  23.039   9.096
 2614POPC   GL235690  27.365  23.100   8.932
 2614POPC   C1A35691  27.864  23.189   8.758
 2614POPC   D2A35692  27.778  23.198   8.361
 2614POPC   C3A35693  27.592  22.960   8.103
 2614POPC   C4A35694  27.916  23.066   7.795
 2614POPC   C1B35695  27.505  22.809   8.650
 2614POPC   C2B35696  27.343  22.435   8.465
 2614POPC   C3B35697  27.356  22.498   8.029
 2614POPC   C4B35698  27.400  22.768   7.671
 2615POPC   NC335699  27.311  28.522   9.527
 2615POPC   PO435700  27.749  28.017   9.408
 2615POPC   GL135701  27.404  28.168   9.133
 2615POPC   GL235702  27.522  28.552   9.068
 2615POPC   C1A35703  27.337  28.271   8.687
 2615POPC   D2A35704  27.688  28.547   8.503
 2615POPC   C3A35705  27.727  28.503   8.061
 2615POPC   C4A35706  27.450  28.214   7.855
 2615POPC   C1B35707  27.290  28.768   8.731
 2615POPC   C2B35708  27.227  28.595   8.266
 2615POPC   C3B35709  27.287  28.745   7.850
 2615POPC   C4B35710  27.702  28.835   7.657
 2616POPC   NC335711  17.865  37.512   9.521
 2616POPC   PO435712  18.500  37.697   9.608
 2616POPC   GL135713  18.318  37.566   9.201
 2616POPC   GL235714  18.102  37.785   9.034
 2616POPC   C1A35715  18.427  37.445   8.758
 2616POPC   D2A35716  18.663  37.427   8.362
 2616POPC   C3A35717  18.435  37.467   7.953
 2616POPC   C4A35718  17.990  37.543   7.857
 2616POPC   C1B35719  17.910  37.465   8.762
 2616POPC   C2B35720  18.070  37.475   8.359
 2616POPC   C3B35721  18.257  37.867   8.187
 2616POPC   C4B35722  18.392  37.980   7.770
 2617POPC   NC335723  34.648  16.877   9.444
 2617POPC   PO435724  34.572  16.138   9.578
 2617POPC   GL135725  34.521  16.417   9.214
 2617POPC   GL235726  34.803  16.631   9.048
 2617POPC   C1A35727  34.523  16.337   8.769
 2617POPC   D2A35728  34.760  16.554   8.432
 2617POPC   C3A35729  34.553  16.489   8.009
 2617POPC   C4A35730  34.098  16.556   7.913
 2617POPC   C1B35731  34.759  16.998   8.757
 2617POPC   C2B35732  34.987  17.074   8.358
 2617POPC   C3B35733  34.717  17.046   7.975
 2617POPC   C4B35734  34.458  16.851   7.634
 2618POPC   NC335735  26.869  17.003   9.606
 2618POPC   PO435736  26.556  16.442   9.385
 2618POPC   GL135737  26.784  16.759   9.166
 2618POPC   GL235738  26.601  17.091   9.177
 2618POPC   C1A35739  26.946  16.784   8.754
 2618POPC   D2A35740  26.993  16.951   8.352
 2618POPC   C3A35741  26.946  16.637   8.075
 2618POPC   C4A35742  27.133  16.574   7.698
 2618POPC   C1B35743  26.450  16.888   8.787
 2618POPC   C2B35744  26.489  16.688   8.364
 2618POPC   C3B35745  26.527  16.873   7.951
 2618POPC   C4B35746  26.684  16.757   7.556
 2619POPC   NC335747  40.329   5.692   9.523
 2619POPC   PO435748  39.654   5.907   9.679
 2619POPC   GL135749  39.816   6.008   9.263
 2619POPC   GL235750  39.887   5.702   9.115
 2619POPC   C1A35751  39.757   6.080   8.777
 2619POPC   D2A35752  40.112   6.176   8.492
 2619POPC   C3A35753  40.132   6.009   8.060
 2619POPC   C4A35754  39.824   5.909   7.741
 2619POPC   C1B35755  40.113   5.702   8.726
 2619POPC   C2B35756  40.269   5.568   8.314
 2619POPC   C3B35757  40.230   5.524   7.862
 2619POPC   C4B35758  40.291   5.857   7.551
 2620POPC   NC335759  28.578  22.182   9.500
 2620POPC   PO435760  27.982  21.892   9.311
 2620POPC   GL135761  28.220  22.204   9.090
 2620POPC   GL235762  28.592  22.210   9.001
 2620POPC   C1A35763  28.237  22.093   8.665
 2620POPC   D2A35764  28.264  22.325   8.343
 2620POPC   C3A35765  28.204  22.152   7.970
 2620POPC   C4A35766  28.152  22.303   7.582
 2620POPC   C1B35767  28.732  22.347   8.596
 2620POPC   C2B35768  28.724  22.433   8.151
 2620POPC   C3B35769  28.620  22.351   7.742
 2620POPC   C4B35770  28.663  22.460   7.283
 2621POPC   NC335771  40.384   2.185   9.558
 2621POPC   PO435772  39.804   1.822   9.411
 2621POPC   GL135773  40.044   1.966   9.084
 2621POPC   GL235774  40.400   2.030   9.085
 2621POPC   C1A35775  39.849   1.930   8.714
 2621POPC   D2A35776  39.661   2.008   8.364
 2621POPC   C3A35777  39.829   1.753   8.068
 2621POPC   C4A35778  40.166   1.813   7.806
 2621POPC   C1B35779  40.319   2.166   8.693
 2621POPC   C2B35780  40.191   2.015   8.318
 2621POPC   C3B35781  40.362   2.262   8.016
 2621POPC   C4B35782  40.555   2.114   7.684
 2622POPC   NC335783   4.247  38.098   9.674
 2622POPC   PO435784   4.419  38.787   9.503
 2622POPC   GL135785   4.443  38.537   9.142
 2622POPC   GL235786   4.499  38.173   9.203
 2622POPC   C1A35787   4.257  38.587   8.735
 2622POPC   D2A35788   3.990  38.698   8.392
 2622POPC   C3A35789   4.174  38.627   8.002
 2622POPC   C4A35790   4.043  38.440   7.646
 2622POPC   C1B35791   4.309  38.071   8.800
 2622POPC   C2B35792   4.253  38.242   8.377
 2622POPC   C3B35793   4.203  38.112   7.991
 2622POPC   C4B35794   4.307  37.964   7.596
 2623POPC   NC335795  44.660  15.883   9.447
 2623POPC   PO435796  44.541  16.551   9.408
 2623POPC   GL135797  44.553  16.259   9.102
 2623POPC   GL235798  44.888  16.224   9.085
 2623POPC   C1A35799  44.577  15.977   8.747
 2623POPC   D2A35800  44.388  16.006   8.330
 2623POPC   C3A35801  44.597  16.041   7.938
 2623POPC   C4A35802  44.580  15.649   7.709
 2623POPC   C1B35803   0.093  16.051   8.713
 2623POPC   C2B35804  44.955  16.014   8.324
 2623POPC   C3B35805   0.032  15.740   8.012
 2623POPC   C4B35806   0.029  15.852   7.622
 2624POPC   NC335807  10.095   5.857   9.463
 2624POPC   PO435808  10.671   5.879   9.857
 2624POPC   GL135809  10.618   5.906   9.367
 2624POPC   GL235810  10.890   6.039   9.172
 2624POPC   C1A35811  10.459   5.933   8.891
 2624POPC   D2A35812  10.563   5.779   8.443
 2624POPC   C3A35813  10.450   5.963   8.034
 2624POPC   C4A35814  10.112   5.786   7.759
 2624POPC   C1B35815  10.928   5.758   8.791
 2624POPC   C2B35816  11.042   5.568   8.388
 2624POPC   C3B35817  10.895   5.719   7.987
 2624POPC   C4B35818  10.729   5.540   7.615
 2625POPC   NC335819  42.237  28.653   9.495
 2625POPC   PO435820  42.605  28.112   9.666
 2625POPC   GL135821  42.322  28.180   9.270
 2625POPC   GL235822  42.237  27.859   9.135
 2625POPC   C1A35823  42.317  28.471   8.876
 2625POPC   D2A35824  42.557  28.436   8.477
 2625POPC   C3A35825  42.395  28.496   8.038
 2625POPC   C4A35826  42.588  28.565   7.613
 2625POPC   C1B35827  42.130  27.985   8.756
 2625POPC   C2B35828  42.056  28.289   8.476
 2625POPC   C3B35829  41.992  28.191   8.118
 2625POPC   C4B35830  42.077  28.164   7.735
 2626POPC   NC335831  13.526  30.026   9.553
 2626POPC   PO435832  14.010  29.487   9.492
 2626POPC   GL135833  13.702  29.720   9.190
 2626POPC   GL235834  13.673  30.099   9.081
 2626POPC   C1A35835  13.658  29.637   8.769
 2626POPC   D2A35836  13.899  29.509   8.424
 2626POPC   C3A35837  13.741  29.751   8.075
 2626POPC   C4A35838  13.660  29.645   7.652
 2626POPC   C1B35839  13.445  30.103   8.699
 2626POPC   C2B35840  13.452  30.125   8.300
 2626POPC   C3B35841  13.715  30.340   8.045
 2626POPC   C4B35842  13.829  30.167   7.705
 2627POPC   NC335843  26.256   6.246   9.491
 2627POPC   PO435844  26.729   5.713   9.693
 2627POPC   GL135845  26.739   5.535   9.283
 2627POPC   GL235846  26.754   5.877   9.145
 2627POPC   C1A35847  26.925   5.476   8.887
 2627POPC   D2A35848  26.908   5.835   8.572
 2627POPC   C3A35849  26.760   5.910   8.171
 2627POPC   C4A35850  26.796   5.776   7.757
 2627POPC   C1B35851  26.581   6.143   8.830
 2627POPC   C2B35852  26.775   6.357   8.476
 2627POPC   C3B35853  26.667   6.396   8.036
 2627POPC   C4B35854  26.596   6.231   7.616
 2628POPC   NC335855  44.742  21.996   9.547
 2628POPC   PO435856  44.911  22.654   9.482
 2628POPC   GL135857  44.641  22.399   9.209
 2628POPC   GL235858  44.753  22.064   9.060
 2628POPC   C1A35859  44.495  22.390   8.765
 2628POPC   D2A35860  44.650  22.515   8.345
 2628POPC   C3A35861  44.646  22.313   7.914
 2628POPC   C4A35862  44.584  22.241   7.419
 2628POPC   C1B35863  44.950  21.959   8.688
 2628POPC   C2B35864  44.807  21.999   8.282
 2628POPC   C3B35865   0.021  21.976   7.901
 2628POPC   C4B35866   0.030  22.043   7.486
 2629POPC   NC335867  13.511  28.232   9.415
 2629POPC   PO435868  13.940  28.623   9.718
 2629POPC   GL135869  13.809  28.623   9.219
 2629POPC   GL235870  13.837  28.270   9.030
 2629POPC   C1A35871  13.610  28.631   8.766
 2629POPC   D2A35872  13.666  28.504   8.324
 2629POPC   C3A35873  13.417  28.759   7.988
 2629POPC   C4A35874  13.595  28.484   7.708
 2629POPC   C1B35875  13.520  28.069   8.770
 2629POPC   C2B35876  13.375  28.034   8.381
 2629POPC   C3B35877  13.668  28.077   8.030
 2629POPC   C4B35878  13.518  27.961   7.668
 2630POPC   NC335879   8.575  17.992   9.522
 2630POPC   PO435880   7.983  17.905   9.399
 2630POPC   GL135881   8.304  18.046   9.071
 2630POPC   GL235882   8.552  18.324   9.115
 2630POPC   C1A35883   8.233  18.131   8.625
 2630POPC   D2A35884   8.112  18.394   8.274
 2630POPC   C3A35885   7.973  18.223   7.881
 2630POPC   C4A35886   7.944  18.453   7.517
 2630POPC   C1B35887   8.735  18.166   8.702
 2630POPC   C2B35888   8.624  18.222   8.275
 2630POPC   C3B35889   8.476  18.352   7.897
 2630POPC   C4B35890   8.347  18.144   7.526
 2631POPC   NC335891  27.208  10.670   9.598
 2631POPC   PO435892  27.866  10.638   9.618
 2631POPC   GL135893  27.703  10.481   9.193
 2631POPC   GL235894  27.841  10.157   9.104
 2631POPC   C1A35895  27.533  10.583   8.742
 2631POPC   D2A35896  27.351  10.775   8.375
 2631POPC   C3A35897  27.529  10.739   7.975
 2631POPC   C4A35898  27.535  10.572   7.571
 2631POPC   C1B35899  27.577  10.095   8.744
 2631POPC   C2B35900  27.591  10.277   8.293
 2631POPC   C3B35901  27.623  10.155   7.838
 2631POPC   C4B35902  27.852  10.147   7.399
 2632POPC   NC335903  19.661  31.597   9.604
 2632POPC   PO435904  20.262  31.307   9.572
 2632POPC   GL135905  20.040  31.624   9.265
 2632POPC   GL235906  19.835  31.354   9.174
 2632POPC   C1A35907  19.866  31.712   8.815
 2632POPC   D2A35908  19.832  31.546   8.416
 2632POPC   C3A35909  19.745  31.733   8.046
 2632POPC   C4A35910  19.689  31.513   7.680
 2632POPC   C1B35911  19.983  31.196   8.763
 2632POPC   C2B35912  20.125  31.152   8.292
 2632POPC   C3B35913  19.971  31.122   7.861
 2632POPC   C4B35914  19.643  30.885   7.683
 2633POPC   NC335915   9.096  28.849   9.592
 2633POPC   PO435916   8.782  29.399   9.542
 2633POPC   GL135917   8.829  29.110   9.203
 2633POPC   GL235918   9.195  29.159   9.169
 2633POPC   C1A35919   8.965  29.011   8.741
 2633POPC   D2A35920   9.169  29.214   8.383
 2633POPC   C3A35921   9.094  29.037   7.990
 2633POPC   C4A35922   8.874  28.860   7.641
 2633POPC   C1B35923   8.948  29.492   8.875
 2633POPC   C2B35924   8.690  29.401   8.482
 2633POPC   C3B35925   8.783  29.431   8.030
 2633POPC   C4B35926   8.987  29.365   7.606
 2634POPC   NC335927  33.760   9.592   9.452
 2634POPC   PO435928  34.408   9.756   9.488
 2634POPC   GL135929  34.133   9.730   9.122
 2634POPC   GL235930  34.075  10.084   9.229
 2634POPC   C1A35931  33.865   9.553   8.731
 2634POPC   D2A35932  33.589   9.525   8.328
 2634POPC   C3A35933  33.868   9.676   8.004
 2634POPC   C4A35934  34.274   9.473   7.923
 2634POPC   C1B35935  33.833  10.052   8.850
 2634POPC   C2B35936  33.698  10.013   8.443
 2634POPC   C3B35937  33.763  10.182   8.052
 2634POPC   C4B35938  33.690  10.026   7.650
 2635POPC   NC335939  13.657  32.439   9.545
 2635POPC   PO435940  13.812  31.904   9.146
 2635POPC   GL135941  13.508  32.233   9.070
 2635POPC   GL235942  13.426  32.575   9.106
 2635POPC   C1A35943  13.287  32.264   8.693
 2635POPC   D2A35944  13.270  31.963   8.355
 2635POPC   C3A35945  13.398  32.089   7.943
 2635POPC   C4A35946  13.701  31.998   7.645
 2635POPC   C1B35947  13.665  32.623   8.746
 2635POPC   C2B35948  13.765  32.273   8.481
 2635POPC   C3B35949  13.906  32.209   8.074
 2635POPC   C4B35950  13.750  32.501   7.781
 2636POPC   NC335951  30.822   3.227   9.144
 2636POPC   PO435952  30.453   3.688   9.424
 2636POPC   GL135953  30.688   3.762   9.014
 2636POPC   GL235954  31.035   3.821   8.941
 2636POPC   C1A35955  30.709   3.546   8.609
 2636POPC   D2A35956  30.728   3.141   8.421
 2636POPC   C3A35957  30.597   3.358   8.087
 2636POPC   C4A35958  30.659   3.603   7.735
 2636POPC   C1B35959  31.208   3.469   8.670
 2636POPC   C2B35960  31.146   3.358   8.232
 2636POPC   C3B35961  31.159   3.429   7.781
 2636POPC   C4B35962  31.301   3.634   7.378
 2637POPC   NC335963  36.603  32.587   9.383
 2637POPC   PO435964  36.898  33.100   9.745
 2637POPC   GL135965  37.055  33.189   9.293
 2637POPC   GL235966  37.080  32.845   9.152
 2637POPC   C1A35967  36.895  33.310   8.894
 2637POPC   D2A35968  36.633  33.388   8.514
 2637POPC   C3A35969  36.785  33.273   8.097
 2637POPC   C4A35970  37.003  33.243   7.704
 2637POPC   C1B35971  37.230  32.954   8.753
 2637POPC   C2B35972  37.232  32.894   8.338
 2637POPC   C3B35973  37.028  32.810   7.962
 2637POPC   C4B35974  37.326  32.855   7.674
 2638POPC   NC335975   6.791   1.591   9.395
 2638POPC   PO435976   6.463   1.039   9.535
 2638POPC   GL135977   6.541   1.222   9.141
 2638POPC   GL235978   6.322   1.515   9.154
 2638POPC   C1A35979   6.802   1.365   8.780
 2638POPC   D2A35980   6.908   1.190   8.363
 2638POPC   C3A35981   6.828   1.351   7.941
 2638POPC   C4A35982   6.760   1.018   7.640
 2638POPC   C1B35983   6.272   1.342   8.730
 2638POPC   C2B35984   6.200   1.282   8.285
 2638POPC   C3B35985   6.314   1.220   7.839
 2638POPC   C4B35986   6.352   1.183   7.385
 2639POPC   NC335987  29.238  21.806   9.523
 2639POPC   PO435988  29.007  22.433   9.500
 2639POPC   GL135989  29.215  22.190   9.177
 2639POPC   GL235990  28.981  21.901   9.102
 2639POPC   C1A35991  29.235  22.257   8.713
 2639POPC   D2A35992  29.147  22.603   8.383
 2639POPC   C3A35993  29.191  22.515   7.937
 2639POPC   C4A35994  29.090  22.367   7.514
 2639POPC   C1B35995  29.350  21.770   8.871
 2639POPC   C2B35996  29.214  21.786   8.466
 2639POPC   C3B35997  29.282  22.036   8.138
 2639POPC   C4B35998  28.970  22.021   7.881
 2640POPC   NC335999  11.231  27.297   9.716
 2640POPC   PO436000  11.603  26.748   9.606
 2640POPC   GL136001  11.436  26.782   9.237
 2640POPC   GL236002  11.462  27.143   9.252
 2640POPC   C1A36003  11.414  26.639   8.827
 2640POPC   D2A36004  11.230  26.706   8.430
 2640POPC   C3A36005  11.445  26.522   8.104
 2640POPC   C4A36006  11.333  26.385   7.712
 2640POPC   C1B36007  11.198  27.090   8.876
 2640POPC   C2B36008  11.218  27.218   8.448
 2640POPC   C3B36009  11.368  27.069   8.061
 2640POPC   C4B36010  11.282  27.156   7.639
 2641POPC   NC336011   9.764  39.062   9.778
 2641POPC   PO436012   9.224  39.330   9.571
 2641POPC   GL136013   9.424  39.055   9.231
 2641POPC   GL236014   9.795  38.938   9.231
 2641POPC   C1A36015   9.596  39.149   8.815
 2641POPC   D2A36016   9.471  39.366   8.465
 2641POPC   C3A36017   9.668  39.404   8.047
 2641POPC   C4A36018   9.537  39.415   7.589
 2641POPC   C1B36019  10.050  38.927   8.834
 2641POPC   C2B36020   9.937  39.036   8.390
 2641POPC   C3B36021  10.171  39.213   8.031
 2641POPC   C4B36022  10.238  38.981   7.613
 2642POPC   NC336023   2.206   0.965   9.391
 2642POPC   PO436024   2.843   1.386   9.472
 2642POPC   GL136025   2.665   1.195   9.134
 2642POPC   GL236026   2.586   1.511   9.010
 2642POPC   C1A36027   2.881   1.201   8.727
 2642POPC   D2A36028   2.737   1.039   8.373
 2642POPC   C3A36029   2.838   1.259   8.015
 2642POPC   C4A36030   3.017   0.996   7.757
 2642POPC   C1B36031   2.373   1.279   8.668
 2642POPC   C2B36032   2.296   1.283   8.221
 2642POPC   C3B36033   2.386   1.158   7.803
 2642POPC   C4B36034   2.702   1.336   7.510
 2643POPC   NC336035   4.479  40.476   9.443
 2643POPC   PO436036   4.145  41.094   9.545
 2643POPC   GL136037   4.162  40.812   9.194
 2643POPC   GL236038   4.017  41.044   9.020
 2643POPC   C1A36039   4.342  40.597   8.814
 2643POPC   D2A36040   4.510  40.685   8.397
 2643POPC   C3A36041   4.386  40.480   8.032
 2643POPC   C4A36042   4.088  40.420   7.663
 2643POPC   C1B36043   4.350  41.097   8.764
 2643POPC   C2B36044   4.471  41.189   8.401
 2643POPC   C3B36045   4.288  41.048   8.059
 2643POPC   C4B36046   4.311  40.853   7.679
 2644POPC   NC336047  27.514   5.414   9.816
 2644POPC   PO436048  27.921   4.898   9.541
 2644POPC   GL136049  27.821   4.908   9.084
 2644POPC   GL236050  27.459   4.992   9.026
 2644POPC   C1A36051  27.833   5.038   8.631
 2644POPC   D2A36052  28.023   5.342   8.336
 2644POPC   C3A36053  27.887   5.311   7.920
 2644POPC   C4A36054  27.699   4.942   7.752
 2644POPC   C1B36055  27.405   5.306   8.723
 2644POPC   C2B36056  27.490   5.256   8.267
 2644POPC   C3B36057  27.310   5.226   7.849
 2644POPC   C4B36058  27.291   5.306   7.389
 2645POPC   NC336059   7.326  44.157   9.381
 2645POPC   PO436060   7.433  43.458   9.262
 2645POPC   GL136061   7.381  43.831   8.998
 2645POPC   GL236062   7.028  43.839   9.049
 2645POPC   C1A36063   7.224  44.238   8.766
 2645POPC   D2A36064   7.035  44.327   8.389
 2645POPC   C3A36065   7.329  44.088   8.117
 2645POPC   C4A36066   7.692  44.040   7.823
 2645POPC   C1B36067   7.118  43.736   8.590
 2645POPC   C2B36068   7.477  43.598   8.358
 2645POPC   C3B36069   7.424  43.609   7.923
 2645POPC   C4B36070   7.065  43.696   7.652
 2646POPC   NC336071  35.440   4.271   9.492
 2646POPC   PO436072  35.038   4.784   9.332
 2646POPC   GL136073  35.348   4.580   9.088
 2646POPC   GL236074  35.588   4.301   9.004
 2646POPC   C1A36075  35.434   4.633   8.653
 2646POPC   D2A36076  35.568   4.302   8.391
 2646POPC   C3A36077  35.311   4.397   8.054
 2646POPC   C4A36078  35.330   4.610   7.680
 2646POPC   C1B36079  35.370   3.987   8.780
 2646POPC   C2B36080  35.147   3.984   8.395
 2646POPC   C3B36081  35.237   3.905   7.972
 2646POPC   C4B36082  35.566   4.078   7.681
 2647POPC   NC336083  44.081  19.057   9.674
 2647POPC   PO436084  43.517  19.461   9.628
 2647POPC   GL136085  43.674  19.113   9.310
 2647POPC   GL236086  44.053  19.048   9.170
 2647POPC   C1A36087  43.665  19.023   8.855
 2647POPC   D2A36088  43.749  18.867   8.420
 2647POPC   C3A36089  43.818  19.180   8.066
 2647POPC   C4A36090  43.579  19.226   7.671
 2647POPC   C1B36091  44.114  18.756   8.801
 2647POPC   C2B36092  44.236  18.738   8.363
 2647POPC   C3B36093  44.003  18.695   7.933
 2647POPC   C4B36094  43.991  18.696   7.451
 2648POPC   NC336095  44.839   6.434   9.472
 2648POPC   PO436096  44.409   6.882   9.535
 2648POPC   GL136097  44.612   6.825   9.144
 2648POPC   GL236098  44.866   7.069   9.162
 2648POPC   C1A36099  44.498   6.599   8.746
 2648POPC   D2A36100  44.413   6.338   8.362
 2648POPC   C3A36101  44.591   6.586   8.031
 2648POPC   C4A36102  44.524   6.792   7.632
 2648POPC   C1B36103  44.943   7.091   8.712
 2648POPC   C2B36104  44.989   6.849   8.320
 2648POPC   C3B36105  44.937   6.976   7.886
 2648POPC   C4B36106  44.968   6.900   7.422
 2649POPC   NC336107  14.979  31.237   9.517
 2649POPC   PO436108  15.490  31.644   9.482
 2649POPC   GL136109  15.317  31.441   9.097
 2649POPC   GL236110  14.994  31.308   9.025
 2649POPC   C1A36111  15.253  31.523   8.636
 2649POPC   D2A36112  15.346  31.288   8.266
 2649POPC   C3A36113  15.131  31.438   7.917
 2649POPC   C4A36114  15.104  31.297   7.465
 2649POPC   C1B36115  14.757  31.137   8.674
 2649POPC   C2B36116  14.757  31.251   8.230
 2649POPC   C3B36117  14.711  31.180   7.770
 2649POPC   C4B36118  14.614  31.241   7.309
 2650POPC   NC336119  19.945  22.179   9.648
 2650POPC   PO436120  20.583  21.993   9.585
 2650POPC   GL136121  20.657  22.086   9.162
 2650POPC   GL236122  20.822  21.773   9.121
 2650POPC   C1A36123  20.578  22.298   8.776
 2650POPC   D2A36124  20.763  22.298   8.381
 2650POPC   C3A36125  20.601  22.430   7.984
 2650POPC   C4A36126  20.717  22.247   7.601
 2650POPC   C1B36127  20.505  21.768   8.786
 2650POPC   C2B36128  20.593  21.798   8.361
 2650POPC   C3B36129  20.492  21.885   7.951
 2650POPC   C4B36130  20.909  21.787   7.826
 2651POPC   NC336131  23.564  36.130   9.349
 2651POPC   PO436132  24.195  36.183   9.467
 2651POPC   GL136133  23.986  36.189   9.082
 2651POPC   GL236134  23.875  35.869   9.038
 2651POPC   C1A36135  23.739  36.266   8.718
 2651POPC   D2A36136  23.732  36.499   8.340
 2651POPC   C3A36137  23.697  36.264   7.957
 2651POPC   C4A36138  23.625  36.428   7.555
 2651POPC   C1B36139  23.849  35.674   8.648
 2651POPC   C2B36140  23.676  35.835   8.280
 2651POPC   C3B36141  23.765  35.768   7.847
 2651POPC   C4B36142  23.899  36.015   7.516
 2652POPC   NC336143  22.604  29.540   9.557
 2652POPC   PO436144  21.964  29.196   9.544
 2652POPC   GL136145  22.071  29.166   9.147
 2652POPC   GL236146  22.219  29.496   9.180
 2652POPC   C1A36147  22.075  29.220   8.722
 2652POPC   D2A36148  22.001  29.051   8.342
 2652POPC   C3A36149  22.057  29.348   8.009
 2652POPC   C4A36150  22.148  29.159   7.602
 2652POPC   C1B36151  22.532  29.489   8.855
 2652POPC   C2B36152  22.444  29.393   8.420
 2652POPC   C3B36153  22.603  29.427   8.036
 2652POPC   C4B36154  22.448  29.562   7.668
 2653POPC   NC336155  38.069  10.228   9.487
 2653POPC   PO436156  38.476  10.810   9.553
 2653POPC   GL136157  38.542  10.497   9.208
 2653POPC   GL236158  38.218  10.528   9.087
 2653POPC   C1A36159  38.664  10.295   8.793
 2653POPC   D2A36160  38.523  10.435   8.385
 2653POPC   C3A36161  38.699  10.512   7.960
 2653POPC   C4A36162  38.576  10.430   7.526
 2653POPC   C1B36163  38.219  10.755   8.702
 2653POPC   C2B36164  38.153  10.742   8.247
 2653POPC   C3B36165  38.222  10.757   7.811
 2653POPC   C4B36166  38.082  10.916   7.433
 2654POPC   NC336167  25.072  39.593   9.490
 2654POPC   PO436168  25.391  39.054   9.538
 2654POPC   GL136169  25.366  39.148   9.115
 2654POPC   GL236170  25.084  39.315   9.054
 2654POPC   C1A36171  25.508  39.309   8.718
 2654POPC   D2A36172  25.461  39.128   8.338
 2654POPC   C3A36173  25.575  39.320   7.959
 2654POPC   C4A36174  25.339  38.949   7.816
 2654POPC   C1B36175  25.070  39.016   8.704
 2654POPC   C2B36176  24.902  38.989   8.276
 2654POPC   C3B36177  24.842  39.176   7.867
 2654POPC   C4B36178  24.978  39.061   7.438
 2655POPC   NC336179  44.443  18.649   9.405
 2655POPC   PO436180  44.672  18.017   9.511
 2655POPC   GL136181  44.740  18.301   9.155
 2655POPC   GL236182  44.913  18.640   9.199
 2655POPC   C1A36183  44.538  18.425   8.776
 2655POPC   D2A36184  44.431  18.260   8.385
 2655POPC   C3A36185  44.440  18.435   8.005
 2655POPC   C4A36186  44.571  18.099   7.853
 2655POPC   C1B36187   0.009  18.626   8.749
 2655POPC   C2B36188  44.768  18.654   8.366
 2655POPC   C3B36189  44.912  18.625   7.958
 2655POPC   C4B36190  44.841  18.441   7.583
 2656POPC   NC336191  24.278  24.690   9.336
 2656POPC   PO436192  24.150  24.121   9.450
 2656POPC   GL136193  24.383  24.281   9.070
 2656POPC   GL236194  24.711  24.396   9.175
 2656POPC   C1A36195  24.306  24.486   8.666
 2656POPC   D2A36196  24.067  24.398   8.286
 2656POPC   C3A36197  24.313  24.599   8.004
 2656POPC   C4A36198  24.512  24.338   7.728
 2656POPC   C1B36199  24.806  24.612   8.762
 2656POPC   C2B36200  24.712  24.681   8.333
 2656POPC   C3B36201  24.740  24.883   7.889
 2656POPC   C4B36202  24.763  24.689   7.454
 2657POPC   NC336203  25.425  33.251   9.540
 2657POPC   PO436204  25.052  32.708   9.430
 2657POPC   GL136205  25.176  32.971   9.093
 2657POPC   GL236206  25.516  32.914   9.125
 2657POPC   C1A36207  25.197  33.150   8.650
 2657POPC   D2A36208  25.114  33.343   8.232
 2657POPC   C3A36209  24.887  33.075   7.969
 2657POPC   C4A36210  25.100  32.788   7.752
 2657POPC   C1B36211  25.690  33.178   8.813
 2657POPC   C2B36212  25.652  33.241   8.377
 2657POPC   C3B36213  25.571  33.082   7.992
 2657POPC   C4B36214  25.762  33.070   7.578
 2658POPC   NC336215  23.464   2.864   9.612
 2658POPC   PO436216  22.732   2.866   9.534
 2658POPC   GL136217  22.908   2.757   9.148
 2658POPC   GL236218  23.174   2.990   9.018
 2658POPC   C1A36219  22.891   2.587   8.759
 2658POPC   D2A36220  22.737   2.705   8.375
 2658POPC   C3A36221  22.873   2.486   8.019
 2658POPC   C4A36222  22.699   2.656   7.664
 2658POPC   C1B36223  23.302   2.866   8.629
 2658POPC   C2B36224  23.288   2.745   8.196
 2658POPC   C3B36225  23.249   3.047   7.852
 2658POPC   C4B36226  23.297   3.064   7.409
 2659POPC   NC336227  23.682   7.032   9.417
 2659POPC   PO436228  24.205   6.550   9.468
 2659POPC   GL136229  23.819   6.573   9.189
 2659POPC   GL236230  23.559   6.318   9.252
 2659POPC   C1A36231  23.638   6.665   8.763
 2659POPC   D2A36232  23.869   6.607   8.369
 2659POPC   C3A36233  23.683   6.682   7.975
 2659POPC   C4A36234  23.684   6.960   7.646
 2659POPC   C1B36235  23.470   6.133   8.829
 2659POPC   C2B36236  23.461   6.267   8.388
 2659POPC   C3B36237  23.263   6.404   8.007
 2659POPC   C4B36238  23.306   6.564   7.600
 2660POPC   NC336239  22.517   7.914   9.563
 2660POPC   PO436240  22.068   8.444   9.641
 2660POPC   GL136241  22.160   8.186   9.293
 2660POPC   GL236242  22.265   8.478   9.132
 2660POPC   C1A36243  22.280   7.982   8.885
 2660POPC   D2A36244  22.401   7.871   8.447
 2660POPC   C3A36245  22.315   8.074   8.039
 2660POPC   C4A36246  22.499   8.226   7.652
 2660POPC   C1B36247  21.927   8.359   8.859
 2660POPC   C2B36248  22.028   8.261   8.451
 2660POPC   C3B36249  22.079   8.559   8.111
 2660POPC   C4B36250  22.054   8.465   7.675
 2661POPC   NC336251   3.311   9.847   9.434
 2661POPC   PO436252   3.972   9.856   9.423
 2661POPC   GL136253   3.733   9.671   9.084
 2661POPC   GL236254   3.369   9.516   9.047
 2661POPC   C1A36255   3.593   9.800   8.682
 2661POPC   D2A36256   3.659  10.002   8.311
 2661POPC   C3A36257   3.736   9.746   7.987
 2661POPC   C4A36258   3.423   9.985   7.817
 2661POPC   C1B36259   3.286   9.367   8.600
 2661POPC   C2B36260   3.299   9.553   8.156
 2661POPC   C3B36261   3.335   9.521   7.660
 2661POPC   C4B36262   3.439   9.478   7.191
 2662POPC   NC336263  44.414  40.454   9.431
 2662POPC   PO436264  44.643  41.070   9.422
 2662POPC   GL136265  44.781  40.717   9.142
 2662POPC   GL236266   0.083  40.484   9.151
 2662POPC   C1A36267  44.583  40.699   8.731
 2662POPC   D2A36268  44.504  40.346   8.457
 2662POPC   C3A36269  44.263  40.523   8.106
 2662POPC   C4A36270  44.528  40.758   7.806
 2662POPC   C1B36271  44.972  40.373   8.745
 2662POPC   C2B36272   0.025  40.556   8.336
 2662POPC   C3B36273  44.963  40.460   7.881
 2662POPC   C4B36274   0.002  40.596   7.441
 2663POPC   NC336275  38.455   0.588   9.668
 2663POPC   PO436276  38.766   0.134   9.193
 2663POPC   GL136277  38.620   0.458   9.003
 2663POPC   GL236278  38.341   0.641   9.136
 2663POPC   C1A36279  38.472   0.323   8.611
 2663POPC   D2A36280  38.753   0.566   8.333
 2663POPC   C3A36281  38.657   0.407   7.957
 2663POPC   C4A36282  38.334   0.134   7.921
 2663POPC   C1B36283  38.407   0.804   8.686
 2663POPC   C2B36284  38.254   0.612   8.238
 2663POPC   C3B36285  38.224   0.626   7.767
 2663POPC   C4B36286  38.016   0.718   7.358
 2664POPC   NC336287  34.258   6.891   9.470
 2664POPC   PO436288  34.875   6.625   9.423
 2664POPC   GL136289  34.715   6.564   9.045
 2664POPC   GL236290  34.364   6.503   9.104
 2664POPC   C1A36291  34.587   6.355   8.662
 2664POPC   D2A36292  34.289   6.526   8.367
 2664POPC   C3A36293  34.378   6.431   7.938
 2664POPC   C4A36294  34.772   6.512   7.643
 2664POPC   C1B36295  34.321   6.846   8.818
 2664POPC   C2B36296  34.259   7.068   8.450
 2664POPC   C3B36297  34.427   6.989   8.093
 2664POPC   C4B36298  34.423   6.865   7.690
 2665POPC   NC336299  43.744  11.290   9.425
 2665POPC   PO436300  44.314  11.359   9.702
 2665POPC   GL136301  44.172  11.305   9.176
 2665POPC   GL236302  43.875  11.565   9.032
 2665POPC   C1A36303  43.989  11.161   8.733
 2665POPC   D2A36304  44.103  11.145   8.277
 2665POPC   C3A36305  44.001  10.928   7.884
 2665POPC   C4A36306  43.835  11.144   7.506
 2665POPC   C1B36307  43.540  11.488   8.732
 2665POPC   C2B36308  43.696  11.533   8.308
 2665POPC   C3B36309  43.895  11.463   7.918
 2665POPC   C4B36310  43.907  11.664   7.511
 2666POPC   NC336311   2.527  18.211   9.547
 2666POPC   PO436312   3.001  18.610   9.428
 2666POPC   GL136313   2.712  18.466   9.147
 2666POPC   GL236314   2.716  18.087   9.097
 2666POPC   C1A36315   2.486  18.422   8.811
 2666POPC   D2A36316   2.569  18.056   8.557
 2666POPC   C3A36317   2.569  18.121   8.114
 2666POPC   C4A36318   2.698  18.143   7.684
 2666POPC   C1B36319   2.978  18.249   8.791
 2666POPC   C2B36320   3.045  18.194   8.359
 2666POPC   C3B36321   3.074  18.307   7.965
 2666POPC   C4B36322   3.059  18.512   7.608
 2667POPC   NC336323   2.038  14.125   9.755
 2667POPC   PO436324   1.875  14.734   9.534
 2667POPC   GL136325   1.848  14.311   9.300
 2667POPC   GL236326   2.135  14.125   9.210
 2667POPC   C1A36327   1.718  14.274   8.871
 2667POPC   D2A36328   1.821  14.567   8.525
 2667POPC   C3A36329   1.650  14.446   8.110
 2667POPC   C4A36330   1.843  14.319   7.743
 2667POPC   C1B36331   2.233  14.359   8.828
 2667POPC   C2B36332   2.252  14.296   8.368
 2667POPC   C3B36333   2.279  14.476   7.936
 2667POPC   C4B36334   2.283  14.307   7.472
 2668POPC   NC336335  16.938  31.916   9.509
 2668POPC   PO436336  16.737  32.608   9.483
 2668POPC   GL136337  16.673  32.238   9.199
 2668POPC   GL236338  16.315  32.140   9.188
 2668POPC   C1A36339  16.870  32.209   8.785
 2668POPC   D2A36340  16.887  32.524   8.444
 2668POPC   C3A36341  16.887  32.327   8.027
 2668POPC   C4A36342  17.200  32.457   7.760
 2668POPC   C1B36343  16.369  32.283   8.769
 2668POPC   C2B36344  16.568  32.127   8.389
 2668POPC   C3B36345  16.404  32.139   8.017
 2668POPC   C4B36346  16.472  32.294   7.620
 2669POPC   NC336347  29.357   5.424   9.557
 2669POPC   PO436348  28.848   5.076   9.509
 2669POPC   GL136349  29.043   4.984   9.119
 2669POPC   GL236350  29.325   5.197   9.082
 2669POPC   C1A36351  28.806   4.832   8.772
 2669POPC   D2A36352  28.684   4.621   8.395
 2669POPC   C3A36353  28.816   4.901   8.105
 2669POPC   C4A36354  28.951   4.942   7.716
 2669POPC   C1B36355  29.301   4.986   8.675
 2669POPC   C2B36356  29.317   5.013   8.225
 2669POPC   C3B36357  29.414   5.065   7.797
 2669POPC   C4B36358  29.353   4.792   7.420
 2670POPC   NC336359  17.699  34.320   9.515
 2670POPC   PO436360  17.403  34.845   9.707
 2670POPC   GL136361  17.477  34.695   9.252
 2670POPC   GL236362  17.771  34.544   9.069
 2670POPC   C1A36363  17.326  34.648   8.829
 2670POPC   D2A36364  17.379  34.425   8.443
 2670POPC   C3A36365  17.407  34.618   8.056
 2670POPC   C4A36366  17.330  34.475   7.639
 2670POPC   C1B36367  17.767  34.215   8.752
 2670POPC   C2B36368  17.731  34.078   8.304
 2670POPC   C3B36369  17.774  34.293   7.873
 2670POPC   C4B36370  17.685  34.185   7.413
 2671POPC   NC336371   3.311  40.212   9.480
 2671POPC   PO436372   4.005  40.261   9.505
 2671POPC   GL136373   3.749  40.213   9.126
 2671POPC   GL236374   3.433  40.372   9.028
 2671POPC   C1A36375   3.675  40.044   8.698
 2671POPC   D2A36376   3.380  39.886   8.358
 2671POPC   C3A36377   3.543  39.914   7.934
 2671POPC   C4A36378   3.391  39.726   7.533
 2671POPC   C1B36379   3.176  40.194   8.725
 2671POPC   C2B36380   3.011  40.266   8.322
 2671POPC   C3B36381   3.028  39.982   7.957
 2671POPC   C4B36382   3.219  40.195   7.651
 2672POPC   NC336383  34.982  22.883   9.582
 2672POPC   PO436384  35.529  23.139   9.358
 2672POPC   GL136385  35.225  22.933   9.131
 2672POPC   GL236386  35.077  23.261   9.118
 2672POPC   C1A36387  35.262  22.732   8.746
 2672POPC   D2A36388  35.188  22.524   8.391
 2672POPC   C3A36389  35.071  22.783   8.062
 2672POPC   C4A36390  35.156  22.659   7.639
 2672POPC   C1B36391  35.359  23.247   8.735
 2672POPC   C2B36392  35.424  23.067   8.309
 2672POPC   C3B36393  35.399  23.102   7.847
 2672POPC   C4B36394  35.397  23.029   7.374
 2673POPC   NC336395  10.035  26.722   9.514
 2673POPC   PO436396   9.340  26.892   9.411
 2673POPC   GL136397   9.601  27.080   9.101
 2673POPC   GL236398   9.976  26.999   9.062
 2673POPC   C1A36399   9.588  26.855   8.741
 2673POPC   D2A36400   9.645  26.601   8.409
 2673POPC   C3A36401   9.657  26.925   8.152
 2673POPC   C4A36402   9.548  26.883   7.796
 2673POPC   C1B36403  10.003  26.564   8.825
 2673POPC   C2B36404  10.164  26.522   8.381
 2673POPC   C3B36405  10.049  26.677   7.952
 2673POPC   C4B36406  10.028  27.075   7.739
 2674POPC   NC336407   2.809  22.370   9.908
 2674POPC   PO436408   2.520  22.400   9.289
 2674POPC   GL136409   2.966  22.344   9.233
 2674POPC   GL236410   3.076  21.988   9.215
 2674POPC   C1A36411   3.078  22.493   8.827
 2674POPC   D2A36412   2.703  22.473   8.550
 2674POPC   C3A36413   2.804  22.399   8.107
 2674POPC   C4A36414   2.598  22.298   7.720
 2674POPC   C1B36415   2.830  22.027   8.838
 2674POPC   C2B36416   3.005  22.041   8.449
 2674POPC   C3B36417   2.868  21.888   8.042
 2674POPC   C4B36418   3.044  22.082   7.677
 2675POPC   NC336419  10.870  41.016   9.847
 2675POPC   PO436420  10.314  40.654   9.666
 2675POPC   GL136421  10.385  40.737   9.165
 2675POPC   GL236422  10.209  40.543   8.932
 2675POPC   C1A36423  10.615  40.936   8.813
 2675POPC   D2A36424  10.669  41.196   8.433
 2675POPC   C3A36425  10.521  41.019   8.060
 2675POPC   C4A36426  10.823  40.782   7.862
 2675POPC   C1B36427  10.430  40.513   8.568
 2675POPC   C2B36428  10.351  40.523   8.138
 2675POPC   C3B36429  10.351  40.435   7.702
 2675POPC   C4B36430  10.519  40.263   7.316
 2676POPC   NC336431  36.853  24.530   9.530
 2676POPC   PO436432  37.398  24.458   9.177
 2676POPC   GL136433  36.968  24.411   9.035
 2676POPC   GL236434  36.676  24.636   9.069
 2676POPC   C1A36435  36.678  24.331   8.657
 2676POPC   D2A36436  36.607  24.595   8.272
 2676POPC   C3A36437  36.609  24.512   7.825
 2676POPC   C4A36438  36.735  24.304   7.422
 2676POPC   C1B36439  36.869  24.806   8.727
 2676POPC   C2B36440  37.081  24.768   8.341
 2676POPC   C3B36441  37.096  24.557   7.962
 2676POPC   C4B36442  36.977  24.749   7.560
 2677POPC   NC336443  37.612   8.573   9.472
 2677POPC   PO436444  37.606   9.134   9.756
 2677POPC   GL136445  37.620   9.084   9.298
 2677POPC   GL236446  37.290   8.933   9.298
 2677POPC   C1A36447  37.860   8.852   8.935
 2677POPC   D2A36448  37.726   8.873   8.495
 2677POPC   C3A36449  37.936   8.961   8.136
 2677POPC   C4A36450  37.962   8.808   7.734
 2677POPC   C1B36451  37.347   8.927   8.858
 2677POPC   C2B36452  37.284   8.628   8.507
 2677POPC   C3B36453  37.267   8.930   8.156
 2677POPC   C4B36454  37.538   9.087   7.812
 2678POPC   NC336455  36.513  43.276  10.087
 2678POPC   PO436456  35.950  43.077   9.669
 2678POPC   GL136457  36.066  43.092   9.222
 2678POPC   GL236458  36.283  43.374   9.098
 2678POPC   C1A36459  35.840  43.261   8.841
 2678POPC   D2A36460  35.926  43.134   8.418
 2678POPC   C3A36461  35.735  43.258   8.057
 2678POPC   C4A36462  35.969  43.104   7.753
 2678POPC   C1B36463  36.359  43.246   8.695
 2678POPC   C2B36464  36.431  43.323   8.271
 2678POPC   C3B36465  36.460  43.041   7.924
 2678POPC   C4B36466  36.423  42.758   7.563
 2679POPC   NC336467  34.487  34.002   9.462
 2679POPC   PO436468  34.183  33.425   9.472
 2679POPC   GL136469  34.413  33.600   9.141
 2679POPC   GL236470  34.781  33.647   9.197
 2679POPC   C1A36471  34.560  33.486   8.747
 2679POPC   D2A36472  34.678  33.346   8.359
 2679POPC   C3A36473  34.526  33.614   8.041
 2679POPC   C4A36474  34.263  33.792   7.705
 2679POPC   C1B36475  34.757  33.953   8.839
 2679POPC   C2B36476  34.823  33.864   8.402
 2679POPC   C3B36477  34.746  34.087   8.015
 2679POPC   C4B36478  34.653  34.141   7.580
 2680POPC   NC336479  33.758  22.580   9.435
 2680POPC   PO436480  33.291  22.204   9.681
 2680POPC   GL136481  33.548  22.152   9.226
 2680POPC   GL236482  33.566  22.416   9.010
 2680POPC   C1A36483  33.879  22.076   8.827
 2680POPC   D2A36484  33.731  21.966   8.376
 2680POPC   C3A36485  33.934  21.976   7.993
 2680POPC   C4A36486  34.120  21.832   7.630
 2680POPC   C1B36487  33.401  22.186   8.692
 2680POPC   C2B36488  33.283  22.237   8.286
 2680POPC   C3B36489  33.395  22.166   7.884
 2680POPC   C4B36490  33.453  22.275   7.459
 2681POPC   NC336491  31.864  43.071   9.566
 2681POPC   PO436492  32.513  43.447   9.616
 2681POPC   GL136493  32.355  43.120   9.279
 2681POPC   GL236494  32.517  42.777   9.253
 2681POPC   C1A36495  32.124  43.044   8.865
 2681POPC   D2A36496  31.904  43.300   8.532
 2681POPC   C3A36497  32.204  43.295   8.174
 2681POPC   C4A36498  32.105  43.160   7.767
 2681POPC   C1B36499  32.471  42.661   8.797
 2681POPC   C2B36500  32.445  42.880   8.378
 2681POPC   C3B36501  32.440  42.826   7.904
 2681POPC   C4B36502  32.374  42.824   7.412
 2682POPC   NC336503  12.268  34.161   9.345
 2682POPC   PO436504  11.792  33.733   9.587
 2682POPC   GL136505  11.867  33.840   9.173
 2682POPC   GL236506  12.183  33.679   9.139
 2682POPC   C1A36507  11.853  33.586   8.776
 2682POPC   D2A36508  12.032  33.732   8.388
 2682POPC   C3A36509  11.937  33.667   7.979
 2682POPC   C4A36510  11.878  34.063   7.750
 2682POPC   C1B36511  12.346  33.934   8.756
 2682POPC   C2B36512  12.538  33.884   8.350
 2682POPC   C3B36513  12.354  33.976   7.958
 2682POPC   C4B36514  12.261  33.773   7.597
 2683POPC   NC336515  24.204   3.531   9.527
 2683POPC   PO436516  24.839   3.400   9.484
 2683POPC   GL136517  24.601   3.619   9.183
 2683POPC   GL236518  24.357   3.408   9.079
 2683POPC   C1A36519  24.392   3.822   8.827
 2683POPC   D2A36520  24.523   3.880   8.431
 2683POPC   C3A36521  24.354   3.665   8.115
 2683POPC   C4A36522  24.552   3.635   7.729
 2683POPC   C1B36523  24.384   3.312   8.706
 2683POPC   C2B36524  24.654   3.323   8.382
 2683POPC   C3B36525  24.559   3.204   7.982
 2683POPC   C4B36526  24.300   3.173   7.665
 2684POPC   NC336527  33.603  14.606   9.384
 2684POPC   PO436528  33.134  14.267   9.735
 2684POPC   GL136529  33.006  14.458   9.250
 2684POPC   GL236530  33.242  14.588   9.061
 2684POPC   C1A36531  32.838  14.510   8.780
 2684POPC   D2A36532  32.767  14.246   8.408
 2684POPC   C3A36533  32.657  14.415   8.037
 2684POPC   C4A36534  32.763  14.249   7.645
 2684POPC   C1B36535  33.337  14.422   8.708
 2684POPC   C2B36536  33.278  14.183   8.388
 2684POPC   C3B36537  33.142  14.201   8.010
 2684POPC   C4B36538  33.170  13.883   7.753
 2685POPC   NC336539  17.006  13.347   9.631
 2685POPC   PO436540  16.621  12.816   9.533
 2685POPC   GL136541  16.461  12.826   9.146
 2685POPC   GL236542  16.470  13.177   9.084
 2685POPC   C1A36543  16.664  12.757   8.753
 2685POPC   D2A36544  16.918  12.947   8.425
 2685POPC   C3A36545  16.792  12.851   8.007
 2685POPC   C4A36546  16.595  12.576   7.700
 2685POPC   C1B36547  16.464  13.216   8.647
 2685POPC   C2B36548  16.414  13.106   8.230
 2685POPC   C3B36549  16.392  13.041   7.774
 2685POPC   C4B36550  16.421  13.012   7.330
 2686POPC   NC336551  22.830  41.929   9.485
 2686POPC   PO436552  23.047  42.555   9.706
 2686POPC   GL136553  22.930  42.487   9.267
 2686POPC   GL236554  22.687  42.765   9.271
 2686POPC   C1A36555  23.023  42.308   8.801
 2686POPC   D2A36556  23.159  42.187   8.340
 2686POPC   C3A36557  22.809  42.197   8.009
 2686POPC   C4A36558  22.781  42.047   7.547
 2686POPC   C1B36559  22.771  42.826   8.842
 2686POPC   C2B36560  22.773  42.637   8.416
 2686POPC   C3B36561  22.876  42.736   7.977
 2686POPC   C4B36562  22.795  42.565   7.555
 2687POPC   NC336563  26.157  27.767   9.466
 2687POPC   PO436564  25.678  27.216   9.456
 2687POPC   GL136565  25.805  27.557   9.159
 2687POPC   GL236566  25.747  27.959   9.193
 2687POPC   C1A36567  26.132  27.467   8.840
 2687POPC   D2A36568  26.250  27.543   8.401
 2687POPC   C3A36569  25.988  27.353   8.101
 2687POPC   C4A36570  26.189  27.301   7.741
 2687POPC   C1B36571  25.886  27.921   8.757
 2687POPC   C2B36572  25.827  27.824   8.313
 2687POPC   C3B36573  26.118  27.827   7.960
 2687POPC   C4B36574  26.051  27.963   7.547
 2688POPC   NC336575  37.474  36.255   9.390
 2688POPC   PO436576  36.944  35.913   9.598
 2688POPC   GL136577  37.006  36.042   9.144
 2688POPC   GL236578  37.303  36.130   8.920
 2688POPC   C1A36579  36.842  36.108   8.697
 2688POPC   D2A36580  36.996  36.328   8.308
 2688POPC   C3A36581  36.760  36.260   7.940
 2688POPC   C4A36582  36.904  36.471   7.589
 2688POPC   C1B36583  37.284  35.936   8.485
 2688POPC   C2B36584  36.985  35.824   8.132
 2688POPC   C3B36585  36.971  35.873   7.646
 2688POPC   C4B36586  37.029  35.707   7.181
 2689POPC   NC336587  20.322  44.523   9.531
 2689POPC   PO436588  20.927  44.780   9.466
 2689POPC   GL136589  20.649  44.666   9.171
 2689POPC   GL236590  20.436  44.951   9.221
 2689POPC   C1A36591  20.705  44.465   8.801
 2689POPC   D2A36592  20.776  44.626   8.420
 2689POPC   C3A36593  20.844  44.371   8.060
 2689POPC   C4A36594  20.588  44.418   7.714
 2689POPC   C1B36595  20.521  44.994   8.792
 2689POPC   C2B36596  20.362  44.918   8.395
 2689POPC   C3B36597  20.618  44.917   8.030
 2689POPC   C4B36598  20.545  44.900   7.630
 2690POPC   NC336599   8.698  10.356   9.494
 2690POPC   PO436600   8.066  10.602   9.446
 2690POPC   GL136601   8.344  10.466   9.158
 2690POPC   GL236602   8.429  10.755   9.026
 2690POPC   C1A36603   8.503  10.306   8.759
 2690POPC   D2A36604   8.310  10.446   8.357
 2690POPC   C3A36605   8.432  10.440   7.942
 2690POPC   C4A36606   8.502  10.364   7.509
 2690POPC   C1B36607   8.062  10.647   8.742
 2690POPC   C2B36608   7.953  10.805   8.279
 2690POPC   C3B36609   8.030  10.744   7.799
 2690POPC   C4B36610   8.198  10.957   7.397
 2691POPC   NC336611  21.857  13.627   9.181
 2691POPC   PO436612  21.556  13.611   9.729
 2691POPC   GL136613  21.375  13.687   9.282
 2691POPC   GL236614  21.215  13.399   9.150
 2691POPC   C1A36615  21.261  13.874   8.866
 2691POPC   D2A36616  21.483  13.837   8.460
 2691POPC   C3A36617  21.325  13.936   8.059
 2691POPC   C4A36618  21.450  13.889   7.647
 2691POPC   C1B36619  21.378  13.383   8.734
 2691POPC   C2B36620  21.612  13.365   8.332
 2691POPC   C3B36621  21.431  13.437   7.925
 2691POPC   C4B36622  21.103  13.169   7.841
 2692POPC   NC336623  19.631  10.980   9.420
 2692POPC   PO436624  20.006  10.552   9.809
 2692POPC   GL136625  20.045  10.728   9.299
 2692POPC   GL236626  19.756  10.646   9.066
 2692POPC   C1A36627  20.217  10.611   8.860
 2692POPC   D2A36628  19.989  10.514   8.483
 2692POPC   C3A36629  20.112  10.548   8.054
 2692POPC   C4A36630  20.292  10.406   7.655
 2692POPC   C1B36631  19.494  10.499   8.733
 2692POPC   C2B36632  19.251  10.612   8.382
 2692POPC   C3B36633  19.467  10.434   8.081
 2692POPC   C4B36634  19.682  10.581   7.772
 2693POPC   NC336635  33.799   2.938   9.650
 2693POPC   PO436636  34.281   2.486   9.510
 2693POPC   GL136637  34.046   2.691   9.168
 2693POPC   GL236638  33.647   2.738   9.194
 2693POPC   C1A36639  33.926   2.706   8.760
 2693POPC   D2A36640  33.979   2.527   8.362
 2693POPC   C3A36641  33.826   2.713   8.004
 2693POPC   C4A36642  33.899   2.573   7.617
 2693POPC   C1B36643  33.447   2.893   8.789
 2693POPC   C2B36644  33.660   3.016   8.400
 2693POPC   C3B36645  33.588   3.185   7.980
 2693POPC   C4B36646  33.598   2.992   7.599
 2694POPC   NC336647  28.722   3.670   9.564
 2694POPC   PO436648  28.139   3.322   9.534
 2694POPC   GL136649  28.439   3.381   9.226
 2694POPC   GL236650  28.149   3.367   9.027
 2694POPC   C1A36651  28.515   3.679   8.880
 2694POPC   D2A36652  28.574   3.618   8.446
 2694POPC   C3A36653  28.680   3.941   8.168
 2694POPC   C4A36654  28.403   3.770   7.834
 2694POPC   C1B36655  27.893   3.522   8.730
 2694POPC   C2B36656  27.829   3.366   8.341
 2694POPC   C3B36657  28.045   3.354   7.956
 2694POPC   C4B36658  27.992   3.579   7.569
 2695POPC   NC336659   2.760  26.425   9.891
 2695POPC   PO436660   2.875  25.921   9.497
 2695POPC   GL136661   2.754  25.879   9.101
 2695POPC   GL236662   2.979  26.110   8.943
 2695POPC   C1A36663   2.613  25.663   8.722
 2695POPC   D2A36664   2.912  25.785   8.378
 2695POPC   C3A36665   2.850  25.981   7.957
 2695POPC   C4A36666   2.726  25.825   7.546
 2695POPC   C1B36667   2.655  26.151   8.674
 2695POPC   C2B36668   2.637  26.290   8.311
 2695POPC   C3B36669   2.830  26.501   8.024
 2695POPC   C4B36670   2.624  26.385   7.639
 2696POPC   NC336671  43.312  39.634   9.460
 2696POPC   PO436672  43.032  40.202   9.528
 2696POPC   GL136673  42.930  39.939   9.180
 2696POPC   GL236674  43.266  39.986   9.075
 2696POPC   C1A36675  42.861  39.921   8.719
 2696POPC   D2A36676  43.140  40.065   8.352
 2696POPC   C3A36677  42.997  39.952   7.954
 2696POPC   C4A36678  43.072  39.754   7.565
 2696POPC   C1B36679  43.344  39.767   8.716
 2696POPC   C2B36680  43.562  39.761   8.343
 2696POPC   C3B36681  43.486  39.746   7.893
 2696POPC   C4B36682  43.589  39.766   7.434
 2697POPC   NC336683  25.361  13.435   9.378
 2697POPC   PO436684  24.805  13.812   9.492
 2697POPC   GL136685  25.002  13.759   9.105
 2697POPC   GL236686  25.323  13.929   9.156
 2697POPC   C1A36687  25.015  13.604   8.662
 2697POPC   D2A36688  25.382  13.407   8.436
 2697POPC   C3A36689  25.366  13.431   7.986
 2697POPC   C4A36690  24.918  13.428   7.850
 2697POPC   C1B36691  25.476  13.838   8.727
 2697POPC   C2B36692  25.293  13.908   8.301
 2697POPC   C3B36693  25.409  13.942   7.865
 2697POPC   C4B36694  25.425  13.903   7.389
 2698POPC   NC336695   8.432   2.329   9.485
 2698POPC   PO436696   7.988   2.779   9.769
 2698POPC   GL136697   8.144   2.676   9.252
 2698POPC   GL236698   8.318   2.969   9.055
 2698POPC   C1A36699   8.129   2.613   8.762
 2698POPC   D2A36700   8.198   2.820   8.345
 2698POPC   C3A36701   8.100   2.592   7.978
 2698POPC   C4A36702   8.379   2.275   7.847
 2698POPC   C1B36703   8.017   3.096   8.755
 2698POPC   C2B36704   7.725   3.018   8.430
 2698POPC   C3B36705   7.798   3.023   8.014
 2698POPC   C4B36706   8.211   3.090   7.827
 2699POPC   NC336707  38.083  17.706   9.428
 2699POPC   PO436708  38.434  17.261   9.784
 2699POPC   GL136709  38.496  17.207   9.311
 2699POPC   GL236710  38.462  17.560   9.131
 2699POPC   C1A36711  38.647  17.201   8.855
 2699POPC   D2A36712  38.322  17.362   8.576
 2699POPC   C3A36713  38.339  17.230   8.168
 2699POPC   C4A36714  38.435  17.499   7.825
 2699POPC   C1B36715  38.615  17.744   8.733
 2699POPC   C2B36716  38.718  17.573   8.297
 2699POPC   C3B36717  38.832  17.807   7.913
 2699POPC   C4B36718  38.643  17.809   7.477
 2700POPC   NC336719  19.427  16.528   9.978
 2700POPC   PO436720  18.949  16.592   9.581
 2700POPC   GL136721  19.077  16.746   9.221
 2700POPC   GL236722  18.824  16.663   9.071
 2700POPC   C1A36723  19.215  16.753   8.790
 2700POPC   D2A36724  19.143  16.534   8.411
 2700POPC   C3A36725  19.301  16.765   8.095
 2700POPC   C4A36726  19.299  16.830   7.666
 2700POPC   C1B36727  18.724  16.869   8.683
 2700POPC   C2B36728  18.841  17.064   8.315
 2700POPC   C3B36729  18.852  16.911   7.897
 2700POPC   C4B36730  18.908  17.097   7.479
 2701POPC   NC336731  10.820  34.970   9.570
 2701POPC   PO436732  10.268  35.471   9.634
 2701POPC   GL136733  10.585  35.367   9.344
 2701POPC   GL236734  10.392  35.081   9.266
 2701POPC   C1A36735  10.634  35.400   8.885
 2701POPC   D2A36736  10.688  35.592   8.472
 2701POPC   C3A36737  10.741  35.301   8.112
 2701POPC   C4A36738  10.538  35.178   7.677
 2701POPC   C1B36739  10.222  35.072   8.875
 2701POPC   C2B36740  10.404  35.142   8.473
 2701POPC   C3B36741  10.244  35.117   8.082
 2701POPC   C4B36742  10.032  35.053   7.703
 2702POPC   NC336743  29.983  42.899   9.500
 2702POPC   PO436744  29.958  43.592   9.498
 2702POPC   GL136745  30.000  43.293   9.150
 2702POPC   GL236746  29.716  43.095   9.059
 2702POPC   C1A36747  30.132  43.050   8.785
 2702POPC   D2A36748  29.946  42.985   8.363
 2702POPC   C3A36749  30.141  43.146   8.005
 2702POPC   C4A36750  30.354  42.967   7.665
 2702POPC   C1B36751  29.746  43.377   8.656
 2702POPC   C2B36752  29.670  43.373   8.174
 2702POPC   C3B36753  29.667  42.985   7.917
 2702POPC   C4B36754  29.782  42.899   7.485
 2703POPC   NC336755  32.016   2.485   9.454
 2703POPC   PO436756  32.704   2.747   9.496
 2703POPC   GL136757  32.356   2.797   9.225
 2703POPC   GL236758  32.115   3.056   9.361
 2703POPC   C1A36759  32.289   2.642   8.800
 2703POPC   D2A36760  32.406   2.297   8.528
 2703POPC   C3A36761  32.184   2.278   8.166
 2703POPC   C4A36762  32.310   2.433   7.782
 2703POPC   C1B36763  32.120   3.118   8.912
 2703POPC   C2B36764  32.110   3.014   8.483
 2703POPC   C3B36765  32.209   2.895   8.075
 2703POPC   C4B36766  32.032   3.117   7.750
 2704POPC   NC336767  29.850  29.572   9.406
 2704POPC   PO436768  30.389  30.035   9.507
 2704POPC   GL136769  30.202  30.170   9.165
 2704POPC   GL236770  30.262  29.815   9.050
 2704POPC   C1A36771  29.938  30.161   8.821
 2704POPC   D2A36772  29.911  30.039   8.411
 2704POPC   C3A36773  30.248  30.148   8.154
 2704POPC   C4A36774  30.178  30.265   7.733
 2704POPC   C1B36775  29.994  29.626   8.762
 2704POPC   C2B36776  29.863  29.539   8.356
 2704POPC   C3B36777  30.059  29.685   8.010
 2704POPC   C4B36778  30.134  29.565   7.612
 2705POPC   NC336779   7.027   4.087   9.512
 2705POPC   PO436780   7.620   4.428   9.744
 2705POPC   GL136781   7.635   4.269   9.275
 2705POPC   GL236782   7.340   4.301   9.124
 2705POPC   C1A36783   7.792   4.411   8.835
 2705POPC   D2A36784   7.618   4.537   8.442
 2705POPC   C3A36785   7.667   4.462   8.018
 2705POPC   C4A36786   7.314   4.388   7.810
 2705POPC   C1B36787   7.370   4.147   8.699
 2705POPC   C2B36788   7.199   4.243   8.289
 2705POPC   C3B36789   7.049   3.975   7.933
 2705POPC   C4B36790   7.197   4.024   7.486
 2706POPC   NC336791  18.169  24.083   9.500
 2706POPC   PO436792  18.770  23.783   9.520
 2706POPC   GL136793  18.461  23.653   9.250
 2706POPC   GL236794  18.447  23.946   9.097
 2706POPC   C1A36795  18.217  23.561   8.872
 2706POPC   D2A36796  18.301  23.708   8.476
 2706POPC   C3A36797  18.358  23.459   8.082
 2706POPC   C4A36798  18.073  23.485   7.695
 2706POPC   C1B36799  18.643  24.043   8.728
 2706POPC   C2B36800  18.479  24.187   8.358
 2706POPC   C3B36801  18.185  23.980   8.077
 2706POPC   C4B36802  17.902  23.978   7.746
 2707POPC   NC336803   9.443   5.459   9.545
 2707POPC   PO436804   9.728   6.106   9.610
 2707POPC   GL136805   9.724   6.035   9.151
 2707POPC   GL236806   9.558   5.729   9.095
 2707POPC   C1A36807   9.934   5.849   8.759
 2707POPC   D2A36808  10.028   5.858   8.301
 2707POPC   C3A36809   9.781   6.116   8.017
 2707POPC   C4A36810   9.658   6.000   7.601
 2707POPC   C1B36811   9.294   5.738   8.699
 2707POPC   C2B36812   9.353   5.832   8.236
 2707POPC   C3B36813   9.423   5.600   7.837
 2707POPC   C4B36814   9.338   5.669   7.393
 2708POPC   NC336815   0.668  19.797   9.626
 2708POPC   PO436816   0.014  19.884   9.716
 2708POPC   GL136817   0.201  19.991   9.299
 2708POPC   GL236818  44.931  20.006   9.065
 2708POPC   C1A36819   0.521  20.082   8.960
 2708POPC   D2A36820   0.772  20.240   8.579
 2708POPC   C3A36821   0.662  20.181   8.155
 2708POPC   C4A36822   0.620  20.077   7.739
 2708POPC   C1B36823   0.161  19.805   8.738
 2708POPC   C2B36824   0.223  19.943   8.347
 2708POPC   C3B36825   0.314  19.707   8.015
 2708POPC   C4B36826   0.177  19.814   7.635
 2709POPC   NC336827   3.923  17.741   9.729
 2709POPC   PO436828   3.425  17.364   9.599
 2709POPC   GL136829   3.533  17.645   9.252
 2709POPC   GL236830   3.830  17.474   9.203
 2709POPC   C1A36831   3.489  17.535   8.790
 2709POPC   D2A36832   3.686  17.451   8.390
 2709POPC   C3A36833   3.539  17.360   7.978
 2709POPC   C4A36834   3.398  17.517   7.558
 2709POPC   C1B36835   4.021  17.411   8.784
 2709POPC   C2B36836   4.178  17.374   8.343
 2709POPC   C3B36837   4.218  17.397   7.913
 2709POPC   C4B36838   3.901  17.393   7.611
 2710POPC   NC336839  22.258  31.174   9.521
 2710POPC   PO436840  22.338  31.730   9.829
 2710POPC   GL136841  22.286  31.614   9.270
 2710POPC   GL236842  22.482  31.271   9.095
 2710POPC   C1A36843  22.476  31.663   8.814
 2710POPC   D2A36844  22.604  31.536   8.394
 2710POPC   C3A36845  22.286  31.424   8.101
 2710POPC   C4A36846  22.358  31.304   7.684
 2710POPC   C1B36847  22.103  31.284   8.856
 2710POPC   C2B36848  21.932  31.253   8.457
 2710POPC   C3B36849  21.652  31.295   8.128
 2710POPC   C4B36850  21.805  31.407   7.726
 2711POPC   NC336851   4.441  27.995   9.438
 2711POPC   PO436852   4.195  28.585   9.531
 2711POPC   GL136853   4.192  28.434   9.104
 2711POPC   GL236854   4.546  28.352   9.054
 2711POPC   C1A36855   4.233  28.438   8.637
 2711POPC   D2A36856   4.197  28.293   8.190
 2711POPC   C3A36857   4.387  28.544   7.874
 2711POPC   C4A36858   4.245  28.685   7.453
 2711POPC   C1B36859   4.338  27.978   8.816
 2711POPC   C2B36860   4.343  27.748   8.450
 2711POPC   C3B36861   4.452  27.844   8.040
 2711POPC   C4B36862   4.234  27.952   7.700
 2712POPC   NC336863  11.124  28.847   9.440
 2712POPC   PO436864  11.631  29.285   9.597
 2712POPC   GL136865  11.408  29.224   9.212
 2712POPC   GL236866  11.009  29.292   9.201
 2712POPC   C1A36867  11.526  28.915   8.879
 2712POPC   D2A36868  11.359  28.849   8.466
 2712POPC   C3A36869  11.527  29.111   8.140
 2712POPC   C4A36870  11.511  29.059   7.686
 2712POPC   C1B36871  11.036  29.063   8.820
 2712POPC   C2B36872  10.991  29.207   8.409
 2712POPC   C3B36873  11.032  29.039   8.029
 2712POPC   C4B36874  10.970  29.125   7.606
 2713POPC   NC336875  25.302  34.087   9.525
 2713POPC   PO436876  25.152  33.593   9.771
 2713POPC   GL136877  25.191  33.686   9.258
 2713POPC   GL236878  25.338  33.451   9.056
 2713POPC   C1A36879  25.085  33.917   8.834
 2713POPC   D2A36880  24.859  33.724   8.462
 2713POPC   C3A36881  24.939  33.816   8.000
 2713POPC   C4A36882  24.809  33.949   7.558
 2713POPC   C1B36883  25.459  33.626   8.668
 2713POPC   C2B36884  25.347  33.812   8.298
 2713POPC   C3B36885  25.422  33.605   7.904
 2713POPC   C4B36886  25.247  33.288   7.668
 2714POPC   NC336887  20.589  34.927   9.796
 2714POPC   PO436888  20.663  35.490   9.423
 2714POPC   GL136889  20.450  35.606   9.050
 2714POPC   GL236890  20.707  35.393   8.930
 2714POPC   C1A36891  20.498  35.653   8.586
 2714POPC   D2A36892  20.797  35.483   8.348
 2714POPC   C3A36893  20.657  35.320   7.996
 2714POPC   C4A36894  20.629  35.545   7.646
 2714POPC   C1B36895  20.644  35.102   8.640
 2714POPC   C2B36896  20.951  34.985   8.335
 2714POPC   C3B36897  20.943  34.908   7.912
 2714POPC   C4B36898  20.703  35.027   7.548
 2715POPC   NC336899   9.273  21.623   9.674
 2715POPC   PO436900   9.766  21.169   9.569
 2715POPC   GL136901   9.843  21.368   9.168
 2715POPC   GL236902   9.551  21.567   9.161
 2715POPC   C1A36903   9.818  21.311   8.709
 2715POPC   D2A36904  10.036  21.247   8.292
 2715POPC   C3A36905   9.755  21.279   7.926
 2715POPC   C4A36906   9.457  21.135   7.640
 2715POPC   C1B36907   9.432  21.677   8.742
 2715POPC   C2B36908   9.565  21.562   8.322
 2715POPC   C3B36909   9.951  21.719   8.134
 2715POPC   C4B36910  10.052  21.880   7.737
 2716POPC   NC336911  30.190  42.007   9.903
 2716POPC   PO436912  29.943  42.432   9.471
 2716POPC   GL136913  29.884  42.603   9.088
 2716POPC   GL236914  29.742  42.290   9.007
 2716POPC   C1A36915  29.716  42.678   8.691
 2716POPC   D2A36916  29.564  42.334   8.444
 2716POPC   C3A36917  29.580  42.256   8.006
 2716POPC   C4A36918  29.852  42.514   7.784
 2716POPC   C1B36919  30.009  42.119   8.714
 2716POPC   C2B36920  30.193  41.978   8.353
 2716POPC   C3B36921  30.077  42.097   7.936
 2716POPC   C4B36922  30.084  42.188   7.467
 2717POPC   NC336923   5.022  29.510   9.445
 2717POPC   PO436924   4.610  29.053   9.644
 2717POPC   GL136925   4.983  28.978   9.317
 2717POPC   GL236926   5.346  29.139   9.288
 2717POPC   C1A36927   5.097  28.938   8.875
 2717POPC   D2A36928   4.992  29.119   8.485
 2717POPC   C3A36929   5.209  28.928   8.146
 2717POPC   C4A36930   5.243  29.093   7.727
 2717POPC   C1B36931   5.444  29.356   8.893
 2717POPC   C2B36932   5.485  29.281   8.447
 2717POPC   C3B36933   5.221  29.466   8.126
 2717POPC   C4B36934   5.234  29.677   7.730
 2718POPC   NC336935  28.953  29.673   9.446
 2718POPC   PO436936  29.027  29.042   9.288
 2718POPC   GL136937  29.184  29.135   8.964
 2718POPC   GL236938  29.292  29.471   9.068
 2718POPC   C1A36939  29.194  29.006   8.551
 2718POPC   D2A36940  29.504  28.990   8.224
 2718POPC   C3A36941  29.299  28.812   7.858
 2718POPC   C4A36942  28.833  28.905   7.910
 2718POPC   C1B36943  29.543  29.362   8.712
 2718POPC   C2B36944  29.338  29.456   8.337
 2718POPC   C3B36945  29.194  29.336   7.943
 2718POPC   C4B36946  29.311  29.593   7.619
 2719POPC   NC336947  21.609  34.088   9.409
 2719POPC   PO436948  21.547  33.420   9.439
 2719POPC   GL136949  21.559  33.682   9.105
 2719POPC   GL236950  21.220  33.835   9.152
 2719POPC   C1A36951  21.415  33.719   8.700
 2719POPC   D2A36952  21.176  33.466   8.453
 2719POPC   C3A36953  21.321  33.549   8.037
 2719POPC   C4A36954  21.480  33.943   7.887
 2719POPC   C1B36955  21.032  34.043   8.761
 2719POPC   C2B36956  21.159  33.995   8.326
 2719POPC   C3B36957  20.973  33.989   7.930
 2719POPC   C4B36958  21.140  34.082   7.525
 2720POPC   NC336959   0.306   2.351   9.563
 2720POPC   PO436960   0.563   1.699   9.465
 2720POPC   GL136961   0.367   1.968   9.178
 2720POPC   GL236962   0.616   2.221   9.170
 2720POPC   C1A36963   0.452   1.922   8.748
 2720POPC   D2A36964   0.327   2.109   8.372
 2720POPC   C3A36965   0.371   1.827   8.048
 2720POPC   C4A36966   0.303   1.934   7.612
 2720POPC   C1B36967   0.638   2.402   8.755
 2720POPC   C2B36968   0.820   2.257   8.352
 2720POPC   C3B36969   0.749   2.138   7.951
 2720POPC   C4B36970   0.387   2.351   7.883
 2721POPC   NC336971  26.370   5.441   9.655
 2721POPC   PO436972  25.932   5.891   9.519
 2721POPC   GL136973  25.960   5.837   9.123
 2721POPC   GL236974  26.263   5.680   9.178
 2721POPC   C1A36975  26.084   5.997   8.719
 2721POPC   D2A36976  26.323   6.148   8.359
 2721POPC   C3A36977  26.114   6.220   7.953
 2721POPC   C4A36978  25.724   6.022   7.755
 2721POPC   C1B36979  26.454   5.640   8.788
 2721POPC   C2B36980  26.491   5.515   8.371
 2721POPC   C3B36981  26.318   5.729   8.007
 2721POPC   C4B36982  26.324   5.669   7.595
 2722POPC   NC336983  31.710   3.431   9.557
 2722POPC   PO436984  31.060   3.554   9.353
 2722POPC   GL136985  31.446   3.552   9.138
 2722POPC   GL236986  31.726   3.773   9.165
 2722POPC   C1A36987  31.690   3.366   8.816
 2722POPC   D2A36988  31.608   3.155   8.440
 2722POPC   C3A36989  31.621   3.310   8.038
 2722POPC   C4A36990  31.662   3.434   7.646
 2722POPC   C1B36991  31.538   3.871   8.763
 2722POPC   C2B36992  31.515   3.716   8.338
 2722POPC   C3B36993  31.475   3.850   7.912
 2722POPC   C4B36994  31.710   3.951   7.543
 2723POPC   NC336995   9.571  33.462   9.497
 2723POPC   PO436996  10.102  33.922   9.721
 2723POPC   GL136997   9.955  33.840   9.270
 2723POPC   GL236998  10.009  33.517   9.140
 2723POPC   C1A36999   9.665  33.857   8.874
 2723POPC   D2A37000   9.622  34.152   8.501
 2723POPC   C3A37001   9.612  33.936   8.097
 2723POPC   C4A37002   9.373  34.050   7.723
 2723POPC   C1B37003   9.757  33.365   8.817
 2723POPC   C2B37004   9.583  33.521   8.437
 2723POPC   C3B37005   9.558  33.377   8.021
 2723POPC   C4B37006   9.635  33.614   7.686
 2724POPC   NC337007  12.303   5.589   9.226
 2724POPC   PO437008  11.918   5.967   9.656
 2724POPC   GL137009  11.961   5.999   9.177
 2724POPC   GL237010  12.290   6.053   8.987
 2724POPC   C1A37011  11.921   5.845   8.719
 2724POPC   D2A37012  11.797   5.641   8.329
 2724POPC   C3A37013  11.884   5.918   7.981
 2724POPC   C4A37014  11.869   6.363   7.967
 2724POPC   C1B37015  12.430   5.767   8.632
 2724POPC   C2B37016  12.288   5.750   8.240
 2724POPC   C3B37017  12.255   5.537   7.859
 2724POPC   C4B37018  12.161   5.476   7.418
 2725POPC   NC337019  33.132  38.483   9.707
 2725POPC   PO437020  33.241  37.867   9.507
 2725POPC   GL137021  33.173  38.240   9.256
 2725POPC   GL237022  32.818  38.303   9.266
 2725POPC   C1A37023  33.218  38.515   8.884
 2725POPC   D2A37024  33.410  38.498   8.468
 2725POPC   C3A37025  33.298  38.692   8.108
 2725POPC   C4A37026  33.160  38.515   7.741
 2725POPC   C1B37027  32.750  38.319   8.815
 2725POPC   C2B37028  32.885  38.525   8.425
 2725POPC   C3B37029  32.765  38.731   8.021
 2725POPC   C4B37030  32.735  38.724   7.547
 2726POPC   NC337031  23.143  34.607   9.727
 2726POPC   PO437032  22.751  34.244   9.271
 2726POPC   GL137033  23.136  34.378   9.066
 2726POPC   GL237034  23.209  34.694   9.219
 2726POPC   C1A37035  23.117  34.474   8.641
 2726POPC   D2A37036  22.738  34.490   8.445
 2726POPC   C3A37037  22.796  34.305   8.092
 2726POPC   C4A37038  22.697  34.591   7.815
 2726POPC   C1B37039  23.406  34.842   8.848
 2726POPC   C2B37040  23.522  34.784   8.417
 2726POPC   C3B37041  23.368  35.013   8.042
 2726POPC   C4B37042  23.136  34.837   7.701
 2727POPC   NC337043  42.944  29.125   9.497
 2727POPC   PO437044  43.517  29.096   9.779
 2727POPC   GL137045  43.371  29.183   9.248
 2727POPC   GL237046  43.094  28.950   9.044
 2727POPC   C1A37047  43.293  29.302   8.788
 2727POPC   D2A37048  43.116  29.037   8.460
 2727POPC   C3A37049  43.217  29.160   8.042
 2727POPC   C4A37050  43.512  29.015   7.742
 2727POPC   C1B37051  42.732  28.820   8.811
 2727POPC   C2B37052  42.629  28.932   8.387
 2727POPC   C3B37053  42.823  28.789   8.040
 2727POPC   C4B37054  43.032  28.845   7.678
 2728POPC   NC337055  20.071   9.470   9.425
 2728POPC   PO437056  20.724   9.165   9.523
 2728POPC   GL137057  20.702   9.082   9.096
 2728POPC   GL237058  20.380   9.223   9.085
 2728POPC   C1A37059  20.693   9.171   8.648
 2728POPC   D2A37060  20.878   9.123   8.248
 2728POPC   C3A37061  20.623   8.830   8.044
 2728POPC   C4A37062  20.576   8.749   7.607
 2728POPC   C1B37063  20.182   9.287   8.701
 2728POPC   C2B37064  20.179   9.320   8.252
 2728POPC   C3B37065  20.398   9.274   7.934
 2728POPC   C4B37066  20.323   9.189   7.548
 2729POPC   NC337067   5.418  28.184   9.489
 2729POPC   PO437068   6.116  28.442   9.562
 2729POPC   GL137069   6.029  28.246   9.173
 2729POPC   GL237070   5.699  28.356   9.076
 2729POPC   C1A37071   6.076  28.377   8.720
 2729POPC   D2A37072   6.200  28.335   8.282
 2729POPC   C3A37073   6.117  28.666   8.004
 2729POPC   C4A37074   6.001  28.649   7.593
 2729POPC   C1B37075   5.515  28.478   8.695
 2729POPC   C2B37076   5.676  28.635   8.307
 2729POPC   C3B37077   5.605  28.736   7.895
 2729POPC   C4B37078   5.507  28.507   7.544
 2730POPC   NC337079  39.651  39.209   9.440
 2730POPC   PO437080  40.215  38.884   9.552
 2730POPC   GL137081  40.128  39.120   9.179
 2730POPC   GL237082  39.815  39.106   8.983
 2730POPC   C1A37083  40.296  38.973   8.815
 2730POPC   D2A37084  40.410  39.128   8.453
 2730POPC   C3A37085  40.265  38.894   8.136
 2730POPC   C4A37086  40.069  39.062   7.779
 2730POPC   C1B37087  40.012  39.422   8.740
 2730POPC   C2B37088  39.910  39.538   8.318
 2730POPC   C3B37089  39.588  39.289   8.064
 2730POPC   C4B37090  39.599  39.163   7.615
 2731POPC   NC337091  20.183   3.625   9.667
 2731POPC   PO437092  19.495   3.491   9.669
 2731POPC   GL137093  19.782   3.474   9.278
 2731POPC   GL237094  20.037   3.240   9.346
 2731POPC   C1A37095  19.754   3.630   8.818
 2731POPC   D2A37096  19.564   3.708   8.388
 2731POPC   C3A37097  19.747   3.526   8.028
 2731POPC   C4A37098  19.620   3.370   7.644
 2731POPC   C1B37099  20.130   3.305   8.897
 2731POPC   C2B37100  20.074   3.447   8.460
 2731POPC   C3B37101  20.247   3.445   8.046
 2731POPC   C4B37102  20.079   3.165   7.726
 2732POPC   NC337103   2.090  21.193   9.511
 2732POPC   PO437104   1.590  21.700   9.503
 2732POPC   GL137105   1.881  21.614   9.155
 2732POPC   GL237106   2.222  21.449   9.106
 2732POPC   C1A37107   1.874  21.420   8.757
 2732POPC   D2A37108   1.759  21.327   8.361
 2732POPC   C3A37109   1.937  21.475   8.016
 2732POPC   C4A37110   1.846  21.360   7.575
 2732POPC   C1B37111   2.416  21.385   8.706
 2732POPC   C2B37112   2.292  21.228   8.306
 2732POPC   C3B37113   2.317  21.183   7.841
 2732POPC   C4B37114   2.414  21.348   7.447
 2733POPC   NC337115  44.150  40.047   9.695
 2733POPC   PO437116  43.752  39.564   9.550
 2733POPC   GL137117  43.751  39.968   9.287
 2733POPC   GL237118  44.071  40.153   9.207
 2733POPC   C1A37119  43.791  39.968   8.831
 2733POPC   D2A37120  44.003  39.647   8.585
 2733POPC   C3A37121  44.010  39.600   8.136
 2733POPC   C4A37122  44.017  39.794   7.730
 2733POPC   C1B37123  44.081  40.396   8.803
 2733POPC   C2B37124  44.027  40.162   8.426
 2733POPC   C3B37125  43.817  40.105   8.069
 2733POPC   C4B37126  43.915  40.292   7.711
 2734POPC   NC337127  34.505  43.128   9.619
 2734POPC   PO437128  35.114  43.219   9.557
 2734POPC   GL137129  34.790  43.165   9.193
 2734POPC   GL237130  34.403  43.151   9.130
 2734POPC   C1A37131  34.806  43.325   8.772
 2734POPC   D2A37132  34.624  43.417   8.344
 2734POPC   C3A37133  34.733  43.173   7.980
 2734POPC   C4A37134  34.689  43.148   7.517
 2734POPC   C1B37135  34.362  43.081   8.676
 2734POPC   C2B37136  34.370  42.890   8.243
 2734POPC   C3B37137  34.244  43.070   7.831
 2734POPC   C4B37138  34.094  42.864   7.430
 2735POPC   NC337139  26.642   0.246   9.803
 2735POPC   PO437140  26.954   0.834   9.646
 2735POPC   GL137141  26.745   0.605   9.250
 2735POPC   GL237142  27.013   0.492   9.089
 2735POPC   C1A37143  26.568   0.447   8.754
 2735POPC   D2A37144  26.637   0.110   8.397
 2735POPC   C3A37145  26.538   0.236   7.953
 2735POPC   C4A37146  26.555   0.341   7.477
 2735POPC   C1B37147  27.052   0.216   8.761
 2735POPC   C2B37148  27.295   0.232   8.413
 2735POPC   C3B37149  27.099   0.249   8.056
 2735POPC   C4B37150  26.971   0.511   7.744
 2736POPC   NC337151   8.225  34.736   9.439
 2736POPC   PO437152   8.236  34.056   9.537
 2736POPC   GL137153   8.236  34.303   9.119
 2736POPC   GL237154   8.525  34.500   9.073
 2736POPC   C1A37155   8.103  34.646   8.756
 2736POPC   D2A37156   7.825  34.972   8.487
 2736POPC   C3A37157   7.953  34.925   8.039
 2736POPC   C4A37158   8.042  34.549   7.818
 2736POPC   C1B37159   8.630  34.735   8.708
 2736POPC   C2B37160   8.403  34.755   8.310
 2736POPC   C3B37161   8.524  34.490   7.952
 2736POPC   C4B37162   8.510  34.465   7.501
 2737POPC   NC337163  27.051  14.249   9.425
 2737POPC   PO437164  26.849  14.893   9.469
 2737POPC   GL137165  26.802  14.613   9.114
 2737POPC   GL237166  26.558  14.805   8.953
 2737POPC   C1A37167  26.923  14.308   8.765
 2737POPC   D2A37168  26.925  14.062   8.358
 2737POPC   C3A37169  26.962  14.271   7.950
 2737POPC   C4A37170  26.627  14.328   7.643
 2737POPC   C1B37171  26.801  14.781   8.603
 2737POPC   C2B37172  26.759  14.675   8.179
 2737POPC   C3B37173  26.842  14.769   7.740
 2737POPC   C4B37174  26.707  14.740   7.292
 2738POPC   NC337175  14.004   5.370   9.771
 2738POPC   PO437176  13.556   4.958   9.531
 2738POPC   GL137177  13.479   5.209   9.166
 2738POPC   GL237178  13.691   4.979   9.017
 2738POPC   C1A37179  13.375   5.240   8.700
 2738POPC   D2A37180  13.501   4.969   8.370
 2738POPC   C3A37181  13.400   5.109   7.980
 2738POPC   C4A37182  13.525   5.044   7.575
 2738POPC   C1B37183  13.896   5.103   8.660
 2738POPC   C2B37184  14.016   4.933   8.316
 2738POPC   C3B37185  13.942   5.053   7.913
 2738POPC   C4B37186  13.753   5.441   7.815
 2739POPC   NC337187  40.181   8.745   9.481
 2739POPC   PO437188  40.075   9.401   9.632
 2739POPC   GL137189  39.976   9.196   9.237
 2739POPC   GL237190  40.275   9.061   9.086
 2739POPC   C1A37191  39.885   9.307   8.794
 2739POPC   D2A37192  39.639   9.394   8.400
 2739POPC   C3A37193  39.630   9.003   8.116
 2739POPC   C4A37194  39.838   8.674   7.889
 2739POPC   C1B37195  40.118   8.812   8.761
 2739POPC   C2B37196  40.032   8.961   8.390
 2739POPC   C3B37197  40.199   9.047   7.980
 2739POPC   C4B37198  40.446   9.189   7.619
 2740POPC   NC337199   1.391  20.482   9.438
 2740POPC   PO437200   0.853  20.926   9.263
 2740POPC   GL137201   1.246  20.796   9.050
 2740POPC   GL237202   1.495  21.064   9.051
 2740POPC   C1A37203   1.452  20.596   8.681
 2740POPC   D2A37204   1.227  20.447   8.295
 2740POPC   C3A37205   1.165  20.677   7.894
 2740POPC   C4A37206   0.834  20.504   7.562
 2740POPC   C1B37207   1.367  21.116   8.650
 2740POPC   C2B37208   1.468  20.917   8.276
 2740POPC   C3B37209   1.647  21.044   7.930
 2740POPC   C4B37210   1.634  20.816   7.610
 2741POPC   NC337211   1.394  16.095   9.739
 2741POPC   PO437212   0.808  15.810   9.459
 2741POPC   GL137213   1.003  16.045   9.168
 2741POPC   GL237214   1.309  15.972   9.268
 2741POPC   C1A37215   1.243  16.138   8.791
 2741POPC   D2A37216   1.539  16.208   8.468
 2741POPC   C3A37217   1.318  16.075   8.101
 2741POPC   C4A37218   0.987  15.954   7.844
 2741POPC   C1B37219   1.440  15.700   8.958
 2741POPC   C2B37220   1.396  15.686   8.495
 2741POPC   C3B37221   1.237  15.568   8.075
 2741POPC   C4B37222   1.470  15.700   7.740
 2742POPC   NC337223  20.078  25.555   9.637
 2742POPC   PO437224  19.438  25.277   9.570
 2742POPC   GL137225  19.754  25.432   9.239
 2742POPC   GL237226  19.948  25.151   9.251
 2742POPC   C1A37227  20.088  25.378   8.844
 2742POPC   D2A37228  20.021  25.141   8.443
 2742POPC   C3A37229  19.997  25.375   8.061
 2742POPC   C4A37230  19.880  25.341   7.647
 2742POPC   C1B37231  19.663  25.045   8.874
 2742POPC   C2B37232  19.511  24.956   8.449
 2742POPC   C3B37233  19.667  25.003   8.024
 2742POPC   C4B37234  19.455  25.051   7.646
 2743POPC   NC337235  32.767  33.237   9.374
 2743POPC   PO437236  33.316  33.112   9.775
 2743POPC   GL137237  33.197  32.867   9.338
 2743POPC   GL237238  32.825  32.781   9.159
 2743POPC   C1A37239  33.254  32.841   8.893
 2743POPC   D2A37240  33.236  32.979   8.473
 2743POPC   C3A37241  32.965  32.804   8.157
 2743POPC   C4A37242  32.894  33.032   7.775
 2743POPC   C1B37243  32.793  33.055   8.730
 2743POPC   C2B37244  32.817  33.294   8.271
 2743POPC   C3B37245  32.706  33.502   7.860
 2743POPC   C4B37246  32.548  33.314   7.463
 2744POPC   NC337247  37.427  23.712   9.498
 2744POPC   PO437248  38.076  23.588   9.457
 2744POPC   GL137249  37.819  23.767   9.143
 2744POPC   GL237250  37.538  23.973   9.082
 2744POPC   C1A37251  37.738  23.608   8.742
 2744POPC   D2A37252  37.963  23.428   8.373
 2744POPC   C3A37253  37.815  23.641   8.015
 2744POPC   C4A37254  37.755  23.493   7.584
 2744POPC   C1B37255  37.613  24.117   8.686
 2744POPC   C2B37256  37.513  23.953   8.338
 2744POPC   C3B37257  37.387  24.122   8.003
 2744POPC   C4B37258  37.491  23.903   7.706
 2745POPC   NC337259  39.602   9.439   9.755
 2745POPC   PO437260  39.928   9.976   9.502
 2745POPC   GL137261  40.060   9.704   9.179
 2745POPC   GL237262  40.350   9.866   9.081
 2745POPC   C1A37263  39.972   9.832   8.744
 2745POPC   D2A37264  40.293   9.970   8.468
 2745POPC   C3A37265  40.057   9.981   8.114
 2745POPC   C4A37266  39.834   9.919   7.742
 2745POPC   C1B37267  40.366   9.506   8.766
 2745POPC   C2B37268  40.166   9.460   8.347
 2745POPC   C3B37269  40.249   9.560   7.900
 2745POPC   C4B37270  40.229   9.635   7.428
 2746POPC   NC337271  43.667  36.583   9.517
 2746POPC   PO437272  43.816  35.911   9.640
 2746POPC   GL137273  43.805  36.071   9.156
 2746POPC   GL237274  43.822  36.428   9.056
 2746POPC   C1A37275  43.832  36.068   8.664
 2746POPC   D2A37276  43.818  35.903   8.210
 2746POPC   C3A37277  44.115  35.975   7.839
 2746POPC   C4A37278  43.998  35.979   7.392
 2746POPC   C1B37279  43.641  36.539   8.650
 2746POPC   C2B37280  43.795  36.431   8.234
 2746POPC   C3B37281  43.707  36.272   7.819
 2746POPC   C4B37282  43.895  36.476   7.445
 2747POPC   NC337283  42.008  10.558   9.270
 2747POPC   PO437284  42.227  10.158   9.868
 2747POPC   GL137285  42.294  10.108   9.397
 2747POPC   GL237286  42.614  10.194   9.285
 2747POPC   C1A37287  42.277  10.132   8.904
 2747POPC   D2A37288  42.332  10.481   8.585
 2747POPC   C3A37289  42.290  10.426   8.127
 2747POPC   C4A37290  42.007  10.414   7.757
 2747POPC   C1B37291  42.761  10.285   8.830
 2747POPC   C2B37292  42.823  10.435   8.396
 2747POPC   C3B37293  42.757  10.454   7.949
 2747POPC   C4B37294  42.472  10.621   7.664
 2748POPC   NC337295   3.873   4.958   9.334
 2748POPC   PO437296   3.192   5.144   9.420
 2748POPC   GL137297   3.410   4.991   9.098
 2748POPC   GL237298   3.588   5.305   9.072
 2748POPC   C1A37299   3.592   4.925   8.708
 2748POPC   D2A37300   3.510   5.171   8.336
 2748POPC   C3A37301   3.569   4.928   7.971
 2748POPC   C4A37302   3.491   4.986   7.547
 2748POPC   C1B37303   3.254   5.353   8.753
 2748POPC   C2B37304   3.037   5.377   8.326
 2748POPC   C3B37305   3.214   5.307   7.912
 2748POPC   C4B37306   3.137   5.329   7.418
 2749POPC   NC337307  26.996  15.326   9.526
 2749POPC   PO437308  26.376  15.458   9.384
 2749POPC   GL137309  26.691  15.330   9.084
 2749POPC   GL237310  26.988  15.102   9.033
 2749POPC   C1A37311  26.682  15.282   8.648
 2749POPC   D2A37312  26.482  15.091   8.336
 2749POPC   C3A37313  26.586  15.139   7.967
 2749POPC   C4A37314  26.453  15.065   7.566
 2749POPC   C1B37315  27.177  15.137   8.616
 2749POPC   C2B37316  27.046  15.084   8.200
 2749POPC   C3B37317  27.060  15.292   7.800
 2749POPC   C4B37318  26.917  15.193   7.406
 2750POPC   NC337319  22.548   5.139   9.370
 2750POPC   PO437320  23.225   5.171   9.486
 2750POPC   GL137321  23.005   5.169   9.096
 2750POPC   GL237322  23.110   5.427   8.872
 2750POPC   C1A37323  22.725   5.075   8.724
 2750POPC   D2A37324  22.507   5.260   8.364
 2750POPC   C3A37325  22.590   5.141   7.950
 2750POPC   C4A37326  22.644   4.796   7.720
 2750POPC   C1B37327  23.246   5.051   8.648
 2750POPC   C2B37328  23.032   5.091   8.244
 2750POPC   C3B37329  23.089   5.312   7.852
 2750POPC   C4B37330  23.183   5.547   7.478
 2751POPC   NC337331  20.509  42.659   9.675
 2751POPC   PO437332  20.975  42.221   9.727
 2751POPC   GL137333  20.734  42.318   9.303
 2751POPC   GL237334  20.991  42.498   9.117
 2751POPC   C1A37335  20.599  42.361   8.815
 2751POPC   D2A37336  20.301  42.306   8.457
 2751POPC   C3A37337  20.415  42.373   8.023
 2751POPC   C4A37338  20.204  42.324   7.649
 2751POPC   C1B37339  21.085  42.409   8.665
 2751POPC   C2B37340  21.128  42.586   8.240
 2751POPC   C3B37341  21.003  42.429   7.849
 2751POPC   C4B37342  20.677  42.549   7.591
 2752POPC   NC337343  21.535  34.801   9.600
 2752POPC   PO437344  21.179  34.273   9.508
 2752POPC   GL137345  21.257  34.364   9.095
 2752POPC   GL237346  21.505  34.617   9.120
 2752POPC   C1A37347  21.413  34.349   8.661
 2752POPC   D2A37348  21.602  34.277   8.265
 2752POPC   C3A37349  21.299  34.411   7.937
 2752POPC   C4A37350  21.450  34.521   7.524
 2752POPC   C1B37351  21.576  34.842   8.717
 2752POPC   C2B37352  21.411  34.757   8.300
 2752POPC   C3B37353  21.448  34.906   7.884
 2752POPC   C4B37354  21.746  35.195   7.910
 2753POPC   NC337355   0.085  10.467   9.679
 2753POPC   PO437356   0.742  10.785   9.570
 2753POPC   GL137357   0.590  10.566   9.205
 2753POPC   GL237358   0.275  10.722   9.122
 2753POPC   C1A37359   0.568  10.478   8.759
 2753POPC   D2A37360   0.704  10.533   8.361
 2753POPC   C3A37361   0.612  10.248   8.065
 2753POPC   C4A37362   0.592  10.214   7.630
 2753POPC   C1B37363   0.050  10.625   8.722
 2753POPC   C2B37364   0.161  10.530   8.313
 2753POPC   C3B37365   0.359  10.732   7.998
 2753POPC   C4B37366   0.380  10.680   7.584
 2754POPC   NC337367   0.427  11.138   9.587
 2754POPC   PO437368   0.906  11.500   9.553
 2754POPC   GL137369   0.544  11.548   9.220
 2754POPC   GL237370   0.477  11.200   9.109
 2754POPC   C1A37371   0.242  11.594   8.820
 2754POPC   D2A37372   0.040  11.571   8.351
 2754POPC   C3A37373   0.265  11.754   7.984
 2754POPC   C4A37374   0.619  11.740   7.740
 2754POPC   C1B37375   0.289  11.073   8.762
 2754POPC   C2B37376   0.134  11.050   8.360
 2754POPC   C3B37377   0.324  11.248   8.041
 2754POPC   C4B37378   0.565  11.183   7.704
 2755POPC   NC337379  38.467  12.663   9.489
 2755POPC   PO437380  38.761  13.267   9.628
 2755POPC   GL137381  38.647  13.213   9.187
 2755POPC   GL237382  38.540  12.844   9.018
 2755POPC   C1A37383  38.425  13.284   8.814
 2755POPC   D2A37384  38.343  12.943   8.536
 2755POPC   C3A37385  38.462  12.999   8.122
 2755POPC   C4A37386  38.290  12.842   7.765
 2755POPC   C1B37387  38.836  12.766   8.703
 2755POPC   C2B37388  38.849  12.585   8.306
 2755POPC   C3B37389  38.725  12.607   7.893
 2755POPC   C4B37390  38.765  12.973   7.659
 2756POPC   NC337391  26.652  31.893   9.519
 2756POPC   PO437392  26.771  31.252   9.564
 2756POPC   GL137393  26.767  31.444   9.150
 2756POPC   GL237394  26.486  31.635   9.105
 2756POPC   C1A37395  26.725  31.375   8.684
 2756POPC   D2A37396  26.802  31.422   8.225
 2756POPC   C3A37397  27.096  31.352   7.898
 2756POPC   C4A37398  26.785  31.285   7.537
 2756POPC   C1B37399  26.489  31.913   8.763
 2756POPC   C2B37400  26.819  31.880   8.445
 2756POPC   C3B37401  27.038  31.844   8.057
 2756POPC   C4B37402  26.713  31.730   7.763
 2757POPC   NC337403  37.860  44.813  10.108
 2757POPC   PO437404  37.350  44.688   9.597
 2757POPC   GL137405  37.465  44.865   9.181
 2757POPC   GL237406  37.847  44.889   9.165
 2757POPC   C1A37407  37.589  44.764   8.740
 2757POPC   D2A37408  37.654  44.905   8.320
 2757POPC   C3A37409  37.519  44.620   8.038
 2757POPC   C4A37410  37.287  44.693   7.704
 2757POPC   C1B37411  38.020   0.037   8.744
 2757POPC   C2B37412  38.162  44.888   8.343
 2757POPC   C3B37413  38.000  44.760   7.922
 2757POPC   C4B37414  37.861  44.700   7.477
 2758POPC   NC337415  30.832  39.428   9.629
 2758POPC   PO437416  30.412  39.017   9.521
 2758POPC   GL137417  30.579  39.239   9.220
 2758POPC   GL237418  30.912  39.165   9.206
 2758POPC   C1A37419  30.408  39.235   8.839
 2758POPC   D2A37420  30.559  39.047   8.489
 2758POPC   C3A37421  30.684  39.250   8.106
 2758POPC   C4A37422  30.532  39.322   7.690
 2758POPC   C1B37423  30.899  39.381   8.819
 2758POPC   C2B37424  31.102  39.311   8.422
 2758POPC   C3B37425  31.188  39.080   8.064
 2758POPC   C4B37426  31.024  39.201   7.693
 2759POPC   NC337427  12.456  31.257   9.422
 2759POPC   PO437428  12.965  31.642   9.404
 2759POPC   GL137429  12.746  31.525   9.048
 2759POPC   GL237430  12.852  31.169   9.020
 2759POPC   C1A37431  12.672  31.425   8.611
 2759POPC   D2A37432  12.859  31.045   8.392
 2759POPC   C3A37433  12.732  31.132   7.990
 2759POPC   C4A37434  12.527  31.505   7.824
 2759POPC   C1B37435  13.243  31.039   8.764
 2759POPC   C2B37436  13.422  31.122   8.355
 2759POPC   C3B37437  13.257  31.180   7.917
 2759POPC   C4B37438  13.150  31.323   7.489
 2760POPC   NC337439  37.668  25.959   9.481
 2760POPC   PO437440  37.660  26.540   9.449
 2760POPC   GL137441  37.723  26.262   9.061
 2760POPC   GL237442  37.879  25.897   8.989
 2760POPC   C1A37443  37.498  26.085   8.693
 2760POPC   D2A37444  37.258  26.001   8.333
 2760POPC   C3A37445  37.397  26.002   7.901
 2760POPC   C4A37446  37.491  25.755   7.540
 2760POPC   C1B37447  37.997  26.188   8.629
 2760POPC   C2B37448  37.756  26.262   8.234
 2760POPC   C3B37449  37.884  26.177   7.817
 2760POPC   C4B37450  37.954  25.737   7.806
 2761POPC   NC337451   9.636  36.776   9.445
 2761POPC   PO437452  10.255  37.146   9.368
 2761POPC   GL137453   9.794  37.115   9.086
 2761POPC   GL237454   9.411  36.925   9.024
 2761POPC   C1A37455   9.677  37.046   8.625
 2761POPC   D2A37456   9.739  37.236   8.225
 2761POPC   C3A37457  10.001  37.005   7.908
 2761POPC   C4A37458   9.991  36.982   7.453
 2761POPC   C1B37459   9.205  36.582   8.782
 2761POPC   C2B37460   9.288  36.498   8.381
 2761POPC   C3B37461   9.560  36.765   8.135
 2761POPC   C4B37462   9.523  36.941   7.723
 2762POPC   NC337463   7.156  21.102   9.541
 2762POPC   PO437464   7.054  21.747   9.479
 2762POPC   GL137465   7.391  21.610   9.172
 2762POPC   GL237466   7.764  21.594   9.076
 2762POPC   C1A37467   7.388  21.449   8.742
 2762POPC   D2A37468   7.514  21.317   8.338
 2762POPC   C3A37469   7.269  21.479   8.003
 2762POPC   C4A37470   6.907  21.269   7.777
 2762POPC   C1B37471   7.870  21.273   8.740
 2762POPC   C2B37472   7.925  21.013   8.373
 2762POPC   C3B37473   7.881  21.251   7.996
 2762POPC   C4B37474   7.766  21.632   7.877
 2763POPC   NC337475  17.723  40.320   9.559
 2763POPC   PO437476  17.553  40.956   9.484
 2763POPC   GL137477  17.416  40.831   9.109
 2763POPC   GL237478  17.380  40.506   9.189
 2763POPC   C1A37479  17.375  40.849   8.672
 2763POPC   D2A37480  17.279  41.193   8.381
 2763POPC   C3A37481  17.398  41.048   7.976
 2763POPC   C4A37482  17.267  41.090   7.567
 2763POPC   C1B37483  17.619  40.400   8.824
 2763POPC   C2B37484  17.861  40.505   8.452
 2763POPC   C3B37485  17.880  40.432   7.988
 2763POPC   C4B37486  17.627  40.643   7.653
 2764POPC   NC337487  16.765  34.062   9.272
 2764POPC   PO437488  16.924  33.504   9.439
 2764POPC   GL137489  16.695  33.582   9.078
 2764POPC   GL237490  16.352  33.707   9.178
 2764POPC   C1A37491  16.856  33.720   8.679
 2764POPC   D2A37492  16.849  33.476   8.324
 2764POPC   C3A37493  16.923  33.639   7.948
 2764POPC   C4A37494  16.873  33.996   7.741
 2764POPC   C1B37495  16.357  33.787   8.715
 2764POPC   C2B37496  16.538  33.904   8.284
 2764POPC   C3B37497  16.406  33.782   7.860
 2764POPC   C4B37498  16.636  33.553   7.520
 2765POPC   NC337499  16.341  17.114   9.581
 2765POPC   PO437500  16.132  17.775   9.636
 2765POPC   GL137501  15.990  17.693   9.216
 2765POPC   GL237502  16.075  17.356   9.203
 2765POPC   C1A37503  16.031  17.741   8.777
 2765POPC   D2A37504  16.082  17.501   8.424
 2765POPC   C3A37505  16.029  17.779   8.090
 2765POPC   C4A37506  15.764  17.801   7.763
 2765POPC   C1B37507  15.911  17.190   8.820
 2765POPC   C2B37508  15.805  17.059   8.408
 2765POPC   C3B37509  15.852  17.302   8.022
 2765POPC   C4B37510  15.781  17.244   7.599
 2766POPC   NC337511   3.856  24.524   9.346
 2766POPC   PO437512   3.205  24.542   9.352
 2766POPC   GL137513   3.447  24.498   8.999
 2766POPC   GL237514   3.723  24.762   8.937
 2766POPC   C1A37515   3.206  24.387   8.632
 2766POPC   D2A37516   3.152  24.150   8.278
 2766POPC   C3A37517   3.349  24.356   7.992
 2766POPC   C4A37518   3.288  24.446   7.561
 2766POPC   C1B37519   3.792  24.506   8.608
 2766POPC   C2B37520   3.946  24.725   8.257
 2766POPC   C3B37521   3.781  24.683   7.868
 2766POPC   C4B37522   3.723  24.268   7.680
 2767POPC   NC337523   4.668  37.403   9.451
 2767POPC   PO437524   3.980  37.713   9.593
 2767POPC   GL137525   4.227  37.695   9.248
 2767POPC   GL237526   4.532  37.666   9.060
 2767POPC   C1A37527   4.076  37.583   8.846
 2767POPC   D2A37528   4.074  37.428   8.446
 2767POPC   C3A37529   4.266  37.637   8.142
 2767POPC   C4A37530   4.126  37.500   7.728
 2767POPC   C1B37531   4.804  37.925   8.827
 2767POPC   C2B37532   4.669  37.950   8.403
 2767POPC   C3B37533   4.707  37.959   7.963
 2767POPC   C4B37534   4.620  37.578   7.777
 2768POPC   NC337535  14.190   6.109   9.426
 2768POPC   PO437536  14.425   5.449   9.472
 2768POPC   GL137537  14.447   5.766   9.140
 2768POPC   GL237538  14.799   5.875   9.035
 2768POPC   C1A37539  14.168   5.896   8.786
 2768POPC   D2A37540  13.920   5.955   8.406
 2768POPC   C3A37541  14.082   6.174   8.083
 2768POPC   C4A37542  14.276   6.035   7.757
 2768POPC   C1B37543  14.645   6.040   8.673
 2768POPC   C2B37544  14.485   5.890   8.288
 2768POPC   C3B37545  14.691   5.783   7.891
 2768POPC   C4B37546  14.790   6.097   7.561
 2769POPC   NC337547   8.405  40.959   9.231
 2769POPC   PO437548   7.803  40.801   9.339
 2769POPC   GL137549   7.960  40.661   8.985
 2769POPC   GL237550   8.196  40.475   9.131
 2769POPC   C1A37551   8.155  40.890   8.665
 2769POPC   D2A37552   8.006  40.980   8.316
 2769POPC   C3A37553   8.154  40.767   8.018
 2769POPC   C4A37554   7.969  40.791   7.635
 2769POPC   C1B37555   8.416  40.435   8.755
 2769POPC   C2B37556   8.512  40.497   8.301
 2769POPC   C3B37557   8.489  40.425   7.856
 2769POPC   C4B37558   8.477  40.779   7.596
 2770POPC   NC337559  24.328  44.391   9.240
 2770POPC   PO437560  24.669  44.836   9.621
 2770POPC   GL137561  24.801  44.682   9.220
 2770POPC   GL237562  24.874  44.367   9.065
 2770POPC   C1A37563  24.722  44.819   8.795
 2770POPC   D2A37564  24.415  44.930   8.486
 2770POPC   C3A37565  24.287  44.653   8.159
 2770POPC   C4A37566  24.366  44.681   7.714
 2770POPC   C1B37567  24.621  44.331   8.693
 2770POPC   C2B37568  24.752  44.499   8.345
 2770POPC   C3B37569  24.675  44.343   7.967
 2770POPC   C4B37570  24.315  44.141   7.807
 2771POPC   NC337571  42.517  17.042   9.420
 2771POPC   PO437572  42.294  17.608   9.656
 2771POPC   GL137573  42.221  17.601   9.201
 2771POPC   GL237574  42.137  17.287   9.099
 2771POPC   C1A37575  42.351  17.627   8.771
 2771POPC   D2A37576  42.317  17.294   8.450
 2771POPC   C3A37577  42.343  17.437   8.027
 2771POPC   C4A37578  42.325  17.862   7.946
 2771POPC   C1B37579  41.913  17.089   8.771
 2771POPC   C2B37580  41.809  17.219   8.322
 2771POPC   C3B37581  41.884  17.257   7.858
 2771POPC   C4B37582  41.963  17.195   7.414
 2772POPC   NC337583  38.239  19.418   9.440
 2772POPC   PO437584  38.579  18.891   9.539
 2772POPC   GL137585  38.472  19.051   9.136
 2772POPC   GL237586  38.807  18.996   9.031
 2772POPC   C1A37587  38.337  19.335   8.783
 2772POPC   D2A37588  38.150  19.402   8.369
 2772POPC   C3A37589  38.284  19.089   8.085
 2772POPC   C4A37590  38.600  19.029   7.749
 2772POPC   C1B37591  38.687  18.770   8.674
 2772POPC   C2B37592  38.685  18.808   8.235
 2772POPC   C3B37593  38.981  18.735   7.921
 2772POPC   C4B37594  38.915  18.721   7.497
 2773POPC   NC337595  35.644  26.680   9.869
 2773POPC   PO437596  35.253  26.985   9.391
 2773POPC   GL137597  35.267  26.540   9.190
 2773POPC   GL237598  35.382  26.746   8.934
 2773POPC   C1A37599  35.079  26.413   8.757
 2773POPC   D2A37600  35.256  26.637   8.393
 2773POPC   C3A37601  35.140  26.502   8.000
 2773POPC   C4A37602  35.110  26.689   7.624
 2773POPC   C1B37603  35.526  27.088   8.715
 2773POPC   C2B37604  35.351  27.203   8.347
 2773POPC   C3B37605  35.388  26.980   7.972
 2773POPC   C4B37606  35.743  26.949   7.707
 2774POPC   NC337607   3.502  29.711   9.492
 2774POPC   PO437608   3.939  30.155   9.429
 2774POPC   GL137609   3.743  29.956   9.075
 2774POPC   GL237610   3.379  29.833   9.031
 2774POPC   C1A37611   3.836  29.823   8.662
 2774POPC   D2A37612   3.679  29.947   8.278
 2774POPC   C3A37613   3.682  29.663   7.974
 2774POPC   C4A37614   3.635  29.946   7.681
 2774POPC   C1B37615   3.397  30.088   8.691
 2774POPC   C2B37616   3.162  29.989   8.354
 2774POPC   C3B37617   3.203  29.844   7.975
 2774POPC   C4B37618   3.140  30.037   7.596
 2775POPC   NC337619   5.122  34.275   9.491
 2775POPC   PO437620   5.036  34.937   9.483
 2775POPC   GL137621   4.939  34.811   9.083
 2775POPC   GL237622   5.114  34.499   9.047
 2775POPC   C1A37623   4.990  34.734   8.625
 2775POPC   D2A37624   5.112  35.017   8.316
 2775POPC   C3A37625   4.984  34.836   7.951
 2775POPC   C4A37626   4.868  34.459   7.782
 2775POPC   C1B37627   5.473  34.379   8.792
 2775POPC   C2B37628   5.634  34.355   8.356
 2775POPC   C3B37629   5.382  34.500   8.030
 2775POPC   C4B37630   5.261  34.108   7.842
 2776POPC   NC337631  31.862   6.779   9.222
 2776POPC   PO437632  31.605   6.450   9.769
 2776POPC   GL137633  31.415   6.581   9.223
 2776POPC   GL237634  31.269   6.876   9.076
 2776POPC   C1A37635  31.538   6.718   8.692
 2776POPC   D2A37636  31.483   6.512   8.292
 2776POPC   C3A37637  31.761   6.569   7.934
 2776POPC   C4A37638  31.785   6.968   7.732
 2776POPC   C1B37639  31.124   6.465   8.812
 2776POPC   C2B37640  30.970   6.292   8.408
 2776POPC   C3B37641  31.116   6.359   7.976
 2776POPC   C4B37642  31.314   6.720   7.784
 2777POPC   NC337643  43.349   1.318   9.565
 2777POPC   PO437644  42.734   1.096   9.517
 2777POPC   GL137645  42.984   1.154   9.168
 2777POPC   GL237646  43.324   0.999   9.166
 2777POPC   C1A37647  42.876   1.377   8.803
 2777POPC   D2A37648  42.878   1.526   8.387
 2777POPC   C3A37649  42.791   1.223   8.066
 2777POPC   C4A37650  43.087   1.199   7.767
 2777POPC   C1B37651  43.379   1.301   8.823
 2777POPC   C2B37652  43.389   1.311   8.374
 2777POPC   C3B37653  43.559   1.212   7.968
 2777POPC   C4B37654  43.508   1.010   7.547
 2778POPC   NC337655  10.124   3.212   9.567
 2778POPC   PO437656   9.600   2.752   9.531
 2778POPC   GL137657   9.604   2.931   9.125
 2778POPC   GL237658   9.896   3.137   9.114
 2778POPC   C1A37659   9.750   2.760   8.741
 2778POPC   D2A37660   9.565   2.738   8.348
 2778POPC   C3A37661   9.634   2.446   8.004
 2778POPC   C4A37662   9.777   2.484   7.586
 2778POPC   C1B37663  10.105   3.119   8.718
 2778POPC   C2B37664  10.082   2.835   8.355
 2778POPC   C3B37665   9.904   2.877   7.953
 2778POPC   C4B37666  10.008   2.979   7.558
 2779POPC   NC337667  10.228  21.208   9.518
 2779POPC   PO437668  10.358  21.867   9.501
 2779POPC   GL137669  10.339  21.554   9.142
 2779POPC   GL237670  10.590  21.285   9.143
 2779POPC   C1A37671  10.327  21.419   8.705
 2779POPC   D2A37672  10.542  21.216   8.345
 2779POPC   C3A37673  10.426  21.461   8.017
 2779POPC   C4A37674  10.187  21.392   7.676
 2779POPC   C1B37675  10.840  21.289   8.757
 2779POPC   C2B37676  11.044  21.349   8.340
 2779POPC   C3B37677  10.899  21.229   7.930
 2779POPC   C4B37678  10.688  21.308   7.524
 2780POPC   NC337679  38.322  32.720   9.432
 2780POPC   PO437680  38.336  33.411   9.450
 2780POPC   GL137681  38.373  33.216   9.066
 2780POPC   GL237682  38.646  32.963   9.115
 2780POPC   C1A37683  38.383  33.395   8.617
 2780POPC   D2A37684  38.268  33.125   8.270
 2780POPC   C3A37685  38.221  33.280   7.834
 2780POPC   C4A37686  38.518  33.207   7.491
 2780POPC   C1B37687  38.554  32.905   8.678
 2780POPC   C2B37688  38.573  32.704   8.266
 2780POPC   C3B37689  38.348  32.765   7.853
 2780POPC   C4B37690  38.281  32.430   7.515
 2781POPC   NC337691  27.215   4.032   9.419
 2781POPC   PO437692  27.072   4.645   9.641
 2781POPC   GL137693  26.741   4.577   9.268
 2781POPC   GL237694  26.363   4.597   9.314
 2781POPC   C1A37695  26.803   4.469   8.812
 2781POPC   D2A37696  26.813   4.078   8.514
 2781POPC   C3A37697  26.938   4.056   8.058
 2781POPC   C4A37698  26.721   4.144   7.660
 2781POPC   C1B37699  26.309   4.651   8.850
 2781POPC   C2B37700  26.431   4.433   8.470
 2781POPC   C3B37701  26.468   4.381   8.046
 2781POPC   C4B37702  26.529   4.636   7.690
 2782POPC   NC337703   0.812   3.214   9.560
 2782POPC   PO437704   0.209   3.577   9.502
 2782POPC   GL137705   0.530   3.532   9.177
 2782POPC   GL237706   0.594   3.869   9.034
 2782POPC   C1A37707   0.680   3.441   8.750
 2782POPC   D2A37708   0.849   3.656   8.358
 2782POPC   C3A37709   0.640   3.600   7.946
 2782POPC   C4A37710   0.342   3.332   7.831
 2782POPC   C1B37711   0.231   3.679   8.759
 2782POPC   C2B37712   0.258   3.580   8.307
 2782POPC   C3B37713   0.144   3.794   7.906
 2782POPC   C4B37714  44.985   3.705   7.495
 2783POPC   NC337715   4.549  24.917   9.504
 2783POPC   PO437716   4.150  24.436   9.687
 2783POPC   GL137717   4.281  24.429   9.121
 2783POPC   GL237718   4.585  24.611   9.095
 2783POPC   C1A37719   4.293  24.564   8.683
 2783POPC   D2A37720   4.595  24.534   8.388
 2783POPC   C3A37721   4.395  24.608   8.020
 2783POPC   C4A37722   4.190  24.382   7.748
 2783POPC   C1B37723   4.640  24.206   8.846
 2783POPC   C2B37724   4.588  24.017   8.455
 2783POPC   C3B37725   4.578  24.144   8.036
 2783POPC   C4B37726   4.671  24.373   7.624
 2784POPC   NC337727  11.836  42.665   9.551
 2784POPC   PO437728  12.129  43.233   9.701
 2784POPC   GL137729  12.066  43.041   9.296
 2784POPC   GL237730  12.364  42.982   9.137
 2784POPC   C1A37731  11.952  43.045   8.854
 2784POPC   D2A37732  12.005  43.354   8.547
 2784POPC   C3A37733  12.171  43.268   8.154
 2784POPC   C4A37734  11.921  43.087   7.819
 2784POPC   C1B37735  12.436  42.881   8.725
 2784POPC   C2B37736  12.274  42.774   8.332
 2784POPC   C3B37737  12.312  42.804   7.939
 2784POPC   C4B37738  12.406  43.180   7.709
 2785POPC   NC337739  21.247   0.160   9.449
 2785POPC   PO437740  21.879   0.458   9.454
 2785POPC   GL137741  21.507   0.504   9.153
 2785POPC   GL237742  21.364   0.846   9.117
 2785POPC   C1A37743  21.280   0.296   8.801
 2785POPC   D2A37744  21.436   0.036   8.468
 2785POPC   C3A37745  21.505   0.157   8.066
 2785POPC   C4A37746  21.262   0.211   7.681
 2785POPC   C1B37747  21.148   0.801   8.716
 2785POPC   C2B37748  21.334   0.562   8.362
 2785POPC   C3B37749  21.468   0.626   7.933
 2785POPC   C4B37750  21.107   0.690   7.675
 2786POPC   NC337751  15.506  41.454   9.537
 2786POPC   PO437752  16.054  41.916   9.554
 2786POPC   GL137753  15.711  41.817   9.203
 2786POPC   GL237754  15.817  41.469   9.141
 2786POPC   C1A37755  15.528  41.643   8.769
 2786POPC   D2A37756  15.641  41.437   8.340
 2786POPC   C3A37757  15.668  41.746   7.985
 2786POPC   C4A37758  15.811  41.692   7.534
 2786POPC   C1B37759  15.976  41.375   8.733
 2786POPC   C2B37760  16.198  41.469   8.354
 2786POPC   C3B37761  16.124  41.558   7.939
 2786POPC   C4B37762  16.342  41.712   7.619
 2787POPC   NC337763  31.188  37.847   9.717
 2787POPC   PO437764  30.670  37.580   9.317
 2787POPC   GL137765  30.759  37.739   8.953
 2787POPC   GL237766  30.633  38.040   9.014
 2787POPC   C1A37767  31.006  37.596   8.632
 2787POPC   D2A37768  30.692  37.498   8.370
 2787POPC   C3A37769  30.850  37.621   8.026
 2787POPC   C4A37770  30.727  37.761   7.681
 2787POPC   C1B37771  30.443  37.972   8.612
 2787POPC   C2B37772  30.405  37.929   8.173
 2787POPC   C3B37773  30.597  38.213   7.897
 2787POPC   C4B37774  30.903  38.241   7.566
 2788POPC   NC337775  14.368   4.540   9.723
 2788POPC   PO437776  13.997   4.063   9.482
 2788POPC   GL137777  14.203   4.397   9.229
 2788POPC   GL237778  14.559   4.438   9.161
 2788POPC   C1A37779  14.184   4.471   8.780
 2788POPC   D2A37780  14.025   4.401   8.378
 2788POPC   C3A37781  14.198   4.570   8.025
 2788POPC   C4A37782  14.465   4.445   7.744
 2788POPC   C1B37783  14.667   4.291   8.721
 2788POPC   C2B37784  14.617   4.295   8.240
 2788POPC   C3B37785  14.714   4.043   7.877
 2788POPC   C4B37786  14.654   4.129   7.409
 2789POPC   NC337787   6.890  24.946   9.462
 2789POPC   PO437788   6.446  25.411   9.534
 2789POPC   GL137789   6.697  25.323   9.173
 2789POPC   GL237790   6.654  24.981   9.032
 2789POPC   C1A37791   6.817  25.392   8.754
 2789POPC   D2A37792   6.877  25.141   8.411
 2789POPC   C3A37793   6.730  25.363   8.071
 2789POPC   C4A37794   6.801  25.434   7.662
 2789POPC   C1B37795   6.450  24.962   8.676
 2789POPC   C2B37796   6.369  25.065   8.273
 2789POPC   C3B37797   6.484  24.940   7.891
 2789POPC   C4B37798   6.564  25.023   7.470
 2790POPC   NC337799   0.769   0.379   9.349
 2790POPC   PO437800   0.111   0.361   9.469
 2790POPC   GL137801   0.311   0.554   9.132
 2790POPC   GL237802   0.485   0.855   9.235
 2790POPC   C1A37803   0.478   0.465   8.722
 2790POPC   D2A37804   0.271   0.387   8.338
 2790POPC   C3A37805   0.491   0.109   8.122
 2790POPC   C4A37806   0.652   0.144   7.724
 2790POPC   C1B37807   0.318   0.952   8.809
 2790POPC   C2B37808   0.427   0.888   8.376
 2790POPC   C3B37809   0.288   0.948   7.938
 2790POPC   C4B37810   0.445   0.612   7.687
 2791POPC   NC337811  17.419  24.677   9.210
 2791POPC   PO437812  17.930  24.489   9.520
 2791POPC   GL137813  17.846  24.368   9.141
 2791POPC   GL237814  17.525  24.181   9.143
 2791POPC   C1A37815  17.846  24.637   8.753
 2791POPC   D2A37816  17.547  24.550   8.431
 2791POPC   C3A37817  17.576  24.601   7.980
 2791POPC   C4A37818  17.241  24.558   7.684
 2791POPC   C1B37819  17.688  24.140   8.707
 2791POPC   C2B37820  17.700  24.083   8.254
 2791POPC   C3B37821  17.426  24.114   7.907
 2791POPC   C4B37822  17.224  24.052   7.519
 2792POPC   NC337823   1.316  37.172   9.506
 2792POPC   PO437824   1.814  36.832   9.818
 2792POPC   GL137825   1.646  36.783   9.314
 2792POPC   GL237826   1.253  36.841   9.135
 2792POPC   C1A37827   1.638  36.890   8.845
 2792POPC   D2A37828   1.236  36.801   8.593
 2792POPC   C3A37829   1.225  36.859   8.173
 2792POPC   C4A37830   1.498  36.847   7.887
 2792POPC   C1B37831   1.204  37.240   8.832
 2792POPC   C2B37832   1.051  37.306   8.361
 2792POPC   C3B37833   0.918  37.136   7.884
 2792POPC   C4B37834   0.820  37.082   7.392
 2793POPC   NC337835  15.366   0.228   9.545
 2793POPC   PO437836  14.906   0.700   9.639
 2793POPC   GL137837  15.041   0.642   9.177
 2793POPC   GL237838  15.404   0.561   9.155
 2793POPC   C1A37839  15.105   0.488   8.754
 2793POPC   D2A37840  15.149   0.204   8.419
 2793POPC   C3A37841  15.010   0.391   8.031
 2793POPC   C4A37842  14.772   0.686   7.762
 2793POPC   C1B37843  15.455   0.147   8.897
 2793POPC   C2B37844  15.647   0.051   8.500
 2793POPC   C3B37845  15.601   0.392   8.208
 2793POPC   C4B37846  15.462   0.466   7.803
 2794POPC   NC337847  40.645  25.155   9.535
 2794POPC   PO437848  41.278  25.393   9.665
 2794POPC   GL137849  41.013  25.479   9.232
 2794POPC   GL237850  40.710  25.270   9.055
 2794POPC   C1A37851  40.784  25.723   8.877
 2794POPC   D2A37852  40.555  25.640   8.503
 2794POPC   C3A37853  40.830  25.577   8.163
 2794POPC   C4A37854  40.823  25.323   7.792
 2794POPC   C1B37855  40.873  25.261   8.623
 2794POPC   C2B37856  40.837  25.030   8.221
 2794POPC   C3B37857  40.538  24.906   7.893
 2794POPC   C4B37858  40.501  25.103   7.442
 2795POPC   NC337859  20.515   6.937   9.474
 2795POPC   PO437860  20.931   6.312   9.460
 2795POPC   GL137861  20.825   6.569   9.079
 2795POPC   GL237862  20.843   6.956   9.079
 2795POPC   C1A37863  20.589   6.459   8.672
 2795POPC   D2A37864  20.375   6.422   8.256
 2795POPC   C3A37865  20.446   6.572   7.820
 2795POPC   C4A37866  20.401   6.293   7.423
 2795POPC   C1B37867  20.589   6.959   8.683
 2795POPC   C2B37868  20.486   6.922   8.237
 2795POPC   C3B37869  20.698   7.068   7.864
 2795POPC   C4B37870  20.924   7.080   7.474
 2796POPC   NC337871  10.084   7.690   9.261
 2796POPC   PO437872  10.577   7.256   9.459
 2796POPC   GL137873  10.475   7.381   9.054
 2796POPC   GL237874  10.548   7.742   9.008
 2796POPC   C1A37875  10.691   7.400   8.647
 2796POPC   D2A37876  10.650   7.643   8.259
 2796POPC   C3A37877  10.810   7.360   7.939
 2796POPC   C4A37878  10.629   7.198   7.556
 2796POPC   C1B37879  10.247   7.626   8.643
 2796POPC   C2B37880  10.254   7.325   8.293
 2796POPC   C3B37881  10.268   7.461   7.841
 2796POPC   C4B37882  10.051   7.764   7.541
 2797POPC   NC337883  14.307  18.265   9.692
 2797POPC   PO437884  14.871  18.501   9.550
 2797POPC   GL137885  14.609  18.206   9.242
 2797POPC   GL237886  14.271  18.325   9.188
 2797POPC   C1A37887  14.410  17.975   8.851
 2797POPC   D2A37888  14.192  17.984   8.431
 2797POPC   C3A37889  14.418  18.093   8.061
 2797POPC   C4A37890  14.527  18.207   7.659
 2797POPC   C1B37891  14.136  18.419   8.738
 2797POPC   C2B37892  14.149  18.509   8.274
 2797POPC   C3B37893  14.159  18.552   7.810
 2797POPC   C4B37894  14.440  18.701   7.474
 2798POPC   NC337895   9.167  13.403   9.404
 2798POPC   PO437896   8.682  13.875   9.648
 2798POPC   GL137897   8.796  13.745   9.250
 2798POPC   GL237898   9.147  13.859   9.168
 2798POPC   C1A37899   8.786  13.720   8.810
 2798POPC   D2A37900   8.937  13.971   8.446
 2798POPC   C3A37901   8.887  13.853   7.985
 2798POPC   C4A37902   8.980  13.773   7.508
 2798POPC   C1B37903   9.277  13.667   8.753
 2798POPC   C2B37904   9.183  13.515   8.341
 2798POPC   C3B37905   9.218  13.488   7.894
 2798POPC   C4B37906   9.256  13.340   7.515
 2799POPC   NC337907   0.125  18.948   9.578
 2799POPC   PO437908   0.605  19.357   9.505
 2799POPC   GL137909   0.413  19.116   9.159
 2799POPC   GL237910   0.277  19.493   9.136
 2799POPC   C1A37911   0.452  18.910   8.704
 2799POPC   D2A37912   0.326  18.665   8.286
 2799POPC   C3A37913   0.389  18.758   7.829
 2799POPC   C4A37914   0.284  18.567   7.391
 2799POPC   C1B37915   0.515  19.412   8.768
 2799POPC   C2B37916   0.480  19.293   8.347
 2799POPC   C3B37917   0.614  19.219   7.960
 2799POPC   C4B37918   0.359  19.329   7.653
 2800POPC   NC337919  37.910  16.962   9.575
 2800POPC   PO437920  37.302  16.605   9.494
 2800POPC   GL137921  37.667  16.557   9.220
 2800POPC   GL237922  37.678  16.899   9.125
 2800POPC   C1A37923  37.826  16.572   8.770
 2800POPC   D2A37924  37.548  16.517   8.396
 2800POPC   C3A37925  37.732  16.534   7.962
 2800POPC   C4A37926  37.804  16.796   7.548
 2800POPC   C1B37927  37.430  16.939   8.740
 2800POPC   C2B37928  37.496  17.026   8.313
 2800POPC   C3B37929  37.879  17.022   8.035
 2800POPC   C4B37930  38.035  17.231   7.673
 2801POPC   NC337931  43.120  15.027   9.694
 2801POPC   PO437932  42.836  15.606   9.485
 2801POPC   GL137933  42.881  15.279   9.195
 2801POPC   GL237934  42.631  15.356   9.037
 2801POPC   C1A37935  43.147  15.148   8.836
 2801POPC   D2A37936  43.312  15.279   8.439
 2801POPC   C3A37937  43.235  15.112   8.027
 2801POPC   C4A37938  43.322  15.466   7.768
 2801POPC   C1B37939  42.662  15.029   8.764
 2801POPC   C2B37940  42.866  14.967   8.370
 2801POPC   C3B37941  42.725  15.205   7.998
 2801POPC   C4B37942  42.926  15.195   7.606
 2802POPC   NC337943  23.197  17.383   9.431
 2802POPC   PO437944  22.574  17.381   9.461
 2802POPC   GL137945  22.796  17.250   9.113
 2802POPC   GL237946  22.900  17.588   9.075
 2802POPC   C1A37947  23.083  17.236   8.749
 2802POPC   D2A37948  22.856  17.412   8.403
 2802POPC   C3A37949  22.904  17.239   8.001
 2802POPC   C4A37950  22.833  17.250   7.574
 2802POPC   C1B37951  23.127  17.744   8.750
 2802POPC   C2B37952  23.201  17.816   8.338
 2802POPC   C3B37953  22.966  17.748   8.013
 2802POPC   C4B37954  22.997  17.726   7.601
 2803POPC   NC337955  17.055  42.534   9.449
 2803POPC   PO437956  16.688  42.069   9.637
 2803POPC   GL137957  16.577  42.088   9.193
 2803POPC   GL237958  16.959  42.077   9.184
 2803POPC   C1A37959  16.452  42.268   8.779
 2803POPC   D2A37960  16.675  42.568   8.510
 2803POPC   C3A37961  16.687  42.441   8.083
 2803POPC   C4A37962  16.480  42.186   7.772
 2803POPC   C1B37963  16.961  42.215   8.790
 2803POPC   C2B37964  17.086  42.243   8.389
 2803POPC   C3B37965  17.203  42.351   8.002
 2803POPC   C4B37966  16.968  42.297   7.666
 2804POPC   NC337967  44.716  14.257   9.469
 2804POPC   PO437968  44.316  14.819   9.480
 2804POPC   GL137969  44.589  14.622   9.148
 2804POPC   GL237970  44.972  14.568   9.127
 2804POPC   C1A37971  44.637  14.415   8.759
 2804POPC   D2A37972  44.475  14.173   8.430
 2804POPC   C3A37973  44.429  14.464   8.099
 2804POPC   C4A37974  44.423  14.289   7.711
 2804POPC   C1B37975   0.144  14.319   8.805
 2804POPC   C2B37976   0.000  14.266   8.388
 2804POPC   C3B37977  44.872  14.221   7.980
 2804POPC   C4B37978  44.880  14.536   7.666
 2805POPC   NC337979  33.214  28.891   9.553
 2805POPC   PO437980  32.820  29.424   9.421
 2805POPC   GL137981  33.001  29.129   9.119
 2805POPC   GL237982  32.946  28.772   9.124
 2805POPC   C1A37983  33.174  29.231   8.733
 2805POPC   D2A37984  33.036  29.534   8.449
 2805POPC   C3A37985  33.163  29.458   8.043
 2805POPC   C4A37986  33.102  29.392   7.617
 2805POPC   C1B37987  33.230  28.725   8.754
 2805POPC   C2B37988  33.171  28.912   8.305
 2805POPC   C3B37989  33.136  28.894   7.829
 2805POPC   C4B37990  33.294  28.620   7.469
 2806POPC   NC337991   4.536   4.658   9.477
 2806POPC   PO437992   4.183   5.258   9.486
 2806POPC   GL137993   4.262   5.225   9.103
 2806POPC   GL237994   4.057   5.544   9.059
 2806POPC   C1A37995   4.378   4.960   8.751
 2806POPC   D2A37996   4.494   5.075   8.330
 2806POPC   C3A37997   4.291   4.880   7.968
 2806POPC   C4A37998   4.481   4.720   7.581
 2806POPC   C1B37999   3.965   5.255   8.715
 2806POPC   C2B38000   3.986   5.014   8.373
 2806POPC   C3B38001   3.944   5.277   8.040
 2806POPC   C4B38002   4.081   5.239   7.641
 2807POPC   NC338003  32.876  19.411   9.447
 2807POPC   PO438004  33.395  18.855   9.545
 2807POPC   GL138005  33.270  18.992   9.127
 2807POPC   GL238006  32.975  19.113   9.058
 2807POPC   C1A38007  33.322  19.087   8.695
 2807POPC   D2A38008  33.054  19.029   8.351
 2807POPC   C3A38009  33.272  19.144   7.997
 2807POPC   C4A38010  33.157  19.421   7.659
 2807POPC   C1B38011  32.756  18.913   8.764
 2807POPC   C2B38012  32.544  18.868   8.429
 2807POPC   C3B38013  32.593  19.096   8.083
 2807POPC   C4B38014  32.830  19.058   7.740
 2808POPC   NC338015  24.819  12.634   9.527
 2808POPC   PO438016  24.282  12.990   9.715
 2808POPC   GL138017  24.273  12.978   9.271
 2808POPC   GL238018  24.613  12.970   9.185
 2808POPC   C1A38019  24.230  12.860   8.840
 2808POPC   D2A38020  24.423  12.917   8.434
 2808POPC   C3A38021  24.201  12.838   8.022
 2808POPC   C4A38022  24.240  12.823   7.574
 2808POPC   C1B38023  24.849  13.133   8.838
 2808POPC   C2B38024  24.907  13.138   8.387
 2808POPC   C3B38025  24.703  12.978   8.010
 2808POPC   C4B38026  24.770  13.022   7.586
 2809POPC   NC338027  36.266  14.982   9.612
 2809POPC   PO438028  36.188  15.636   9.501
 2809POPC   GL138029  36.215  15.390   9.140
 2809POPC   GL238030  36.444  15.117   9.119
 2809POPC   C1A38031  36.139  15.276   8.720
 2809POPC   D2A38032  35.873  15.252   8.368
 2809POPC   C3A38033  36.110  15.338   8.032
 2809POPC   C4A38034  36.237  15.237   7.664
 2809POPC   C1B38035  36.453  14.865   8.724
 2809POPC   C2B38036  36.267  14.909   8.332
 2809POPC   C3B38037  36.373  14.838   7.940
 2809POPC   C4B38038  36.610  14.856   7.576
 2810POPC   NC338039  42.412   3.341   9.394
 2810POPC   PO438040  41.898   3.829   9.562
 2810POPC   GL138041  42.072   3.717   9.172
 2810POPC   GL238042  41.956   3.405   9.054
 2810POPC   C1A38043  42.118   3.792   8.728
 2810POPC   D2A38044  42.403   3.702   8.402
 2810POPC   C3A38045  42.193   3.705   8.019
 2810POPC   C4A38046  42.370   3.806   7.624
 2810POPC   C1B38047  42.260   3.296   8.718
 2810POPC   C2B38048  42.284   3.198   8.283
 2810POPC   C3B38049  42.416   3.292   7.825
 2810POPC   C4B38050  42.542   3.316   7.415
 2811POPC   NC338051   5.907  33.713   9.492
 2811POPC   PO438052   6.374  34.139   9.426
 2811POPC   GL138053   6.083  34.023   9.080
 2811POPC   GL238054   5.765  33.790   9.015
 2811POPC   C1A38055   5.929  34.123   8.689
 2811POPC   D2A38056   5.883  33.793   8.392
 2811POPC   C3A38057   5.660  33.821   8.027
 2811POPC   C4A38058   5.864  33.800   7.642
 2811POPC   C1B38059   5.578  33.504   8.680
 2811POPC   C2B38060   5.468  33.318   8.249
 2811POPC   C3B38061   5.548  33.381   7.762
 2811POPC   C4B38062   5.608  33.517   7.299
 2812POPC   NC338063  43.671  20.733   9.779
 2812POPC   PO438064  43.689  20.373   9.255
 2812POPC   GL138065  43.816  20.715   9.085
 2812POPC   GL238066  44.132  20.686   9.084
 2812POPC   C1A38067  43.721  20.780   8.669
 2812POPC   D2A38068  43.745  20.505   8.331
 2812POPC   C3A38069  43.696  20.713   7.957
 2812POPC   C4A38070  43.666  20.464   7.618
 2812POPC   C1B38071  44.113  20.441   8.711
 2812POPC   C2B38072  44.252  20.638   8.334
 2812POPC   C3B38073  44.194  20.653   7.905
 2812POPC   C4B38074  44.359  20.403   7.623
 2813POPC   NC338075  37.657  11.934   9.441
 2813POPC   PO438076  37.584  11.243   9.642
 2813POPC   GL138077  37.601  11.219   9.229
 2813POPC   GL238078  37.889  11.468   9.267
 2813POPC   C1A38079  37.649  10.962   8.837
 2813POPC   D2A38080  37.866  11.095   8.484
 2813POPC   C3A38081  37.669  11.036   8.097
 2813POPC   C4A38082  37.785  11.195   7.725
 2813POPC   C1B38083  37.749  11.545   8.862
 2813POPC   C2B38084  37.907  11.602   8.483
 2813POPC   C3B38085  37.789  11.571   8.069
 2813POPC   C4B38086  37.912  11.735   7.705
 2814POPC   NC338087  13.464  10.919   9.431
 2814POPC   PO438088  13.098  11.527   9.488
 2814POPC   GL138089  13.329  11.352   9.121
 2814POPC   GL238090  13.238  11.000   9.006
 2814POPC   C1A38091  13.525  11.478   8.714
 2814POPC   D2A38092  13.507  11.682   8.283
 2814POPC   C3A38093  13.660  11.461   7.934
 2814POPC   C4A38094  13.719  11.525   7.487
 2814POPC   C1B38095  13.262  11.034   8.569
 2814POPC   C2B38096  13.549  11.046   8.240
 2814POPC   C3B38097  13.681  10.928   7.823
 2814POPC   C4B38098  13.720  11.027   7.366
 2815POPC   NC338099  15.854  28.989   9.548
 2815POPC   PO438100  15.580  29.476   9.462
 2815POPC   GL138101  15.694  29.243   9.094
 2815POPC   GL238102  15.694  28.883   9.080
 2815POPC   C1A38103  15.969  29.181   8.718
 2815POPC   D2A38104  16.041  29.333   8.288
 2815POPC   C3A38105  16.292  29.252   7.926
 2815POPC   C4A38106  16.362  29.444   7.493
 2815POPC   C1B38107  15.511  28.960   8.691
 2815POPC   C2B38108  15.672  28.936   8.284
 2815POPC   C3B38109  15.767  29.086   7.875
 2815POPC   C4B38110  15.706  28.885   7.453
 2816POPC   NC338111  40.483   9.383   9.418
 2816POPC   PO438112  40.654   8.711   9.411
 2816POPC   GL138113  40.809   9.057   9.169
 2816POPC   GL238114  40.702   8.860   8.904
 2816POPC   C1A38115  40.986   9.256   8.783
 2816POPC   D2A38116  41.064   9.218   8.360
 2816POPC   C3A38117  40.748   9.111   8.041
 2816POPC   C4A38118  40.940   9.141   7.617
 2816POPC   C1B38119  40.543   9.054   8.541
 2816POPC   C2B38120  40.451   8.702   8.288
 2816POPC   C3B38121  40.349   8.518   7.932
 2816POPC   C4B38122  40.663   8.714   7.734
 2817POPC   NC338123  43.936  44.654   9.614
 2817POPC   PO438124  43.648   0.156   9.294
 2817POPC   GL138125  43.988  44.871   9.166
 2817POPC   GL238126  43.975  44.468   9.153
 2817POPC   C1A38127  44.118  44.771   8.782
 2817POPC   D2A38128  44.012   0.020   8.505
 2817POPC   C3A38129  43.959  44.783   8.149
 2817POPC   C4A38130  43.882  44.830   7.747
 2817POPC   C1B38131  43.766  44.356   8.748
 2817POPC   C2B38132  43.682  44.200   8.309
 2817POPC   C3B38133  43.750  44.351   7.886
 2817POPC   C4B38134  43.962  44.217   7.498
 2818POPC   NC338135   3.594  26.814   9.974
 2818POPC   PO438136   3.150  26.820   9.403
 2818POPC   GL138137   3.475  26.977   9.040
 2818POPC   GL238138   3.904  26.927   9.105
 2818POPC   C1A38139   3.426  26.990   8.582
 2818POPC   D2A38140   3.289  26.716   8.265
 2818POPC   C3A38141   3.121  26.979   7.982
 2818POPC   C4A38142   3.176  27.025   7.567
 2818POPC   C1B38143   3.848  26.737   8.707
 2818POPC   C2B38144   3.828  26.814   8.271
 2818POPC   C3B38145   3.665  26.693   7.870
 2818POPC   C4B38146   3.952  26.660   7.484
 2819POPC   NC338147  28.315  25.773   9.492
 2819POPC   PO438148  28.033  26.312   9.149
 2819POPC   GL138149  28.361  26.038   9.040
 2819POPC   GL238150  28.531  25.683   9.045
 2819POPC   C1A38151  28.236  25.867   8.644
 2819POPC   D2A38152  28.351  26.039   8.263
 2819POPC   C3A38153  28.174  26.411   8.102
 2819POPC   C4A38154  28.054  26.210   7.738
 2819POPC   C1B38155  28.736  25.926   8.704
 2819POPC   C2B38156  28.896  25.931   8.300
 2819POPC   C3B38157  28.702  25.951   7.907
 2819POPC   C4B38158  28.566  26.221   7.621
 2820POPC   NC338159  28.152   8.706   9.301
 2820POPC   PO438160  28.329   8.175   9.722
 2820POPC   GL138161  28.420   8.251   9.247
 2820POPC   GL238162  28.690   7.986   9.187
 2820POPC   C1A38163  28.226   8.306   8.789
 2820POPC   D2A38164  28.270   8.062   8.393
 2820POPC   C3A38165  28.222   8.268   7.977
 2820POPC   C4A38166  28.328   8.156   7.533
 2820POPC   C1B38167  28.684   7.764   8.784
 2820POPC   C2B38168  28.743   7.876   8.342
 2820POPC   C3B38169  28.488   7.819   7.977
 2820POPC   C4B38170  28.709   7.841   7.589
 2821POPC   NC338171  40.465   8.095   9.392
 2821POPC   PO438172  39.854   8.434   9.505
 2821POPC   GL138173  40.057   8.332   9.136
 2821POPC   GL238174  40.349   8.494   9.068
 2821POPC   C1A38175  39.948   8.297   8.720
 2821POPC   D2A38176  39.998   8.430   8.308
 2821POPC   C3A38177  39.868   8.116   7.999
 2821POPC   C4A38178  39.591   7.940   7.687
 2821POPC   C1B38179  40.464   8.358   8.661
 2821POPC   C2B38180  40.467   8.127   8.242
 2821POPC   C3B38181  40.318   8.026   7.792
 2821POPC   C4B38182  40.142   7.872   7.393
 2822POPC   NC338183  17.127  39.002   9.353
 2822POPC   PO438184  17.762  39.152   9.528
 2822POPC   GL138185  17.542  39.260   9.197
 2822POPC   GL238186  17.606  38.932   9.078
 2822POPC   C1A38187  17.566  39.353   8.788
 2822POPC   D2A38188  17.389  39.532   8.467
 2822POPC   C3A38189  17.442  39.434   8.069
 2822POPC   C4A38190  17.648  39.400   7.716
 2822POPC   C1B38191  17.354  38.894   8.720
 2822POPC   C2B38192  17.579  39.035   8.379
 2822POPC   C3B38193  17.546  38.915   7.984
 2822POPC   C4B38194  17.260  39.088   7.735
 2823POPC   NC338195  12.541  28.117   9.630
 2823POPC   PO438196  13.085  28.342   9.283
 2823POPC   GL138197  12.751  28.343   9.042
 2823POPC   GL238198  12.429  28.164   9.139
 2823POPC   C1A38199  12.895  28.363   8.615
 2823POPC   D2A38200  13.172  28.533   8.366
 2823POPC   C3A38201  13.197  28.299   7.987
 2823POPC   C4A38202  12.818  28.414   7.908
 2823POPC   C1B38203  12.426  28.204   8.700
 2823POPC   C2B38204  12.551  28.071   8.281
 2823POPC   C3B38205  12.408  28.121   7.845
 2823POPC   C4B38206  12.707  28.177   7.480
 2824POPC   NC338207   2.935  24.913   9.327
 2824POPC   PO438208   2.813  24.399   9.712
 2824POPC   GL138209   2.692  24.450   9.233
 2824POPC   GL238210   2.486  24.728   9.134
 2824POPC   C1A38211   2.690  24.429   8.760
 2824POPC   D2A38212   2.677  24.311   8.322
 2824POPC   C3A38213   2.864  24.448   7.899
 2824POPC   C4A38214   2.822  24.369   7.421
 2824POPC   C1B38215   2.248  24.765   8.767
 2824POPC   C2B38216   2.392  24.893   8.330
 2824POPC   C3B38217   2.417  24.671   7.971
 2824POPC   C4B38218   2.361  24.258   7.917
 2825POPC   NC338219  22.851  35.661   9.612
 2825POPC   PO438220  22.976  35.009   9.570
 2825POPC   GL138221  23.045  35.346   9.228
 2825POPC   GL238222  22.799  35.599   9.121
 2825POPC   C1A38223  23.078  35.298   8.774
 2825POPC   D2A38224  23.032  34.967   8.444
 2825POPC   C3A38225  22.831  35.062   8.032
 2825POPC   C4A38226  22.934  35.357   7.679
 2825POPC   C1B38227  22.539  35.567   8.780
 2825POPC   C2B38228  22.650  35.367   8.417
 2825POPC   C3B38229  22.570  35.494   8.027
 2825POPC   C4B38230  22.449  35.587   7.636
 2826POPC   NC338231  30.865  33.296   9.478
 2826POPC   PO438232  31.231  32.810   9.419
 2826POPC   GL138233  30.965  33.003   9.072
 2826POPC   GL238234  30.668  32.791   9.023
 2826POPC   C1A38235  30.754  33.182   8.697
 2826POPC   D2A38236  30.720  33.047   8.275
 2826POPC   C3A38237  31.073  33.175   8.110
 2826POPC   C4A38238  31.146  33.319   7.697
 2826POPC   C1B38239  30.938  32.696   8.650
 2826POPC   C2B38240  30.935  32.565   8.212
 2826POPC   C3B38241  30.742  32.474   7.798
 2826POPC   C4B38242  30.797  32.540   7.351
 2827POPC   NC338243  39.367  16.321   9.542
 2827POPC   PO438244  39.385  15.631   9.587
 2827POPC   GL138245  39.286  15.885   9.239
 2827POPC   GL238246  38.953  15.819   9.240
 2827POPC   C1A38247  39.274  15.967   8.798
 2827POPC   D2A38248  39.439  15.872   8.379
 2827POPC   C3A38249  39.201  15.990   8.008
 2827POPC   C4A38250  39.208  15.625   7.741
 2827POPC   C1B38251  38.878  15.660   8.821
 2827POPC   C2B38252  38.905  15.821   8.405
 2827POPC   C3B38253  38.766  15.699   7.986
 2827POPC   C4B38254  38.752  15.906   7.592
 2828POPC   NC338255  13.738  25.824   9.441
 2828POPC   PO438256  13.208  26.246   9.366
 2828POPC   GL138257  13.508  26.140   9.097
 2828POPC   GL238258  13.386  25.802   9.071
 2828POPC   C1A38259  13.699  26.039   8.725
 2828POPC   D2A38260  13.625  25.759   8.390
 2828POPC   C3A38261  13.803  25.849   8.028
 2828POPC   C4A38262  13.869  26.152   7.725
 2828POPC   C1B38263  13.218  25.884   8.719
 2828POPC   C2B38264  13.245  26.109   8.359
 2828POPC   C3B38265  13.293  25.899   7.983
 2828POPC   C4B38266  13.498  25.758   7.626
 2829POPC   NC338267   0.761  39.800   9.541
 2829POPC   PO438268   1.379  40.068   9.486
 2829POPC   GL138269   1.148  39.868   9.170
 2829POPC   GL238270   0.861  40.024   9.080
 2829POPC   C1A38271   1.067  39.721   8.737
 2829POPC   D2A38272   1.025  39.643   8.289
 2829POPC   C3A38273   1.198  39.910   7.973
 2829POPC   C4A38274   1.591  39.909   7.784
 2829POPC   C1B38275   1.163  40.230   8.776
 2829POPC   C2B38276   1.428  40.182   8.386
 2829POPC   C3B38277   1.447  40.386   7.979
 2829POPC   C4B38278   1.055  40.462   7.853
 2830POPC   NC338279  18.825  17.768   9.552
 2830POPC   PO438280  19.476  17.580   9.665
 2830POPC   GL138281  19.168  17.442   9.251
 2830POPC   GL238282  18.829  17.563   9.090
 2830POPC   C1A38283  19.099  17.254   8.800
 2830POPC   D2A38284  19.318  17.329   8.390
 2830POPC   C3A38285  19.149  17.310   7.971
 2830POPC   C4A38286  19.332  17.336   7.571
 2830POPC   C1B38287  18.995  17.758   8.682
 2830POPC   C2B38288  19.003  17.752   8.232
 2830POPC   C3B38289  19.125  17.795   7.802
 2830POPC   C4B38290  18.917  17.605   7.421
 2831POPC   NC338291  38.949   0.909   9.411
 2831POPC   PO438292  39.633   0.960   9.373
 2831POPC   GL138293  39.337   0.992   9.048
 2831POPC   GL238294  39.180   1.334   9.063
 2831POPC   C1A38295  39.428   1.150   8.646
 2831POPC   D2A38296  39.657   1.475   8.468
 2831POPC   C3A38297  39.543   1.280   8.102
 2831POPC   C4A38298  39.427   1.101   7.710
 2831POPC   C1B38299  38.918   1.132   8.709
 2831POPC   C2B38300  39.041   1.028   8.278
 2831POPC   C3B38301  38.998   1.287   7.908
 2831POPC   C4B38302  38.753   1.222   7.549
 2832POPC   NC338303  27.958  20.630   9.731
 2832POPC   PO438304  27.344  20.954   9.544
 2832POPC   GL138305  27.616  20.738   9.243
 2832POPC   GL238306  27.499  20.438   9.037
 2832POPC   C1A38307  27.621  20.871   8.802
 2832POPC   D2A38308  27.694  20.639   8.434
 2832POPC   C3A38309  27.388  20.614   8.120
 2832POPC   C4A38310  27.558  20.569   7.709
 2832POPC   C1B38311  27.632  20.184   8.640
 2832POPC   C2B38312  27.851  20.193   8.191
 2832POPC   C3B38313  27.993  20.248   7.722
 2832POPC   C4B38314  28.174  20.122   7.269
 2833POPC   NC338315  34.256  26.286   9.436
 2833POPC   PO438316  33.891  25.709   9.490
 2833POPC   GL138317  33.959  25.897   9.072
 2833POPC   GL238318  33.918  26.263   9.017
 2833POPC   C1A38319  33.731  25.887   8.669
 2833POPC   D2A38320  33.492  26.185   8.414
 2833POPC   C3A38321  33.721  26.338   8.083
 2833POPC   C4A38322  33.785  26.134   7.713
 2833POPC   C1B38323  34.008  26.312   8.554
 2833POPC   C2B38324  34.218  26.502   8.188
 2833POPC   C3B38325  34.175  26.489   7.726
 2833POPC   C4B38326  34.350  26.258   7.368
 2834POPC   NC338327  22.543   4.141   9.442
 2834POPC   PO438328  23.181   4.277   9.593
 2834POPC   GL138329  23.089   4.297   9.194
 2834POPC   GL238330  23.158   3.970   9.044
 2834POPC   C1A38331  22.971   4.655   8.957
 2834POPC   D2A38332  22.931   4.660   8.519
 2834POPC   C3A38333  22.956   4.599   8.118
 2834POPC   C4A38334  22.883   4.364   7.788
 2834POPC   C1B38335  22.809   4.168   8.768
 2834POPC   C2B38336  22.608   4.171   8.333
 2834POPC   C3B38337  22.738   3.928   7.949
 2834POPC   C4B38338  23.194   3.952   7.832
 2835POPC   NC338339   6.362  32.862   9.754
 2835POPC   PO438340   5.906  33.255   9.446
 2835POPC   GL138341   5.877  33.020   9.089
 2835POPC   GL238342   5.985  33.325   8.928
 2835POPC   C1A38343   5.657  33.007   8.686
 2835POPC   D2A38344   5.763  32.847   8.320
 2835POPC   C3A38345   5.796  32.945   7.901
 2835POPC   C4A38346   6.231  32.837   7.773
 2835POPC   C1B38347   6.041  33.291   8.509
 2835POPC   C2B38348   5.952  33.364   8.116
 2835POPC   C3B38349   6.069  33.331   7.699
 2835POPC   C4B38350   6.118  33.489   7.304
 2836POPC   NC338351   3.450  18.597   9.520
 2836POPC   PO438352   3.851  18.187   9.697
 2836POPC   GL138353   3.637  18.195   9.289
 2836POPC   GL238354   3.252  18.139   9.289
 2836POPC   C1A38355   3.795  18.394   8.908
 2836POPC   D2A38356   3.902  18.326   8.458
 2836POPC   C3A38357   3.824  18.639   8.115
 2836POPC   C4A38358   3.541  18.607   7.772
 2836POPC   C1B38359   3.413  18.036   8.872
 2836POPC   C2B38360   3.500  17.958   8.440
 2836POPC   C3B38361   3.559  18.205   8.068
 2836POPC   C4B38362   3.409  18.140   7.579
 2837POPC   NC338363   4.889  15.380   9.684
 2837POPC   PO438364   5.489  15.220   9.409
 2837POPC   GL138365   5.053  15.098   9.269
 2837POPC   GL238366   4.745  15.298   9.208
 2837POPC   C1A38367   5.013  15.093   8.801
 2837POPC   D2A38368   5.319  15.128   8.444
 2837POPC   C3A38369   5.170  15.243   8.016
 2837POPC   C4A38370   5.061  15.168   7.574
 2837POPC   C1B38371   4.717  15.514   8.816
 2837POPC   C2B38372   4.829  15.402   8.390
 2837POPC   C3B38373   4.798  15.592   7.906
 2837POPC   C4B38374   4.848  15.606   7.420
 2838POPC   NC338375  33.231  20.242   9.786
 2838POPC   PO438376  32.713  19.870   9.431
 2838POPC   GL138377  32.721  20.028   9.045
 2838POPC   GL238378  32.836  19.698   8.954
 2838POPC   C1A38379  33.026  20.147   8.711
 2838POPC   D2A38380  33.227  19.991   8.339
 2838POPC   C3A38381  32.885  19.905   8.070
 2838POPC   C4A38382  32.942  19.901   7.646
 2838POPC   C1B38383  33.083  19.559   8.603
 2838POPC   C2B38384  33.495  19.540   8.460
 2838POPC   C3B38385  33.557  19.577   8.027
 2838POPC   C4B38386  33.467  19.800   7.655
 2839POPC   NC338387   7.697  26.182   9.468
 2839POPC   PO438388   8.335  25.793   9.578
 2839POPC   GL138389   8.354  25.941   9.193
 2839POPC   GL238390   7.989  25.911   9.140
 2839POPC   C1A38391   8.287  26.015   8.763
 2839POPC   D2A38392   8.198  26.140   8.405
 2839POPC   C3A38393   8.423  25.989   8.101
 2839POPC   C4A38394   8.371  25.829   7.711
 2839POPC   C1B38395   7.783  26.044   8.756
 2839POPC   C2B38396   7.742  25.892   8.351
 2839POPC   C3B38397   7.928  26.057   7.979
 2839POPC   C4B38398   7.899  26.436   7.783
 2840POPC   NC338399   4.658   2.692   9.552
 2840POPC   PO438400   5.341   2.867   9.714
 2840POPC   GL138401   5.081   2.929   9.374
 2840POPC   GL238402   5.299   3.080   9.160
 2840POPC   C1A38403   4.978   2.753   8.946
 2840POPC   D2A38404   5.251   2.680   8.583
 2840POPC   C3A38405   5.169   2.565   8.153
 2840POPC   C4A38406   4.934   2.642   7.758
 2840POPC   C1B38407   5.123   3.207   8.735
 2840POPC   C2B38408   5.248   3.104   8.286
 2840POPC   C3B38409   5.038   3.152   7.872
 2840POPC   C4B38410   4.621   3.160   7.651
 2841POPC   NC338411  30.533  31.418   9.481
 2841POPC   PO438412  30.963  31.973   9.564
 2841POPC   GL138413  30.879  31.734   9.137
 2841POPC   GL238414  30.665  31.447   9.011
 2841POPC   C1A38415  30.906  31.687   8.656
 2841POPC   D2A38416  30.578  31.573   8.331
 2841POPC   C3A38417  30.626  31.729   7.880
 2841POPC   C4A38418  30.603  31.528   7.467
 2841POPC   C1B38419  30.789  31.164   8.703
 2841POPC   C2B38420  30.903  31.172   8.282
 2841POPC   C3B38421  30.740  31.207   7.864
 2841POPC   C4B38422  30.945  31.140   7.447
 2842POPC   NC338423  10.616  28.544   9.465
 2842POPC   PO438424  10.108  28.166   9.507
 2842POPC   GL138425  10.350  28.112   9.122
 2842POPC   GL238426  10.699  28.232   9.076
 2842POPC   C1A38427  10.346  28.250   8.688
 2842POPC   D2A38428  10.449  28.423   8.284
 2842POPC   C3A38429  10.282  28.318   7.891
 2842POPC   C4A38430  10.370  28.510   7.523
 2842POPC   C1B38431  10.801  28.562   8.729
 2842POPC   C2B38432  10.967  28.552   8.264
 2842POPC   C3B38433  10.814  28.292   7.900
 2842POPC   C4B38434  10.754  28.219   7.448
 2843POPC   NC338435  36.534  22.222   9.483
 2843POPC   PO438436  35.835  22.206   9.363
 2843POPC   GL138437  36.199  22.131   9.082
 2843POPC   GL238438  36.453  22.396   9.019
 2843POPC   C1A38439  36.154  22.158   8.636
 2843POPC   D2A38440  36.102  22.409   8.268
 2843POPC   C3A38441  35.904  22.295   7.907
 2843POPC   C4A38442  36.108  21.975   7.711
 2843POPC   C1B38443  36.646  22.491   8.626
 2843POPC   C2B38444  36.603  22.499   8.170
 2843POPC   C3B38445  36.335  22.491   7.783
 2843POPC   C4B38446  36.400  22.301   7.370
 2844POPC   NC338447  33.195  39.439   9.477
 2844POPC   PO438448  33.876  39.242   9.378
 2844POPC   GL138449  33.762  39.088   8.995
 2844POPC   GL238450  33.425  38.965   9.036
 2844POPC   C1A38451  33.912  39.065   8.565
 2844POPC   D2A38452  34.231  38.897   8.295
 2844POPC   C3A38453  34.120  39.011   7.878
 2844POPC   C4A38454  34.014  39.309   7.485
 2844POPC   C1B38455  33.393  39.305   8.696
 2844POPC   C2B38456  33.677  39.514   8.380
 2844POPC   C3B38457  33.763  39.388   7.921
 2844POPC   C4B38458  33.625  38.988   7.777
 2845POPC   NC338459   9.976  10.295   9.698
 2845POPC   PO438460   9.636  10.886   9.593
 2845POPC   GL138461   9.784  10.770   9.167
 2845POPC   GL238462   9.477  10.683   8.952
 2845POPC   C1A38463  10.002  10.633   8.809
 2845POPC   D2A38464   9.980  10.405   8.434
 2845POPC   C3A38465   9.891  10.643   8.098
 2845POPC   C4A38466  10.116  10.639   7.737
 2845POPC   C1B38467   9.625  10.271   8.793
 2845POPC   C2B38468   9.625  10.036   8.383
 2845POPC   C3B38469   9.667  10.217   7.953
 2845POPC   C4B38470   9.590  10.586   7.679
 2846POPC   NC338471   6.959  39.631   9.449
 2846POPC   PO438472   6.473  40.101   9.507
 2846POPC   GL138473   6.751  40.059   9.153
 2846POPC   GL238474   6.632  39.777   9.083
 2846POPC   C1A38475   6.594  40.140   8.725
 2846POPC   D2A38476   6.353  40.143   8.371
 2846POPC   C3A38477   6.646  40.170   8.070
 2846POPC   C4A38478   6.886  40.298   7.700
 2846POPC   C1B38479   6.414  39.618   8.754
 2846POPC   C2B38480   6.299  39.508   8.354
 2846POPC   C3B38481   6.233  39.791   8.026
 2846POPC   C4B38482   6.479  39.902   7.686
 2847POPC   NC338483  17.532  38.399   9.883
 2847POPC   PO438484  17.843  38.002   9.427
 2847POPC   GL138485  17.702  38.361   9.140
 2847POPC   GL238486  17.355  38.514   9.178
 2847POPC   C1A38487  17.703  38.542   8.722
 2847POPC   D2A38488  17.465  38.538   8.346
 2847POPC   C3A38489  17.639  38.400   7.994
 2847POPC   C4A38490  17.587  38.428   7.543
 2847POPC   C1B38491  17.216  38.355   8.773
 2847POPC   C2B38492  17.039  38.127   8.417
 2847POPC   C3B38493  17.163  38.189   8.017
 2847POPC   C4B38494  17.165  38.597   7.844
 2848POPC   NC338495  35.170   0.818   9.357
 2848POPC   PO438496  35.514   1.501   9.446
 2848POPC   GL138497  35.441   1.196   9.143
 2848POPC   GL238498  35.554   1.412   8.908
 2848POPC   C1A38499  35.242   1.030   8.734
 2848POPC   D2A38500  35.373   1.181   8.318
 2848POPC   C3A38501  35.370   0.974   7.894
 2848POPC   C4A38502  35.509   0.994   7.426
 2848POPC   C1B38503  35.155   1.542   8.779
 2848POPC   C2B38504  35.037   1.604   8.364
 2848POPC   C3B38505  35.022   1.381   7.987
 2848POPC   C4B38506  35.265   1.399   7.608
 2849POPC   NC338507  15.542  24.571   9.457
 2849POPC   PO438508  16.155  24.394   9.508
 2849POPC   GL138509  15.999  24.700   9.166
 2849POPC   GL238510  16.174  25.034   9.202
 2849POPC   C1A38511  15.815  24.629   8.723
 2849POPC   D2A38512  15.686  24.564   8.274
 2849POPC   C3A38513  16.014  24.493   7.950
 2849POPC   C4A38514  15.987  24.533   7.474
 2849POPC   C1B38515  16.338  24.904   8.796
 2849POPC   C2B38516  16.402  24.594   8.472
 2849POPC   C3B38517  16.549  24.657   8.062
 2849POPC   C4B38518  16.302  24.908   7.787
 2850POPC   NC338519  29.260  26.229   9.660
 2850POPC   PO438520  28.785  25.818   9.529
 2850POPC   GL138521  29.021  25.857   9.123
 2850POPC   GL238522  29.233  26.147   9.106
 2850POPC   C1A38523  29.248  25.810   8.695
 2850POPC   D2A38524  29.433  25.848   8.258
 2850POPC   C3A38525  29.185  25.797   7.854
 2850POPC   C4A38526  28.891  25.755   7.466
 2850POPC   C1B38527  29.103  26.297   8.662
 2850POPC   C2B38528  29.209  26.324   8.210
 2850POPC   C3B38529  29.106  26.319   7.789
 2850POPC   C4B38530  29.283  26.599   7.445
 2851POPC   NC338531  39.186   8.849   9.477
 2851POPC   PO438532  39.447   9.324   9.338
 2851POPC   GL138533  39.502   9.007   9.076
 2851POPC   GL238534  39.143   9.051   9.004
 2851POPC   C1A38535  39.541   8.941   8.641
 2851POPC   D2A38536  39.189   9.131   8.454
 2851POPC   C3A38537  39.210   9.251   8.027
 2851POPC   C4A38538  39.282   8.829   7.798
 2851POPC   C1B38539  38.844   9.309   8.813
 2851POPC   C2B38540  38.698   9.259   8.415
 2851POPC   C3B38541  38.812   8.937   8.106
 2851POPC   C4B38542  38.869   9.077   7.675
 2852POPC   NC338543   7.991  38.834   9.261
 2852POPC   PO438544   8.322  39.240   9.666
 2852POPC   GL138545   8.357  39.135   9.154
 2852POPC   GL238546   8.052  39.310   8.989
 2852POPC   C1A38547   8.284  38.990   8.702
 2852POPC   D2A38548   8.053  39.225   8.405
 2852POPC   C3A38549   8.271  39.143   8.028
 2852POPC   C4A38550   8.300  39.056   7.605
 2852POPC   C1B38551   8.140  39.672   8.727
 2852POPC   C2B38552   7.965  39.805   8.360
 2852POPC   C3B38553   8.011  39.587   8.016
 2852POPC   C4B38554   8.172  39.540   7.638
 2853POPC   NC338555   4.562  14.475   9.623
 2853POPC   PO438556   3.891  14.341   9.513
 2853POPC   GL138557   4.042  14.280   9.087
 2853POPC   GL238558   4.346  14.486   9.137
 2853POPC   C1A38559   4.334  14.270   8.684
 2853POPC   D2A38560   4.374  14.537   8.288
 2853POPC   C3A38561   4.274  14.264   7.916
 2853POPC   C4A38562   4.101  13.825   7.881
 2853POPC   C1B38563   4.092  14.716   8.817
 2853POPC   C2B38564   3.947  14.825   8.401
 2853POPC   C3B38565   4.124  14.882   7.973
 2853POPC   C4B38566   4.516  14.710   7.792
 2854POPC   NC338567  31.798  44.273   9.388
 2854POPC   PO438568  31.295  44.605   9.634
 2854POPC   GL138569  31.254  44.805   9.216
 2854POPC   GL238570  31.224   0.160   9.159
 2854POPC   C1A38571  31.507  44.789   8.809
 2854POPC   D2A38572  31.647  44.511   8.458
 2854POPC   C3A38573  31.443  44.375   8.060
 2854POPC   C4A38574  31.567  44.518   7.624
 2854POPC   C1B38575  31.037  44.987   8.779
 2854POPC   C2B38576  31.214  44.819   8.375
 2854POPC   C3B38577  31.334  44.854   7.953
 2854POPC   C4B38578  31.070  44.574   7.695
 2855POPC   NC338579   8.266  39.575   9.362
 2855POPC   PO438580   7.985  40.173   9.541
 2855POPC   GL138581   7.992  39.979   9.157
 2855POPC   GL238582   8.362  39.996   9.088
 2855POPC   C1A38583   7.983  40.171   8.757
 2855POPC   D2A38584   8.013  40.462   8.439
 2855POPC   C3A38585   8.075  40.248   8.097
 2855POPC   C4A38586   8.088  40.025   7.754
 2855POPC   C1B38587   8.618  39.935   8.750
 2855POPC   C2B38588   8.444  39.993   8.363
 2855POPC   C3B38589   8.508  39.826   7.958
 2855POPC   C4B38590   8.545  39.916   7.510
 2856POPC   NC338591  41.944  39.938   9.270
 2856POPC   PO438592  41.377  40.214   9.481
 2856POPC   GL138593  41.465  40.000   9.148
 2856POPC   GL238594  41.685  40.270   9.022
 2856POPC   C1A38595  41.474  39.779   8.768
 2856POPC   D2A38596  41.660  39.758   8.382
 2856POPC   C3A38597  41.422  39.861   8.026
 2856POPC   C4A38598  41.510  39.892   7.603
 2856POPC   C1B38599  41.679  40.380   8.640
 2856POPC   C2B38600  41.681  40.255   8.249
 2856POPC   C3B38601  41.479  40.370   7.909
 2856POPC   C4B38602  41.621  40.369   7.529
 2857POPC   NC338603  30.594  20.649   9.626
 2857POPC   PO438604  31.188  21.031   9.513
 2857POPC   GL138605  30.842  20.775   9.185
 2857POPC   GL238606  30.564  20.499   9.157
 2857POPC   C1A38607  30.904  20.518   8.772
 2857POPC   D2A38608  30.907  20.259   8.416
 2857POPC   C3A38609  30.940  20.543   8.061
 2857POPC   C4A38610  30.706  20.640   7.686
 2857POPC   C1B38611  30.432  20.671   8.758
 2857POPC   C2B38612  30.520  20.582   8.346
 2857POPC   C3B38613  30.289  20.695   7.966
 2857POPC   C4B38614  30.212  20.519   7.548
 2858POPC   NC338615  13.388  12.662   9.625
 2858POPC   PO438616  12.763  13.096   9.530
 2858POPC   GL138617  12.701  13.019   9.144
 2858POPC   GL238618  12.375  13.120   9.101
 2858POPC   C1A38619  12.605  12.790   8.763
 2858POPC   D2A38620  12.813  12.601   8.427
 2858POPC   C3A38621  12.740  12.789   8.072
 2858POPC   C4A38622  13.053  12.678   7.803
 2858POPC   C1B38623  12.654  13.323   8.757
 2858POPC   C2B38624  12.930  13.138   8.430
 2858POPC   C3B38625  13.095  13.169   7.985
 2858POPC   C4B38626  12.903  13.105   7.553
 2859POPC   NC338627  38.209  20.131   9.462
 2859POPC   PO438628  38.671  19.639   9.430
 2859POPC   GL138629  38.571  19.905   9.129
 2859POPC   GL238630  38.257  19.769   9.071
 2859POPC   C1A38631  38.594  19.911   8.687
 2859POPC   D2A38632  38.777  19.984   8.301
 2859POPC   C3A38633  38.607  19.713   8.001
 2859POPC   C4A38634  38.324  19.474   7.774
 2859POPC   C1B38635  38.099  20.004   8.762
 2859POPC   C2B38636  38.204  20.250   8.426
 2859POPC   C3B38637  38.425  20.306   8.048
 2859POPC   C4B38638  38.295  20.048   7.725
 2860POPC   NC338639  40.322  33.575   9.200
 2860POPC   PO438640  40.772  34.028   9.369
 2860POPC   GL138641  40.979  33.765   9.058
 2860POPC   GL238642  40.853  33.435   9.220
 2860POPC   C1A38643  40.978  33.946   8.629
 2860POPC   D2A38644  40.643  34.140   8.387
 2860POPC   C3A38645  40.654  33.881   8.020
 2860POPC   C4A38646  40.595  33.601   7.663
 2860POPC   C1B38647  40.827  33.351   8.785
 2860POPC   C2B38648  41.076  33.459   8.447
 2860POPC   C3B38649  41.081  33.578   8.026
 2860POPC   C4B38650  40.981  33.294   7.717
 2861POPC   NC338651  22.420  16.918   9.507
 2861POPC   PO438652  22.998  16.534   9.541
 2861POPC   GL138653  22.918  16.731   9.122
 2861POPC   GL238654  23.275  16.646   9.049
 2861POPC   C1A38655  22.738  16.880   8.681
 2861POPC   D2A38656  22.636  16.683   8.222
 2861POPC   C3A38657  22.669  16.808   7.750
 2861POPC   C4A38658  22.680  16.836   7.247
 2861POPC   C1B38659  23.099  16.541   8.657
 2861POPC   C2B38660  23.103  16.878   8.337
 2861POPC   C3B38661  23.146  16.790   7.944
 2861POPC   C4B38662  23.277  16.465   7.737
 2862POPC   NC338663   2.486   6.334   9.675
 2862POPC   PO438664   2.743   6.979   9.478
 2862POPC   GL138665   2.760   6.742   9.127
 2862POPC   GL238666   2.716   6.379   9.204
 2862POPC   C1A38667   2.930   6.814   8.718
 2862POPC   D2A38668   2.812   6.559   8.397
 2862POPC   C3A38669   2.978   6.622   7.996
 2862POPC   C4A38670   3.088   6.816   7.567
 2862POPC   C1B38671   2.705   6.183   8.788
 2862POPC   C2B38672   2.468   6.121   8.406
 2862POPC   C3B38673   2.584   6.287   8.007
 2862POPC   C4B38674   2.810   6.358   7.602
 2863POPC   NC338675   3.154  43.621   9.448
 2863POPC   PO438676   2.587  44.093   9.546
 2863POPC   GL138677   2.730  43.912   9.203
 2863POPC   GL238678   3.027  44.083   9.116
 2863POPC   C1A38679   2.782  43.745   8.802
 2863POPC   D2A38680   2.652  43.893   8.426
 2863POPC   C3A38681   2.854  43.658   8.130
 2863POPC   C4A38682   2.767  43.755   7.728
 2863POPC   C1B38683   3.179  44.081   8.699
 2863POPC   C2B38684   3.128  44.061   8.261
 2863POPC   C3B38685   3.167  44.057   7.817
 2863POPC   C4B38686   2.988  44.065   7.388
 2864POPC   NC338687   2.410  24.611   9.640
 2864POPC   PO438688   1.888  24.217   9.608
 2864POPC   GL138689   2.024  24.417   9.213
 2864POPC   GL238690   1.983  24.777   9.253
 2864POPC   C1A38691   1.971  24.331   8.757
 2864POPC   D2A38692   2.183  24.425   8.386
 2864POPC   C3A38693   1.930  24.600   8.056
 2864POPC   C4A38694   1.943  24.719   7.617
 2864POPC   C1B38695   1.715  24.769   8.861
 2864POPC   C2B38696   1.583  24.642   8.437
 2864POPC   C3B38697   1.477  24.909   8.061
 2864POPC   C4B38698   1.504  24.958   7.609
 2865POPC   NC338699  16.413  35.548   9.444
 2865POPC   PO438700  16.923  35.206   9.537
 2865POPC   GL138701  17.005  35.365   9.142
 2865POPC   GL238702  17.205  35.085   9.087
 2865POPC   C1A38703  16.710  35.466   8.797
 2865POPC   D2A38704  16.363  35.422   8.497
 2865POPC   C3A38705  16.518  35.321   8.084
 2865POPC   C4A38706  16.563  35.440   7.622
 2865POPC   C1B38707  17.050  35.078   8.687
 2865POPC   C2B38708  17.006  35.362   8.344
 2865POPC   C3B38709  16.988  35.282   7.901
 2865POPC   C4B38710  17.074  34.895   7.737
 2866POPC   NC338711  22.963   0.343   9.584
 2866POPC   PO438712  23.236   0.978   9.501
 2866POPC   GL138713  23.031   0.836   9.138
 2866POPC   GL238714  22.856   0.518   9.132
 2866POPC   C1A38715  23.023   0.757   8.707
 2866POPC   D2A38716  22.796   0.952   8.401
 2866POPC   C3A38717  22.920   0.774   8.043
 2866POPC   C4A38718  23.265   0.658   7.826
 2866POPC   C1B38719  22.739   0.330   8.746
 2866POPC   C2B38720  23.067   0.305   8.440
 2866POPC   C3B38721  23.157   0.230   8.068
 2866POPC   C4B38722  22.830   0.321   7.815
 2867POPC   NC338723   5.966  30.485   9.548
 2867POPC   PO438724   5.658  31.053   9.342
 2867POPC   GL138725   5.934  30.772   9.117
 2867POPC   GL238726   6.193  30.913   8.955
 2867POPC   C1A38727   5.834  30.647   8.695
 2867POPC   D2A38728   5.555  30.618   8.344
 2867POPC   C3A38729   5.770  30.629   7.978
 2867POPC   C4A38730   5.733  30.584   7.546
 2867POPC   C1B38731   6.258  31.031   8.546
 2867POPC   C2B38732   6.192  30.737   8.252
 2867POPC   C3B38733   6.271  30.747   7.833
 2867POPC   C4B38734   6.177  30.815   7.429
 2868POPC   NC338735  27.168  37.022   9.857
 2868POPC   PO438736  26.886  37.572   9.496
 2868POPC   GL138737  26.936  37.818   9.121
 2868POPC   GL238738  26.575  37.785   9.088
 2868POPC   C1A38739  26.859  37.908   8.682
 2868POPC   D2A38740  26.620  37.766   8.326
 2868POPC   C3A38741  26.815  37.781   7.910
 2868POPC   C4A38742  26.977  37.762   7.464
 2868POPC   C1B38743  26.639  37.438   8.822
 2868POPC   C2B38744  26.479  37.267   8.454
 2868POPC   C3B38745  26.690  37.286   8.043
 2868POPC   C4B38746  26.784  37.322   7.625
 2869POPC   NC338747   8.403   7.079   9.344
 2869POPC   PO438748   8.374   6.427   9.708
 2869POPC   GL138749   8.287   6.520   9.255
 2869POPC   GL238750   8.443   6.272   9.035
 2869POPC   C1A38751   8.137   6.708   8.822
 2869POPC   D2A38752   8.256   6.817   8.352
 2869POPC   C3A38753   8.090   6.680   7.926
 2869POPC   C4A38754   7.722   6.870   7.764
 2869POPC   C1B38755   8.551   6.453   8.660
 2869POPC   C2B38756   8.649   6.492   8.272
 2869POPC   C3B38757   8.544   6.372   7.907
 2869POPC   C4B38758   8.358   6.458   7.529
 2870POPC   NC338759  11.043  18.167   9.610
 2870POPC   PO438760  11.566  18.531   9.658
 2870POPC   GL138761  11.370  18.360   9.249
 2870POPC   GL238762  11.074  18.092   9.113
 2870POPC   C1A38763  11.281  18.436   8.824
 2870POPC   D2A38764  11.287  18.170   8.480
 2870POPC   C3A38765  11.253  18.342   8.109
 2870POPC   C4A38766  11.495  18.349   7.755
 2870POPC   C1B38767  11.014  17.823   8.730
 2870POPC   C2B38768  10.910  17.890   8.270
 2870POPC   C3B38769  11.014  17.940   7.832
 2870POPC   C4B38770  11.000  18.352   7.662
 2871POPC   NC338771   1.769  40.350   9.501
 2871POPC   PO438772   1.861  40.988   9.673
 2871POPC   GL138773   2.008  40.750   9.236
 2871POPC   GL238774   1.824  40.489   9.011
 2871POPC   C1A38775   2.249  40.720   8.834
 2871POPC   D2A38776   2.206  40.867   8.433
 2871POPC   C3A38777   2.216  40.558   8.121
 2871POPC   C4A38778   2.325  40.573   7.716
 2871POPC   C1B38779   1.749  40.814   8.705
 2871POPC   C2B38780   1.730  40.747   8.260
 2871POPC   C3B38781   1.946  40.920   7.906
 2871POPC   C4B38782   1.839  41.110   7.507
 2872POPC   NC338783  12.513  44.342   9.862
 2872POPC   PO438784  12.929  44.016   9.775
 2872POPC   GL138785  13.024  43.959   9.281
 2872POPC   GL238786  12.896  43.639   9.197
 2872POPC   C1A38787  13.163  43.854   8.829
 2872POPC   D2A38788  12.918  43.695   8.478
 2872POPC   C3A38789  12.959  43.937   8.113
 2872POPC   C4A38790  12.927  43.826   7.700
 2872POPC   C1B38791  12.649  43.904   8.861
 2872POPC   C2B38792  12.587  44.103   8.415
 2872POPC   C3B38793  12.458  44.001   7.971
 2872POPC   C4B38794  12.214  43.661   7.741
 2873POPC   NC338795  10.968   9.664   9.401
 2873POPC   PO438796  11.623   9.527   9.533
 2873POPC   GL138797  11.409   9.585   9.137
 2873POPC   GL238798  11.442   9.918   9.088
 2873POPC   C1A38799  11.110   9.619   8.771
 2873POPC   D2A38800  11.256   9.560   8.368
 2873POPC   C3A38801  11.038   9.551   7.981
 2873POPC   C4A38802  11.144   9.598   7.540
 2873POPC   C1B38803  11.361  10.052   8.646
 2873POPC   C2B38804  11.328  10.193   8.214
 2873POPC   C3B38805  11.298   9.965   7.838
 2873POPC   C4B38806  11.227  10.085   7.366
 2874POPC   NC338807  39.116  24.978   9.404
 2874POPC   PO438808  39.302  25.521   9.532
 2874POPC   GL138809  39.319  25.340   9.121
 2874POPC   GL238810  39.562  25.027   9.146
 2874POPC   C1A38811  39.227  25.433   8.706
 2874POPC   D2A38812  39.090  25.543   8.304
 2874POPC   C3A38813  39.197  25.363   7.915
 2874POPC   C4A38814  39.199  25.001   7.632
 2874POPC   C1B38815  39.401  24.945   8.748
 2874POPC   C2B38816  39.328  25.049   8.319
 2874POPC   C3B38817  39.582  24.927   7.973
 2874POPC   C4B38818  39.712  24.840   7.604
 2875POPC   NC338819   0.716  39.174   9.521
 2875POPC   PO438820   0.087  39.397   9.286
 2875POPC   GL138821   0.460  39.199   9.086
 2875POPC   GL238822   0.808  39.365   9.052
 2875POPC   C1A38823   0.455  38.917   8.758
 2875POPC   D2A38824   0.089  38.868   8.470
 2875POPC   C3A38825   0.095  39.214   8.174
 2875POPC   C4A38826   0.300  39.328   7.777
 2875POPC   C1B38827   0.698  39.364   8.616
 2875POPC   C2B38828   0.541  39.520   8.208
 2875POPC   C3B38829   0.762  39.576   7.791
 2875POPC   C4B38830   0.875  39.170   7.569
 2876POPC   NC338831  25.099  23.491   9.452
 2876POPC   PO438832  25.459  24.095   9.543
 2876POPC   GL138833  25.392  23.782   9.165
 2876POPC   GL238834  25.423  23.423   9.072
 2876POPC   C1A38835  25.388  23.935   8.724
 2876POPC   D2A38836  25.501  24.132   8.336
 2876POPC   C3A38837  25.273  23.985   8.015
 2876POPC   C4A38838  25.343  23.799   7.640
 2876POPC   C1B38839  25.067  23.525   8.811
 2876POPC   C2B38840  24.981  23.726   8.433
 2876POPC   C3B38841  24.955  23.483   8.062
 2876POPC   C4B38842  24.940  23.453   7.641
 2877POPC   NC338843   1.554  41.196   9.398
 2877POPC   PO438844   1.067  41.608   9.362
 2877POPC   GL138845   1.339  41.536   9.024
 2877POPC   GL238846   1.259  41.192   8.974
 2877POPC   C1A38847   1.118  41.600   8.632
 2877POPC   D2A38848   1.111  41.867   8.269
 2877POPC   C3A38849   1.145  41.704   7.860
 2877POPC   C4A38850   1.095  41.264   7.778
 2877POPC   C1B38851   1.417  41.188   8.573
 2877POPC   C2B38852   1.347  41.382   8.211
 2877POPC   C3B38853   1.577  41.395   7.847
 2877POPC   C4B38854   1.453  41.541   7.459
 2878POPC   NC338855  26.414  17.588   9.538
 2878POPC   PO438856  27.091  17.408   9.474
 2878POPC   GL138857  26.920  17.483   9.092
 2878POPC   GL238858  26.786  17.749   9.187
 2878POPC   C1A38859  26.809  17.295   8.712
 2878POPC   D2A38860  26.542  17.197   8.362
 2878POPC   C3A38861  26.737  17.348   8.018
 2878POPC   C4A38862  26.992  17.087   7.827
 2878POPC   C1B38863  26.755  17.875   8.749
 2878POPC   C2B38864  26.664  17.767   8.301
 2878POPC   C3B38865  26.653  17.844   7.834
 2878POPC   C4B38866  26.438  17.731   7.425
 2879POPC   NC338867  30.362  34.135   9.274
 2879POPC   PO438868  30.867  33.740   9.363
 2879POPC   GL138869  30.837  33.571   9.007
 2879POPC   GL238870  30.548  33.773   8.923
 2879POPC   C1A38871  30.980  33.678   8.599
 2879POPC   D2A38872  31.123  33.652   8.185
 2879POPC   C3A38873  30.729  33.488   7.927
 2879POPC   C4A38874  30.444  33.650   7.646
 2879POPC   C1B38875  30.795  34.133   8.754
 2879POPC   C2B38876  30.820  34.322   8.320
 2879POPC   C3B38877  30.724  34.448   7.874
 2879POPC   C4B38878  30.602  34.164   7.525
 2880POPC   NC338879  43.333  27.131   9.447
 2880POPC   PO438880  42.943  27.651   9.446
 2880POPC   GL138881  43.046  27.791   9.100
 2880POPC   GL238882  43.375  27.592   9.103
 2880POPC   C1A38883  43.052  27.621   8.726
 2880POPC   D2A38884  43.229  27.662   8.353
 2880POPC   C3A38885  42.912  27.705   8.025
 2880POPC   C4A38886  42.635  27.417   7.794
 2880POPC   C1B38887  43.469  27.334   8.712
 2880POPC   C2B38888  43.402  27.151   8.323
 2880POPC   C3B38889  43.352  27.391   7.950
 2880POPC   C4B38890  43.108  27.307   7.640
 2881POPC   NC338891   1.627   1.748   9.248
 2881POPC   PO438892   2.165   2.014   9.601
 2881POPC   GL138893   1.965   2.162   9.183
 2881POPC   GL238894   2.177   2.443   9.068
 2881POPC   C1A38895   1.987   2.076   8.733
 2881POPC   D2A38896   1.982   1.911   8.304
 2881POPC   C3A38897   1.651   1.974   8.021
 2881POPC   C4A38898   1.657   1.951   7.593
 2881POPC   C1B38899   2.317   2.456   8.648
 2881POPC   C2B38900   2.245   2.328   8.213
 2881POPC   C3B38901   2.074   2.233   7.764
 2881POPC   C4B38902   2.188   2.515   7.376
 2882POPC   NC338903  26.371  20.223   9.413
 2882POPC   PO438904  26.142  19.548   9.587
 2882POPC   GL138905  26.058  19.697   9.190
 2882POPC   GL238906  25.812  19.423   9.190
 2882POPC   C1A38907  26.201  19.865   8.786
 2882POPC   D2A38908  26.366  19.876   8.355
 2882POPC   C3A38909  26.240  20.230   8.105
 2882POPC   C4A38910  26.032  20.086   7.741
 2882POPC   C1B38911  25.761  19.543   8.783
 2882POPC   C2B38912  25.954  19.561   8.418
 2882POPC   C3B38913  25.857  19.724   8.035
 2882POPC   C4B38914  25.682  19.753   7.612
 2883POPC   NC338915  33.663  44.597   9.600
 2883POPC   PO438916  33.492   0.227   9.365
 2883POPC   GL138917  33.647  44.855   9.142
 2883POPC   GL238918  34.010  44.790   9.173
 2883POPC   C1A38919  33.663  44.655   8.728
 2883POPC   D2A38920  33.499  44.641   8.317
 2883POPC   C3A38921  33.644  44.487   7.925
 2883POPC   C4A38922  33.661  44.706   7.556
 2883POPC   C1B38923  34.183  44.736   8.742
 2883POPC   C2B38924  34.018  44.766   8.298
 2883POPC   C3B38925  34.100  44.747   7.830
 2883POPC   C4B38926  34.164  44.851   7.371
 2884POPC   NC338927  19.746  17.929   9.541
 2884POPC   PO438928  19.583  18.574   9.671
 2884POPC   GL138929  19.498  18.297   9.281
 2884POPC   GL238930  19.854  18.217   9.136
 2884POPC   C1A38931  19.439  18.168   8.841
 2884POPC   D2A38932  19.679  18.334   8.503
 2884POPC   C3A38933  19.650  18.188   8.091
 2884POPC   C4A38934  19.922  18.367   7.786
 2884POPC   C1B38935  19.885  17.927   8.791
 2884POPC   C2B38936  20.001  17.934   8.363
 2884POPC   C3B38937  20.030  17.885   7.932
 2884POPC   C4B38938  20.327  18.053   7.698
 2885POPC   NC338939   8.831  42.271   9.576
 2885POPC   PO438940   9.351  42.225   9.224
 2885POPC   GL138941   8.905  42.156   9.088
 2885POPC   GL238942   8.697  42.444   9.079
 2885POPC   C1A38943   8.680  42.123   8.694
 2885POPC   D2A38944   8.899  42.120   8.347
 2885POPC   C3A38945   8.827  42.307   7.974
 2885POPC   C4A38946   8.835  42.087   7.627
 2885POPC   C1B38947   9.074  42.456   8.701
 2885POPC   C2B38948   9.053  42.652   8.281
 2885POPC   C3B38949   9.219  42.582   7.837
 2885POPC   C4B38950   9.102  42.471   7.393
 2886POPC   NC338951  22.369   1.752   9.749
 2886POPC   PO438952  21.884   2.160   9.527
 2886POPC   GL138953  22.082   2.045   9.161
 2886POPC   GL238954  22.395   1.842   9.141
 2886POPC   C1A38955  21.882   2.111   8.769
 2886POPC   D2A38956  22.031   2.235   8.362
 2886POPC   C3A38957  21.960   2.144   7.926
 2886POPC   C4A38958  22.136   1.985   7.531
 2886POPC   C1B38959  22.406   2.195   8.791
 2886POPC   C2B38960  22.545   2.233   8.342
 2886POPC   C3B38961  22.487   2.168   7.866
 2886POPC   C4B38962  22.582   2.242   7.422
 2887POPC   NC338963  43.502   8.530   9.241
 2887POPC   PO438964  43.402   9.246   9.385
 2887POPC   GL138965  43.700   9.112   9.010
 2887POPC   GL238966  44.065   8.944   9.069
 2887POPC   C1A38967  43.801   8.842   8.657
 2887POPC   D2A38968  43.837   8.635   8.276
 2887POPC   C3A38969  43.829   8.925   7.957
 2887POPC   C4A38970  43.563   9.053   7.634
 2887POPC   C1B38971  44.133   9.308   8.802
 2887POPC   C2B38972  44.109   9.241   8.398
 2887POPC   C3B38973  44.230   9.336   8.034
 2887POPC   C4B38974  44.057   9.277   7.642
 2888POPC   NC338975   3.489  27.708   9.538
 2888POPC   PO438976   3.768  27.106   9.660
 2888POPC   GL138977   3.733  27.380   9.239
 2888POPC   GL238978   3.453  27.598   9.046
 2888POPC   C1A38979   3.780  27.305   8.798
 2888POPC   D2A38980   3.640  27.463   8.413
 2888POPC   C3A38981   3.605  27.224   8.032
 2888POPC   C4A38982   3.420  27.469   7.706
 2888POPC   C1B38983   3.794  27.820   8.779
 2888POPC   C2B38984   3.853  27.951   8.340
 2888POPC   C3B38985   3.719  27.928   7.891
 2888POPC   C4B38986   3.791  27.941   7.421
 2889POPC   NC338987  39.619  43.551   9.426
 2889POPC   PO438988  40.091  43.138   9.609
 2889POPC   GL138989  39.937  43.020   9.215
 2889POPC   GL238990  39.640  43.174   9.073
 2889POPC   C1A38991  40.032  42.955   8.776
 2889POPC   D2A38992  39.868  43.153   8.423
 2889POPC   C3A38993  39.957  42.975   8.031
 2889POPC   C4A38994  40.049  43.144   7.638
 2889POPC   C1B38995  39.595  43.513   8.767
 2889POPC   C2B38996  39.682  43.622   8.352
 2889POPC   C3B38997  39.710  43.415   7.964
 2889POPC   C4B38998  39.763  43.557   7.542
 2890POPC   NC338999  19.382  37.180   9.333
 2890POPC   PO439000  18.898  36.688   9.468
 2890POPC   GL139001  19.001  36.791   9.078
 2890POPC   GL239002  19.101  36.457   9.026
 2890POPC   C1A39003  18.954  37.046   8.710
 2890POPC   D2A39004  19.110  37.172   8.332
 2890POPC   C3A39005  18.895  37.214   7.946
 2890POPC   C4A39006  19.071  37.197   7.530
 2890POPC   C1B39007  19.248  36.592   8.662
 2890POPC   C2B39008  19.155  36.540   8.274
 2890POPC   C3B39009  19.131  36.530   7.890
 2890POPC   C4B39010  18.848  36.751   7.675
 2891POPC   NC339011  11.587  31.750   9.378
 2891POPC   PO439012  12.090  31.348   9.700
 2891POPC   GL139013  12.017  31.484   9.301
 2891POPC   GL239014  11.746  31.235   9.267
 2891POPC   C1A39015  12.266  31.703   8.939
 2891POPC   D2A39016  12.318  31.908   8.540
 2891POPC   C3A39017  12.221  31.595   8.230
 2891POPC   C4A39018  12.015  31.692   7.844
 2891POPC   C1B39019  11.932  31.316   8.849
 2891POPC   C2B39020  11.871  31.263   8.425
 2891POPC   C3B39021  11.777  31.252   8.003
 2891POPC   C4B39022  12.099  31.213   7.732
 2892POPC   NC339023  44.056  41.787   9.577
 2892POPC   PO439024  43.659  41.224   9.503
 2892POPC   GL139025  43.867  41.343   9.141
 2892POPC   GL239026  43.915  41.654   9.100
 2892POPC   C1A39027  43.746  41.374   8.680
 2892POPC   D2A39028  43.696  41.627   8.274
 2892POPC   C3A39029  43.955  41.534   7.897
 2892POPC   C4A39030  43.745  41.425   7.525
 2892POPC   C1B39031  43.971  41.843   8.685
 2892POPC   C2B39032  44.083  41.975   8.263
 2892POPC   C3B39033  43.877  42.021   7.877
 2892POPC   C4B39034  43.860  41.953   7.443
 2893POPC   NC339035  22.337  14.471   9.420
 2893POPC   PO439036  21.710  14.401   9.500
 2893POPC   GL139037  21.902  14.551   9.089
 2893POPC   GL239038  22.150  14.293   8.973
 2893POPC   C1A39039  21.943  14.646   8.612
 2893POPC   D2A39040  22.116  14.432   8.197
 2893POPC   C3A39041  22.011  14.649   7.786
 2893POPC   C4A39042  21.963  14.738   7.324
 2893POPC   C1B39043  22.425  14.464   8.643
 2893POPC   C2B39044  22.665  14.323   8.318
 2893POPC   C3B39045  22.497  14.045   8.031
 2893POPC   C4B39046  22.247  14.204   7.705
 2894POPC   NC339047  32.478  39.128   9.376
 2894POPC   PO439048  33.069  38.930   9.591
 2894POPC   GL139049  32.934  39.024   9.185
 2894POPC   GL239050  32.941  39.347   9.032
 2894POPC   C1A39051  32.828  38.896   8.781
 2894POPC   D2A39052  32.979  39.036   8.402
 2894POPC   C3A39053  32.814  39.289   8.061
 2894POPC   C4A39054  32.547  39.121   7.768
 2894POPC   C1B39055  32.910  39.529   8.630
 2894POPC   C2B39056  33.167  39.581   8.299
 2894POPC   C3B39057  33.337  39.217   8.122
 2894POPC   C4B39058  33.122  39.031   7.752
 2895POPC   NC339059  11.504  38.998   9.532
 2895POPC   PO439060  11.012  39.453   9.380
 2895POPC   GL139061  11.261  39.200   9.109
 2895POPC   GL239062  11.645  39.247   9.112
 2895POPC   C1A39063  11.156  39.115   8.695
 2895POPC   D2A39064  11.323  39.131   8.299
 2895POPC   C3A39065  11.026  39.268   8.043
 2895POPC   C4A39066  11.058  39.453   7.685
 2895POPC   C1B39067  11.507  39.523   8.762
 2895POPC   C2B39068  11.587  39.723   8.365
 2895POPC   C3B39069  11.445  39.569   8.022
 2895POPC   C4B39070  11.581  39.432   7.667
 2896POPC   NC339071   4.506  44.863   9.300
 2896POPC   PO439072   4.155  44.355   9.562
 2896POPC   GL139073   4.189  44.465   9.143
 2896POPC   GL239074   4.540  44.385   9.111
 2896POPC   C1A39075   4.054  44.702   8.788
 2896POPC   D2A39076   4.077  44.685   8.335
 2896POPC   C3A39077   4.189  44.993   7.971
 2896POPC   C4A39078   4.170  44.868   7.531
 2896POPC   C1B39079   4.495  44.469   8.675
 2896POPC   C2B39080   4.563  44.654   8.263
 2896POPC   C3B39081   4.307  44.508   7.880
 2896POPC   C4B39082   4.400  44.416   7.406
 2897POPC   NC339083  44.241   3.155   9.583
 2897POPC   PO439084  44.007   2.551   9.446
 2897POPC   GL139085  43.776   2.789   9.162
 2897POPC   GL239086  43.712   2.493   8.973
 2897POPC   C1A39087  43.780   2.964   8.747
 2897POPC   D2A39088  43.810   2.737   8.359
 2897POPC   C3A39089  43.916   3.068   8.035
 2897POPC   C4A39090  44.252   3.145   7.742
 2897POPC   C1B39091  44.144   2.551   8.775
 2897POPC   C2B39092  44.306   2.632   8.364
 2897POPC   C3B39093  44.130   2.617   7.934
 2897POPC   C4B39094  43.840   2.386   7.718
 2898POPC   NC339095  41.512  19.965   9.415
 2898POPC   PO439096  42.005  19.513   9.425
 2898POPC   GL139097  41.743  19.666   9.054
 2898POPC   GL239098  41.374  19.697   9.014
 2898POPC   C1A39099  41.675  19.968   8.704
 2898POPC   D2A39100  41.543  20.151   8.294
 2898POPC   C3A39101  41.728  19.929   7.969
 2898POPC   C4A39102  41.581  19.792   7.584
 2898POPC   C1B39103  41.144  19.920   8.705
 2898POPC   C2B39104  40.969  19.969   8.310
 2898POPC   C3B39105  41.204  19.929   7.936
 2898POPC   C4B39106  41.430  20.265   7.730
 2899POPC   NC339107   2.017   4.913   9.547
 2899POPC   PO439108   2.007   5.572   9.719
 2899POPC   GL139109   1.942   5.386   9.219
 2899POPC   GL239110   2.046   5.054   9.064
 2899POPC   C1A39111   1.676   5.262   8.798
 2899POPC   D2A39112   1.487   5.336   8.384
 2899POPC   C3A39113   1.696   5.212   8.002
 2899POPC   C4A39114   1.826   5.387   7.646
 2899POPC   C1B39115   2.195   5.261   8.691
 2899POPC   C2B39116   2.161   5.156   8.236
 2899POPC   C3B39117   2.178   4.993   7.800
 2899POPC   C4B39118   2.243   5.222   7.426
 2900POPC   NC339119  26.222  36.570   9.605
 2900POPC   PO439120  26.189  35.899   9.532
 2900POPC   GL139121  26.075  36.189   9.232
 2900POPC   GL239122  26.397  36.379   9.142
 2900POPC   C1A39123  25.857  36.051   8.858
 2900POPC   D2A39124  25.968  35.908   8.452
 2900POPC   C3A39125  25.713  36.016   8.088
 2900POPC   C4A39126  25.745  36.324   7.771
 2900POPC   C1B39127  26.355  36.143   8.788
 2900POPC   C2B39128  26.397  36.192   8.371
 2900POPC   C3B39129  26.212  35.983   7.999
 2900POPC   C4B39130  26.344  36.176   7.603
 2901POPC   NC339131  24.365  33.779   9.498
 2901POPC   PO439132  24.792  33.395   9.128
 2901POPC   GL139133  24.439  33.673   8.996
 2901POPC   GL239134  24.366  34.017   9.050
 2901POPC   C1A39135  24.235  33.726   8.625
 2901POPC   D2A39136  24.196  33.458   8.275
 2901POPC   C3A39137  24.568  33.481   8.084
 2901POPC   C4A39138  24.749  33.461   7.697
 2901POPC   C1B39139  24.605  34.111   8.683
 2901POPC   C2B39140  24.505  34.034   8.251
 2901POPC   C3B39141  24.374  33.935   7.839
 2901POPC   C4B39142  24.360  34.093   7.410
 2902POPC   NC339143  29.018   4.620   9.469
 2902POPC   PO439144  29.416   4.069   9.690
 2902POPC   GL139145  29.266   4.243   9.252
 2902POPC   GL239146  29.509   4.180   9.082
 2902POPC   C1A39147  29.168   4.464   8.802
 2902POPC   D2A39148  29.122   4.298   8.353
 2902POPC   C3A39149  28.859   4.374   7.955
 2902POPC   C4A39150  28.578   4.210   7.611
 2902POPC   C1B39151  29.412   4.031   8.703
 2902POPC   C2B39152  29.435   3.819   8.320
 2902POPC   C3B39153  29.277   4.026   7.956
 2902POPC   C4B39154  29.345   4.491   7.844
 2903POPC   NC339155  22.043  36.003   9.455
 2903POPC   PO439156  22.513  36.493   9.484
 2903POPC   GL139157  22.301  36.324   9.118
 2903POPC   GL239158  22.325  35.983   9.038
 2903POPC   C1A39159  21.922  36.230   8.814
 2903POPC   D2A39160  21.777  36.321   8.358
 2903POPC   C3A39161  21.984  36.346   7.927
 2903POPC   C4A39162  21.928  35.987   7.687
 2903POPC   C1B39163  22.419  36.132   8.668
 2903POPC   C2B39164  22.303  36.231   8.302
 2903POPC   C3B39165  22.367  35.998   7.971
 2903POPC   C4B39166  22.440  36.097   7.609
 2904POPC   NC339167  36.678  23.635   9.415
 2904POPC   PO439168  37.189  24.097   9.584
 2904POPC   GL139169  37.046  23.895   9.195
 2904POPC   GL239170  36.718  23.966   9.022
 2904POPC   C1A39171  37.012  23.573   8.847
 2904POPC   D2A39172  36.945  23.363   8.498
 2904POPC   C3A39173  36.994  23.619   8.141
 2904POPC   C4A39174  36.675  23.528   7.851
 2904POPC   C1B39175  37.108  24.044   8.728
 2904POPC   C2B39176  37.109  24.270   8.407
 2904POPC   C3B39177  36.833  24.144   8.116
 2904POPC   C4B39178  36.952  23.981   7.746
 2905POPC   NC339179  40.651  28.791   9.509
 2905POPC   PO439180  41.092  29.273   9.522
 2905POPC   GL139181  40.749  29.284   9.251
 2905POPC   GL239182  40.921  29.015   9.079
 2905POPC   C1A39183  40.735  29.405   8.822
 2905POPC   D2A39184  40.810  29.162   8.461
 2905POPC   C3A39185  40.778  29.382   8.070
 2905POPC   C4A39186  40.733  29.212   7.658
 2905POPC   C1B39187  40.537  28.884   8.849
 2905POPC   C2B39188  40.342  28.914   8.444
 2905POPC   C3B39189  40.577  28.913   8.055
 2905POPC   C4B39190  40.451  28.790   7.648
 2906POPC   NC339191  11.718  16.620   9.490
 2906POPC   PO439192  11.997  17.183   9.382
 2906POPC   GL139193  12.004  16.833   9.110
 2906POPC   GL239194  12.295  16.660   9.126
 2906POPC   C1A39195  11.854  16.596   8.754
 2906POPC   D2A39196  11.637  16.526   8.357
 2906POPC   C3A39197  11.936  16.561   7.999
 2906POPC   C4A39198  12.100  16.691   7.578
 2906POPC   C1B39199  12.335  16.776   8.691
 2906POPC   C2B39200  12.361  16.692   8.245
 2906POPC   C3B39201  12.468  16.897   7.865
 2906POPC   C4B39202  12.531  16.898   7.401
 2907POPC   NC339203  21.370  24.275   9.610
 2907POPC   PO439204  21.787  24.770   9.553
 2907POPC   GL139205  21.503  24.627   9.229
 2907POPC   GL239206  21.574  24.291   9.126
 2907POPC   C1A39207  21.320  24.667   8.814
 2907POPC   D2A39208  21.285  24.502   8.392
 2907POPC   C3A39209  21.126  24.693   8.033
 2907POPC   C4A39210  21.348  24.553   7.665
 2907POPC   C1B39211  21.344  24.131   8.764
 2907POPC   C2B39212  21.101  24.033   8.403
 2907POPC   C3B39213  21.129  24.158   7.965
 2907POPC   C4B39214  20.880  24.007   7.621
 2908POPC   NC339215  28.596  28.867   9.324
 2908POPC   PO439216  28.453  29.545   9.504
 2908POPC   GL139217  28.437  29.314   9.113
 2908POPC   GL239218  28.747  29.400   9.057
 2908POPC   C1A39219  28.498  29.138   8.668
 2908POPC   D2A39220  28.335  29.207   8.222
 2908POPC   C3A39221  28.287  28.946   7.847
 2908POPC   C4A39222  28.136  28.964   7.418
 2908POPC   C1B39223  28.938  29.497   8.692
 2908POPC   C2B39224  28.839  29.321   8.312
 2908POPC   C3B39225  28.693  29.414   7.932
 2908POPC   C4B39226  28.340  29.407   7.669
 2909POPC   NC339227   3.607  20.326   9.572
 2909POPC   PO439228   3.381  19.701   9.339
 2909POPC   GL139229   3.515  19.983   9.033
 2909POPC   GL239230   3.847  20.014   9.179
 2909POPC   C1A39231   3.429  19.912   8.563
 2909POPC   D2A39232   3.285  20.166   8.210
 2909POPC   C3A39233   3.512  20.133   7.835
 2909POPC   C4A39234   3.692  20.084   7.438
 2909POPC   C1B39235   3.920  19.983   8.699
 2909POPC   C2B39236   3.842  19.938   8.205
 2909POPC   C3B39237   3.792  19.684   7.774
 2909POPC   C4B39238   4.062  19.316   7.600
 2910POPC   NC339239  24.534  41.223   9.793
 2910POPC   PO439240  24.219  40.744   9.367
 2910POPC   GL139241  24.614  40.557   9.140
 2910POPC   GL239242  24.829  40.287   9.269
 2910POPC   C1A39243  24.751  40.730   8.741
 2910POPC   D2A39244  24.486  40.919   8.472
 2910POPC   C3A39245  24.610  40.817   8.086
 2910POPC   C4A39246  24.247  40.777   7.789
 2910POPC   C1B39247  24.855  40.233   8.823
 2910POPC   C2B39248  24.923  40.382   8.414
 2910POPC   C3B39249  24.831  40.371   7.981
 2910POPC   C4B39250  24.693  40.587   7.617
 2911POPC   NC339251   2.061   2.479   9.567
 2911POPC   PO439252   1.669   3.023   9.546
 2911POPC   GL139253   1.926   2.862   9.227
 2911POPC   GL239254   1.669   2.898   9.036
 2911POPC   C1A39255   2.123   2.952   8.796
 2911POPC   D2A39256   2.020   2.788   8.358
 2911POPC   C3A39257   2.211   2.755   7.952
 2911POPC   C4A39258   2.186   3.050   7.646
 2911POPC   C1B39259   1.789   2.567   8.749
 2911POPC   C2B39260   1.743   2.351   8.375
 2911POPC   C3B39261   1.726   2.488   7.984
 2911POPC   C4B39262   1.803   2.685   7.642
 2912POPC   NC339263   4.427  10.029   9.482
 2912POPC   PO439264   4.575   9.349   9.527
 2912POPC   GL139265   4.362   9.615   9.163
 2912POPC   GL239266   4.260   9.953   9.018
 2912POPC   C1A39267   4.214   9.542   8.750
 2912POPC   D2A39268   4.090   9.774   8.438
 2912POPC   C3A39269   4.193   9.505   8.119
 2912POPC   C4A39270   4.114   9.521   7.731
 2912POPC   C1B39271   4.571  10.137   8.774
 2912POPC   C2B39272   4.502  10.217   8.344
 2912POPC   C3B39273   4.338   9.961   8.026
 2912POPC   C4B39274   4.517   9.828   7.641
 2913POPC   NC339275  28.636   0.532   9.213
 2913POPC   PO439276  29.245   0.689   9.451
 2913POPC   GL139277  29.078   0.766   9.075
 2913POPC   GL239278  29.089   0.419   8.960
 2913POPC   C1A39279  29.227   0.827   8.678
 2913POPC   D2A39280  29.160   0.589   8.324
 2913POPC   C3A39281  29.274   0.768   7.942
 2913POPC   C4A39282  29.335   0.711   7.526
 2913POPC   C1B39283  29.211   0.089   8.657
 2913POPC   C2B39284  29.290   0.102   8.211
 2913POPC   C3B39285  29.050   0.323   7.895
 2913POPC   C4B39286  28.697   0.205   7.690
 2914POPC   NC339287  22.951  36.409   9.557
 2914POPC   PO439288  23.274  35.796   9.489
 2914POPC   GL139289  23.092  36.077   9.193
 2914POPC   GL239290  22.771  36.105   9.204
 2914POPC   C1A39291  23.173  36.363   8.840
 2914POPC   D2A39292  23.307  36.152   8.475
 2914POPC   C3A39293  23.182  36.237   8.090
 2914POPC   C4A39294  23.193  36.198   7.669
 2914POPC   C1B39295  22.880  35.953   8.753
 2914POPC   C2B39296  22.732  35.892   8.321
 2914POPC   C3B39297  22.865  35.873   7.881
 2914POPC   C4B39298  22.841  35.837   7.426
 2915POPC   NC339299  40.021   7.196   9.498
 2915POPC   PO439300  40.059   7.891   9.399
 2915POPC   GL139301  39.923   7.575   9.103
 2915POPC   GL239302  40.222   7.394   9.075
 2915POPC   C1A39303  40.040   7.499   8.641
 2915POPC   D2A39304  40.345   7.325   8.388
 2915POPC   C3A39305  40.270   7.640   8.116
 2915POPC   C4A39306  39.951   7.624   7.798
 2915POPC   C1B39307  39.989   7.040   8.848
 2915POPC   C2B39308  39.959   6.983   8.394
 2915POPC   C3B39309  39.707   7.175   8.069
 2915POPC   C4B39310  39.425   6.971   7.790
 2916POPC   NC339311  41.825  29.149   9.748
 2916POPC   PO439312  42.474  29.088   9.547
 2916POPC   GL139313  42.410  29.043   9.159
 2916POPC   GL239314  42.674  29.249   9.078
 2916POPC   C1A39315  42.279  29.029   8.751
 2916POPC   D2A39316  42.139  28.801   8.396
 2916POPC   C3A39317  42.263  29.022   8.034
 2916POPC   C4A39318  42.120  29.114   7.652
 2916POPC   C1B39319  42.736  29.327   8.707
 2916POPC   C2B39320  42.521  29.442   8.367
 2916POPC   C3B39321  42.702  29.328   8.012
 2916POPC   C4B39322  42.628  29.127   7.643
 2917POPC   NC339323  18.821  36.336   9.763
 2917POPC   PO439324  18.262  36.096   9.562
 2917POPC   GL139325  18.182  36.089   9.125
 2917POPC   GL239326  18.207  36.458   9.181
 2917POPC   C1A39327  18.007  36.026   8.678
 2917POPC   D2A39328  17.969  35.934   8.226
 2917POPC   C3A39329  18.285  36.052   7.911
 2917POPC   C4A39330  18.431  36.039   7.434
 2917POPC   C1B39331  18.170  36.507   8.775
 2917POPC   C2B39332  18.308  36.341   8.403
 2917POPC   C3B39333  18.278  36.561   8.052
 2917POPC   C4B39334  18.420  36.481   7.681
 2918POPC   NC339335   0.283  22.088   9.624
 2918POPC   PO439336   0.913  21.820   9.533
 2918POPC   GL139337   0.557  21.945   9.191
 2918POPC   GL239338   0.260  22.233   9.153
 2918POPC   C1A39339   0.459  22.015   8.735
 2918POPC   D2A39340   0.314  21.858   8.327
 2918POPC   C3A39341   0.520  22.037   7.979
 2918POPC   C4A39342   0.535  22.427   7.757
 2918POPC   C1B39343   0.019  22.438   8.846
 2918POPC   C2B39344   0.154  22.379   8.450
 2918POPC   C3B39345   0.122  22.447   8.062
 2918POPC   C4B39346   0.053  22.532   7.642
 2919POPC   NC339347  18.428  10.204   9.452
 2919POPC   PO439348  18.447  10.828   9.576
 2919POPC   GL139349  18.343  10.674   9.207
 2919POPC   GL239350  18.004  10.641   9.231
 2919POPC   C1A39351  18.469  10.506   8.817
 2919POPC   D2A39352  18.290  10.583   8.432
 2919POPC   C3A39353  18.349  10.358   8.077
 2919POPC   C4A39354  18.530  10.422   7.714
 2919POPC   C1B39355  17.819  10.870   8.883
 2919POPC   C2B39356  17.806  10.848   8.429
 2919POPC   C3B39357  17.761  10.793   7.976
 2919POPC   C4B39358  17.996  10.475   7.692
 2920POPC   NC339359   2.902   4.755   9.460
 2920POPC   PO439360   2.416   5.135   9.403
 2920POPC   GL139361   2.762   5.169   9.138
 2920POPC   GL239362   2.926   4.862   8.975
 2920POPC   C1A39363   2.728   5.242   8.715
 2920POPC   D2A39364   2.621   4.935   8.412
 2920POPC   C3A39365   2.644   5.115   8.025
 2920POPC   C4A39366   2.752   5.376   7.726
 2920POPC   C1B39367   3.105   4.903   8.575
 2920POPC   C2B39368   3.089   4.867   8.144
 2920POPC   C3B39369   3.017   4.902   7.709
 2920POPC   C4B39370   3.132   4.816   7.254
 2921POPC   NC339371  29.741  16.855   9.634
 2921POPC   PO439372  29.134  16.988   9.673
 2921POPC   GL139373  29.023  16.911   9.235
 2921POPC   GL239374  28.966  17.206   9.090
 2921POPC   C1A39375  29.191  16.712   8.833
 2921POPC   D2A39376  29.386  16.859   8.402
 2921POPC   C3A39377  29.265  16.634   7.991
 2921POPC   C4A39378  29.411  16.722   7.537
 2921POPC   C1B39379  28.814  17.029   8.736
 2921POPC   C2B39380  28.880  16.794   8.402
 2921POPC   C3B39381  28.990  17.054   8.105
 2921POPC   C4B39382  28.995  16.977   7.710
 2922POPC   NC339383  32.593  40.867   9.367
 2922POPC   PO439384  33.210  40.922   9.633
 2922POPC   GL139385  33.060  40.980   9.220
 2922POPC   GL239386  32.987  40.630   9.171
 2922POPC   C1A39387  33.091  41.184   8.807
 2922POPC   D2A39388  33.013  40.909   8.448
 2922POPC   C3A39389  32.925  41.055   8.035
 2922POPC   C4A39390  33.116  40.946   7.654
 2922POPC   C1B39391  32.857  40.532   8.777
 2922POPC   C2B39392  33.123  40.367   8.488
 2922POPC   C3B39393  33.103  40.518   8.104
 2922POPC   C4B39394  33.093  40.449   7.716
 2923POPC   NC339395   8.872  27.114   9.517
 2923POPC   PO439396   9.278  27.689   9.749
 2923POPC   GL139397   9.111  27.787   9.323
 2923POPC   GL239398   8.982  27.463   9.154
 2923POPC   C1A39399   8.982  27.907   8.881
 2923POPC   D2A39400   8.976  27.622   8.528
 2923POPC   C3A39401   8.904  27.679   8.093
 2923POPC   C4A39402   8.814  27.645   7.653
 2923POPC   C1B39403   8.675  27.297   8.801
 2923POPC   C2B39404   8.624  27.289   8.325
 2923POPC   C3B39405   8.667  27.211   7.870
 2923POPC   C4B39406   8.695  27.217   7.403
 2924POPC   NC339407   7.705  25.342   9.778
 2924POPC   PO439408   7.355  24.958   9.403
 2924POPC   GL139409   7.201  25.238   9.088
 2924POPC   GL239410   7.158  24.998   8.848
 2924POPC   C1A39411   7.363  25.413   8.674
 2924POPC   D2A39412   7.377  25.105   8.306
 2924POPC   C3A39413   7.218  25.229   7.901
 2924POPC   C4A39414   7.282  25.546   7.548
 2924POPC   C1B39415   7.635  25.002   8.744
 2924POPC   C2B39416   7.882  25.183   8.390
 2924POPC   C3B39417   7.746  25.202   7.949
 2924POPC   C4B39418   7.697  25.231   7.483
 2925POPC   NC339419   1.977   8.665   9.429
 2925POPC   PO439420   2.105   9.323   9.504
 2925POPC   GL139421   2.004   9.214   9.082
 2925POPC   GL239422   2.223   8.960   9.093
 2925POPC   C1A39423   1.921   8.980   8.672
 2925POPC   D2A39424   1.856   8.907   8.232
 2925POPC   C3A39425   2.002   9.214   7.937
 2925POPC   C4A39426   1.929   9.283   7.527
 2925POPC   C1B39427   2.428   9.000   8.721
 2925POPC   C2B39428   2.350   9.174   8.323
 2925POPC   C3B39429   2.466   8.999   7.915
 2925POPC   C4B39430   2.272   8.896   7.497
 2926POPC   NC339431  19.125  25.420   9.908
 2926POPC   PO439432  18.579  25.137   9.620
 2926POPC   GL139433  18.960  25.174   9.304
 2926POPC   GL239434  19.142  25.480   9.176
 2926POPC   C1A39435  19.125  25.008   8.889
 2926POPC   D2A39436  19.011  25.221   8.487
 2926POPC   C3A39437  19.159  25.088   8.087
 2926POPC   C4A39438  19.004  25.228   7.728
 2926POPC   C1B39439  19.363  25.456   8.760
 2926POPC   C2B39440  19.478  25.449   8.304
 2926POPC   C3B39441  19.424  25.533   7.854
 2926POPC   C4B39442  19.474  25.512   7.381
 2927POPC   NC339443  19.347   9.287   9.542
 2927POPC   PO439444  18.777   8.935   9.546
 2927POPC   GL139445  18.990   8.970   9.161
 2927POPC   GL239446  19.356   8.865   9.192
 2927POPC   C1A39447  18.992   8.706   8.769
 2927POPC   D2A39448  18.858   8.648   8.326
 2927POPC   C3A39449  18.946   8.939   7.986
 2927POPC   C4A39450  18.861   9.244   7.624
 2927POPC   C1B39451  19.341   9.089   8.813
 2927POPC   C2B39452  19.357   8.870   8.433
 2927POPC   C3B39453  19.434   8.672   8.084
 2927POPC   C4B39454  19.345   8.781   7.727
 2928POPC   NC339455  43.647  26.608   9.489
 2928POPC   PO439456  42.925  26.662   9.591
 2928POPC   GL139457  43.063  26.787   9.168
 2928POPC   GL239458  43.293  26.532   9.154
 2928POPC   C1A39459  43.024  27.090   8.790
 2928POPC   D2A39460  42.862  27.297   8.395
 2928POPC   C3A39461  42.944  27.058   8.051
 2928POPC   C4A39462  42.848  26.832   7.692
 2928POPC   C1B39463  43.195  26.438   8.760
 2928POPC   C2B39464  43.129  26.706   8.411
 2928POPC   C3B39465  43.065  26.530   8.029
 2928POPC   C4B39466  42.905  26.167   7.826
 2929POPC   NC339467  23.876  14.625   9.460
 2929POPC   PO439468  23.448  15.152   9.501
 2929POPC   GL139469  23.613  14.969   9.163
 2929POPC   GL239470  23.606  15.317   9.037
 2929POPC   C1A39471  23.699  14.935   8.734
 2929POPC   D2A39472  23.755  15.212   8.396
 2929POPC   C3A39473  23.550  15.111   8.025
 2929POPC   C4A39474  23.636  14.983   7.646
 2929POPC   C1B39475  23.332  15.423   8.747
 2929POPC   C2B39476  23.343  15.537   8.360
 2929POPC   C3B39477  23.522  15.617   8.002
 2929POPC   C4B39478  23.379  15.458   7.665
 2930POPC   NC339479  37.180  11.471   9.583
 2930POPC   PO439480  36.815  10.930   9.494
 2930POPC   GL139481  36.760  11.232   9.222
 2930POPC   GL239482  37.092  11.210   9.151
 2930POPC   C1A39483  36.736  11.250   8.781
 2930POPC   D2A39484  36.910  11.421   8.432
 2930POPC   C3A39485  36.778  11.327   8.023
 2930POPC   C4A39486  36.938  11.508   7.651
 2930POPC   C1B39487  37.285  11.317   8.794
 2930POPC   C2B39488  37.428  11.449   8.414
 2930POPC   C3B39489  37.298  11.400   8.003
 2930POPC   C4B39490  37.276  11.055   7.711
 2931POPC   NC339491   2.234  28.757   9.528
 2931POPC   PO439492   2.044  28.137   9.587
 2931POPC   GL139493   1.870  28.152   9.156
 2931POPC   GL239494   2.037  28.478   9.144
 2931POPC   C1A39495   1.843  28.362   8.710
 2931POPC   D2A39496   2.063  28.599   8.384
 2931POPC   C3A39497   1.910  28.324   8.090
 2931POPC   C4A39498   1.898  28.124   7.674
 2931POPC   C1B39499   2.361  28.598   8.799
 2931POPC   C2B39500   2.575  28.489   8.393
 2931POPC   C3B39501   2.401  28.353   8.037
 2931POPC   C4B39502   2.167  28.547   7.697
 2932POPC   NC339503   9.930  23.183   9.590
 2932POPC   PO439504   9.360  22.811   9.551
 2932POPC   GL139505   9.629  23.008   9.230
 2932POPC   GL239506   9.943  22.789   9.172
 2932POPC   C1A39507   9.920  23.250   8.928
 2932POPC   D2A39508  10.011  23.307   8.483
 2932POPC   C3A39509   9.791  23.102   8.135
 2932POPC   C4A39510   9.965  22.950   7.734
 2932POPC   C1B39511   9.656  22.815   8.779
 2932POPC   C2B39512   9.381  22.580   8.499
 2932POPC   C3B39513   9.555  22.540   8.084
 2932POPC   C4B39514   9.493  22.755   7.689
 2933POPC   NC339515  26.419  24.531   9.386
 2933POPC   PO439516  27.153  24.385   9.495
 2933POPC   GL139517  26.874  24.342   9.183
 2933POPC   GL239518  26.888  24.669   9.092
 2933POPC   C1A39519  26.715  24.237   8.770
 2933POPC   D2A39520  26.439  24.350   8.400
 2933POPC   C3A39521  26.579  24.251   7.975
 2933POPC   C4A39522  26.771  24.347   7.583
 2933POPC   C1B39523  26.631  24.783   8.747
 2933POPC   C2B39524  26.531  24.883   8.332
 2933POPC   C3B39525  26.500  24.759   7.919
 2933POPC   C4B39526  26.328  24.916   7.541
 2934POPC   NC339527  42.505  41.165   9.512
 2934POPC   PO439528  41.935  41.657   9.502
 2934POPC   GL139529  42.280  41.727   9.227
 2934POPC   GL239530  42.435  41.430   9.069
 2934POPC   C1A39531  42.331  41.858   8.824
 2934POPC   D2A39532  42.328  41.540   8.517
 2934POPC   C3A39533  42.285  41.663   8.105
 2934POPC   C4A39534  42.221  41.366   7.826
 2934POPC   C1B39535  42.742  41.181   8.829
 2934POPC   C2B39536  42.904  41.141   8.409
 2934POPC   C3B39537  42.788  41.275   7.978
 2934POPC   C4B39538  42.615  41.195   7.558
 2935POPC   NC339539  15.297   0.926   9.501
 2935POPC   PO439540  15.069   1.493   9.553
 2935POPC   GL139541  15.299   1.315   9.172
 2935POPC   GL239542  15.620   1.234   9.178
 2935POPC   C1A39543  15.396   1.428   8.754
 2935POPC   D2A39544  15.169   1.298   8.403
 2935POPC   C3A39545  15.340   1.420   8.037
 2935POPC   C4A39546  15.172   1.329   7.670
 2935POPC   C1B39547  15.455   0.923   8.814
 2935POPC   C2B39548  15.310   0.771   8.390
 2935POPC   C3B39549  15.200   0.894   7.957
 2935POPC   C4B39550  15.432   0.910   7.559
 2936POPC   NC339551  42.562  42.028   9.524
 2936POPC   PO439552  42.147  42.445   9.606
 2936POPC   GL139553  42.218  42.263   9.200
 2936POPC   GL239554  42.557  42.302   9.102
 2936POPC   C1A39555  42.157  42.330   8.755
 2936POPC   D2A39556  42.191  42.112   8.371
 2936POPC   C3A39557  42.001  42.371   8.039
 2936POPC   C4A39558  41.819  42.279   7.643
 2936POPC   C1B39559  42.684  42.215   8.694
 2936POPC   C2B39560  42.634  42.357   8.290
 2936POPC   C3B39561  42.468  42.135   7.932
 2936POPC   C4B39562  42.569  42.177   7.496
 2937POPC   NC339563   5.535  32.703   9.439
 2937POPC   PO439564   4.985  33.147   9.495
 2937POPC   GL139565   4.999  33.090   9.076
 2937POPC   GL239566   5.345  33.018   9.088
 2937POPC   C1A39567   5.129  33.186   8.652
 2937POPC   D2A39568   4.944  33.233   8.257
 2937POPC   C3A39569   5.156  33.072   7.902
 2937POPC   C4A39570   4.926  32.737   7.699
 2937POPC   C1B39571   5.285  32.681   8.764
 2937POPC   C2B39572   5.247  32.790   8.327
 2937POPC   C3B39573   5.398  32.630   7.923
 2937POPC   C4B39574   5.410  32.769   7.494
 2938POPC   NC339575  26.590  39.019   9.564
 2938POPC   PO439576  26.818  39.727   9.698
 2938POPC   GL139577  26.865  39.386   9.336
 2938POPC   GL239578  27.176  39.354   9.281
 2938POPC   C1A39579  26.687  39.219   8.910
 2938POPC   D2A39580  26.586  38.932   8.528
 2938POPC   C3A39581  26.575  39.107   8.101
 2938POPC   C4A39582  26.550  39.373   7.717
 2938POPC   C1B39583  27.182  39.301   8.824
 2938POPC   C2B39584  26.927  39.349   8.456
 2938POPC   C3B39585  26.935  39.490   8.049
 2938POPC   C4B39586  27.136  39.372   7.688
 2939POPC   NC339587  25.930  15.528   9.451
 2939POPC   PO439588  25.622  16.105   9.501
 2939POPC   GL139589  26.032  16.048   9.217
 2939POPC   GL239590  26.129  15.736   9.020
 2939POPC   C1A39591  26.301  16.179   8.843
 2939POPC   D2A39592  26.384  16.036   8.432
 2939POPC   C3A39593  26.124  16.035   8.106
 2939POPC   C4A39594  25.758  16.130   7.908
 2939POPC   C1B39595  26.212  15.516   8.618
 2939POPC   C2B39596  26.308  15.543   8.207
 2939POPC   C3B39597  26.087  15.589   7.840
 2939POPC   C4B39598  26.119  15.554   7.412
 2940POPC   NC339599  41.790  26.706   9.570
 2940POPC   PO439600  41.179  26.925   9.492
 2940POPC   GL139601  41.460  26.858   9.129
 2940POPC   GL239602  41.718  26.601   9.088
 2940POPC   C1A39603  41.412  26.718   8.702
 2940POPC   D2A39604  41.131  26.668   8.368
 2940POPC   C3A39605  41.389  26.686   8.039
 2940POPC   C4A39606  41.603  26.866   7.719
 2940POPC   C1B39607  41.905  26.496   8.737
 2940POPC   C2B39608  41.791  26.599   8.364
 2940POPC   C3B39609  41.978  26.771   8.068
 2940POPC   C4B39610  42.038  26.595   7.704
 2941POPC   NC339611  30.972  36.264   9.467
 2941POPC   PO439612  30.766  35.662   9.427
 2941POPC   GL139613  30.964  35.887   9.118
 2941POPC   GL239614  30.703  36.113   9.052
 2941POPC   C1A39615  31.082  35.960   8.711
 2941POPC   D2A39616  30.799  36.035   8.384
 2941POPC   C3A39617  30.884  35.887   7.938
 2941POPC   C4A39618  30.666  35.797   7.525
 2941POPC   C1B39619  30.854  36.412   8.763
 2941POPC   C2B39620  30.782  36.556   8.365
 2941POPC   C3B39621  30.642  36.335   8.015
 2941POPC   C4B39622  30.673  36.299   7.611
 2942POPC   NC339623  14.788  17.401   9.456
 2942POPC   PO439624  14.322  17.847   9.500
 2942POPC   GL139625  14.339  17.553   9.150
 2942POPC   GL239626  14.644  17.464   8.951
 2942POPC   C1A39627  14.111  17.561   8.749
 2942POPC   D2A39628  14.265  17.441   8.339
 2942POPC   C3A39629  14.125  17.680   7.982
 2942POPC   C4A39630  14.201  17.830   7.537
 2942POPC   C1B39631  14.771  17.054   8.745
 2942POPC   C2B39632  14.802  16.907   8.315
 2942POPC   C3B39633  14.538  17.132   8.021
 2942POPC   C4B39634  14.540  17.487   7.786
 2943POPC   NC339635  43.396  41.588   9.346
 2943POPC   PO439636  42.729  41.594   9.501
 2943POPC   GL139637  42.940  41.524   9.140
 2943POPC   GL239638  42.813  41.858   9.070
 2943POPC   C1A39639  43.213  41.398   8.754
 2943POPC   D2A39640  43.169  41.584   8.345
 2943POPC   C3A39641  43.311  41.451   7.956
 2943POPC   C4A39642  43.447  41.791   7.736
 2943POPC   C1B39643  42.789  41.684   8.687
 2943POPC   C2B39644  42.713  41.849   8.321
 2943POPC   C3B39645  42.893  41.799   7.952
 2943POPC   C4B39646  42.608  41.686   7.676
 2944POPC   NC339647  25.531   6.125   9.459
 2944POPC   PO439648  25.190   5.526   9.476
 2944POPC   GL139649  25.365   5.766   9.156
 2944POPC   GL239650  25.553   5.553   9.001
 2944POPC   C1A39651  25.567   6.027   8.806
 2944POPC   D2A39652  25.701   6.046   8.345
 2944POPC   C3A39653  25.317   5.965   8.113
 2944POPC   C4A39654  25.199   5.974   7.695
 2944POPC   C1B39655  25.193   5.609   8.710
 2944POPC   C2B39656  25.243   5.452   8.294
 2944POPC   C3B39657  25.597   5.550   8.025
 2944POPC   C4B39658  25.455   5.539   7.613
 2945POPC   NC339659  20.167   1.370   9.616
 2945POPC   PO439660  19.657   1.005   9.581
 2945POPC   GL139661  19.799   1.192   9.183
 2945POPC   GL239662  20.130   1.188   9.137
 2945POPC   C1A39663  19.691   1.360   8.792
 2945POPC   D2A39664  19.897   1.315   8.432
 2945POPC   C3A39665  19.669   1.245   8.060
 2945POPC   C4A39666  19.640   1.277   7.643
 2945POPC   C1B39667  20.280   1.417   8.798
 2945POPC   C2B39668  20.422   1.330   8.402
 2945POPC   C3B39669  20.200   1.278   8.028
 2945POPC   C4B39670  20.159   1.202   7.636
 2946POPC   NC339671   6.340  33.274   9.279
 2946POPC   PO439672   6.793  32.803   9.534
 2946POPC   GL139673   6.935  33.000   9.136
 2946POPC   GL239674   6.626  32.981   9.002
 2946POPC   C1A39675   6.991  32.884   8.680
 2946POPC   D2A39676   6.946  33.123   8.268
 2946POPC   C3A39677   6.828  32.899   7.883
 2946POPC   C4A39678   6.683  32.630   7.553
 2946POPC   C1B39679   6.532  33.165   8.609
 2946POPC   C2B39680   6.406  33.101   8.178
 2946POPC   C3B39681   6.553  33.328   7.835
 2946POPC   C4B39682   6.880  33.549   7.702
 2947POPC   NC339683  44.429  31.852   9.452
 2947POPC   PO439684  44.490  31.199   9.387
 2947POPC   GL139685  44.623  31.285   9.019
 2947POPC   GL239686  44.581  31.629   9.017
 2947POPC   C1A39687  44.645  31.373   8.576
 2947POPC   D2A39688  44.903  31.471   8.245
 2947POPC   C3A39689  44.859  31.274   7.855
 2947POPC   C4A39690  44.633  31.447   7.526
 2947POPC   C1B39691  44.665  31.876   8.636
 2947POPC   C2B39692  44.515  31.815   8.202
 2947POPC   C3B39693  44.791  31.806   7.834
 2947POPC   C4B39694  44.741  31.917   7.376
 2948POPC   NC339695  11.124  15.547   9.414
 2948POPC   PO439696  11.464  16.201   9.465
 2948POPC   GL139697  11.287  15.967   9.171
 2948POPC   GL239698  11.554  15.751   9.078
 2948POPC   C1A39699  11.157  15.778   8.786
 2948POPC   D2A39700  11.303  15.813   8.405
 2948POPC   C3A39701  11.073  15.981   8.058
 2948POPC   C4A39702  11.220  15.830   7.695
 2948POPC   C1B39703  11.878  15.722   8.758
 2948POPC   C2B39704  11.854  15.507   8.351
 2948POPC   C3B39705  11.597  15.664   8.025
 2948POPC   C4B39706  11.713  15.781   7.606
 2949POPC   NC339707   2.457  38.315   9.691
 2949POPC   PO439708   3.088  38.164   9.589
 2949POPC   GL139709   2.787  38.284   9.268
 2949POPC   GL239710   2.632  38.599   9.272
 2949POPC   C1A39711   2.815  38.338   8.831
 2949POPC   D2A39712   3.016  38.191   8.463
 2949POPC   C3A39713   3.130  38.484   8.156
 2949POPC   C4A39714   2.895  38.562   7.813
 2949POPC   C1B39715   2.465  38.714   8.851
 2949POPC   C2B39716   2.509  38.521   8.437
 2949POPC   C3B39717   2.450  38.736   8.050
 2949POPC   C4B39718   2.630  39.037   7.804
 2950POPC   NC339719  15.534  35.068   9.577
 2950POPC   PO439720  15.972  35.515   9.558
 2950POPC   GL139721  16.036  35.262   9.213
 2950POPC   GL239722  15.897  35.532   9.029
 2950POPC   C1A39723  16.008  35.119   8.780
 2950POPC   D2A39724  15.831  35.418   8.504
 2950POPC   C3A39725  15.994  35.305   8.120
 2950POPC   C4A39726  16.152  35.176   7.737
 2950POPC   C1B39727  15.696  35.867   8.825
 2950POPC   C2B39728  15.692  36.052   8.429
 2950POPC   C3B39729  15.782  35.767   8.124
 2950POPC   C4B39730  15.769  35.547   7.729
 2951POPC   NC339731  33.433  27.920   9.464
 2951POPC   PO439732  32.896  27.699   9.720
 2951POPC   GL139733  32.995  27.743   9.246
 2951POPC   GL239734  33.190  27.468   9.162
 2951POPC   C1A39735  32.958  27.819   8.760
 2951POPC   D2A39736  32.705  27.732   8.345
 2951POPC   C3A39737  32.834  27.812   7.896
 2951POPC   C4A39738  33.210  27.792   7.612
 2951POPC   C1B39739  32.963  27.301   8.787
 2951POPC   C2B39740  33.078  27.339   8.333
 2951POPC   C3B39741  33.069  27.343   7.848
 2951POPC   C4B39742  33.078  27.096   7.441
 2952POPC   NC339743  33.279   8.913   9.320
 2952POPC   PO439744  32.655   8.589   9.341
 2952POPC   GL139745  32.852   8.823   9.035
 2952POPC   GL239746  32.823   9.141   9.096
 2952POPC   C1A39747  33.153   8.974   8.704
 2952POPC   D2A39748  32.992   9.015   8.318
 2952POPC   C3A39749  33.283   8.956   8.003
 2952POPC   C4A39750  32.983   8.854   7.681
 2952POPC   C1B39751  32.886   9.402   8.731
 2952POPC   C2B39752  33.056   9.527   8.325
 2952POPC   C3B39753  32.988   9.356   7.890
 2952POPC   C4B39754  33.203   9.260   7.474
 2953POPC   NC339755  42.730  40.425   9.270
 2953POPC   PO439756  42.171  40.708   9.475
 2953POPC   GL139757  42.172  40.988   9.125
 2953POPC   GL239758  42.483  40.815   9.063
 2953POPC   C1A39759  42.282  41.036   8.654
 2953POPC   D2A39760  42.525  40.781   8.327
 2953POPC   C3A39761  42.416  40.852   7.876
 2953POPC   C4A39762  42.544  40.713   7.426
 2953POPC   C1B39763  42.131  40.579   8.819
 2953POPC   C2B39764  42.021  40.656   8.394
 2953POPC   C3B39765  42.021  40.494   7.974
 2953POPC   C4B39766  42.074  40.544   7.546
 2954POPC   NC339767  10.908   4.498   9.435
 2954POPC   PO439768  11.499   4.433   9.344
 2954POPC   GL139769  11.198   4.418   9.028
 2954POPC   GL239770  10.981   4.120   9.112
 2954POPC   C1A39771  11.356   4.420   8.635
 2954POPC   D2A39772  11.222   4.333   8.232
 2954POPC   C3A39773  11.468   4.504   7.927
 2954POPC   C4A39774  11.308   4.556   7.505
 2954POPC   C1B39775  11.089   4.005   8.744
 2954POPC   C2B39776  11.034   3.837   8.397
 2954POPC   C3B39777  10.916   3.931   8.038
 2954POPC   C4B39778  11.089   4.183   7.754
 2955POPC   NC339779  21.983  21.823   9.651
 2955POPC   PO439780  22.512  21.247   9.451
 2955POPC   GL139781  22.477  21.575   9.144
 2955POPC   GL239782  22.189  21.390   9.009
 2955POPC   C1A39783  22.439  21.675   8.675
 2955POPC   D2A39784  22.076  21.547   8.439
 2955POPC   C3A39785  22.145  21.481   8.005
 2955POPC   C4A39786  22.510  21.531   7.783
 2955POPC   C1B39787  21.851  21.219   8.749
 2955POPC   C2B39788  21.881  21.096   8.303
 2955POPC   C3B39789  21.677  21.286   7.975
 2955POPC   C4B39790  21.751  21.646   7.692
 2956POPC   NC339791  38.348  41.670   9.410
 2956POPC   PO439792  38.582  41.048   9.496
 2956POPC   GL139793  38.478  41.199   9.141
 2956POPC   GL239794  38.688  41.474   9.107
 2956POPC   C1A39795  38.580  41.137   8.733
 2956POPC   D2A39796  38.346  41.305   8.407
 2956POPC   C3A39797  38.493  41.202   8.056
 2956POPC   C4A39798  38.431  41.319   7.667
 2956POPC   C1B39799  38.520  41.657   8.729
 2956POPC   C2B39800  38.537  41.763   8.274
 2956POPC   C3B39801  38.466  41.794   7.811
 2956POPC   C4B39802  38.595  42.050   7.444
 2957POPC   NC339803  37.989   5.752   9.604
 2957POPC   PO439804  37.356   5.674   9.251
 2957POPC   GL139805  37.733   5.934   9.192
 2957POPC   GL239806  37.983   5.703   9.115
 2957POPC   C1A39807  37.922   6.115   8.830
 2957POPC   D2A39808  37.745   5.905   8.450
 2957POPC   C3A39809  37.826   6.093   8.030
 2957POPC   C4A39810  37.704   5.919   7.633
 2957POPC   C1B39811  38.149   5.656   8.761
 2957POPC   C2B39812  38.075   5.458   8.410
 2957POPC   C3B39813  37.998   5.588   7.989
 2957POPC   C4B39814  38.052   5.485   7.567
 2958POPC   NC339815  34.928  26.598   9.550
 2958POPC   PO439816  34.269  26.805   9.495
 2958POPC   GL139817  34.522  26.646   9.156
 2958POPC   GL239818  34.841  26.758   9.060
 2958POPC   C1A39819  34.523  26.518   8.724
 2958POPC   D2A39820  34.764  26.507   8.349
 2958POPC   C3A39821  34.646  26.643   7.935
 2958POPC   C4A39822  34.614  26.683   7.502
 2958POPC   C1B39823  34.986  26.962   8.660
 2958POPC   C2B39824  34.911  27.003   8.198
 2958POPC   C3B39825  34.864  27.100   7.761
 2958POPC   C4B39826  34.908  27.056   7.292
 2959POPC   NC339827  28.822  27.284   9.553
 2959POPC   PO439828  28.306  27.778   9.603
 2959POPC   GL139829  28.205  27.713   9.198
 2959POPC   GL239830  28.342  27.390   9.156
 2959POPC   C1A39831  27.991  27.574   8.830
 2959POPC   D2A39832  27.979  27.702   8.398
 2959POPC   C3A39833  28.197  27.595   8.006
 2959POPC   C4A39834  28.098  27.726   7.565
 2959POPC   C1B39835  28.473  27.642   8.772
 2959POPC   C2B39836  28.482  27.385   8.412
 2959POPC   C3B39837  28.640  27.325   8.007
 2959POPC   C4B39838  28.578  27.544   7.648
 2960POPC   NC339839  28.006   1.452   9.522
 2960POPC   PO439840  28.460   0.918   9.399
 2960POPC   GL139841  28.154   1.013   9.096
 2960POPC   GL239842  28.224   1.362   9.091
 2960POPC   C1A39843  28.309   1.125   8.667
 2960POPC   D2A39844  28.537   1.389   8.429
 2960POPC   C3A39845  28.397   1.358   8.027
 2960POPC   C4A39846  28.591   1.338   7.632
 2960POPC   C1B39847  28.020   1.543   8.754
 2960POPC   C2B39848  28.130   1.667   8.354
 2960POPC   C3B39849  28.039   1.824   7.975
 2960POPC   C4B39850  28.240   1.710   7.640
 2961POPC   NC339851  31.525   5.222   9.465
 2961POPC   PO439852  31.124   4.585   9.435
 2961POPC   GL139853  31.340   4.835   9.151
 2961POPC   GL239854  31.700   4.829   9.188
 2961POPC   C1A39855  31.411   5.080   8.761
 2961POPC   D2A39856  31.263   5.361   8.412
 2961POPC   C3A39857  31.140   5.218   8.015
 2961POPC   C4A39858  31.173   4.796   7.840
 2961POPC   C1B39859  32.013   4.825   8.884
 2961POPC   C2B39860  32.020   5.112   8.543
 2961POPC   C3B39861  31.704   5.140   8.183
 2961POPC   C4B39862  31.559   5.192   7.734
 2962POPC   NC339863  13.134  37.319   9.616
 2962POPC   PO439864  12.600  37.615   9.413
 2962POPC   GL139865  12.861  37.536   9.062
 2962POPC   GL239866  13.095  37.769   9.170
 2962POPC   C1A39867  12.837  37.553   8.596
 2962POPC   D2A39868  12.897  37.460   8.146
 2962POPC   C3A39869  12.632  37.627   7.842
 2962POPC   C4A39870  12.531  38.081   7.821
 2962POPC   C1B39871  13.229  37.867   8.748
 2962POPC   C2B39872  13.107  37.924   8.315
 2962POPC   C3B39873  13.104  37.842   7.866
 2962POPC   C4B39874  13.063  37.525   7.547
 2963POPC   NC339875  40.422  18.047   9.396
 2963POPC   PO439876  39.710  18.086   9.501
 2963POPC   GL139877  39.727  17.964   9.099
 2963POPC   GL239878  40.025  18.149   9.092
 2963POPC   C1A39879  39.641  18.162   8.703
 2963POPC   D2A39880  39.777  18.516   8.434
 2963POPC   C3A39881  39.874  18.288   8.074
 2963POPC   C4A39882  39.716  18.106   7.718
 2963POPC   C1B39883  40.146  18.295   8.712
 2963POPC   C2B39884  40.476  18.411   8.452
 2963POPC   C3B39885  40.366  18.503   8.060
 2963POPC   C4B39886  40.187  18.416   7.686
 2964POPC   NC339887   2.035  17.735   9.356
 2964POPC   PO439888   1.860  17.169   9.587
 2964POPC   GL139889   1.846  17.255   9.157
 2964POPC   GL239890   2.201  17.289   9.067
 2964POPC   C1A39891   1.842  17.462   8.741
 2964POPC   D2A39892   2.111  17.271   8.448
 2964POPC   C3A39893   2.095  17.335   8.016
 2964POPC   C4A39894   1.827  17.217   7.679
 2964POPC   C1B39895   2.337  17.613   8.741
 2964POPC   C2B39896   2.166  17.795   8.330
 2964POPC   C3B39897   2.228  17.810   7.869
 2964POPC   C4B39898   2.346  17.866   7.452
 2965POPC   NC339899  20.914  28.947   9.628
 2965POPC   PO439900  20.487  28.613   9.454
 2965POPC   GL139901  20.606  29.041   9.201
 2965POPC   GL239902  20.815  29.354   9.268
 2965POPC   C1A39903  20.738  29.173   8.793
 2965POPC   D2A39904  20.706  28.872   8.500
 2965POPC   C3A39905  20.661  28.957   8.100
 2965POPC   C4A39906  20.730  28.959   7.707
 2965POPC   C1B39907  20.816  29.675   8.905
 2965POPC   C2B39908  20.726  29.583   8.450
 2965POPC   C3B39909  20.781  29.440   8.014
 2965POPC   C4B39910  20.730  29.458   7.566
 2966POPC   NC339911   0.096  39.948   9.388
 2966POPC   PO439912   0.433  39.508   9.679
 2966POPC   GL139913   0.458  39.716   9.148
 2966POPC   GL239914   0.362  40.090   8.988
 2966POPC   C1A39915   0.339  39.715   8.682
 2966POPC   D2A39916   0.224  40.074   8.409
 2966POPC   C3A39917   0.348  39.955   8.022
 2966POPC   C4A39918   0.335  39.826   7.617
 2966POPC   C1B39919   0.673  40.133   8.634
 2966POPC   C2B39920   0.814  40.135   8.209
 2966POPC   C3B39921   0.732  40.117   7.732
 2966POPC   C4B39922   0.838  40.392   7.343
 2967POPC   NC339923  20.510  32.955   9.581
 2967POPC   PO439924  21.049  32.736   9.297
 2967POPC   GL139925  20.803  33.018   9.051
 2967POPC   GL239926  20.515  33.228   9.126
 2967POPC   C1A39927  20.792  33.137   8.625
 2967POPC   D2A39928  20.994  33.016   8.262
 2967POPC   C3A39929  20.706  32.937   7.976
 2967POPC   C4A39930  20.506  33.245   7.741
 2967POPC   C1B39931  20.317  32.975   8.793
 2967POPC   C2B39932  20.389  32.835   8.381
 2967POPC   C3B39933  20.181  32.902   7.984
 2967POPC   C4B39934  20.070  32.604   7.693
 2968POPC   NC339935  11.657  12.737   9.526
 2968POPC   PO439936  11.186  13.217   9.413
 2968POPC   GL139937  11.418  13.075   9.087
 2968POPC   GL239938  11.406  12.747   9.079
 2968POPC   C1A39939  11.303  13.011   8.655
 2968POPC   D2A39940  11.090  13.097   8.301
 2968POPC   C3A39941  11.300  12.943   7.954
 2968POPC   C4A39942  11.190  12.595   7.805
 2968POPC   C1B39943  11.543  12.549   8.694
 2968POPC   C2B39944  11.415  12.510   8.264
 2968POPC   C3B39945  11.696  12.587   7.894
 2968POPC   C4B39946  11.582  12.586   7.444
 2969POPC   NC339947  29.477  19.131   9.505
 2969POPC   PO439948  28.798  19.292   9.574
 2969POPC   GL139949  29.078  19.389   9.161
 2969POPC   GL239950  29.414  19.379   9.084
 2969POPC   C1A39951  29.158  19.306   8.659
 2969POPC   D2A39952  28.971  19.018   8.374
 2969POPC   C3A39953  28.917  19.205   7.988
 2969POPC   C4A39954  28.969  19.115   7.562
 2969POPC   C1B39955  29.432  18.953   8.871
 2969POPC   C2B39956  29.436  18.837   8.437
 2969POPC   C3B39957  29.423  19.081   8.082
 2969POPC   C4B39958  29.574  19.075   7.659
 2970POPC   NC339959  24.198  19.245   9.504
 2970POPC   PO439960  23.666  18.994   9.660
 2970POPC   GL139961  23.716  18.993   9.178
 2970POPC   GL239962  24.084  18.995   9.075
 2970POPC   C1A39963  23.760  19.238   8.758
 2970POPC   D2A39964  23.969  19.206   8.345
 2970POPC   C3A39965  23.926  19.444   7.978
 2970POPC   C4A39966  23.709  19.323   7.614
 2970POPC   C1B39967  24.137  18.830   8.655
 2970POPC   C2B39968  24.264  18.811   8.208
 2970POPC   C3B39969  23.997  18.941   7.855
 2970POPC   C4B39970  24.096  19.050   7.391
 2971POPC   NC339971  34.135  16.020   9.491
 2971POPC   PO439972  33.546  16.351   9.589
 2971POPC   GL139973  33.665  16.149   9.223
 2971POPC   GL239974  33.732  15.827   9.224
 2971POPC   C1A39975  33.721  16.099   8.789
 2971POPC   D2A39976  34.116  16.081   8.558
 2971POPC   C3A39977  34.110  16.035   8.102
 2971POPC   C4A39978  33.806  16.147   7.792
 2971POPC   C1B39979  33.529  15.600   8.898
 2971POPC   C2B39980  33.609  15.692   8.485
 2971POPC   C3B39981  33.671  15.729   8.059
 2971POPC   C4B39982  33.771  15.418   7.776
 2972POPC   NC339983   6.217  39.480   9.487
 2972POPC   PO439984   6.804  39.158   9.496
 2972POPC   GL139985   6.505  39.158   9.188
 2972POPC   GL239986   6.763  39.299   8.998
 2972POPC   C1A39987   6.514  38.917   8.817
 2972POPC   D2A39988   6.636  39.127   8.456
 2972POPC   C3A39989   6.436  39.099   8.067
 2972POPC   C4A39990   6.650  39.092   7.691
 2972POPC   C1B39991   6.937  39.506   8.665
 2972POPC   C2B39992   6.759  39.758   8.368
 2972POPC   C3B39993   6.683  39.553   7.988
 2972POPC   C4B39994   6.933  39.541   7.631
 2973POPC   NC339995   0.778  30.568   9.463
 2973POPC   PO439996   1.446  30.628   9.424
 2973POPC   GL139997   1.288  30.800   9.079
 2973POPC   GL239998   1.069  30.531   9.014
 2973POPC   C1A39999   1.354  30.957   8.667
 2973POPC   D2A40000   1.482  30.785   8.249
 2973POPC   C3A40001   1.297  31.044   7.877
 2973POPC   C4A40002   1.463  31.063   7.442
 2973POPC   C1B40003   1.299  30.445   8.621
 2973POPC   C2B40004   1.098  30.474   8.197
 2973POPC   C3B40005   0.978  30.647   7.802
 2973POPC   C4B40006   0.717  30.684   7.420
 2974POPC   NC340007  26.451   8.410   9.522
 2974POPC   PO440008  25.859   8.066   9.584
 2974POPC   GL140009  26.027   8.172   9.157
 2974POPC   GL240010  26.177   8.476   9.086
 2974POPC   C1A40011  26.130   8.154   8.688
 2974POPC   D2A40012  26.098   7.950   8.273
 2974POPC   C3A40013  26.049   8.180   7.862
 2974POPC   C4A40014  26.316   8.165   7.450
 2974POPC   C1B40015  26.355   8.632   8.685
 2974POPC   C2B40016  26.320   8.427   8.267
 2974POPC   C3B40017  26.469   8.486   7.835
 2974POPC   C4B40018  26.592   8.605   7.391
 2975POPC   NC340019  37.146   3.540   9.376
 2975POPC   PO440020  36.508   3.450   9.478
 2975POPC   GL140021  36.629   3.413   9.093
 2975POPC   GL240022  36.729   3.756   9.106
 2975POPC   C1A40023  36.829   3.400   8.695
 2975POPC   D2A40024  37.094   3.236   8.349
 2975POPC   C3A40025  36.962   3.416   7.954
 2975POPC   C4A40026  36.642   3.291   7.641
 2975POPC   C1B40027  36.929   3.930   8.762
 2975POPC   C2B40028  36.751   3.933   8.350
 2975POPC   C3B40029  36.938   3.931   7.960
 2975POPC   C4B40030  37.300   3.819   7.833
 2976POPC   NC340031  28.105  44.884   9.526
 2976POPC   PO440032  28.709  44.488   9.575
 2976POPC   GL140033  28.503  44.652   9.204
 2976POPC   GL240034  28.239  44.411   9.270
 2976POPC   C1A40035  28.266  44.732   8.786
 2976POPC   D2A40036  28.096  44.866   8.355
 2976POPC   C3A40037  28.353  44.952   7.961
 2976POPC   C4A40038  28.361  44.863   7.480
 2976POPC   C1B40039  28.105  44.265   8.859
 2976POPC   C2B40040  28.025  44.363   8.441
 2976POPC   C3B40041  28.285  44.466   8.091
 2976POPC   C4B40042  28.182  44.429   7.674
 2977POPC   NC340043  31.335   6.821   9.812
 2977POPC   PO440044  31.601   7.434   9.587
 2977POPC   GL140045  31.624   7.272   9.185
 2977POPC   GL240046  31.299   7.436   9.137
 2977POPC   C1A40047  31.839   7.308   8.787
 2977POPC   D2A40048  31.950   7.629   8.502
 2977POPC   C3A40049  31.704   7.567   8.123
 2977POPC   C4A40050  31.802   7.483   7.714
 2977POPC   C1B40051  31.331   7.255   8.734
 2977POPC   C2B40052  31.411   7.145   8.318
 2977POPC   C3B40053  31.338   7.212   7.893
 2977POPC   C4B40054  31.203   7.100   7.440
 2978POPC   NC340055  35.846  20.455   9.452
 2978POPC   PO440056  35.231  20.804   9.483
 2978POPC   GL140057  35.354  20.544   9.179
 2978POPC   GL240058  35.607  20.738   9.097
 2978POPC   C1A40059  35.133  20.496   8.797
 2978POPC   D2A40060  35.061  20.714   8.423
 2978POPC   C3A40061  35.063  20.476   8.064
 2978POPC   C4A40062  34.911  20.602   7.670
 2978POPC   C1B40063  35.627  20.588   8.691
 2978POPC   C2B40064  35.523  20.398   8.313
 2978POPC   C3B40065  35.530  20.537   7.875
 2978POPC   C4B40066  35.596  20.590   7.432
 2979POPC   NC340067  19.400  11.753   9.475
 2979POPC   PO440068  19.346  11.117   9.755
 2979POPC   GL140069  19.165  11.079   9.282
 2979POPC   GL240070  18.933  11.346   9.274
 2979POPC   C1A40071  19.236  10.933   8.830
 2979POPC   D2A40072  19.330  11.116   8.444
 2979POPC   C3A40073  19.072  11.240   8.099
 2979POPC   C4A40074  19.335  11.522   7.794
 2979POPC   C1B40075  18.902  11.352   8.813
 2979POPC   C2B40076  18.794  11.623   8.437
 2979POPC   C3B40077  18.824  11.709   7.999
 2979POPC   C4B40078  18.863  11.402   7.669
 2980POPC   NC340079  26.063  37.438   9.419
 2980POPC   PO440080  26.217  38.073   9.532
 2980POPC   GL140081  26.071  37.863   9.132
 2980POPC   GL240082  25.737  37.714   9.089
 2980POPC   C1A40083  26.117  37.540   8.774
 2980POPC   D2A40084  25.917  37.504   8.369
 2980POPC   C3A40085  26.242  37.528   8.088
 2980POPC   C4A40086  26.395  37.635   7.690
 2980POPC   C1B40087  25.797  37.971   8.703
 2980POPC   C2B40088  25.631  37.979   8.293
 2980POPC   C3B40089  25.795  37.959   7.909
 2980POPC   C4B40090  25.862  37.558   7.778
 2981POPC   NC340091  44.847   3.393   9.751
 2981POPC   PO440092  44.242   3.725   9.711
 2981POPC   GL140093  44.450   3.575   9.283
 2981POPC   GL240094  44.823   3.446   9.195
 2981POPC   C1A40095  44.526   3.484   8.813
 2981POPC   D2A40096  44.741   3.526   8.431
 2981POPC   C3A40097  44.418   3.446   8.123
 2981POPC   C4A40098  44.469   3.635   7.703
 2981POPC   C1B40099  44.980   3.219   8.754
 2981POPC   C2B40100   0.042   3.115   8.285
 2981POPC   C3B40101  44.857   3.363   7.919
 2981POPC   C4B40102  44.698   3.243   7.489
 2982POPC   NC340103  22.268  17.745   9.512
 2982POPC   PO440104  21.944  17.108   9.457
 2982POPC   GL140105  22.176  17.392   9.109
 2982POPC   GL240106  22.395  17.700   9.046
 2982POPC   C1A40107  22.435  17.331   8.721
 2982POPC   D2A40108  22.322  17.034   8.432
 2982POPC   C3A40109  22.412  17.148   8.056
 2982POPC   C4A40110  22.154  17.289   7.788
 2982POPC   C1B40111  22.264  17.858   8.640
 2982POPC   C2B40112  22.401  17.626   8.265
 2982POPC   C3B40113  22.506  17.646   7.831
 2982POPC   C4B40114  22.161  17.748   7.582
 2983POPC   NC340115  20.745  16.753   9.381
 2983POPC   PO440116  20.102  16.578   9.132
 2983POPC   GL140117  20.421  16.824   8.950
 2983POPC   GL240118  20.631  16.551   8.897
 2983POPC   C1A40119  20.674  17.023   8.610
 2983POPC   D2A40120  20.856  16.869   8.199
 2983POPC   C3A40121  20.532  16.671   7.941
 2983POPC   C4A40122  20.166  16.954   7.823
 2983POPC   C1B40123  20.991  16.614   8.643
 2983POPC   C2B40124  21.173  16.475   8.284
 2983POPC   C3B40125  21.015  16.485   7.849
 2983POPC   C4B40126  20.862  16.411   7.416
 2984POPC   NC340127  18.497  20.150   9.478
 2984POPC   PO440128  17.925  20.137   9.456
 2984POPC   GL140129  18.212  20.156   9.052
 2984POPC   GL240130  18.479  20.432   9.044
 2984POPC   C1A40131  18.446  20.129   8.627
 2984POPC   D2A40132  18.522  20.429   8.282
 2984POPC   C3A40133  18.419  20.533   7.871
 2984POPC   C4A40134  18.256  20.778   7.557
 2984POPC   C1B40135  18.795  20.534   8.706
 2984POPC   C2B40136  18.878  20.792   8.312
 2984POPC   C3B40137  18.629  20.987   7.988
 2984POPC   C4B40138  18.699  21.058   7.578
 2985POPC   NC340139  43.760  28.753   9.581
 2985POPC   PO440140  43.754  28.123   9.793
 2985POPC   GL140141  43.691  28.292   9.349
 2985POPC   GL240142  43.443  28.101   9.207
 2985POPC   C1A40143  43.724  28.363   8.869
 2985POPC   D2A40144  43.951  28.489   8.486
 2985POPC   C3A40145  43.908  28.399   8.026
 2985POPC   C4A40146  44.230  28.551   7.722
 2985POPC   C1B40147  43.369  28.021   8.763
 2985POPC   C2B40148  43.613  27.980   8.382
 2985POPC   C3B40149  43.365  28.008   7.993
 2985POPC   C4B40150  43.596  28.158   7.678
 2986POPC   NC340151  22.557  15.155   9.462
 2986POPC   PO440152  21.873  15.218   9.443
 2986POPC   GL140153  22.188  15.195   9.097
 2986POPC   GL240154  22.397  15.491   9.083
 2986POPC   C1A40155  22.339  15.110   8.678
 2986POPC   D2A40156  22.302  14.873   8.324
 2986POPC   C3A40157  22.136  15.091   7.998
 2986POPC   C4A40158  22.249  15.097   7.583
 2986POPC   C1B40159  22.170  15.595   8.704
 2986POPC   C2B40160  22.136  15.533   8.245
 2986POPC   C3B40161  22.166  15.575   7.779
 2986POPC   C4B40162  22.369  15.538   7.353
 2987POPC   NC340163  18.216  39.046   9.547
 2987POPC   PO440164  18.238  39.692   9.662
 2987POPC   GL140165  18.317  39.439   9.226
 2987POPC   GL240166  18.041  39.233   9.099
 2987POPC   C1A40167  18.435  39.291   8.774
 2987POPC   D2A40168  18.320  39.197   8.318
 2987POPC   C3A40169  18.457  39.401   7.900
 2987POPC   C4A40170  18.511  39.376   7.424
 2987POPC   C1B40171  17.976  39.010   8.700
 2987POPC   C2B40172  18.004  38.798   8.270
 2987POPC   C3B40173  18.005  39.077   7.883
 2987POPC   C4B40174  17.743  38.939   7.492
 2988POPC   NC340175  41.942   1.857   9.809
 2988POPC   PO440176  41.507   2.264   9.594
 2988POPC   GL140177  41.550   2.247   9.157
 2988POPC   GL240178  41.791   2.025   9.103
 2988POPC   C1A40179  41.340   2.034   8.794
 2988POPC   D2A40180  41.190   1.936   8.385
 2988POPC   C3A40181  41.411   2.149   8.064
 2988POPC   C4A40182  41.623   2.148   7.699
 2988POPC   C1B40183  41.781   1.792   8.733
 2988POPC   C2B40184  41.679   1.737   8.298
 2988POPC   C3B40185  41.934   1.836   7.939
 2988POPC   C4B40186  41.954   1.583   7.553
 2989POPC   NC340187   0.382  13.963   9.528
 2989POPC   PO440188   0.790  13.390   9.545
 2989POPC   GL140189   0.721  13.695   9.189
 2989POPC   GL240190   0.371  13.797   9.049
 2989POPC   C1A40191   0.658  13.532   8.749
 2989POPC   D2A40192   0.471  13.603   8.350
 2989POPC   C3A40193   0.309  13.329   8.044
 2989POPC   C4A40194   0.609  13.489   7.784
 2989POPC   C1B40195   0.111  13.826   8.662
 2989POPC   C2B40196  44.999  13.765   8.206
 2989POPC   C3B40197   0.193  13.808   7.777
 2989POPC   C4B40198   0.217  13.793   7.276
 2990POPC   NC340199   0.996   4.907   9.426
 2990POPC   PO440200   1.465   5.444   9.381
 2990POPC   GL140201   1.230   5.203   9.066
 2990POPC   GL240202   1.376   4.850   9.034
 2990POPC   C1A40203   1.044   5.256   8.649
 2990POPC   D2A40204   0.996   5.255   8.185
 2990POPC   C3A40205   1.233   4.983   7.928
 2990POPC   C4A40206   1.364   5.071   7.489
 2990POPC   C1B40207   1.011   4.757   8.759
 2990POPC   C2B40208   0.840   4.744   8.318
 2990POPC   C3B40209   0.732   4.886   7.901
 2990POPC   C4B40210   0.925   4.840   7.518
 2991POPC   NC340211   9.610  39.511   9.409
 2991POPC   PO440212   9.686  40.216   9.589
 2991POPC   GL140213   9.584  40.010   9.215
 2991POPC   GL240214   9.919  39.970   9.117
 2991POPC   C1A40215   9.579  39.764   8.790
 2991POPC   D2A40216   9.747  39.812   8.382
 2991POPC   C3A40217   9.538  39.893   7.997
 2991POPC   C4A40218   9.728  39.889   7.611
 2991POPC   C1B40219   9.754  40.259   8.783
 2991POPC   C2B40220   9.772  40.357   8.351
 2991POPC   C3B40221   9.928  40.233   7.963
 2991POPC   C4B40222   9.851  40.384   7.577
 2992POPC   NC340223  36.323  31.117   9.383
 2992POPC   PO440224  35.881  30.559   9.381
 2992POPC   GL140225  35.994  30.734   9.023
 2992POPC   GL240226  36.336  30.745   9.019
 2992POPC   C1A40227  36.057  30.591   8.606
 2992POPC   D2A40228  36.253  30.684   8.227
 2992POPC   C3A40229  35.981  30.872   7.950
 2992POPC   C4A40230  35.797  30.622   7.679
 2992POPC   C1B40231  36.355  31.010   8.648
 2992POPC   C2B40232  36.621  31.047   8.258
 2992POPC   C3B40233  36.466  30.961   7.838
 2992POPC   C4B40234  36.324  30.914   7.417
 2993POPC   NC340235  22.050  33.377   9.524
 2993POPC   PO440236  22.076  34.075   9.515
 2993POPC   GL140237  22.209  33.990   9.096
 2993POPC   GL240238  22.573  33.892   8.926
 2993POPC   C1A40239  21.916  33.900   8.783
 2993POPC   D2A40240  21.841  33.663   8.431
 2993POPC   C3A40241  21.953  33.893   8.104
 2993POPC   C4A40242  21.876  33.735   7.677
 2993POPC   C1B40243  22.320  33.593   8.702
 2993POPC   C2B40244  22.266  33.395   8.327
 2993POPC   C3B40245  22.263  33.543   7.925
 2993POPC   C4B40246  22.425  33.541   7.518
 2994POPC   NC340247  11.304  11.813   9.379
 2994POPC   PO440248  11.292  12.458   9.514
 2994POPC   GL140249  11.068  12.385   9.142
 2994POPC   GL240250  11.335  12.211   9.018
 2994POPC   C1A40251  11.017  12.576   8.721
 2994POPC   D2A40252  10.860  12.504   8.284
 2994POPC   C3A40253  11.059  12.159   8.052
 2994POPC   C4A40254  11.411  12.155   7.780
 2994POPC   C1B40255  11.225  12.120   8.575
 2994POPC   C2B40256  11.523  12.007   8.263
 2994POPC   C3B40257  11.608  11.724   7.946
 2994POPC   C4B40258  11.502  11.727   7.510
 2995POPC   NC340259   2.733  15.600   9.248
 2995POPC   PO440260   2.975  14.933   9.487
 2995POPC   GL140261   2.828  15.097   9.134
 2995POPC   GL240262   2.482  15.170   9.135
 2995POPC   C1A40263   2.752  15.082   8.694
 2995POPC   D2A40264   2.637  15.253   8.316
 2995POPC   C3A40265   2.864  15.317   7.972
 2995POPC   C4A40266   3.162  15.041   7.762
 2995POPC   C1B40267   2.328  15.382   8.725
 2995POPC   C2B40268   2.148  15.250   8.339
 2995POPC   C3B40269   2.331  15.139   7.925
 2995POPC   C4B40270   2.404  15.524   7.763
 2996POPC   NC340271  19.640  21.417   9.545
 2996POPC   PO440272  20.302  21.039   9.476
 2996POPC   GL140273  20.032  21.303   9.182
 2996POPC   GL240274  19.692  21.251   9.079
 2996POPC   C1A40275  19.978  21.621   8.836
 2996POPC   D2A40276  20.111  21.694   8.407
 2996POPC   C3A40277  19.833  21.623   8.073
 2996POPC   C4A40278  19.701  21.454   7.694
 2996POPC   C1B40279  19.765  21.156   8.657
 2996POPC   C2B40280  19.592  21.163   8.232
 2996POPC   C3B40281  19.450  21.061   7.836
 2996POPC   C4B40282  19.200  21.326   7.580
 2997POPC   NC340283  25.468  18.146   9.530
 2997POPC   PO440284  24.821  18.270   9.625
 2997POPC   GL140285  25.121  18.368   9.227
 2997POPC   GL240286  25.388  18.598   9.144
 2997POPC   C1A40287  25.325  18.138   8.839
 2997POPC   D2A40288  25.550  18.009   8.401
 2997POPC   C3A40289  25.328  18.003   8.034
 2997POPC   C4A40290  25.372  18.050   7.595
 2997POPC   C1B40291  25.536  18.579   8.678
 2997POPC   C2B40292  25.401  18.485   8.238
 2997POPC   C3B40293  25.117  18.436   7.844
 2997POPC   C4B40294  25.198  18.482   7.365
 2998POPC   NC340295  35.788   1.953   9.498
 2998POPC   PO440296  35.164   2.231   9.459
 2998POPC   GL140297  35.368   2.018   9.122
 2998POPC   GL240298  35.679   2.178   9.042
 2998POPC   C1A40299  35.180   2.049   8.714
 2998POPC   D2A40300  34.909   2.133   8.368
 2998POPC   C3A40301  35.089   2.267   7.977
 2998POPC   C4A40302  34.901   2.522   7.660
 2998POPC   C1B40303  35.674   2.169   8.605
 2998POPC   C2B40304  35.461   1.903   8.316
 2998POPC   C3B40305  35.306   1.805   7.925
 2998POPC   C4B40306  35.448   1.874   7.514
 2999POPC   NC340307   7.664  12.734   9.625
 2999POPC   PO440308   7.060  12.972   9.503
 2999POPC   GL140309   7.345  13.038   9.127
 2999POPC   GL240310   7.643  12.915   9.162
 2999POPC   C1A40311   7.512  13.152   8.715
 2999POPC   D2A40312   7.490  12.866   8.377
 2999POPC   C3A40313   7.440  13.047   8.005
 2999POPC   C4A40314   7.390  13.050   7.580
 2999POPC   C1B40315   7.535  12.639   8.842
 2999POPC   C2B40316   7.789  12.478   8.538
 2999POPC   C3B40317   7.726  12.458   8.113
 2999POPC   C4B40318   7.822  12.725   7.782
 3000POPC   NC340319  42.735   8.352   9.294
 3000POPC   PO440320  43.306   8.269   9.565
 3000POPC   GL140321  43.267   8.046   9.115
 3000POPC   GL240322  42.910   7.982   9.013
 3000POPC   C1A40323  43.213   7.942   8.621
 3000POPC   D2A40324  43.019   8.057   8.205
 3000POPC   C3A40325  43.258   8.125   7.824
 3000POPC   C4A40326  43.594   8.309   7.557
 3000POPC   C1B40327  42.753   8.222   8.613
 3000POPC   C2B40328  42.774   8.522   8.282
 3000POPC   C3B40329  42.781   8.440   7.848
 3000POPC   C4B40330  42.554   8.582   7.478
 3001POPC   NC340331  12.896  11.124   9.610
 3001POPC   PO440332  12.244  11.227   9.768
 3001POPC   GL140333  12.427  11.228   9.279
 3001POPC   GL240334  12.734  11.017   9.145
 3001POPC   C1A40335  12.411  11.150   8.790
 3001POPC   D2A40336  12.700  10.987   8.454
 3001POPC   C3A40337  12.601  11.150   8.058
 3001POPC   C4A40338  12.476  11.433   7.753
 3001POPC   C1B40339  12.894  11.298   8.826
 3001POPC   C2B40340  13.061  11.474   8.450
 3001POPC   C3B40341  13.132  11.303   8.040
 3001POPC   C4B40342  13.327  11.231   7.639
 3002POPC   NC340343   6.558  42.784   9.741
 3002POPC   PO440344   6.803  43.368   9.815
 3002POPC   GL140345   6.644  43.247   9.352
 3002POPC   GL240346   6.301  43.147   9.201
 3002POPC   C1A40347   6.776  43.095   8.924
 3002POPC   D2A40348   6.727  42.832   8.560
 3002POPC   C3A40349   6.822  42.879   8.111
 3002POPC   C4A40350   6.834  42.801   7.681
 3002POPC   C1B40351   6.296  43.148   8.721
 3002POPC   C2B40352   6.383  43.098   8.264
 3002POPC   C3B40353   6.364  42.941   7.838
 3002POPC   C4B40354   6.410  42.842   7.372
 3003POPC   NC340355  26.413  15.008   9.390
 3003POPC   PO440356  25.763  15.067   9.562
 3003POPC   GL140357  25.870  15.135   9.120
 3003POPC   GL240358  26.169  15.219   9.010
 3003POPC   C1A40359  25.729  15.269   8.703
 3003POPC   D2A40360  25.819  15.389   8.269
 3003POPC   C3A40361  26.068  15.107   7.993
 3003POPC   C4A40362  25.973  15.087   7.519
 3003POPC   C1B40363  26.162  14.974   8.701
 3003POPC   C2B40364  26.311  14.649   8.483
 3003POPC   C3B40365  25.981  14.586   8.227
 3003POPC   C4B40366  25.842  14.697   7.814
 3004POPC   NC340367  36.957  42.688   9.603
 3004POPC   PO440368  37.262  42.081   9.437
 3004POPC   GL140369  37.066  42.388   9.206
 3004POPC   GL240370  37.320  42.475   9.022
 3004POPC   C1A40371  36.807  42.411   8.835
 3004POPC   D2A40372  36.650  42.086   8.535
 3004POPC   C3A40373  36.880  42.136   8.157
 3004POPC   C4A40374  36.892  42.010   7.745
 3004POPC   C1B40375  37.269  42.273   8.601
 3004POPC   C2B40376  37.338  42.370   8.127
 3004POPC   C3B40377  37.371  42.163   7.712
 3004POPC   C4B40378  37.157  42.018   7.287
 3005POPC   NC340379  32.855  37.617   9.470
 3005POPC   PO440380  33.587  37.446   9.325
 3005POPC   GL140381  33.183  37.490   9.089
 3005POPC   GL240382  32.987  37.835   9.020
 3005POPC   C1A40383  33.155  37.543   8.653
 3005POPC   D2A40384  33.514  37.657   8.412
 3005POPC   C3A40385  33.334  37.716   8.040
 3005POPC   C4A40386  32.997  37.526   7.848
 3005POPC   C1B40387  33.148  38.058   8.605
 3005POPC   C2B40388  33.120  38.172   8.133
 3005POPC   C3B40389  33.060  38.019   7.679
 3005POPC   C4B40390  33.039  37.912   7.224
 3006POPC   NC340391  28.836  30.809   9.425
 3006POPC   PO440392  29.556  30.743   9.538
 3006POPC   GL140393  29.321  30.653   9.101
 3006POPC   GL240394  28.992  30.462   9.065
 3006POPC   C1A40395  29.182  30.741   8.670
 3006POPC   D2A40396  29.235  30.615   8.222
 3006POPC   C3A40397  29.184  30.920   7.871
 3006POPC   C4A40398  29.221  30.795   7.458
 3006POPC   C1B40399  28.734  30.468   8.672
 3006POPC   C2B40400  28.720  30.676   8.249
 3006POPC   C3B40401  28.840  30.568   7.780
 3006POPC   C4B40402  28.710  30.743   7.380
 3007POPC   NC340403  32.602  30.086   9.532
 3007POPC   PO440404  32.077  29.706   9.740
 3007POPC   GL140405  32.087  29.736   9.213
 3007POPC   GL240406  32.433  29.764   9.146
 3007POPC   C1A40407  32.171  30.041   8.776
 3007POPC   D2A40408  32.326  29.885   8.343
 3007POPC   C3A40409  32.118  30.018   7.970
 3007POPC   C4A40410  32.255  30.366   7.765
 3007POPC   C1B40411  32.239  29.554   8.755
 3007POPC   C2B40412  32.192  29.390   8.342
 3007POPC   C3B40413  32.221  29.513   7.924
 3007POPC   C4B40414  31.910  29.638   7.625
 3008POPC   NC340415  33.181  43.744   9.492
 3008POPC   PO440416  33.791  44.109   9.521
 3008POPC   GL140417  33.945  43.984   9.147
 3008POPC   GL240418  33.933  44.313   9.029
 3008POPC   C1A40419  34.018  43.737   8.796
 3008POPC   D2A40420  33.747  43.667   8.435
 3008POPC   C3A40421  33.904  43.855   8.046
 3008POPC   C4A40422  34.004  43.665   7.689
 3008POPC   C1B40423  33.658  44.120   8.722
 3008POPC   C2B40424  33.561  44.133   8.289
 3008POPC   C3B40425  33.393  43.983   7.916
 3008POPC   C4B40426  33.620  43.968   7.536
 3009POPC   NC340427  21.771  18.479   9.313
 3009POPC   PO440428  21.163  18.764   9.245
 3009POPC   GL140429  21.225  18.362   9.018
 3009POPC   GL240430  21.482  18.086   9.054
 3009POPC   C1A40431  21.332  18.274   8.593
 3009POPC   D2A40432  21.513  18.525   8.253
 3009POPC   C3A40433  21.369  18.493   7.833
 3009POPC   C4A40434  21.176  18.576   7.403
 3009POPC   C1B40435  21.707  17.896   8.667
 3009POPC   C2B40436  21.501  17.943   8.241
 3009POPC   C3B40437  21.667  18.024   7.831
 3009POPC   C4B40438  21.765  17.948   7.371
 3010POPC   NC340439  16.646  36.436   9.541
 3010POPC   PO440440  16.594  37.098   9.723
 3010POPC   GL140441  16.672  37.052   9.218
 3010POPC   GL240442  16.623  36.707   9.095
 3010POPC   C1A40443  16.513  37.047   8.747
 3010POPC   D2A40444  16.682  36.817   8.387
 3010POPC   C3A40445  16.625  37.032   8.018
 3010POPC   C4A40446  16.730  37.411   7.848
 3010POPC   C1B40447  16.887  36.504   8.752
 3010POPC   C2B40448  17.232  36.601   8.477
 3010POPC   C3B40449  17.084  36.613   8.064
 3010POPC   C4B40450  16.790  36.626   7.749
 3011POPC   NC340451   0.810   4.139   9.526
 3011POPC   PO440452   1.352   4.560   9.469
 3011POPC   GL140453   1.054   4.442   9.161
 3011POPC   GL240454   1.233   4.172   9.111
 3011POPC   C1A40455   0.878   4.222   8.762
 3011POPC   D2A40456   0.989   4.159   8.311
 3011POPC   C3A40457   0.941   4.413   7.926
 3011POPC   C4A40458   0.966   4.332   7.485
 3011POPC   C1B40459   1.369   4.378   8.705
 3011POPC   C2B40460   1.500   4.219   8.283
 3011POPC   C3B40461   1.315   4.039   7.893
 3011POPC   C4B40462   1.415   4.108   7.448
 3012POPC   NC340463  25.657   8.498   9.319
 3012POPC   PO440464  25.041   8.162   9.464
 3012POPC   GL140465  25.229   8.154   9.098
 3012POPC   GL240466  25.552   7.983   9.140
 3012POPC   C1A40467  25.039   8.222   8.707
 3012POPC   D2A40468  25.222   8.405   8.364
 3012POPC   C3A40469  25.074   8.274   7.984
 3012POPC   C4A40470  25.050   8.467   7.601
 3012POPC   C1B40471  25.589   8.210   8.738
 3012POPC   C2B40472  25.767   8.346   8.377
 3012POPC   C3B40473  25.583   8.199   8.037
 3012POPC   C4B40474  25.565   8.486   7.758
 3013POPC   NC340475   9.355  17.948   9.426
 3013POPC   PO440476   8.852  18.362   9.586
 3013POPC   GL140477   9.074  18.324   9.200
 3013POPC   GL240478   8.962  18.020   9.109
 3013POPC   C1A40479   9.118  18.520   8.800
 3013POPC   D2A40480   9.102  18.365   8.378
 3013POPC   C3A40481   9.028  18.589   7.998
 3013POPC   C4A40482   8.880  18.445   7.605
 3013POPC   C1B40483   9.252  18.023   8.760
 3013POPC   C2B40484   9.412  17.971   8.331
 3013POPC   C3B40485   9.198  18.097   7.903
 3013POPC   C4B40486   9.296  18.133   7.447
 3014POPC   NC340487  33.772  19.190   9.544
 3014POPC   PO440488  33.267  19.517   9.219
 3014POPC   GL140489  33.670  19.294   9.065
 3014POPC   GL240490  33.761  18.896   9.138
 3014POPC   C1A40491  33.891  19.148   8.711
 3014POPC   D2A40492  33.702  19.097   8.326
 3014POPC   C3A40493  33.929  19.219   7.996
 3014POPC   C4A40494  33.688  19.169   7.665
 3014POPC   C1B40495  33.648  18.694   8.761
 3014POPC   C2B40496  33.864  18.625   8.373
 3014POPC   C3B40497  33.805  18.720   7.927
 3014POPC   C4B40498  33.871  18.721   7.467
 3015POPC   NC340499   0.746   1.264   9.476
 3015POPC   PO440500   0.092   1.184   9.418
 3015POPC   GL140501   0.363   1.371   9.109
 3015POPC   GL240502   0.685   1.264   8.978
 3015POPC   C1A40503   0.207   1.451   8.713
 3015POPC   D2A40504   0.114   1.287   8.328
 3015POPC   C3A40505   0.522   1.351   8.139
 3015POPC   C4A40506   0.502   1.388   7.707
 3015POPC   C1B40507   0.830   0.876   8.770
 3015POPC   C2B40508   0.963   0.851   8.353
 3015POPC   C3B40509   0.790   0.943   7.945
 3015POPC   C4B40510   0.794   0.967   7.514
 3016POPC   NC340511   8.357  26.898   9.697
 3016POPC   PO440512   7.778  26.623   9.616
 3016POPC   GL140513   7.964  26.910   9.251
 3016POPC   GL240514   8.335  26.826   9.176
 3016POPC   C1A40515   8.055  27.038   8.791
 3016POPC   D2A40516   8.110  27.154   8.345
 3016POPC   C3A40517   7.999  26.926   7.974
 3016POPC   C4A40518   8.302  26.918   7.642
 3016POPC   C1B40519   8.120  26.533   8.834
 3016POPC   C2B40520   8.058  26.604   8.374
 3016POPC   C3B40521   8.342  26.521   8.035
 3016POPC   C4B40522   8.393  26.342   7.636
 3017POPC   NC340523  42.013   4.232   9.353
 3017POPC   PO440524  42.711   4.421   9.473
 3017POPC   GL140525  42.446   4.448   9.107
 3017POPC   GL240526  42.390   4.118   9.012
 3017POPC   C1A40527  42.555   4.496   8.686
 3017POPC   D2A40528  42.412   4.287   8.311
 3017POPC   C3A40529  42.490   4.498   7.913
 3017POPC   C4A40530  42.491   4.316   7.501
 3017POPC   C1B40531  42.060   4.326   8.725
 3017POPC   C2B40532  41.907   4.134   8.356
 3017POPC   C3B40533  42.055   4.187   7.926
 3017POPC   C4B40534  41.878   3.907   7.620
 3018POPC   NC340535   3.676  10.621   9.431
 3018POPC   PO440536   3.137  10.267   9.526
 3018POPC   GL140537   3.409  10.253   9.137
 3018POPC   GL240538   3.789  10.218   9.111
 3018POPC   C1A40539   3.508  10.464   8.756
 3018POPC   D2A40540   3.376  10.686   8.394
 3018POPC   C3A40541   3.492  10.460   8.039
 3018POPC   C4A40542   3.424  10.692   7.690
 3018POPC   C1B40543   3.962  10.215   8.684
 3018POPC   C2B40544   4.026  10.353   8.242
 3018POPC   C3B40545   3.898  10.190   7.851
 3018POPC   C4B40546   3.677  10.281   7.479
 3019POPC   NC340547  11.529   8.360   9.438
 3019POPC   PO440548  10.843   8.118   9.493
 3019POPC   GL140549  11.122   8.202   9.168
 3019POPC   GL240550  11.420   7.968   9.070
 3019POPC   C1A40551  11.078   8.203   8.761
 3019POPC   D2A40552  11.286   8.044   8.450
 3019POPC   C3A40553  11.214   8.272   8.093
 3019POPC   C4A40554  11.378   8.145   7.724
 3019POPC   C1B40555  11.597   8.287   8.786
 3019POPC   C2B40556  11.588   8.466   8.399
 3019POPC   C3B40557  11.697   8.452   7.985
 3019POPC   C4B40558  11.689   8.570   7.547
 3020POPC   NC340559  37.424   6.925   9.482
 3020POPC   PO440560  37.745   6.337   9.531
 3020POPC   GL140561  37.593   6.498   9.183
 3020POPC   GL240562  37.747   6.803   9.106
 3020POPC   C1A40563  37.560   6.461   8.756
 3020POPC   D2A40564  37.818   6.440   8.424
 3020POPC   C3A40565  37.592   6.602   8.081
 3020POPC   C4A40566  37.725   6.492   7.695
 3020POPC   C1B40567  37.449   6.971   8.797
 3020POPC   C2B40568  37.620   7.105   8.418
 3020POPC   C3B40569  37.789   7.067   8.018
 3020POPC   C4B40570  37.458   6.977   7.720
 3021POPC   NC340571  21.467  14.061   9.697
 3021POPC   PO440572  21.097  14.587   9.457
 3021POPC   GL140573  21.302  14.330   9.121
 3021POPC   GL240574  21.623  14.101   9.123
 3021POPC   C1A40575  21.284  14.479   8.680
 3021POPC   D2A40576  21.490  14.810   8.387
 3021POPC   C3A40577  21.478  14.687   7.936
 3021POPC   C4A40578  21.263  14.348   7.715
 3021POPC   C1B40579  21.720  14.201   8.716
 3021POPC   C2B40580  21.606  14.316   8.299
 3021POPC   C3B40581  21.742  14.230   7.901
 3021POPC   C4B40582  21.754  14.301   7.479
 3022POPC   NC340583  29.803  20.807   9.533
 3022POPC   PO440584  30.244  20.348   9.545
 3022POPC   GL140585  30.001  20.340   9.175
 3022POPC   GL240586  29.738  20.582   9.070
 3022POPC   C1A40587  30.051  20.332   8.749
 3022POPC   D2A40588  30.039  20.516   8.391
 3022POPC   C3A40589  30.039  20.272   8.069
 3022POPC   C4A40590  29.781  20.352   7.772
 3022POPC   C1B40591  29.824  20.835   8.713
 3022POPC   C2B40592  29.753  20.933   8.270
 3022POPC   C3B40593  29.819  20.873   7.820
 3022POPC   C4B40594  29.632  21.014   7.408
 3023POPC   NC340595  25.741   0.680   9.782
 3023POPC   PO440596  25.143   0.383   9.529
 3023POPC   GL140597  25.157   0.444   9.113
 3023POPC   GL240598  24.991   0.139   9.084
 3023POPC   C1A40599  25.342   0.629   8.738
 3023POPC   D2A40600  25.353   0.446   8.355
 3023POPC   C3A40601  25.298   0.575   7.963
 3023POPC   C4A40602  25.618   0.615   7.689
 3023POPC   C1B40603  24.966   0.272   8.658
 3023POPC   C2B40604  24.913  44.983   8.337
 3023POPC   C3B40605  24.784  44.881   7.944
 3023POPC   C4B40606  24.842   0.293   7.784
 3024POPC   NC340607  36.854  16.520   9.567
 3024POPC   PO440608  36.794  17.136   9.446
 3024POPC   GL140609  36.935  16.787   9.154
 3024POPC   GL240610  36.668  16.506   9.103
 3024POPC   C1A40611  37.114  16.538   8.812
 3024POPC   D2A40612  37.038  16.366   8.399
 3024POPC   C3A40613  37.195  16.597   8.037
 3024POPC   C4A40614  37.420  16.920   7.829
 3024POPC   C1B40615  36.605  16.669   8.708
 3024POPC   C2B40616  36.529  16.560   8.295
 3024POPC   C3B40617  36.714  16.746   7.953
 3024POPC   C4B40618  36.976  16.816   7.633
 3025POPC   NC340619  29.609   1.780   9.536
 3025POPC   PO440620  30.304   1.937   9.477
 3025POPC   GL140621  30.085   1.825   9.131
 3025POPC   GL240622  29.854   2.091   9.167
 3025POPC   C1A40623  30.037   1.915   8.689
 3025POPC   D2A40624  29.867   2.183   8.356
 3025POPC   C3A40625  30.026   2.080   8.011
 3025POPC   C4A40626  30.216   1.786   7.734
 3025POPC   C1B40627  29.607   2.171   8.790
 3025POPC   C2B40628  29.499   1.846   8.507
 3025POPC   C3B40629  29.464   1.923   8.077
 3025POPC   C4B40630  29.666   1.941   7.689
 3026POPC   NC340631  33.396   5.101   9.395
 3026POPC   PO440632  32.840   5.117   9.540
 3026POPC   GL140633  32.944   5.015   9.130
 3026POPC   GL240634  33.078   5.348   9.096
 3026POPC   C1A40635  32.980   5.035   8.669
 3026POPC   D2A40636  32.778   4.804   8.321
 3026POPC   C3A40637  32.852   5.046   7.982
 3026POPC   C4A40638  33.175   5.065   7.667
 3026POPC   C1B40639  33.405   5.463   8.837
 3026POPC   C2B40640  33.319   5.550   8.445
 3026POPC   C3B40641  33.320   5.269   8.110
 3026POPC   C4B40642  33.596   5.353   7.750
 3027POPC   NC340643  37.255  19.239   9.458
 3027POPC   PO440644  37.800  18.842   9.423
 3027POPC   GL140645  37.831  19.221   9.159
 3027POPC   GL240646  37.985  19.009   8.933
 3027POPC   C1A40647  37.681  19.329   8.716
 3027POPC   D2A40648  37.739  19.069   8.316
 3027POPC   C3A40649  37.837  19.283   7.902
 3027POPC   C4A40650  37.750  19.265   7.439
 3027POPC   C1B40651  37.700  18.694   8.759
 3027POPC   C2B40652  37.383  18.472   8.510
 3027POPC   C3B40653  37.380  18.540   8.073
 3027POPC   C4B40654  37.719  18.774   7.865
 3028POPC   NC340655  34.780  13.195   9.525
 3028POPC   PO440656  34.418  13.730   9.365
 3028POPC   GL140657  34.516  13.426   9.154
 3028POPC   GL240658  34.284  13.435   8.918
 3028POPC   C1A40659  34.818  13.320   8.880
 3028POPC   D2A40660  34.702  13.321   8.453
 3028POPC   C3A40661  34.918  13.594   8.161
 3028POPC   C4A40662  34.916  13.504   7.718
 3028POPC   C1B40663  34.592  13.748   8.732
 3028POPC   C2B40664  34.552  13.922   8.328
 3028POPC   C3B40665  34.478  13.705   7.918
 3028POPC   C4B40666  34.392  13.650   7.460
 3029POPC   NC340667  31.893  39.313   9.391
 3029POPC   PO440668  32.391  39.360   8.996
 3029POPC   GL140669  31.997  39.144   8.907
 3029POPC   GL240670  31.771  39.430   8.939
 3029POPC   C1A40671  32.024  38.946   8.502
 3029POPC   D2A40672  32.395  39.081   8.288
 3029POPC   C3A40673  32.159  39.313   7.985
 3029POPC   C4A40674  32.034  39.111   7.570
 3029POPC   C1B40675  31.858  39.742   8.698
 3029POPC   C2B40676  31.989  39.689   8.310
 3029POPC   C3B40677  32.003  39.790   7.918
 3029POPC   C4B40678  31.809  39.570   7.613
 3030POPC   NC340679  29.765  31.182   9.664
 3030POPC   PO440680  29.191  31.082   9.309
 3030POPC   GL140681  29.138  31.215   8.909
 3030POPC   GL240682  29.429  31.208   8.746
 3030POPC   C1A40683  28.893  31.477   8.603
 3030POPC   D2A40684  29.056  31.694   8.238
 3030POPC   C3A40685  29.165  31.423   7.899
 3030POPC   C4A40686  28.844  31.221   7.618
 3030POPC   C1B40687  29.339  31.671   8.722
 3030POPC   C2B40688  29.501  31.916   8.379
 3030POPC   C3B40689  29.499  31.832   7.929
 3030POPC   C4B40690  29.248  31.771   7.546
 3031POPC   NC340691  12.873  26.559   9.496
 3031POPC   PO440692  13.007  27.192   9.456
 3031POPC   GL140693  12.730  26.969   9.178
 3031POPC   GL240694  12.483  26.703   9.217
 3031POPC   C1A40695  12.910  26.804   8.813
 3031POPC   D2A40696  13.180  26.622   8.478
 3031POPC   C3A40697  13.052  26.797   8.077
 3031POPC   C4A40698  13.227  26.826   7.657
 3031POPC   C1B40699  12.479  26.515   8.820
 3031POPC   C2B40700  12.658  26.599   8.426
 3031POPC   C3B40701  12.523  26.503   8.033
 3031POPC   C4B40702  12.728  26.688   7.690
 3032POPC   NC340703  31.265   0.051   9.720
 3032POPC   PO440704  31.776   0.478   9.561
 3032POPC   GL140705  31.599   0.519   9.179
 3032POPC   GL240706  31.718   0.189   9.050
 3032POPC   C1A40707  31.460   0.590   8.766
 3032POPC   D2A40708  31.343   0.296   8.474
 3032POPC   C3A40709  31.371   0.365   8.042
 3032POPC   C4A40710  31.283   0.638   7.685
 3032POPC   C1B40711  31.841   0.179   8.610
 3032POPC   C2B40712  31.868   0.235   8.142
 3032POPC   C3B40713  31.763   0.453   7.724
 3032POPC   C4B40714  31.825   0.353   7.265
 3033POPC   NC340715  34.320  39.314   9.495
 3033POPC   PO440716  34.999  39.415   9.596
 3033POPC   GL140717  34.756  39.317   9.209
 3033POPC   GL240718  34.514  39.592   9.079
 3033POPC   C1A40719  34.578  39.115   8.825
 3033POPC   D2A40720  34.579  39.316   8.430
 3033POPC   C3A40721  34.667  39.077   8.073
 3033POPC   C4A40722  34.816  39.154   7.674
 3033POPC   C1B40723  34.198  39.502   8.714
 3033POPC   C2B40724  34.152  39.427   8.230
 3033POPC   C3B40725  34.384  39.438   7.821
 3033POPC   C4B40726  34.511  39.461   7.368
 3034POPC   NC340727  11.129  33.346   9.512
 3034POPC   PO440728  11.650  32.865   9.577
 3034POPC   GL140729  11.464  32.749   9.166
 3034POPC   GL240730  11.259  33.033   9.139
 3034POPC   C1A40731  11.382  32.861   8.688
 3034POPC   D2A40732  11.279  32.734   8.271
 3034POPC   C3A40733  11.451  32.957   7.924
 3034POPC   C4A40734  11.701  33.285   7.698
 3034POPC   C1B40735  10.872  33.135   8.891
 3034POPC   C2B40736  10.881  33.248   8.471
 3034POPC   C3B40737  11.147  33.290   8.136
 3034POPC   C4B40738  11.191  33.335   7.692
 3035POPC   NC340739  35.148   7.870   9.539
 3035POPC   PO440740  35.356   8.443   9.718
 3035POPC   GL140741  35.481   8.181   9.279
 3035POPC   GL240742  35.175   8.062   9.074
 3035POPC   C1A40743  35.525   8.259   8.788
 3035POPC   D2A40744  35.405   8.043   8.417
 3035POPC   C3A40745  35.505   8.292   8.050
 3035POPC   C4A40746  35.651   8.344   7.665
 3035POPC   C1B40747  34.992   8.250   8.690
 3035POPC   C2B40748  35.016   8.321   8.242
 3035POPC   C3B40749  35.144   7.982   7.941
 3035POPC   C4B40750  35.057   8.244   7.631
 3036POPC   NC340751   9.252  22.507   9.879
 3036POPC   PO440752   8.786  22.151   9.587
 3036POPC   GL140753   9.048  22.035   9.262
 3036POPC   GL240754   8.754  22.183   9.076
 3036POPC   C1A40755   9.176  22.102   8.826
 3036POPC   D2A40756   9.039  21.920   8.449
 3036POPC   C3A40757   9.116  22.249   8.183
 3036POPC   C4A40758   9.194  22.325   7.769
 3036POPC   C1B40759   8.560  22.062   8.692
 3036POPC   C2B40760   8.566  22.090   8.251
 3036POPC   C3B40761   8.735  22.117   7.840
 3036POPC   C4B40762   8.794  22.279   7.405
 3037POPC   NC340763  20.117  18.856   9.591
 3037POPC   PO440764  19.442  19.102   9.624
 3037POPC   GL140765  19.733  19.038   9.262
 3037POPC   GL240766  19.789  18.719   9.226
 3037POPC   C1A40767  19.957  19.184   8.870
 3037POPC   D2A40768  20.192  19.278   8.468
 3037POPC   C3A40769  20.028  19.350   8.015
 3037POPC   C4A40770  20.113  19.356   7.539
 3037POPC   C1B40771  19.579  18.705   8.861
 3037POPC   C2B40772  19.806  18.852   8.506
 3037POPC   C3B40773  19.779  18.730   8.107
 3037POPC   C4B40774  19.949  18.887   7.729
 3038POPC   NC340775  22.655  21.813   9.613
 3038POPC   PO440776  23.103  21.328   9.760
 3038POPC   GL140777  22.980  21.498   9.341
 3038POPC   GL240778  22.931  21.215   9.115
 3038POPC   C1A40779  22.924  21.665   8.896
 3038POPC   D2A40780  23.009  21.523   8.477
 3038POPC   C3A40781  22.834  21.756   8.130
 3038POPC   C4A40782  23.021  21.658   7.730
 3038POPC   C1B40783  22.647  21.223   8.764
 3038POPC   C2B40784  22.562  21.325   8.309
 3038POPC   C3B40785  22.881  21.225   7.972
 3038POPC   C4B40786  22.811  21.230   7.492
 3039POPC   NC340787   9.323  40.469   9.423
 3039POPC   PO440788   8.746  40.821   9.507
 3039POPC   GL140789   8.845  40.758   9.073
 3039POPC   GL240790   8.839  40.413   9.067
 3039POPC   C1A40791   8.707  40.852   8.658
 3039POPC   D2A40792   8.519  41.032   8.327
 3039POPC   C3A40793   8.752  40.877   8.016
 3039POPC   C4A40794   9.008  40.673   7.693
 3039POPC   C1B40795   8.890  40.373   8.617
 3039POPC   C2B40796   9.055  40.540   8.252
 3039POPC   C3B40797   9.366  40.364   7.984
 3039POPC   C4B40798   9.333  40.252   7.565
 3040POPC   NC340799  31.489   7.899   9.616
 3040POPC   PO440800  31.665   8.542   9.474
 3040POPC   GL140801  31.570   8.214   9.188
 3040POPC   GL240802  31.274   7.977   9.167
 3040POPC   C1A40803  31.421   8.294   8.784
 3040POPC   D2A40804  31.324   8.513   8.424
 3040POPC   C3A40805  31.506   8.350   8.057
 3040POPC   C4A40806  31.249   8.308   7.706
 3040POPC   C1B40807  31.564   7.786   8.857
 3040POPC   C2B40808  31.512   7.930   8.426
 3040POPC   C3B40809  31.308   7.878   8.010
 3040POPC   C4B40810  31.610   7.957   7.721
 3041POPC   NC340811  22.860   1.269   9.587
 3041POPC   PO440812  23.290   1.700   9.469
 3041POPC   GL140813  23.096   1.372   9.161
 3041POPC   GL240814  22.699   1.373   9.126
 3041POPC   C1A40815  23.043   1.258   8.753
 3041POPC   D2A40816  23.024   1.495   8.377
 3041POPC   C3A40817  23.192   1.219   8.107
 3041POPC   C4A40818  23.297   1.153   7.712
 3041POPC   C1B40819  22.668   1.605   8.748
 3041POPC   C2B40820  22.517   1.386   8.372
 3041POPC   C3B40821  22.652   1.220   7.980
 3041POPC   C4B40822  22.905   1.480   7.742
 3042POPC   NC340823  31.998  37.485   9.512
 3042POPC   PO440824  32.463  37.982   9.495
 3042POPC   GL140825  32.342  37.694   9.167
 3042POPC   GL240826  32.347  37.301   9.131
 3042POPC   C1A40827  32.154  37.721   8.757
 3042POPC   D2A40828  31.930  37.846   8.385
 3042POPC   C3A40829  32.117  37.660   8.063
 3042POPC   C4A40830  32.125  37.769   7.664
 3042POPC   C1B40831  32.646  37.485   8.809
 3042POPC   C2B40832  32.548  37.585   8.368
 3042POPC   C3B40833  32.538  37.343   7.978
 3042POPC   C4B40834  32.423  37.337   7.551
 3043POPC   NC340835  22.718  16.137   9.563
 3043POPC   PO440836  23.386  15.971   9.497
 3043POPC   GL140837  23.092  16.150   9.194
 3043POPC   GL240838  22.868  15.832   9.171
 3043POPC   C1A40839  22.746  16.282   8.921
 3043POPC   D2A40840  22.678  16.224   8.484
 3043POPC   C3A40841  23.004  16.319   8.189
 3043POPC   C4A40842  22.812  16.321   7.826
 3043POPC   C1B40843  22.679  15.775   8.762
 3043POPC   C2B40844  22.838  15.746   8.336
 3043POPC   C3B40845  23.035  15.735   7.950
 3043POPC   C4B40846  23.159  15.986   7.605
 3044POPC   NC340847  33.349  37.060   9.374
 3044POPC   PO440848  32.676  37.148   9.503
 3044POPC   GL140849  32.868  37.008   9.125
 3044POPC   GL240850  32.973  36.653   9.118
 3044POPC   C1A40851  33.046  37.017   8.719
 3044POPC   D2A40852  32.904  37.221   8.347
 3044POPC   C3A40853  33.055  37.050   7.974
 3044POPC   C4A40854  32.812  37.027   7.641
 3044POPC   C1B40855  32.793  36.559   8.687
 3044POPC   C2B40856  32.921  36.672   8.274
 3044POPC   C3B40857  32.941  36.572   7.814
 3044POPC   C4B40858  32.999  36.631   7.343
 3045POPC   NC340859   4.500  35.825   9.341
 3045POPC   PO440860   4.250  36.409   9.502
 3045POPC   GL140861   4.155  36.229   9.125
 3045POPC   GL240862   4.476  36.205   9.029
 3045POPC   C1A40863   4.102  36.108   8.702
 3045POPC   D2A40864   4.238  35.891   8.350
 3045POPC   C3A40865   4.207  36.150   8.020
 3045POPC   C4A40866   4.053  36.031   7.640
 3045POPC   C1B40867   4.613  35.959   8.695
 3045POPC   C2B40868   4.765  35.929   8.294
 3045POPC   C3B40869   4.554  35.765   7.940
 3045POPC   C4B40870   4.549  36.090   7.638
 3046POPC   NC340871  41.214  16.711   9.450
 3046POPC   PO440872  41.995  16.949   9.451
 3046POPC   GL140873  41.679  16.744   9.213
 3046POPC   GL240874  41.512  17.024   9.078
 3046POPC   C1A40875  41.472  16.556   8.855
 3046POPC   D2A40876  41.572  16.788   8.516
 3046POPC   C3A40877  41.723  16.770   8.109
 3046POPC   C4A40878  41.883  16.738   7.705
 3046POPC   C1B40879  41.429  17.262   8.704
 3046POPC   C2B40880  41.286  17.135   8.293
 3046POPC   C3B40881  41.198  16.723   8.096
 3046POPC   C4B40882  41.409  16.536   7.719
 3047POPC   NC340883  17.598  31.756   9.452
 3047POPC   PO440884  18.165  31.407   9.419
 3047POPC   GL140885  17.770  31.331   9.093
 3047POPC   GL240886  17.558  31.600   8.970
 3047POPC   C1A40887  17.524  31.239   8.648
 3047POPC   D2A40888  17.432  31.570   8.315
 3047POPC   C3A40889  17.456  31.457   7.878
 3047POPC   C4A40890  17.610  31.588   7.482
 3047POPC   C1B40891  17.887  31.613   8.647
 3047POPC   C2B40892  17.922  31.380   8.248
 3047POPC   C3B40893  18.003  31.477   7.800
 3047POPC   C4B40894  18.116  31.625   7.352
 3048POPC   NC340895  25.742  31.148   5.325
 3048POPC   PO440896  25.849  30.453   5.428
 3048POPC   GL140897  25.463  30.532   5.705
 3048POPC   GL240898  25.486  30.923   5.746
 3048POPC   C1A40899  25.242  30.629   6.125
 3048POPC   D2A40900  25.423  30.726   6.523
 3048POPC   C3A40901  25.178  30.769   6.902
 3048POPC   C4A40902  25.281  30.507   7.196
 3048POPC   C1B40903  25.678  31.088   6.131
 3048POPC   C2B40904  25.672  31.182   6.555
 3048POPC   C3B40905  25.658  30.961   6.932
 3048POPC   C4B40906  25.433  31.089   7.278
 3049POPC   NC340907  23.121   5.899   5.424
 3049POPC   PO440908  22.600   6.401   5.447
 3049POPC   GL140909  22.881   6.142   5.776
 3049POPC   GL240910  23.252   6.166   5.855
 3049POPC   C1A40911  22.916   5.856   6.136
 3049POPC   D2A40912  22.673   5.721   6.484
 3049POPC   C3A40913  22.885   5.558   6.852
 3049POPC   C4A40914  22.689   5.533   7.269
 3049POPC   C1B40915  23.407   5.800   6.065
 3049POPC   C2B40916  23.474   5.700   6.517
 3049POPC   C3B40917  23.339   5.829   6.953
 3049POPC   C4B40918  22.996   5.937   7.194
 3050POPC   NC340919  17.404  17.776   5.409
 3050POPC   PO440920  17.977  17.555   5.550
 3050POPC   GL140921  17.715  17.337   5.830
 3050POPC   GL240922  17.355  17.385   5.794
 3050POPC   C1A40923  17.650  17.230   6.233
 3050POPC   D2A40924  17.604  17.052   6.599
 3050POPC   C3A40925  17.665  17.251   6.968
 3050POPC   C4A40926  17.331  17.369   7.261
 3050POPC   C1B40927  17.165  17.345   6.230
 3050POPC   C2B40928  17.244  17.421   6.692
 3050POPC   C3B40929  17.069  17.724   7.007
 3050POPC   C4B40930  17.216  17.846   7.422
 3051POPC   NC340931  38.467  10.262   5.435
 3051POPC   PO440932  38.362  10.996   5.405
 3051POPC   GL140933  38.347  10.718   5.801
 3051POPC   GL240934  38.256  10.403   5.872
 3051POPC   C1A40935  38.613  10.623   6.179
 3051POPC   D2A40936  38.819  10.605   6.553
 3051POPC   C3A40937  38.456  10.538   6.758
 3051POPC   C4A40938  38.291  10.587   7.122
 3051POPC   C1B40939  38.177  10.381   6.328
 3051POPC   C2B40940  38.238  10.074   6.680
 3051POPC   C3B40941  38.132  10.071   7.130
 3051POPC   C4B40942  38.031  10.371   7.502
 3052POPC   NC340943   3.068  36.349   5.409
 3052POPC   PO440944   2.659  35.924   5.442
 3052POPC   GL140945   2.658  36.279   5.739
 3052POPC   GL240946   2.362  36.516   5.723
 3052POPC   C1A40947   2.879  36.226   6.144
 3052POPC   D2A40948   2.911  35.970   6.539
 3052POPC   C3A40949   2.916  36.206   6.944
 3052POPC   C4A40950   2.930  36.208   7.405
 3052POPC   C1B40951   2.371  36.383   6.159
 3052POPC   C2B40952   2.597  36.383   6.560
 3052POPC   C3B40953   2.426  36.374   6.996
 3052POPC   C4B40954   2.427  36.112   7.381
 3053POPC   NC340955  39.333  29.460   5.666
 3053POPC   PO440956  39.073  28.967   5.324
 3053POPC   GL140957  39.080  28.947   5.759
 3053POPC   GL240958  39.369  28.993   5.964
 3053POPC   C1A40959  38.891  29.020   6.160
 3053POPC   D2A40960  39.048  28.889   6.536
 3053POPC   C3A40961  39.037  29.135   6.878
 3053POPC   C4A40962  38.903  28.989   7.270
 3053POPC   C1B40963  39.270  29.346   6.293
 3053POPC   C2B40964  39.420  29.645   6.605
 3053POPC   C3B40965  39.477  29.511   6.999
 3053POPC   C4B40966  39.411  29.125   7.206
 3054POPC   NC340967   6.202  24.675   5.401
 3054POPC   PO440968   6.804  24.268   5.425
 3054POPC   GL140969   6.522  24.334   5.799
 3054POPC   GL240970   6.720  24.460   6.106
 3054POPC   C1A40971   6.237  24.407   6.184
 3054POPC   D2A40972   6.376  24.633   6.574
 3054POPC   C3A40973   6.708  24.513   6.850
 3054POPC   C4A40974   6.640  24.286   7.247
 3054POPC   C1B40975   6.751  24.905   6.258
 3054POPC   C2B40976   6.914  25.145   6.620
 3054POPC   C3B40977   7.094  24.892   6.951
 3054POPC   C4B40978   6.902  24.699   7.306
 3055POPC   NC340979  40.187  37.997   5.377
 3055POPC   PO440980  39.939  37.346   5.473
 3055POPC   GL140981  40.047  37.635   5.828
 3055POPC   GL240982  39.813  37.880   5.709
 3055POPC   C1A40983  40.087  37.702   6.330
 3055POPC   D2A40984  39.945  37.774   6.794
 3055POPC   C3A40985  40.178  37.855   7.196
 3055POPC   C4A40986  40.250  38.106   7.585
 3055POPC   C1B40987  39.627  37.802   6.124
 3055POPC   C2B40988  39.628  38.029   6.495
 3055POPC   C3B40989  39.605  38.136   6.939
 3055POPC   C4B40990  39.672  37.931   7.316
 3056POPC   NC340991  23.194  28.136   5.446
 3056POPC   PO440992  23.929  28.074   5.475
 3056POPC   GL140993  23.628  28.147   5.804
 3056POPC   GL240994  23.518  28.503   5.788
 3056POPC   C1A40995  23.746  28.195   6.240
 3056POPC   D2A40996  23.799  28.437   6.621
 3056POPC   C3A40997  23.695  28.170   6.971
 3056POPC   C4A40998  23.813  28.157   7.366
 3056POPC   C1B40999  23.599  28.734   6.182
 3056POPC   C2B41000  23.408  28.752   6.600
 3056POPC   C3B41001  23.593  28.735   7.034
 3056POPC   C4B41002  23.508  28.857   7.456
 3057POPC   NC341003  23.188   9.143   5.478
 3057POPC   PO441004  22.525   8.926   5.392
 3057POPC   GL141005  22.767   8.679   5.702
 3057POPC   GL241006  23.129   8.739   5.817
 3057POPC   C1A41007  22.747   8.732   6.154
 3057POPC   D2A41008  22.943   8.934   6.541
 3057POPC   C3A41009  22.752   8.854   6.993
 3057POPC   C4A41010  22.570   8.704   7.428
 3057POPC   C1B41011  23.282   8.611   6.252
 3057POPC   C2B41012  23.301   8.608   6.715
 3057POPC   C3B41013  23.161   8.584   7.118
 3057POPC   C4B41014  23.371   8.640   7.475
 3058POPC   NC341015  34.321  38.919   5.591
 3058POPC   PO441016  34.563  39.532   5.555
 3058POPC   GL141017  34.629  39.209   5.864
 3058POPC   GL241018  34.920  39.063   5.767
 3058POPC   C1A41019  34.646  39.022   6.302
 3058POPC   D2A41020  34.553  39.270   6.705
 3058POPC   C3A41021  34.623  39.056   7.084
 3058POPC   C4A41022  34.400  38.969   7.473
 3058POPC   C1B41023  35.006  39.382   6.144
 3058POPC   C2B41024  35.038  39.231   6.585
 3058POPC   C3B41025  34.984  39.442   7.026
 3058POPC   C4B41026  34.988  39.594   7.471
 3059POPC   NC341027  17.971   0.314   5.313
 3059POPC   PO441028  17.327   0.284   5.431
 3059POPC   GL141029  17.518   0.426   5.786
 3059POPC   GL241030  17.748   0.646   5.670
 3059POPC   C1A41031  17.379   0.617   6.182
 3059POPC   D2A41032  17.209   0.651   6.608
 3059POPC   C3A41033  17.358   0.384   6.954
 3059POPC   C4A41034  17.493   0.167   7.339
 3059POPC   C1B41035  17.875   0.685   6.096
 3059POPC   C2B41036  17.770   0.583   6.543
 3059POPC   C3B41037  17.695   0.771   6.938
 3059POPC   C4B41038  17.571   0.674   7.348
 3060POPC   NC341039   9.617   5.099   5.455
 3060POPC   PO441040  10.101   5.441   5.618
 3060POPC   GL141041   9.773   5.285   5.891
 3060POPC   GL241042   9.810   4.965   5.916
 3060POPC   C1A41043   9.515   5.328   6.248
 3060POPC   D2A41044   9.678   5.452   6.634
 3060POPC   C3A41045   9.472   5.371   7.023
 3060POPC   C4A41046   9.550   5.198   7.487
 3060POPC   C1B41047   9.949   5.052   6.313
 3060POPC   C2B41048   9.821   4.938   6.702
 3060POPC   C3B41049   9.865   5.049   7.107
 3060POPC   C4B41050  10.018   4.846   7.432
 3061POPC   NC341051  19.364  13.703   5.417
 3061POPC   PO441052  20.027  13.542   5.322
 3061POPC   GL141053  19.705  13.414   5.684
 3061POPC   GL241054  19.620  13.738   5.853
 3061POPC   C1A41055  19.603  13.318   6.144
 3061POPC   D2A41056  19.715  13.568   6.525
 3061POPC   C3A41057  19.860  13.467   6.949
 3061POPC   C4A41058  20.066  13.792   7.205
 3061POPC   C1B41059  19.464  13.935   6.230
 3061POPC   C2B41060  19.263  13.820   6.617
 3061POPC   C3B41061  19.437  13.780   7.035
 3061POPC   C4B41062  19.527  13.458   7.372
 3062POPC   NC341063  39.582  27.096   5.593
 3062POPC   PO441064  40.173  26.836   5.318
 3062POPC   GL141065  40.039  26.839   5.803
 3062POPC   GL241066  39.710  26.701   5.883
 3062POPC   C1A41067  40.065  26.817   6.292
 3062POPC   D2A41068  39.977  27.044   6.699
 3062POPC   C3A41069  40.097  26.835   7.084
 3062POPC   C4A41070  40.348  26.474   7.222
 3062POPC   C1B41071  39.534  26.911   6.237
 3062POPC   C2B41072  39.561  26.778   6.650
 3062POPC   C3B41073  39.572  27.006   7.023
 3062POPC   C4B41074  39.739  27.057   7.419
 3063POPC   NC341075  34.537  10.989   5.356
 3063POPC   PO441076  34.190  11.572   5.567
 3063POPC   GL141077  34.533  11.419   5.875
 3063POPC   GL241078  34.706  11.091   5.834
 3063POPC   C1A41079  34.712  11.342   6.288
 3063POPC   D2A41080  34.907  11.460   6.662
 3063POPC   C3A41081  34.618  11.363   6.922
 3063POPC   C4A41082  34.402  11.418   7.310
 3063POPC   C1B41083  35.075  11.011   6.094
 3063POPC   C2B41084  35.067  10.987   6.522
 3063POPC   C3B41085  35.092  11.082   6.951
 3063POPC   C4B41086  34.800  11.084   7.290
 3064POPC   NC341087  33.950   8.009   5.529
 3064POPC   PO441088  33.464   8.425   5.618
 3064POPC   GL141089  33.747   8.258   5.920
 3064POPC   GL241090  34.085   8.401   5.833
 3064POPC   C1A41091  33.603   8.054   6.276
 3064POPC   D2A41092  33.292   8.100   6.579
 3064POPC   C3A41093  33.497   7.889   6.896
 3064POPC   C4A41094  33.742   7.997   7.207
 3064POPC   C1B41095  34.054   8.589   6.248
 3064POPC   C2B41096  34.239   8.543   6.656
 3064POPC   C3B41097  34.045   8.372   7.017
 3064POPC   C4B41098  34.146   8.236   7.415
 3065POPC   NC341099   3.506  39.601   5.129
 3065POPC   PO441100   3.289  39.997   5.656
 3065POPC   GL141101   3.502  39.866   5.967
 3065POPC   GL241102   3.867  39.879   5.902
 3065POPC   C1A41103   3.344  39.826   6.343
 3065POPC   D2A41104   3.587  39.814   6.660
 3065POPC   C3A41105   3.357  39.783   7.018
 3065POPC   C4A41106   3.268  40.158   7.164
 3065POPC   C1B41107   3.990  40.150   6.261
 3065POPC   C2B41108   3.860  40.321   6.657
 3065POPC   C3B41109   3.757  40.129   7.046
 3065POPC   C4B41110   3.713  40.130   7.509
 3066POPC   NC341111  35.567  31.725   5.354
 3066POPC   PO441112  34.934  31.734   5.591
 3066POPC   GL141113  35.305  31.676   5.853
 3066POPC   GL241114  35.634  31.555   5.814
 3066POPC   C1A41115  35.346  31.782   6.278
 3066POPC   D2A41116  35.056  31.916   6.602
 3066POPC   C3A41117  35.261  31.688   6.894
 3066POPC   C4A41118  35.152  31.500   7.231
 3066POPC   C1B41119  35.573  31.311   6.152
 3066POPC   C2B41120  35.694  31.433   6.533
 3066POPC   C3B41121  35.848  31.208   6.831
 3066POPC   C4B41122  35.551  31.219   7.085
 3067POPC   NC341123  21.875  17.472   5.507
 3067POPC   PO441124  22.579  17.336   5.461
 3067POPC   GL141125  22.279  17.406   5.813
 3067POPC   GL241126  21.924  17.397   5.995
 3067POPC   C1A41127  22.355  17.474   6.234
 3067POPC   D2A41128  22.212  17.309   6.614
 3067POPC   C3A41129  22.474  17.417   6.941
 3067POPC   C4A41130  22.410  17.344   7.347
 3067POPC   C1B41131  21.680  17.074   6.201
 3067POPC   C2B41132  21.566  17.146   6.604
 3067POPC   C3B41133  21.779  17.235   6.951
 3067POPC   C4B41134  21.914  17.304   7.338
 3068POPC   NC341135  26.067  12.500   5.142
 3068POPC   PO441136  25.799  11.961   5.465
 3068POPC   GL141137  26.122  11.853   5.809
 3068POPC   GL241138  25.873  11.952   6.027
 3068POPC   C1A41139  26.368  12.032   6.142
 3068POPC   D2A41140  26.123  12.150   6.463
 3068POPC   C3A41141  26.184  12.103   6.897
 3068POPC   C4A41142  26.159  11.803   7.240
 3068POPC   C1B41143  25.732  11.803   6.429
 3068POPC   C2B41144  25.662  12.049   6.805
 3068POPC   C3B41145  25.684  12.042   7.251
 3068POPC   C4B41146  25.801  11.853   7.668
 3069POPC   NC341147  38.143  31.174   5.436
 3069POPC   PO441148  38.668  31.617   5.298
 3069POPC   GL141149  38.597  31.384   5.679
 3069POPC   GL241150  38.356  31.612   5.786
 3069POPC   C1A41151  38.689  31.432   6.141
 3069POPC   D2A41152  38.588  31.669   6.512
 3069POPC   C3A41153  38.677  31.487   6.908
 3069POPC   C4A41154  38.992  31.222   7.077
 3069POPC   C1B41155  38.180  31.394   6.167
 3069POPC   C2B41156  38.226  31.333   6.631
 3069POPC   C3B41157  38.172  31.384   7.074
 3069POPC   C4B41158  38.457  31.333   7.360
 3070POPC   NC341159   3.198  23.372   5.485
 3070POPC   PO441160   3.497  22.717   5.306
 3070POPC   GL141161   3.582  22.907   5.736
 3070POPC   GL241162   3.447  23.214   5.903
 3070POPC   C1A41163   3.729  22.817   6.142
 3070POPC   D2A41164   3.505  22.701   6.537
 3070POPC   C3A41165   3.557  22.750   6.982
 3070POPC   C4A41166   3.275  22.815   7.312
 3070POPC   C1B41167   3.464  23.196   6.359
 3070POPC   C2B41168   3.638  23.343   6.730
 3070POPC   C3B41169   3.337  23.237   7.043
 3070POPC   C4B41170   2.888  23.225   7.157
 3071POPC   NC341171   6.841  25.563   5.518
 3071POPC   PO441172   6.542  25.004   5.299
 3071POPC   GL141173   6.418  25.158   5.703
 3071POPC   GL241174   6.459  24.838   5.827
 3071POPC   C1A41175   6.542  25.385   6.103
 3071POPC   D2A41176   6.557  25.683   6.475
 3071POPC   C3A41177   6.536  25.496   6.885
 3071POPC   C4A41178   6.849  25.318   7.163
 3071POPC   C1B41179   6.228  24.979   6.176
 3071POPC   C2B41180   6.386  25.151   6.548
 3071POPC   C3B41181   6.542  24.986   6.939
 3071POPC   C4B41182   6.342  24.671   7.138
 3072POPC   NC341183  11.972   2.388   5.473
 3072POPC   PO441184  11.722   1.839   5.653
 3072POPC   GL141185  11.957   2.148   5.981
 3072POPC   GL241186  12.273   2.350   5.888
 3072POPC   C1A41187  11.938   2.183   6.481
 3072POPC   D2A41188  12.025   1.932   6.867
 3072POPC   C3A41189  11.714   1.830   7.194
 3072POPC   C4A41190  11.414   1.489   7.373
 3072POPC   C1B41191  12.376   2.403   6.311
 3072POPC   C2B41192  12.417   2.248   6.719
 3072POPC   C3B41193  12.468   2.087   7.126
 3072POPC   C4B41194  12.593   2.210   7.544
 3073POPC   NC341195  37.475  43.606   5.520
 3073POPC   PO441196  38.100  44.012   5.519
 3073POPC   GL141197  37.857  43.755   5.803
 3073POPC   GL241198  37.522  43.877   5.945
 3073POPC   C1A41199  37.830  43.592   6.233
 3073POPC   D2A41200  37.691  43.916   6.557
 3073POPC   C3A41201  37.742  43.845   7.003
 3073POPC   C4A41202  37.385  43.886   7.312
 3073POPC   C1B41203  37.245  43.782   6.298
 3073POPC   C2B41204  37.205  43.814   6.756
 3073POPC   C3B41205  37.362  44.200   6.907
 3073POPC   C4B41206  37.392  44.452   7.271
 3074POPC   NC341207  12.526  44.211   5.304
 3074POPC   PO441208  13.169  44.095   5.267
 3074POPC   GL141209  12.996  43.964   5.634
 3074POPC   GL241210  13.156  43.656   5.690
 3074POPC   C1A41211  12.782  43.969   6.057
 3074POPC   D2A41212  12.608  44.057   6.499
 3074POPC   C3A41213  12.488  44.034   6.960
 3074POPC   C4A41214  12.476  44.048   7.456
 3074POPC   C1B41215  13.276  43.844   6.067
 3074POPC   C2B41216  13.078  43.806   6.467
 3074POPC   C3B41217  12.839  43.667   6.816
 3074POPC   C4B41218  12.890  43.835   7.207
 3075POPC   NC341219   6.986  24.771   5.397
 3075POPC   PO441220   7.629  24.345   5.529
 3075POPC   GL141221   7.382  24.685   5.710
 3075POPC   GL241222   7.108  24.467   5.785
 3075POPC   C1A41223   7.285  24.781   6.144
 3075POPC   D2A41224   7.530  24.515   6.410
 3075POPC   C3A41225   7.529  24.596   6.832
 3075POPC   C4A41226   7.643  24.950   7.068
 3075POPC   C1B41227   7.183  24.238   6.163
 3075POPC   C2B41228   7.086  24.316   6.591
 3075POPC   C3B41229   7.140  24.313   7.039
 3075POPC   C4B41230   7.412  24.560   7.334
 3076POPC   NC341231  29.217   6.098   5.403
 3076POPC   PO441232  29.147   5.412   5.416
 3076POPC   GL141233  29.315   5.642   5.801
 3076POPC   GL241234  29.321   6.005   5.895
 3076POPC   C1A41235  29.077   5.714   6.230
 3076POPC   D2A41236  29.221   5.587   6.618
 3076POPC   C3A41237  29.071   5.833   6.924
 3076POPC   C4A41238  28.928   5.733   7.304
 3076POPC   C1B41239  29.430   6.042   6.356
 3076POPC   C2B41240  29.718   6.168   6.674
 3076POPC   C3B41241  29.600   6.210   7.080
 3076POPC   C4B41242  29.346   6.001   7.338
 3077POPC   NC341243  15.715   4.649   5.599
 3077POPC   PO441244  16.236   4.289   5.212
 3077POPC   GL141245  15.942   4.168   5.578
 3077POPC   GL241246  16.079   4.372   5.852
 3077POPC   C1A41247  15.804   3.994   6.013
 3077POPC   D2A41248  15.863   4.181   6.428
 3077POPC   C3A41249  15.768   4.006   6.825
 3077POPC   C4A41250  15.857   4.138   7.235
 3077POPC   C1B41251  16.274   4.468   6.253
 3077POPC   C2B41252  16.217   4.454   6.670
 3077POPC   C3B41253  16.299   4.229   6.998
 3077POPC   C4B41254  16.272   4.450   7.364
 3078POPC   NC341255  20.960  24.708   5.424
 3078POPC   PO441256  20.316  24.999   5.418
 3078POPC   GL141257  20.386  24.594   5.786
 3078POPC   GL241258  20.781  24.484   5.848
 3078POPC   C1A41259  20.529  24.417   6.265
 3078POPC   D2A41260  20.610  24.184   6.680
 3078POPC   C3A41261  20.603  24.413   7.091
 3078POPC   C4A41262  20.246  24.529   7.352
 3078POPC   C1B41263  21.009  24.589   6.260
 3078POPC   C2B41264  20.974  24.569   6.742
 3078POPC   C3B41265  21.059  24.678   7.198
 3078POPC   C4B41266  20.853  24.506   7.619
 3079POPC   NC341267   8.226  39.311   4.978
 3079POPC   PO441268   8.318  39.447   5.613
 3079POPC   GL141269   8.143  39.277   5.954
 3079POPC   GL241270   7.879  39.073   5.837
 3079POPC   C1A41271   8.136  39.186   6.382
 3079POPC   D2A41272   8.042  39.254   6.791
 3079POPC   C3A41273   8.284  38.999   7.061
 3079POPC   C4A41274   8.419  39.381   7.218
 3079POPC   C1B41275   7.690  39.280   6.179
 3079POPC   C2B41276   7.626  39.109   6.565
 3079POPC   C3B41277   7.550  39.286   6.949
 3079POPC   C4B41278   7.883  39.344   7.261
 3080POPC   NC341279   1.794  14.357   5.462
 3080POPC   PO441280   1.178  14.224   5.333
 3080POPC   GL141281   1.256  14.346   5.733
 3080POPC   GL241282   1.450  14.095   5.875
 3080POPC   C1A41283   1.048  14.326   6.138
 3080POPC   D2A41284   1.167  14.117   6.520
 3080POPC   C3A41285   1.036  14.362   6.880
 3080POPC   C4A41286   1.160  14.512   7.264
 3080POPC   C1B41287   1.566  14.306   6.248
 3080POPC   C2B41288   1.553  14.440   6.681
 3080POPC   C3B41289   1.469  14.157   7.037
 3080POPC   C4B41290   1.455  14.140   7.498
 3081POPC   NC341291  24.348  27.946   5.625
 3081POPC   PO441292  24.715  28.301   5.273
 3081POPC   GL141293  24.548  28.426   5.713
 3081POPC   GL241294  24.168  28.395   5.819
 3081POPC   C1A41295  24.546  28.327   6.171
 3081POPC   D2A41296  24.689  28.039   6.500
 3081POPC   C3A41297  24.585  28.216   6.894
 3081POPC   C4A41298  24.724  28.329   7.314
 3081POPC   C1B41299  24.098  28.586   6.207
 3081POPC   C2B41300  24.288  28.575   6.623
 3081POPC   C3B41301  24.151  28.449   7.024
 3081POPC   C4B41302  23.982  28.618   7.359
 3082POPC   NC341303  18.589  42.220   5.519
 3082POPC   PO441304  19.239  42.319   5.354
 3082POPC   GL141305  19.055  42.388   5.791
 3082POPC   GL241306  18.771  42.610   5.798
 3082POPC   C1A41307  19.120  42.616   6.201
 3082POPC   D2A41308  19.490  42.600   6.466
 3082POPC   C3A41309  19.547  42.648   6.906
 3082POPC   C4A41310  19.444  42.557   7.328
 3082POPC   C1B41311  18.680  42.355   6.190
 3082POPC   C2B41312  18.857  42.380   6.594
 3082POPC   C3B41313  19.061  42.442   7.004
 3082POPC   C4B41314  19.110  42.159   7.357
 3083POPC   NC341315  42.065   1.472   5.392
 3083POPC   PO441316  42.524   1.004   5.315
 3083POPC   GL141317  42.399   1.209   5.721
 3083POPC   GL241318  42.213   1.497   5.859
 3083POPC   C1A41319  42.373   1.151   6.189
 3083POPC   D2A41320  42.564   0.870   6.525
 3083POPC   C3A41321  42.280   1.040   6.841
 3083POPC   C4A41322  42.207   1.162   7.283
 3083POPC   C1B41323  42.035   1.602   6.235
 3083POPC   C2B41324  42.134   1.498   6.638
 3083POPC   C3B41325  42.002   1.631   7.030
 3083POPC   C4B41326  42.390   1.647   7.250
 3084POPC   NC341327   4.611   9.004   5.598
 3084POPC   PO441328   3.952   9.234   5.407
 3084POPC   GL141329   4.142   9.124   5.848
 3084POPC   GL241330   4.131   8.758   5.997
 3084POPC   C1A41331   4.331   9.118   6.282
 3084POPC   D2A41332   4.189   8.915   6.657
 3084POPC   C3A41333   4.388   9.061   7.023
 3084POPC   C4A41334   4.220   9.104   7.445
 3084POPC   C1B41335   4.496   8.629   6.268
 3084POPC   C2B41336   4.452   8.464   6.695
 3084POPC   C3B41337   4.466   8.543   7.103
 3084POPC   C4B41338   4.639   8.812   7.385
 3085POPC   NC341339  32.065   0.693   5.481
 3085POPC   PO441340  32.560   0.179   5.508
 3085POPC   GL141341  32.549   0.549   5.777
 3085POPC   GL241342  32.224   0.463   5.908
 3085POPC   C1A41343  32.517   0.754   6.206
 3085POPC   D2A41344  32.510   0.525   6.598
 3085POPC   C3A41345  32.229   0.549   6.953
 3085POPC   C4A41346  32.487   0.461   7.304
 3085POPC   C1B41347  32.295   0.070   6.148
 3085POPC   C2B41348  32.164  44.924   6.551
 3085POPC   C3B41349  32.289   0.037   6.942
 3085POPC   C4B41350  32.191   0.009   7.338
 3086POPC   NC341351  10.929  27.164   5.742
 3086POPC   PO441352  11.448  27.561   5.467
 3086POPC   GL141353  11.288  27.527   5.837
 3086POPC   GL241354  10.943  27.673   5.845
 3086POPC   C1A41355  11.348  27.419   6.263
 3086POPC   D2A41356  10.969  27.409   6.502
 3086POPC   C3A41357  11.011  27.616   6.868
 3086POPC   C4A41358  11.240  27.417   7.186
 3086POPC   C1B41359  11.155  27.876   6.172
 3086POPC   C2B41360  11.363  27.866   6.566
 3086POPC   C3B41361  11.393  27.920   7.003
 3086POPC   C4B41362  11.078  27.871   7.327
 3087POPC   NC341363   9.323  41.368   5.494
 3087POPC   PO441364   8.594  41.246   5.451
 3087POPC   GL141365   8.896  41.327   5.841
 3087POPC   GL241366   9.027  41.672   5.957
 3087POPC   C1A41367   8.972  41.329   6.313
 3087POPC   D2A41368   9.222  41.646   6.466
 3087POPC   C3A41369   9.162  41.609   6.870
 3087POPC   C4A41370   8.979  41.336   7.164
 3087POPC   C1B41371   8.697  41.769   6.294
 3087POPC   C2B41372   8.678  41.597   6.724
 3087POPC   C3B41373   8.646  41.708   7.194
 3087POPC   C4B41374   8.577  41.631   7.631
 3088POPC   NC341375  13.015   3.652   5.348
 3088POPC   PO441376  12.722   3.137   5.391
 3088POPC   GL141377  12.620   3.460   5.688
 3088POPC   GL241378  12.451   3.175   5.838
 3088POPC   C1A41379  12.737   3.745   6.074
 3088POPC   D2A41380  12.996   3.647   6.475
 3088POPC   C3A41381  12.844   3.835   6.870
 3088POPC   C4A41382  12.846   3.803   7.271
 3088POPC   C1B41383  12.761   3.242   6.169
 3088POPC   C2B41384  12.720   3.232   6.606
 3088POPC   C3B41385  12.908   3.321   6.990
 3088POPC   C4B41386  12.719   3.324   7.416
 3089POPC   NC341387   0.240   7.679   5.342
 3089POPC   PO441388   0.368   8.409   5.297
 3089POPC   GL141389   0.458   8.237   5.718
 3089POPC   GL241390   0.727   7.980   5.680
 3089POPC   C1A41391   0.241   8.216   6.153
 3089POPC   D2A41392   0.331   8.071   6.579
 3089POPC   C3A41393   0.261   8.250   6.979
 3089POPC   C4A41394   0.288   8.148   7.427
 3089POPC   C1B41395   0.679   7.847   6.128
 3089POPC   C2B41396   0.636   7.677   6.548
 3089POPC   C3B41397   0.638   7.859   6.972
 3089POPC   C4B41398   0.546   7.712   7.422
 3090POPC   NC341399  33.929  13.125   5.668
 3090POPC   PO441400  33.582  12.645   5.533
 3090POPC   GL141401  33.854  12.669   5.907
 3090POPC   GL241402  34.218  12.611   5.865
 3090POPC   C1A41403  33.840  12.934   6.300
 3090POPC   D2A41404  33.900  13.160   6.715
 3090POPC   C3A41405  33.695  12.921   7.039
 3090POPC   C4A41406  33.737  12.977   7.502
 3090POPC   C1B41407  34.310  12.752   6.314
 3090POPC   C2B41408  34.064  12.678   6.713
 3090POPC   C3B41409  34.126  12.707   7.148
 3090POPC   C4B41410  34.209  13.131   7.258
 3091POPC   NC341411   5.647  30.963   5.501
 3091POPC   PO441412   5.615  31.718   5.517
 3091POPC   GL141413   5.886  31.484   5.817
 3091POPC   GL241414   6.207  31.348   5.743
 3091POPC   C1A41415   5.985  31.401   6.243
 3091POPC   D2A41416   5.836  31.547   6.603
 3091POPC   C3A41417   5.786  31.268   6.887
 3091POPC   C4A41418   5.932  31.203   7.242
 3091POPC   C1B41419   6.317  31.723   6.028
 3091POPC   C2B41420   6.382  31.816   6.474
 3091POPC   C3B41421   6.162  31.836   6.855
 3091POPC   C4B41422   6.196  31.627   7.216
 3092POPC   NC341423  25.555  18.572   5.346
 3092POPC   PO441424  25.020  18.561   5.682
 3092POPC   GL141425  25.445  18.516   5.837
 3092POPC   GL241426  25.413  18.188   5.743
 3092POPC   C1A41427  25.651  18.478   6.226
 3092POPC   D2A41428  25.296  18.573   6.510
 3092POPC   C3A41429  25.256  18.303   6.859
 3092POPC   C4A41430  25.556  18.150   7.135
 3092POPC   C1B41431  25.252  18.170   6.170
 3092POPC   C2B41432  24.903  18.188   6.436
 3092POPC   C3B41433  24.842  17.999   6.809
 3092POPC   C4B41434  24.963  18.061   7.228
 3093POPC   NC341435  12.023  24.763   5.041
 3093POPC   PO441436  12.477  24.527   5.492
 3093POPC   GL141437  12.233  24.448   5.836
 3093POPC   GL241438  11.897  24.539   5.709
 3093POPC   C1A41439  12.267  24.232   6.229
 3093POPC   D2A41440  12.284  24.424   6.609
 3093POPC   C3A41441  12.377  24.251   6.950
 3093POPC   C4A41442  12.175  24.484   7.251
 3093POPC   C1B41443  11.813  24.490   6.162
 3093POPC   C2B41444  11.776  24.384   6.611
 3093POPC   C3B41445  11.686  24.531   7.031
 3093POPC   C4B41446  11.676  24.268   7.381
 3094POPC   NC341447  22.306   8.534   5.251
 3094POPC   PO441448  21.895   9.061   5.532
 3094POPC   GL141449  21.984   8.966   5.947
 3094POPC   GL241450  21.772   8.690   6.075
 3094POPC   C1A41451  22.316   9.032   6.196
 3094POPC   D2A41452  22.442   8.868   6.576
 3094POPC   C3A41453  22.354   9.154   6.883
 3094POPC   C4A41454  22.210   8.970   7.213
 3094POPC   C1B41455  21.731   8.705   6.507
 3094POPC   C2B41456  21.850   9.023   6.767
 3094POPC   C3B41457  21.725   9.087   7.166
 3094POPC   C4B41458  21.823   8.889   7.521
 3095POPC   NC341459  20.049  25.380   5.503
 3095POPC   PO441460  19.500  24.905   5.405
 3095POPC   GL141461  19.727  25.104   5.758
 3095POPC   GL241462  20.061  25.006   5.869
 3095POPC   C1A41463  19.625  25.223   6.170
 3095POPC   D2A41464  19.413  25.418   6.521
 3095POPC   C3A41465  19.606  25.407   6.894
 3095POPC   C4A41466  19.704  25.102   7.204
 3095POPC   C1B41467  20.125  25.265   6.258
 3095POPC   C2B41468  19.928  25.093   6.632
 3095POPC   C3B41469  20.143  24.905   6.983
 3095POPC   C4B41470  20.167  25.032   7.385
 3096POPC   NC341471  36.787  35.823   5.299
 3096POPC   PO441472  37.226  36.268   5.404
 3096POPC   GL141473  37.121  36.084   5.755
 3096POPC   GL241474  36.867  36.305   5.874
 3096POPC   C1A41475  37.263  36.164   6.170
 3096POPC   D2A41476  37.056  36.351   6.499
 3096POPC   C3A41477  36.925  36.070   6.790
 3096POPC   C4A41478  37.009  36.206   7.194
 3096POPC   C1B41479  36.720  36.046   6.230
 3096POPC   C2B41480  36.432  35.991   6.605
 3096POPC   C3B41481  36.494  36.120   7.054
 3096POPC   C4B41482  36.551  36.117   7.475
 3097POPC   NC341483  35.924  33.421   5.310
 3097POPC   PO441484  36.030  32.752   5.301
 3097POPC   GL141485  36.063  32.784   5.755
 3097POPC   GL241486  36.422  32.689   5.833
 3097POPC   C1A41487  35.963  33.055   6.134
 3097POPC   D2A41488  36.176  33.235   6.530
 3097POPC   C3A41489  36.048  33.079   6.957
 3097POPC   C4A41490  36.072  33.261   7.351
 3097POPC   C1B41491  36.410  32.854   6.263
 3097POPC   C2B41492  36.278  32.720   6.653
 3097POPC   C3B41493  36.350  32.679   7.077
 3097POPC   C4B41494  36.248  32.793   7.474
 3098POPC   NC341495   1.567  16.185   5.501
 3098POPC   PO441496   0.938  15.843   5.323
 3098POPC   GL141497   1.059  15.835   5.752
 3098POPC   GL241498   1.024  16.184   5.823
 3098POPC   C1A41499   1.344  15.812   6.116
 3098POPC   D2A41500   1.566  16.019   6.479
 3098POPC   C3A41501   1.469  15.839   6.891
 3098POPC   C4A41502   1.525  15.956   7.302
 3098POPC   C1B41503   1.170  16.275   6.222
 3098POPC   C2B41504   1.265  16.453   6.606
 3098POPC   C3B41505   1.307  16.310   7.004
 3098POPC   C4B41506   1.104  16.199   7.419
 3099POPC   NC341507   0.451  13.405   5.445
 3099POPC   PO441508   0.499  14.056   5.533
 3099POPC   GL141509   0.505  13.724   5.848
 3099POPC   GL241510   0.215  13.470   5.890
 3099POPC   C1A41511   0.514  13.590   6.272
 3099POPC   D2A41512   0.227  13.601   6.615
 3099POPC   C3A41513   0.552  13.646   6.885
 3099POPC   C4A41514   0.692  13.534   7.265
 3099POPC   C1B41515   0.197  13.192   6.271
 3099POPC   C2B41516   0.380  13.112   6.684
 3099POPC   C3B41517   0.277  13.284   7.080
 3099POPC   C4B41518   0.218  13.345   7.515
 3100POPC   NC341519  44.295  18.349   5.286
 3100POPC   PO441520  44.895  18.055   5.393
 3100POPC   GL141521  44.569  18.169   5.682
 3100POPC   GL241522  44.831  18.176   5.919
 3100POPC   C1A41523  44.358  18.292   6.088
 3100POPC   D2A41524  44.181  18.388   6.528
 3100POPC   C3A41525  44.457  18.293   6.900
 3100POPC   C4A41526  44.410  18.302   7.354
 3100POPC   C1B41527   0.006  17.896   6.228
 3100POPC   C2B41528  44.902  17.994   6.653
 3100POPC   C3B41529  44.896  17.766   7.031
 3100POPC   C4B41530  44.803  17.950   7.429
 3101POPC   NC341531  40.433  20.668   5.530
 3101POPC   PO441532  41.071  20.434   5.529
 3101POPC   GL141533  40.823  20.461   5.864
 3101POPC   GL241534  40.667  20.153   5.780
 3101POPC   C1A41535  40.882  20.664   6.260
 3101POPC   D2A41536  40.791  20.892   6.652
 3101POPC   C3A41537  40.869  20.712   7.037
 3101POPC   C4A41538  40.741  20.865   7.487
 3101POPC   C1B41539  40.575  20.155   6.206
 3101POPC   C2B41540  40.526  20.439   6.562
 3101POPC   C3B41541  40.516  20.305   6.982
 3101POPC   C4B41542  40.728  20.380   7.373
 3102POPC   NC341543  40.375  15.790   5.298
 3102POPC   PO441544  40.905  16.209   5.439
 3102POPC   GL141545  40.660  15.961   5.762
 3102POPC   GL241546  40.905  15.719   5.824
 3102POPC   C1A41547  40.602  15.748   6.219
 3102POPC   D2A41548  40.743  15.602   6.645
 3102POPC   C3A41549  40.773  15.885   6.979
 3102POPC   C4A41550  40.795  16.259   7.181
 3102POPC   C1B41551  41.013  16.066   6.117
 3102POPC   C2B41552  41.011  16.135   6.568
 3102POPC   C3B41553  41.235  16.136   6.968
 3102POPC   C4B41554  41.279  16.084   7.395
 3103POPC   NC341555  27.416   0.064   5.673
 3103POPC   PO441556  27.696  44.514   5.435
 3103POPC   GL141557  27.680  44.576   5.841
 3103POPC   GL241558  27.318  44.565   5.800
 3103POPC   C1A41559  27.932  44.509   6.241
 3103POPC   D2A41560  28.111  44.407   6.687
 3103POPC   C3A41561  27.831  44.590   7.045
 3103POPC   C4A41562  27.625  44.998   7.149
 3103POPC   C1B41563  27.373  44.622   6.247
 3103POPC   C2B41564  27.230  44.908   6.567
 3103POPC   C3B41565  27.163  44.759   6.978
 3103POPC   C4B41566  27.241  44.784   7.389
 3104POPC   NC341567  32.788  31.069   5.466
 3104POPC   PO441568  33.245  30.488   5.396
 3104POPC   GL141569  33.219  30.650   5.813
 3104POPC   GL241570  32.876  30.789   5.874
 3104POPC   C1A41571  33.228  30.714   6.254
 3104POPC   D2A41572  33.066  30.619   6.663
 3104POPC   C3A41573  33.328  30.410   6.963
 3104POPC   C4A41574  33.172  30.198   7.324
 3104POPC   C1B41575  32.699  30.748   6.279
 3104POPC   C2B41576  32.721  31.006   6.642
 3104POPC   C3B41577  32.630  30.842   7.016
 3104POPC   C4B41578  32.876  30.547   7.147
 3105POPC   NC341579  12.622  15.060   5.145
 3105POPC   PO441580  12.449  15.391   5.705
 3105POPC   GL141581  12.836  15.449   5.996
 3105POPC   GL241582  12.931  15.114   6.158
 3105POPC   C1A41583  12.871  15.566   6.403
 3105POPC   D2A41584  12.709  15.222   6.654
 3105POPC   C3A41585  13.006  15.106   6.965
 3105POPC   C4A41586  13.083  15.320   7.345
 3105POPC   C1B41587  12.494  14.929   6.259
 3105POPC   C2B41588  12.391  14.664   6.627
 3105POPC   C3B41589  12.532  14.846   6.983
 3105POPC   C4B41590  12.691  14.993   7.347
 3106POPC   NC341591  35.062  22.192   5.435
 3106POPC   PO441592  35.714  22.207   5.200
 3106POPC   GL141593  35.531  22.255   5.691
 3106POPC   GL241594  35.211  22.410   5.872
 3106POPC   C1A41595  35.513  22.160   6.191
 3106POPC   D2A41596  35.460  22.309   6.649
 3106POPC   C3A41597  35.621  22.075   6.988
 3106POPC   C4A41598  35.256  21.935   7.197
 3106POPC   C1B41599  35.018  22.408   6.294
 3106POPC   C2B41600  35.007  22.524   6.736
 3106POPC   C3B41601  34.849  22.377   7.095
 3106POPC   C4B41602  34.960  22.208   7.486
 3107POPC   NC341603  43.680  26.972   5.493
 3107POPC   PO441604  44.052  26.638   5.102
 3107POPC   GL141605  43.966  26.456   5.681
 3107POPC   GL241606  43.855  26.755   5.933
 3107POPC   C1A41607  44.115  26.418   6.183
 3107POPC   D2A41608  43.847  26.610   6.533
 3107POPC   C3A41609  43.937  26.564   6.991
 3107POPC   C4A41610  43.647  26.715   7.306
 3107POPC   C1B41611  44.175  26.931   6.291
 3107POPC   C2B41612  44.249  26.898   6.776
 3107POPC   C3B41613  44.031  27.030   7.191
 3107POPC   C4B41614  44.090  26.888   7.638
 3108POPC   NC341615   1.400  10.581   5.279
 3108POPC   PO441616   0.861  10.335   5.400
 3108POPC   GL141617   1.130  10.438   5.761
 3108POPC   GL241618   1.449  10.280   5.751
 3108POPC   C1A41619   1.204  10.458   6.223
 3108POPC   D2A41620   1.166  10.627   6.627
 3108POPC   C3A41621   1.195  10.343   6.978
 3108POPC   C4A41622   0.911  10.453   7.305
 3108POPC   C1B41623   1.573  10.700   5.947
 3108POPC   C2B41624   1.606  10.823   6.393
 3108POPC   C3B41625   1.611  10.715   6.845
 3108POPC   C4B41626   1.308  10.792   7.151
 3109POPC   NC341627  17.881  42.919   5.421
 3109POPC   PO441628  18.394  43.365   5.327
 3109POPC   GL141629  18.241  43.159   5.722
 3109POPC   GL241630  18.358  42.887   5.837
 3109POPC   C1A41631  18.192  43.121   6.218
 3109POPC   D2A41632  18.267  43.220   6.649
 3109POPC   C3A41633  18.207  42.971   7.010
 3109POPC   C4A41634  18.122  43.071   7.427
 3109POPC   C1B41635  18.636  42.867   6.237
 3109POPC   C2B41636  18.561  42.780   6.690
 3109POPC   C3B41637  18.643  42.739   7.144
 3109POPC   C4B41638  18.550  42.857   7.603
 3110POPC   NC341639   8.869   1.744   5.410
 3110POPC   PO441640   8.896   2.380   5.519
 3110POPC   GL141641   8.878   2.274   5.931
 3110POPC   GL241642   8.839   1.937   5.888
 3110POPC   C1A41643   8.954   2.141   6.359
 3110POPC   D2A41644   9.030   2.005   6.790
 3110POPC   C3A41645   9.270   2.276   7.121
 3110POPC   C4A41646   9.451   2.091   7.517
 3110POPC   C1B41647   8.650   1.752   6.247
 3110POPC   C2B41648   8.616   1.648   6.669
 3110POPC   C3B41649   8.638   1.797   7.076
 3110POPC   C4B41650   8.942   1.947   7.382
 3111POPC   NC341651  34.030   5.800   5.394
 3111POPC   PO441652  33.452   5.536   5.401
 3111POPC   GL141653  33.600   5.767   5.793
 3111POPC   GL241654  33.954   5.906   5.903
 3111POPC   C1A41655  33.704   5.601   6.214
 3111POPC   D2A41656  33.827   5.889   6.535
 3111POPC   C3A41657  33.537   5.911   6.865
 3111POPC   C4A41658  33.679   5.701   7.261
 3111POPC   C1B41659  34.075   6.249   6.251
 3111POPC   C2B41660  34.094   6.285   6.752
 3111POPC   C3B41661  34.139   5.995   7.114
 3111POPC   C4B41662  34.161   6.060   7.581
 3112POPC   NC341663   7.259  13.626   5.543
 3112POPC   PO441664   7.751  14.001   5.260
 3112POPC   GL141665   7.774  13.734   5.627
 3112POPC   GL241666   8.041  13.838   5.788
 3112POPC   C1A41667   7.647  13.644   6.070
 3112POPC   D2A41668   7.414  13.848   6.391
 3112POPC   C3A41669   7.423  13.701   6.829
 3112POPC   C4A41670   7.187  13.811   7.178
 3112POPC   C1B41671   7.966  13.996   6.217
 3112POPC   C2B41672   7.888  13.844   6.620
 3112POPC   C3B41673   7.832  13.939   7.043
 3112POPC   C4B41674   7.634  13.957   7.430
 3113POPC   NC341675  27.102  20.332   5.413
 3113POPC   PO441676  27.025  19.615   5.514
 3113POPC   GL141677  26.815  19.748   5.885
 3113POPC   GL241678  26.895  20.103   5.955
 3113POPC   C1A41679  26.906  19.616   6.278
 3113POPC   D2A41680  27.075  19.829   6.625
 3113POPC   C3A41681  26.767  19.959   6.957
 3113POPC   C4A41682  26.871  19.917   7.403
 3113POPC   C1B41683  26.642  20.063   6.356
 3113POPC   C2B41684  26.537  20.353   6.707
 3113POPC   C3B41685  26.445  20.346   7.107
 3113POPC   C4B41686  26.385  20.046   7.360
 3114POPC   NC341687  18.137  41.965   5.265
 3114POPC   PO441688  18.286  42.614   5.417
 3114POPC   GL141689  17.991  42.523   5.752
 3114POPC   GL241690  18.258  42.406   5.928
 3114POPC   C1A41691  17.928  42.662   6.205
 3114POPC   D2A41692  17.876  42.530   6.627
 3114POPC   C3A41693  18.186  42.455   6.942
 3114POPC   C4A41694  18.191  42.563   7.369
 3114POPC   C1B41695  18.154  42.208   6.316
 3114POPC   C2B41696  18.385  42.063   6.648
 3114POPC   C3B41697  18.616  42.195   7.008
 3114POPC   C4B41698  18.614  42.292   7.417
 3115POPC   NC341699  12.538  10.233   5.522
 3115POPC   PO441700  12.766  10.847   5.304
 3115POPC   GL141701  12.857  10.713   5.740
 3115POPC   GL241702  12.516  10.636   5.857
 3115POPC   C1A41703  13.083  10.688   6.174
 3115POPC   D2A41704  13.127  10.415   6.541
 3115POPC   C3A41705  13.074  10.520   6.972
 3115POPC   C4A41706  13.088  10.244   7.308
 3115POPC   C1B41707  12.590  10.537   6.265
 3115POPC   C2B41708  12.719  10.688   6.633
 3115POPC   C3B41709  12.543  10.578   7.021
 3115POPC   C4B41710  12.726  10.568   7.408
 3116POPC   NC341711   1.363  13.811   5.399
 3116POPC   PO441712   0.956  13.225   5.444
 3116POPC   GL141713   1.068  13.569   5.739
 3116POPC   GL241714   1.429  13.590   5.851
 3116POPC   C1A41715   1.003  13.800   6.121
 3116POPC   D2A41716   0.946  13.638   6.543
 3116POPC   C3A41717   1.033  13.835   6.928
 3116POPC   C4A41718   1.069  13.883   7.328
 3116POPC   C1B41719   1.506  13.729   6.281
 3116POPC   C2B41720   1.482  13.736   6.736
 3116POPC   C3B41721   1.502  13.672   7.186
 3116POPC   C4B41722   1.486  13.658   7.659
 3117POPC   NC341723   7.006  28.800   5.604
 3117POPC   PO441724   6.636  29.246   5.277
 3117POPC   GL141725   6.479  29.158   5.665
 3117POPC   GL241726   6.785  29.183   5.834
 3117POPC   C1A41727   6.358  29.237   6.094
 3117POPC   D2A41728   6.607  29.396   6.437
 3117POPC   C3A41729   6.591  29.129   6.815
 3117POPC   C4A41730   6.621  29.179   7.269
 3117POPC   C1B41731   6.803  28.959   6.229
 3117POPC   C2B41732   6.944  28.780   6.595
 3117POPC   C3B41733   7.054  28.902   6.978
 3117POPC   C4B41734   6.880  28.774   7.351
 3118POPC   NC341735   4.832   1.940   5.400
 3118POPC   PO441736   5.406   1.555   5.407
 3118POPC   GL141737   5.324   1.869   5.756
 3118POPC   GL241738   4.983   2.010   5.868
 3118POPC   C1A41739   5.270   1.816   6.226
 3118POPC   D2A41740   4.903   1.803   6.529
 3118POPC   C3A41741   5.037   2.001   6.926
 3118POPC   C4A41742   5.285   2.049   7.293
 3118POPC   C1B41743   4.713   2.206   6.192
 3118POPC   C2B41744   4.807   2.340   6.609
 3118POPC   C3B41745   4.660   2.361   7.015
 3118POPC   C4B41746   4.859   2.276   7.407
 3119POPC   NC341747  16.923  11.428   5.244
 3119POPC   PO441748  16.442  11.618   5.687
 3119POPC   GL141749  16.866  11.644   5.833
 3119POPC   GL241750  17.055  11.332   5.844
 3119POPC   C1A41751  16.854  11.650   6.286
 3119POPC   D2A41752  17.032  11.526   6.660
 3119POPC   C3A41753  16.806  11.479   7.059
 3119POPC   C4A41754  16.611  11.373   7.477
 3119POPC   C1B41755  17.012  11.148   6.287
 3119POPC   C2B41756  16.985  11.020   6.750
 3119POPC   C3B41757  16.912  10.999   7.223
 3119POPC   C4B41758  16.978  10.965   7.702
 3120POPC   NC341759  29.306  12.329   4.905
 3120POPC   PO441760  29.165  11.820   5.214
 3120POPC   GL141761  29.228  11.792   5.710
 3120POPC   GL241762  28.915  11.767   5.913
 3120POPC   C1A41763  29.415  11.921   6.169
 3120POPC   D2A41764  29.197  12.029   6.605
 3120POPC   C3A41765  29.307  12.229   7.029
 3120POPC   C4A41766  29.361  12.539   7.380
 3120POPC   C1B41767  29.042  11.619   6.308
 3120POPC   C2B41768  28.873  11.604   6.681
 3120POPC   C3B41769  28.971  11.827   7.049
 3120POPC   C4B41770  28.877  11.774   7.464
 3121POPC   NC341771  28.562  43.467   5.449
 3121POPC   PO441772  28.211  42.914   5.424
 3121POPC   GL141773  28.196  43.068   5.812
 3121POPC   GL241774  28.175  43.437   5.806
 3121POPC   C1A41775  28.318  42.932   6.203
 3121POPC   D2A41776  28.675  42.904   6.466
 3121POPC   C3A41777  28.573  43.065   6.853
 3121POPC   C4A41778  28.606  43.052   7.286
 3121POPC   C1B41779  28.178  43.476   6.218
 3121POPC   C2B41780  28.537  43.528   6.497
 3121POPC   C3B41781  28.643  43.563   6.927
 3121POPC   C4B41782  28.339  43.475   7.251
 3122POPC   NC341783  24.159  43.855   5.599
 3122POPC   PO441784  24.554  43.400   5.433
 3122POPC   GL141785  24.574  43.596   5.850
 3122POPC   GL241786  24.416  43.889   6.054
 3122POPC   C1A41787  24.785  43.602   6.236
 3122POPC   D2A41788  24.655  43.907   6.626
 3122POPC   C3A41789  24.490  43.725   7.054
 3122POPC   C4A41790  24.534  43.443   7.472
 3122POPC   C1B41791  24.254  44.325   6.119
 3122POPC   C2B41792  24.278  44.493   6.508
 3122POPC   C3B41793  24.471  44.341   6.870
 3122POPC   C4B41794  24.374  44.233   7.301
 3123POPC   NC341795   6.232  35.191   5.493
 3123POPC   PO441796   5.596  35.074   5.583
 3123POPC   GL141797   5.805  35.353   5.882
 3123POPC   GL241798   6.108  35.240   5.991
 3123POPC   C1A41799   5.814  35.504   6.308
 3123POPC   D2A41800   5.833  35.276   6.680
 3123POPC   C3A41801   5.921  35.465   7.052
 3123POPC   C4A41802   5.795  35.806   7.267
 3123POPC   C1B41803   5.767  34.949   6.205
 3123POPC   C2B41804   5.566  34.845   6.595
 3123POPC   C3B41805   5.672  34.924   7.042
 3123POPC   C4B41806   6.053  35.017   7.273
 3124POPC   NC341807  10.919  13.494   5.424
 3124POPC   PO441808  11.256  13.106   5.174
 3124POPC   GL141809  11.325  13.335   5.651
 3124POPC   GL241810  11.082  13.141   5.826
 3124POPC   C1A41811  11.166  13.644   6.030
 3124POPC   D2A41812  10.977  13.595   6.467
 3124POPC   C3A41813  11.151  13.764   6.851
 3124POPC   C4A41814  11.292  13.806   7.300
 3124POPC   C1B41815  11.442  13.263   6.158
 3124POPC   C2B41816  11.476  13.440   6.584
 3124POPC   C3B41817  11.421  13.371   7.036
 3124POPC   C4B41818  11.709  13.512   7.344
 3125POPC   NC341819  44.827  24.076   5.434
 3125POPC   PO441820  44.494  23.419   5.565
 3125POPC   GL141821  44.583  23.777   5.791
 3125POPC   GL241822  44.946  23.721   5.775
 3125POPC   C1A41823  44.601  23.683   6.206
 3125POPC   D2A41824  44.365  23.663   6.562
 3125POPC   C3A41825  44.644  23.561   6.888
 3125POPC   C4A41826  44.588  23.866   7.174
 3125POPC   C1B41827   0.057  23.927   6.142
 3125POPC   C2B41828  44.957  23.811   6.570
 3125POPC   C3B41829   0.065  23.924   6.996
 3125POPC   C4B41830  44.928  24.169   7.368
 3126POPC   NC341831  26.207  44.866   5.214
 3126POPC   PO441832  25.674  44.484   5.345
 3126POPC   GL141833  26.030  44.537   5.709
 3126POPC   GL241834  26.297  44.822   5.737
 3126POPC   C1A41835  26.047  44.680   6.183
 3126POPC   D2A41836  26.063  44.955   6.553
 3126POPC   C3A41837  25.815  44.776   6.899
 3126POPC   C4A41838  25.848  44.601   7.307
 3126POPC   C1B41839  26.487  44.481   6.019
 3126POPC   C2B41840  26.456  44.387   6.475
 3126POPC   C3B41841  26.314  44.603   6.853
 3126POPC   C4B41842  26.359  44.540   7.272
 3127POPC   NC341843  34.346  39.714   5.185
 3127POPC   PO441844  33.811  40.115   5.248
 3127POPC   GL141845  33.763  39.934   5.691
 3127POPC   GL241846  33.884  40.232   5.901
 3127POPC   C1A41847  33.642  39.877   6.177
 3127POPC   D2A41848  33.835  39.719   6.598
 3127POPC   C3A41849  33.917  39.810   7.069
 3127POPC   C4A41850  33.716  39.721   7.496
 3127POPC   C1B41851  33.958  40.265   6.367
 3127POPC   C2B41852  33.744  40.215   6.780
 3127POPC   C3B41853  33.783  40.328   7.222
 3127POPC   C4B41854  33.913  40.276   7.637
 3128POPC   NC341855  34.700   2.986   5.426
 3128POPC   PO441856  34.305   2.475   5.620
 3128POPC   GL141857  34.525   2.725   5.892
 3128POPC   GL241858  34.349   3.025   5.864
 3128POPC   C1A41859  34.612   2.637   6.325
 3128POPC   D2A41860  34.482   2.416   6.702
 3128POPC   C3A41861  34.499   2.746   7.002
 3128POPC   C4A41862  34.362   2.652   7.428
 3128POPC   C1B41863  34.637   3.195   6.168
 3128POPC   C2B41864  34.729   3.088   6.598
 3128POPC   C3B41865  34.873   3.144   7.017
 3128POPC   C4B41866  34.626   3.066   7.378
 3129POPC   NC341867  21.462  36.296   5.440
 3129POPC   PO441868  21.615  35.661   5.643
 3129POPC   GL141869  21.476  35.990   5.906
 3129POPC   GL241870  21.357  36.338   5.923
 3129POPC   C1A41871  21.332  35.934   6.298
 3129POPC   D2A41872  21.406  35.661   6.645
 3129POPC   C3A41873  21.505  35.878   7.012
 3129POPC   C4A41874  21.299  36.207   7.266
 3129POPC   C1B41875  21.250  36.462   6.344
 3129POPC   C2B41876  21.039  36.357   6.738
 3129POPC   C3B41877  21.072  36.625   7.075
 3129POPC   C4B41878  21.289  36.885   7.392
 3130POPC   NC341879  30.473  36.222   5.252
 3130POPC   PO441880  31.049  36.001   5.531
 3130POPC   GL141881  30.820  36.232   5.790
 3130POPC   GL241882  30.455  36.260   5.782
 3130POPC   C1A41883  30.754  36.088   6.195
 3130POPC   D2A41884  30.484  36.114   6.537
 3130POPC   C3A41885  30.756  36.078   6.871
 3130POPC   C4A41886  30.948  36.130   7.241
 3130POPC   C1B41887  30.449  36.498   6.163
 3130POPC   C2B41888  30.320  36.622   6.572
 3130POPC   C3B41889  30.454  36.489   6.946
 3130POPC   C4B41890  30.353  36.151   7.230
 3131POPC   NC341891  34.433   2.154   5.329
 3131POPC   PO441892  35.041   1.828   5.421
 3131POPC   GL141893  34.719   1.875   5.765
 3131POPC   GL241894  34.361   1.970   5.812
 3131POPC   C1A41895  34.697   2.058   6.185
 3131POPC   D2A41896  34.591   1.905   6.570
 3131POPC   C3A41897  34.819   2.015   6.949
 3131POPC   C4A41898  34.707   2.332   7.231
 3131POPC   C1B41899  34.217   1.763   6.220
 3131POPC   C2B41900  34.108   1.705   6.664
 3131POPC   C3B41901  34.286   1.985   6.957
 3131POPC   C4B41902  34.493   1.880   7.339
 3132POPC   NC341903  28.211  41.772   5.420
 3132POPC   PO441904  28.448  41.131   5.497
 3132POPC   GL141905  28.448  41.496   5.793
 3132POPC   GL241906  28.110  41.625   5.900
 3132POPC   C1A41907  28.611  41.577   6.217
 3132POPC   D2A41908  28.745  41.409   6.619
 3132POPC   C3A41909  28.705  41.700   6.961
 3132POPC   C4A41910  28.436  41.727   7.332
 3132POPC   C1B41911  28.184  41.260   6.168
 3132POPC   C2B41912  28.300  41.144   6.596
 3132POPC   C3B41913  28.384  41.287   7.020
 3132POPC   C4B41914  28.149  41.150   7.381
 3133POPC   NC341915  43.506  28.809   5.666
 3133POPC   PO441916  43.251  29.387   5.413
 3133POPC   GL141917  43.182  29.217   5.825
 3133POPC   GL241918  42.981  28.906   5.872
 3133POPC   C1A41919  42.985  29.338   6.230
 3133POPC   D2A41920  42.890  29.175   6.655
 3133POPC   C3A41921  43.078  29.390   7.051
 3133POPC   C4A41922  43.110  29.365   7.552
 3133POPC   C1B41923  43.249  28.889   6.264
 3133POPC   C2B41924  43.271  28.799   6.695
 3133POPC   C3B41925  43.550  28.790   7.030
 3133POPC   C4B41926  43.298  29.001   7.271
 3134POPC   NC341927  28.772   6.680   5.529
 3134POPC   PO441928  29.434   6.521   5.362
 3134POPC   GL141929  29.213   6.496   5.739
 3134POPC   GL241930  29.234   6.831   5.766
 3134POPC   C1A41931  29.046   6.417   6.173
 3134POPC   D2A41932  28.933   6.142   6.526
 3134POPC   C3A41933  28.983   6.359   6.928
 3134POPC   C4A41934  29.270   6.634   7.102
 3134POPC   C1B41935  28.960   6.947   6.123
 3134POPC   C2B41936  28.970   6.828   6.569
 3134POPC   C3B41937  28.855   6.938   6.987
 3134POPC   C4B41938  28.744   6.686   7.348
 3135POPC   NC341939  23.735  11.592   5.339
 3135POPC   PO441940  23.395  10.995   5.468
 3135POPC   GL141941  23.666  11.134   5.809
 3135POPC   GL241942  23.857  11.429   5.811
 3135POPC   C1A41943  23.632  11.234   6.232
 3135POPC   D2A41944  23.849  11.292   6.582
 3135POPC   C3A41945  23.618  11.096   6.868
 3135POPC   C4A41946  23.748  11.177   7.240
 3135POPC   C1B41947  24.041  11.584   6.203
 3135POPC   C2B41948  24.276  11.586   6.632
 3135POPC   C3B41949  24.147  11.503   7.066
 3135POPC   C4B41950  23.898  11.613   7.458
 3136POPC   NC341951  17.760   1.908   5.276
 3136POPC   PO441952  18.355   2.310   5.274
 3136POPC   GL141953  18.254   2.223   5.751
 3136POPC   GL241954  17.878   2.185   5.753
 3136POPC   C1A41955  18.395   2.272   6.252
 3136POPC   D2A41956  18.586   2.113   6.681
 3136POPC   C3A41957  18.363   1.809   7.000
 3136POPC   C4A41958  17.895   1.723   7.076
 3136POPC   C1B41959  17.906   2.125   6.210
 3136POPC   C2B41960  18.073   2.175   6.650
 3136POPC   C3B41961  18.280   2.321   7.056
 3136POPC   C4B41962  18.732   2.201   7.164
 3137POPC   NC341963   9.224  33.766   5.586
 3137POPC   PO441964   9.769  34.057   5.181
 3137POPC   GL141965   9.810  33.760   5.516
 3137POPC   GL241966   9.915  34.037   5.686
 3137POPC   C1A41967   9.747  33.692   6.004
 3137POPC   D2A41968   9.565  33.890   6.392
 3137POPC   C3A41969   9.569  33.658   6.796
 3137POPC   C4A41970   9.483  33.733   7.214
 3137POPC   C1B41971   9.936  34.160   6.109
 3137POPC   C2B41972   9.975  34.151   6.534
 3137POPC   C3B41973   9.728  34.157   6.910
 3137POPC   C4B41974   9.865  34.054   7.320
 3138POPC   NC341975  37.484  23.866   5.531
 3138POPC   PO441976  36.826  23.844   5.343
 3138POPC   GL141977  36.902  23.754   5.785
 3138POPC   GL241978  37.151  23.495   5.840
 3138POPC   C1A41979  36.865  23.788   6.239
 3138POPC   D2A41980  36.927  24.023   6.628
 3138POPC   C3A41981  36.823  23.822   6.990
 3138POPC   C4A41982  36.727  23.690   7.383
 3138POPC   C1B41983  37.304  23.525   6.285
 3138POPC   C2B41984  37.150  23.518   6.722
 3138POPC   C3B41985  37.179  23.420   7.180
 3138POPC   C4B41986  37.172  23.527   7.657
 3139POPC   NC341987  26.289  35.322   5.686
 3139POPC   PO441988  25.767  35.398   5.250
 3139POPC   GL141989  25.782  35.286   5.728
 3139POPC   GL241990  25.816  35.631   5.872
 3139POPC   C1A41991  25.939  35.196   6.199
 3139POPC   D2A41992  25.873  35.381   6.617
 3139POPC   C3A41993  26.163  35.370   6.977
 3139POPC   C4A41994  26.386  35.728   7.176
 3139POPC   C1B41995  26.098  35.705   6.244
 3139POPC   C2B41996  26.159  35.830   6.681
 3139POPC   C3B41997  25.907  35.802   7.070
 3139POPC   C4B41998  25.912  35.909   7.537
 3140POPC   NC341999  42.805  39.359   5.497
 3140POPC   PO442000  42.257  39.683   5.359
 3140POPC   GL142001  42.263  39.411   5.741
 3140POPC   GL242002  42.549  39.193   5.901
 3140POPC   C1A42003  42.135  39.326   6.177
 3140POPC   D2A42004  42.391  39.177   6.530
 3140POPC   C3A42005  42.260  39.339   6.916
 3140POPC   C4A42006  42.203  39.238   7.331
 3140POPC   C1B42007  42.745  38.937   6.231
 3140POPC   C2B42008  42.777  38.851   6.700
 3140POPC   C3B42009  42.626  39.019   7.108
 3140POPC   C4B42010  42.454  38.828   7.488
 3141POPC   NC342011  38.654   2.385   5.643
 3141POPC   PO442012  38.501   2.975   5.347
 3141POPC   GL142013  38.452   2.966   5.787
 3141POPC   GL242014  38.285   2.655   5.858
 3141POPC   C1A42015  38.497   2.915   6.252
 3141POPC   D2A42016  38.265   2.890   6.627
 3141POPC   C3A42017  38.499   2.867   7.028
 3141POPC   C4A42018  38.387   2.929   7.460
 3141POPC   C1B42019  38.373   2.403   6.223
 3141POPC   C2B42020  38.210   2.286   6.590
 3141POPC   C3B42021  38.135   2.501   6.943
 3141POPC   C4B42022  38.325   2.417   7.307
 3142POPC   NC342023   9.007  16.078   5.139
 3142POPC   PO442024   8.640  15.661   5.631
 3142POPC   GL142025   8.825  15.897   5.844
 3142POPC   GL242026   9.072  15.988   5.648
 3142POPC   C1A42027   8.739  16.006   6.234
 3142POPC   D2A42028   8.726  15.764   6.619
 3142POPC   C3A42029   8.765  16.073   6.900
 3142POPC   C4A42030   8.934  16.168   7.241
 3142POPC   C1B42031   9.231  16.095   6.082
 3142POPC   C2B42032   9.114  16.160   6.546
 3142POPC   C3B42033   9.365  16.100   6.955
 3142POPC   C4B42034   9.327  15.913   7.396
 3143POPC   NC342035  27.783   8.956   5.407
 3143POPC   PO442036  27.167   8.653   5.396
 3143POPC   GL142037  27.314   8.947   5.715
 3143POPC   GL242038  27.657   8.901   5.888
 3143POPC   C1A42039  27.249   9.076   6.125
 3143POPC   D2A42040  27.391   8.838   6.493
 3143POPC   C3A42041  27.408   9.091   6.850
 3143POPC   C4A42042  27.175   9.430   7.022
 3143POPC   C1B42043  27.742   9.154   6.253
 3143POPC   C2B42044  27.887   9.012   6.634
 3143POPC   C3B42045  27.723   8.679   6.848
 3143POPC   C4B42046  27.746   8.908   7.205
 3144POPC   NC342047  28.233  36.494   5.555
 3144POPC   PO442048  28.147  35.886   5.317
 3144POPC   GL142049  28.066  36.033   5.719
 3144POPC   GL242050  28.041  35.737   5.858
 3144POPC   C1A42051  27.960  36.228   6.132
 3144POPC   D2A42052  27.963  36.087   6.583
 3144POPC   C3A42053  28.255  36.250   6.903
 3144POPC   C4A42054  28.597  36.044   7.171
 3144POPC   C1B42055  28.335  35.890   6.200
 3144POPC   C2B42056  28.442  35.839   6.628
 3144POPC   C3B42057  28.211  35.764   7.005
 3144POPC   C4B42058  28.245  35.691   7.439
 3145POPC   NC342059   7.888  24.824   5.633
 3145POPC   PO442060   8.123  24.316   5.233
 3145POPC   GL142061   8.163  24.381   5.720
 3145POPC   GL242062   8.370  24.675   5.864
 3145POPC   C1A42063   8.014  24.448   6.202
 3145POPC   D2A42064   7.907  24.283   6.651
 3145POPC   C3A42065   8.024  24.529   7.020
 3145POPC   C4A42066   8.283  24.358   7.355
 3145POPC   C1B42067   8.517  24.410   6.224
 3145POPC   C2B42068   8.422  24.504   6.668
 3145POPC   C3B42069   8.525  24.692   7.075
 3145POPC   C4B42070   8.486  24.769   7.569
 3146POPC   NC342071  21.373   8.175   5.233
 3146POPC   PO442072  21.966   8.116   5.570
 3146POPC   GL142073  21.579   8.235   5.816
 3146POPC   GL242074  21.247   8.048   5.724
 3146POPC   C1A42075  21.453   8.353   6.260
 3146POPC   D2A42076  21.515   8.255   6.700
 3146POPC   C3A42077  21.317   8.297   7.098
 3146POPC   C4A42078  21.686   8.466   7.290
 3146POPC   C1B42079  21.328   7.894   6.130
 3146POPC   C2B42080  21.292   7.816   6.551
 3146POPC   C3B42081  21.410   7.793   6.983
 3146POPC   C4B42082  21.326   7.871   7.404
 3147POPC   NC342083   2.718   6.880   5.190
 3147POPC   PO442084   3.087   6.432   5.483
 3147POPC   GL142085   2.820   6.526   5.795
 3147POPC   GL242086   2.603   6.813   5.749
 3147POPC   C1A42087   2.825   6.606   6.215
 3147POPC   D2A42088   2.787   6.888   6.526
 3147POPC   C3A42089   2.998   6.746   6.882
 3147POPC   C4A42090   3.037   6.424   7.162
 3147POPC   C1B42091   2.339   6.826   6.170
 3147POPC   C2B42092   2.188   6.672   6.568
 3147POPC   C3B42093   2.489   6.639   6.886
 3147POPC   C4B42094   2.641   6.730   7.286
 3148POPC   NC342095   9.709  34.498   5.325
 3148POPC   PO442096   9.120  34.223   5.482
 3148POPC   GL142097   9.495  34.299   5.790
 3148POPC   GL242098   9.812  34.538   5.808
 3148POPC   C1A42099   9.527  34.443   6.238
 3148POPC   D2A42100   9.452  34.685   6.615
 3148POPC   C3A42101   9.307  34.466   6.956
 3148POPC   C4A42102   9.496  34.396   7.366
 3148POPC   C1B42103  10.015  34.663   6.210
 3148POPC   C2B42104   9.978  34.657   6.649
 3148POPC   C3B42105   9.803  34.665   7.041
 3148POPC   C4B42106   9.973  34.634   7.430
 3149POPC   NC342107  43.754   1.650   4.950
 3149POPC   PO442108  43.887   2.223   5.398
 3149POPC   GL142109  43.993   1.970   5.747
 3149POPC   GL242110  43.962   1.655   5.684
 3149POPC   C1A42111  43.881   2.030   6.158
 3149POPC   D2A42112  43.854   2.260   6.549
 3149POPC   C3A42113  44.024   2.120   6.923
 3149POPC   C4A42114  43.744   2.193   7.264
 3149POPC   C1B42115  44.094   1.564   6.107
 3149POPC   C2B42116  43.937   1.717   6.547
 3149POPC   C3B42117  43.618   1.818   6.848
 3149POPC   C4B42118  43.870   1.705   7.207
 3150POPC   NC342119  13.984  44.418   5.268
 3150POPC   PO442120  13.577  44.928   5.428
 3150POPC   GL142121  13.616  44.669   5.810
 3150POPC   GL242122  13.709  44.344   5.673
 3150POPC   C1A42123  13.584  44.706   6.299
 3150POPC   D2A42124  13.717  44.721   6.782
 3150POPC   C3A42125  13.529  44.986   7.128
 3150POPC   C4A42126  13.182   0.043   7.444
 3150POPC   C1B42127  13.707  44.225   6.082
 3150POPC   C2B42128  13.855  44.322   6.491
 3150POPC   C3B42129  14.011  44.307   6.886
 3150POPC   C4B42130  13.800  44.452   7.234
 3151POPC   NC342131   7.699  36.270   5.486
 3151POPC   PO442132   7.095  36.034   5.660
 3151POPC   GL142133   7.375  36.191   5.904
 3151POPC   GL242134   7.585  35.936   5.840
 3151POPC   C1A42135   7.467  36.286   6.324
 3151POPC   D2A42136   7.418  36.097   6.710
 3151POPC   C3A42137   7.392  36.293   7.107
 3151POPC   C4A42138   7.578  36.128   7.496
 3151POPC   C1B42139   7.413  35.769   6.233
 3151POPC   C2B42140   7.265  35.616   6.641
 3151POPC   C3B42141   7.346  35.750   7.103
 3151POPC   C4B42142   7.602  35.599   7.490
 3152POPC   NC342143  37.715  21.264   5.310
 3152POPC   PO442144  37.575  21.847   5.410
 3152POPC   GL142145  37.615  21.583   5.764
 3152POPC   GL242146  37.952  21.531   5.901
 3152POPC   C1A42147  37.437  21.415   6.147
 3152POPC   D2A42148  37.658  21.410   6.541
 3152POPC   C3A42149  37.456  21.258   6.873
 3152POPC   C4A42150  37.589  21.231   7.269
 3152POPC   C1B42151  37.804  21.800   6.245
 3152POPC   C2B42152  37.935  21.836   6.688
 3152POPC   C3B42153  37.922  21.526   7.027
 3152POPC   C4B42154  37.835  21.613   7.480
 3153POPC   NC342155  21.778  12.741   5.412
 3153POPC   PO442156  22.366  13.079   5.254
 3153POPC   GL142157  22.246  12.864   5.665
 3153POPC   GL242158  21.917  12.921   5.879
 3153POPC   C1A42159  22.374  12.925   6.104
 3153POPC   D2A42160  22.244  12.822   6.514
 3153POPC   C3A42161  22.203  13.130   6.832
 3153POPC   C4A42162  22.419  12.994   7.170
 3153POPC   C1B42163  21.851  12.518   6.102
 3153POPC   C2B42164  21.980  12.390   6.522
 3153POPC   C3B42165  21.898  12.679   6.879
 3153POPC   C4B42166  21.564  12.651   7.169
 3154POPC   NC342167  13.704   9.125   5.004
 3154POPC   PO442168  13.345   8.845   5.346
 3154POPC   GL142169  13.612   8.908   5.715
 3154POPC   GL242170  13.895   8.700   5.812
 3154POPC   C1A42171  13.662   9.039   6.152
 3154POPC   D2A42172  13.437   9.011   6.540
 3154POPC   C3A42173  13.641   8.990   6.968
 3154POPC   C4A42174  13.683   9.284   7.309
 3154POPC   C1B42175  13.748   8.534   6.240
 3154POPC   C2B42176  13.631   8.557   6.686
 3154POPC   C3B42177  13.778   8.390   7.077
 3154POPC   C4B42178  14.168   8.298   7.288
 3155POPC   NC342179  12.725  27.631   5.320
 3155POPC   PO442180  13.304  27.512   5.618
 3155POPC   GL142181  12.906  27.382   5.753
 3155POPC   GL242182  12.669  27.677   5.822
 3155POPC   C1A42183  12.854  27.207   6.149
 3155POPC   D2A42184  12.908  27.383   6.553
 3155POPC   C3A42185  12.804  27.231   6.952
 3155POPC   C4A42186  12.783  27.556   7.264
 3155POPC   C1B42187  12.920  27.735   6.177
 3155POPC   C2B42188  12.783  27.949   6.550
 3155POPC   C3B42189  12.855  28.030   6.985
 3155POPC   C4B42190  13.139  27.948   7.318
 3156POPC   NC342191  35.963  39.513   5.137
 3156POPC   PO442192  36.132  40.074   5.387
 3156POPC   GL142193  36.148  40.090   5.815
 3156POPC   GL242194  36.269  39.760   5.940
 3156POPC   C1A42195  36.010  40.112   6.235
 3156POPC   D2A42196  36.266  40.246   6.558
 3156POPC   C3A42197  36.112  40.200   6.972
 3156POPC   C4A42198  36.086  40.461   7.336
 3156POPC   C1B42199  36.436  39.528   6.302
 3156POPC   C2B42200  36.332  39.741   6.647
 3156POPC   C3B42201  36.360  39.743   7.035
 3156POPC   C4B42202  36.306  39.962   7.408
 3157POPC   NC342203  41.300   4.893   5.485
 3157POPC   PO442204  41.348   5.534   5.406
 3157POPC   GL142205  41.634   5.386   5.803
 3157POPC   GL242206  41.627   5.038   5.854
 3157POPC   C1A42207  41.603   5.289   6.295
 3157POPC   D2A42208  41.573   5.456   6.703
 3157POPC   C3A42209  41.485   5.169   7.074
 3157POPC   C4A42210  41.416   5.353   7.489
 3157POPC   C1B42211  41.188   5.108   6.096
 3157POPC   C2B42212  41.177   4.996   6.546
 3157POPC   C3B42213  41.218   4.698   6.889
 3157POPC   C4B42214  41.152   4.700   7.334
 3158POPC   NC342215  13.420  42.128   5.342
 3158POPC   PO442216  13.996  42.431   5.244
 3158POPC   GL142217  13.799  42.299   5.670
 3158POPC   GL242218  13.642  41.958   5.772
 3158POPC   C1A42219  13.699  42.364   6.128
 3158POPC   D2A42220  13.878  42.472   6.528
 3158POPC   C3A42221  13.709  42.355   6.909
 3158POPC   C4A42222  13.453  42.547   7.158
 3158POPC   C1B42223  13.350  41.983   6.120
 3158POPC   C2B42224  13.333  42.228   6.525
 3158POPC   C3B42225  13.141  42.204   6.944
 3158POPC   C4B42226  13.296  42.028   7.339
 3159POPC   NC342227  36.980  14.892   5.354
 3159POPC   PO442228  37.134  14.223   5.246
 3159POPC   GL142229  36.908  14.310   5.642
 3159POPC   GL242230  37.204  14.199   5.769
 3159POPC   C1A42231  36.709  14.456   6.066
 3159POPC   D2A42232  36.650  14.699   6.481
 3159POPC   C3A42233  36.476  14.457   6.823
 3159POPC   C4A42234  36.606  14.324   7.229
 3159POPC   C1B42235  37.189  14.362   6.163
 3159POPC   C2B42236  37.202  14.468   6.569
 3159POPC   C3B42237  36.991  14.386   6.908
 3159POPC   C4B42238  37.100  14.119   7.223
 3160POPC   NC342239  38.036   2.702   5.329
 3160POPC   PO442240  37.526   3.076   5.148
 3160POPC   GL142241  37.519   2.882   5.603
 3160POPC   GL242242  37.819   2.848   5.811
 3160POPC   C1A42243  37.421   3.070   6.046
 3160POPC   D2A42244  37.628   2.980   6.415
 3160POPC   C3A42245  37.636   2.957   6.855
 3160POPC   C4A42246  38.033   3.069   7.062
 3160POPC   C1B42247  37.911   2.615   6.227
 3160POPC   C2B42248  37.662   2.400   6.553
 3160POPC   C3B42249  37.587   2.434   6.970
 3160POPC   C4B42250  37.798   2.685   7.283
 3161POPC   NC342251  41.097  31.192   5.210
 3161POPC   PO442252  40.628  31.655   5.443
 3161POPC   GL142253  40.898  31.446   5.723
 3161POPC   GL242254  41.037  31.118   5.768
 3161POPC   C1A42255  40.838  31.430   6.160
 3161POPC   D2A42256  40.712  31.260   6.546
 3161POPC   C3A42257  40.728  31.591   6.876
 3161POPC   C4A42258  40.999  31.777   7.180
 3161POPC   C1B42259  41.214  31.080   6.203
 3161POPC   C2B42260  41.233  31.070   6.672
 3161POPC   C3B42261  40.907  31.120   6.987
 3161POPC   C4B42262  40.459  31.174   7.027
 3162POPC   NC342263  25.362  34.608   5.505
 3162POPC   PO442264  25.008  34.016   5.495
 3162POPC   GL142265  25.244  34.266   5.864
 3162POPC   GL242266  25.615  34.212   5.777
 3162POPC   C1A42267  25.239  34.583   6.244
 3162POPC   D2A42268  24.972  34.760   6.632
 3162POPC   C3A42269  25.171  34.953   7.027
 3162POPC   C4A42270  25.555  34.801   7.246
 3162POPC   C1B42271  25.645  34.224   6.241
 3162POPC   C2B42272  25.579  34.500   6.627
 3162POPC   C3B42273  25.269  34.460   6.953
 3162POPC   C4B42274  25.148  34.428   7.391
 3163POPC   NC342275   1.651  23.748   5.580
 3163POPC   PO442276   2.271  24.094   5.550
 3163POPC   GL142277   2.028  23.918   5.892
 3163POPC   GL242278   2.015  23.540   5.879
 3163POPC   C1A42279   2.115  23.818   6.332
 3163POPC   D2A42280   2.088  23.538   6.698
 3163POPC   C3A42281   1.976  23.756   7.057
 3163POPC   C4A42282   2.076  23.765   7.473
 3163POPC   C1B42283   1.694  23.517   6.233
 3163POPC   C2B42284   1.616  23.311   6.632
 3163POPC   C3B42285   1.733  23.314   7.071
 3163POPC   C4B42286   1.615  23.492   7.423
 3164POPC   NC342287  23.868   7.721   5.292
 3164POPC   PO442288  24.000   7.081   5.374
 3164POPC   GL142289  23.817   7.354   5.699
 3164POPC   GL242290  23.860   7.718   5.779
 3164POPC   C1A42291  23.583   7.409   6.091
 3164POPC   D2A42292  23.393   7.593   6.481
 3164POPC   C3A42293  23.572   7.403   6.830
 3164POPC   C4A42294  23.535   7.205   7.216
 3164POPC   C1B42295  24.070   7.502   6.124
 3164POPC   C2B42296  23.958   7.300   6.470
 3164POPC   C3B42297  24.116   7.397   6.856
 3164POPC   C4B42298  24.279   7.492   7.248
 3165POPC   NC342299   1.202  36.717   5.425
 3165POPC   PO442300   1.249  37.283   5.550
 3165POPC   GL142301   1.269  36.963   5.884
 3165POPC   GL242302   0.989  36.728   5.907
 3165POPC   C1A42303   1.201  36.988   6.335
 3165POPC   D2A42304   0.989  37.094   6.713
 3165POPC   C3A42305   1.277  36.982   7.025
 3165POPC   C4A42306   1.326  36.988   7.455
 3165POPC   C1B42307   0.984  36.512   6.309
 3165POPC   C2B42308   1.152  36.600   6.721
 3165POPC   C3B42309   1.159  36.493   7.188
 3165POPC   C4B42310   1.392  36.426   7.605
 3166POPC   NC342311  16.658  32.694   5.235
 3166POPC   PO442312  16.721  33.337   5.463
 3166POPC   GL142313  16.826  33.145   5.799
 3166POPC   GL242314  16.978  32.847   5.637
 3166POPC   C1A42315  16.676  33.168   6.232
 3166POPC   D2A42316  16.818  33.362   6.623
 3166POPC   C3A42317  16.825  33.125   7.029
 3166POPC   C4A42318  16.589  33.064   7.420
 3166POPC   C1B42319  16.976  32.766   6.092
 3166POPC   C2B42320  16.889  32.812   6.553
 3166POPC   C3B42321  16.959  32.591   6.946
 3166POPC   C4B42322  16.965  32.723   7.394
 3167POPC   NC342323  30.546  20.306   5.388
 3167POPC   PO442324  31.169  20.492   5.528
 3167POPC   GL142325  30.807  20.605   5.744
 3167POPC   GL242326  30.527  20.816   5.611
 3167POPC   C1A42327  30.812  20.512   6.177
 3167POPC   D2A42328  30.644  20.328   6.507
 3167POPC   C3A42329  30.855  20.468   6.862
 3167POPC   C4A42330  30.612  20.454   7.218
 3167POPC   C1B42331  30.397  20.758   6.036
 3167POPC   C2B42332  30.569  20.868   6.439
 3167POPC   C3B42333  30.490  20.834   6.858
 3167POPC   C4B42334  30.570  20.982   7.265
 3168POPC   NC342335  41.717  12.117   5.501
 3168POPC   PO442336  41.067  11.904   5.333
 3168POPC   GL142337  41.211  12.076   5.796
 3168POPC   GL242338  41.437  12.363   5.853
 3168POPC   C1A42339  41.398  11.945   6.201
 3168POPC   D2A42340  41.240  11.991   6.611
 3168POPC   C3A42341  41.435  11.780   6.943
 3168POPC   C4A42342  41.442  11.901   7.379
 3168POPC   C1B42343  41.727  12.344   6.230
 3168POPC   C2B42344  41.719  12.441   6.692
 3168POPC   C3B42345  41.541  12.299   7.097
 3168POPC   C4B42346  41.731  12.310   7.539
 3169POPC   NC342347  41.148  39.162   5.490
 3169POPC   PO442348  40.515  39.409   5.296
 3169POPC   GL142349  40.687  39.458   5.703
 3169POPC   GL242350  40.741  39.123   5.827
 3169POPC   C1A42351  40.765  39.532   6.146
 3169POPC   D2A42352  41.019  39.389   6.453
 3169POPC   C3A42353  40.827  39.494   6.819
 3169POPC   C4A42354  40.692  39.529   7.221
 3169POPC   C1B42355  40.815  38.959   6.260
 3169POPC   C2B42356  40.858  38.986   6.747
 3169POPC   C3B42357  40.872  38.787   7.187
 3169POPC   C4B42358  41.022  38.715   7.621
 3170POPC   NC342359  11.282   8.246   5.061
 3170POPC   PO442360  11.319   7.878   5.589
 3170POPC   GL142361  11.421   8.317   5.747
 3170POPC   GL242362  11.132   8.369   5.924
 3170POPC   C1A42363  11.475   8.600   6.178
 3170POPC   D2A42364  11.346   8.534   6.603
 3170POPC   C3A42365  11.482   8.523   7.030
 3170POPC   C4A42366  11.225   8.476   7.388
 3170POPC   C1B42367  11.365   8.096   6.213
 3170POPC   C2B42368  11.261   7.961   6.613
 3170POPC   C3B42369  11.133   8.141   6.974
 3170POPC   C4B42370  11.082   7.990   7.353
 3171POPC   NC342371   7.483  10.000   5.181
 3171POPC   PO442372   7.380  10.640   5.319
 3171POPC   GL142373   7.415  10.607   5.790
 3171POPC   GL242374   7.456  10.249   5.838
 3171POPC   C1A42375   7.378  10.525   6.279
 3171POPC   D2A42376   7.641  10.687   6.640
 3171POPC   C3A42377   7.546  10.651   7.080
 3171POPC   C4A42378   7.219  10.851   7.320
 3171POPC   C1B42379   7.824  10.313   6.134
 3171POPC   C2B42380   7.731  10.189   6.558
 3171POPC   C3B42381   7.371  10.207   6.874
 3171POPC   C4B42382   7.261  10.246   7.343
 3172POPC   NC342383   4.065   1.303   5.322
 3172POPC   PO442384   4.634   1.247   5.519
 3172POPC   GL142385   4.431   1.077   5.891
 3172POPC   GL242386   4.136   1.229   5.817
 3172POPC   C1A42387   4.447   1.106   6.361
 3172POPC   D2A42388   4.486   1.459   6.639
 3172POPC   C3A42389   4.410   1.411   7.074
 3172POPC   C4A42390   4.376   1.043   7.312
 3172POPC   C1B42391   3.981   1.018   6.137
 3172POPC   C2B42392   3.955   0.960   6.539
 3172POPC   C3B42393   3.982   1.185   6.901
 3172POPC   C4B42394   3.899   1.179   7.309
 3173POPC   NC342395  35.606   8.983   5.467
 3173POPC   PO442396  35.571   8.388   5.681
 3173POPC   GL142397  35.346   8.760   5.846
 3173POPC   GL242398  35.282   9.156   5.828
 3173POPC   C1A42399  35.137   8.790   6.209
 3173POPC   D2A42400  35.090   8.981   6.621
 3173POPC   C3A42401  35.227   8.844   7.035
 3173POPC   C4A42402  35.654   8.780   7.121
 3173POPC   C1B42403  35.020   9.286   6.189
 3173POPC   C2B42404  35.058   9.500   6.560
 3173POPC   C3B42405  35.274   9.358   6.928
 3173POPC   C4B42406  35.702   9.405   7.097
 3174POPC   NC342407  11.981  38.994   5.571
 3174POPC   PO442408  12.357  39.411   5.327
 3174POPC   GL142409  12.225  39.422   5.759
 3174POPC   GL242410  11.914  39.498   5.714
 3174POPC   C1A42411  12.348  39.244   6.197
 3174POPC   D2A42412  12.252  38.984   6.559
 3174POPC   C3A42413  12.432  39.097   6.952
 3174POPC   C4A42414  12.196  38.999   7.295
 3174POPC   C1B42415  11.838  39.279   6.128
 3174POPC   C2B42416  11.947  39.389   6.529
 3174POPC   C3B42417  11.922  39.193   6.902
 3174POPC   C4B42418  11.694  39.160   7.266
 3175POPC   NC342419  36.007  21.876   5.356
 3175POPC   PO442420  36.072  22.508   5.645
 3175POPC   GL142421  36.360  22.270   5.891
 3175POPC   GL242422  36.403  21.936   5.747
 3175POPC   C1A42423  36.324  22.279   6.314
 3175POPC   D2A42424  35.969  22.269   6.582
 3175POPC   C3A42425  36.076  22.384   6.983
 3175POPC   C4A42426  35.883  22.299   7.385
 3175POPC   C1B42427  36.422  21.790   6.175
 3175POPC   C2B42428  36.304  21.847   6.612
 3175POPC   C3B42429  36.438  21.654   6.998
 3175POPC   C4B42430  36.131  21.891   7.202
 3176POPC   NC342431  37.547   3.555   5.149
 3176POPC   PO442432  36.872   3.616   5.328
 3176POPC   GL142433  36.972   3.607   5.764
 3176POPC   GL242434  36.655   3.632   5.915
 3176POPC   C1A42435  36.955   3.262   6.083
 3176POPC   D2A42436  37.128   3.226   6.501
 3176POPC   C3A42437  36.819   3.487   6.717
 3176POPC   C4A42438  36.749   3.442   7.131
 3176POPC   C1B42439  36.895   3.828   6.271
 3176POPC   C2B42440  36.885   4.066   6.675
 3176POPC   C3B42441  36.996   3.894   7.079
 3176POPC   C4B42442  36.897   3.729   7.508
 3177POPC   NC342443  10.871  31.642   5.424
 3177POPC   PO442444  10.328  31.263   5.405
 3177POPC   GL142445  10.518  31.451   5.755
 3177POPC   GL242446  10.810  31.248   5.792
 3177POPC   C1A42447  10.783  31.748   6.023
 3177POPC   D2A42448  10.738  31.844   6.403
 3177POPC   C3A42449  10.617  31.583   6.729
 3177POPC   C4A42450  10.555  31.705   7.154
 3177POPC   C1B42451  10.636  31.307   6.234
 3177POPC   C2B42452  10.668  31.063   6.597
 3177POPC   C3B42453  10.472  31.141   6.960
 3177POPC   C4B42454  10.586  31.282   7.402
 3178POPC   NC342455  32.274   3.905   5.104
 3178POPC   PO442456  32.124   4.480   5.442
 3178POPC   GL142457  32.419   4.442   5.769
 3178POPC   GL242458  32.242   4.726   5.887
 3178POPC   C1A42459  32.398   4.346   6.210
 3178POPC   D2A42460  32.279   4.135   6.577
 3178POPC   C3A42461  32.387   4.294   6.970
 3178POPC   C4A42462  32.161   4.165   7.340
 3178POPC   C1B42463  31.959   4.629   6.236
 3178POPC   C2B42464  32.007   4.577   6.681
 3178POPC   C3B42465  32.060   4.664   7.094
 3178POPC   C4B42466  32.369   4.628   7.380
 3179POPC   NC342467   6.863  36.580   5.418
 3179POPC   PO442468   6.626  37.197   5.615
 3179POPC   GL142469   6.495  36.861   5.892
 3179POPC   GL242470   6.747  36.663   5.893
 3179POPC   C1A42471   6.592  36.825   6.357
 3179POPC   D2A42472   6.446  37.075   6.722
 3179POPC   C3A42473   6.666  37.076   7.125
 3179POPC   C4A42474   6.527  37.164   7.537
 3179POPC   C1B42475   7.039  36.514   6.157
 3179POPC   C2B42476   7.068  36.497   6.585
 3179POPC   C3B42477   6.774  36.618   6.872
 3179POPC   C4B42478   6.940  36.528   7.226
 3180POPC   NC342479   8.315  24.730   5.223
 3180POPC   PO442480   8.004  25.272   5.503
 3180POPC   GL142481   8.165  25.411   5.864
 3180POPC   GL242482   8.432  25.202   5.876
 3180POPC   C1A42483   8.336  25.590   6.217
 3180POPC   D2A42484   8.125  25.633   6.590
 3180POPC   C3A42485   8.334  25.515   6.924
 3180POPC   C4A42486   8.207  25.545   7.334
 3180POPC   C1B42487   8.202  25.028   6.245
 3180POPC   C2B42488   8.063  24.909   6.673
 3180POPC   C3B42489   8.153  25.057   7.095
 3180POPC   C4B42490   8.549  25.174   7.262
 3181POPC   NC342491  43.811  11.689   5.300
 3181POPC   PO442492  44.116  11.066   5.137
 3181POPC   GL142493  43.722  11.239   5.493
 3181POPC   GL242494  43.664  11.043   5.794
 3181POPC   C1A42495  43.707  11.528   5.945
 3181POPC   D2A42496  43.979  11.550   6.370
 3181POPC   C3A42497  43.899  11.605   6.863
 3181POPC   C4A42498  43.556  11.457   7.127
 3181POPC   C1B42499  43.767  11.086   6.229
 3181POPC   C2B42500  43.687  11.198   6.655
 3181POPC   C3B42501  43.928  11.086   7.002
 3181POPC   C4B42502  44.152  10.794   7.263
 3182POPC   NC342503  26.052  23.317   5.509
 3182POPC   PO442504  25.701  23.869   5.566
 3182POPC   GL142505  25.867  23.632   5.892
 3182POPC   GL242506  26.222  23.697   5.874
 3182POPC   C1A42507  25.906  23.737   6.331
 3182POPC   D2A42508  26.197  23.869   6.673
 3182POPC   C3A42509  25.998  23.826   7.062
 3182POPC   C4A42510  25.892  24.001   7.456
 3182POPC   C1B42511  26.406  23.597   6.296
 3182POPC   C2B42512  26.477  23.302   6.650
 3182POPC   C3B42513  26.212  23.326   7.034
 3182POPC   C4B42514  26.284  23.583   7.415
 3183POPC   NC342515  24.815  22.200   5.438
 3183POPC   PO442516  24.297  21.810   5.200
 3183POPC   GL142517  24.386  21.915   5.667
 3183POPC   GL242518  24.679  21.809   5.854
 3183POPC   C1A42519  24.352  22.253   6.044
 3183POPC   D2A42520  24.251  22.386   6.525
 3183POPC   C3A42521  24.417  22.244   6.955
 3183POPC   C4A42522  24.229  22.253   7.388
 3183POPC   C1B42523  24.902  21.843   6.267
 3183POPC   C2B42524  24.822  21.855   6.738
 3183POPC   C3B42525  24.828  21.944   7.191
 3183POPC   C4B42526  24.706  22.133   7.593
 3184POPC   NC342527   6.189  32.916   5.338
 3184POPC   PO442528   5.552  32.693   5.303
 3184POPC   GL142529   5.788  32.820   5.715
 3184POPC   GL242530   6.141  32.802   5.833
 3184POPC   C1A42531   5.769  32.948   6.177
 3184POPC   D2A42532   5.637  33.175   6.561
 3184POPC   C3A42533   5.856  33.207   6.959
 3184POPC   C4A42534   5.856  32.998   7.381
 3184POPC   C1B42535   6.256  32.892   6.242
 3184POPC   C2B42536   6.039  32.839   6.625
 3184POPC   C3B42537   6.169  32.815   7.017
 3184POPC   C4B42538   6.239  32.578   7.340
 3185POPC   NC342539  23.799  35.134   5.299
 3185POPC   PO442540  24.077  35.752   5.284
 3185POPC   GL142541  23.742  35.543   5.635
 3185POPC   GL242542  23.526  35.194   5.709
 3185POPC   C1A42543  23.730  35.419   6.099
 3185POPC   D2A42544  24.026  35.194   6.349
 3185POPC   C3A42545  24.007  35.202   6.787
 3185POPC   C4A42546  23.964  35.215   7.206
 3185POPC   C1B42547  23.367  34.980   6.110
 3185POPC   C2B42548  23.344  34.956   6.594
 3185POPC   C3B42549  23.497  35.146   7.019
 3185POPC   C4B42550  23.475  35.172   7.517
 3186POPC   NC342551  27.566  27.376   5.156
 3186POPC   PO442552  27.611  27.437   5.766
 3186POPC   GL142553  27.294  27.441   6.007
 3186POPC   GL242554  27.336  27.127   6.100
 3186POPC   C1A42555  27.398  27.608   6.392
 3186POPC   D2A42556  27.705  27.605   6.717
 3186POPC   C3A42557  27.520  27.772   7.090
 3186POPC   C4A42558  27.705  28.058   7.446
 3186POPC   C1B42559  27.723  27.226   6.334
 3186POPC   C2B42560  28.034  27.188   6.550
 3186POPC   C3B42561  27.987  27.169   6.919
 3186POPC   C4B42562  27.846  27.443   7.240
 3187POPC   NC342563  24.718  12.876   5.532
 3187POPC   PO442564  24.061  13.113   5.537
 3187POPC   GL142565  24.375  13.102   5.839
 3187POPC   GL242566  24.332  12.735   5.847
 3187POPC   C1A42567  24.537  12.986   6.252
 3187POPC   D2A42568  24.206  12.878   6.507
 3187POPC   C3A42569  24.155  12.993   6.908
 3187POPC   C4A42570  24.517  12.997   7.160
 3187POPC   C1B42571  24.540  12.476   6.146
 3187POPC   C2B42572  24.463  12.379   6.533
 3187POPC   C3B42573  24.440  12.565   6.894
 3187POPC   C4B42574  24.366  12.443   7.274
 3188POPC   NC342575  35.483  19.661   4.942
 3188POPC   PO442576  35.468  19.660   5.617
 3188POPC   GL142577  35.255  19.943   5.909
 3188POPC   GL242578  35.547  20.130   6.071
 3188POPC   C1A42579  35.125  19.948   6.344
 3188POPC   D2A42580  35.408  19.877   6.714
 3188POPC   C3A42581  35.218  19.836   7.111
 3188POPC   C4A42582  35.203  19.776   7.565
 3188POPC   C1B42583  35.617  19.705   6.264
 3188POPC   C2B42584  35.837  19.403   6.555
 3188POPC   C3B42585  35.892  19.530   6.965
 3188POPC   C4B42586  35.746  19.878   7.175
 3189POPC   NC342587   9.967  15.760   5.485
 3189POPC   PO442588   9.420  15.901   5.274
 3189POPC   GL142589   9.536  15.789   5.741
 3189POPC   GL242590   9.822  16.039   5.892
 3189POPC   C1A42591   9.580  15.704   6.192
 3189POPC   D2A42592   9.598  16.096   6.456
 3189POPC   C3A42593   9.878  16.173   6.788
 3189POPC   C4A42594   9.801  16.076   7.235
 3189POPC   C1B42595  10.037  15.907   6.300
 3189POPC   C2B42596   9.842  15.665   6.640
 3189POPC   C3B42597   9.669  15.624   7.049
 3189POPC   C4B42598   9.959  15.634   7.426
 3190POPC   NC342599  26.012  36.924   5.302
 3190POPC   PO442600  26.173  36.289   5.299
 3190POPC   GL142601  26.124  36.574   5.712
 3190POPC   GL242602  25.940  36.901   5.812
 3190POPC   C1A42603  26.271  36.692   6.149
 3190POPC   D2A42604  26.120  36.914   6.512
 3190POPC   C3A42605  26.179  36.745   6.920
 3190POPC   C4A42606  26.034  36.919   7.284
 3190POPC   C1B42607  25.839  37.190   6.180
 3190POPC   C2B42608  25.818  37.368   6.614
 3190POPC   C3B42609  25.689  37.221   7.052
 3190POPC   C4B42610  25.672  37.174   7.535
 3191POPC   NC342611  34.988  27.169   5.396
 3191POPC   PO442612  35.437  26.539   5.412
 3191POPC   GL142613  35.310  26.687   5.870
 3191POPC   GL242614  35.159  27.049   5.975
 3191POPC   C1A42615  35.196  26.707   6.334
 3191POPC   D2A42616  35.143  26.832   6.755
 3191POPC   C3A42617  35.418  26.567   6.938
 3191POPC   C4A42618  35.497  26.692   7.323
 3191POPC   C1B42619  35.541  27.067   6.198
 3191POPC   C2B42620  35.626  26.967   6.626
 3191POPC   C3B42621  35.533  27.136   7.055
 3191POPC   C4B42622  35.353  27.186   7.495
 3192POPC   NC342623   8.618  41.686   5.644
 3192POPC   PO442624   8.074  41.540   5.235
 3192POPC   GL142625   8.118  41.567   5.689
 3192POPC   GL242626   8.204  41.228   5.774
 3192POPC   C1A42627   8.212  41.597   6.168
 3192POPC   D2A42628   8.215  41.819   6.594
 3192POPC   C3A42629   8.198  41.583   6.956
 3192POPC   C4A42630   8.151  41.680   7.354
 3192POPC   C1B42631   8.473  41.156   6.128
 3192POPC   C2B42632   8.349  41.244   6.543
 3192POPC   C3B42633   8.497  41.163   6.937
 3192POPC   C4B42634   8.451  41.237   7.340
 3193POPC   NC342635  33.870   9.490   5.341
 3193POPC   PO442636  33.436   9.986   5.332
 3193POPC   GL142637  33.749   9.849   5.710
 3193POPC   GL242638  34.004   9.562   5.818
 3193POPC   C1A42639  33.621   9.683   6.161
 3193POPC   D2A42640  33.416   9.453   6.538
 3193POPC   C3A42641  33.502   9.654   6.938
 3193POPC   C4A42642  33.682   9.605   7.350
 3193POPC   C1B42643  34.115   9.847   6.138
 3193POPC   C2B42644  33.942   9.855   6.552
 3193POPC   C3B42645  34.031   9.734   6.954
 3193POPC   C4B42646  34.036   9.993   7.297
 3194POPC   NC342647  17.717   6.709   5.401
 3194POPC   PO442648  17.304   6.282   5.512
 3194POPC   GL142649  17.552   6.356   5.860
 3194POPC   GL242650  17.425   6.666   5.856
 3194POPC   C1A42651  17.723   6.377   6.332
 3194POPC   D2A42652  17.806   6.632   6.711
 3194POPC   C3A42653  17.589   6.581   7.088
 3194POPC   C4A42654  17.373   6.334   7.422
 3194POPC   C1B42655  17.595   6.852   6.221
 3194POPC   C2B42656  17.684   7.109   6.557
 3194POPC   C3B42657  17.473   7.088   6.943
 3194POPC   C4B42658  17.206   6.891   7.251
 3195POPC   NC342659  34.632  11.743   5.505
 3195POPC   PO442660  34.366  12.350   5.437
 3195POPC   GL142661  34.415  12.101   5.786
 3195POPC   GL242662  34.747  12.212   5.816
 3195POPC   C1A42663  34.277  11.850   6.169
 3195POPC   D2A42664  34.050  11.925   6.564
 3195POPC   C3A42665  34.231  11.714   6.900
 3195POPC   C4A42666  34.618  11.840   7.116
 3195POPC   C1B42667  34.519  12.295   6.230
 3195POPC   C2B42668  34.425  12.342   6.658
 3195POPC   C3B42669  34.279  12.221   7.069
 3195POPC   C4B42670  34.496  12.158   7.492
 3196POPC   NC342671  28.611  44.102   5.173
 3196POPC   PO442672  28.145  43.660   5.348
 3196POPC   GL142673  28.201  43.951   5.712
 3196POPC   GL242674  28.566  43.985   5.680
 3196POPC   C1A42675  28.121  44.022   6.191
 3196POPC   D2A42676  28.059  43.787   6.606
 3196POPC   C3A42677  28.238  43.906   6.994
 3196POPC   C4A42678  28.178  43.928   7.444
 3196POPC   C1B42679  28.612  43.926   6.135
 3196POPC   C2B42680  28.509  44.039   6.576
 3196POPC   C3B42681  28.715  44.067   6.959
 3196POPC   C4B42682  28.675  43.863   7.339
 3197POPC   NC342683   3.512  36.831   5.304
 3197POPC   PO442684   3.279  37.502   5.416
 3197POPC   GL142685   3.518  37.281   5.676
 3197POPC   GL242686   3.237  37.091   5.796
 3197POPC   C1A42687   3.731  37.098   6.020
 3197POPC   D2A42688   3.488  37.020   6.396
 3197POPC   C3A42689   3.662  37.057   6.796
 3197POPC   C4A42690   3.614  36.774   7.114
 3197POPC   C1B42691   3.100  37.303   6.199
 3197POPC   C2B42692   3.038  37.166   6.642
 3197POPC   C3B42693   3.174  37.065   7.067
 3197POPC   C4B42694   3.257  37.240   7.468
 3198POPC   NC342695  36.056  14.510   5.375
 3198POPC   PO442696  36.548  14.972   5.140
 3198POPC   GL142697  36.531  14.690   5.607
 3198POPC   GL242698  36.378  14.327   5.716
 3198POPC   C1A42699  36.263  14.701   6.038
 3198POPC   D2A42700  36.116  14.627   6.447
 3198POPC   C3A42701  35.931  14.393   6.781
 3198POPC   C4A42702  36.113  14.474   7.191
 3198POPC   C1B42703  36.125  14.193   6.113
 3198POPC   C2B42704  36.276  14.084   6.549
 3198POPC   C3B42705  36.219  14.005   6.999
 3198POPC   C4B42706  35.931  14.028   7.365
 3199POPC   NC342707  34.086  35.572   5.177
 3199POPC   PO442708  34.725  35.517   5.296
 3199POPC   GL142709  34.527  35.418   5.743
 3199POPC   GL242710  34.301  35.108   5.713
 3199POPC   C1A42711  34.770  35.420   6.157
 3199POPC   D2A42712  34.828  35.668   6.547
 3199POPC   C3A42713  34.845  35.427   6.970
 3199POPC   C4A42714  34.578  35.426   7.344
 3199POPC   C1B42715  34.431  35.026   6.156
 3199POPC   C2B42716  34.462  35.235   6.563
 3199POPC   C3B42717  34.370  35.167   6.973
 3199POPC   C4B42718  34.259  35.021   7.362
 3200POPC   NC342719  39.103   7.454   5.181
 3200POPC   PO442720  39.641   7.247   5.411
 3200POPC   GL142721  39.404   7.505   5.747
 3200POPC   GL242722  39.033   7.621   5.725
 3200POPC   C1A42723  39.324   7.411   6.213
 3200POPC   D2A42724  39.365   7.089   6.566
 3200POPC   C3A42725  39.121   7.057   6.956
 3200POPC   C4A42726  39.374   7.169   7.300
 3200POPC   C1B42727  38.851   7.614   6.161
 3200POPC   C2B42728  38.907   7.427   6.597
 3200POPC   C3B42729  39.103   7.568   7.001
 3200POPC   C4B42730  39.176   7.858   7.356
 3201POPC   NC342731  32.629  32.596   5.651
 3201POPC   PO442732  32.093  32.759   5.216
 3201POPC   GL142733  32.229  32.930   5.636
 3201POPC   GL242734  32.146  32.671   5.797
 3201POPC   C1A42735  32.303  33.097   6.076
 3201POPC   D2A42736  32.382  33.247   6.504
 3201POPC   C3A42737  32.077  33.350   6.782
 3201POPC   C4A42738  32.157  33.117   7.129
 3201POPC   C1B42739  31.863  32.860   6.062
 3201POPC   C2B42740  31.949  32.921   6.500
 3201POPC   C3B42741  31.976  32.662   6.875
 3201POPC   C4B42742  32.058  32.639   7.312
 3202POPC   NC342743  15.099  14.843   5.682
 3202POPC   PO442744  15.076  15.383   5.274
 3202POPC   GL142745  15.051  15.391   5.710
 3202POPC   GL242746  15.396  15.444   5.854
 3202POPC   C1A42747  14.939  15.275   6.140
 3202POPC   D2A42748  14.884  15.392   6.582
 3202POPC   C3A42749  15.105  15.091   6.850
 3202POPC   C4A42750  14.919  14.914   7.218
 3202POPC   C1B42751  15.353  15.522   6.317
 3202POPC   C2B42752  15.335  15.556   6.766
 3202POPC   C3B42753  15.425  15.519   7.178
 3202POPC   C4B42754  15.602  15.512   7.594
 3203POPC   NC342755  32.531  16.605   5.513
 3203POPC   PO442756  32.102  17.105   5.243
 3203POPC   GL142757  32.216  16.956   5.744
 3203POPC   GL242758  32.253  16.572   5.910
 3203POPC   C1A42759  32.364  16.947   6.214
 3203POPC   D2A42760  32.135  16.764   6.564
 3203POPC   C3A42761  32.145  17.011   6.922
 3203POPC   C4A42762  32.415  16.948   7.261
 3203POPC   C1B42763  32.422  16.403   6.311
 3203POPC   C2B42764  32.559  16.545   6.721
 3203POPC   C3B42765  32.276  16.498   7.070
 3203POPC   C4B42766  32.316  16.520   7.536
 3204POPC   NC342767   9.467  13.472   5.418
 3204POPC   PO442768  10.080  13.749   5.271
 3204POPC   GL142769   9.899  13.625   5.724
 3204POPC   GL242770   9.532  13.676   5.890
 3204POPC   C1A42771   9.837  13.334   6.097
 3204POPC   D2A42772   9.615  13.219   6.496
 3204POPC   C3A42773   9.782  13.473   6.855
 3204POPC   C4A42774  10.048  13.525   7.232
 3204POPC   C1B42775   9.853  13.892   6.179
 3204POPC   C2B42776   9.868  14.085   6.613
 3204POPC   C3B42777   9.799  13.971   7.061
 3204POPC   C4B42778   9.499  13.694   7.261
 3205POPC   NC342779  43.323  43.559   5.507
 3205POPC   PO442780  42.998  42.906   5.414
 3205POPC   GL142781  42.981  43.235   5.705
 3205POPC   GL242782  43.296  43.107   5.807
 3205POPC   C1A42783  42.925  43.401   6.146
 3205POPC   D2A42784  42.671  43.222   6.495
 3205POPC   C3A42785  42.877  43.273   6.881
 3205POPC   C4A42786  43.103  43.422   7.235
 3205POPC   C1B42787  42.941  42.911   6.094
 3205POPC   C2B42788  43.116  42.942   6.506
 3205POPC   C3B42789  43.257  42.936   6.905
 3205POPC   C4B42790  43.042  42.920   7.271
 3206POPC   NC342791  17.463  24.921   5.425
 3206POPC   PO442792  17.664  24.290   5.413
 3206POPC   GL142793  17.447  24.513   5.719
 3206POPC   GL242794  17.782  24.608   5.831
 3206POPC   C1A42795  17.323  24.654   6.126
 3206POPC   D2A42796  17.532  24.373   6.416
 3206POPC   C3A42797  17.315  24.142   6.746
 3206POPC   C4A42798  17.264  24.351   7.125
 3206POPC   C1B42799  17.787  24.828   6.205
 3206POPC   C2B42800  17.533  24.841   6.591
 3206POPC   C3B42801  17.664  24.581   6.921
 3206POPC   C4B42802  17.633  24.651   7.364
 3207POPC   NC342803  42.290  42.962   5.340
 3207POPC   PO442804  42.297  43.602   5.258
 3207POPC   GL142805  42.228  43.326   5.690
 3207POPC   GL242806  42.493  43.055   5.802
 3207POPC   C1A42807  42.330  43.394   6.146
 3207POPC   D2A42808  42.312  43.607   6.537
 3207POPC   C3A42809  42.372  43.377   6.927
 3207POPC   C4A42810  42.187  43.451   7.340
 3207POPC   C1B42811  42.390  42.869   6.216
 3207POPC   C2B42812  42.651  42.709   6.554
 3207POPC   C3B42813  42.585  42.860   6.975
 3207POPC   C4B42814  42.210  42.945   7.184
 3208POPC   NC342815   4.908   9.642   4.985
 3208POPC   PO442816   5.354   9.837   5.413
 3208POPC   GL142817   5.095   9.873   5.798
 3208POPC   GL242818   4.768  10.043   5.795
 3208POPC   C1A42819   5.021   9.580   6.168
 3208POPC   D2A42820   5.129   9.335   6.561
 3208POPC   C3A42821   5.214   9.656   6.886
 3208POPC   C4A42822   5.294   9.835   7.301
 3208POPC   C1B42823   4.562   9.998   6.203
 3208POPC   C2B42824   4.664  10.092   6.639
 3208POPC   C3B42825   4.953  10.109   6.983
 3208POPC   C4B42826   4.798   9.785   7.224
 3209POPC   NC342827  39.748  31.054   5.567
 3209POPC   PO442828  39.189  30.694   5.470
 3209POPC   GL142829  39.288  30.896   5.841
 3209POPC   GL242830  39.088  31.197   5.930
 3209POPC   C1A42831  39.270  30.666   6.245
 3209POPC   D2A42832  39.030  30.600   6.627
 3209POPC   C3A42833  39.256  30.693   7.003
 3209POPC   C4A42834  39.674  30.671   7.171
 3209POPC   C1B42835  39.399  31.167   6.262
 3209POPC   C2B42836  39.498  31.019   6.681
 3209POPC   C3B42837  39.498  31.153   7.134
 3209POPC   C4B42838  39.312  30.963   7.495
 3210POPC   NC342839  24.757  31.264   5.430
 3210POPC   PO442840  24.483  30.622   5.405
 3210POPC   GL142841  24.487  30.616   5.860
 3210POPC   GL242842  24.353  30.956   5.901
 3210POPC   C1A42843  24.668  30.785   6.276
 3210POPC   D2A42844  24.707  30.913   6.720
 3210POPC   C3A42845  24.662  30.595   7.046
 3210POPC   C4A42846  24.271  30.381   7.188
 3210POPC   C1B42847  24.266  31.149   6.317
 3210POPC   C2B42848  24.040  31.075   6.696
 3210POPC   C3B42849  24.094  30.936   7.124
 3210POPC   C4B42850  24.415  30.860   7.393
 3211POPC   NC342851  23.469   9.916   5.424
 3211POPC   PO442852  24.040   9.605   5.543
 3211POPC   GL142853  23.669   9.663   5.828
 3211POPC   GL242854  23.591   9.981   5.950
 3211POPC   C1A42855  23.661   9.461   6.247
 3211POPC   D2A42856  23.902   9.254   6.593
 3211POPC   C3A42857  23.694   9.432   6.966
 3211POPC   C4A42858  23.377   9.672   7.223
 3211POPC   C1B42859  24.000   9.846   6.164
 3211POPC   C2B42860  24.042   9.755   6.604
 3211POPC   C3B42861  23.820   9.990   6.927
 3211POPC   C4B42862  24.026  10.252   7.218
 3212POPC   NC342863  20.441   1.606   5.414
 3212POPC   PO442864  20.766   2.164   5.406
 3212POPC   GL142865  20.747   1.943   5.756
 3212POPC   GL242866  21.053   1.848   5.893
 3212POPC   C1A42867  20.607   1.850   6.179
 3212POPC   D2A42868  20.790   2.020   6.535
 3212POPC   C3A42869  20.519   2.144   6.866
 3212POPC   C4A42870  20.682   2.470   7.146
 3212POPC   C1B42871  21.001   1.529   6.228
 3212POPC   C2B42872  20.802   1.523   6.618
 3212POPC   C3B42873  20.852   1.788   6.995
 3212POPC   C4B42874  20.835   2.025   7.388
 3213POPC   NC342875  26.472  25.881   5.618
 3213POPC   PO442876  27.087  25.840   5.487
 3213POPC   GL142877  27.020  26.190   5.794
 3213POPC   GL242878  26.689  26.323   5.861
 3213POPC   C1A42879  27.161  26.243   6.220
 3213POPC   D2A42880  26.964  26.298   6.616
 3213POPC   C3A42881  27.136  26.174   7.016
 3213POPC   C4A42882  27.050  26.088   7.467
 3213POPC   C1B42883  26.686  26.019   6.248
 3213POPC   C2B42884  26.701  25.850   6.694
 3213POPC   C3B42885  26.763  25.830   7.118
 3213POPC   C4B42886  26.584  26.236   7.071
 3214POPC   NC342887  34.742  36.983   5.244
 3214POPC   PO442888  34.107  36.778   5.402
 3214POPC   GL142889  34.452  36.908   5.706
 3214POPC   GL242890  34.846  36.974   5.741
 3214POPC   C1A42891  34.564  36.787   6.130
 3214POPC   D2A42892  34.555  36.585   6.510
 3214POPC   C3A42893  34.306  36.723   6.812
 3214POPC   C4A42894  34.514  36.858   7.175
 3214POPC   C1B42895  34.824  37.218   6.151
 3214POPC   C2B42896  34.699  37.151   6.580
 3214POPC   C3B42897  34.852  37.209   6.999
 3214POPC   C4B42898  34.758  37.232   7.463
 3215POPC   NC342899  32.731  39.358   5.391
 3215POPC   PO442900  32.181  39.050   5.335
 3215POPC   GL142901  32.114  39.272   5.740
 3215POPC   GL242902  32.425  39.181   5.872
 3215POPC   C1A42903  32.104  39.395   6.226
 3215POPC   D2A42904  32.351  39.258   6.604
 3215POPC   C3A42905  32.352  39.474   6.984
 3215POPC   C4A42906  32.056  39.682   7.129
 3215POPC   C1B42907  32.148  38.885   6.133
 3215POPC   C2B42908  32.008  38.884   6.584
 3215POPC   C3B42909  32.100  39.020   7.021
 3215POPC   C4B42910  32.487  39.086   7.272
 3216POPC   NC342911  40.795  13.337   5.500
 3216POPC   PO442912  40.476  13.946   5.466
 3216POPC   GL142913  40.761  13.819   5.836
 3216POPC   GL242914  40.954  13.474   5.948
 3216POPC   C1A42915  40.736  13.794   6.287
 3216POPC   D2A42916  40.503  13.435   6.507
 3216POPC   C3A42917  40.514  13.501   6.934
 3216POPC   C4A42918  40.473  13.780   7.287
 3216POPC   C1B42919  40.997  13.359   6.370
 3216POPC   C2B42920  41.086  13.671   6.697
 3216POPC   C3B42921  40.940  13.752   7.081
 3216POPC   C4B42922  40.836  13.390   7.318
 3217POPC   NC342923  21.751  25.494   5.123
 3217POPC   PO442924  22.268  25.142   5.218
 3217POPC   GL142925  22.286  25.193   5.709
 3217POPC   GL242926  22.503  25.492   5.793
 3217POPC   C1A42927  22.070  25.185   6.148
 3217POPC   D2A42928  22.101  25.344   6.588
 3217POPC   C3A42929  22.072  25.087   6.962
 3217POPC   C4A42930  22.156  25.153   7.415
 3217POPC   C1B42931  22.440  25.558   6.250
 3217POPC   C2B42932  22.595  25.425   6.674
 3217POPC   C3B42933  22.510  25.393   7.120
 3217POPC   C4B42934  22.612  25.379   7.580
 3218POPC   NC342935  24.397   6.826   5.389
 3218POPC   PO442936  24.514   6.191   5.597
 3218POPC   GL142937  24.417   6.563   5.855
 3218POPC   GL242938  24.663   6.854   5.827
 3218POPC   C1A42939  24.110   6.555   6.212
 3218POPC   D2A42940  24.009   6.434   6.652
 3218POPC   C3A42941  24.203   6.583   7.035
 3218POPC   C4A42942  24.540   6.461   7.309
 3218POPC   C1B42943  24.781   6.933   6.257
 3218POPC   C2B42944  24.738   6.784   6.689
 3218POPC   C3B42945  24.960   6.704   7.081
 3218POPC   C4B42946  24.933   6.968   7.437
 3219POPC   NC342947  30.576   8.591   5.606
 3219POPC   PO442948  30.931   9.129   5.438
 3219POPC   GL142949  30.594   9.110   5.746
 3219POPC   GL242950  30.827   8.886   5.933
 3219POPC   C1A42951  30.420   9.073   6.187
 3219POPC   D2A42952  30.775   9.155   6.452
 3219POPC   C3A42953  30.792   9.140   6.903
 3219POPC   C4A42954  30.828   9.363   7.312
 3219POPC   C1B42955  30.679   8.623   6.257
 3219POPC   C2B42956  30.519   8.731   6.645
 3219POPC   C3B42957  30.697   8.645   7.027
 3219POPC   C4B42958  30.600   8.910   7.323
 3220POPC   NC342959  38.242  11.826   5.388
 3220POPC   PO442960  38.408  12.440   5.586
 3220POPC   GL142961  38.286  12.124   5.837
 3220POPC   GL242962  38.615  11.973   5.773
 3220POPC   C1A42963  38.100  12.114   6.275
 3220POPC   D2A42964  38.189  12.371   6.651
 3220POPC   C3A42965  38.224  12.190   7.061
 3220POPC   C4A42966  38.279  11.860   7.376
 3220POPC   C1B42967  38.499  11.822   6.191
 3220POPC   C2B42968  38.551  12.022   6.573
 3220POPC   C3B42969  38.626  11.864   6.957
 3220POPC   C4B42970  38.734  12.108   7.266
 3221POPC   NC342971  16.538  11.893   5.344
 3221POPC   PO442972  16.971  12.394   5.345
 3221POPC   GL142973  16.833  12.127   5.677
 3221POPC   GL242974  16.457  12.158   5.777
 3221POPC   C1A42975  16.814  12.178   6.120
 3221POPC   D2A42976  16.971  12.117   6.513
 3221POPC   C3A42977  16.708  11.908   6.783
 3221POPC   C4A42978  16.536  11.977   7.183
 3221POPC   C1B42979  16.275  12.218   6.224
 3221POPC   C2B42980  16.277  12.204   6.690
 3221POPC   C3B42981  16.053  12.194   7.063
 3221POPC   C4B42982  16.168  12.151   7.515
 3222POPC   NC342983  42.507  23.841   5.338
 3222POPC   PO442984  41.953  24.068   5.622
 3222POPC   GL142985  42.312  23.795   5.805
 3222POPC   GL242986  42.678  23.957   5.793
 3222POPC   C1A42987  42.415  23.616   6.207
 3222POPC   D2A42988  42.173  23.689   6.574
 3222POPC   C3A42989  42.301  23.486   6.882
 3222POPC   C4A42990  42.569  23.551   7.178
 3222POPC   C1B42991  42.648  24.092   6.208
 3222POPC   C2B42992  42.644  23.905   6.628
 3222POPC   C3B42993  42.381  23.994   6.967
 3222POPC   C4B42994  42.425  24.208   7.345
 3223POPC   NC342995  19.882   2.823   5.386
 3223POPC   PO442996  19.746   2.318   5.803
 3223POPC   GL142997  20.041   2.691   5.855
 3223POPC   GL242998  19.837   3.000   5.852
 3223POPC   C1A42999  20.175   2.936   6.206
 3223POPC   D2A43000  19.990   2.817   6.589
 3223POPC   C3A43001  19.894   3.066   6.929
 3223POPC   C4A43002  19.817   2.928   7.369
 3223POPC   C1B43003  19.614   2.944   6.234
 3223POPC   C2B43004  19.366   2.856   6.610
 3223POPC   C3B43005  19.466   2.756   7.025
 3223POPC   C4B43006  19.709   2.442   7.203
 3224POPC   NC343007   1.398  23.500   5.094
 3224POPC   PO443008   1.278  23.997   5.481
 3224POPC   GL143009   1.139  23.683   5.724
 3224POPC   GL243010   1.354  23.825   5.980
 3224POPC   C1A43011   0.979  23.553   6.135
 3224POPC   D2A43012   1.222  23.620   6.516
 3224POPC   C3A43013   0.960  23.702   6.873
 3224POPC   C4A43014   1.055  24.053   7.114
 3224POPC   C1B43015   1.637  24.024   6.236
 3224POPC   C2B43016   1.691  23.869   6.636
 3224POPC   C3B43017   1.472  23.771   6.990
 3224POPC   C4B43018   1.530  23.986   7.388
 3225POPC   NC343019  41.007  18.262   5.441
 3225POPC   PO443020  40.506  17.851   5.522
 3225POPC   GL143021  40.739  18.038   5.890
 3225POPC   GL243022  40.776  18.368   5.928
 3225POPC   C1A43023  40.679  18.057   6.345
 3225POPC   D2A43024  40.866  18.086   6.757
 3225POPC   C3A43025  40.613  18.351   7.002
 3225POPC   C4A43026  40.607  18.390   7.414
 3225POPC   C1B43027  41.023  18.490   6.262
 3225POPC   C2B43028  41.224  18.434   6.626
 3225POPC   C3B43029  41.113  18.629   7.006
 3225POPC   C4B43030  41.095  18.620   7.470
 3226POPC   NC343031  23.325  21.426   5.340
 3226POPC   PO443032  22.754  21.754   5.289
 3226POPC   GL143033  22.855  21.553   5.700
 3226POPC   GL243034  23.119  21.296   5.776
 3226POPC   C1A43035  22.771  21.581   6.169
 3226POPC   D2A43036  22.856  21.684   6.618
 3226POPC   C3A43037  22.751  21.448   6.977
 3226POPC   C4A43038  22.716  21.704   7.337
 3226POPC   C1B43039  23.278  21.473   6.143
 3226POPC   C2B43040  23.180  21.321   6.512
 3226POPC   C3B43041  23.281  21.416   6.880
 3226POPC   C4B43042  23.210  21.491   7.287
 3227POPC   NC343043   1.434   9.245   5.520
 3227POPC   PO443044   0.977   8.847   5.472
 3227POPC   GL143045   1.172   8.942   5.867
 3227POPC   GL243046   0.865   9.067   5.970
 3227POPC   C1A43047   1.258   9.156   6.282
 3227POPC   D2A43048   0.931   9.250   6.602
 3227POPC   C3A43049   1.018   8.981   6.960
 3227POPC   C4A43050   1.393   8.947   7.226
 3227POPC   C1B43051   0.925   8.785   6.343
 3227POPC   C2B43052   1.154   8.575   6.648
 3227POPC   C3B43053   1.208   8.499   7.086
 3227POPC   C4B43054   0.945   8.705   7.393
 3228POPC   NC343055  20.093  32.681   5.472
 3228POPC   PO443056  19.858  32.125   5.273
 3228POPC   GL143057  19.933  32.237   5.708
 3228POPC   GL243058  19.600  32.112   5.743
 3228POPC   C1A43059  19.956  32.320   6.176
 3228POPC   D2A43060  20.124  32.146   6.579
 3228POPC   C3A43061  19.918  32.319   6.952
 3228POPC   C4A43062  19.711  32.349   7.370
 3228POPC   C1B43063  19.459  32.210   6.154
 3228POPC   C2B43064  19.566  32.368   6.555
 3228POPC   C3B43065  19.385  32.331   6.953
 3228POPC   C4B43066  19.194  32.176   7.328
 3229POPC   NC343067  33.696   0.720   5.495
 3229POPC   PO443068  34.126   0.293   5.698
 3229POPC   GL143069  33.839   0.428   5.928
 3229POPC   GL243070  33.529   0.351   5.804
 3229POPC   C1A43071  33.815   0.244   6.315
 3229POPC   D2A43072  33.642   0.259   6.680
 3229POPC   C3A43073  33.930   0.488   6.897
 3229POPC   C4A43074  34.114   0.420   7.287
 3229POPC   C1B43075  33.322   0.331   6.195
 3229POPC   C2B43076  33.159   0.164   6.558
 3229POPC   C3B43077  33.248   0.278   6.995
 3229POPC   C4B43078  33.568   0.477   7.236
 3230POPC   NC343079  26.689  40.005   5.384
 3230POPC   PO443080  27.341  39.774   5.549
 3230POPC   GL143081  27.032  40.051   5.795
 3230POPC   GL243082  26.694  39.902   5.861
 3230POPC   C1A43083  26.772  40.276   6.155
 3230POPC   D2A43084  26.681  40.154   6.577
 3230POPC   C3A43085  26.993  40.098   6.852
 3230POPC   C4A43086  26.888  40.099   7.243
 3230POPC   C1B43087  26.875  39.778   6.229
 3230POPC   C2B43088  26.797  39.616   6.627
 3230POPC   C3B43089  26.612  39.788   6.966
 3230POPC   C4B43090  26.507  39.785   7.408
 3231POPC   NC343091  32.452  41.101   5.521
 3231POPC   PO443092  33.115  41.070   5.260
 3231POPC   GL143093  32.973  40.849   5.679
 3231POPC   GL243094  32.918  40.471   5.707
 3231POPC   C1A43095  33.019  40.873   6.145
 3231POPC   D2A43096  32.945  41.181   6.504
 3231POPC   C3A43097  32.993  40.942   6.884
 3231POPC   C4A43098  33.202  40.687   7.230
 3231POPC   C1B43099  32.670  40.465   6.113
 3231POPC   C2B43100  32.652  40.664   6.530
 3231POPC   C3B43101  32.773  40.486   6.934
 3231POPC   C4B43102  32.854  40.306   7.315
 3232POPC   NC343103  10.947  12.814   5.381
 3232POPC   PO443104  11.595  12.934   5.561
 3232POPC   GL143105  11.451  12.759   5.915
 3232POPC   GL243106  11.207  12.554   5.790
 3232POPC   C1A43107  11.166  12.865   6.240
 3232POPC   D2A43108  11.100  13.086   6.598
 3232POPC   C3A43109  11.213  12.901   6.988
 3232POPC   C4A43110  11.264  13.005   7.417
 3232POPC   C1B43111  11.042  12.394   6.185
 3232POPC   C2B43112  10.995  12.556   6.607
 3232POPC   C3B43113  11.088  12.407   6.958
 3232POPC   C4B43114  11.086  12.525   7.335
 3233POPC   NC343115  18.268   2.727   5.440
 3233POPC   PO443116  18.750   2.360   5.733
 3233POPC   GL143117  18.466   2.685   5.912
 3233POPC   GL243118  18.070   2.673   5.914
 3233POPC   C1A43119  18.395   2.977   6.244
 3233POPC   D2A43120  18.343   3.034   6.696
 3233POPC   C3A43121  18.580   2.753   6.998
 3233POPC   C4A43122  18.552   2.601   7.428
 3233POPC   C1B43123  17.994   2.644   6.362
 3233POPC   C2B43124  17.865   2.851   6.767
 3233POPC   C3B43125  18.097   2.858   7.175
 3233POPC   C4B43126  18.053   2.586   7.550
 3234POPC   NC343127   5.081  31.713   5.593
 3234POPC   PO443128   5.202  31.050   5.422
 3234POPC   GL143129   5.069  31.249   5.824
 3234POPC   GL243130   5.394  31.358   5.884
 3234POPC   C1A43131   5.038  31.533   6.241
 3234POPC   D2A43132   4.876  31.805   6.577
 3234POPC   C3A43133   4.855  31.623   6.980
 3234POPC   C4A43134   4.917  31.402   7.361
 3234POPC   C1B43135   5.514  31.666   6.226
 3234POPC   C2B43136   5.349  31.645   6.688
 3234POPC   C3B43137   5.322  31.380   7.065
 3234POPC   C4B43138   5.396  31.399   7.555
 3235POPC   NC343139  31.111   4.376   5.263
 3235POPC   PO443140  30.606   4.355   5.645
 3235POPC   GL143141  30.808   4.386   5.999
 3235POPC   GL243142  31.094   4.569   5.873
 3235POPC   C1A43143  30.630   4.437   6.426
 3235POPC   D2A43144  30.755   4.158   6.760
 3235POPC   C3A43145  30.495   3.901   6.942
 3235POPC   C4A43146  30.510   4.208   7.299
 3235POPC   C1B43147  31.041   4.736   6.294
 3235POPC   C2B43148  31.014   4.628   6.719
 3235POPC   C3B43149  30.757   4.587   7.046
 3235POPC   C4B43150  30.976   4.517   7.421
 3236POPC   NC343151  43.454  38.681   5.435
 3236POPC   PO443152  42.812  38.870   5.535
 3236POPC   GL143153  42.991  38.617   5.889
 3236POPC   GL243154  42.914  38.277   5.969
 3236POPC   C1A43155  43.045  38.546   6.360
 3236POPC   D2A43156  43.376  38.645   6.590
 3236POPC   C3A43157  43.297  38.579   6.984
 3236POPC   C4A43158  42.913  38.611   7.192
 3236POPC   C1B43159  43.370  38.211   6.154
 3236POPC   C2B43160  43.440  38.108   6.555
 3236POPC   C3B43161  43.107  38.131   6.824
 3236POPC   C4B43162  43.195  38.156   7.253
 3237POPC   NC343163  33.157  37.209   5.458
 3237POPC   PO443164  33.055  37.872   5.389
 3237POPC   GL143165  33.108  37.797   5.820
 3237POPC   GL243166  33.386  37.980   5.967
 3237POPC   C1A43167  32.930  37.901   6.242
 3237POPC   D2A43168  32.940  37.880   6.710
 3237POPC   C3A43169  32.840  37.505   6.951
 3237POPC   C4A43170  32.914  37.432   7.364
 3237POPC   C1B43171  33.343  37.563   6.230
 3237POPC   C2B43172  33.266  37.393   6.671
 3237POPC   C3B43173  33.374  37.527   7.091
 3237POPC   C4B43174  33.391  37.640   7.531
 3238POPC   NC343175  38.623  41.191   5.415
 3238POPC   PO443176  38.513  40.468   5.522
 3238POPC   GL143177  38.492  40.669   5.903
 3238POPC   GL243178  38.375  40.984   5.816
 3238POPC   C1A43179  38.408  40.680   6.338
 3238POPC   D2A43180  38.155  40.851   6.653
 3238POPC   C3A43181  38.152  40.680   7.055
 3238POPC   C4A43182  38.540  40.518   7.212
 3238POPC   C1B43183  38.596  41.134   6.178
 3238POPC   C2B43184  38.816  41.098   6.552
 3238POPC   C3B43185  38.612  40.945   6.898
 3238POPC   C4B43186  38.632  41.097   7.275
 3239POPC   NC343187  42.973  36.543   5.581
 3239POPC   PO443188  43.071  35.910   5.246
 3239POPC   GL143189  43.186  36.027   5.638
 3239POPC   GL243190  42.887  35.862   5.767
 3239POPC   C1A43191  43.249  36.164   6.063
 3239POPC   D2A43192  43.121  36.427   6.392
 3239POPC   C3A43193  43.250  36.327   6.793
 3239POPC   C4A43194  43.080  36.269   7.204
 3239POPC   C1B43195  43.051  35.717   6.183
 3239POPC   C2B43196  43.246  35.901   6.529
 3239POPC   C3B43197  43.246  35.847   6.969
 3239POPC   C4B43198  42.904  35.666   7.163
 3240POPC   NC343199  26.545  36.282   5.573
 3240POPC   PO443200  27.198  36.083   5.356
 3240POPC   GL143201  27.059  36.208   5.771
 3240POPC   GL243202  26.790  35.988   5.909
 3240POPC   C1A43203  26.946  36.389   6.188
 3240POPC   D2A43204  26.808  36.575   6.569
 3240POPC   C3A43205  26.723  36.413   7.000
 3240POPC   C4A43206  26.472  36.592   7.321
 3240POPC   C1B43207  26.574  36.025   6.319
 3240POPC   C2B43208  26.661  35.957   6.768
 3240POPC   C3B43209  27.033  35.808   6.990
 3240POPC   C4B43210  27.238  35.712   7.401
 3241POPC   NC343211  17.019  25.635   5.492
 3241POPC   PO443212  16.473  25.312   5.234
 3241POPC   GL143213  16.636  25.298   5.665
 3241POPC   GL243214  16.513  25.016   5.859
 3241POPC   C1A43215  16.775  25.367   6.114
 3241POPC   D2A43216  16.656  25.289   6.522
 3241POPC   C3A43217  16.923  25.085   6.812
 3241POPC   C4A43218  16.799  25.168   7.232
 3241POPC   C1B43219  16.754  24.849   6.191
 3241POPC   C2B43220  16.548  24.783   6.563
 3241POPC   C3B43221  16.424  24.983   6.910
 3241POPC   C4B43222  16.423  24.795   7.315
 3242POPC   NC343223  33.432  13.825   5.439
 3242POPC   PO443224  33.953  13.573   5.498
 3242POPC   GL143225  33.940  13.666   5.893
 3242POPC   GL243226  33.697  13.948   5.861
 3242POPC   C1A43227  33.978  13.446   6.290
 3242POPC   D2A43228  33.962  13.714   6.671
 3242POPC   C3A43229  34.075  13.578   7.046
 3242POPC   C4A43230  33.739  13.387   7.207
 3242POPC   C1B43231  33.612  13.803   6.293
 3242POPC   C2B43232  33.526  13.960   6.709
 3242POPC   C3B43233  33.532  13.855   7.146
 3242POPC   C4B43234  33.588  13.689   7.571
 3243POPC   NC343235  16.466  24.855   5.381
 3243POPC   PO443236  16.960  24.447   5.113
 3243POPC   GL143237  16.893  24.479   5.652
 3243POPC   GL243238  16.532  24.503   5.795
 3243POPC   C1A43239  16.921  24.364   6.166
 3243POPC   D2A43240  17.050  24.604   6.586
 3243POPC   C3A43241  16.803  24.607   6.992
 3243POPC   C4A43242  16.848  24.419   7.396
 3243POPC   C1B43243  16.420  24.392   6.247
 3243POPC   C2B43244  16.548  24.276   6.703
 3243POPC   C3B43245  16.397  24.300   7.169
 3243POPC   C4B43246  16.424  24.374   7.652
 3244POPC   NC343247  25.271  12.048   5.442
 3244POPC   PO443248  25.745  12.622   5.461
 3244POPC   GL143249  25.546  12.285   5.780
 3244POPC   GL243250  25.652  12.467   5.984
 3244POPC   C1A43251  25.360  11.977   6.119
 3244POPC   D2A43252  25.184  12.118   6.573
 3244POPC   C3A43253  25.200  11.893   7.015
 3244POPC   C4A43254  25.008  11.701   7.397
 3244POPC   C1B43255  25.630  12.324   6.360
 3244POPC   C2B43256  25.440  12.561   6.653
 3244POPC   C3B43257  25.246  12.409   7.019
 3244POPC   C4B43258  25.253  12.212   7.456
 3245POPC   NC343259  23.988  26.382   5.316
 3245POPC   PO443260  23.349  26.267   5.443
 3245POPC   GL143261  23.645  26.002   5.673
 3245POPC   GL243262  23.512  25.699   5.802
 3245POPC   C1A43263  23.783  26.056   6.117
 3245POPC   D2A43264  23.678  26.382   6.430
 3245POPC   C3A43265  23.766  26.318   6.886
 3245POPC   C4A43266  23.571  26.274   7.306
 3245POPC   C1B43267  23.397  25.729   6.234
 3245POPC   C2B43268  23.662  25.813   6.632
 3245POPC   C3B43269  23.738  25.818   7.111
 3245POPC   C4B43270  23.431  25.761   7.444
 3246POPC   NC343271   5.336   6.712   5.206
 3246POPC   PO443272   6.006   6.596   5.237
 3246POPC   GL143273   5.950   6.645   5.717
 3246POPC   GL243274   5.689   6.941   5.759
 3246POPC   C1A43275   6.064   6.558   6.159
 3246POPC   D2A43276   6.216   6.762   6.559
 3246POPC   C3A43277   6.065   6.635   6.948
 3246POPC   C4A43278   6.236   6.398   7.246
 3246POPC   C1B43279   5.696   6.923   6.205
 3246POPC   C2B43280   5.707   6.699   6.584
 3246POPC   C3B43281   5.559   6.743   6.998
 3246POPC   C4B43282   5.365   6.978   7.297
 3247POPC   NC343283  33.059  15.771   5.357
 3247POPC   PO443284  32.891  16.456   5.246
 3247POPC   GL143285  32.867  16.165   5.618
 3247POPC   GL243286  33.222  16.056   5.750
 3247POPC   C1A43287  32.831  16.159   6.077
 3247POPC   D2A43288  32.847  16.174   6.532
 3247POPC   C3A43289  32.908  16.028   6.988
 3247POPC   C4A43290  33.196  16.217   7.297
 3247POPC   C1B43291  33.284  15.892   6.198
 3247POPC   C2B43292  33.250  15.871   6.660
 3247POPC   C3B43293  33.423  15.812   7.087
 3247POPC   C4B43294  33.469  15.828   7.550
 3248POPC   NC343295   7.047  29.619   5.366
 3248POPC   PO443296   6.521  30.022   5.420
 3248POPC   GL143297   6.799  30.026   5.785
 3248POPC   GL243298   6.861  29.686   5.851
 3248POPC   C1A43299   6.790  30.093   6.255
 3248POPC   D2A43300   6.874  29.807   6.611
 3248POPC   C3A43301   6.852  29.928   7.066
 3248POPC   C4A43302   6.825  29.716   7.515
 3248POPC   C1B43303   6.448  29.747   6.062
 3248POPC   C2B43304   6.367  29.869   6.490
 3248POPC   C3B43305   6.449  29.628   6.876
 3248POPC   C4B43306   6.274  29.535   7.249
 3249POPC   NC343307  12.399   7.841   5.497
 3249POPC   PO443308  12.968   7.566   5.278
 3249POPC   GL143309  12.969   7.462   5.750
 3249POPC   GL243310  12.641   7.436   5.814
 3249POPC   C1A43311  12.972   7.438   6.247
 3249POPC   D2A43312  12.889   7.203   6.649
 3249POPC   C3A43313  12.839   7.381   7.079
 3249POPC   C4A43314  13.242   7.414   7.314
 3249POPC   C1B43315  12.534   7.687   6.157
 3249POPC   C2B43316  12.555   7.583   6.600
 3249POPC   C3B43317  12.559   7.818   6.988
 3249POPC   C4B43318  12.566   7.746   7.443
 3250POPC   NC343319  32.810  42.383   5.466
 3250POPC   PO443320  33.279  42.085   5.699
 3250POPC   GL143321  32.873  42.071   5.901
 3250POPC   GL243322  32.705  42.418   5.957
 3250POPC   C1A43323  32.954  42.174   6.327
 3250POPC   D2A43324  33.170  42.517   6.559
 3250POPC   C3A43325  33.116  42.505   6.995
 3250POPC   C4A43326  33.232  42.343   7.401
 3250POPC   C1B43327  32.709  42.615   6.363
 3250POPC   C2B43328  32.704  42.317   6.748
 3250POPC   C3B43329  32.775  42.089   7.149
 3250POPC   C4B43330  32.674  42.001   7.604
 3251POPC   NC343331  11.700  42.222   5.348
 3251POPC   PO443332  12.339  42.315   5.450
 3251POPC   GL143333  12.215  42.221   5.844
 3251POPC   GL243334  11.879  42.124   5.791
 3251POPC   C1A43335  12.314  42.396   6.234
 3251POPC   D2A43336  12.099  42.489   6.615
 3251POPC   C3A43337  12.295  42.324   6.974
 3251POPC   C4A43338  12.348  42.399   7.425
 3251POPC   C1B43339  11.810  42.320   6.180
 3251POPC   C2B43340  11.672  42.093   6.521
 3251POPC   C3B43341  11.811  42.174   6.916
 3251POPC   C4B43342  11.866  42.471   7.237
 3252POPC   NC343343  35.194  34.678   5.155
 3252POPC   PO443344  35.462  34.098   5.219
 3252POPC   GL143345  35.278  34.293   5.563
 3252POPC   GL243346  35.397  34.623   5.665
 3252POPC   C1A43347  35.179  34.312   6.006
 3252POPC   D2A43348  35.384  34.284   6.409
 3252POPC   C3A43349  35.216  34.264   6.825
 3252POPC   C4A43350  35.324  34.349   7.252
 3252POPC   C1B43351  35.518  34.693   6.112
 3252POPC   C2B43352  35.351  34.754   6.562
 3252POPC   C3B43353  35.518  34.724   6.962
 3252POPC   C4B43354  35.272  34.857   7.303
 3253POPC   NC343355  16.943  16.229   5.417
 3253POPC   PO443356  16.496  15.693   5.298
 3253POPC   GL143357  16.622  15.900   5.708
 3253POPC   GL243358  16.538  16.255   5.780
 3253POPC   C1A43359  16.822  15.995   6.134
 3253POPC   D2A43360  16.620  15.942   6.534
 3253POPC   C3A43361  16.764  16.019   6.916
 3253POPC   C4A43362  16.770  15.761   7.271
 3253POPC   C1B43363  16.416  16.315   6.226
 3253POPC   C2B43364  16.457  16.442   6.673
 3253POPC   C3B43365  16.452  16.372   7.123
 3253POPC   C4B43366  16.603  16.196   7.550
 3254POPC   NC343367  24.568  16.017   5.674
 3254POPC   PO443368  25.024  16.188   5.279
 3254POPC   GL143369  25.289  16.022   5.657
 3254POPC   GL243370  25.041  15.781   5.821
 3254POPC   C1A43371  25.484  15.849   6.070
 3254POPC   D2A43372  25.264  15.662   6.428
 3254POPC   C3A43373  25.242  15.834   6.830
 3254POPC   C4A43374  25.260  15.862   7.276
 3254POPC   C1B43375  24.996  16.059   6.197
 3254POPC   C2B43376  24.837  16.132   6.634
 3254POPC   C3B43377  24.828  16.076   7.102
 3254POPC   C4B43378  24.788  16.302   7.510
 3255POPC   NC343379  41.900  40.726   5.567
 3255POPC   PO443380  41.273  40.571   5.390
 3255POPC   GL143381  41.386  40.775   5.747
 3255POPC   GL243382  41.508  41.073   5.599
 3255POPC   C1A43383  41.569  40.667   6.180
 3255POPC   D2A43384  41.460  40.380   6.551
 3255POPC   C3A43385  41.593  40.600   6.945
 3255POPC   C4A43386  41.300  40.652   7.298
 3255POPC   C1B43387  41.559  41.177   6.041
 3255POPC   C2B43388  41.718  41.098   6.451
 3255POPC   C3B43389  41.591  41.148   6.865
 3255POPC   C4B43390  41.652  41.016   7.266
 3256POPC   NC343391   5.201  21.591   5.549
 3256POPC   PO443392   4.980  20.922   5.443
 3256POPC   GL143393   5.063  21.181   5.832
 3256POPC   GL243394   4.809  21.436   5.887
 3256POPC   C1A43395   5.260  21.439   6.191
 3256POPC   D2A43396   5.358  21.635   6.586
 3256POPC   C3A43397   5.234  21.323   6.832
 3256POPC   C4A43398   5.261  21.200   7.232
 3256POPC   C1B43399   4.623  21.734   6.187
 3256POPC   C2B43400   4.629  21.585   6.644
 3256POPC   C3B43401   4.803  21.438   7.079
 3256POPC   C4B43402   4.952  21.512   7.504
 3257POPC   NC343403  26.186  30.269   5.149
 3257POPC   PO443404  26.180  30.937   5.314
 3257POPC   GL143405  26.038  30.980   5.754
 3257POPC   GL243406  25.908  30.669   5.902
 3257POPC   C1A43407  26.184  30.935   6.216
 3257POPC   D2A43408  25.954  30.740   6.526
 3257POPC   C3A43409  26.221  30.668   6.854
 3257POPC   C4A43410  26.064  30.820   7.226
 3257POPC   C1B43411  25.706  30.394   6.191
 3257POPC   C2B43412  25.835  30.238   6.599
 3257POPC   C3B43413  25.786  30.439   6.988
 3257POPC   C4B43414  26.118  30.301   7.239
 3258POPC   NC343415  14.189  32.723   5.418
 3258POPC   PO443416  14.879  32.796   5.456
 3258POPC   GL143417  14.633  32.665   5.813
 3258POPC   GL243418  14.419  32.985   5.847
 3258POPC   C1A43419  14.472  32.681   6.256
 3258POPC   D2A43420  14.313  33.065   6.458
 3258POPC   C3A43421  14.458  33.213   6.867
 3258POPC   C4A43422  14.453  33.009   7.261
 3258POPC   C1B43423  14.023  32.828   6.062
 3258POPC   C2B43424  13.918  32.725   6.500
 3258POPC   C3B43425  14.092  32.866   6.919
 3258POPC   C4B43426  14.017  33.258   7.175
 3259POPC   NC343427  32.012   9.556   5.371
 3259POPC   PO443428  32.641   9.806   5.191
 3259POPC   GL143429  32.441   9.774   5.666
 3259POPC   GL243430  32.740   9.552   5.751
 3259POPC   C1A43431  32.182   9.939   6.094
 3259POPC   D2A43432  31.932   9.994   6.529
 3259POPC   C3A43433  32.159   9.905   6.951
 3259POPC   C4A43434  32.612   9.998   7.111
 3259POPC   C1B43435  32.450   9.515   6.115
 3259POPC   C2B43436  32.314   9.585   6.564
 3259POPC   C3B43437  32.490   9.495   7.017
 3259POPC   C4B43438  32.586   9.300   7.449
 3260POPC   NC343439  31.629  19.010   5.233
 3260POPC   PO443440  31.073  19.240   5.534
 3260POPC   GL143441  31.345  19.152   5.854
 3260POPC   GL243442  31.614  18.977   5.769
 3260POPC   C1A43443  31.344  18.840   6.205
 3260POPC   D2A43444  31.305  18.804   6.656
 3260POPC   C3A43445  31.630  18.885   6.975
 3260POPC   C4A43446  31.347  19.134   7.177
 3260POPC   C1B43447  31.717  19.196   6.203
 3260POPC   C2B43448  31.644  19.317   6.663
 3260POPC   C3B43449  31.737  19.441   7.105
 3260POPC   C4B43450  31.781  19.184   7.485
 3261POPC   NC343451  37.133  27.343   5.010
 3261POPC   PO443452  36.821  27.819   5.332
 3261POPC   GL143453  37.032  27.567   5.643
 3261POPC   GL243454  37.182  27.859   5.801
 3261POPC   C1A43455  36.876  27.542   6.098
 3261POPC   D2A43456  36.579  27.780   6.405
 3261POPC   C3A43457  36.476  27.621   6.825
 3261POPC   C4A43458  36.704  27.413   7.157
 3261POPC   C1B43459  37.040  28.056   6.206
 3261POPC   C2B43460  37.166  28.194   6.612
 3261POPC   C3B43461  37.255  27.860   6.923
 3261POPC   C4B43462  37.109  27.775   7.334
 3262POPC   NC343463  44.866   8.596   5.431
 3262POPC   PO443464  44.855   7.902   5.509
 3262POPC   GL143465  44.643   8.043   5.877
 3262POPC   GL243466  44.520   8.401   5.834
 3262POPC   C1A43467  44.730   8.102   6.318
 3262POPC   D2A43468  44.846   8.016   6.745
 3262POPC   C3A43469  44.744   8.116   7.184
 3262POPC   C4A43470  44.515   7.835   7.473
 3262POPC   C1B43471  44.809   8.578   6.158
 3262POPC   C2B43472  44.992   8.488   6.573
 3262POPC   C3B43473   0.028   8.684   6.982
 3262POPC   C4B43474  44.984   8.548   7.443
 3263POPC   NC343475   5.551  42.521   5.484
 3263POPC   PO443476   6.012  42.063   5.224
 3263POPC   GL143477   5.998  42.281   5.724
 3263POPC   GL243478   5.688  42.454   5.951
 3263POPC   C1A43479   6.105  42.398   6.198
 3263POPC   D2A43480   5.942  42.466   6.594
 3263POPC   C3A43481   6.207  42.541   6.931
 3263POPC   C4A43482   6.157  42.385   7.379
 3263POPC   C1B43483   5.624  42.147   6.295
 3263POPC   C2B43484   5.764  42.002   6.705
 3263POPC   C3B43485   5.771  42.268   7.064
 3263POPC   C4B43486   5.659  42.327   7.498
 3264POPC   NC343487   2.838   4.493   5.426
 3264POPC   PO443488   2.558   3.908   5.321
 3264POPC   GL143489   2.644   4.110   5.769
 3264POPC   GL243490   2.703   4.468   5.892
 3264POPC   C1A43491   2.424   4.164   6.199
 3264POPC   D2A43492   2.462   3.992   6.628
 3264POPC   C3A43493   2.836   4.078   6.892
 3264POPC   C4A43494   2.829   4.116   7.330
 3264POPC   C1B43495   2.727   4.591   6.289
 3264POPC   C2B43496   2.635   4.474   6.675
 3264POPC   C3B43497   2.724   4.561   7.100
 3264POPC   C4B43498   2.690   4.560   7.558
 3265POPC   NC343499  29.083  27.323   5.538
 3265POPC   PO443500  28.799  27.874   5.312
 3265POPC   GL143501  28.778  27.784   5.766
 3265POPC   GL243502  28.989  28.060   5.905
 3265POPC   C1A43503  28.622  27.714   6.222
 3265POPC   D2A43504  28.653  27.800   6.697
 3265POPC   C3A43505  28.926  27.551   7.003
 3265POPC   C4A43506  29.042  27.649   7.429
 3265POPC   C1B43507  29.279  28.003   6.292
 3265POPC   C2B43508  29.431  27.784   6.678
 3265POPC   C3B43509  29.458  27.665   7.129
 3265POPC   C4B43510  29.508  27.426   7.540
 3266POPC   NC343511  12.613  41.928   5.202
 3266POPC   PO443512  12.777  41.257   5.372
 3266POPC   GL143513  12.885  41.446   5.801
 3266POPC   GL243514  13.222  41.604   5.749
 3266POPC   C1A43515  12.804  41.468   6.302
 3266POPC   D2A43516  13.064  41.239   6.630
 3266POPC   C3A43517  12.848  41.246   7.047
 3266POPC   C4A43518  12.535  41.547   7.141
 3266POPC   C1B43519  13.285  41.462   6.171
 3266POPC   C2B43520  13.218  41.721   6.543
 3266POPC   C3B43521  13.085  41.690   6.956
 3266POPC   C4B43522  13.297  41.443   7.239
 3267POPC   NC343523  30.663  37.864   5.503
 3267POPC   PO443524  31.042  37.308   5.456
 3267POPC   GL143525  30.872  37.511   5.842
 3267POPC   GL243526  30.928  37.890   5.925
 3267POPC   C1A43527  30.820  37.446   6.296
 3267POPC   D2A43528  30.586  37.481   6.695
 3267POPC   C3A43529  30.850  37.591   7.000
 3267POPC   C4A43530  30.983  37.463   7.360
 3267POPC   C1B43531  30.604  37.898   6.172
 3267POPC   C2B43532  30.393  37.988   6.524
 3267POPC   C3B43533  30.396  37.882   6.936
 3267POPC   C4B43534  30.522  38.017   7.315
 3268POPC   NC343535  29.620   5.328   5.450
 3268POPC   PO443536  30.297   5.300   5.536
 3268POPC   GL143537  30.202   4.991   5.829
 3268POPC   GL243538  29.875   5.125   5.841
 3268POPC   C1A43539  30.045   4.867   6.257
 3268POPC   D2A43540  30.136   4.914   6.720
 3268POPC   C3A43541  29.887   4.811   7.110
 3268POPC   C4A43542  29.837   4.832   7.588
 3268POPC   C1B43543  30.059   5.369   6.194
 3268POPC   C2B43544  30.209   5.410   6.587
 3268POPC   C3B43545  29.999   5.362   6.971
 3268POPC   C4B43546  30.106   5.243   7.355
 3269POPC   NC343547  13.339  18.543   5.110
 3269POPC   PO443548  12.774  18.305   5.311
 3269POPC   GL143549  12.967  18.393   5.750
 3269POPC   GL243550  12.716  18.236   5.951
 3269POPC   C1A43551  12.983  18.571   6.216
 3269POPC   D2A43552  13.011  18.373   6.649
 3269POPC   C3A43553  12.832  18.500   7.061
 3269POPC   C4A43554  12.986  18.455   7.525
 3269POPC   C1B43555  12.873  17.969   6.278
 3269POPC   C2B43556  13.030  17.878   6.670
 3269POPC   C3B43557  12.941  18.016   7.095
 3269POPC   C4B43558  12.745  18.017   7.532
 3270POPC   NC343559  10.968  41.786   5.473
 3270POPC   PO443560  11.310  41.327   4.939
 3270POPC   GL143561  11.358  41.379   5.462
 3270POPC   GL243562  11.463  41.699   5.624
 3270POPC   C1A43563  11.230  41.331   5.934
 3270POPC   D2A43564  11.283  41.464   6.411
 3270POPC   C3A43565  11.229  41.441   6.886
 3270POPC   C4A43566  11.186  41.607   7.302
 3270POPC   C1B43567  11.612  41.649   6.074
 3270POPC   C2B43568  11.772  41.587   6.540
 3270POPC   C3B43569  11.672  41.686   6.983
 3270POPC   C4B43570  11.465  42.020   7.242
 3271POPC   NC343571   2.788  17.134   5.168
 3271POPC   PO443572   2.846  17.767   5.419
 3271POPC   GL143573   2.618  17.600   5.740
 3271POPC   GL243574   2.512  17.275   5.642
 3271POPC   C1A43575   2.529  17.601   6.163
 3271POPC   D2A43576   2.381  17.503   6.565
 3271POPC   C3A43577   2.512  17.714   6.865
 3271POPC   C4A43578   2.636  17.531   7.211
 3271POPC   C1B43579   2.771  17.153   5.993
 3271POPC   C2B43580   2.755  17.182   6.449
 3271POPC   C3B43581   2.726  17.112   6.905
 3271POPC   C4B43582   2.588  16.988   7.327
 3272POPC   NC343583  39.076  16.225   5.353
 3272POPC   PO443584  39.330  15.671   5.511
 3272POPC   GL143585  39.293  15.994   5.859
 3272POPC   GL243586  39.361  16.353   5.813
 3272POPC   C1A43587  39.086  16.078   6.277
 3272POPC   D2A43588  38.760  15.975   6.622
 3272POPC   C3A43589  38.849  16.077   7.076
 3272POPC   C4A43590  39.020  15.667   7.242
 3272POPC   C1B43591  39.582  16.319   6.242
 3272POPC   C2B43592  39.546  16.045   6.603
 3272POPC   C3B43593  39.347  16.007   7.016
 3272POPC   C4B43594  39.209  16.087   7.481
 3273POPC   NC343595  34.787   5.682   5.104
 3273POPC   PO443596  34.352   5.561   5.607
 3273POPC   GL143597  34.512   5.167   5.788
 3273POPC   GL243598  34.295   4.863   5.833
 3273POPC   C1A43599  34.639   5.219   6.223
 3273POPC   D2A43600  34.992   5.093   6.483
 3273POPC   C3A43601  34.914   5.247   6.898
 3273POPC   C4A43602  34.790   5.223   7.304
 3273POPC   C1B43603  34.261   4.833   6.294
 3273POPC   C2B43604  34.409   5.030   6.681
 3273POPC   C3B43605  34.489   4.828   7.062
 3273POPC   C4B43606  34.429   4.761   7.497
 3274POPC   NC343607  32.636  34.396   5.218
 3274POPC   PO443608  33.215  34.638   5.519
 3274POPC   GL143609  33.064  34.398   5.890
 3274POPC   GL243610  32.728  34.338   5.734
 3274POPC   C1A43611  33.112  34.481   6.364
 3274POPC   D2A43612  33.089  34.838   6.695
 3274POPC   C3A43613  32.909  34.662   7.079
 3274POPC   C4A43614  32.955  34.224   7.246
 3274POPC   C1B43615  32.648  34.434   6.165
 3274POPC   C2B43616  32.502  34.186   6.512
 3274POPC   C3B43617  32.597  34.103   6.895
 3274POPC   C4B43618  32.446  34.437   7.108
 3275POPC   NC343619  12.372  19.359   5.447
 3275POPC   PO443620  12.209  20.068   5.486
 3275POPC   GL143621  12.095  19.698   5.755
 3275POPC   GL243622  11.743  19.614   5.755
 3275POPC   C1A43623  12.187  19.669   6.207
 3275POPC   D2A43624  12.071  19.989   6.512
 3275POPC   C3A43625  11.951  19.948   6.921
 3275POPC   C4A43626  12.129  20.020   7.331
 3275POPC   C1B43627  11.696  19.779   6.189
 3275POPC   C2B43628  11.769  19.570   6.598
 3275POPC   C3B43629  11.651  19.544   7.043
 3275POPC   C4B43630  11.466  19.657   7.457
 3276POPC   NC343631   1.694  17.895   5.061
 3276POPC   PO443632   1.748  17.416   5.501
 3276POPC   GL143633   2.049  17.508   5.821
 3276POPC   GL243634   1.905  17.238   6.018
 3276POPC   C1A43635   2.030  17.694   6.243
 3276POPC   D2A43636   1.886  17.532   6.657
 3276POPC   C3A43637   2.026  17.767   7.041
 3276POPC   C4A43638   1.865  17.683   7.468
 3276POPC   C1B43639   2.282  17.145   6.213
 3276POPC   C2B43640   2.295  17.005   6.651
 3276POPC   C3B43641   2.228  17.271   7.035
 3276POPC   C4B43642   2.269  17.364   7.504
 3277POPC   NC343643  34.854  24.474   5.344
 3277POPC   PO443644  34.175  24.648   5.516
 3277POPC   GL143645  34.576  24.623   5.776
 3277POPC   GL243646  34.698  24.255   5.775
 3277POPC   C1A43647  34.677  24.529   6.228
 3277POPC   D2A43648  34.743  24.175   6.535
 3277POPC   C3A43649  34.774  24.282   6.976
 3277POPC   C4A43650  34.847  24.688   7.172
 3277POPC   C1B43651  34.361  24.119   6.036
 3277POPC   C2B43652  34.294  23.939   6.451
 3277POPC   C3B43653  34.293  24.018   6.892
 3277POPC   C4B43654  34.335  24.311   7.255
 3278POPC   NC343655  23.286  19.528   5.556
 3278POPC   PO443656  23.272  20.142   5.207
 3278POPC   GL143657  22.925  19.922   5.617
 3278POPC   GL243658  22.778  20.210   5.817
 3278POPC   C1A43659  22.835  19.727   6.056
 3278POPC   D2A43660  23.006  19.737   6.509
 3278POPC   C3A43661  22.897  19.525   6.931
 3278POPC   C4A43662  22.861  19.703   7.365
 3278POPC   C1B43663  22.812  20.181   6.273
 3278POPC   C2B43664  22.619  20.080   6.675
 3278POPC   C3B43665  22.670  20.127   7.137
 3278POPC   C4B43666  22.697  20.286   7.597
 3279POPC   NC343667  40.618  17.340   5.456
 3279POPC   PO443668  41.099  17.805   5.570
 3279POPC   GL143669  40.848  17.553   5.864
 3279POPC   GL243670  40.812  17.198   5.915
 3279POPC   C1A43671  40.884  17.592   6.281
 3279POPC   D2A43672  40.696  17.597   6.682
 3279POPC   C3A43673  40.933  17.645   7.035
 3279POPC   C4A43674  40.789  17.933   7.277
 3279POPC   C1B43675  40.552  17.001   6.241
 3279POPC   C2B43676  40.466  17.137   6.663
 3279POPC   C3B43677  40.685  17.182   7.039
 3279POPC   C4B43678  40.555  17.092   7.492
 3280POPC   NC343679   3.549   3.133   5.231
 3280POPC   PO443680   3.721   2.423   5.314
 3280POPC   GL143681   3.688   2.773   5.642
 3280POPC   GL243682   3.424   3.013   5.711
 3280POPC   C1A43683   3.743   2.913   6.092
 3280POPC   D2A43684   3.844   2.681   6.469
 3280POPC   C3A43685   3.808   2.918   6.844
 3280POPC   C4A43686   3.795   2.733   7.243
 3280POPC   C1B43687   3.231   2.929   6.149
 3280POPC   C2B43688   3.357   2.841   6.607
 3280POPC   C3B43689   3.356   2.923   7.070
 3280POPC   C4B43690   3.361   2.964   7.528
 3281POPC   NC343691  35.250  41.973   5.276
 3281POPC   PO443692  35.225  41.313   5.372
 3281POPC   GL143693  35.307  41.573   5.712
 3281POPC   GL243694  34.953  41.630   5.742
 3281POPC   C1A43695  35.388  41.709   6.147
 3281POPC   D2A43696  35.495  41.901   6.563
 3281POPC   C3A43697  35.354  41.732   6.981
 3281POPC   C4A43698  35.313  41.742   7.441
 3281POPC   C1B43699  34.988  41.381   6.153
 3281POPC   C2B43700  35.142  41.462   6.548
 3281POPC   C3B43701  34.917  41.482   6.902
 3281POPC   C4B43702  34.974  41.385   7.326
 3282POPC   NC343703  30.961  17.263   5.488
 3282POPC   PO443704  30.527  17.714   5.351
 3282POPC   GL143705  30.519  17.502   5.760
 3282POPC   GL243706  30.824  17.639   5.920
 3282POPC   C1A43707  30.448  17.523   6.254
 3282POPC   D2A43708  30.675  17.743   6.601
 3282POPC   C3A43709  30.547  17.574   6.997
 3282POPC   C4A43710  30.250  17.269   7.149
 3282POPC   C1B43711  30.922  17.389   6.302
 3282POPC   C2B43712  30.928  17.304   6.754
 3282POPC   C3B43713  30.723  17.080   7.121
 3282POPC   C4B43714  30.504  17.028   7.544
 3283POPC   NC343715  37.973  25.532   5.001
 3283POPC   PO443716  37.541  25.048   5.047
 3283POPC   GL143717  37.536  25.154   5.519
 3283POPC   GL243718  37.762  25.457   5.653
 3283POPC   C1A43719  37.466  25.171   5.975
 3283POPC   D2A43720  37.390  25.399   6.369
 3283POPC   C3A43721  37.339  25.169   6.759
 3283POPC   C4A43722  37.484  25.358   7.135
 3283POPC   C1B43723  37.937  25.354   6.104
 3283POPC   C2B43724  37.989  25.184   6.536
 3283POPC   C3B43725  37.961  25.368   6.940
 3283POPC   C4B43726  37.910  25.634   7.303
 3284POPC   NC343727   0.861  21.187   5.502
 3284POPC   PO443728   1.414  21.583   5.431
 3284POPC   GL143729   1.147  21.474   5.828
 3284POPC   GL243730   1.151  21.088   5.919
 3284POPC   C1A43731   1.109  21.631   6.271
 3284POPC   D2A43732   0.965  21.716   6.708
 3284POPC   C3A43733   1.113  21.499   7.095
 3284POPC   C4A43734   0.910  21.502   7.534
 3284POPC   C1B43735   0.859  21.148   6.277
 3284POPC   C2B43736   0.715  21.220   6.728
 3284POPC   C3B43737   0.801  21.099   7.180
 3284POPC   C4B43738   0.821  21.002   7.656
 3285POPC   NC343739  27.182   1.156   5.539
 3285POPC   PO443740  26.605   0.876   5.418
 3285POPC   GL143741  26.574   1.190   5.752
 3285POPC   GL243742  26.876   1.397   5.887
 3285POPC   C1A43743  26.448   1.309   6.158
 3285POPC   D2A43744  26.695   1.267   6.505
 3285POPC   C3A43745  26.462   1.264   6.861
 3285POPC   C4A43746  26.616   1.333   7.268
 3285POPC   C1B43747  27.072   1.085   6.206
 3285POPC   C2B43748  27.215   1.045   6.660
 3285POPC   C3B43749  27.197   1.252   7.088
 3285POPC   C4B43750  27.066   1.425   7.498
 3286POPC   NC343751  28.990   8.318   5.414
 3286POPC   PO443752  29.633   8.268   5.428
 3286POPC   GL143753  29.355   8.391   5.765
 3286POPC   GL243754  29.234   8.093   5.799
 3286POPC   C1A43755  29.017   8.472   6.109
 3286POPC   D2A43756  28.878   8.286   6.525
 3286POPC   C3A43757  29.046   8.455   6.905
 3286POPC   C4A43758  29.358   8.410   7.206
 3286POPC   C1B43759  29.076   7.957   6.163
 3286POPC   C2B43760  29.215   7.817   6.541
 3286POPC   C3B43761  29.282   7.981   6.912
 3286POPC   C4B43762  28.971   8.028   7.195
 3287POPC   NC343763  44.649  37.961   5.395
 3287POPC   PO443764  44.178  37.397   5.460
 3287POPC   GL143765  44.492  37.576   5.720
 3287POPC   GL243766  44.380  37.881   5.842
 3287POPC   C1A43767  44.743  37.561   6.099
 3287POPC   D2A43768  44.653  37.564   6.552
 3287POPC   C3A43769  44.901  37.682   6.910
 3287POPC   C4A43770  44.859  37.557   7.315
 3287POPC   C1B43771  44.545  38.009   6.273
 3287POPC   C2B43772  44.531  38.059   6.717
 3287POPC   C3B43773  44.667  38.082   7.149
 3287POPC   C4B43774  44.881  38.019   7.556
 3288POPC   NC343775  19.243   1.097   5.494
 3288POPC   PO443776  18.802   1.495   5.294
 3288POPC   GL143777  18.828   1.321   5.753
 3288POPC   GL243778  18.946   0.978   5.859
 3288POPC   C1A43779  18.816   1.413   6.205
 3288POPC   D2A43780  19.072   1.471   6.593
 3288POPC   C3A43781  18.905   1.245   6.967
 3288POPC   C4A43782  18.648   1.415   7.298
 3288POPC   C1B43783  19.212   1.076   6.196
 3288POPC   C2B43784  19.243   0.985   6.621
 3288POPC   C3B43785  19.407   1.237   6.965
 3288POPC   C4B43786  19.309   1.035   7.340
 3289POPC   NC343787  39.400  27.928   5.463
 3289POPC   PO443788  39.238  27.308   5.371
 3289POPC   GL143789  39.305  27.517   5.789
 3289POPC   GL243790  39.252  27.911   5.935
 3289POPC   C1A43791  39.445  27.518   6.201
 3289POPC   D2A43792  39.314  27.789   6.521
 3289POPC   C3A43793  39.388  27.579   6.888
 3289POPC   C4A43794  39.361  27.412   7.276
 3289POPC   C1B43795  38.931  27.668   6.138
 3289POPC   C2B43796  38.838  27.537   6.545
 3289POPC   C3B43797  38.924  27.801   6.867
 3289POPC   C4B43798  39.150  27.864   7.234
 3290POPC   NC343799   6.258  39.474   5.248
 3290POPC   PO443800   5.610  39.351   5.472
 3290POPC   GL143801   5.761  39.365   5.889
 3290POPC   GL243802   5.830  39.682   5.941
 3290POPC   C1A43803   5.737  39.321   6.337
 3290POPC   D2A43804   5.632  39.483   6.721
 3290POPC   C3A43805   5.592  39.246   7.115
 3290POPC   C4A43806   5.781  39.278   7.514
 3290POPC   C1B43807   6.177  39.558   6.260
 3290POPC   C2B43808   6.154  39.325   6.654
 3290POPC   C3B43809   6.102  39.364   7.087
 3290POPC   C4B43810   6.236  39.744   7.269
 3291POPC   NC343811  36.062  38.168   5.531
 3291POPC   PO443812  35.850  37.577   5.389
 3291POPC   GL143813  36.010  37.622   5.772
 3291POPC   GL243814  35.705  37.495   5.918
 3291POPC   C1A43815  36.149  37.563   6.187
 3291POPC   D2A43816  35.924  37.640   6.543
 3291POPC   C3A43817  36.274  37.778   6.763
 3291POPC   C4A43818  36.502  37.641   7.092
 3291POPC   C1B43819  35.671  37.242   6.298
 3291POPC   C2B43820  35.778  37.151   6.722
 3291POPC   C3B43821  35.970  37.420   7.030
 3291POPC   C4B43822  35.956  37.838   7.186
 3292POPC   NC343823  35.424   2.113   5.415
 3292POPC   PO443824  35.455   1.477   5.680
 3292POPC   GL143825  35.196   1.762   5.931
 3292POPC   GL243826  35.169   2.122   5.850
 3292POPC   C1A43827  35.209   1.904   6.358
 3292POPC   D2A43828  35.553   1.881   6.664
 3292POPC   C3A43829  35.342   1.924   7.023
 3292POPC   C4A43830  35.075   1.630   7.191
 3292POPC   C1B43831  35.076   2.396   6.172
 3292POPC   C2B43832  34.970   2.335   6.583
 3292POPC   C3B43833  35.122   2.469   6.976
 3292POPC   C4B43834  35.261   2.321   7.366
 3293POPC   NC343835  21.583   3.051   5.025
 3293POPC   PO443836  21.299   2.480   5.193
 3293POPC   GL143837  21.267   2.577   5.672
 3293POPC   GL243838  21.364   2.904   5.772
 3293POPC   C1A43839  21.165   2.650   6.147
 3293POPC   D2A43840  20.983   2.492   6.524
 3293POPC   C3A43841  21.103   2.673   6.910
 3293POPC   C4A43842  21.180   2.478   7.302
 3293POPC   C1B43843  21.569   3.029   6.122
 3293POPC   C2B43844  21.413   3.060   6.520
 3293POPC   C3B43845  21.628   3.006   6.879
 3293POPC   C4B43846  21.395   2.926   7.245
 3294POPC   NC343847   3.806   3.470   5.614
 3294POPC   PO443848   3.276   3.780   5.508
 3294POPC   GL143849   3.467   3.772   5.893
 3294POPC   GL243850   3.521   3.403   6.011
 3294POPC   C1A43851   3.315   3.733   6.304
 3294POPC   D2A43852   3.388   3.337   6.503
 3294POPC   C3A43853   3.457   3.401   6.916
 3294POPC   C4A43854   3.263   3.421   7.322
 3294POPC   C1B43855   3.814   3.615   6.271
 3294POPC   C2B43856   3.921   3.393   6.621
 3294POPC   C3B43857   3.979   3.373   7.035
 3294POPC   C4B43858   3.730   3.223   7.307
 3295POPC   NC343859  18.902  36.451   5.506
 3295POPC   PO443860  19.443  36.821   5.398
 3295POPC   GL143861  19.100  36.939   5.701
 3295POPC   GL243862  19.034  36.660   5.933
 3295POPC   C1A43863  18.948  37.106   6.132
 3295POPC   D2A43864  18.962  36.765   6.459
 3295POPC   C3A43865  19.110  36.791   6.869
 3295POPC   C4A43866  18.838  36.927   7.185
 3295POPC   C1B43867  19.269  36.438   6.215
 3295POPC   C2B43868  19.172  36.304   6.640
 3295POPC   C3B43869  19.208  36.343   7.084
 3295POPC   C4B43870  19.233  36.654   7.393
 3296POPC   NC343871  15.120  23.856   5.366
 3296POPC   PO443872  15.713  23.739   5.487
 3296POPC   GL143873  15.411  23.880   5.809
 3296POPC   GL243874  15.039  23.807   5.887
 3296POPC   C1A43875  15.414  23.856   6.249
 3296POPC   D2A43876  15.117  23.793   6.550
 3296POPC   C3A43877  15.373  23.744   6.894
 3296POPC   C4A43878  15.364  24.070   7.142
 3296POPC   C1B43879  14.798  23.522   6.226
 3296POPC   C2B43880  14.636  23.655   6.667
 3296POPC   C3B43881  14.882  23.770   7.049
 3296POPC   C4B43882  15.190  23.507   7.315
 3297POPC   NC343883  30.666  29.972   5.164
 3297POPC   PO443884  31.064  29.617   5.590
 3297POPC   GL143885  30.646  29.745   5.732
 3297POPC   GL243886  30.467  30.080   5.737
 3297POPC   C1A43887  30.661  29.830   6.175
 3297POPC   D2A43888  31.000  29.726   6.474
 3297POPC   C3A43889  30.896  29.602   6.910
 3297POPC   C4A43890  30.896  29.817   7.329
 3297POPC   C1B43891  30.189  29.999   6.101
 3297POPC   C2B43892  30.212  29.851   6.570
 3297POPC   C3B43893  30.449  29.943   6.987
 3297POPC   C4B43894  30.425  29.930   7.451
 3298POPC   NC343895  11.810  27.246   5.438
 3298POPC   PO443896  12.258  27.709   5.408
 3298POPC   GL143897  12.164  27.492   5.806
 3298POPC   GL243898  12.418  27.231   5.877
 3298POPC   C1A43899  11.879  27.571   6.158
 3298POPC   D2A43900  11.859  27.738   6.573
 3298POPC   C3A43901  11.693  27.512   6.916
 3298POPC   C4A43902  11.863  27.519   7.334
 3298POPC   C1B43903  12.438  27.488   6.282
 3298POPC   C2B43904  12.466  27.590   6.745
 3298POPC   C3B43905  12.318  27.393   7.127
 3298POPC   C4B43906  12.378  27.390   7.593
 3299POPC   NC343907  29.349  38.195   5.551
 3299POPC   PO443908  28.698  38.332   5.392
 3299POPC   GL143909  28.892  38.391   5.819
 3299POPC   GL243910  29.183  38.627   5.793
 3299POPC   C1A43911  28.937  38.541   6.270
 3299POPC   D2A43912  28.827  38.729   6.675
 3299POPC   C3A43913  29.071  38.616   7.034
 3299POPC   C4A43914  29.063  38.684   7.496
 3299POPC   C1B43915  29.430  38.455   6.157
 3299POPC   C2B43916  29.388  38.284   6.570
 3299POPC   C3B43917  29.537  38.400   6.971
 3299POPC   C4B43918  29.369  38.306   7.369
 3300POPC   NC343919  42.830  41.094   5.594
 3300POPC   PO443920  43.259  40.607   5.361
 3300POPC   GL143921  43.211  40.788   5.751
 3300POPC   GL243922  42.922  40.560   5.802
 3300POPC   C1A43923  43.068  40.883   6.176
 3300POPC   D2A43924  42.892  40.722   6.530
 3300POPC   C3A43925  43.028  40.953   6.857
 3300POPC   C4A43926  42.954  40.982   7.260
 3300POPC   C1B43927  43.292  40.411   6.072
 3300POPC   C2B43928  43.352  40.497   6.498
 3300POPC   C3B43929  43.367  40.571   6.947
 3300POPC   C4B43930  43.271  40.601   7.386
 3301POPC   NC343931  41.761  14.780   5.395
 3301POPC   PO443932  41.345  14.322   5.384
 3301POPC   GL143933  41.708  14.343   5.662
 3301POPC   GL243934  41.745  14.063   5.856
 3301POPC   C1A43935  41.748  14.595   6.058
 3301POPC   D2A43936  41.446  14.617   6.398
 3301POPC   C3A43937  41.549  14.540   6.843
 3301POPC   C4A43938  41.497  14.554   7.295
 3301POPC   C1B43939  41.373  14.207   6.093
 3301POPC   C2B43940  41.291  14.147   6.564
 3301POPC   C3B43941  41.305  14.099   7.009
 3301POPC   C4B43942  41.659  14.063   7.236
 3302POPC   NC343943  25.685   2.631   5.543
 3302POPC   PO443944  26.274   2.708   5.231
 3302POPC   GL143945  26.306   2.624   5.740
 3302POPC   GL243946  25.994   2.513   5.895
 3302POPC   C1A43947  26.267   2.667   6.252
 3302POPC   D2A43948  25.987   2.709   6.616
 3302POPC   C3A43949  26.247   2.572   6.966
 3302POPC   C4A43950  26.228   2.665   7.422
 3302POPC   C1B43951  25.772   2.360   6.280
 3302POPC   C2B43952  25.470   2.457   6.559
 3302POPC   C3B43953  25.513   2.705   6.899
 3302POPC   C4B43954  25.786   2.689   7.183
 3303POPC   NC343955  27.193   3.578   5.038
 3303POPC   PO443956  27.819   3.533   5.354
 3303POPC   GL143957  27.680   3.585   5.725
 3303POPC   GL243958  27.926   3.392   5.848
 3303POPC   C1A43959  27.489   3.468   6.116
 3303POPC   D2A43960  27.594   3.605   6.529
 3303POPC   C3A43961  27.414   3.444   6.883
 3303POPC   C4A43962  27.289   3.789   7.128
 3303POPC   C1B43963  27.956   3.689   6.173
 3303POPC   C2B43964  28.107   3.545   6.555
 3303POPC   C3B43965  27.954   3.550   6.952
 3303POPC   C4B43966  27.790   3.849   7.159
 3304POPC   NC343967  34.136  38.342   5.222
 3304POPC   PO443968  34.696  38.678   5.438
 3304POPC   GL143969  34.437  38.407   5.684
 3304POPC   GL243970  34.710  38.209   5.855
 3304POPC   C1A43971  34.317  38.422   6.128
 3304POPC   D2A43972  34.554  38.483   6.515
 3304POPC   C3A43973  34.465  38.266   6.898
 3304POPC   C4A43974  34.321  38.583   7.156
 3304POPC   C1B43975  34.878  38.558   6.115
 3304POPC   C2B43976  35.031  38.660   6.553
 3304POPC   C3B43977  34.839  38.617   6.951
 3304POPC   C4B43978  34.808  38.689   7.396
 3305POPC   NC343979  44.061  27.317   5.362
 3305POPC   PO443980  44.778  27.505   5.276
 3305POPC   GL143981  44.796  27.458   5.709
 3305POPC   GL243982  44.491  27.288   5.687
 3305POPC   C1A43983  44.849  27.688   6.102
 3305POPC   D2A43984  44.619  27.793   6.486
 3305POPC   C3A43985  44.752  27.632   6.890
 3305POPC   C4A43986  44.597  27.727   7.312
 3305POPC   C1B43987  44.416  27.384   6.123
 3305POPC   C2B43988  44.423  27.326   6.570
 3305POPC   C3B43989  44.324  27.400   7.033
 3305POPC   C4B43990  44.402  27.266   7.499
 3306POPC   NC343991   9.313  34.007   5.118
 3306POPC   PO443992   8.799  33.691   5.380
 3306POPC   GL143993   8.811  33.944   5.778
 3306POPC   GL243994   8.833  33.609   5.911
 3306POPC   C1A43995   9.081  33.984   6.182
 3306POPC   D2A43996   9.103  33.715   6.554
 3306POPC   C3A43997   9.182  33.977   6.887
 3306POPC   C4A43998   9.101  34.091   7.291
 3306POPC   C1B43999   8.872  33.349   6.264
 3306POPC   C2B44000   8.675  33.210   6.626
 3306POPC   C3B44001   8.607  33.382   6.999
 3306POPC   C4B44002   8.876  33.658   7.157
 3307POPC   NC344003  16.756  30.418   5.054
 3307POPC   PO444004  16.477  30.918   5.410
 3307POPC   GL144005  16.727  30.813   5.819
 3307POPC   GL244006  16.457  30.690   5.978
 3307POPC   C1A44007  16.823  30.690   6.312
 3307POPC   D2A44008  16.555  30.717   6.706
 3307POPC   C3A44009  16.730  30.639   7.131
 3307POPC   C4A44010  17.136  30.656   7.348
 3307POPC   C1B44011  16.448  30.349   6.305
 3307POPC   C2B44012  16.624  30.214   6.725
 3307POPC   C3B44013  16.698  30.106   7.146
 3307POPC   C4B44014  16.363  30.005   7.458
 3308POPC   NC344015  27.689  36.011   5.276
 3308POPC   PO444016  27.802  36.665   5.440
 3308POPC   GL144017  27.634  36.328   5.729
 3308POPC   GL244018  27.551  35.965   5.775
 3308POPC   C1A44019  27.450  36.322   6.132
 3308POPC   D2A44020  27.539  36.427   6.553
 3308POPC   C3A44021  27.200  36.305   6.819
 3308POPC   C4A44022  27.137  36.236   7.256
 3308POPC   C1B44023  27.648  35.833   6.225
 3308POPC   C2B44024  27.493  35.884   6.667
 3308POPC   C3B44025  27.693  35.791   7.076
 3308POPC   C4B44026  27.743  35.579   7.496
 3309POPC   NC344027  11.018   7.529   5.559
 3309POPC   PO444028  11.670   7.293   5.464
 3309POPC   GL144029  11.361   7.294   5.859
 3309POPC   GL244030  11.265   7.601   6.009
 3309POPC   C1A44031  11.158   7.180   6.299
 3309POPC   D2A44032  11.364   7.177   6.708
 3309POPC   C3A44033  11.118   7.076   7.075
 3309POPC   C4A44034  11.143   7.125   7.558
 3309POPC   C1B44035  10.933   7.628   6.286
 3309POPC   C2B44036  10.984   7.518   6.689
 3309POPC   C3B44037  11.237   7.588   7.027
 3309POPC   C4B44038  10.913   7.497   7.271
 3310POPC   NC344039  41.724  33.390   5.384
 3310POPC   PO444040  41.364  32.951   5.513
 3310POPC   GL144041  41.668  33.072   5.806
 3310POPC   GL244042  41.477  33.298   5.972
 3310POPC   C1A44043  41.699  32.862   6.177
 3310POPC   D2A44044  41.857  32.786   6.586
 3310POPC   C3A44045  41.676  32.742   6.974
 3310POPC   C4A44046  41.675  33.056   7.272
 3310POPC   C1B44047  41.293  33.128   6.341
 3310POPC   C2B44048  41.389  33.133   6.767
 3310POPC   C3B44049  41.364  33.428   7.070
 3310POPC   C4B44050  41.185  33.126   7.305
 3311POPC   NC344051  14.234  23.992   5.437
 3311POPC   PO444052  14.730  23.555   5.480
 3311POPC   GL144053  14.539  23.758   5.843
 3311POPC   GL244054  14.233  23.827   5.913
 3311POPC   C1A44055  14.607  23.981   6.255
 3311POPC   D2A44056  14.551  24.184   6.656
 3311POPC   C3A44057  14.394  23.992   7.032
 3311POPC   C4A44058  14.481  24.021   7.464
 3311POPC   C1B44059  14.274  23.554   6.268
 3311POPC   C2B44060  14.196  23.402   6.680
 3311POPC   C3B44061  14.236  23.164   7.050
 3311POPC   C4B44062  14.375  23.200   7.505
 3312POPC   NC344063  32.536  16.517   4.967
 3312POPC   PO444064  32.362  16.174   5.498
 3312POPC   GL144065  32.332  16.032   5.927
 3312POPC   GL244066  31.991  15.928   5.949
 3312POPC   C1A44067  32.443  15.892   6.359
 3312POPC   D2A44068  32.418  16.044   6.791
 3312POPC   C3A44069  32.067  15.960   7.073
 3312POPC   C4A44070  32.044  16.073   7.531
 3312POPC   C1B44071  32.024  15.615   6.281
 3312POPC   C2B44072  32.163  15.586   6.706
 3312POPC   C3B44073  32.026  15.416   7.106
 3312POPC   C4B44074  31.834  15.588   7.484
 3313POPC   NC344075   0.611   9.210   5.417
 3313POPC   PO444076   0.007   8.982   5.670
 3313POPC   GL144077   0.379   9.009   5.840
 3313POPC   GL244078   0.512   8.761   5.643
 3313POPC   C1A44079   0.460   9.080   6.289
 3313POPC   D2A44080   0.133   9.001   6.590
 3313POPC   C3A44081   0.226   9.149   6.999
 3313POPC   C4A44082   0.606   9.112   7.268
 3313POPC   C1B44083   0.551   8.603   6.059
 3313POPC   C2B44084   0.491   8.563   6.497
 3313POPC   C3B44085   0.543   8.789   6.854
 3313POPC   C4B44086   0.458   8.627   7.265
 3314POPC   NC344087  27.011  23.595   5.549
 3314POPC   PO444088  26.419  23.205   5.774
 3314POPC   GL144089  26.764  23.405   5.968
 3314POPC   GL244090  26.728  23.766   5.949
 3314POPC   C1A44091  26.907  23.477   6.379
 3314POPC   D2A44092  26.742  23.805   6.633
 3314POPC   C3A44093  26.592  23.672   6.998
 3314POPC   C4A44094  26.951  23.423   7.089
 3314POPC   C1B44095  27.096  23.908   6.174
 3314POPC   C2B44096  27.266  23.842   6.570
 3314POPC   C3B44097  27.110  23.959   6.982
 3314POPC   C4B44098  26.866  23.900   7.345
 3315POPC   NC344099  34.806  32.087   5.309
 3315POPC   PO444100  34.461  32.642   5.103
 3315POPC   GL144101  34.555  32.546   5.593
 3315POPC   GL244102  34.441  32.222   5.723
 3315POPC   C1A44103  34.601  32.608   6.069
 3315POPC   D2A44104  34.729  32.397   6.476
 3315POPC   C3A44105  34.555  32.538   6.835
 3315POPC   C4A44106  34.595  32.419   7.247
 3315POPC   C1B44107  34.632  32.073   6.087
 3315POPC   C2B44108  34.533  31.913   6.495
 3315POPC   C3B44109  34.548  32.023   6.897
 3315POPC   C4B44110  34.880  31.962   7.149
 3316POPC   NC344111  23.617  34.544   5.469
 3316POPC   PO444112  24.035  35.013   5.691
 3316POPC   GL144113  23.787  34.762   5.915
 3316POPC   GL244114  23.807  34.391   5.918
 3316POPC   C1A44115  23.769  34.751   6.349
 3316POPC   D2A44116  23.932  34.534   6.670
 3316POPC   C3A44117  23.880  34.746   7.060
 3316POPC   C4A44118  23.860  34.812   7.515
 3316POPC   C1B44119  23.431  34.433   6.134
 3316POPC   C2B44120  23.408  34.443   6.552
 3316POPC   C3B44121  23.510  34.407   6.958
 3316POPC   C4B44122  23.422  34.600   7.345
 3317POPC   NC344123  39.339   2.677   5.017
 3317POPC   PO444124  39.068   2.583   5.608
 3317POPC   GL144125  39.247   2.736   5.945
 3317POPC   GL244126  38.944   2.937   5.989
 3317POPC   C1A44127  39.253   2.924   6.376
 3317POPC   D2A44128  38.885   2.986   6.651
 3317POPC   C3A44129  39.006   2.840   7.051
 3317POPC   C4A44130  39.406   2.711   7.213
 3317POPC   C1B44131  38.877   2.587   6.269
 3317POPC   C2B44132  38.655   2.536   6.631
 3317POPC   C3B44133  38.736   2.401   7.013
 3317POPC   C4B44134  38.986   2.409   7.351
 3318POPC   NC344135   5.729   9.799   5.139
 3318POPC   PO444136   5.964   9.588   5.705
 3318POPC   GL144137   5.574   9.685   5.858
 3318POPC   GL244138   5.391   9.366   5.888
 3318POPC   C1A44139   5.424   9.936   6.223
 3318POPC   D2A44140   5.368  10.107   6.664
 3318POPC   C3A44141   5.695  10.041   7.008
 3318POPC   C4A44142   6.123  10.087   7.223
 3318POPC   C1B44143   5.594   9.424   6.297
 3318POPC   C2B44144   5.941   9.666   6.493
 3318POPC   C3B44145   6.033   9.663   6.929
 3318POPC   C4B44146   5.657   9.509   7.124
 3319POPC   NC344147  28.117  10.382   5.395
 3319POPC   PO444148  27.710   9.975   5.716
 3319POPC   GL144149  28.092  10.245   5.892
 3319POPC   GL244150  28.460  10.351   5.812
 3319POPC   C1A44151  28.196  10.535   6.248
 3319POPC   D2A44152  28.352  10.767   6.627
 3319POPC   C3A44153  28.456  10.659   7.059
 3319POPC   C4A44154  28.348  10.374   7.406
 3319POPC   C1B44155  28.675  10.345   6.238
 3319POPC   C2B44156  28.782  10.444   6.698
 3319POPC   C3B44157  28.817  10.275   7.149
 3319POPC   C4B44158  28.787  10.198   7.639
 3320POPC   NC344159  23.233  29.055   5.450
 3320POPC   PO444160  22.718  29.447   5.502
 3320POPC   GL144161  22.823  29.055   5.747
 3320POPC   GL244162  23.070  29.272   5.890
 3320POPC   C1A44163  23.013  28.844   6.157
 3320POPC   D2A44164  22.979  29.057   6.567
 3320POPC   C3A44165  23.107  28.919   6.982
 3320POPC   C4A44166  22.991  28.832   7.399
 3320POPC   C1B44167  22.728  29.307   6.177
 3320POPC   C2B44168  22.639  29.452   6.579
 3320POPC   C3B44169  22.875  29.395   6.949
 3320POPC   C4B44170  22.757  29.282   7.327
 3321POPC   NC344171   5.272  44.258   5.444
 3321POPC   PO444172   4.951  44.919   5.437
 3321POPC   GL144173   4.957  44.613   5.755
 3321POPC   GL244174   4.750  44.278   5.722
 3321POPC   C1A44175   5.167  44.726   6.176
 3321POPC   D2A44176   5.269  44.748   6.639
 3321POPC   C3A44177   5.278  44.872   7.076
 3321POPC   C4A44178   5.171  44.830   7.538
 3321POPC   C1B44179   5.025  44.222   6.087
 3321POPC   C2B44180   4.945  44.370   6.504
 3321POPC   C3B44181   5.100  44.353   6.919
 3321POPC   C4B44182   4.888  44.517   7.244
 3322POPC   NC344183  25.002  26.989   5.180
 3322POPC   PO444184  25.313  26.416   5.467
 3322POPC   GL144185  25.169  26.728   5.815
 3322POPC   GL244186  25.017  27.044   5.696
 3322POPC   C1A44187  25.342  26.840   6.247
 3322POPC   D2A44188  25.509  26.641   6.657
 3322POPC   C3A44189  25.357  26.807   7.077
 3322POPC   C4A44190  25.543  26.894   7.516
 3322POPC   C1B44191  24.865  27.098   6.134
 3322POPC   C2B44192  25.027  27.072   6.580
 3322POPC   C3B44193  25.048  27.240   7.003
 3322POPC   C4B44194  25.127  27.128   7.414
 3323POPC   NC344195   9.585   8.769   5.197
 3323POPC   PO444196  10.052   9.209   5.233
 3323POPC   GL144197   9.987   9.150   5.694
 3323POPC   GL244198   9.659   9.299   5.745
 3323POPC   C1A44199   9.825   8.968   6.113
 3323POPC   D2A44200   9.589   8.991   6.533
 3323POPC   C3A44201   9.780   8.877   6.903
 3323POPC   C4A44202   9.864   8.996   7.288
 3323POPC   C1B44203   9.523   9.365   6.162
 3323POPC   C2B44204   9.372   9.569   6.509
 3323POPC   C3B44205   9.341   9.421   6.909
 3323POPC   C4B44206   9.574   9.407   7.287
 3324POPC   NC344207  25.693  44.018   5.337
 3324POPC   PO444208  26.289  43.666   5.363
 3324POPC   GL144209  26.206  43.858   5.793
 3324POPC   GL244210  25.856  43.860   5.796
 3324POPC   C1A44211  26.104  44.144   6.180
 3324POPC   D2A44212  25.955  44.341   6.599
 3324POPC   C3A44213  26.086  44.171   7.043
 3324POPC   C4A44214  26.090  43.846   7.418
 3324POPC   C1B44215  25.911  43.663   6.222
 3324POPC   C2B44216  26.013  43.806   6.646
 3324POPC   C3B44217  25.768  43.768   7.009
 3324POPC   C4B44218  25.685  43.555   7.418
 3325POPC   NC344219  27.871  43.265   5.442
 3325POPC   PO444220  27.308  42.832   5.540
 3325POPC   GL144221  27.458  43.036   5.892
 3325POPC   GL244222  27.732  43.225   5.969
 3325POPC   C1A44223  27.506  42.828   6.275
 3325POPC   D2A44224  27.687  42.771   6.694
 3325POPC   C3A44225  27.516  43.110   6.929
 3325POPC   C4A44226  27.417  43.358   7.276
 3325POPC   C1B44227  27.716  43.276   6.433
 3325POPC   C2B44228  27.566  43.605   6.719
 3325POPC   C3B44229  27.861  43.562   7.035
 3325POPC   C4B44230  27.900  43.204   7.243
 3326POPC   NC344231  21.965  34.888   5.044
 3326POPC   PO444232  21.742  34.389   5.426
 3326POPC   GL144233  22.040  34.536   5.794
 3326POPC   GL244234  22.395  34.378   5.780
 3326POPC   C1A44235  22.142  34.348   6.222
 3326POPC   D2A44236  22.386  34.412   6.586
 3326POPC   C3A44237  22.228  34.474   6.972
 3326POPC   C4A44238  21.968  34.442   7.298
 3326POPC   C1B44239  22.641  34.211   6.167
 3326POPC   C2B44240  22.663  33.986   6.591
 3326POPC   C3B44241  22.666  34.197   7.008
 3326POPC   C4B44242  22.499  34.341   7.414
 3327POPC   NC344243  27.823  23.628   5.274
 3327POPC   PO444244  27.376  24.068   5.474
 3327POPC   GL144245  27.564  23.728   5.753
 3327POPC   GL244246  27.894  23.516   5.761
 3327POPC   C1A44247  27.679  23.718   6.196
 3327POPC   D2A44248  27.771  24.014   6.527
 3327POPC   C3A44249  27.623  23.881   6.940
 3327POPC   C4A44250  27.405  23.615   7.221
 3327POPC   C1B44251  28.122  23.392   6.135
 3327POPC   C2B44252  28.013  23.498   6.544
 3327POPC   C3B44253  27.744  23.366   6.855
 3327POPC   C4B44254  27.912  23.547   7.211
 3328POPC   NC344255  12.318   2.936   5.391
 3328POPC   PO444256  11.697   2.771   5.485
 3328POPC   GL144257  12.019   2.806   5.801
 3328POPC   GL244258  11.963   3.114   5.977
 3328POPC   C1A44259  11.938   2.636   6.229
 3328POPC   D2A44260  12.117   2.664   6.681
 3328POPC   C3A44261  12.042   2.405   7.054
 3328POPC   C4A44262  11.695   2.381   7.372
 3328POPC   C1B44263  12.287   2.992   6.284
 3328POPC   C2B44264  12.233   3.166   6.687
 3328POPC   C3B44265  12.470   3.013   7.033
 3328POPC   C4B44266  12.522   2.595   7.145
 3329POPC   NC344267   3.773  25.868   5.458
 3329POPC   PO444268   3.349  26.359   5.355
 3329POPC   GL144269   3.322  26.115   5.751
 3329POPC   GL244270   3.590  25.963   5.917
 3329POPC   C1A44271   3.319  26.276   6.190
 3329POPC   D2A44272   3.550  26.087   6.494
 3329POPC   C3A44273   3.368  25.846   6.826
 3329POPC   C4A44274   3.281  26.116   7.196
 3329POPC   C1B44275   3.927  25.836   6.202
 3329POPC   C2B44276   3.994  25.903   6.639
 3329POPC   C3B44277   3.808  26.043   6.998
 3329POPC   C4B44278   3.669  25.825   7.339
 3330POPC   NC344279  31.536  44.219   5.480
 3330POPC   PO444280  31.173  44.732   5.124
 3330POPC   GL144281  31.220  44.614   5.618
 3330POPC   GL244282  31.585  44.627   5.796
 3330POPC   C1A44283  31.175  44.613   6.103
 3330POPC   D2A44284  31.435  44.754   6.467
 3330POPC   C3A44285  31.718  44.804   6.804
 3330POPC   C4A44286  31.704  44.837   7.233
 3330POPC   C1B44287  31.594  44.314   6.161
 3330POPC   C2B44288  31.438  44.266   6.594
 3330POPC   C3B44289  31.341  44.480   6.970
 3330POPC   C4B44290  31.683  44.317   7.166
 3331POPC   NC344291  18.703   8.829   5.515
 3331POPC   PO444292  18.141   9.048   5.195
 3331POPC   GL144293  18.283   9.100   5.707
 3331POPC   GL244294  18.609   9.192   5.874
 3331POPC   C1A44295  18.304   8.959   6.218
 3331POPC   D2A44296  18.129   8.966   6.674
 3331POPC   C3A44297  18.309   8.939   7.102
 3331POPC   C4A44298  18.334   9.249   7.434
 3331POPC   C1B44299  18.765   9.171   6.304
 3331POPC   C2B44300  18.645   9.038   6.711
 3331POPC   C3B44301  18.754   9.194   7.128
 3331POPC   C4B44302  18.651   9.630   7.302
 3332POPC   NC344303  32.530  32.602   5.149
 3332POPC   PO444304  32.121  32.241   5.550
 3332POPC   GL144305  32.124  32.071   5.922
 3332POPC   GL244306  32.478  32.188   5.949
 3332POPC   C1A44307  32.204  32.071   6.343
 3332POPC   D2A44308  32.538  32.167   6.561
 3332POPC   C3A44309  32.333  32.283   6.884
 3332POPC   C4A44310  32.115  32.129   7.220
 3332POPC   C1B44311  32.327  32.553   6.243
 3332POPC   C2B44312  32.426  32.752   6.608
 3332POPC   C3B44313  32.486  32.737   7.029
 3332POPC   C4B44314  32.550  32.442   7.313
 3333POPC   NC344315  35.258  36.511   5.628
 3333POPC   PO444316  35.247  37.069   5.224
 3333POPC   GL144317  35.349  37.149   5.688
 3333POPC   GL244318  35.624  36.912   5.758
 3333POPC   C1A44319  35.264  36.972   6.131
 3333POPC   D2A44320  35.059  36.778   6.514
 3333POPC   C3A44321  35.271  36.901   6.922
 3333POPC   C4A44322  35.232  37.096   7.322
 3333POPC   C1B44323  35.648  36.623   6.121
 3333POPC   C2B44324  35.579  36.722   6.523
 3333POPC   C3B44325  35.629  36.540   6.886
 3333POPC   C4B44326  35.515  36.556   7.293
 3334POPC   NC344327  21.555  43.612   5.423
 3334POPC   PO444328  21.700  42.918   5.476
 3334POPC   GL144329  21.356  43.101   5.742
 3334POPC   GL244330  21.204  42.768   5.777
 3334POPC   C1A44331  21.284  43.371   6.150
 3334POPC   D2A44332  21.345  43.575   6.582
 3334POPC   C3A44333  21.355  43.366   6.961
 3334POPC   C4A44334  21.074  43.078   7.095
 3334POPC   C1B44335  21.475  42.876   6.184
 3334POPC   C2B44336  21.496  42.983   6.629
 3334POPC   C3B44337  21.456  42.745   7.019
 3334POPC   C4B44338  21.141  42.625   7.370
 3335POPC   NC344339   6.889   5.686   5.492
 3335POPC   PO444340   6.289   6.150   5.505
 3335POPC   GL144341   6.593   5.976   5.799
 3335POPC   GL244342   6.412   5.674   5.740
 3335POPC   C1A44343   6.770   5.908   6.239
 3335POPC   D2A44344   6.458   6.039   6.557
 3335POPC   C3A44345   6.612   6.184   6.946
 3335POPC   C4A44346   6.898   5.990   7.223
 3335POPC   C1B44347   6.344   5.641   6.163
 3335POPC   C2B44348   6.477   5.520   6.573
 3335POPC   C3B44349   6.742   5.633   6.894
 3335POPC   C4B44350   6.863   5.485   7.287
 3336POPC   NC344351  22.751  23.412   5.402
 3336POPC   PO444352  23.184  23.919   5.463
 3336POPC   GL144353  23.086  23.621   5.757
 3336POPC   GL244354  22.789  23.762   5.886
 3336POPC   C1A44355  23.139  23.467   6.171
 3336POPC   D2A44356  22.923  23.490   6.563
 3336POPC   C3A44357  23.011  23.713   6.930
 3336POPC   C4A44358  23.153  23.759   7.329
 3336POPC   C1B44359  22.859  23.933   6.325
 3336POPC   C2B44360  22.615  23.999   6.727
 3336POPC   C3B44361  22.601  23.954   7.194
 3336POPC   C4B44362  22.845  24.126   7.533
 3337POPC   NC344363  36.642  18.875   5.178
 3337POPC   PO444364  36.096  18.881   5.616
 3337POPC   GL144365  36.158  19.133   5.930
 3337POPC   GL244366  35.907  19.329   6.053
 3337POPC   C1A44367  36.379  19.002   6.270
 3337POPC   D2A44368  36.309  19.101   6.695
 3337POPC   C3A44369  36.288  18.899   7.114
 3337POPC   C4A44370  36.354  18.931   7.596
 3337POPC   C1B44371  35.890  18.919   6.324
 3337POPC   C2B44372  35.895  18.813   6.757
 3337POPC   C3B44373  35.745  19.039   7.090
 3337POPC   C4B44374  35.987  19.262   7.384
 3338POPC   NC344375  11.643  11.403   4.980
 3338POPC   PO444376  11.214  11.205   5.446
 3338POPC   GL144377  11.229  11.379   5.861
 3338POPC   GL244378  11.586  11.346   5.946
 3338POPC   C1A44379  11.306  11.557   6.293
 3338POPC   D2A44380  11.466  11.314   6.644
 3338POPC   C3A44381  11.356  11.495   7.056
 3338POPC   C4A44382  11.251  11.285   7.455
 3338POPC   C1B44383  11.737  11.059   6.263
 3338POPC   C2B44384  11.745  10.833   6.651
 3338POPC   C3B44385  11.656  10.901   7.071
 3338POPC   C4B44386  11.657  10.846   7.525
 3339POPC   NC344387  30.774  41.959   5.486
 3339POPC   PO444388  31.008  41.354   5.470
 3339POPC   GL144389  30.745  41.505   5.849
 3339POPC   GL244390  30.834  41.789   5.960
 3339POPC   C1A44391  30.544  41.555   6.290
 3339POPC   D2A44392  30.746  41.636   6.696
 3339POPC   C3A44393  30.487  41.749   7.022
 3339POPC   C4A44394  30.469  41.542   7.404
 3339POPC   C1B44395  30.956  41.953   6.348
 3339POPC   C2B44396  31.253  41.833   6.670
 3339POPC   C3B44397  31.204  41.746   7.093
 3339POPC   C4B44398  30.866  41.839   7.349
 3340POPC   NC344399  23.359   3.321   5.459
 3340POPC   PO444400  23.773   3.776   5.521
 3340POPC   GL144401  23.586   3.555   5.848
 3340POPC   GL244402  23.703   3.218   5.830
 3340POPC   C1A44403  23.375   3.427   6.212
 3340POPC   D2A44404  23.450   3.282   6.630
 3340POPC   C3A44405  23.698   3.635   6.791
 3340POPC   C4A44406  23.848   3.603   7.203
 3340POPC   C1B44407  23.893   3.307   6.261
 3340POPC   C2B44408  23.958   3.199   6.720
 3340POPC   C3B44409  23.695   3.125   7.099
 3340POPC   C4B44410  23.761   3.164   7.575
 3341POPC   NC344411  28.392  39.624   5.341
 3341POPC   PO444412  28.028  39.066   5.388
 3341POPC   GL144413  28.317  39.262   5.713
 3341POPC   GL244414  28.618  39.084   5.817
 3341POPC   C1A44415  28.358  39.415   6.158
 3341POPC   D2A44416  27.995  39.403   6.463
 3341POPC   C3A44417  28.055  39.299   6.894
 3341POPC   C4A44418  28.447  39.396   7.016
 3341POPC   C1B44419  28.654  38.964   6.226
 3341POPC   C2B44420  28.450  39.114   6.579
 3341POPC   C3B44421  28.386  38.905   6.946
 3341POPC   C4B44422  28.702  38.935   7.217
 3342POPC   NC344423  27.642  44.046   5.415
 3342POPC   PO444424  27.472  43.460   5.573
 3342POPC   GL144425  27.691  43.735   5.825
 3342POPC   GL244426  27.469  44.068   5.916
 3342POPC   C1A44427  27.696  43.751   6.244
 3342POPC   D2A44428  27.695  44.138   6.507
 3342POPC   C3A44429  27.756  44.082   6.945
 3342POPC   C4A44430  27.481  43.846   7.170
 3342POPC   C1B44431  27.242  43.957   6.350
 3342POPC   C2B44432  27.244  44.128   6.805
 3342POPC   C3B44433  27.356  44.330   7.226
 3342POPC   C4B44434  27.306  44.396   7.717
 3343POPC   NC344435  37.489   7.267   5.411
 3343POPC   PO444436  37.760   7.953   5.383
 3343POPC   GL144437  37.560   7.666   5.738
 3343POPC   GL244438  37.701   7.352   5.888
 3343POPC   C1A44439  37.469   7.696   6.194
 3343POPC   D2A44440  37.617   7.736   6.608
 3343POPC   C3A44441  37.615   7.464   6.953
 3343POPC   C4A44442  37.540   7.197   7.273
 3343POPC   C1B44443  37.970   7.460   6.255
 3343POPC   C2B44444  38.162   7.264   6.626
 3343POPC   C3B44445  38.042   7.205   7.038
 3343POPC   C4B44446  37.942   7.470   7.396
 3344POPC   NC344447   3.707  16.746   5.097
 3344POPC   PO444448   3.194  17.057   5.371
 3344POPC   GL144449   3.317  16.952   5.807
 3344POPC   GL244450   3.591  16.681   5.836
 3344POPC   C1A44451   3.182  16.934   6.253
 3344POPC   D2A44452   3.198  17.129   6.683
 3344POPC   C3A44453   3.285  16.853   6.984
 3344POPC   C4A44454   3.635  16.621   7.138
 3344POPC   C1B44455   3.637  16.556   6.306
 3344POPC   C2B44456   3.859  16.391   6.715
 3344POPC   C3B44457   4.074  16.375   7.163
 3344POPC   C4B44458   3.996  16.402   7.658
 3345POPC   NC344459  19.186  41.892   5.157
 3345POPC   PO444460  18.568  41.790   5.275
 3345POPC   GL144461  18.775  41.804   5.737
 3345POPC   GL244462  18.886  41.490   5.823
 3345POPC   C1A44463  18.907  41.894   6.210
 3345POPC   D2A44464  18.849  41.844   6.696
 3345POPC   C3A44465  19.192  41.735   7.016
 3345POPC   C4A44466  19.214  41.674   7.504
 3345POPC   C1B44467  19.003  41.392   6.253
 3345POPC   C2B44468  18.777  41.337   6.654
 3345POPC   C3B44469  18.712  41.312   7.086
 3345POPC   C4B44470  18.911  41.018   7.352
 3346POPC   NC344471  25.953  28.182   5.152
 3346POPC   PO444472  26.444  28.581   5.397
 3346POPC   GL144473  26.271  28.497   5.795
 3346POPC   GL244474  25.979  28.270   5.775
 3346POPC   C1A44475  26.120  28.557   6.199
 3346POPC   D2A44476  26.101  28.293   6.526
 3346POPC   C3A44477  26.110  28.482   6.900
 3346POPC   C4A44478  26.265  28.328   7.273
 3346POPC   C1B44479  25.657  28.366   6.128
 3346POPC   C2B44480  25.681  28.553   6.554
 3346POPC   C3B44481  25.618  28.315   6.904
 3346POPC   C4B44482  25.765  28.306   7.300
 3347POPC   NC344483  42.275  16.508   5.388
 3347POPC   PO444484  42.722  17.053   5.362
 3347POPC   GL144485  42.402  16.925   5.670
 3347POPC   GL244486  42.402  16.657   5.840
 3347POPC   C1A44487  42.155  17.058   6.052
 3347POPC   D2A44488  42.012  17.095   6.483
 3347POPC   C3A44489  42.186  16.802   6.803
 3347POPC   C4A44490  42.098  16.739   7.239
 3347POPC   C1B44491  42.266  16.549   6.244
 3347POPC   C2B44492  42.465  16.413   6.611
 3347POPC   C3B44493  42.525  16.278   7.012
 3347POPC   C4B44494  42.606  16.634   7.284
 3348POPC   NC344495  30.115  40.605   4.933
 3348POPC   PO444496  30.079  40.984   5.497
 3348POPC   GL144497  29.893  40.834   5.879
 3348POPC   GL244498  30.239  40.775   5.951
 3348POPC   C1A44499  29.896  40.581   6.302
 3348POPC   D2A44500  29.711  40.346   6.689
 3348POPC   C3A44501  29.644  40.574   7.114
 3348POPC   C4A44502  29.880  40.866   7.423
 3348POPC   C1B44503  30.141  41.161   6.184
 3348POPC   C2B44504  30.154  40.948   6.546
 3348POPC   C3B44505  30.097  40.929   6.963
 3348POPC   C4B44506  30.352  40.772   7.252
 3349POPC   NC344507  28.895  30.148   5.449
 3349POPC   PO444508  29.594  30.003   5.379
 3349POPC   GL144509  29.302  29.823   5.705
 3349POPC   GL244510  29.008  29.590   5.833
 3349POPC   C1A44511  29.140  30.035   6.078
 3349POPC   D2A44512  29.022  29.953   6.490
 3349POPC   C3A44513  29.325  30.024   6.825
 3349POPC   C4A44514  29.451  29.936   7.246
 3349POPC   C1B44515  28.683  29.722   6.171
 3349POPC   C2B44516  28.584  29.709   6.635
 3349POPC   C3B44517  28.845  29.911   6.988
 3349POPC   C4B44518  28.965  29.902   7.442
 3350POPC   NC344519   2.832  28.984   5.445
 3350POPC   PO444520   2.229  29.381   5.311
 3350POPC   GL144521   2.411  29.456   5.743
 3350POPC   GL244522   2.784  29.428   5.736
 3350POPC   C1A44523   2.538  29.283   6.176
 3350POPC   D2A44524   2.563  28.875   6.460
 3350POPC   C3A44525   2.475  28.929   6.908
 3350POPC   C4A44526   2.486  29.355   7.044
 3350POPC   C1B44527   3.067  29.329   6.113
 3350POPC   C2B44528   3.199  29.184   6.524
 3350POPC   C3B44529   2.967  29.056   6.869
 3350POPC   C4B44530   3.002  29.362   7.151
 3351POPC   NC344531  15.381  16.484   5.610
 3351POPC   PO444532  15.071  17.102   5.456
 3351POPC   GL144533  15.149  16.848   5.857
 3351POPC   GL244534  14.988  16.539   5.938
 3351POPC   C1A44535  15.398  16.670   6.228
 3351POPC   D2A44536  15.326  16.492   6.611
 3351POPC   C3A44537  15.338  16.689   6.993
 3351POPC   C4A44538  15.455  16.465   7.313
 3351POPC   C1B44539  14.885  16.860   6.270
 3351POPC   C2B44540  14.963  16.896   6.664
 3351POPC   C3B44541  14.774  16.801   7.029
 3351POPC   C4B44542  14.914  16.672   7.377
 3352POPC   NC344543  44.500  22.362   5.276
 3352POPC   PO444544  44.875  21.842   5.285
 3352POPC   GL144545  44.849  22.061   5.704
 3352POPC   GL244546  44.516  22.242   5.779
 3352POPC   C1A44547  44.787  22.033   6.166
 3352POPC   D2A44548  44.805  22.293   6.545
 3352POPC   C3A44549  44.806  22.134   6.968
 3352POPC   C4A44550  44.659  21.787   7.194
 3352POPC   C1B44551  44.469  22.483   6.169
 3352POPC   C2B44552  44.508  22.711   6.564
 3352POPC   C3B44553  44.475  22.527   6.956
 3352POPC   C4B44554  44.174  22.515   7.307
 3353POPC   NC344555  38.728  23.306   5.077
 3353POPC   PO444556  38.595  22.756   5.399
 3353POPC   GL144557  38.547  22.773   5.844
 3353POPC   GL244558  38.432  23.115   5.886
 3353POPC   C1A44559  38.553  22.833   6.298
 3353POPC   D2A44560  38.281  22.838   6.656
 3353POPC   C3A44561  38.536  22.690   7.006
 3353POPC   C4A44562  38.829  22.580   7.334
 3353POPC   C1B44563  38.272  23.258   6.300
 3353POPC   C2B44564  38.410  23.335   6.728
 3353POPC   C3B44565  38.330  23.137   7.129
 3353POPC   C4B44566  38.211  23.245   7.574
 3354POPC   NC344567  16.572  37.518   5.279
 3354POPC   PO444568  17.078  37.913   5.405
 3354POPC   GL144569  16.697  37.828   5.732
 3354POPC   GL244570  16.483  37.485   5.767
 3354POPC   C1A44571  16.576  37.816   6.193
 3354POPC   D2A44572  16.666  37.994   6.570
 3354POPC   C3A44573  16.741  37.802   6.895
 3354POPC   C4A44574  16.434  37.920   7.179
 3354POPC   C1B44575  16.738  37.357   6.102
 3354POPC   C2B44576  16.615  37.390   6.534
 3354POPC   C3B44577  16.448  37.412   6.945
 3354POPC   C4B44578  16.681  37.504   7.329
 3355POPC   NC344579  20.369  44.932   5.544
 3355POPC   PO444580  20.682  44.472   5.126
 3355POPC   GL144581  20.686  44.526   5.602
 3355POPC   GL244582  20.385  44.366   5.781
 3355POPC   C1A44583  20.752  44.565   6.076
 3355POPC   D2A44584  20.706  44.296   6.467
 3355POPC   C3A44585  20.670  44.528   6.867
 3355POPC   C4A44586  20.793  44.623   7.269
 3355POPC   C1B44587  20.216  44.618   6.159
 3355POPC   C2B44588  20.236  44.489   6.596
 3355POPC   C3B44589  20.176  44.328   6.998
 3355POPC   C4B44590  20.292  44.565   7.334
 3356POPC   NC344591  24.706   9.264   5.598
 3356POPC   PO444592  24.264   8.732   5.424
 3356POPC   GL144593  24.255   8.885   5.921
 3356POPC   GL244594  24.524   9.133   6.074
 3356POPC   C1A44595  24.272   8.813   6.378
 3356POPC   D2A44596  24.355   8.568   6.727
 3356POPC   C3A44597  24.224   8.782   7.040
 3356POPC   C4A44598  24.167   9.216   7.036
 3356POPC   C1B44599  24.792   8.844   6.347
 3356POPC   C2B44600  24.843   8.741   6.754
 3356POPC   C3B44601  24.657   9.042   7.033
 3356POPC   C4B44602  24.670   9.291   7.397
 3357POPC   NC344603  40.450  38.890   5.392
 3357POPC   PO444604  39.857  39.270   5.270
 3357POPC   GL144605  39.921  39.177   5.691
 3357POPC   GL244606  40.232  39.197   5.716
 3357POPC   C1A44607  39.886  39.262   6.129
 3357POPC   D2A44608  39.965  39.475   6.507
 3357POPC   C3A44609  39.919  39.272   6.896
 3357POPC   C4A44610  40.001  39.385   7.317
 3357POPC   C1B44611  40.328  39.036   6.104
 3357POPC   C2B44612  40.436  39.228   6.478
 3357POPC   C3B44613  40.412  39.202   6.894
 3357POPC   C4B44614  40.467  39.080   7.279
 3358POPC   NC344615  41.823  19.699   5.335
 3358POPC   PO444616  41.237  19.453   5.426
 3358POPC   GL144617  41.404  19.699   5.826
 3358POPC   GL244618  41.761  19.730   5.891
 3358POPC   C1A44619  41.457  19.733   6.298
 3358POPC   D2A44620  41.596  19.934   6.708
 3358POPC   C3A44621  41.488  19.676   7.062
 3358POPC   C4A44622  41.203  19.491   7.314
 3358POPC   C1B44623  41.807  20.103   6.233
 3358POPC   C2B44624  42.062  20.287   6.582
 3358POPC   C3B44625  41.895  20.292   6.999
 3358POPC   C4B44626  41.555  20.150   7.221
 3359POPC   NC344627  27.526  31.074   5.431
 3359POPC   PO444628  27.602  31.668   5.504
 3359POPC   GL144629  27.439  31.581   5.918
 3359POPC   GL244630  27.569  31.241   5.937
 3359POPC   C1A44631  27.526  31.496   6.390
 3359POPC   D2A44632  27.735  31.186   6.666
 3359POPC   C3A44633  27.920  31.323   7.094
 3359POPC   C4A44634  28.136  31.648   7.380
 3359POPC   C1B44635  27.336  31.018   6.275
 3359POPC   C2B44636  27.190  31.161   6.648
 3359POPC   C3B44637  27.380  31.158   7.030
 3359POPC   C4B44638  27.262  31.219   7.429
 3360POPC   NC344639  13.618   4.595   4.990
 3360POPC   PO444640  13.527   5.127   5.438
 3360POPC   GL144641  13.558   4.993   5.862
 3360POPC   GL244642  13.695   5.306   5.928
 3360POPC   C1A44643  13.518   4.947   6.303
 3360POPC   D2A44644  13.691   5.046   6.693
 3360POPC   C3A44645  13.449   5.058   7.064
 3360POPC   C4A44646  13.360   4.661   7.256
 3360POPC   C1B44647  13.805   5.382   6.321
 3360POPC   C2B44648  13.740   5.554   6.701
 3360POPC   C3B44649  13.881   5.368   7.045
 3360POPC   C4B44650  13.986   5.193   7.423
 3361POPC   NC344651   4.639  11.493   5.471
 3361POPC   PO444652   4.156  10.976   5.479
 3361POPC   GL144653   4.345  11.211   5.801
 3361POPC   GL244654   4.654  11.051   5.821
 3361POPC   C1A44655   4.338  11.323   6.230
 3361POPC   D2A44656   4.491  11.495   6.634
 3361POPC   C3A44657   4.205  11.503   7.018
 3361POPC   C4A44658   3.933  11.489   7.407
 3361POPC   C1B44659   4.582  10.888   6.233
 3361POPC   C2B44660   4.439  10.966   6.656
 3361POPC   C3B44661   4.571  10.980   7.115
 3361POPC   C4B44662   4.581  10.720   7.518
 3362POPC   NC344663  24.559  15.255   5.273
 3362POPC   PO444664  24.421  14.655   5.538
 3362POPC   GL144665  24.522  15.069   5.782
 3362POPC   GL244666  24.838  15.134   5.970
 3362POPC   C1A44667  24.385  15.225   6.221
 3362POPC   D2A44668  24.512  15.211   6.662
 3362POPC   C3A44669  24.241  15.343   6.999
 3362POPC   C4A44670  24.224  15.410   7.428
 3362POPC   C1B44671  24.671  14.758   6.166
 3362POPC   C2B44672  24.455  14.712   6.533
 3362POPC   C3B44673  24.677  14.804   6.922
 3362POPC   C4B44674  24.535  15.033   7.274
 3363POPC   NC344675   1.813  11.479   5.132
 3363POPC   PO444676   2.363  11.269   5.526
 3363POPC   GL144677   2.042  11.345   5.807
 3363POPC   GL244678   1.735  11.532   5.664
 3363POPC   C1A44679   2.039  11.189   6.235
 3363POPC   D2A44680   2.029  10.988   6.616
 3363POPC   C3A44681   2.037  11.325   6.854
 3363POPC   C4A44682   1.958  11.438   7.249
 3363POPC   C1B44683   1.579  11.293   6.047
 3363POPC   C2B44684   1.619  11.352   6.519
 3363POPC   C3B44685   1.558  11.211   6.968
 3363POPC   C4B44686   1.806  10.949   7.287
 3364POPC   NC344687  33.625  22.070   5.585
 3364POPC   PO444688  34.145  22.465   5.488
 3364POPC   GL144689  34.058  22.277   5.908
 3364POPC   GL244690  33.896  21.941   6.010
 3364POPC   C1A44691  33.936  22.321   6.354
 3364POPC   D2A44692  34.025  22.178   6.760
 3364POPC   C3A44693  33.834  22.427   7.103
 3364POPC   C4A44694  33.946  22.296   7.542
 3364POPC   C1B44695  33.519  22.043   6.341
 3364POPC   C2B44696  33.549  22.080   6.824
 3364POPC   C3B44697  33.774  21.918   7.220
 3364POPC   C4B44698  33.610  21.777   7.646
 3365POPC   NC344699   6.782  13.097   5.417
 3365POPC   PO444700   6.563  12.437   5.402
 3365POPC   GL144701   6.448  12.635   5.791
 3365POPC   GL244702   6.549  12.998   5.872
 3365POPC   C1A44703   6.444  12.642   6.214
 3365POPC   D2A44704   6.453  12.928   6.510
 3365POPC   C3A44705   6.507  12.696   6.865
 3365POPC   C4A44706   6.353  12.797   7.236
 3365POPC   C1B44707   6.891  12.927   6.172
 3365POPC   C2B44708   6.925  13.073   6.595
 3365POPC   C3B44709   6.913  12.971   7.021
 3365POPC   C4B44710   7.146  12.719   7.285
 3366POPC   NC344711   2.547  14.089   5.388
 3366POPC   PO444712   3.044  14.555   5.597
 3366POPC   GL144713   2.951  14.480   6.000
 3366POPC   GL244714   2.924  14.137   5.867
 3366POPC   C1A44715   2.705  14.598   6.374
 3366POPC   D2A44716   2.459  14.478   6.749
 3366POPC   C3A44717   2.587  14.691   7.116
 3366POPC   C4A44718   2.418  14.771   7.541
 3366POPC   C1B44719   2.603  14.135   6.178
 3366POPC   C2B44720   2.391  14.010   6.580
 3366POPC   C3B44721   2.414  14.041   7.022
 3366POPC   C4B44722   2.752  14.224   7.243
 3367POPC   NC344723  27.074  30.679   5.363
 3367POPC   PO444724  27.760  30.681   5.462
 3367POPC   GL144725  27.636  30.745   5.864
 3367POPC   GL244726  27.274  30.781   5.821
 3367POPC   C1A44727  27.758  30.738   6.304
 3367POPC   D2A44728  27.527  30.715   6.685
 3367POPC   C3A44729  27.805  30.816   7.032
 3367POPC   C4A44730  27.722  31.000   7.438
 3367POPC   C1B44731  27.316  30.479   6.161
 3367POPC   C2B44732  27.250  30.250   6.532
 3367POPC   C3B44733  27.208  30.401   6.935
 3367POPC   C4B44734  27.338  30.702   7.238
 3368POPC   NC344735   2.061  14.945   5.193
 3368POPC   PO444736   2.170  14.261   5.211
 3368POPC   GL144737   2.190  14.216   5.740
 3368POPC   GL244738   1.921  14.466   5.941
 3368POPC   C1A44739   2.096  14.073   6.164
 3368POPC   D2A44740   1.871  14.003   6.540
 3368POPC   C3A44741   1.970  14.233   6.903
 3368POPC   C4A44742   1.907  14.030   7.301
 3368POPC   C1B44743   2.173  14.623   6.291
 3368POPC   C2B44744   2.026  14.774   6.685
 3368POPC   C3B44745   2.074  14.706   7.130
 3368POPC   C4B44746   1.729  14.521   7.285
 3369POPC   NC344747  39.710  38.703   5.287
 3369POPC   PO444748  40.379  38.420   5.353
 3369POPC   GL144749  40.090  38.376   5.706
 3369POPC   GL244750  40.032  38.689   5.695
 3369POPC   C1A44751  39.961  38.203   6.107
 3369POPC   D2A44752  40.040  38.384   6.522
 3369POPC   C3A44753  40.107  38.271   6.934
 3369POPC   C4A44754  39.913  38.380   7.306
 3369POPC   C1B44755  39.886  38.737   6.097
 3369POPC   C2B44756  39.969  38.906   6.503
 3369POPC   C3B44757  39.906  38.741   6.908
 3369POPC   C4B44758  40.014  38.870   7.318
 3370POPC   NC344759  23.555   1.588   5.042
 3370POPC   PO444760  23.881   1.975   5.511
 3370POPC   GL144761  23.587   2.064   5.816
 3370POPC   GL244762  23.807   1.999   6.035
 3370POPC   C1A44763  23.453   2.350   6.137
 3370POPC   D2A44764  23.655   2.297   6.528
 3370POPC   C3A44765  23.460   2.240   6.931
 3370POPC   C4A44766  23.481   2.122   7.390
 3370POPC   C1B44767  23.756   1.593   6.189
 3370POPC   C2B44768  23.923   1.544   6.556
 3370POPC   C3B44769  23.791   1.836   6.843
 3370POPC   C4B44770  23.383   1.742   7.046
 3371POPC   NC344771  17.197  33.432   5.480
 3371POPC   PO444772  17.458  32.862   5.111
 3371POPC   GL144773  17.503  32.863   5.647
 3371POPC   GL244774  17.585  33.177   5.769
 3371POPC   C1A44775  17.461  32.885   6.167
 3371POPC   D2A44776  17.663  32.812   6.617
 3371POPC   C3A44777  17.359  32.890   7.014
 3371POPC   C4A44778  17.438  32.840   7.504
 3371POPC   C1B44779  17.629  33.358   6.197
 3371POPC   C2B44780  17.498  33.279   6.644
 3371POPC   C3B44781  17.726  33.231   7.074
 3371POPC   C4B44782  17.564  33.313   7.516
 3372POPC   NC344783  17.534  37.288   5.426
 3372POPC   PO444784  17.584  36.665   5.245
 3372POPC   GL144785  17.605  36.829   5.672
 3372POPC   GL244786  17.269  36.948   5.751
 3372POPC   C1A44787  17.618  36.922   6.124
 3372POPC   D2A44788  17.578  37.183   6.474
 3372POPC   C3A44789  17.706  36.967   6.830
 3372POPC   C4A44790  17.714  36.901   7.260
 3372POPC   C1B44791  17.136  37.065   6.196
 3372POPC   C2B44792  17.088  37.181   6.650
 3372POPC   C3B44793  17.269  37.132   7.099
 3372POPC   C4B44794  17.213  36.827   7.476
 3373POPC   NC344795  14.463  39.895   5.473
 3373POPC   PO444796  13.968  40.200   5.702
 3373POPC   GL144797  14.189  39.859   5.938
 3373POPC   GL244798  14.570  39.810   5.958
 3373POPC   C1A44799  14.265  39.780   6.402
 3373POPC   D2A44800  14.120  40.000   6.783
 3373POPC   C3A44801  14.208  39.830   7.202
 3373POPC   C4A44802  14.655  39.732   7.255
 3373POPC   C1B44803  14.503  40.188   6.184
 3373POPC   C2B44804  14.586  40.184   6.628
 3373POPC   C3B44805  14.538  40.219   7.084
 3373POPC   C4B44806  14.727  40.208   7.503
 3374POPC   NC344807  31.223   9.506   5.383
 3374POPC   PO444808  31.808  10.001   5.348
 3374POPC   GL144809  31.781   9.818   5.784
 3374POPC   GL244810  31.532   9.559   5.800
 3374POPC   C1A44811  31.541   9.850   6.211
 3374POPC   D2A44812  31.368   9.946   6.621
 3374POPC   C3A44813  31.630   9.874   6.974
 3374POPC   C4A44814  31.484   9.942   7.393
 3374POPC   C1B44815  31.363   9.363   6.197
 3374POPC   C2B44816  31.253   9.238   6.622
 3374POPC   C3B44817  31.271   9.343   7.061
 3374POPC   C4B44818  31.621   9.470   7.295
 3375POPC   NC344819  10.901   8.308   5.491
 3375POPC   PO444820  10.366   7.881   5.567
 3375POPC   GL144821  10.585   8.096   5.857
 3375POPC   GL244822  10.887   7.932   5.868
 3375POPC   C1A44823  10.396   8.302   6.218
 3375POPC   D2A44824  10.353   8.525   6.595
 3375POPC   C3A44825  10.418   8.327   6.947
 3375POPC   C4A44826  10.741   8.397   7.217
 3375POPC   C1B44827  10.862   8.118   6.296
 3375POPC   C2B44828  10.721   7.978   6.682
 3375POPC   C3B44829  10.665   7.905   7.109
 3375POPC   C4B44830  10.662   7.778   7.614
 3376POPC   NC344831  21.182  34.111   5.403
 3376POPC   PO444832  21.675  33.640   5.266
 3376POPC   GL144833  21.560  33.636   5.741
 3376POPC   GL244834  21.304  33.851   5.831
 3376POPC   C1A44835  21.419  33.471   6.182
 3376POPC   D2A44836  21.504  33.636   6.614
 3376POPC   C3A44837  21.295  33.514   6.999
 3376POPC   C4A44838  21.376  33.614   7.467
 3376POPC   C1B44839  21.339  33.984   6.246
 3376POPC   C2B44840  21.348  34.153   6.651
 3376POPC   C3B44841  21.383  33.999   7.067
 3376POPC   C4B44842  21.635  34.075   7.403
 3377POPC   NC344843  17.692  40.406   5.617
 3377POPC   PO444844  17.851  39.870   5.254
 3377POPC   GL144845  17.514  39.921   5.620
 3377POPC   GL244846  17.201  39.807   5.743
 3377POPC   C1A44847  17.464  40.030   6.108
 3377POPC   D2A44848  17.269  39.991   6.517
 3377POPC   C3A44849  17.397  40.013   6.950
 3377POPC   C4A44850  17.398  40.236   7.372
 3377POPC   C1B44851  17.140  39.630   6.130
 3377POPC   C2B44852  17.035  39.528   6.532
 3377POPC   C3B44853  16.900  39.799   6.863
 3377POPC   C4B44854  16.986  39.940   7.286
 3378POPC   NC344855   6.506   7.545   5.618
 3378POPC   PO444856   6.746   6.976   5.318
 3378POPC   GL144857   6.865   7.216   5.802
 3378POPC   GL244858   6.809   7.593   5.995
 3378POPC   C1A44859   6.914   7.223   6.291
 3378POPC   D2A44860   6.837   7.651   6.549
 3378POPC   C3A44861   6.649   7.530   6.946
 3378POPC   C4A44862   6.882   7.319   7.287
 3378POPC   C1B44863   6.460   7.496   6.254
 3378POPC   C2B44864   6.264   7.262   6.541
 3378POPC   C3B44865   6.290   7.122   6.965
 3378POPC   C4B44866   6.307   7.356   7.308
 3379POPC   NC344867  29.596   7.022   5.368
 3379POPC   PO444868  28.936   7.091   5.361
 3379POPC   GL144869  29.090   7.318   5.717
 3379POPC   GL244870  28.936   7.636   5.768
 3379POPC   C1A44871  29.416   7.229   6.049
 3379POPC   D2A44872  29.455   7.365   6.477
 3379POPC   C3A44873  29.369   7.073   6.827
 3379POPC   C4A44874  29.253   7.119   7.270
 3379POPC   C1B44875  28.992   7.462   6.208
 3379POPC   C2B44876  28.975   7.351   6.640
 3379POPC   C3B44877  29.036   7.515   7.019
 3379POPC   C4B44878  28.824   7.400   7.357
 3380POPC   NC344879  19.433  37.271   5.453
 3380POPC   PO444880  20.059  36.764   5.561
 3380POPC   GL144881  19.958  36.964   5.900
 3380POPC   GL244882  19.606  36.908   5.885
 3380POPC   C1A44883  20.015  37.038   6.339
 3380POPC   D2A44884  20.045  36.900   6.748
 3380POPC   C3A44885  19.873  37.130   7.091
 3380POPC   C4A44886  20.018  36.874   7.409
 3380POPC   C1B44887  19.758  36.601   6.226
 3380POPC   C2B44888  19.616  36.600   6.663
 3380POPC   C3B44889  19.624  36.680   7.086
 3380POPC   C4B44890  19.722  36.465   7.469
 3381POPC   NC344891  18.479  10.620   5.365
 3381POPC   PO444892  17.852  10.575   5.422
 3381POPC   GL144893  18.143  10.732   5.740
 3381POPC   GL244894  18.424  10.514   5.872
 3381POPC   C1A44895  18.113  10.847   6.168
 3381POPC   D2A44896  18.359  10.819   6.540
 3381POPC   C3A44897  18.337  10.703   6.965
 3381POPC   C4A44898  18.352  10.368   7.249
 3381POPC   C1B44899  18.575  10.395   6.327
 3381POPC   C2B44900  18.514  10.195   6.774
 3381POPC   C3B44901  18.269   9.905   7.099
 3381POPC   C4B44902  18.220   9.969   7.568
 3382POPC   NC344903  20.772  21.328   5.323
 3382POPC   PO444904  20.127  21.189   5.439
 3382POPC   GL144905  20.481  21.187   5.740
 3382POPC   GL244906  20.585  21.496   5.776
 3382POPC   C1A44907  20.654  21.212   6.197
 3382POPC   D2A44908  20.867  21.388   6.567
 3382POPC   C3A44909  20.663  21.229   6.954
 3382POPC   C4A44910  20.528  21.082   7.401
 3382POPC   C1B44911  20.425  21.663   6.175
 3382POPC   C2B44912  20.386  21.545   6.626
 3382POPC   C3B44913  20.510  21.702   7.057
 3382POPC   C4B44914  20.518  21.607   7.509
 3383POPC   NC344915  43.174  23.256   5.519
 3383POPC   PO444916  42.981  22.630   5.373
 3383POPC   GL144917  43.093  22.781   5.768
 3383POPC   GL244918  42.813  23.009   5.777
 3383POPC   C1A44919  43.111  22.893   6.215
 3383POPC   D2A44920  42.922  22.923   6.615
 3383POPC   C3A44921  43.086  22.821   7.028
 3383POPC   C4A44922  43.199  22.415   7.205
 3383POPC   C1B44923  42.684  23.164   6.176
 3383POPC   C2B44924  42.456  23.119   6.575
 3383POPC   C3B44925  42.626  23.079   6.989
 3383POPC   C4B44926  42.767  23.125   7.388
 3384POPC   NC344927  42.547  22.842   5.320
 3384POPC   PO444928  42.361  23.411   5.415
 3384POPC   GL144929  42.299  23.114   5.731
 3384POPC   GL244930  42.127  22.780   5.691
 3384POPC   C1A44931  42.201  23.060   6.151
 3384POPC   D2A44932  42.060  22.791   6.499
 3384POPC   C3A44933  42.144  22.922   6.932
 3384POPC   C4A44934  42.222  23.194   7.290
 3384POPC   C1B44935  42.485  22.666   5.968
 3384POPC   C2B44936  42.567  22.637   6.390
 3384POPC   C3B44937  42.524  22.591   6.828
 3384POPC   C4B44938  42.677  22.576   7.249
 3385POPC   NC344939  23.759  12.793   5.419
 3385POPC   PO444940  23.201  13.097   5.350
 3385POPC   GL144941  23.457  13.051   5.824
 3385POPC   GL244942  23.814  12.855   5.916
 3385POPC   C1A44943  23.490  12.843   6.303
 3385POPC   D2A44944  23.567  12.747   6.768
 3385POPC   C3A44945  23.339  12.908   7.145
 3385POPC   C4A44946  23.417  12.949   7.620
 3385POPC   C1B44947  23.991  12.526   6.223
 3385POPC   C2B44948  23.985  12.469   6.694
 3385POPC   C3B44949  23.896  12.537   7.109
 3385POPC   C4B44950  23.819  12.922   7.282
 3386POPC   NC344951  26.146  35.106   5.156
 3386POPC   PO444952  25.889  34.484   5.421
 3386POPC   GL144953  25.826  34.723   5.789
 3386POPC   GL244954  26.156  34.849   5.825
 3386POPC   C1A44955  25.908  34.676   6.248
 3386POPC   D2A44956  26.076  34.337   6.522
 3386POPC   C3A44957  25.928  34.286   6.950
 3386POPC   C4A44958  25.645  34.276   7.320
 3386POPC   C1B44959  26.404  34.928   6.209
 3386POPC   C2B44960  26.401  35.151   6.593
 3386POPC   C3B44961  26.502  34.980   7.058
 3386POPC   C4B44962  26.493  34.670   7.432
 3387POPC   NC344963  43.029   9.334   5.398
 3387POPC   PO444964  43.450   9.834   5.278
 3387POPC   GL144965  43.291   9.839   5.720
 3387POPC   GL244966  42.988   9.716   5.778
 3387POPC   C1A44967  43.315  10.037   6.138
 3387POPC   D2A44968  43.457   9.806   6.518
 3387POPC   C3A44969  43.250   9.714   6.912
 3387POPC   C4A44970  43.035   9.971   7.183
 3387POPC   C1B44971  43.054   9.607   6.237
 3387POPC   C2B44972  42.838   9.638   6.626
 3387POPC   C3B44973  42.794   9.531   7.044
 3387POPC   C4B44974  42.799   9.532   7.502
 3388POPC   NC344975  11.925  34.928   5.615
 3388POPC   PO444976  12.419  34.515   5.502
 3388POPC   GL144977  12.180  34.360   5.824
 3388POPC   GL244978  12.461  34.173   5.908
 3388POPC   C1A44979  12.003  34.513   6.222
 3388POPC   D2A44980  11.903  34.335   6.643
 3388POPC   C3A44981  12.040  34.572   6.993
 3388POPC   C4A44982  12.003  34.652   7.460
 3388POPC   C1B44983  12.538  34.523   6.181
 3388POPC   C2B44984  12.367  34.609   6.576
 3388POPC   C3B44985  12.494  34.815   6.926
 3388POPC   C4B44986  12.510  34.529   7.213
 3389POPC   NC344987   0.655  40.878   5.417
 3389POPC   PO444988  44.973  41.043   5.333
 3389POPC   GL144989   0.289  41.064   5.703
 3389POPC   GL244990   0.311  40.679   5.755
 3389POPC   C1A44991   0.597  40.982   6.088
 3389POPC   D2A44992   0.526  40.789   6.518
 3389POPC   C3A44993   0.542  41.029   6.892
 3389POPC   C4A44994   0.577  40.835   7.236
 3389POPC   C1B44995   0.308  40.506   6.168
 3389POPC   C2B44996   0.067  40.562   6.574
 3389POPC   C3B44997   0.254  40.568   6.964
 3389POPC   C4B44998   0.336  40.253   7.304
 3390POPC   NC344999  10.852  34.309   5.772
 3390POPC   PO445000  10.222  34.567   5.481
 3390POPC   GL145001  10.379  34.550   5.875
 3390POPC   GL245002  10.368  34.188   5.848
 3390POPC   C1A45003  10.538  34.744   6.287
 3390POPC   D2A45004  10.552  34.931   6.708
 3390POPC   C3A45005  10.665  34.660   7.059
 3390POPC   C4A45006  10.668  34.693   7.497
 3390POPC   C1B45007  10.438  34.252   6.291
 3390POPC   C2B45008  10.405  34.381   6.709
 3390POPC   C3B45009  10.243  34.347   7.113
 3390POPC   C4B45010  10.284  34.262   7.574
 3391POPC   NC345011  27.419  40.204   5.415
 3391POPC   PO445012  27.944  39.774   5.447
 3391POPC   GL145013  27.764  39.757   5.857
 3391POPC   GL245014  27.567  40.076   5.902
 3391POPC   C1A45015  27.870  39.887   6.294
 3391POPC   D2A45016  27.744  39.890   6.727
 3391POPC   C3A45017  27.961  39.930   7.117
 3391POPC   C4A45018  27.832  39.937   7.551
 3391POPC   C1B45019  27.289  40.185   6.232
 3391POPC   C2B45020  27.409  40.305   6.658
 3391POPC   C3B45021  27.455  40.115   7.093
 3391POPC   C4B45022  27.261  40.252   7.514
 3392POPC   NC345023  40.911  42.523   5.399
 3392POPC   PO445024  40.603  41.896   5.433
 3392POPC   GL145025  40.656  42.122   5.806
 3392POPC   GL245026  40.980  42.301   5.836
 3392POPC   C1A45027  40.680  42.252   6.260
 3392POPC   D2A45028  40.981  42.270   6.604
 3392POPC   C3A45029  40.852  42.308   6.987
 3392POPC   C4A45030  40.821  42.430   7.364
 3392POPC   C1B45031  41.140  42.078   6.164
 3392POPC   C2B45032  41.290  41.887   6.548
 3392POPC   C3B45033  41.272  41.952   7.013
 3392POPC   C4B45034  40.992  41.908   7.384
 3393POPC   NC345035  23.027  25.940   5.530
 3393POPC   PO445036  22.377  26.127   5.447
 3393POPC   GL145037  22.640  26.249   5.805
 3393POPC   GL245038  22.992  26.388   5.800
 3393POPC   C1A45039  22.708  26.009   6.193
 3393POPC   D2A45040  22.992  25.858   6.527
 3393POPC   C3A45041  22.835  25.801   6.932
 3393POPC   C4A45042  22.972  25.576   7.292
 3393POPC   C1B45043  23.191  26.201   6.157
 3393POPC   C2B45044  23.191  26.338   6.574
 3393POPC   C3B45045  23.294  26.082   6.911
 3393POPC   C4B45046  23.083  26.081   7.278
 3394POPC   NC345047  42.399   2.910   5.281
 3394POPC   PO445048  42.130   2.283   5.242
 3394POPC   GL145049  42.224   2.523   5.639
 3394POPC   GL245050  42.501   2.739   5.783
 3394POPC   C1A45051  42.177   2.463   6.099
 3394POPC   D2A45052  41.977   2.406   6.496
 3394POPC   C3A45053  42.239   2.578   6.803
 3394POPC   C4A45054  42.154   2.569   7.221
 3394POPC   C1B45055  42.635   2.722   6.228
 3394POPC   C2B45056  42.610   2.921   6.620
 3394POPC   C3B45057  42.554   2.941   7.047
 3394POPC   C4B45058  42.153   3.087   7.150
 3395POPC   NC345059  11.168  31.972   4.990
 3395POPC   PO445060  11.523  32.327   5.456
 3395POPC   GL145061  11.256  32.118   5.790
 3395POPC   GL245062  11.286  32.401   5.992
 3395POPC   C1A45063  11.234  31.948   6.249
 3395POPC   D2A45064  11.060  32.089   6.695
 3395POPC   C3A45065  11.303  32.244   7.042
 3395POPC   C4A45066  11.446  31.880   7.243
 3395POPC   C1B45067  10.973  32.411   6.299
 3395POPC   C2B45068  10.996  32.606   6.716
 3395POPC   C3B45069  10.960  32.652   7.163
 3395POPC   C4B45070  11.218  32.719   7.533
 3396POPC   NC345071  20.015  15.448   5.263
 3396POPC   PO445072  19.450  15.722   5.456
 3396POPC   GL145073  19.588  15.458   5.794
 3396POPC   GL245074  19.921  15.384   5.868
 3396POPC   C1A45075  19.523  15.315   6.197
 3396POPC   D2A45076  19.634  15.479   6.573
 3396POPC   C3A45077  19.491  15.224   6.939
 3396POPC   C4A45078  19.424  15.334   7.387
 3396POPC   C1B45079  20.090  15.291   6.279
 3396POPC   C2B45080  19.971  15.116   6.681
 3396POPC   C3B45081  19.957  15.221   7.120
 3396POPC   C4B45082  20.266  15.266   7.403
 3397POPC   NC345083  39.314   8.808   5.033
 3397POPC   PO445084  39.312   8.138   5.323
 3397POPC   GL145085  39.298   8.062   5.778
 3397POPC   GL245086  38.971   8.198   5.829
 3397POPC   C1A45087  39.264   8.105   6.258
 3397POPC   D2A45088  39.160   8.407   6.609
 3397POPC   C3A45089  39.292   8.371   7.045
 3397POPC   C4A45090  39.619   8.118   7.200
 3397POPC   C1B45091  38.753   8.112   6.199
 3397POPC   C2B45092  38.884   7.952   6.614
 3397POPC   C3B45093  38.847   8.123   7.038
 3397POPC   C4B45094  38.785   8.585   7.047
 3398POPC   NC345095   0.623  43.586   5.455
 3398POPC   PO445096   0.162  44.037   5.407
 3398POPC   GL145097   0.431  43.997   5.768
 3398POPC   GL245098   0.791  44.015   5.717
 3398POPC   C1A45099   0.323  44.082   6.194
 3398POPC   D2A45100   0.232  43.798   6.540
 3398POPC   C3A45101   0.332  44.005   6.945
 3398POPC   C4A45102   0.228  43.858   7.340
 3398POPC   C1B45103   0.804  43.886   6.158
 3398POPC   C2B45104   0.745  43.931   6.620
 3398POPC   C3B45105   0.752  43.712   7.026
 3398POPC   C4B45106   0.692  43.759   7.492
 3399POPC   NC345107   0.810   0.998   5.425
 3399POPC   PO445108   1.394   1.354   5.477
 3399POPC   GL145109   1.234   1.071   5.758
 3399POPC   GL245110   1.437   0.754   5.810
 3399POPC   C1A45111   1.162   1.298   6.114
 3399POPC   D2A45112   1.245   1.307   6.533
 3399POPC   C3A45113   0.923   1.179   6.806
 3399POPC   C4A45114   1.030   1.260   7.198
 3399POPC   C1B45115   1.473   0.924   6.219
 3399POPC   C2B45116   1.668   1.001   6.608
 3399POPC   C3B45117   1.366   0.956   6.925
 3399POPC   C4B45118   1.230   0.796   7.309
 3400POPC   NC345119   6.464   6.573   5.388
 3400POPC   PO445120   6.353   7.122   5.734
 3400POPC   GL145121   6.583   6.776   5.868
 3400POPC   GL245122   6.906   6.666   5.705
 3400POPC   C1A45123   6.667   6.772   6.309
 3400POPC   D2A45124   6.709   6.978   6.712
 3400POPC   C3A45125   6.586   6.717   7.069
 3400POPC   C4A45126   6.391   6.871   7.458
 3400POPC   C1B45127   6.879   6.376   6.062
 3400POPC   C2B45128   6.919   6.378   6.532
 3400POPC   C3B45129   7.086   6.398   6.965
 3400POPC   C4B45130   6.915   6.447   7.403
 3401POPC   NC345131  24.483  33.353   5.417
 3401POPC   PO445132  24.578  32.686   5.188
 3401POPC   GL145133  24.607  32.854   5.643
 3401POPC   GL245134  24.285  32.731   5.783
 3401POPC   C1A45135  24.547  33.044   6.106
 3401POPC   D2A45136  24.469  32.994   6.581
 3401POPC   C3A45137  24.641  33.177   6.984
 3401POPC   C4A45138  24.900  33.100   7.352
 3401POPC   C1B45139  24.228  32.626   6.242
 3401POPC   C2B45140  24.248  32.572   6.723
 3401POPC   C3B45141  24.332  32.763   7.134
 3401POPC   C4B45142  24.238  32.599   7.547
 3402POPC   NC345143   3.091  20.602   5.588
 3402POPC   PO445144   2.478  20.707   5.531
 3402POPC   GL145145   2.619  20.741   5.947
 3402POPC   GL245146   2.867  20.978   5.894
 3402POPC   C1A45147   2.756  20.433   6.282
 3402POPC   D2A45148   3.033  20.145   6.539
 3402POPC   C3A45149   2.977  20.244   6.966
 3402POPC   C4A45150   2.752  20.416   7.332
 3402POPC   C1B45151   3.137  20.810   6.214
 3402POPC   C2B45152   3.081  20.662   6.631
 3402POPC   C3B45153   2.910  20.767   6.996
 3402POPC   C4B45154   3.029  20.813   7.445
 3403POPC   NC345155  11.067  20.866   5.602
 3403POPC   PO445156  11.437  21.317   5.210
 3403POPC   GL145157  11.154  21.395   5.593
 3403POPC   GL245158  11.362  21.234   5.789
 3403POPC   C1A45159  11.114  21.600   6.041
 3403POPC   D2A45160  11.260  21.420   6.459
 3403POPC   C3A45161  11.162  21.540   6.883
 3403POPC   C4A45162  11.167  21.300   7.255
 3403POPC   C1B45163  11.629  21.402   6.122
 3403POPC   C2B45164  11.755  21.488   6.540
 3403POPC   C3B45165  11.629  21.351   6.973
 3403POPC   C4B45166  11.617  21.482   7.424
 3404POPC   NC345167  27.353  26.312   5.422
 3404POPC   PO445168  27.754  25.807   5.603
 3404POPC   GL145169  27.508  26.010   5.894
 3404POPC   GL245170  27.259  25.772   5.984
 3404POPC   C1A45171  27.612  25.972   6.337
 3404POPC   D2A45172  27.499  25.905   6.754
 3404POPC   C3A45173  27.662  26.148   7.078
 3404POPC   C4A45174  28.080  26.147   7.246
 3404POPC   C1B45175  27.123  25.758   6.412
 3404POPC   C2B45176  27.117  25.599   6.842
 3404POPC   C3B45177  27.309  25.733   7.224
 3404POPC   C4B45178  27.405  25.649   7.642
 3405POPC   NC345179   0.685   9.910   5.475
 3405POPC   PO445180   0.203   9.434   5.272
 3405POPC   GL145181   0.265   9.479   5.731
 3405POPC   GL245182   0.631   9.514   5.822
 3405POPC   C1A45183   0.258   9.630   6.186
 3405POPC   D2A45184   0.237   9.503   6.628
 3405POPC   C3A45185   0.492   9.596   7.000
 3405POPC   C4A45186   0.928   9.491   7.086
 3405POPC   C1B45187   0.767   9.786   6.160
 3405POPC   C2B45188   0.578   9.898   6.560
 3405POPC   C3B45189   0.737  10.057   6.966
 3405POPC   C4B45190   0.907   9.935   7.334
 3406POPC   NC345191  10.454   4.556   5.529
 3406POPC   PO445192  10.223   3.807   5.631
 3406POPC   GL145193  10.538   4.086   5.835
 3406POPC   GL245194  10.334   4.338   5.957
 3406POPC   C1A45195  10.779   4.368   6.176
 3406POPC   D2A45196  10.546   4.400   6.533
 3406POPC   C3A45197  10.652   4.544   6.914
 3406POPC   C4A45198  10.453   4.555   7.314
 3406POPC   C1B45199  10.198   4.101   6.285
 3406POPC   C2B45200  10.274   3.982   6.694
 3406POPC   C3B45201  10.431   4.076   7.104
 3406POPC   C4B45202  10.336   3.791   7.429
 3407POPC   NC345203   0.184   4.140   5.475
 3407POPC   PO445204   0.779   4.499   5.483
 3407POPC   GL145205   0.525   4.403   5.858
 3407POPC   GL245206   0.164   4.487   5.855
 3407POPC   C1A45207   0.650   4.482   6.299
 3407POPC   D2A45208   0.995   4.388   6.591
 3407POPC   C3A45209   0.859   4.479   7.012
 3407POPC   C4A45210   0.553   4.181   7.213
 3407POPC   C1B45211   0.194   4.252   6.250
 3407POPC   C2B45212   0.327   4.162   6.695
 3407POPC   C3B45213   0.074   4.044   7.063
 3407POPC   C4B45214   0.102   4.237   7.471
 3408POPC   NC345215  23.903  43.091   5.550
 3408POPC   PO445216  23.304  42.892   5.599
 3408POPC   GL145217  23.501  43.229   5.896
 3408POPC   GL245218  23.841  43.122   6.048
 3408POPC   C1A45219  23.579  43.438   6.323
 3408POPC   D2A45220  23.710  43.145   6.601
 3408POPC   C3A45221  23.735  43.216   7.025
 3408POPC   C4A45222  24.107  43.369   7.178
 3408POPC   C1B45223  24.108  42.848   6.322
 3408POPC   C2B45224  24.171  42.883   6.758
 3408POPC   C3B45225  23.969  42.718   7.109
 3408POPC   C4B45226  24.096  42.652   7.541
 3409POPC   NC345227  11.141  40.195   5.195
 3409POPC   PO445228  11.572  39.703   5.340
 3409POPC   GL145229  11.312  39.961   5.659
 3409POPC   GL245230  11.079  40.259   5.728
 3409POPC   C1A45231  11.214  39.970   6.135
 3409POPC   D2A45232  11.050  39.841   6.559
 3409POPC   C3A45233  11.381  39.942   6.858
 3409POPC   C4A45234  11.705  40.192   7.065
 3409POPC   C1B45235  10.995  40.434   6.153
 3409POPC   C2B45236  11.173  40.606   6.565
 3409POPC   C3B45237  11.239  40.445   7.008
 3409POPC   C4B45238  11.079  40.079   7.250
 3410POPC   NC345239   2.548  38.823   5.544
 3410POPC   PO445240   2.969  38.423   5.261
 3410POPC   GL145241   2.756  38.293   5.675
 3410POPC   GL245242   2.449  38.386   5.847
 3410POPC   C1A45243   2.837  38.233   6.137
 3410POPC   D2A45244   2.944  38.436   6.564
 3410POPC   C3A45245   2.895  38.249   6.958
 3410POPC   C4A45246   2.806  38.367   7.363
 3410POPC   C1B45247   2.472  38.548   6.273
 3410POPC   C2B45248   2.445  38.689   6.656
 3410POPC   C3B45249   2.471  38.542   7.026
 3410POPC   C4B45250   2.471  38.769   7.398
 3411POPC   NC345251  33.013   5.685   5.410
 3411POPC   PO445252  32.915   4.991   5.439
 3411POPC   GL145253  33.093   5.066   5.818
 3411POPC   GL245254  33.345   5.319   5.837
 3411POPC   C1A45255  33.176   4.830   6.174
 3411POPC   D2A45256  32.928   4.916   6.550
 3411POPC   C3A45257  33.042   5.073   6.929
 3411POPC   C4A45258  33.335   4.901   7.199
 3411POPC   C1B45259  33.227   5.341   6.236
 3411POPC   C2B45260  33.198   5.472   6.614
 3411POPC   C3B45261  33.425   5.409   6.935
 3411POPC   C4B45262  33.245   5.399   7.308
 3412POPC   NC345263  29.383  17.777   5.473
 3412POPC   PO445264  29.042  17.246   5.298
 3412POPC   GL145265  29.059  17.480   5.765
 3412POPC   GL245266  29.066  17.854   5.894
 3412POPC   C1A45267  29.293  17.527   6.221
 3412POPC   D2A45268  29.223  17.684   6.667
 3412POPC   C3A45269  29.259  17.415   7.056
 3412POPC   C4A45270  29.348  17.250   7.475
 3412POPC   C1B45271  28.797  17.655   6.214
 3412POPC   C2B45272  28.707  17.493   6.608
 3412POPC   C3B45273  28.782  17.669   6.972
 3412POPC   C4B45274  29.117  17.891   7.148
 3413POPC   NC345275  15.143  35.691   5.119
 3413POPC   PO445276  14.775  35.260   5.376
 3413POPC   GL145277  15.053  35.256   5.752
 3413POPC   GL245278  15.296  35.537   5.735
 3413POPC   C1A45279  14.939  35.290   6.214
 3413POPC   D2A45280  14.748  35.175   6.628
 3413POPC   C3A45281  15.009  35.260   6.960
 3413POPC   C4A45282  15.397  35.388   7.166
 3413POPC   C1B45283  15.409  35.593   6.196
 3413POPC   C2B45284  15.272  35.554   6.640
 3413POPC   C3B45285  15.096  35.772   7.038
 3413POPC   C4B45286  15.317  35.835   7.450
 3414POPC   NC345287  24.287   3.021   5.240
 3414POPC   PO445288  24.698   2.406   5.311
 3414POPC   GL145289  24.758   2.629   5.723
 3414POPC   GL245290  24.782   2.996   5.732
 3414POPC   C1A45291  24.674   2.648   6.170
 3414POPC   D2A45292  24.406   2.737   6.516
 3414POPC   C3A45293  24.556   2.626   6.925
 3414POPC   C4A45294  24.488   2.840   7.326
 3414POPC   C1B45295  24.858   3.140   6.171
 3414POPC   C2B45296  24.879   2.975   6.632
 3414POPC   C3B45297  24.892   3.022   7.080
 3414POPC   C4B45298  24.655   3.341   7.326
 3415POPC   NC345299  24.270  24.674   5.452
 3415POPC   PO445300  24.755  24.126   5.369
 3415POPC   GL145301  24.653  24.419   5.707
 3415POPC   GL245302  24.317  24.313   5.848
 3415POPC   C1A45303  24.708  24.522   6.151
 3415POPC   D2A45304  24.522  24.565   6.564
 3415POPC   C3A45305  24.720  24.531   6.941
 3415POPC   C4A45306  24.647  24.205   7.241
 3415POPC   C1B45307  24.164  24.586   6.206
 3415POPC   C2B45308  24.030  24.721   6.665
 3415POPC   C3B45309  24.119  24.578   7.123
 3415POPC   C4B45310  24.025  24.620   7.585
 3416POPC   NC345311  31.171   1.140   5.526
 3416POPC   PO445312  30.611   1.400   5.302
 3416POPC   GL145313  30.727   1.329   5.716
 3416POPC   GL245314  30.588   0.980   5.739
 3416POPC   C1A45315  30.812   1.295   6.162
 3416POPC   D2A45316  30.892   1.104   6.577
 3416POPC   C3A45317  30.975   1.391   6.923
 3416POPC   C4A45318  30.880   1.356   7.349
 3416POPC   C1B45319  30.340   1.099   6.100
 3416POPC   C2B45320  30.402   1.294   6.512
 3416POPC   C3B45321  30.505   1.161   6.945
 3416POPC   C4B45322  30.229   1.046   7.267
 3417POPC   NC345323   7.744  14.440   5.431
 3417POPC   PO445324   7.224  14.159   5.685
 3417POPC   GL145325   7.620  14.209   5.892
 3417POPC   GL245326   7.632  14.565   5.903
 3417POPC   C1A45327   7.582  14.331   6.342
 3417POPC   D2A45328   7.534  14.210   6.747
 3417POPC   C3A45329   7.271  14.404   6.995
 3417POPC   C4A45330   7.332  14.607   7.345
 3417POPC   C1B45331   7.705  14.824   6.274
 3417POPC   C2B45332   7.659  14.719   6.704
 3417POPC   C3B45333   7.679  14.930   7.076
 3417POPC   C4B45334   7.756  14.874   7.509
 3418POPC   NC345335  16.240  37.041   5.536
 3418POPC   PO445336  15.691  36.677   5.394
 3418POPC   GL145337  15.926  36.710   5.786
 3418POPC   GL245338  15.881  37.080   5.889
 3418POPC   C1A45339  16.137  36.749   6.187
 3418POPC   D2A45340  15.949  36.806   6.555
 3418POPC   C3A45341  16.089  36.627   6.915
 3418POPC   C4A45342  15.878  36.707   7.237
 3418POPC   C1B45343  16.234  37.244   6.161
 3418POPC   C2B45344  16.115  37.284   6.576
 3418POPC   C3B45345  15.999  37.146   6.955
 3418POPC   C4B45346  16.299  37.011   7.214
 3419POPC   NC345347   4.296  34.341   5.279
 3419POPC   PO445348   4.105  35.038   5.290
 3419POPC   GL145349   4.183  34.709   5.673
 3419POPC   GL245350   4.445  34.448   5.744
 3419POPC   C1A45351   4.156  34.598   6.180
 3419POPC   D2A45352   4.239  34.635   6.684
 3419POPC   C3A45353   4.109  34.393   7.084
 3419POPC   C4A45354   4.075  34.529   7.517
 3419POPC   C1B45355   4.657  34.554   6.118
 3419POPC   C2B45356   4.666  34.400   6.525
 3419POPC   C3B45357   4.681  34.479   6.947
 3419POPC   C4B45358   4.543  34.367   7.361
 3420POPC   NC345359  38.041  21.846   5.504
 3420POPC   PO445360  37.726  22.516   5.502
 3420POPC   GL145361  37.680  22.471   5.887
 3420POPC   GL245362  37.674  22.104   5.837
 3420POPC   C1A45363  37.772  22.324   6.271
 3420POPC   D2A45364  37.534  22.196   6.580
 3420POPC   C3A45365  37.666  22.310   6.967
 3420POPC   C4A45366  37.837  22.007   7.169
 3420POPC   C1B45367  37.337  21.985   6.128
 3420POPC   C2B45368  37.291  21.746   6.506
 3420POPC   C3B45369  37.474  21.777   6.877
 3420POPC   C4B45370  37.388  21.748   7.265
 3421POPC   NC345371  26.128  17.919   5.407
 3421POPC   PO445372  25.901  17.318   5.406
 3421POPC   GL145373  25.924  17.542   5.787
 3421POPC   GL245374  25.697  17.781   5.682
 3421POPC   C1A45375  26.239  17.658   6.124
 3421POPC   D2A45376  26.392  17.678   6.559
 3421POPC   C3A45377  26.133  17.454   6.868
 3421POPC   C4A45378  26.054  17.406   7.302
 3421POPC   C1B45379  25.623  17.813   6.120
 3421POPC   C2B45380  25.834  17.663   6.495
 3421POPC   C3B45381  25.709  17.716   6.922
 3421POPC   C4B45382  25.583  17.656   7.353
 3422POPC   NC345383  35.816  34.103   5.521
 3422POPC   PO445384  36.333  33.705   5.268
 3422POPC   GL145385  36.127  33.707   5.712
 3422POPC   GL245386  35.835  33.827   5.935
 3422POPC   C1A45387  36.232  33.628   6.165
 3422POPC   D2A45388  36.112  33.794   6.577
 3422POPC   C3A45389  36.232  33.572   6.944
 3422POPC   C4A45390  36.446  33.629   7.313
 3422POPC   C1B45391  35.832  34.108   6.281
 3422POPC   C2B45392  35.768  34.175   6.737
 3422POPC   C3B45393  35.847  34.267   7.146
 3422POPC   C4B45394  36.084  33.967   7.369
 3423POPC   NC345395  11.862  37.116   5.562
 3423POPC   PO445396  12.204  36.652   5.383
 3423POPC   GL145397  12.058  36.576   5.787
 3423POPC   GL245398  11.747  36.710   5.849
 3423POPC   C1A45399  12.108  36.705   6.244
 3423POPC   D2A45400  12.320  36.856   6.636
 3423POPC   C3A45401  12.194  36.735   7.051
 3423POPC   C4A45402  12.130  37.094   7.322
 3423POPC   C1B45403  11.738  37.032   6.222
 3423POPC   C2B45404  11.731  36.912   6.664
 3423POPC   C3B45405  11.681  36.923   7.116
 3423POPC   C4B45406  11.813  36.687   7.483
 3424POPC   NC345407  13.529  27.902   5.455
 3424POPC   PO445408  14.092  27.781   5.065
 3424POPC   GL145409  13.880  27.565   5.575
 3424POPC   GL245410  13.691  27.292   5.858
 3424POPC   C1A45411  13.784  27.743   6.060
 3424POPC   D2A45412  13.820  27.503   6.451
 3424POPC   C3A45413  13.720  27.629   6.850
 3424POPC   C4A45414  13.586  27.659   7.264
 3424POPC   C1B45415  13.369  27.397   6.226
 3424POPC   C2B45416  13.300  27.702   6.538
 3424POPC   C3B45417  13.192  27.585   6.950
 3424POPC   C4B45418  13.233  27.211   7.235
 3425POPC   NC345419  12.667  20.151   5.411
 3425POPC   PO445420  13.147  19.741   5.489
 3425POPC   GL145421  12.895  19.952   5.833
 3425POPC   GL245422  12.581  19.839   5.839
 3425POPC   C1A45423  12.668  20.135   6.237
 3425POPC   D2A45424  12.567  20.018   6.636
 3425POPC   C3A45425  12.873  19.736   6.799
 3425POPC   C4A45426  12.942  19.730   7.218
 3425POPC   C1B45427  12.715  19.625   6.268
 3425POPC   C2B45428  12.437  19.517   6.629
 3425POPC   C3B45429  12.383  19.686   7.034
 3425POPC   C4B45430  12.477  19.660   7.467
 3426POPC   NC345431   3.111  40.310   5.356
 3426POPC   PO445432   2.550  40.673   5.135
 3426POPC   GL145433   2.627  40.747   5.642
 3426POPC   GL245434   2.989  40.720   5.672
 3426POPC   C1A45435   2.621  40.890   6.089
 3426POPC   D2A45436   2.564  40.725   6.525
 3426POPC   C3A45437   2.594  40.943   6.937
 3426POPC   C4A45438   2.661  40.786   7.348
 3426POPC   C1B45439   3.017  40.555   6.107
 3426POPC   C2B45440   3.093  40.688   6.545
 3426POPC   C3B45441   2.921  40.529   6.942
 3426POPC   C4B45442   2.848  40.337   7.345
 3427POPC   NC345443  43.352  12.106   5.424
 3427POPC   PO445444  42.739  12.384   5.397
 3427POPC   GL145445  42.932  12.218   5.779
 3427POPC   GL245446  42.963  11.857   5.691
 3427POPC   C1A45447  43.013  12.327   6.263
 3427POPC   D2A45448  43.028  12.383   6.753
 3427POPC   C3A45449  43.012  12.254   7.191
 3427POPC   C4A45450  42.769  12.358   7.594
 3427POPC   C1B45451  43.156  11.843   6.096
 3427POPC   C2B45452  43.094  11.903   6.540
 3427POPC   C3B45453  42.981  11.786   6.946
 3427POPC   C4B45454  43.149  11.772   7.349
 3428POPC   NC345455  14.887   4.833   5.599
 3428POPC   PO445456  15.551   5.024   5.413
 3428POPC   GL145457  15.523   5.042   5.868
 3428POPC   GL245458  15.287   4.759   5.879
 3428POPC   C1A45459  15.385   4.987   6.311
 3428POPC   D2A45460  15.135   5.220   6.617
 3428POPC   C3A45461  15.361   5.344   6.985
 3428POPC   C4A45462  15.187   5.325   7.402
 3428POPC   C1B45463  15.010   4.641   6.245
 3428POPC   C2B45464  15.120   4.696   6.696
 3428POPC   C3B45465  15.191   4.862   7.137
 3428POPC   C4B45466  15.274   4.861   7.619
 3429POPC   NC345467   7.158  42.554   5.459
 3429POPC   PO445468   7.848  42.498   5.413
 3429POPC   GL145469   7.568  42.491   5.762
 3429POPC   GL245470   7.418  42.167   5.670
 3429POPC   C1A45471   7.290  42.572   6.137
 3429POPC   D2A45472   7.083  42.689   6.551
 3429POPC   C3A45473   7.251  42.516   6.946
 3429POPC   C4A45474   7.602  42.402   7.202
 3429POPC   C1B45475   7.252  42.054   6.054
 3429POPC   C2B45476   7.235  42.185   6.509
 3429POPC   C3B45477   7.292  42.017   6.927
 3429POPC   C4B45478   7.361  41.959   7.342
 3430POPC   NC345479  43.438  34.735   5.509
 3430POPC   PO445480  42.766  35.010   5.559
 3430POPC   GL145481  42.870  34.710   5.881
 3430POPC   GL245482  42.769  34.374   5.790
 3430POPC   C1A45483  43.014  34.688   6.309
 3430POPC   D2A45484  43.124  34.354   6.614
 3430POPC   C3A45485  43.216  34.498   7.022
 3430POPC   C4A45486  43.150  34.891   7.206
 3430POPC   C1B45487  42.782  34.216   6.214
 3430POPC   C2B45488  42.776  33.971   6.591
 3430POPC   C3B45489  42.799  34.168   6.982
 3430POPC   C4B45490  42.978  34.238   7.392
 3431POPC   NC345491  10.422  26.690   5.428
 3431POPC   PO445492  10.508  27.307   5.690
 3431POPC   GL145493  10.411  26.922   5.887
 3431POPC   GL245494  10.651  26.637   5.924
 3431POPC   C1A45495  10.415  26.839   6.316
 3431POPC   D2A45496  10.579  27.044   6.661
 3431POPC   C3A45497  10.327  26.969   7.021
 3431POPC   C4A45498  10.330  26.766   7.436
 3431POPC   C1B45499  10.941  26.749   6.268
 3431POPC   C2B45500  10.856  26.617   6.676
 3431POPC   C3B45501  10.769  26.709   7.108
 3431POPC   C4B45502  10.861  26.425   7.484
 3432POPC   NC345503  39.825  22.058   5.439
 3432POPC   PO445504  40.401  21.808   5.780
 3432POPC   GL145505  40.274  22.215   5.967
 3432POPC   GL245506  39.985  22.294   5.855
 3432POPC   C1A45507  40.137  22.262   6.408
 3432POPC   D2A45508  40.032  21.853   6.601
 3432POPC   C3A45509  40.125  21.873   7.025
 3432POPC   C4A45510  40.178  22.223   7.181
 3432POPC   C1B45511  39.702  22.214   6.124
 3432POPC   C2B45512  39.633  22.471   6.451
 3432POPC   C3B45513  39.779  22.360   6.833
 3432POPC   C4B45514  39.681  22.231   7.217
 3433POPC   NC345515  43.260   5.955   5.422
 3433POPC   PO445516  42.735   6.382   5.393
 3433POPC   GL145517  42.789   6.086   5.813
 3433POPC   GL245518  43.045   5.823   5.849
 3433POPC   C1A45519  42.912   5.980   6.292
 3433POPC   D2A45520  43.214   6.142   6.604
 3433POPC   C3A45521  43.002   6.216   7.002
 3433POPC   C4A45522  42.884   5.842   7.231
 3433POPC   C1B45523  43.418   5.913   6.156
 3433POPC   C2B45524  43.577   5.730   6.580
 3433POPC   C3B45525  43.392   5.677   7.018
 3433POPC   C4B45526  43.356   6.009   7.342
 3434POPC   NC345527  41.420  35.455   5.396
 3434POPC   PO445528  41.896  35.018   5.475
 3434POPC   GL145529  41.617  35.198   5.834
 3434POPC   GL245530  41.427  35.537   5.885
 3434POPC   C1A45531  41.415  35.189   6.253
 3434POPC   D2A45532  41.416  35.460   6.611
 3434POPC   C3A45533  41.496  35.285   7.008
 3434POPC   C4A45534  41.269  35.286   7.369
 3434POPC   C1B45535  41.751  35.580   6.209
 3434POPC   C2B45536  41.899  35.773   6.588
 3434POPC   C3B45537  41.733  35.754   6.995
 3434POPC   C4B45538  41.879  35.542   7.352
 3435POPC   NC345539  15.628  12.493   5.142
 3435POPC   PO445540  16.168  12.961   5.162
 3435POPC   GL145541  16.134  12.876   5.731
 3435POPC   GL245542  15.862  13.113   5.929
 3435POPC   C1A45543  16.023  12.737   6.221
 3435POPC   D2A45544  15.836  12.419   6.508
 3435POPC   C3A45545  15.653  12.511   6.936
 3435POPC   C4A45546  15.690  12.385   7.373
 3435POPC   C1B45547  15.592  13.090   6.295
 3435POPC   C2B45548  15.785  12.935   6.656
 3435POPC   C3B45549  16.133  12.701   6.831
 3435POPC   C4B45550  15.984  12.776   7.220
 3436POPC   NC345551  41.299  11.389   5.383
 3436POPC   PO445552  40.685  11.140   5.381
 3436POPC   GL145553  40.770  11.343   5.790
 3436POPC   GL245554  41.027  11.595   5.783
 3436POPC   C1A45555  40.659  11.437   6.209
 3436POPC   D2A45556  40.621  11.177   6.558
 3436POPC   C3A45557  40.572  11.403   6.923
 3436POPC   C4A45558  40.782  11.170   7.184
 3436POPC   C1B45559  41.178  11.474   6.190
 3436POPC   C2B45560  41.055  11.479   6.626
 3436POPC   C3B45561  41.247  11.278   6.985
 3436POPC   C4B45562  41.155  11.469   7.367
 3437POPC   NC345563  30.683  22.632   5.170
 3437POPC   PO445564  31.008  22.043   5.363
 3437POPC   GL145565  30.866  22.005   5.780
 3437POPC   GL245566  30.488  22.039   5.774
 3437POPC   C1A45567  30.842  22.120   6.220
 3437POPC   D2A45568  30.835  21.859   6.587
 3437POPC   C3A45569  30.967  22.016   6.981
 3437POPC   C4A45570  30.780  21.940   7.357
 3437POPC   C1B45571  30.320  22.266   6.156
 3437POPC   C2B45572  30.452  22.270   6.578
 3437POPC   C3B45573  30.473  22.164   6.998
 3437POPC   C4B45574  30.449  22.319   7.419
 3438POPC   NC345575  19.060  18.597   5.502
 3438POPC   PO445576  19.480  18.038   5.471
 3438POPC   GL145577  19.322  18.287   5.820
 3438POPC   GL245578  19.072  18.070   5.841
 3438POPC   C1A45579  19.225  18.462   6.257
 3438POPC   D2A45580  19.199  18.324   6.713
 3438POPC   C3A45581  19.036  18.514   7.095
 3438POPC   C4A45582  18.932  18.561   7.572
 3438POPC   C1B45583  18.909  18.070   6.212
 3438POPC   C2B45584  18.721  18.143   6.597
 3438POPC   C3B45585  18.833  18.038   7.003
 3438POPC   C4B45586  19.045  18.095   7.377
 3439POPC   NC345587  42.223  44.847   5.354
 3439POPC   PO445588  42.691  44.452   5.551
 3439POPC   GL145589  42.393  44.554   5.865
 3439POPC   GL245590  42.043  44.554   5.727
 3439POPC   C1A45591  42.380  44.708   6.296
 3439POPC   D2A45592  42.197  44.960   6.643
 3439POPC   C3A45593  42.241  44.789   7.060
 3439POPC   C4A45594  42.626  44.769   7.291
 3439POPC   C1B45595  41.941  44.463   6.160
 3439POPC   C2B45596  42.049  44.424   6.613
 3439POPC   C3B45597  42.018  44.329   7.052
 3439POPC   C4B45598  42.221  44.428   7.442
 3440POPC   NC345599   2.603  19.029   5.162
 3440POPC   PO445600   1.960  19.084   5.337
 3440POPC   GL145601   2.097  19.123   5.801
 3440POPC   GL245602   2.408  18.951   5.867
 3440POPC   C1A45603   1.846  19.137   6.214
 3440POPC   D2A45604   1.780  19.389   6.611
 3440POPC   C3A45605   1.907  19.212   7.018
 3440POPC   C4A45606   1.871  19.063   7.443
 3440POPC   C1B45607   2.176  18.751   6.234
 3440POPC   C2B45608   1.987  18.777   6.685
 3440POPC   C3B45609   2.186  18.779   7.118
 3440POPC   C4B45610   2.282  18.831   7.591
 3441POPC   NC345611  26.505  22.772   5.589
 3441POPC   PO445612  27.159  23.095   5.556
 3441POPC   GL145613  26.897  22.924   5.874
 3441POPC   GL245614  26.959  22.618   5.806
 3441POPC   C1A45615  26.664  22.897   6.302
 3441POPC   D2A45616  26.550  22.730   6.723
 3441POPC   C3A45617  26.635  23.013   7.098
 3441POPC   C4A45618  26.685  23.271   7.497
 3441POPC   C1B45619  26.979  22.483   6.226
 3441POPC   C2B45620  27.088  22.564   6.660
 3441POPC   C3B45621  26.904  22.553   7.058
 3441POPC   C4B45622  26.970  22.780   7.417
 3442POPC   NC345623  34.400   6.393   5.274
 3442POPC   PO445624  35.005   6.285   5.503
 3442POPC   GL145625  34.646   6.513   5.794
 3442POPC   GL245626  34.445   6.822   5.713
 3442POPC   C1A45627  34.621   6.739   6.183
 3442POPC   D2A45628  34.502   6.455   6.480
 3442POPC   C3A45629  34.668   6.376   6.876
 3442POPC   C4A45630  34.614   6.156   7.262
 3442POPC   C1B45631  34.121   6.766   6.072
 3442POPC   C2B45632  34.049   6.721   6.499
 3442POPC   C3B45633  34.357   6.791   6.835
 3442POPC   C4B45634  34.557   6.732   7.228
 3443POPC   NC345635  11.866  28.033   5.463
 3443POPC   PO445636  12.029  28.665   5.588
 3443POPC   GL145637  12.033  28.328   5.910
 3443POPC   GL245638  12.250  28.026   5.822
 3443POPC   C1A45639  12.081  28.458   6.364
 3443POPC   D2A45640  11.903  28.704   6.711
 3443POPC   C3A45641  12.182  28.628   7.061
 3443POPC   C4A45642  12.402  28.269   7.109
 3443POPC   C1B45643  12.239  27.962   6.260
 3443POPC   C2B45644  12.231  28.064   6.690
 3443POPC   C3B45645  11.957  27.966   7.063
 3443POPC   C4B45646  11.659  28.038   7.407
 3444POPC   NC345647  20.520  36.616   5.540
 3444POPC   PO445648  20.473  37.164   5.102
 3444POPC   GL145649  20.534  37.105   5.616
 3444POPC   GL245650  20.844  36.924   5.761
 3444POPC   C1A45651  20.468  36.935   6.109
 3444POPC   D2A45652  20.634  36.598   6.468
 3444POPC   C3A45653  20.570  36.712   6.932
 3444POPC   C4A45654  20.381  37.084   7.111
 3444POPC   C1B45655  20.971  36.904   6.210
 3444POPC   C2B45656  21.005  36.927   6.670
 3444POPC   C3B45657  20.886  37.129   7.067
 3444POPC   C4B45658  20.936  37.305   7.506
 3445POPC   NC345659  43.331  24.152   5.235
 3445POPC   PO445660  42.907  23.626   5.425
 3445POPC   GL145661  43.077  23.637   5.834
 3445POPC   GL245662  43.281  23.910   5.747
 3445POPC   C1A45663  43.133  23.430   6.237
 3445POPC   D2A45664  42.851  23.433   6.599
 3445POPC   C3A45665  43.036  23.557   6.969
 3445POPC   C4A45666  43.225  23.373   7.306
 3445POPC   C1B45667  43.148  24.020   6.172
 3445POPC   C2B45668  43.019  24.275   6.546
 3445POPC   C3B45669  43.119  24.202   6.964
 3445POPC   C4B45670  42.843  23.972   7.208
 3446POPC   NC345671  37.819  11.305   5.366
 3446POPC   PO445672  37.167  11.505   5.485
 3446POPC   GL145673  37.401  11.260   5.851
 3446POPC   GL245674  37.785  11.223   5.850
 3446POPC   C1A45675  37.610  11.232   6.303
 3446POPC   D2A45676  37.576  11.142   6.725
 3446POPC   C3A45677  37.485  11.503   7.023
 3446POPC   C4A45678  37.450  11.500   7.514
 3446POPC   C1B45679  37.980  10.894   6.120
 3446POPC   C2B45680  37.992  10.816   6.568
 3446POPC   C3B45681  38.007  11.045   6.958
 3446POPC   C4B45682  37.606  11.074   7.255
 3447POPC   NC345683  13.505  26.128   5.313
 3447POPC   PO445684  14.115  26.068   5.305
 3447POPC   GL145685  13.850  26.052   5.697
 3447POPC   GL245686  14.024  25.735   5.787
 3447POPC   C1A45687  13.533  26.165   6.052
 3447POPC   D2A45688  13.295  26.361   6.434
 3447POPC   C3A45689  13.392  26.211   6.879
 3447POPC   C4A45690  13.546  26.174   7.326
 3447POPC   C1B45691  13.772  25.714   6.161
 3447POPC   C2B45692  13.703  25.986   6.525
 3447POPC   C3B45693  13.752  25.819   6.945
 3447POPC   C4B45694  13.932  25.831   7.334
 3448POPC   NC345695   8.553   4.255   5.593
 3448POPC   PO445696   9.256   4.547   5.597
 3448POPC   GL145697   8.991   4.402   5.846
 3448POPC   GL245698   9.055   4.049   5.747
 3448POPC   C1A45699   8.995   4.600   6.255
 3448POPC   D2A45700   9.235   4.533   6.631
 3448POPC   C3A45701   8.958   4.664   6.910
 3448POPC   C4A45702   8.830   4.511   7.273
 3448POPC   C1B45703   9.030   4.083   6.215
 3448POPC   C2B45704   8.838   4.204   6.585
 3448POPC   C3B45705   9.022   4.155   6.953
 3448POPC   C4B45706   9.046   3.949   7.336
 3449POPC   NC345707  36.665   6.452   5.629
 3449POPC   PO445708  37.314   6.348   5.497
 3449POPC   GL145709  37.170   6.584   5.837
 3449POPC   GL245710  37.144   6.949   5.700
 3449POPC   C1A45711  36.967   6.516   6.257
 3449POPC   D2A45712  36.775   6.536   6.695
 3449POPC   C3A45713  37.088   6.577   7.042
 3449POPC   C4A45714  37.080   6.947   7.315
 3449POPC   C1B45715  36.837   6.972   6.046
 3449POPC   C2B45716  36.846   7.015   6.502
 3449POPC   C3B45717  36.709   6.991   6.947
 3449POPC   C4B45718  36.623   7.224   7.306
 3450POPC   NC345719   3.815  37.533   5.345
 3450POPC   PO445720   3.501  38.168   5.408
 3450POPC   GL145721   3.543  37.836   5.721
 3450POPC   GL245722   3.669  38.066   5.946
 3450POPC   C1A45723   3.562  37.567   6.125
 3450POPC   D2A45724   3.440  37.510   6.593
 3450POPC   C3A45725   3.567  37.479   7.060
 3450POPC   C4A45726   3.758  37.291   7.451
 3450POPC   C1B45727   3.625  37.985   6.399
 3450POPC   C2B45728   3.299  38.018   6.695
 3450POPC   C3B45729   3.312  37.994   7.106
 3450POPC   C4B45730   3.632  38.179   7.269
 3451POPC   NC345731   5.376  10.967   5.389
 3451POPC   PO445732   5.111  11.604   5.390
 3451POPC   GL145733   5.018  11.431   5.797
 3451POPC   GL245734   5.165  11.117   5.811
 3451POPC   C1A45735   4.870  11.389   6.206
 3451POPC   D2A45736   5.108  11.500   6.568
 3451POPC   C3A45737   4.930  11.336   6.942
 3451POPC   C4A45738   4.976  11.554   7.327
 3451POPC   C1B45739   5.098  10.895   6.150
 3451POPC   C2B45740   5.220  10.981   6.519
 3451POPC   C3B45741   5.305  10.946   6.918
 3451POPC   C4B45742   5.222  11.069   7.298
 3452POPC   NC345743   3.551  43.695   5.543
 3452POPC   PO445744   3.325  44.270   5.369
 3452POPC   GL145745   3.487  44.158   5.803
 3452POPC   GL245746   3.820  44.122   5.817
 3452POPC   C1A45747   3.466  43.917   6.226
 3452POPC   D2A45748   3.242  43.660   6.547
 3452POPC   C3A45749   3.409  43.737   6.977
 3452POPC   C4A45750   3.438  43.856   7.421
 3452POPC   C1B45751   3.862  44.233   6.225
 3452POPC   C2B45752   3.765  44.072   6.627
 3452POPC   C3B45753   3.674  44.180   7.024
 3452POPC   C4B45754   3.903  43.955   7.289
 3453POPC   NC345755  37.773   6.375   5.486
 3453POPC   PO445756  37.941   7.126   5.470
 3453POPC   GL145757  37.662   6.849   5.754
 3453POPC   GL245758  37.833   6.583   5.952
 3453POPC   C1A45759  37.401   6.906   6.143
 3453POPC   D2A45760  37.293   6.749   6.569
 3453POPC   C3A45761  37.559   6.879   6.882
 3453POPC   C4A45762  37.553   6.707   7.287
 3453POPC   C1B45763  37.529   6.422   6.236
 3453POPC   C2B45764  37.511   6.233   6.611
 3453POPC   C3B45765  37.707   6.386   6.934
 3453POPC   C4B45766  37.916   6.250   7.293
 3454POPC   NC345767   9.948   6.815   5.429
 3454POPC   PO445768   9.498   6.255   5.382
 3454POPC   GL145769   9.619   6.544   5.736
 3454POPC   GL245770   9.484   6.874   5.744
 3454POPC   C1A45771   9.830   6.565   6.170
 3454POPC   D2A45772   9.961   6.429   6.575
 3454POPC   C3A45773  10.063   6.725   6.894
 3454POPC   C4A45774  10.011   6.683   7.346
 3454POPC   C1B45775   9.625   7.041   6.153
 3454POPC   C2B45776   9.830   7.032   6.565
 3454POPC   C3B45777   9.642   6.985   7.019
 3454POPC   C4B45778   9.596   7.001   7.482
 3455POPC   NC345779   0.090  29.509   5.410
 3455POPC   PO445780   0.515  29.029   5.280
 3455POPC   GL145781   0.430  28.951   5.732
 3455POPC   GL245782   0.094  28.769   5.705
 3455POPC   C1A45783   0.543  29.211   6.105
 3455POPC   D2A45784   0.745  29.183   6.524
 3455POPC   C3A45785   0.560  29.317   6.914
 3455POPC   C4A45786   0.762  29.275   7.323
 3455POPC   C1B45787   0.038  28.956   6.114
 3455POPC   C2B45788   0.224  29.111   6.493
 3455POPC   C3B45789   0.128  28.994   6.893
 3455POPC   C4B45790   0.417  28.899   7.163
 3456POPC   NC345791  19.087  24.832   5.122
 3456POPC   PO445792  18.856  25.493   5.366
 3456POPC   GL145793  18.925  25.335   5.762
 3456POPC   GL245794  19.238  25.229   5.763
 3456POPC   C1A45795  19.053  25.504   6.171
 3456POPC   D2A45796  18.908  25.371   6.584
 3456POPC   C3A45797  19.088  25.522   6.977
 3456POPC   C4A45798  18.995  25.633   7.415
 3456POPC   C1B45799  19.171  25.013   6.183
 3456POPC   C2B45800  19.384  24.891   6.529
 3456POPC   C3B45801  19.266  25.031   6.898
 3456POPC   C4B45802  19.063  25.093   7.262
 3457POPC   NC345803  28.762  21.430   5.617
 3457POPC   PO445804  28.144  21.174   5.394
 3457POPC   GL145805  28.270  21.206   5.822
 3457POPC   GL245806  28.589  21.025   5.910
 3457POPC   C1A45807  28.417  21.449   6.169
 3457POPC   D2A45808  28.256  21.440   6.584
 3457POPC   C3A45809  28.516  21.463   6.928
 3457POPC   C4A45810  28.444  21.604   7.323
 3457POPC   C1B45811  28.428  20.994   6.377
 3457POPC   C2B45812  28.156  20.979   6.789
 3457POPC   C3B45813  28.219  21.136   7.217
 3457POPC   C4B45814  28.424  20.933   7.616
 3458POPC   NC345815   5.509  24.075   5.428
 3458POPC   PO445816   5.798  24.617   5.175
 3458POPC   GL145817   5.810  24.420   5.670
 3458POPC   GL245818   5.733  24.115   5.869
 3458POPC   C1A45819   5.733  24.536   6.148
 3458POPC   D2A45820   5.507  24.301   6.464
 3458POPC   C3A45821   5.762  24.264   6.838
 3458POPC   C4A45822   5.848  24.615   7.123
 3458POPC   C1B45823   5.883  24.009   6.222
 3458POPC   C2B45824   6.114  23.974   6.557
 3458POPC   C3B45825   6.262  24.194   6.914
 3458POPC   C4B45826   6.150  24.131   7.337
 3459POPC   NC345827  23.253  15.228   5.502
 3459POPC   PO445828  22.622  15.511   5.462
 3459POPC   GL145829  22.788  15.237   5.769
 3459POPC   GL245830  22.756  14.892   5.660
 3459POPC   C1A45831  23.029  15.331   6.141
 3459POPC   D2A45832  22.954  15.292   6.587
 3459POPC   C3A45833  23.252  15.459   6.898
 3459POPC   C4A45834  23.280  15.184   7.237
 3459POPC   C1B45835  22.946  14.830   6.093
 3459POPC   C2B45836  22.951  14.705   6.547
 3459POPC   C3B45837  22.916  14.915   6.954
 3459POPC   C4B45838  22.738  15.077   7.347
 3460POPC   NC345839  42.989  24.858   5.394
 3460POPC   PO445840  43.205  25.549   5.227
 3460POPC   GL145841  43.165  25.447   5.697
 3460POPC   GL245842  43.249  25.118   5.764
 3460POPC   C1A45843  42.941  25.392   6.126
 3460POPC   D2A45844  42.651  25.269   6.488
 3460POPC   C3A45845  42.855  25.332   6.898
 3460POPC   C4A45846  43.103  25.491   7.263
 3460POPC   C1B45847  43.430  25.116   6.167
 3460POPC   C2B45848  43.217  25.153   6.533
 3460POPC   C3B45849  43.370  25.258   6.908
 3460POPC   C4B45850  43.425  25.052   7.272
 3461POPC   NC345851   2.572   1.644   5.165
 3461POPC   PO445852   2.945   1.073   5.138
 3461POPC   GL145853   2.815   1.193   5.598
 3461POPC   GL245854   3.095   1.264   5.832
 3461POPC   C1A45855   2.593   1.293   6.037
 3461POPC   D2A45856   2.584   1.164   6.519
 3461POPC   C3A45857   2.664   1.333   6.949
 3461POPC   C4A45858   3.027   1.157   7.177
 3461POPC   C1B45859   2.978   0.995   6.211
 3461POPC   C2B45860   3.059   0.984   6.658
 3461POPC   C3B45861   3.094   0.676   6.959
 3461POPC   C4B45862   3.119   0.698   7.376
 3462POPC   NC345863  43.708  40.438   5.330
 3462POPC   PO445864  44.191  40.934   5.206
 3462POPC   GL145865  43.864  40.924   5.680
 3462POPC   GL245866  43.715  40.626   5.814
 3462POPC   C1A45867  43.571  41.065   6.030
 3462POPC   D2A45868  43.455  41.003   6.485
 3462POPC   C3A45869  43.758  40.979   6.843
 3462POPC   C4A45870  43.736  40.795   7.268
 3462POPC   C1B45871  43.986  40.798   6.175
 3462POPC   C2B45872  44.095  40.688   6.585
 3462POPC   C3B45873  44.211  40.746   7.010
 3462POPC   C4B45874  44.182  40.619   7.445
 3463POPC   NC345875  11.795  29.694   5.362
 3463POPC   PO445876  11.897  30.352   5.496
 3463POPC   GL145877  12.161  30.194   5.811
 3463POPC   GL245878  12.195  29.835   5.767
 3463POPC   C1A45879  12.325  30.236   6.207
 3463POPC   D2A45880  12.333  29.968   6.544
 3463POPC   C3A45881  12.319  30.121   6.935
 3463POPC   C4A45882  12.509  29.968   7.277
 3463POPC   C1B45883  11.970  29.861   6.182
 3463POPC   C2B45884  11.874  29.739   6.609
 3463POPC   C3B45885  12.023  29.687   7.017
 3463POPC   C4B45886  11.780  29.946   7.286
 3464POPC   NC345887   2.679  21.155   5.449
 3464POPC   PO445888   3.084  21.646   5.179
 3464POPC   GL145889   3.035  21.486   5.690
 3464POPC   GL245890   2.717  21.480   5.848
 3464POPC   C1A45891   3.013  21.339   6.197
 3464POPC   D2A45892   2.766  21.053   6.477
 3464POPC   C3A45893   2.639  21.200   6.875
 3464POPC   C4A45894   2.914  21.271   7.189
 3464POPC   C1B45895   2.594  21.691   6.247
 3464POPC   C2B45896   2.591  21.753   6.682
 3464POPC   C3B45897   2.595  21.688   7.113
 3464POPC   C4B45898   2.603  21.808   7.565
 3465POPC   NC345899   3.893  20.120   5.366
 3465POPC   PO445900   3.559  19.564   5.450
 3465POPC   GL145901   3.556  19.875   5.778
 3465POPC   GL245902   3.630  19.613   6.020
 3465POPC   C1A45903   3.412  20.047   6.190
 3465POPC   D2A45904   3.599  19.898   6.591
 3465POPC   C3A45905   3.438  19.989   6.998
 3465POPC   C4A45906   3.363  19.699   7.343
 3465POPC   C1B45907   3.919  19.972   6.162
 3465POPC   C2B45908   4.014  20.194   6.572
 3465POPC   C3B45909   3.956  20.068   6.997
 3465POPC   C4B45910   3.872  19.667   7.206
 3466POPC   NC345911  37.581  14.285   5.394
 3466POPC   PO445912  37.990  13.734   5.333
 3466POPC   GL145913  37.949  13.997   5.695
 3466POPC   GL245914  37.608  13.877   5.735
 3466POPC   C1A45915  37.929  13.869   6.145
 3466POPC   D2A45916  37.714  13.656   6.479
 3466POPC   C3A45917  37.848  13.706   6.898
 3466POPC   C4A45918  37.666  13.419   7.187
 3466POPC   C1B45919  37.397  13.902   6.151
 3466POPC   C2B45920  37.202  13.897   6.578
 3466POPC   C3B45921  37.311  13.731   6.994
 3466POPC   C4B45922  37.611  13.919   7.317
 3467POPC   NC345923  29.676   0.344   5.503
 3467POPC   PO445924  29.989   1.000   5.449
 3467POPC   GL145925  29.844   0.750   5.785
 3467POPC   GL245926  30.120   0.548   5.856
 3467POPC   C1A45927  29.728   0.491   6.164
 3467POPC   D2A45928  29.577   0.581   6.589
 3467POPC   C3A45929  29.788   0.568   7.006
 3467POPC   C4A45930  29.622   0.315   7.336
 3467POPC   C1B45931  30.261   0.440   6.240
 3467POPC   C2B45932  30.072   0.382   6.627
 3467POPC   C3B45933  30.130   0.174   7.037
 3467POPC   C4B45934  30.454   0.209   7.324
 3468POPC   NC345935  37.104  25.090   5.227
 3468POPC   PO445936  37.001  25.697   5.517
 3468POPC   GL145937  37.022  25.286   5.732
 3468POPC   GL245938  36.724  25.071   5.745
 3468POPC   C1A45939  37.002  25.117   6.168
 3468POPC   D2A45940  36.810  25.093   6.563
 3468POPC   C3A45941  36.865  25.393   6.871
 3468POPC   C4A45942  36.912  25.098   7.179
 3468POPC   C1B45943  36.497  25.095   6.161
 3468POPC   C2B45944  36.347  25.293   6.567
 3468POPC   C3B45945  36.443  25.148   6.994
 3468POPC   C4B45946  36.295  25.281   7.408
 3469POPC   NC345947  13.341  22.571   5.571
 3469POPC   PO445948  13.848  22.133   5.287
 3469POPC   GL145949  13.662  22.086   5.728
 3469POPC   GL245950  13.294  22.111   5.807
 3469POPC   C1A45951  13.654  22.220   6.191
 3469POPC   D2A45952  13.829  22.449   6.567
 3469POPC   C3A45953  13.753  22.244   6.990
 3469POPC   C4A45954  13.704  21.873   7.277
 3469POPC   C1B45955  13.169  22.369   6.199
 3469POPC   C2B45956  13.316  22.444   6.654
 3469POPC   C3B45957  13.274  22.412   7.124
 3469POPC   C4B45958  13.565  22.318   7.483
 3470POPC   NC345959   9.859  23.411   5.550
 3470POPC   PO445960   9.843  24.054   5.338
 3470POPC   GL145961   9.760  23.895   5.779
 3470POPC   GL245962   9.476  23.644   5.768
 3470POPC   C1A45963  10.014  23.873   6.204
 3470POPC   D2A45964   9.900  23.694   6.591
 3470POPC   C3A45965   9.940  23.917   6.956
 3470POPC   C4A45966   9.869  23.848   7.402
 3470POPC   C1B45967   9.517  23.737   6.210
 3470POPC   C2B45968   9.383  23.606   6.625
 3470POPC   C3B45969   9.465  23.754   7.036
 3470POPC   C4B45970   9.498  24.159   7.247
 3471POPC   NC345971  22.285   5.562   5.598
 3471POPC   PO445972  21.932   5.039   5.339
 3471POPC   GL145973  22.031   5.120   5.774
 3471POPC   GL245974  22.272   4.830   5.826
 3471POPC   C1A45975  22.087   5.257   6.225
 3471POPC   D2A45976  22.286   5.241   6.649
 3471POPC   C3A45977  22.066   4.979   6.951
 3471POPC   C4A45978  21.739   5.120   7.221
 3471POPC   C1B45979  22.404   4.821   6.287
 3471POPC   C2B45980  22.547   4.666   6.713
 3471POPC   C3B45981  22.533   4.814   7.150
 3471POPC   C4B45982  22.405   5.135   7.434
 3472POPC   NC345983   0.410  22.564   5.377
 3472POPC   PO445984   0.367  23.163   5.691
 3472POPC   GL145985   0.332  22.761   5.862
 3472POPC   GL245986   0.679  22.703   5.828
 3472POPC   C1A45987   0.427  22.644   6.295
 3472POPC   D2A45988   0.486  22.934   6.635
 3472POPC   C3A45989   0.420  22.720   7.013
 3472POPC   C4A45990  44.984  22.576   7.154
 3472POPC   C1B45991   0.798  23.015   6.189
 3472POPC   C2B45992   0.807  23.315   6.559
 3472POPC   C3B45993   0.721  23.198   6.998
 3472POPC   C4B45994   0.285  23.211   7.150
 3473POPC   NC345995  14.321  30.978   5.498
 3473POPC   PO445996  14.243  30.321   5.381
 3473POPC   GL145997  14.401  30.532   5.769
 3473POPC   GL245998  14.744  30.620   5.782
 3473POPC   C1A45999  14.475  30.757   6.198
 3473POPC   D2A46000  14.427  30.847   6.625
 3473POPC   C3A46001  14.578  30.775   7.032
 3473POPC   C4A46002  14.205  30.849   7.247
 3473POPC   C1B46003  14.740  30.341   6.162
 3473POPC   C2B46004  14.823  30.519   6.562
 3473POPC   C3B46005  14.862  30.299   6.904
 3473POPC   C4B46006  14.693  30.273   7.274
 3474POPC   NC346007   4.108  13.863   5.413
 3474POPC   PO446008   4.520  13.337   5.412
 3474POPC   GL146009   4.503  13.522   5.812
 3474POPC   GL246010   4.207  13.712   5.878
 3474POPC   C1A46011   4.347  13.384   6.226
 3474POPC   D2A46012   4.082  13.461   6.575
 3474POPC   C3A46013   4.314  13.547   6.936
 3474POPC   C4A46014   4.679  13.559   7.225
 3474POPC   C1B46015   4.256  13.918   6.286
 3474POPC   C2B46016   4.465  14.022   6.690
 3474POPC   C3B46017   4.297  14.031   7.099
 3474POPC   C4B46018   4.040  14.081   7.460
 3475POPC   NC346019  30.307   0.651   5.408
 3475POPC   PO446020  30.868   0.314   5.423
 3475POPC   GL146021  30.986   0.492   5.803
 3475POPC   GL246022  30.642   0.469   5.886
 3475POPC   C1A46023  31.053   0.391   6.246
 3475POPC   D2A46024  30.692   0.353   6.550
 3475POPC   C3A46025  30.829   0.411   6.980
 3475POPC   C4A46026  30.947   0.357   7.419
 3475POPC   C1B46027  30.697   0.762   6.215
 3475POPC   C2B46028  30.446   0.796   6.583
 3475POPC   C3B46029  30.342   0.639   6.976
 3475POPC   C4B46030  30.572   0.698   7.322
 3476POPC   NC346031  34.596  22.566   5.405
 3476POPC   PO446032  34.775  21.866   5.250
 3476POPC   GL146033  34.480  22.014   5.703
 3476POPC   GL246034  34.645  22.317   5.849
 3476POPC   C1A46035  34.565  21.961   6.248
 3476POPC   D2A46036  34.887  22.009   6.649
 3476POPC   C3A46037  34.713  21.898   7.081
 3476POPC   C4A46038  34.268  21.841   7.142
 3476POPC   C1B46039  34.421  22.436   6.233
 3476POPC   C2B46040  34.499  22.333   6.682
 3476POPC   C3B46041  34.349  22.347   7.114
 3476POPC   C4B46042  34.457  22.180   7.501
 3477POPC   NC346043  28.796  18.585   5.431
 3477POPC   PO446044  28.043  18.547   5.508
 3477POPC   GL146045  28.304  18.473   5.885
 3477POPC   GL246046  28.554  18.259   5.781
 3477POPC   C1A46047  28.216  18.348   6.304
 3477POPC   D2A46048  27.997  18.118   6.611
 3477POPC   C3A46049  28.178  18.283   6.974
 3477POPC   C4A46050  28.397  18.593   7.174
 3477POPC   C1B46051  28.681  18.158   6.193
 3477POPC   C2B46052  28.533  18.062   6.627
 3477POPC   C3B46053  28.658  18.153   7.070
 3477POPC   C4B46054  28.557  18.216   7.504
 3478POPC   NC346055  11.974  35.636   5.230
 3478POPC   PO446056  12.383  35.222   5.550
 3478POPC   GL146057  12.205  35.486   5.860
 3478POPC   GL246058  11.859  35.592   5.735
 3478POPC   C1A46059  12.203  35.379   6.338
 3478POPC   D2A46060  12.061  35.006   6.619
 3478POPC   C3A46061  12.050  35.060   7.077
 3478POPC   C4A46062  12.248  35.411   7.273
 3478POPC   C1B46063  11.742  35.381   6.092
 3478POPC   C2B46064  11.717  35.372   6.510
 3478POPC   C3B46065  11.932  35.497   6.857
 3478POPC   C4B46066  11.715  35.428   7.232
 3479POPC   NC346067   1.953  28.956   5.337
 3479POPC   PO446068   2.500  28.684   5.632
 3479POPC   GL146069   2.183  28.970   5.811
 3479POPC   GL246070   1.929  29.233   5.749
 3479POPC   C1A46071   2.088  29.046   6.222
 3479POPC   D2A46072   2.044  28.820   6.574
 3479POPC   C3A46073   1.986  29.061   6.902
 3479POPC   C4A46074   2.083  28.848   7.265
 3479POPC   C1B46075   1.631  29.199   6.080
 3479POPC   C2B46076   1.607  29.108   6.492
 3479POPC   C3B46077   1.467  29.167   6.883
 3479POPC   C4B46078   1.658  29.134   7.278
 3480POPC   NC346079  19.931  13.094   5.356
 3480POPC   PO446080  19.744  12.402   5.336
 3480POPC   GL146081  19.777  12.712   5.713
 3480POPC   GL246082  20.102  12.927   5.801
 3480POPC   C1A46083  19.778  12.828   6.172
 3480POPC   D2A46084  19.678  12.665   6.582
 3480POPC   C3A46085  19.720  12.862   6.970
 3480POPC   C4A46086  19.645  12.570   7.304
 3480POPC   C1B46087  20.289  12.829   6.223
 3480POPC   C2B46088  20.172  12.788   6.640
 3480POPC   C3B46089  20.235  12.956   7.040
 3480POPC   C4B46090  19.940  13.118   7.349
 3481POPC   NC346091   8.244  26.384   5.346
 3481POPC   PO446092   8.334  27.082   5.426
 3481POPC   GL146093   8.209  26.802   5.742
 3481POPC   GL246094   7.870  26.628   5.638
 3481POPC   C1A46095   8.302  26.965   6.182
 3481POPC   D2A46096   8.168  27.106   6.606
 3481POPC   C3A46097   8.275  26.705   6.867
 3481POPC   C4A46098   8.524  26.662   7.255
 3481POPC   C1B46099   7.803  26.812   6.069
 3481POPC   C2B46100   7.874  26.711   6.523
 3481POPC   C3B46101   7.814  26.907   6.963
 3481POPC   C4B46102   7.998  26.674   7.324
 3482POPC   NC346103  23.652  44.930   5.396
 3482POPC   PO446104  23.967  44.253   5.355
 3482POPC   GL146105  23.923  44.546   5.739
 3482POPC   GL246106  24.023  44.916   5.792
 3482POPC   C1A46107  23.837  44.607   6.205
 3482POPC   D2A46108  23.772  44.404   6.626
 3482POPC   C3A46109  24.021  44.592   6.957
 3482POPC   C4A46110  23.956  44.819   7.383
 3482POPC   C1B46111  23.651   0.076   6.069
 3482POPC   C2B46112  23.485  44.915   6.468
 3482POPC   C3B46113  23.585  44.845   6.897
 3482POPC   C4B46114  23.410   0.015   7.246
 3483POPC   NC346115  11.086  18.316   5.355
 3483POPC   PO446116  11.785  18.167   5.318
 3483POPC   GL146117  11.556  18.289   5.715
 3483POPC   GL246118  11.234  18.468   5.812
 3483POPC   C1A46119  11.550  18.194   6.164
 3483POPC   D2A46120  11.370  18.310   6.530
 3483POPC   C3A46121  11.524  18.254   6.928
 3483POPC   C4A46122  11.318  18.391   7.282
 3483POPC   C1B46123  11.021  18.228   6.131
 3483POPC   C2B46124  10.856  18.282   6.540
 3483POPC   C3B46125  11.022  18.121   6.914
 3483POPC   C4B46126  11.035  17.977   7.315
 3484POPC   NC346127  41.427   6.696   5.580
 3484POPC   PO446128  42.079   6.661   5.511
 3484POPC   GL146129  42.001   6.508   5.899
 3484POPC   GL246130  41.706   6.677   6.023
 3484POPC   C1A46131  42.092   6.528   6.325
 3484POPC   D2A46132  41.844   6.741   6.599
 3484POPC   C3A46133  41.598   6.491   6.876
 3484POPC   C4A46134  41.422   6.753   7.166
 3484POPC   C1B46135  41.430   6.531   6.377
 3484POPC   C2B46136  41.146   6.703   6.692
 3484POPC   C3B46137  40.935   6.897   7.035
 3484POPC   C4B46138  41.076   6.906   7.494
 3485POPC   NC346139  31.901  20.881   5.173
 3485POPC   PO446140  31.495  21.428   5.392
 3485POPC   GL146141  31.537  21.347   5.819
 3485POPC   GL246142  31.223  21.397   5.882
 3485POPC   C1A46143  31.698  21.541   6.206
 3485POPC   D2A46144  31.684  21.653   6.661
 3485POPC   C3A46145  31.566  21.452   7.059
 3485POPC   C4A46146  31.851  21.378   7.417
 3485POPC   C1B46147  31.277  21.275   6.286
 3485POPC   C2B46148  31.201  21.485   6.636
 3485POPC   C3B46149  31.033  21.500   7.000
 3485POPC   C4B46150  31.073  21.294   7.366
 3486POPC   NC346151  31.081  37.000   5.096
 3486POPC   PO446152  31.695  36.738   5.330
 3486POPC   GL146153  31.525  36.809   5.756
 3486POPC   GL246154  31.216  36.905   5.679
 3486POPC   C1A46155  31.524  36.742   6.218
 3486POPC   D2A46156  31.625  36.984   6.615
 3486POPC   C3A46157  31.467  36.839   6.981
 3486POPC   C4A46158  31.650  36.840   7.391
 3486POPC   C1B46159  31.096  37.048   6.109
 3486POPC   C2B46160  31.135  36.894   6.546
 3486POPC   C3B46161  30.999  37.056   6.967
 3486POPC   C4B46162  31.164  36.985   7.393
 3487POPC   NC346163  27.948  29.438   5.370
 3487POPC   PO446164  27.589  28.887   5.517
 3487POPC   GL146165  27.525  29.033   5.892
 3487POPC   GL246166  27.462  29.398   5.779
 3487POPC   C1A46167  27.630  28.902   6.332
 3487POPC   D2A46168  27.842  28.887   6.755
 3487POPC   C3A46169  27.740  29.084   7.155
 3487POPC   C4A46170  27.371  29.117   7.410
 3487POPC   C1B46171  27.386  29.357   6.226
 3487POPC   C2B46172  27.595  29.343   6.596
 3487POPC   C3B46173  27.413  29.379   6.944
 3487POPC   C4B46174  27.578  29.590   7.283
 3488POPC   NC346175  24.197  40.299   5.393
 3488POPC   PO446176  23.576  40.164   5.267
 3488POPC   GL146177  23.789  39.957   5.671
 3488POPC   GL246178  24.170  39.827   5.688
 3488POPC   C1A46179  23.704  39.953   6.170
 3488POPC   D2A46180  23.591  40.150   6.609
 3488POPC   C3A46181  23.542  39.865   6.974
 3488POPC   C4A46182  23.554  39.778   7.430
 3488POPC   C1B46183  24.135  40.159   6.011
 3488POPC   C2B46184  24.060  40.244   6.436
 3488POPC   C3B46185  24.036  39.889   6.734
 3488POPC   C4B46186  24.012  39.917   7.190
 3489POPC   NC346187  16.802  38.297   5.464
 3489POPC   PO446188  16.664  38.964   5.544
 3489POPC   GL146189  16.991  38.719   5.829
 3489POPC   GL246190  17.057  38.326   5.875
 3489POPC   C1A46191  16.871  38.632   6.233
 3489POPC   D2A46192  16.763  38.491   6.632
 3489POPC   C3A46193  16.851  38.731   7.004
 3489POPC   C4A46194  16.797  38.681   7.451
 3489POPC   C1B46195  17.003  38.126   6.227
 3489POPC   C2B46196  17.137  38.145   6.650
 3489POPC   C3B46197  16.939  38.228   7.066
 3489POPC   C4B46198  17.118  38.262   7.466
 3490POPC   NC346199  26.385  29.037   5.439
 3490POPC   PO446200  25.982  29.467   5.436
 3490POPC   GL146201  26.162  29.367   5.806
 3490POPC   GL246202  26.154  29.009   5.904
 3490POPC   C1A46203  25.981  29.395   6.203
 3490POPC   D2A46204  25.943  29.017   6.455
 3490POPC   C3A46205  26.135  29.085   6.868
 3490POPC   C4A46206  26.151  29.314   7.293
 3490POPC   C1B46207  26.427  28.954   6.270
 3490POPC   C2B46208  26.635  28.983   6.690
 3490POPC   C3B46209  26.521  28.773   7.084
 3490POPC   C4B46210  26.107  28.810   7.299
 3491POPC   NC346211  41.397  21.550   5.435
 3491POPC   PO446212  41.862  21.039   5.451
 3491POPC   GL146213  41.632  21.233   5.762
 3491POPC   GL246214  41.259  21.185   5.792
 3491POPC   C1A46215  41.646  21.477   6.131
 3491POPC   D2A46216  41.462  21.323   6.498
 3491POPC   C3A46217  41.673  21.388   6.819
 3491POPC   C4A46218  41.578  21.387   7.195
 3491POPC   C1B46219  41.444  20.962   6.147
 3491POPC   C2B46220  41.278  20.848   6.545
 3491POPC   C3B46221  41.267  21.047   6.949
 3491POPC   C4B46222  41.214  21.089   7.412
 3492POPC   NC346223  11.736   7.765   5.408
 3492POPC   PO446224  12.376   7.379   5.380
 3492POPC   GL146225  12.122   7.410   5.789
 3492POPC   GL246226  11.875   7.145   5.904
 3492POPC   C1A46227  12.196   7.322   6.251
 3492POPC   D2A46228  12.261   7.134   6.643
 3492POPC   C3A46229  12.238   7.400   6.989
 3492POPC   C4A46230  12.384   7.281   7.354
 3492POPC   C1B46231  11.677   7.375   6.250
 3492POPC   C2B46232  11.814   7.443   6.671
 3492POPC   C3B46233  11.721   7.295   7.082
 3492POPC   C4B46234  11.593   7.356   7.493
 3493POPC   NC346235   1.343  12.954   5.298
 3493POPC   PO446236   1.505  12.408   5.621
 3493POPC   GL146237   1.271  12.728   5.786
 3493POPC   GL246238   1.334  13.085   5.797
 3493POPC   C1A46239   1.148  12.782   6.202
 3493POPC   D2A46240   1.084  12.496   6.526
 3493POPC   C3A46241   1.335  12.627   6.874
 3493POPC   C4A46242   1.083  12.470   7.184
 3493POPC   C1B46243   1.183  13.301   6.176
 3493POPC   C2B46244   1.273  13.263   6.600
 3493POPC   C3B46245   1.146  13.317   7.016
 3493POPC   C4B46246   1.169  12.946   7.264
 3494POPC   NC346247  12.552  23.985   5.516
 3494POPC   PO446248  11.915  23.703   5.419
 3494POPC   GL146249  12.120  23.750   5.806
 3494POPC   GL246250  11.915  24.044   5.865
 3494POPC   C1A46251  12.269  23.705   6.249
 3494POPC   D2A46252  12.495  23.854   6.618
 3494POPC   C3A46253  12.374  23.732   7.041
 3494POPC   C4A46254  12.037  23.970   7.217
 3494POPC   C1B46255  11.813  23.978   6.295
 3494POPC   C2B46256  11.972  23.837   6.711
 3494POPC   C3B46257  11.915  23.498   7.055
 3494POPC   C4B46258  11.803  23.397   7.509
 3495POPC   NC346259  43.118  39.541   5.050
 3495POPC   PO446260  43.520  39.088   5.154
 3495POPC   GL146261  43.281  39.093   5.655
 3495POPC   GL246262  43.084  39.349   5.902
 3495POPC   C1A46263  43.280  38.956   6.125
 3495POPC   D2A46264  43.152  39.172   6.482
 3495POPC   C3A46265  43.231  39.085   6.900
 3495POPC   C4A46266  43.024  39.332   7.231
 3495POPC   C1B46267  43.455  39.445   6.146
 3495POPC   C2B46268  43.548  39.578   6.556
 3495POPC   C3B46269  43.429  39.569   6.974
 3495POPC   C4B46270  43.622  39.291   7.239
 3496POPC   NC346271  40.322   9.087   5.477
 3496POPC   PO446272  40.918   8.742   5.419
 3496POPC   GL146273  40.782   8.960   5.744
 3496POPC   GL246274  40.825   9.286   5.604
 3496POPC   C1A46275  40.681   8.910   6.172
 3496POPC   D2A46276  40.767   8.685   6.543
 3496POPC   C3A46277  40.588   8.941   6.857
 3496POPC   C4A46278  40.668   8.876   7.267
 3496POPC   C1B46279  41.056   9.303   6.031
 3496POPC   C2B46280  41.129   9.415   6.474
 3496POPC   C3B46281  40.973   9.337   6.894
 3496POPC   C4B46282  40.646   9.387   7.193
 3497POPC   NC346283   7.693  16.153   5.331
 3497POPC   PO446284   7.247  15.815   5.218
 3497POPC   GL146285   7.389  15.923   5.690
 3497POPC   GL246286   7.585  15.678   5.846
 3497POPC   C1A46287   7.349  15.914   6.202
 3497POPC   D2A46288   7.529  15.707   6.598
 3497POPC   C3A46289   7.423  15.980   6.923
 3497POPC   C4A46290   7.170  16.014   7.306
 3497POPC   C1B46291   7.854  15.779   6.223
 3497POPC   C2B46292   7.871  16.117   6.572
 3497POPC   C3B46293   7.771  16.338   6.999
 3497POPC   C4B46294   7.503  16.415   7.389
 3498POPC   NC346295  14.845  35.852   5.665
 3498POPC   PO446296  15.304  36.103   5.272
 3498POPC   GL146297  15.280  36.116   5.737
 3498POPC   GL246298  15.555  36.339   5.799
 3498POPC   C1A46299  15.106  36.342   6.146
 3498POPC   D2A46300  14.838  36.212   6.492
 3498POPC   C3A46301  14.874  36.367   6.915
 3498POPC   C4A46302  15.102  36.248   7.248
 3498POPC   C1B46303  15.531  36.084   6.166
 3498POPC   C2B46304  15.338  36.042   6.541
 3498POPC   C3B46305  15.475  36.101   6.936
 3498POPC   C4B46306  15.621  36.277   7.296
 3499POPC   NC346307  22.161  42.911   5.487
 3499POPC   PO446308  22.013  43.512   5.303
 3499POPC   GL146309  22.054  43.394   5.764
 3499POPC   GL246310  21.848  43.131   5.911
 3499POPC   C1A46311  22.261  43.237   6.174
 3499POPC   D2A46312  22.176  43.065   6.599
 3499POPC   C3A46313  22.319  43.237   7.012
 3499POPC   C4A46314  22.520  42.891   7.240
 3499POPC   C1B46315  21.771  43.373   6.294
 3499POPC   C2B46316  21.823  43.393   6.719
 3499POPC   C3B46317  21.809  43.138   7.048
 3499POPC   C4B46318  21.818  43.292   7.429
 3500POPC   NC346319  25.453  39.045   5.265
 3500POPC   PO446320  25.005  39.503   5.328
 3500POPC   GL146321  25.167  39.389   5.771
 3500POPC   GL246322  25.457  39.155   5.771
 3500POPC   C1A46323  25.343  39.413   6.225
 3500POPC   D2A46324  25.255  39.166   6.616
 3500POPC   C3A46325  25.294  39.240   7.058
 3500POPC   C4A46326  25.438  39.295   7.471
 3500POPC   C1B46327  25.701  39.045   6.156
 3500POPC   C2B46328  25.609  38.815   6.503
 3500POPC   C3B46329  25.657  38.912   6.898
 3500POPC   C4B46330  25.834  39.068   7.272
 3501POPC   NC346331  23.223  32.300   5.447
 3501POPC   PO446332  22.554  32.115   5.543
 3501POPC   GL146333  22.916  32.089   5.816
 3501POPC   GL246334  22.991  32.436   5.874
 3501POPC   C1A46335  22.852  32.083   6.270
 3501POPC   D2A46336  22.520  32.256   6.576
 3501POPC   C3A46337  22.637  32.195   7.016
 3501POPC   C4A46338  22.979  32.096   7.288
 3501POPC   C1B46339  22.910  32.593   6.280
 3501POPC   C2B46340  23.003  32.380   6.684
 3501POPC   C3B46341  22.990  32.585   7.065
 3501POPC   C4B46342  23.257  32.528   7.392
 3502POPC   NC346343  18.058  33.215   5.408
 3502POPC   PO446344  18.497  33.670   5.433
 3502POPC   GL146345  18.438  33.333   5.778
 3502POPC   GL246346  18.063  33.365   5.891
 3502POPC   C1A46347  18.371  33.154   6.218
 3502POPC   D2A46348  18.019  33.192   6.493
 3502POPC   C3A46349  18.163  32.993   6.817
 3502POPC   C4A46350  18.269  33.012   7.206
 3502POPC   C1B46351  17.958  32.911   6.050
 3502POPC   C2B46352  18.116  32.657   6.413
 3502POPC   C3B46353  18.035  32.500   6.836
 3502POPC   C4B46354  17.824  32.731   7.119
 3503POPC   NC346355  41.124  40.146   5.473
 3503POPC   PO446356  41.844  40.275   5.419
 3503POPC   GL146357  41.567  40.052   5.724
 3503POPC   GL246358  41.358  40.274   5.923
 3503POPC   C1A46359  41.475  39.800   6.116
 3503POPC   D2A46360  41.322  39.784   6.536
 3503POPC   C3A46361  41.567  39.887   6.871
 3503POPC   C4A46362  41.407  40.164   7.135
 3503POPC   C1B46363  41.786  40.202   6.191
 3503POPC   C2B46364  41.941  40.256   6.663
 3503POPC   C3B46365  41.920  40.187   7.144
 3503POPC   C4B46366  42.012  40.030   7.569
 3504POPC   NC346367   4.293  28.090   5.462
 3504POPC   PO446368   4.646  27.498   5.466
 3504POPC   GL146369   4.234  27.561   5.682
 3504POPC   GL246370   4.248  27.854   5.928
 3504POPC   C1A46371   4.047  27.390   6.088
 3504POPC   D2A46372   4.136  27.615   6.470
 3504POPC   C3A46373   4.077  27.461   6.878
 3504POPC   C4A46374   4.211  27.678   7.264
 3504POPC   C1B46375   4.548  27.542   6.112
 3504POPC   C2B46376   4.738  27.473   6.497
 3504POPC   C3B46377   4.590  27.580   6.886
 3504POPC   C4B46378   4.643  27.411   7.261
 3505POPC   NC346379   6.596  31.137   5.380
 3505POPC   PO446380   6.487  31.802   5.227
 3505POPC   GL146381   6.653  31.684   5.674
 3505POPC   GL246382   6.714  31.374   5.828
 3505POPC   C1A46383   6.823  31.709   6.159
 3505POPC   D2A46384   6.889  31.779   6.596
 3505POPC   C3A46385   6.635  31.621   6.913
 3505POPC   C4A46386   6.694  31.585   7.346
 3505POPC   C1B46387   6.494  31.297   6.259
 3505POPC   C2B46388   6.283  31.320   6.701
 3505POPC   C3B46389   6.439  31.179   7.137
 3505POPC   C4B46390   6.341  31.268   7.598
 3506POPC   NC346391   0.562  25.030   5.431
 3506POPC   PO446392   0.508  25.692   5.465
 3506POPC   GL146393   0.601  25.429   5.811
 3506POPC   GL246394   0.270  25.359   5.850
 3506POPC   C1A46395   0.590  25.157   6.211
 3506POPC   D2A46396   0.748  24.968   6.627
 3506POPC   C3A46397   0.558  25.198   6.999
 3506POPC   C4A46398   0.707  25.404   7.358
 3506POPC   C1B46399   0.270  25.579   6.247
 3506POPC   C2B46400   0.111  25.500   6.659
 3506POPC   C3B46401   0.209  25.569   7.089
 3506POPC   C4B46402   0.248  25.405   7.542
 3507POPC   NC346403   2.389   2.185   5.576
 3507POPC   PO446404   2.939   1.932   5.261
 3507POPC   GL146405   2.856   1.774   5.674
 3507POPC   GL246406   3.139   1.969   5.807
 3507POPC   C1A46407   2.693   1.846   6.120
 3507POPC   D2A46408   2.476   2.035   6.504
 3507POPC   C3A46409   2.597   1.951   6.959
 3507POPC   C4A46410   2.649   2.310   7.258
 3507POPC   C1B46411   3.180   2.036   6.251
 3507POPC   C2B46412   3.012   2.103   6.675
 3507POPC   C3B46413   3.086   2.092   7.110
 3507POPC   C4B46414   3.031   1.671   7.212
 3508POPC   NC346415  17.849   3.801   5.379
 3508POPC   PO446416  17.370   3.342   5.518
 3508POPC   GL146417  17.431   3.480   5.907
 3508POPC   GL246418  17.546   3.824   5.874
 3508POPC   C1A46419  17.506   3.572   6.314
 3508POPC   D2A46420  17.568   3.866   6.606
 3508POPC   C3A46421  17.595   3.602   6.913
 3508POPC   C4A46422  17.579   3.302   7.230
 3508POPC   C1B46423  17.291   4.062   6.206
 3508POPC   C2B46424  17.164   4.175   6.657
 3508POPC   C3B46425  17.201   3.897   7.039
 3508POPC   C4B46426  17.559   3.805   7.357
 3509POPC   NC346427   0.897  38.951   5.537
 3509POPC   PO446428   1.355  39.286   5.186
 3509POPC   GL146429   1.128  39.357   5.695
 3509POPC   GL246430   1.418  39.322   5.941
 3509POPC   C1A46431   1.015  39.095   6.146
 3509POPC   D2A46432   1.302  39.138   6.499
 3509POPC   C3A46433   1.240  38.971   6.908
 3509POPC   C4A46434   1.375  39.153   7.311
 3509POPC   C1B46435   1.096  39.590   6.151
 3509POPC   C2B46436   0.995  39.613   6.573
 3509POPC   C3B46437   1.202  39.471   6.929
 3509POPC   C4B46438   1.046  39.555   7.321
 3510POPC   NC346439   0.595  24.353   5.300
 3510POPC   PO446440   0.153  24.758   5.491
 3510POPC   GL146441   0.428  24.554   5.771
 3510POPC   GL246442   0.178  24.289   5.768
 3510POPC   C1A46443   0.660  24.635   6.183
 3510POPC   D2A46444   0.522  24.499   6.618
 3510POPC   C3A46445   0.598  24.701   7.072
 3510POPC   C4A46446   0.564  24.918   7.506
 3510POPC   C1B46447   0.114  24.442   6.196
 3510POPC   C2B46448   0.041  24.313   6.617
 3510POPC   C3B46449   0.183  24.427   7.024
 3510POPC   C4B46450   0.195  24.574   7.473
 3511POPC   NC346451   5.255  41.871   5.359
 3511POPC   PO446452   5.105  42.470   5.332
 3511POPC   GL146453   5.138  42.388   5.795
 3511POPC   GL246454   4.896  42.088   5.788
 3511POPC   C1A46455   5.267  42.529   6.256
 3511POPC   D2A46456   5.451  42.529   6.692
 3511POPC   C3A46457   5.238  42.398   7.071
 3511POPC   C4A46458   5.205  42.599   7.460
 3511POPC   C1B46459   5.113  42.047   6.202
 3511POPC   C2B46460   5.246  42.054   6.651
 3511POPC   C3B46461   5.392  41.920   7.072
 3511POPC   C4B46462   5.200  42.066   7.493
 3512POPC   NC346463  13.338  31.658   5.431
 3512POPC   PO446464  13.944  31.270   5.480
 3512POPC   GL146465  13.757  31.306   5.895
 3512POPC   GL246466  13.386  31.381   5.886
 3512POPC   C1A46467  13.574  31.148   6.292
 3512POPC   D2A46468  13.460  30.918   6.649
 3512POPC   C3A46469  13.651  31.193   6.951
 3512POPC   C4A46470  13.405  31.527   7.082
 3512POPC   C1B46471  13.430  31.682   6.260
 3512POPC   C2B46472  13.329  31.884   6.679
 3512POPC   C3B46473  13.552  32.008   7.061
 3512POPC   C4B46474  13.976  31.877   7.236
 3513POPC   NC346475  36.835  13.885   5.340
 3513POPC   PO446476  37.375  13.437   5.496
 3513POPC   GL146477  37.095  13.685   5.761
 3513POPC   GL246478  36.792  13.497   5.683
 3513POPC   C1A46479  36.867  13.935   6.090
 3513POPC   D2A46480  36.773  14.165   6.490
 3513POPC   C3A46481  36.724  13.938   6.903
 3513POPC   C4A46482  36.828  13.692   7.297
 3513POPC   C1B46483  36.746  13.392   6.110
 3513POPC   C2B46484  36.745  13.610   6.504
 3513POPC   C3B46485  36.893  13.447   6.862
 3513POPC   C4B46486  37.178  13.255   7.147
 3514POPC   NC346487   0.247  19.927   5.518
 3514POPC   PO446488   0.922  19.741   5.557
 3514POPC   GL146489   0.610  19.664   5.804
 3514POPC   GL246490   0.389  19.448   5.616
 3514POPC   C1A46491   0.484  19.797   6.208
 3514POPC   D2A46492   0.306  19.947   6.572
 3514POPC   C3A46493   0.556  19.833   6.884
 3514POPC   C4A46494   0.505  19.899   7.272
 3514POPC   C1B46495   0.168  19.449   5.993
 3514POPC   C2B46496   0.099  19.501   6.418
 3514POPC   C3B46497   0.218  19.450   6.825
 3514POPC   C4B46498   0.106  19.504   7.239
 3515POPC   NC346499   0.839   6.188   5.496
 3515POPC   PO446500   1.423   6.069   5.479
 3515POPC   GL146501   1.404   5.868   5.871
 3515POPC   GL246502   1.054   5.893   5.855
 3515POPC   C1A46503   1.235   5.800   6.312
 3515POPC   D2A46504   1.042   5.680   6.694
 3515POPC   C3A46505   1.227   5.880   7.055
 3515POPC   C4A46506   1.189   5.871   7.506
 3515POPC   C1B46507   0.913   6.231   6.151
 3515POPC   C2B46508   0.829   6.154   6.573
 3515POPC   C3B46509   0.962   6.306   6.925
 3515POPC   C4B46510   0.947   6.262   7.312
 3516POPC   NC346511   0.360  11.545   5.467
 3516POPC   PO446512   0.634  10.948   5.268
 3516POPC   GL146513   0.700  11.134   5.716
 3516POPC   GL246514   0.369  11.220   5.874
 3516POPC   C1A46515   0.713  11.160   6.214
 3516POPC   D2A46516   0.460  11.185   6.593
 3516POPC   C3A46517   0.528  11.455   6.939
 3516POPC   C4A46518   0.759  11.484   7.325
 3516POPC   C1B46519   0.059  11.166   6.234
 3516POPC   C2B46520  44.940  11.062   6.673
 3516POPC   C3B46521   0.045  11.243   7.075
 3516POPC   C4B46522   0.256  11.491   7.433
 3517POPC   NC346523  35.427  42.659   5.453
 3517POPC   PO446524  35.741  41.997   5.361
 3517POPC   GL146525  35.480  42.075   5.777
 3517POPC   GL246526  35.521  42.420   5.868
 3517POPC   C1A46527  35.256  42.200   6.213
 3517POPC   D2A46528  35.417  42.455   6.555
 3517POPC   C3A46529  35.310  42.245   6.915
 3517POPC   C4A46530  35.211  42.230   7.318
 3517POPC   C1B46531  35.216  42.708   6.114
 3517POPC   C2B46532  34.961  42.693   6.506
 3517POPC   C3B46533  35.112  42.744   6.933
 3517POPC   C4B46534  34.905  42.703   7.335
 3518POPC   NC346535  18.758   4.484   5.434
 3518POPC   PO446536  19.254   4.076   5.481
 3518POPC   GL146537  19.065   4.291   5.814
 3518POPC   GL246538  19.092   4.645   5.785
 3518POPC   C1A46539  18.893   4.411   6.202
 3518POPC   D2A46540  19.052   4.558   6.567
 3518POPC   C3A46541  19.048   4.288   6.919
 3518POPC   C4A46542  18.761   4.436   7.236
 3518POPC   C1B46543  19.374   4.631   6.146
 3518POPC   C2B46544  19.546   4.697   6.571
 3518POPC   C3B46545  19.326   4.756   6.951
 3518POPC   C4B46546  19.261   4.575   7.309
 3519POPC   NC346547  21.479  26.333   5.210
 3519POPC   PO446548  21.556  25.755   5.477
 3519POPC   GL146549  21.586  26.160   5.717
 3519POPC   GL246550  21.200  26.213   5.659
 3519POPC   C1A46551  21.783  26.203   6.163
 3519POPC   D2A46552  21.611  26.162   6.587
 3519POPC   C3A46553  21.643  25.996   7.024
 3519POPC   C4A46554  21.318  25.705   7.139
 3519POPC   C1B46555  20.989  25.987   6.009
 3519POPC   C2B46556  20.880  26.050   6.456
 3519POPC   C3B46557  21.138  26.093   6.823
 3519POPC   C4B46558  21.091  26.223   7.213
 3520POPC   NC346559  21.948  24.866   5.424
 3520POPC   PO446560  22.526  24.598   5.595
 3520POPC   GL146561  22.346  24.290   5.860
 3520POPC   GL246562  21.992  24.340   5.744
 3520POPC   C1A46563  22.441  24.230   6.279
 3520POPC   D2A46564  22.285  24.475   6.588
 3520POPC   C3A46565  22.297  24.348   6.981
 3520POPC   C4A46566  22.195  24.641   7.306
 3520POPC   C1B46567  21.960  24.566   6.148
 3520POPC   C2B46568  21.793  24.398   6.543
 3520POPC   C3B46569  21.844  24.592   6.929
 3520POPC   C4B46570  21.710  24.448   7.328
 3521POPC   NC346571  26.454   8.360   5.461
 3521POPC   PO446572  26.896   7.896   5.338
 3521POPC   GL146573  26.803   8.081   5.695
 3521POPC   GL246574  26.465   7.958   5.808
 3521POPC   C1A46575  26.880   8.174   6.093
 3521POPC   D2A46576  27.006   8.141   6.516
 3521POPC   C3A46577  27.334   8.332   6.755
 3521POPC   C4A46578  27.154   8.215   7.157
 3521POPC   C1B46579  26.501   7.888   6.257
 3521POPC   C2B46580  26.487   8.189   6.600
 3521POPC   C3B46581  26.610   8.146   7.023
 3521POPC   C4B46582  26.446   7.730   7.140
 3522POPC   NC346583   5.985  21.880   5.165
 3522POPC   PO446584   5.668  21.390   5.576
 3522POPC   GL146585   5.721  21.413   6.000
 3522POPC   GL246586   5.724  21.078   6.055
 3522POPC   C1A46587   5.804  21.724   6.340
 3522POPC   D2A46588   5.806  21.833   6.781
 3522POPC   C3A46589   5.704  21.450   6.998
 3522POPC   C4A46590   5.773  21.215   7.359
 3522POPC   C1B46591   6.115  21.270   6.285
 3522POPC   C2B46592   6.176  21.503   6.681
 3522POPC   C3B46593   6.209  21.450   7.140
 3522POPC   C4B46594   6.394  21.139   7.449
 3523POPC   NC346595   8.698  39.204   5.505
 3523POPC   PO446596   9.042  39.763   5.297
 3523POPC   GL146597   9.014  39.606   5.714
 3523POPC   GL246598   8.696  39.704   5.859
 3523POPC   C1A46599   9.077  39.473   6.148
 3523POPC   D2A46600   9.022  39.396   6.595
 3523POPC   C3A46601   9.189  38.989   6.733
 3523POPC   C4A46602   9.213  38.890   7.190
 3523POPC   C1B46603   8.577  39.411   6.225
 3523POPC   C2B46604   8.533  39.311   6.679
 3523POPC   C3B46605   8.790  39.138   7.002
 3523POPC   C4B46606   8.758  38.967   7.415
 3524POPC   NC346607   5.222  38.179   5.486
 3524POPC   PO446608   5.081  38.891   5.581
 3524POPC   GL146609   4.947  38.659   5.950
 3524POPC   GL246610   5.088  38.309   5.968
 3524POPC   C1A46611   5.040  38.564   6.401
 3524POPC   D2A46612   5.375  38.600   6.708
 3524POPC   C3A46613   5.239  38.684   7.146
 3524POPC   C4A46614   4.842  38.827   7.354
 3524POPC   C1B46615   5.232  38.066   6.332
 3524POPC   C2B46616   5.427  38.042   6.738
 3524POPC   C3B46617   5.246  38.062   7.157
 3524POPC   C4B46618   5.006  38.336   7.442
 3525POPC   NC346619  24.519  30.162   5.373
 3525POPC   PO446620  24.446  29.609   5.750
 3525POPC   GL146621  24.441  30.038   5.866
 3525POPC   GL246622  24.809  30.024   5.803
 3525POPC   C1A46623  24.269  30.306   6.212
 3525POPC   D2A46624  24.448  30.327   6.643
 3525POPC   C3A46625  24.569  29.922   6.829
 3525POPC   C4A46626  24.288  29.861   7.135
 3525POPC   C1B46627  24.795  30.292   6.180
 3525POPC   C2B46628  24.930  30.459   6.579
 3525POPC   C3B46629  24.967  30.208   6.944
 3525POPC   C4B46630  24.713  30.109   7.321
 3526POPC   NC346631  17.926  44.568   5.565
 3526POPC   PO446632  17.387  44.579   5.168
 3526POPC   GL146633  17.459  44.799   5.582
 3526POPC   GL246634  17.450  44.499   5.751
 3526POPC   C1A46635  17.608  44.956   6.023
 3526POPC   D2A46636  17.503   0.159   6.441
 3526POPC   C3A46637  17.340  44.901   6.791
 3526POPC   C4A46638  17.658  44.769   7.072
 3526POPC   C1B46639  17.625  44.432   6.146
 3526POPC   C2B46640  17.667  44.257   6.524
 3526POPC   C3B46641  17.759  44.265   6.927
 3526POPC   C4B46642  17.400  44.351   7.170
 3527POPC   NC346643  33.424   6.595   5.357
 3527POPC   PO446644  34.055   6.625   5.443
 3527POPC   GL146645  33.725   6.643   5.765
 3527POPC   GL246646  33.690   6.289   5.682
 3527POPC   C1A46647  33.612   6.817   6.191
 3527POPC   D2A46648  33.662   7.068   6.591
 3527POPC   C3A46649  33.889   6.896   6.963
 3527POPC   C4A46650  34.080   6.542   7.225
 3527POPC   C1B46651  33.567   6.233   6.098
 3527POPC   C2B46652  33.642   6.390   6.494
 3527POPC   C3B46653  33.640   6.463   6.910
 3527POPC   C4B46654  33.685   6.205   7.250
 3528POPC   NC346655  32.883  38.217   5.142
 3528POPC   PO446656  33.390  38.498   5.291
 3528POPC   GL146657  33.097  38.316   5.653
 3528POPC   GL246658  32.756  38.170   5.690
 3528POPC   C1A46659  33.096  38.417   6.108
 3528POPC   D2A46660  33.129  38.713   6.472
 3528POPC   C3A46661  33.174  38.508   6.874
 3528POPC   C4A46662  33.019  38.424   7.268
 3528POPC   C1B46663  32.603  38.273   6.121
 3528POPC   C2B46664  32.731  38.330   6.570
 3528POPC   C3B46665  32.642  38.210   7.017
 3528POPC   C4B46666  32.580  38.252   7.497
 3529POPC   NC346667  32.193  44.921   5.490
 3529POPC   PO446668  32.044  44.287   5.358
 3529POPC   GL146669  32.226  44.477   5.767
 3529POPC   GL246670  32.541  44.722   5.786
 3529POPC   C1A46671  32.026  44.610   6.171
 3529POPC   D2A46672  31.955  44.401   6.592
 3529POPC   C3A46673  32.131  44.562   7.009
 3529POPC   C4A46674  32.058  44.524   7.471
 3529POPC   C1B46675  32.549  44.584   6.200
 3529POPC   C2B46676  32.471  44.515   6.596
 3529POPC   C3B46677  32.695  44.623   6.932
 3529POPC   C4B46678  32.544  44.657   7.317
 3530POPC   NC346679  25.531   6.685   5.371
 3530POPC   PO446680  24.888   7.104   5.432
 3530POPC   GL146681  25.176   6.847   5.717
 3530POPC   GL246682  25.505   6.975   5.812
 3530POPC   C1A46683  25.234   6.613   6.115
 3530POPC   D2A46684  25.218   6.748   6.558
 3530POPC   C3A46685  25.521   6.866   6.870
 3530POPC   C4A46686  25.422   6.849   7.305
 3530POPC   C1B46687  25.672   6.823   6.268
 3530POPC   C2B46688  25.636   6.459   6.568
 3530POPC   C3B46689  25.391   6.385   6.999
 3530POPC   C4B46690  25.423   6.390   7.515
 3531POPC   NC346691  29.731  37.489   5.477
 3531POPC   PO446692  30.230  37.935   5.619
 3531POPC   GL146693  30.311  37.558   5.832
 3531POPC   GL246694  29.951  37.557   5.930
 3531POPC   C1A46695  30.301  37.513   6.288
 3531POPC   D2A46696  30.006  37.633   6.628
 3531POPC   C3A46697  30.074  37.504   7.045
 3531POPC   C4A46698  30.406  37.513   7.348
 3531POPC   C1B46699  29.632  37.554   6.258
 3531POPC   C2B46700  29.466  37.773   6.628
 3531POPC   C3B46701  29.631  37.896   7.038
 3531POPC   C4B46702  29.636  37.886   7.490
 3532POPC   NC346703  27.649  17.674   5.340
 3532POPC   PO446704  27.282  17.098   5.613
 3532POPC   GL146705  27.524  17.369   5.903
 3532POPC   GL246706  27.761  17.692   5.890
 3532POPC   C1A46707  27.446  17.534   6.298
 3532POPC   D2A46708  27.312  17.324   6.653
 3532POPC   C3A46709  27.489  17.632   6.915
 3532POPC   C4A46710  27.353  17.810   7.307
 3532POPC   C1B46711  27.941  17.417   6.188
 3532POPC   C2B46712  27.817  17.338   6.605
 3532POPC   C3B46713  27.923  17.334   7.018
 3532POPC   C4B46714  27.896  17.643   7.319
 3533POPC   NC346715  42.017  18.018   5.551
 3533POPC   PO446716  41.636  18.494   5.193
 3533POPC   GL146717  41.543  18.422   5.690
 3533POPC   GL246718  41.266  18.211   5.856
 3533POPC   C1A46719  41.554  18.427   6.189
 3533POPC   D2A46720  41.645  18.123   6.510
 3533POPC   C3A46721  41.619  18.295   6.903
 3533POPC   C4A46722  41.567  18.543   7.265
 3533POPC   C1B46723  41.208  17.994   6.245
 3533POPC   C2B46724  41.282  17.778   6.643
 3533POPC   C3B46725  41.427  17.833   7.055
 3533POPC   C4B46726  41.213  18.177   7.205
 3534POPC   NC346727   3.737  24.926   5.490
 3534POPC   PO446728   3.399  25.573   5.416
 3534POPC   GL146729   3.384  25.494   5.847
 3534POPC   GL246730   3.397  25.122   5.869
 3534POPC   C1A46731   3.466  25.614   6.278
 3534POPC   D2A46732   3.566  25.367   6.589
 3534POPC   C3A46733   3.751  25.509   6.922
 3534POPC   C4A46734   3.577  25.337   7.266
 3534POPC   C1B46735   3.766  25.123   6.186
 3534POPC   C2B46736   3.880  24.962   6.637
 3534POPC   C3B46737   4.012  25.066   7.088
 3534POPC   C4B46738   3.940  25.120   7.557
 3535POPC   NC346739  20.334  29.470   5.493
 3535POPC   PO446740  20.867  29.788   5.472
 3535POPC   GL146741  20.566  29.796   5.801
 3535POPC   GL246742  20.698  30.084   5.909
 3535POPC   C1A46743  20.418  29.806   6.246
 3535POPC   D2A46744  20.653  29.970   6.593
 3535POPC   C3A46745  20.508  30.002   7.022
 3535POPC   C4A46746  20.497  30.052   7.471
 3535POPC   C1B46747  20.915  29.769   6.168
 3535POPC   C2B46748  21.065  29.650   6.577
 3535POPC   C3B46749  21.040  29.918   6.931
 3535POPC   C4B46750  20.960  29.848   7.353
 3536POPC   NC346751  14.880  14.060   5.500
 3536POPC   PO446752  15.431  14.535   5.546
 3536POPC   GL146753  15.431  14.345   5.884
 3536POPC   GL246754  15.060  14.342   5.920
 3536POPC   C1A46755  15.413  14.429   6.317
 3536POPC   D2A46756  15.185  14.631   6.643
 3536POPC   C3A46757  15.358  14.662   7.062
 3536POPC   C4A46758  15.264  14.625   7.512
 3536POPC   C1B46759  14.958  14.218   6.356
 3536POPC   C2B46760  14.775  14.327   6.758
 3536POPC   C3B46761  14.884  14.417   7.168
 3536POPC   C4B46762  14.914  14.220   7.571
 3537POPC   NC346763  19.079  26.695   5.414
 3537POPC   PO446764  18.537  27.040   5.548
 3537POPC   GL146765  18.783  26.721   5.840
 3537POPC   GL246766  18.682  26.367   5.868
 3537POPC   C1A46767  19.067  26.530   6.188
 3537POPC   D2A46768  18.984  26.437   6.655
 3537POPC   C3A46769  19.226  26.718   6.949
 3537POPC   C4A46770  19.338  26.955   7.339
 3537POPC   C1B46771  18.557  26.557   6.298
 3537POPC   C2B46772  18.588  26.799   6.687
 3537POPC   C3B46773  18.741  26.795   7.122
 3537POPC   C4B46774  18.463  26.714   7.520
 3538POPC   NC346775  14.131  43.758   5.477
 3538POPC   PO446776  14.334  44.288   5.563
 3538POPC   GL146777  14.156  44.070   5.888
 3538POPC   GL246778  14.447  43.824   5.923
 3538POPC   C1A46779  14.139  43.949   6.323
 3538POPC   D2A46780  14.392  43.765   6.614
 3538POPC   C3A46781  14.288  43.898   7.009
 3538POPC   C4A46782  14.129  43.589   7.233
 3538POPC   C1B46783  14.621  44.113   6.259
 3538POPC   C2B46784  14.478  44.279   6.679
 3538POPC   C3B46785  14.701  44.180   7.079
 3538POPC   C4B46786  14.774  44.294   7.526
 3539POPC   NC346787  41.395   0.281   4.998
 3539POPC   PO446788  41.696   0.894   5.215
 3539POPC   GL146789  41.743   0.579   5.637
 3539POPC   GL246790  41.867   0.201   5.587
 3539POPC   C1A46791  41.697   0.601   6.118
 3539POPC   D2A46792  41.670   0.722   6.590
 3539POPC   C3A46793  41.317   0.511   6.821
 3539POPC   C4A46794  41.194   0.496   7.259
 3539POPC   C1B46795  41.932   0.084   6.039
 3539POPC   C2B46796  41.793   0.219   6.467
 3539POPC   C3B46797  41.786   0.313   6.914
 3539POPC   C4B46798  41.943   0.164   7.279
 3540POPC   NC346799   4.849  42.842   5.344
 3540POPC   PO446800   5.520  43.020   5.314
 3540POPC   GL146801   5.254  42.911   5.687
 3540POPC   GL246802   5.042  43.218   5.693
 3540POPC   C1A46803   4.952  42.894   6.074
 3540POPC   D2A46804   4.871  43.013   6.532
 3540POPC   C3A46805   5.088  42.850   6.886
 3540POPC   C4A46806   5.429  42.969   7.115
 3540POPC   C1B46807   5.310  43.288   6.085
 3540POPC   C2B46808   5.261  43.401   6.535
 3540POPC   C3B46809   5.123  43.346   6.954
 3540POPC   C4B46810   5.308  43.519   7.307
 3541POPC   NC346811  44.790   9.324   5.459
 3541POPC   PO446812  44.439   8.778   5.268
 3541POPC   GL146813  44.508   8.943   5.689
 3541POPC   GL246814  44.290   9.199   5.769
 3541POPC   C1A46815  44.593   9.074   6.166
 3541POPC   D2A46816  44.641   8.863   6.574
 3541POPC   C3A46817  44.609   9.086   6.955
 3541POPC   C4A46818  44.857   9.025   7.338
 3541POPC   C1B46819  44.211   8.772   6.040
 3541POPC   C2B46820  44.338   8.443   6.344
 3541POPC   C3B46821  44.505   8.403   6.770
 3541POPC   C4B46822  44.569   8.610   7.132
 3542POPC   NC346823  35.961   6.526   5.085
 3542POPC   PO446824  36.446   6.845   5.519
 3542POPC   GL146825  36.086   6.601   5.710
 3542POPC   GL246826  35.957   6.819   5.932
 3542POPC   C1A46827  35.930   6.346   6.106
 3542POPC   D2A46828  35.935   6.540   6.535
 3542POPC   C3A46829  36.182   6.395   6.884
 3542POPC   C4A46830  36.037   6.441   7.307
 3542POPC   C1B46831  36.309   6.937   6.180
 3542POPC   C2B46832  36.355   6.853   6.604
 3542POPC   C3B46833  36.144   6.892   6.982
 3542POPC   C4B46834  36.202   6.913   7.425
 3543POPC   NC346835   2.667  41.102   5.300
 3543POPC   PO446836   2.974  41.719   5.206
 3543POPC   GL146837   2.843  41.545   5.643
 3543POPC   GL246838   2.900  41.217   5.738
 3543POPC   C1A46839   2.870  41.570   6.116
 3543POPC   D2A46840   2.969  41.663   6.543
 3543POPC   C3A46841   2.617  41.687   6.798
 3543POPC   C4A46842   2.598  41.561   7.214
 3543POPC   C1B46843   3.096  41.082   6.118
 3543POPC   C2B46844   2.899  41.154   6.523
 3543POPC   C3B46845   2.975  41.311   6.938
 3543POPC   C4B46846   2.929  41.212   7.392
 3544POPC   NC346847  13.739   3.017   5.330
 3544POPC   PO446848  13.434   2.478   5.416
 3544POPC   GL146849  13.748   2.654   5.685
 3544POPC   GL246850  13.460   2.883   5.756
 3544POPC   C1A46851  13.875   2.981   6.012
 3544POPC   D2A46852  13.693   3.050   6.434
 3544POPC   C3A46853  13.818   2.844   6.832
 3544POPC   C4A46854  13.799   3.108   7.193
 3544POPC   C1B46855  13.215   2.955   6.134
 3544POPC   C2B46856  13.203   3.157   6.534
 3544POPC   C3B46857  13.361   3.067   6.921
 3544POPC   C4B46858  13.395   2.686   7.141
 3545POPC   NC346859  24.787   7.603   5.478
 3545POPC   PO446860  24.193   8.036   5.419
 3545POPC   GL146861  24.352   7.656   5.716
 3545POPC   GL246862  24.345   7.269   5.729
 3545POPC   C1A46863  24.586   7.525   6.120
 3545POPC   D2A46864  24.541   7.309   6.531
 3545POPC   C3A46865  24.650   7.521   6.911
 3545POPC   C4A46866  24.670   7.823   7.239
 3545POPC   C1B46867  24.288   7.040   6.151
 3545POPC   C2B46868  24.251   6.913   6.631
 3545POPC   C3B46869  24.490   7.037   7.055
 3545POPC   C4B46870  24.420   7.042   7.527
 3546POPC   NC346871   6.797  44.140   5.186
 3546POPC   PO446872   6.482  43.703   5.569
 3546POPC   GL146873   6.632  43.899   5.950
 3546POPC   GL246874   6.378  44.113   5.992
 3546POPC   C1A46875   6.733  43.794   6.399
 3546POPC   D2A46876   6.844  43.471   6.712
 3546POPC   C3A46877   7.045  43.646   7.074
 3546POPC   C4A46878   6.781  43.905   7.270
 3546POPC   C1B46879   6.187  43.784   6.272
 3546POPC   C2B46880   6.073  43.780   6.704
 3546POPC   C3B46881   6.388  43.735   6.992
 3546POPC   C4B46882   6.373  43.572   7.388
 3547POPC   NC346883  28.151  25.711   5.368
 3547POPC   PO446884  28.542  26.338   5.293
 3547POPC   GL146885  28.583  26.072   5.724
 3547POPC   GL246886  28.323  25.823   5.813
 3547POPC   C1A46887  28.579  25.976   6.195
 3547POPC   D2A46888  28.394  25.855   6.593
 3547POPC   C3A46889  28.550  25.971   6.981
 3547POPC   C4A46890  28.551  26.393   7.103
 3547POPC   C1B46891  28.109  25.696   6.189
 3547POPC   C2B46892  27.929  25.650   6.607
 3547POPC   C3B46893  28.091  25.682   7.046
 3547POPC   C4B46894  28.384  25.790   7.428
 3548POPC   NC346895  43.390  27.839   5.451
 3548POPC   PO446896  44.056  27.784   5.269
 3548POPC   GL146897  44.078  27.637   5.754
 3548POPC   GL246898  43.998  27.252   5.857
 3548POPC   C1A46899  43.953  27.627   6.201
 3548POPC   D2A46900  44.039  27.636   6.646
 3548POPC   C3A46901  43.826  27.519   7.031
 3548POPC   C4A46902  43.981  27.540   7.467
 3548POPC   C1B46903  43.730  27.175   6.217
 3548POPC   C2B46904  43.816  27.152   6.652
 3548POPC   C3B46905  43.547  27.104   7.002
 3548POPC   C4B46906  43.590  27.202   7.449
 3549POPC   NC346907  37.957  39.145   5.361
 3549POPC   PO446908  37.300  38.920   5.523
 3549POPC   GL146909  37.611  39.117   5.782
 3549POPC   GL246910  37.346  39.319   5.901
 3549POPC   C1A46911  37.785  39.174   6.214
 3549POPC   D2A46912  37.685  39.302   6.659
 3549POPC   C3A46913  37.892  39.000   6.919
 3549POPC   C4A46914  38.026  39.086   7.334
 3549POPC   C1B46915  37.293  39.010   6.212
 3549POPC   C2B46916  37.518  38.833   6.559
 3549POPC   C3B46917  37.328  38.963   6.947
 3549POPC   C4B46918  37.245  39.047   7.407
 3550POPC   NC346919   1.614   9.839   5.295
 3550POPC   PO446920   1.041   9.515   5.463
 3550POPC   GL146921   1.137   9.858   5.727
 3550POPC   GL246922   1.453   9.731   5.755
 3550POPC   C1A46923   1.268   9.967   6.163
 3550POPC   D2A46924   1.089  10.032   6.582
 3550POPC   C3A46925   1.308   9.852   6.981
 3550POPC   C4A46926   1.454   9.952   7.417
 3550POPC   C1B46927   1.561   9.540   6.128
 3550POPC   C2B46928   1.386   9.603   6.528
 3550POPC   C3B46929   1.370   9.347   6.876
 3550POPC   C4B46930   1.527   9.443   7.256
 3551POPC   NC346931  39.683  39.599   5.557
 3551POPC   PO446932  38.998  39.864   5.354
 3551POPC   GL146933  39.268  39.936   5.743
 3551POPC   GL246934  39.575  39.969   5.880
 3551POPC   C1A46935  39.183  40.027   6.197
 3551POPC   D2A46936  39.118  40.159   6.632
 3551POPC   C3A46937  39.170  39.832   6.973
 3551POPC   C4A46938  39.056  39.781   7.401
 3551POPC   C1B46939  39.577  40.357   6.091
 3551POPC   C2B46940  39.596  40.417   6.525
 3551POPC   C3B46941  39.524  40.237   6.923
 3551POPC   C4B46942  39.433  40.097   7.316
 3552POPC   NC346943  34.934  41.045   5.623
 3552POPC   PO446944  34.483  40.528   5.499
 3552POPC   GL146945  34.523  40.804   5.825
 3552POPC   GL246946  34.279  41.103   5.825
 3552POPC   C1A46947  34.692  40.683   6.209
 3552POPC   D2A46948  34.390  40.577   6.519
 3552POPC   C3A46949  34.537  40.683   6.892
 3552POPC   C4A46950  34.716  40.529   7.253
 3552POPC   C1B46951  34.388  41.076   6.298
 3552POPC   C2B46952  34.790  41.056   6.566
 3552POPC   C3B46953  34.909  40.988   6.999
 3552POPC   C4B46954  34.532  41.057   7.269
 3553POPC   NC346955  19.328  32.641   5.364
 3553POPC   PO446956  18.863  32.185   5.356
 3553POPC   GL146957  19.071  32.121   5.743
 3553POPC   GL246958  19.186  32.462   5.813
 3553POPC   C1A46959  18.927  32.203   6.176
 3553POPC   D2A46960  18.992  32.400   6.561
 3553POPC   C3A46961  18.856  32.209   6.927
 3553POPC   C4A46962  18.683  31.886   7.222
 3553POPC   C1B46963  19.238  32.677   6.205
 3553POPC   C2B46964  19.260  32.832   6.623
 3553POPC   C3B46965  19.023  32.693   6.979
 3553POPC   C4B46966  19.191  32.663   7.323
 3554POPC   NC346967  36.608  24.259   5.476
 3554POPC   PO446968  37.164  24.711   5.479
 3554POPC   GL146969  37.048  24.667   5.904
 3554POPC   GL246970  36.658  24.591   5.875
 3554POPC   C1A46971  37.273  24.716   6.332
 3554POPC   D2A46972  37.076  24.703   6.754
 3554POPC   C3A46973  37.097  24.375   7.077
 3554POPC   C4A46974  37.296  24.356   7.528
 3554POPC   C1B46975  36.733  24.623   6.313
 3554POPC   C2B46976  36.623  24.428   6.699
 3554POPC   C3B46977  36.647  24.658   7.058
 3554POPC   C4B46978  36.491  24.817   7.420
 3555POPC   NC346979  27.035  19.187   5.339
 3555POPC   PO446980  27.044  18.579   5.477
 3555POPC   GL146981  26.865  18.884   5.766
 3555POPC   GL246982  26.771  19.238   5.809
 3555POPC   C1A46983  26.648  18.907   6.157
 3555POPC   D2A46984  26.787  19.159   6.499
 3555POPC   C3A46985  26.660  19.052   6.903
 3555POPC   C4A46986  26.782  19.171   7.308
 3555POPC   C1B46987  26.463  19.382   6.126
 3555POPC   C2B46988  26.457  19.576   6.543
 3555POPC   C3B46989  26.513  19.528   6.985
 3555POPC   C4B46990  26.528  19.562   7.436
 3556POPC   NC346991  11.490  25.528   5.403
 3556POPC   PO446992  10.897  25.257   5.292
 3556POPC   GL146993  11.157  25.315   5.740
 3556POPC   GL246994  11.535  25.387   5.873
 3556POPC   C1A46995  11.167  25.364   6.210
 3556POPC   D2A46996  11.390  25.393   6.611
 3556POPC   C3A46997  11.298  25.191   6.995
 3556POPC   C4A46998  11.309  25.512   7.298
 3556POPC   C1B46999  11.781  25.421   6.254
 3556POPC   C2B47000  11.844  25.149   6.626
 3556POPC   C3B47001  11.774  25.362   7.028
 3556POPC   C4B47002  11.706  25.231   7.456
 3557POPC   NC347003  25.508   5.974   5.167
 3557POPC   PO447004  25.115   5.684   5.702
 3557POPC   GL147005  25.074   6.083   5.897
 3557POPC   GL247006  25.304   6.316   5.705
 3557POPC   C1A47007  25.136   6.034   6.347
 3557POPC   D2A47008  25.238   5.700   6.644
 3557POPC   C3A47009  25.046   5.863   6.989
 3557POPC   C4A47010  25.003   6.175   7.256
 3557POPC   C1B47011  25.570   6.170   6.096
 3557POPC   C2B47012  25.678   5.939   6.492
 3557POPC   C3B47013  25.663   5.754   6.898
 3557POPC   C4B47014  25.482   5.949   7.269
 3558POPC   NC347015  27.169  31.781   5.420
 3558POPC   PO447016  27.133  31.117   5.195
 3558POPC   GL147017  26.936  31.422   5.668
 3558POPC   GL247018  27.061  31.239   5.927
 3558POPC   C1A47019  26.619  31.295   6.131
 3558POPC   D2A47020  26.638  31.152   6.637
 3558POPC   C3A47021  26.877  31.329   7.028
 3558POPC   C4A47022  26.816  31.723   7.257
 3558POPC   C1B47023  27.036  31.530   6.281
 3558POPC   C2B47024  27.054  31.668   6.717
 3558POPC   C3B47025  27.302  31.667   7.127
 3558POPC   C4B47026  27.216  31.739   7.583
 3559POPC   NC347027  28.574  16.436   5.593
 3559POPC   PO447028  28.269  17.086   5.454
 3559POPC   GL147029  28.432  16.905   5.826
 3559POPC   GL247030  28.161  16.647   5.827
 3559POPC   C1A47031  28.532  16.790   6.269
 3559POPC   D2A47032  28.375  16.617   6.691
 3559POPC   C3A47033  28.473  16.756   7.094
 3559POPC   C4A47034  28.564  16.901   7.469
 3559POPC   C1B47035  28.039  16.908   6.171
 3559POPC   C2B47036  27.891  16.846   6.557
 3559POPC   C3B47037  27.986  16.824   6.965
 3559POPC   C4B47038  27.843  16.932   7.346
 3560POPC   NC347039  13.011  23.654   5.115
 3560POPC   PO447040  12.601  23.547   5.645
 3560POPC   GL147041  12.965  23.531   5.863
 3560POPC   GL247042  13.082  23.856   5.791
 3560POPC   C1A47043  12.858  23.593   6.292
 3560POPC   D2A47044  12.736  23.368   6.652
 3560POPC   C3A47045  12.837  23.481   7.037
 3560POPC   C4A47046  12.653  23.379   7.420
 3560POPC   C1B47047  13.099  24.048   6.225
 3560POPC   C2B47048  12.988  23.898   6.673
 3560POPC   C3B47049  12.814  23.988   7.062
 3560POPC   C4B47050  13.132  23.993   7.337
 3561POPC   NC347051  16.184   2.521   5.394
 3561POPC   PO447052  15.796   2.034   5.442
 3561POPC   GL147053  15.935   2.114   5.840
 3561POPC   GL247054  15.915   2.465   5.849
 3561POPC   C1A47055  16.016   1.928   6.246
 3561POPC   D2A47056  16.015   2.081   6.658
 3561POPC   C3A47057  15.850   1.808   6.993
 3561POPC   C4A47058  15.902   1.995   7.419
 3561POPC   C1B47059  15.686   2.336   6.224
 3561POPC   C2B47060  15.514   2.194   6.599
 3561POPC   C3B47061  15.688   2.285   7.019
 3561POPC   C4B47062  16.100   2.413   7.203
 3562POPC   NC347063  44.462   5.928   5.278
 3562POPC   PO447064  43.743   5.954   5.283
 3562POPC   GL147065  43.862   5.891   5.716
 3562POPC   GL247066  44.216   5.902   5.745
 3562POPC   C1A47067  43.920   5.767   6.158
 3562POPC   D2A47068  44.114   5.853   6.543
 3562POPC   C3A47069  43.956   5.752   6.952
 3562POPC   C4A47070  43.804   5.748   7.335
 3562POPC   C1B47071  44.315   6.122   6.126
 3562POPC   C2B47072  44.327   6.305   6.530
 3562POPC   C3B47073  44.123   6.222   6.924
 3562POPC   C4B47074  44.264   6.018   7.324
 3563POPC   NC347075  44.788  21.388   5.272
 3563POPC   PO447076  44.555  21.048   5.802
 3563POPC   GL147077  44.663  21.476   5.896
 3563POPC   GL247078  44.990  21.533   5.772
 3563POPC   C1A47079  44.557  21.578   6.323
 3563POPC   D2A47080  44.559  21.403   6.739
 3563POPC   C3A47081  44.277  21.491   7.080
 3563POPC   C4A47082  44.508  21.380   7.470
 3563POPC   C1B47083   0.058  21.583   6.243
 3563POPC   C2B47084  44.940  21.754   6.660
 3563POPC   C3B47085   0.138  21.754   7.085
 3563POPC   C4B47086   0.000  21.537   7.482
 3564POPC   NC347087  14.170  31.729   5.519
 3564POPC   PO447088  14.672  31.221   5.313
 3564POPC   GL147089  14.471  31.397   5.719
 3564POPC   GL247090  14.708  31.638   5.682
 3564POPC   C1A47091  14.254  31.279   6.128
 3564POPC   D2A47092  14.026  31.156   6.538
 3564POPC   C3A47093  14.252  31.249   6.923
 3564POPC   C4A47094  14.130  31.408   7.328
 3564POPC   C1B47095  14.593  31.743   6.124
 3564POPC   C2B47096  14.608  31.780   6.587
 3564POPC   C3B47097  14.436  31.754   7.016
 3564POPC   C4B47098  14.507  31.789   7.463
 3565POPC   NC347099   8.434  37.932   5.484
 3565POPC   PO447100   8.033  37.342   5.307
 3565POPC   GL147101   8.173  37.545   5.647
 3565POPC   GL247102   7.988  37.848   5.730
 3565POPC   C1A47103   8.178  37.496   6.106
 3565POPC   D2A47104   7.965  37.676   6.446
 3565POPC   C3A47105   8.051  37.544   6.846
 3565POPC   C4A47106   8.038  37.764   7.245
 3565POPC   C1B47107   8.183  38.012   6.116
 3565POPC   C2B47108   8.450  37.850   6.444
 3565POPC   C3B47109   8.441  37.875   6.885
 3565POPC   C4B47110   8.572  37.742   7.269
 3566POPC   NC347111  10.480   5.610   5.447
 3566POPC   PO447112  10.440   6.189   5.057
 3566POPC   GL147113  10.508   6.114   5.604
 3566POPC   GL247114  10.241   5.919   5.773
 3566POPC   C1A47115  10.407   6.218   6.140
 3566POPC   D2A47116  10.540   5.977   6.551
 3566POPC   C3A47117  10.394   5.862   6.982
 3566POPC   C4A47118  10.486   5.946   7.441
 3566POPC   C1B47119  10.352   5.711   6.155
 3566POPC   C2B47120  10.212   5.449   6.491
 3566POPC   C3B47121  10.110   5.442   6.912
 3566POPC   C4B47122  10.335   5.469   7.296
 3567POPC   NC347123  22.492  31.657   5.519
 3567POPC   PO447124  22.900  31.137   5.468
 3567POPC   GL147125  23.116  31.234   5.856
 3567POPC   GL247126  22.995  31.570   5.850
 3567POPC   C1A47127  23.215  31.349   6.279
 3567POPC   D2A47128  23.005  31.331   6.683
 3567POPC   C3A47129  23.168  31.637   6.983
 3567POPC   C4A47130  23.319  31.400   7.294
 3567POPC   C1B47131  22.754  31.568   6.263
 3567POPC   C2B47132  22.759  31.789   6.689
 3567POPC   C3B47133  22.676  31.697   7.128
 3567POPC   C4B47134  22.651  31.810   7.559
 3568POPC   NC347135  33.521  38.942   5.401
 3568POPC   PO447136  33.919  39.526   5.280
 3568POPC   GL147137  33.685  39.386   5.652
 3568POPC   GL247138  33.842  39.062   5.796
 3568POPC   C1A47139  33.588  39.356   6.128
 3568POPC   D2A47140  33.424  39.402   6.557
 3568POPC   C3A47141  33.655  39.291   6.954
 3568POPC   C4A47142  33.483  39.259   7.377
 3568POPC   C1B47143  34.030  38.864   6.190
 3568POPC   C2B47144  34.208  38.903   6.619
 3568POPC   C3B47145  34.096  39.029   7.041
 3568POPC   C4B47146  33.919  38.818   7.406
 3569POPC   NC347147  25.555  29.582   5.316
 3569POPC   PO447148  25.160  29.044   5.474
 3569POPC   GL147149  25.340  29.061   5.847
 3569POPC   GL247150  25.653  29.227   5.829
 3569POPC   C1A47151  25.452  28.851   6.218
 3569POPC   D2A47152  25.231  28.785   6.597
 3569POPC   C3A47153  25.406  28.779   6.984
 3569POPC   C4A47154  25.230  29.089   7.235
 3569POPC   C1B47155  25.474  29.352   6.268
 3569POPC   C2B47156  25.554  29.218   6.710
 3569POPC   C3B47157  25.700  29.197   7.122
 3569POPC   C4B47158  25.582  29.335   7.526
 3570POPC   NC347159  12.864  16.152   5.373
 3570POPC   PO447160  12.618  15.539   5.128
 3570POPC   GL147161  12.765  15.736   5.589
 3570POPC   GL247162  13.116  15.839   5.715
 3570POPC   C1A47163  12.607  15.903   6.049
 3570POPC   D2A47164  12.382  15.724   6.461
 3570POPC   C3A47165  12.656  15.692   6.867
 3570POPC   C4A47166  12.660  15.629   7.338
 3570POPC   C1B47167  13.082  16.042   6.150
 3570POPC   C2B47168  12.762  16.091   6.525
 3570POPC   C3B47169  12.790  16.189   6.986
 3570POPC   C4B47170  12.884  16.098   7.445
 3571POPC   NC347171  10.248  35.070   5.536
 3571POPC   PO447172  10.767  35.499   5.381
 3571POPC   GL147173  10.826  35.400   5.815
 3571POPC   GL247174  10.645  35.076   5.899
 3571POPC   C1A47175  10.677  35.474   6.255
 3571POPC   D2A47176  10.820  35.395   6.665
 3571POPC   C3A47177  10.509  35.404   6.964
 3571POPC   C4A47178  10.660  35.559   7.311
 3571POPC   C1B47179  10.259  35.160   6.178
 3571POPC   C2B47180  10.157  35.326   6.570
 3571POPC   C3B47181  10.105  35.087   6.923
 3571POPC   C4B47182  10.317  34.970   7.264
 3572POPC   NC347183   9.984  19.697   5.429
 3572POPC   PO447184   9.503  20.169   5.596
 3572POPC   GL147185   9.783  19.939   5.822
 3572POPC   GL247186   9.576  19.682   5.890
 3572POPC   C1A47187   9.998  19.838   6.200
 3572POPC   D2A47188   9.817  19.909   6.600
 3572POPC   C3A47189  10.026  19.726   6.978
 3572POPC   C4A47190  10.215  19.706   7.388
 3572POPC   C1B47191   9.423  19.960   6.227
 3572POPC   C2B47192   9.318  19.992   6.678
 3572POPC   C3B47193   9.528  19.856   7.054
 3572POPC   C4B47194   9.505  19.691   7.484
 3573POPC   NC347195  21.278  12.978   5.017
 3573POPC   PO447196  21.796  13.252   5.508
 3573POPC   GL147197  21.438  13.125   5.793
 3573POPC   GL247198  21.146  12.874   5.714
 3573POPC   C1A47199  21.418  12.851   6.145
 3573POPC   D2A47200  21.494  12.757   6.567
 3573POPC   C3A47201  21.311  13.013   6.887
 3573POPC   C4A47202  21.278  13.061   7.330
 3573POPC   C1B47203  21.003  12.548   6.021
 3573POPC   C2B47204  20.912  12.529   6.472
 3573POPC   C3B47205  21.108  12.536   6.870
 3573POPC   C4B47206  21.076  12.598   7.279
 3574POPC   NC347207  21.212   6.008   5.455
 3574POPC   PO447208  21.758   6.291   5.514
 3574POPC   GL147209  21.547   5.979   5.858
 3574POPC   GL247210  21.384   5.641   5.789
 3574POPC   C1A47211  21.601   5.702   6.254
 3574POPC   D2A47212  21.764   5.430   6.609
 3574POPC   C3A47213  21.604   5.592   7.016
 3574POPC   C4A47214  21.553   6.057   7.135
 3574POPC   C1B47215  21.090   5.573   6.133
 3574POPC   C2B47216  21.165   5.612   6.576
 3574POPC   C3B47217  20.953   5.564   6.960
 3574POPC   C4B47218  21.179   5.732   7.278
 3575POPC   NC347219  30.359   4.020   5.412
 3575POPC   PO447220  30.874   3.577   5.248
 3575POPC   GL147221  30.745   3.598   5.723
 3575POPC   GL247222  30.594   3.893   5.857
 3575POPC   C1A47223  30.617   3.428   6.157
 3575POPC   D2A47224  30.785   3.227   6.553
 3575POPC   C3A47225  30.656   3.338   6.954
 3575POPC   C4A47226  30.857   3.384   7.327
 3575POPC   C1B47227  30.629   3.943   6.282
 3575POPC   C2B47228  30.885   3.718   6.529
 3575POPC   C3B47229  31.023   3.712   6.931
 3575POPC   C4B47230  30.864   3.872   7.296
 3576POPC   NC347231   4.109   7.958   5.490
 3576POPC   PO447232   4.386   8.595   5.577
 3576POPC   GL147233   4.346   8.261   5.864
 3576POPC   GL247234   4.680   8.149   5.927
 3576POPC   C1A47235   4.210   8.219   6.300
 3576POPC   D2A47236   4.375   7.972   6.645
 3576POPC   C3A47237   4.194   8.082   7.046
 3576POPC   C4A47238   4.092   8.323   7.425
 3576POPC   C1B47239   4.706   7.817   6.246
 3576POPC   C2B47240   4.796   7.679   6.668
 3576POPC   C3B47241   4.502   7.653   7.019
 3576POPC   C4B47242   4.424   7.801   7.429
 3577POPC   NC347243  28.316  15.655   5.024
 3577POPC   PO447244  28.267  16.086   5.479
 3577POPC   GL147245  28.263  16.103   5.902
 3577POPC   GL247246  27.906  16.195   5.891
 3577POPC   C1A47247  28.373  15.842   6.282
 3577POPC   D2A47248  28.584  15.636   6.637
 3577POPC   C3A47249  28.505  15.813   7.040
 3577POPC   C4A47250  28.503  16.228   7.237
 3577POPC   C1B47251  27.899  16.005   6.278
 3577POPC   C2B47252  28.139  15.999   6.701
 3577POPC   C3B47253  28.009  15.905   7.132
 3577POPC   C4B47254  28.117  15.601   7.451
 3578POPC   NC347255  14.425  42.310   5.383
 3578POPC   PO447256  14.316  42.923   5.525
 3578POPC   GL147257  14.291  42.624   5.779
 3578POPC   GL247258  14.647  42.614   5.783
 3578POPC   C1A47259  14.224  42.423   6.156
 3578POPC   D2A47260  14.319  42.199   6.530
 3578POPC   C3A47261  14.223  42.350   6.944
 3578POPC   C4A47262  14.200  42.056   7.295
 3578POPC   C1B47263  14.731  42.293   6.091
 3578POPC   C2B47264  14.835  42.058   6.469
 3578POPC   C3B47265  14.690  42.105   6.884
 3578POPC   C4B47266  14.646  42.319   7.270
 3579POPC   NC347267  40.629  39.849   5.352
 3579POPC   PO447268  41.266  39.672   5.492
 3579POPC   GL147269  41.041  39.831   5.850
 3579POPC   GL247270  40.734  40.002   5.810
 3579POPC   C1A47271  40.999  40.054   6.236
 3579POPC   D2A47272  40.801  39.963   6.614
 3579POPC   C3A47273  40.964  39.957   6.999
 3579POPC   C4A47274  41.157  39.728   7.288
 3579POPC   C1B47275  40.447  40.077   6.095
 3579POPC   C2B47276  40.412  40.253   6.490
 3579POPC   C3B47277  40.372  40.241   6.930
 3579POPC   C4B47278  40.621  40.194   7.286
 3580POPC   NC347279  19.009   9.832   5.391
 3580POPC   PO447280  18.945   9.249   5.501
 3580POPC   GL147281  18.982   9.566   5.839
 3580POPC   GL247282  19.234   9.806   5.870
 3580POPC   C1A47283  19.062   9.580   6.303
 3580POPC   D2A47284  18.847   9.558   6.738
 3580POPC   C3A47285  19.114   9.561   7.118
 3580POPC   C4A47286  19.092   9.692   7.568
 3580POPC   C1B47287  19.249  10.112   6.199
 3580POPC   C2B47288  19.032  10.260   6.561
 3580POPC   C3B47289  18.992  10.067   6.971
 3580POPC   C4B47290  19.382  10.014   7.193
 3581POPC   NC347291  17.384  34.200   5.376
 3581POPC   PO447292  17.723  33.588   5.511
 3581POPC   GL147293  17.602  33.941   5.773
 3581POPC   GL247294  17.242  34.013   5.829
 3581POPC   C1A47295  17.584  33.867   6.199
 3581POPC   D2A47296  17.699  34.038   6.573
 3581POPC   C3A47297  17.724  33.686   6.815
 3581POPC   C4A47298  17.680  33.715   7.246
 3581POPC   C1B47299  17.069  33.875   6.216
 3581POPC   C2B47300  17.227  33.755   6.617
 3581POPC   C3B47301  17.340  33.995   6.968
 3581POPC   C4B47302  17.196  34.068   7.362
 3582POPC   NC347303  15.748  36.225   5.287
 3582POPC   PO447304  16.237  35.851   5.527
 3582POPC   GL147305  15.997  36.101   5.731
 3582POPC   GL247306  15.716  35.852   5.668
 3582POPC   C1A47307  15.985  36.270   6.147
 3582POPC   D2A47308  15.784  36.328   6.571
 3582POPC   C3A47309  15.995  36.121   6.923
 3582POPC   C4A47310  16.132  36.257   7.328
 3582POPC   C1B47311  15.905  35.746   6.083
 3582POPC   C2B47312  15.874  35.842   6.497
 3582POPC   C3B47313  15.734  35.656   6.873
 3582POPC   C4B47314  15.787  35.793   7.277
 3583POPC   NC347315  17.468   5.465   5.228
 3583POPC   PO447316  17.730   4.889   5.533
 3583POPC   GL147317  17.428   5.079   5.825
 3583POPC   GL247318  17.381   5.388   5.721
 3583POPC   C1A47319  17.448   5.089   6.270
 3583POPC   D2A47320  17.711   4.999   6.614
 3583POPC   C3A47321  17.489   4.990   6.996
 3583POPC   C4A47322  17.584   4.660   7.216
 3583POPC   C1B47323  17.738   5.440   6.005
 3583POPC   C2B47324  17.672   5.505   6.456
 3583POPC   C3B47325  17.755   5.451   6.887
 3583POPC   C4B47326  17.580   5.456   7.270
 3584POPC   NC347327  30.084  17.759   5.476
 3584POPC   PO447328  29.616  17.385   5.599
 3584POPC   GL147329  29.993  17.381   5.854
 3584POPC   GL247330  30.074  17.705   5.974
 3584POPC   C1A47331  30.025  17.262   6.299
 3584POPC   D2A47332  30.108  17.512   6.681
 3584POPC   C3A47333  29.783  17.441   7.071
 3584POPC   C4A47334  29.847  17.190   7.476
 3584POPC   C1B47335  29.791  17.747   6.303
 3584POPC   C2B47336  29.761  17.882   6.727
 3584POPC   C3B47337  30.088  17.846   7.048
 3584POPC   C4B47338  30.042  17.667   7.442
 3585POPC   NC347339   3.316  18.275   5.461
 3585POPC   PO447340   3.825  18.694   5.344
 3585POPC   GL147341   3.816  18.589   5.844
 3585POPC   GL247342   3.672  18.242   5.856
 3585POPC   C1A47343   3.677  18.442   6.316
 3585POPC   D2A47344   3.853  18.143   6.624
 3585POPC   C3A47345   3.740  18.216   7.024
 3585POPC   C4A47346   3.565  18.542   7.270
 3585POPC   C1B47347   3.566  17.951   6.199
 3585POPC   C2B47348   3.349  18.023   6.573
 3585POPC   C3B47349   3.329  18.395   6.788
 3585POPC   C4B47350   3.110  18.362   7.142
 3586POPC   NC347351   0.944  12.101   5.194
 3586POPC   PO447352   0.274  12.005   5.379
 3586POPC   GL147353   0.449  11.929   5.819
 3586POPC   GL247354   0.698  11.637   5.871
 3586POPC   C1A47355   0.338  12.080   6.258
 3586POPC   D2A47356   0.479  11.920   6.669
 3586POPC   C3A47357   0.747  12.194   6.916
 3586POPC   C4A47358   0.585  12.448   7.278
 3586POPC   C1B47359   0.388  11.577   6.231
 3586POPC   C2B47360   0.105  11.549   6.599
 3586POPC   C3B47361   0.112  11.740   7.001
 3586POPC   C4B47362   0.454  11.900   7.218
 3587POPC   NC347363  38.886  27.015   5.320
 3587POPC   PO447364  39.362  26.557   5.516
 3587POPC   GL147365  39.150  26.891   5.755
 3587POPC   GL247366  38.847  26.756   5.827
 3587POPC   C1A47367  39.069  27.156   6.138
 3587POPC   D2A47368  39.249  27.207   6.573
 3587POPC   C3A47369  39.064  27.097   6.993
 3587POPC   C4A47370  39.216  26.949   7.428
 3587POPC   C1B47371  39.073  26.646   6.205
 3587POPC   C2B47372  39.061  26.721   6.643
 3587POPC   C3B47373  39.252  26.596   7.022
 3587POPC   C4B47374  39.171  26.453   7.432
 3588POPC   NC347375  10.238  12.836   5.408
 3588POPC   PO447376  10.797  12.394   5.501
 3588POPC   GL147377  10.722  12.702   5.836
 3588POPC   GL247378  10.398  12.795   5.868
 3588POPC   C1A47379  10.664  12.735   6.280
 3588POPC   D2A47380  10.439  12.780   6.619
 3588POPC   C3A47381  10.681  12.832   6.987
 3588POPC   C4A47382  10.368  12.699   7.272
 3588POPC   C1B47383  10.222  13.006   6.192
 3588POPC   C2B47384  10.112  13.180   6.568
 3588POPC   C3B47385  10.225  13.116   6.978
 3588POPC   C4B47386  10.483  13.247   7.297
 3589POPC   NC347387   8.728  10.904   5.475
 3589POPC   PO447388   9.255  10.539   5.552
 3589POPC   GL147389   8.906  10.424   5.831
 3589POPC   GL247390   8.715  10.722   5.953
 3589POPC   C1A47391   8.948  10.404   6.297
 3589POPC   D2A47392   8.813  10.427   6.720
 3589POPC   C3A47393   9.060  10.347   7.116
 3589POPC   C4A47394   9.027  10.563   7.529
 3589POPC   C1B47395   8.605  10.802   6.391
 3589POPC   C2B47396   8.783  11.075   6.726
 3589POPC   C3B47397   9.077  11.090   7.051
 3589POPC   C4B47398   9.099  11.068   7.485
 3590POPC   NC347399   1.419  20.391   5.268
 3590POPC   PO447400   0.901  20.740   5.591
 3590POPC   GL147401   1.065  20.551   5.914
 3590POPC   GL247402   1.408  20.598   5.805
 3590POPC   C1A47403   1.040  20.569   6.344
 3590POPC   D2A47404   0.893  20.684   6.743
 3590POPC   C3A47405   1.103  20.549   7.095
 3590POPC   C4A47406   1.201  20.819   7.377
 3590POPC   C1B47407   1.510  20.375   6.213
 3590POPC   C2B47408   1.381  20.316   6.671
 3590POPC   C3B47409   1.462  20.169   7.120
 3590POPC   C4B47410   1.351  20.356   7.539
 3591POPC   NC347411  28.173  14.688   5.346
 3591POPC   PO447412  28.325  14.103   5.482
 3591POPC   GL147413  28.300  14.265   5.886
 3591POPC   GL247414  27.999  14.479   5.803
 3591POPC   C1A47415  28.605  14.181   6.272
 3591POPC   D2A47416  28.748  14.263   6.728
 3591POPC   C3A47417  28.489  14.582   6.994
 3591POPC   C4A47418  28.313  14.888   7.311
 3591POPC   C1B47419  27.878  14.298   6.203
 3591POPC   C2B47420  27.978  14.343   6.658
 3591POPC   C3B47421  27.974  14.552   7.044
 3591POPC   C4B47422  27.997  14.506   7.477
 3592POPC   NC347423  19.599   8.386   5.488
 3592POPC   PO447424  19.172   8.743   5.532
 3592POPC   GL147425  19.019   8.838   5.904
 3592POPC   GL247426  19.132   9.104   5.948
 3592POPC   C1A47427  18.847   8.671   6.240
 3592POPC   D2A47428  19.100   8.559   6.569
 3592POPC   C3A47429  19.050   8.826   6.909
 3592POPC   C4A47430  19.050   8.744   7.328
 3592POPC   C1B47431  19.279   9.074   6.320
 3592POPC   C2B47432  19.257   9.258   6.689
 3592POPC   C3B47433  19.447   9.130   7.035
 3592POPC   C4B47434  19.309   9.173   7.414
 3593POPC   NC347435  11.736  20.127   5.527
 3593POPC   PO447436  11.333  19.588   5.441
 3593POPC   GL147437  11.204  19.623   5.861
 3593POPC   GL247438  11.338  19.939   5.868
 3593POPC   C1A47439  11.211  19.677   6.329
 3593POPC   D2A47440  10.948  19.604   6.689
 3593POPC   C3A47441  11.084  19.629   7.116
 3593POPC   C4A47442  11.075  20.020   7.354
 3593POPC   C1B47443  10.957  20.068   6.090
 3593POPC   C2B47444  11.023  20.106   6.547
 3593POPC   C3B47445  11.389  19.933   6.800
 3593POPC   C4B47446  11.565  20.082   7.214
 3594POPC   NC347447  39.589  41.174   5.498
 3594POPC   PO447448  38.951  41.572   5.407
 3594POPC   GL147449  39.188  41.445   5.762
 3594POPC   GL247450  39.487  41.645   5.788
 3594POPC   C1A47451  39.137  41.267   6.179
 3594POPC   D2A47452  39.370  41.292   6.531
 3594POPC   C3A47453  39.328  41.370   6.921
 3594POPC   C4A47454  39.140  41.170   7.278
 3594POPC   C1B47455  39.274  41.765   6.173
 3594POPC   C2B47456  39.425  41.810   6.579
 3594POPC   C3B47457  39.494  41.975   6.967
 3594POPC   C4B47458  39.370  41.741   7.304
 3595POPC   NC347459  16.650   4.221   5.016
 3595POPC   PO447460  16.875   4.505   5.526
 3595POPC   GL147461  16.876   4.401   5.934
 3595POPC   GL247462  16.582   4.655   5.913
 3595POPC   C1A47463  16.766   4.126   6.302
 3595POPC   D2A47464  16.706   3.940   6.730
 3595POPC   C3A47465  16.795   4.202   7.086
 3595POPC   C4A47466  16.788   4.180   7.512
 3595POPC   C1B47467  16.755   4.693   6.310
 3595POPC   C2B47468  16.728   4.500   6.675
 3595POPC   C3B47469  16.603   4.678   7.041
 3595POPC   C4B47470  16.720   4.677   7.459
 3596POPC   NC347471  41.124   2.815   5.390
 3596POPC   PO447472  40.459   2.685   5.262
 3596POPC   GL147473  40.550   2.780   5.707
 3596POPC   GL247474  40.856   2.648   5.784
 3596POPC   C1A47475  40.510   2.967   6.145
 3596POPC   D2A47476  40.597   3.268   6.498
 3596POPC   C3A47477  40.674   3.070   6.892
 3596POPC   C4A47478  40.581   2.903   7.293
 3596POPC   C1B47479  40.715   2.485   6.163
 3596POPC   C2B47480  40.793   2.699   6.539
 3596POPC   C3B47481  40.705   2.554   6.938
 3596POPC   C4B47482  40.759   2.419   7.360
 3597POPC   NC347483  43.470   2.544   5.276
 3597POPC   PO447484  42.808   2.741   5.372
 3597POPC   GL147485  43.024   2.765   5.782
 3597POPC   GL247486  42.958   2.477   5.920
 3597POPC   C1A47487  43.164   2.847   6.224
 3597POPC   D2A47488  43.079   2.750   6.689
 3597POPC   C3A47489  43.299   2.980   7.036
 3597POPC   C4A47490  43.337   2.887   7.483
 3597POPC   C1B47491  43.091   2.361   6.330
 3597POPC   C2B47492  43.330   2.296   6.725
 3597POPC   C3B47493  43.254   2.455   7.138
 3597POPC   C4B47494  43.355   2.380   7.575
 3598POPC   NC347495  13.682  15.466   5.489
 3598POPC   PO447496  13.244  14.948   5.638
 3598POPC   GL147497  13.558  15.161   5.879
 3598POPC   GL247498  13.908  15.032   5.799
 3598POPC   C1A47499  13.753  15.244   6.272
 3598POPC   D2A47500  13.783  15.503   6.644
 3598POPC   C3A47501  13.830  15.325   7.017
 3598POPC   C4A47502  13.526  15.092   7.225
 3598POPC   C1B47503  13.683  14.730   6.107
 3598POPC   C2B47504  13.579  14.821   6.548
 3598POPC   C3B47505  13.782  14.740   6.953
 3598POPC   C4B47506  14.022  14.925   7.263
 3599POPC   NC347507  22.244  32.481   5.529
 3599POPC   PO447508  21.592  32.267   5.419
 3599POPC   GL147509  21.843  32.294   5.795
 3599POPC   GL247510  21.778  31.988   5.835
 3599POPC   C1A47511  22.020  32.243   6.259
 3599POPC   D2A47512  22.024  32.231   6.742
 3599POPC   C3A47513  22.243  32.508   6.972
 3599POPC   C4A47514  22.528  32.657   7.282
 3599POPC   C1B47515  22.047  31.743   6.068
 3599POPC   C2B47516  22.321  31.815   6.410
 3599POPC   C3B47517  22.260  31.789   6.850
 3599POPC   C4B47518  22.201  32.014   7.221
 3600POPC   NC347519  29.318  21.587   5.241
 3600POPC   PO447520  29.043  21.052   5.530
 3600POPC   GL147521  29.247  21.330   5.812
 3600POPC   GL247522  29.439  21.641   5.739
 3600POPC   C1A47523  29.200  21.327   6.264
 3600POPC   D2A47524  29.372  21.069   6.596
 3600POPC   C3A47525  29.181  21.176   7.004
 3600POPC   C4A47526  28.770  21.074   7.232
 3600POPC   C1B47527  29.185  21.822   6.070
 3600POPC   C2B47528  29.098  21.879   6.508
 3600POPC   C3B47529  29.223  21.676   6.886
 3600POPC   C4B47530  28.983  21.549   7.283
 3601POPC   NC347531  19.176  11.910   5.280
 3601POPC   PO447532  18.879  12.462   5.218
 3601POPC   GL147533  18.979  12.249   5.685
 3601POPC   GL247534  19.160  11.999   5.771
 3601POPC   C1A47535  18.944  12.074   6.198
 3601POPC   D2A47536  18.844  12.149   6.595
 3601POPC   C3A47537  18.914  12.326   6.964
 3601POPC   C4A47538  18.711  12.008   7.163
 3601POPC   C1B47539  19.323  12.358   6.052
 3601POPC   C2B47540  19.315  12.335   6.487
 3601POPC   C3B47541  19.466  12.247   6.892
 3601POPC   C4B47542  19.336  11.860   7.084
 3602POPC   NC347543   7.022  10.050   5.595
 3602POPC   PO447544   7.348   9.567   5.187
 3602POPC   GL147545   7.427   9.736   5.647
 3602POPC   GL247546   7.266   9.551   5.906
 3602POPC   C1A47547   7.636   9.810   6.103
 3602POPC   D2A47548   7.437   9.752   6.513
 3602POPC   C3A47549   7.593   9.534   6.883
 3602POPC   C4A47550   7.472   9.797   7.186
 3602POPC   C1B47551   6.994   9.528   6.287
 3602POPC   C2B47552   6.967   9.707   6.698
 3602POPC   C3B47553   6.992   9.888   7.082
 3602POPC   C4B47554   7.006   9.663   7.486
 3603POPC   NC347555  25.521   8.163   5.506
 3603POPC   PO447556  24.981   8.408   5.185
 3603POPC   GL147557  24.957   8.293   5.672
 3603POPC   GL247558  25.219   8.417   5.849
 3603POPC   C1A47559  24.961   8.057   6.115
 3603POPC   D2A47560  25.228   8.072   6.517
 3603POPC   C3A47561  25.183   8.350   6.843
 3603POPC   C4A47562  25.050   8.157   7.207
 3603POPC   C1B47563  25.177   8.500   6.265
 3603POPC   C2B47564  25.569   8.497   6.503
 3603POPC   C3B47565  25.704   8.440   6.917
 3603POPC   C4B47566  25.457   8.470   7.270
 3604POPC   NC347567  39.627  18.761   5.440
 3604POPC   PO447568  39.123  19.106   5.346
 3604POPC   GL147569  39.235  19.210   5.788
 3604POPC   GL247570  39.211  18.888   5.841
 3604POPC   C1A47571  39.139  19.183   6.286
 3604POPC   D2A47572  38.842  19.069   6.659
 3604POPC   C3A47573  38.903  19.112   7.127
 3604POPC   C4A47574  39.210  19.167   7.444
 3604POPC   C1B47575  39.530  18.867   6.136
 3604POPC   C2B47576  39.585  18.986   6.528
 3604POPC   C3B47577  39.373  19.052   6.907
 3604POPC   C4B47578  39.307  18.726   7.205
 3605POPC   NC347579   5.461  24.855   5.396
 3605POPC   PO447580   5.011  24.306   5.426
 3605POPC   GL147581   5.159  24.626   5.771
 3605POPC   GL247582   5.310  24.377   5.901
 3605POPC   C1A47583   5.278  24.805   6.231
 3605POPC   D2A47584   5.433  24.947   6.683
 3605POPC   C3A47585   5.286  24.746   7.076
 3605POPC   C4A47586   4.881  24.536   7.158
 3605POPC   C1B47587   4.978  24.399   6.220
 3605POPC   C2B47588   5.070  24.488   6.668
 3605POPC   C3B47589   5.281  24.220   6.975
 3605POPC   C4B47590   5.516  24.319   7.325
 3606POPC   NC347591   8.835  32.054   5.588
 3606POPC   PO447592   8.732  32.693   5.382
 3606POPC   GL147593   8.912  32.528   5.810
 3606POPC   GL247594   9.212  32.294   5.830
 3606POPC   C1A47595   8.943  32.339   6.246
 3606POPC   D2A47596   8.998  32.497   6.639
 3606POPC   C3A47597   8.941  32.272   6.989
 3606POPC   C4A47598   8.811  32.350   7.390
 3606POPC   C1B47599   9.442  32.493   6.175
 3606POPC   C2B47600   9.511  32.622   6.603
 3606POPC   C3B47601   9.404  32.501   7.018
 3606POPC   C4B47602   9.240  32.683   7.396
 3607POPC   NC347603  19.682  31.705   5.340
 3607POPC   PO447604  20.221  31.285   5.172
 3607POPC   GL147605  19.955  31.360   5.588
 3607POPC   GL247606  20.041  31.733   5.690
 3607POPC   C1A47607  19.885  31.395   6.077
 3607POPC   D2A47608  20.081  31.486   6.525
 3607POPC   C3A47609  19.859  31.423   6.923
 3607POPC   C4A47610  19.692  31.201   7.282
 3607POPC   C1B47611  20.105  31.848   6.118
 3607POPC   C2B47612  19.736  31.853   6.404
 3607POPC   C3B47613  19.666  31.897   6.835
 3607POPC   C4B47614  19.606  31.744   7.242
 3608POPC   NC347615   3.741  19.135   5.442
 3608POPC   PO447616   3.331  18.635   5.743
 3608POPC   GL147617   3.496  19.043   5.902
 3608POPC   GL247618   3.847  19.115   5.952
 3608POPC   C1A47619   3.515  19.223   6.334
 3608POPC   D2A47620   3.443  18.895   6.629
 3608POPC   C3A47621   3.495  18.977   7.031
 3608POPC   C4A47622   3.632  19.254   7.349
 3608POPC   C1B47623   3.905  18.891   6.368
 3608POPC   C2B47624   3.881  18.670   6.792
 3608POPC   C3B47625   3.958  18.871   7.210
 3608POPC   C4B47626   4.014  18.742   7.629
 3609POPC   NC347627  32.792  21.053   4.904
 3609POPC   PO447628  33.209  21.335   5.423
 3609POPC   GL147629  33.287  21.441   5.795
 3609POPC   GL247630  33.036  21.695   5.837
 3609POPC   C1A47631  33.154  21.296   6.174
 3609POPC   D2A47632  33.085  21.463   6.563
 3609POPC   C3A47633  33.193  21.228   6.922
 3609POPC   C4A47634  33.091  21.204   7.340
 3609POPC   C1B47635  32.743  21.626   6.191
 3609POPC   C2B47636  32.546  21.430   6.535
 3609POPC   C3B47637  32.704  21.393   6.933
 3609POPC   C4B47638  32.817  21.644   7.265
 3610POPC   NC347639  16.149   1.746   5.557
 3610POPC   PO447640  15.827   1.243   5.332
 3610POPC   GL147641  15.952   1.295   5.767
 3610POPC   GL247642  16.350   1.313   5.792
 3610POPC   C1A47643  15.729   1.336   6.165
 3610POPC   D2A47644  15.809   1.113   6.561
 3610POPC   C3A47645  15.634   1.343   6.885
 3610POPC   C4A47646  15.451   1.391   7.259
 3610POPC   C1B47647  16.227   1.310   6.224
 3610POPC   C2B47648  16.115   1.516   6.595
 3610POPC   C3B47649  16.134   1.352   6.986
 3610POPC   C4B47650  16.012   1.501   7.387
 3611POPC   NC347651  17.101   5.886   5.414
 3611POPC   PO447652  17.740   5.826   5.184
 3611POPC   GL147653  17.601   5.858   5.656
 3611POPC   GL247654  17.279   5.913   5.872
 3611POPC   C1A47655  17.703   5.927   6.117
 3611POPC   D2A47656  17.426   5.957   6.453
 3611POPC   C3A47657  17.495   6.155   6.828
 3611POPC   C4A47658  17.634   5.959   7.176
 3611POPC   C1B47659  17.257   5.583   6.152
 3611POPC   C2B47660  17.094   5.560   6.517
 3611POPC   C3B47661  17.271   5.680   6.899
 3611POPC   C4B47662  17.115   5.965   7.198
 3612POPC   NC347663  38.556  41.855   5.464
 3612POPC   PO447664  38.159  41.254   5.418
 3612POPC   GL147665  38.321  41.492   5.731
 3612POPC   GL247666  38.664  41.479   5.820
 3612POPC   C1A47667  38.250  41.566   6.139
 3612POPC   D2A47668  38.387  41.780   6.501
 3612POPC   C3A47669  38.483  41.468   6.794
 3612POPC   C4A47670  38.413  41.559   7.227
 3612POPC   C1B47671  38.772  41.612   6.207
 3612POPC   C2B47672  38.955  41.596   6.606
 3612POPC   C3B47673  38.894  41.558   7.057
 3612POPC   C4B47674  38.856  41.594   7.486
 3613POPC   NC347675  11.886  25.918   5.189
 3613POPC   PO447676  12.486  26.127   5.354
 3613POPC   GL147677  12.101  26.084   5.669
 3613POPC   GL247678  11.850  25.804   5.736
 3613POPC   C1A47679  11.905  26.135   6.124
 3613POPC   D2A47680  12.055  25.994   6.550
 3613POPC   C3A47681  11.952  26.222   6.936
 3613POPC   C4A47682  12.107  26.602   7.148
 3613POPC   C1B47683  12.218  25.751   6.068
 3613POPC   C2B47684  12.529  25.812   6.438
 3613POPC   C3B47685  12.455  25.891   6.904
 3613POPC   C4B47686  12.071  25.751   7.132
 3614POPC   NC347687  19.331   0.344   5.122
 3614POPC   PO447688  18.820   0.697   5.422
 3614POPC   GL147689  19.055   0.479   5.751
 3614POPC   GL247690  18.773   0.482   5.944
 3614POPC   C1A47691  19.227   0.543   6.207
 3614POPC   D2A47692  19.245   0.421   6.680
 3614POPC   C3A47693  19.076   0.700   7.029
 3614POPC   C4A47694  18.972   0.631   7.482
 3614POPC   C1B47695  18.673   0.055   6.111
 3614POPC   C2B47696  18.656  44.868   6.536
 3614POPC   C3B47697  18.665  44.983   6.979
 3614POPC   C4B47698  18.665   0.421   7.104
 3615POPC   NC347699  24.218  10.041   5.470
 3615POPC   PO447700  24.795   9.663   5.392
 3615POPC   GL147701  24.581   9.794   5.776
 3615POPC   GL247702  24.643  10.170   5.758
 3615POPC   C1A47703  24.473   9.632   6.205
 3615POPC   D2A47704  24.443   9.374   6.594
 3615POPC   C3A47705  24.662   9.573   6.942
 3615POPC   C4A47706  24.627   9.797   7.315
 3615POPC   C1B47707  24.422  10.158   6.141
 3615POPC   C2B47708  24.497  10.030   6.552
 3615POPC   C3B47709  24.361  10.001   6.942
 3615POPC   C4B47710  24.151   9.696   7.177
 3616POPC   NC347711  39.988  33.326   5.320
 3616POPC   PO447712  40.369  32.853   5.515
 3616POPC   GL147713  40.163  33.099   5.815
 3616POPC   GL247714  39.825  33.112   5.776
 3616POPC   C1A47715  40.083  33.268   6.239
 3616POPC   D2A47716  39.944  33.121   6.642
 3616POPC   C3A47717  40.263  33.154   6.949
 3616POPC   C4A47718  40.352  32.908   7.300
 3616POPC   C1B47719  39.606  33.091   6.177
 3616POPC   C2B47720  39.444  33.245   6.544
 3616POPC   C3B47721  39.544  33.230   6.965
 3616POPC   C4B47722  39.836  33.074   7.206
 3617POPC   NC347723   5.453   8.817   5.130
 3617POPC   PO447724   5.937   9.297   5.192
 3617POPC   GL147725   5.846   9.087   5.638
 3617POPC   GL247726   6.174   9.083   5.813
 3617POPC   C1A47727   5.811   8.849   6.066
 3617POPC   D2A47728   5.761   8.971   6.526
 3617POPC   C3A47729   5.900   8.691   6.829
 3617POPC   C4A47730   5.889   8.701   7.263
 3617POPC   C1B47731   6.088   9.238   6.232
 3617POPC   C2B47732   6.198   9.237   6.656
 3617POPC   C3B47733   6.031   9.158   7.073
 3617POPC   C4B47734   6.244   9.023   7.450
 3618POPC   NC347735  20.209  27.832   5.487
 3618POPC   PO447736  20.761  28.161   5.330
 3618POPC   GL147737  20.780  28.321   5.745
 3618POPC   GL247738  20.485  28.137   5.872
 3618POPC   C1A47739  20.857  28.292   6.199
 3618POPC   D2A47740  20.658  28.297   6.596
 3618POPC   C3A47741  20.622  28.680   6.872
 3618POPC   C4A47742  20.492  28.721   7.311
 3618POPC   C1B47743  20.287  28.092   6.295
 3618POPC   C2B47744  20.390  27.862   6.693
 3618POPC   C3B47745  20.233  27.808   7.135
 3618POPC   C4B47746  20.452  28.004   7.512
 3619POPC   NC347747  33.910  31.643   5.334
 3619POPC   PO447748  33.339  31.446   5.131
 3619POPC   GL147749  33.490  31.579   5.664
 3619POPC   GL247750  33.821  31.738   5.812
 3619POPC   C1A47751  33.672  31.419   6.155
 3619POPC   D2A47752  33.956  31.175   6.504
 3619POPC   C3A47753  33.986  31.248   6.996
 3619POPC   C4A47754  33.747  31.087   7.387
 3619POPC   C1B47755  34.138  31.835   6.127
 3619POPC   C2B47756  34.075  31.683   6.510
 3619POPC   C3B47757  34.060  31.776   6.924
 3619POPC   C4B47758  33.947  31.912   7.317
 3620POPC   NC347759  40.112  18.645   5.210
 3620POPC   PO447760  39.810  19.284   5.344
 3620POPC   GL147761  39.771  19.159   5.787
 3620POPC   GL247762  40.008  18.911   5.961
 3620POPC   C1A47763  39.849  19.365   6.194
 3620POPC   D2A47764  40.003  19.468   6.619
 3620POPC   C3A47765  39.903  19.106   6.901
 3620POPC   C4A47766  39.721  19.027   7.298
 3620POPC   C1B47767  40.090  18.966   6.432
 3620POPC   C2B47768  40.185  18.618   6.756
 3620POPC   C3B47769  40.224  18.701   7.196
 3620POPC   C4B47770  40.272  19.129   7.245
 3621POPC   NC347771  27.272   8.186   5.403
 3621POPC   PO447772  27.936   8.440   5.476
 3621POPC   GL147773  27.717   8.391   5.879
 3621POPC   GL247774  27.344   8.453   5.864
 3621POPC   C1A47775  27.707   8.395   6.353
 3621POPC   D2A47776  27.885   8.106   6.664
 3621POPC   C3A47777  27.832   8.223   7.065
 3621POPC   C4A47778  27.560   8.453   7.279
 3621POPC   C1B47779  27.377   8.057   6.094
 3621POPC   C2B47780  27.452   7.872   6.489
 3621POPC   C3B47781  27.459   7.860   6.932
 3621POPC   C4B47782  27.578   7.893   7.344
 3622POPC   NC347783  33.980  16.133   5.496
 3622POPC   PO447784  33.490  15.666   5.477
 3622POPC   GL147785  33.714  15.828   5.800
 3622POPC   GL247786  34.069  15.712   5.797
 3622POPC   C1A47787  33.747  16.097   6.124
 3622POPC   D2A47788  33.729  15.991   6.541
 3622POPC   C3A47789  33.642  16.239   6.875
 3622POPC   C4A47790  33.721  16.215   7.302
 3622POPC   C1B47791  34.263  15.646   6.201
 3622POPC   C2B47792  34.130  15.679   6.614
 3622POPC   C3B47793  33.916  15.782   6.998
 3622POPC   C4B47794  33.998  15.789   7.475
 3623POPC   NC347795  43.626   0.993   5.440
 3623POPC   PO447796  44.105   1.415   5.245
 3623POPC   GL147797  44.061   1.154   5.669
 3623POPC   GL247798  43.750   1.240   5.887
 3623POPC   C1A47799  44.091   0.962   6.104
 3623POPC   D2A47800  44.057   1.209   6.492
 3623POPC   C3A47801  44.009   1.067   6.906
 3623POPC   C4A47802  44.051   1.220   7.318
 3623POPC   C1B47803  43.599   1.465   6.253
 3623POPC   C2B47804  43.602   1.321   6.698
 3623POPC   C3B47805  43.575   1.316   7.134
 3623POPC   C4B47806  43.397   1.518   7.520
 3624POPC   NC347807   8.899   4.839   5.591
 3624POPC   PO447808   9.161   5.317   5.298
 3624POPC   GL147809   9.226   5.304   5.772
 3624POPC   GL247810   9.317   4.973   5.861
 3624POPC   C1A47811   9.023   5.168   6.208
 3624POPC   D2A47812   8.795   5.077   6.597
 3624POPC   C3A47813   8.961   5.164   7.019
 3624POPC   C4A47814   8.602   5.204   7.259
 3624POPC   C1B47815   9.456   4.832   6.268
 3624POPC   C2B47816   9.324   5.026   6.662
 3624POPC   C3B47817   9.382   4.879   7.098
 3624POPC   C4B47818   9.217   4.803   7.526
 3625POPC   NC347819  35.201  17.176   5.516
 3625POPC   PO447820  35.225  16.530   5.477
 3625POPC   GL147821  35.354  16.800   5.818
 3625POPC   GL247822  35.058  16.957   5.946
 3625POPC   C1A47823  35.426  16.730   6.230
 3625POPC   D2A47824  35.218  16.783   6.621
 3625POPC   C3A47825  35.463  16.601   6.940
 3625POPC   C4A47826  35.535  16.666   7.341
 3625POPC   C1B47827  34.924  16.626   6.220
 3625POPC   C2B47828  34.881  16.382   6.606
 3625POPC   C3B47829  34.955  16.560   7.020
 3625POPC   C4B47830  34.979  16.697   7.473
 3626POPC   NC347831  35.145   8.418   5.504
 3626POPC   PO447832  34.424   8.219   5.426
 3626POPC   GL147833  34.439   8.020   5.790
 3626POPC   GL247834  34.800   8.002   5.794
 3626POPC   C1A47835  34.415   8.196   6.216
 3626POPC   D2A47836  34.640   8.102   6.579
 3626POPC   C3A47837  34.534   8.239   6.989
 3626POPC   C4A47838  34.635   8.079   7.389
 3626POPC   C1B47839  34.900   8.318   6.121
 3626POPC   C2B47840  34.804   8.560   6.506
 3626POPC   C3B47841  34.998   8.412   6.860
 3626POPC   C4B47842  34.890   8.512   7.248
 3627POPC   NC347843   8.433  30.786   5.373
 3627POPC   PO447844   7.782  30.522   5.406
 3627POPC   GL147845   8.022  30.396   5.777
 3627POPC   GL247846   8.192  30.721   5.841
 3627POPC   C1A47847   8.034  30.448   6.240
 3627POPC   D2A47848   8.291  30.676   6.567
 3627POPC   C3A47849   8.116  30.609   6.959
 3627POPC   C4A47850   8.293  30.401   7.304
 3627POPC   C1B47851   8.391  30.994   6.174
 3627POPC   C2B47852   8.444  31.262   6.544
 3627POPC   C3B47853   8.508  31.193   6.961
 3627POPC   C4B47854   8.410  30.893   7.247
 3628POPC   NC347855   0.850  25.988   5.420
 3628POPC   PO447856   1.500  25.805   5.403
 3628POPC   GL147857   1.268  25.989   5.800
 3628POPC   GL247858   0.899  25.939   5.918
 3628POPC   C1A47859   1.324  26.029   6.271
 3628POPC   D2A47860   1.472  26.250   6.677
 3628POPC   C3A47861   1.395  26.124   7.109
 3628POPC   C4A47862   1.465  25.844   7.471
 3628POPC   C1B47863   0.876  25.603   6.205
 3628POPC   C2B47864   0.744  25.495   6.620
 3628POPC   C3B47865   0.875  25.728   7.002
 3628POPC   C4B47866   0.876  26.161   7.167
 3629POPC   NC347867   4.314  32.700   4.921
 3629POPC   PO447868   4.408  32.700   5.596
 3629POPC   GL147869   4.331  33.018   5.890
 3629POPC   GL247870   4.012  33.100   5.847
 3629POPC   C1A47871   4.334  33.144   6.304
 3629POPC   D2A47872   4.184  32.954   6.659
 3629POPC   C3A47873   4.456  33.030   7.004
 3629POPC   C4A47874   4.510  32.932   7.432
 3629POPC   C1B47875   3.826  33.118   6.246
 3629POPC   C2B47876   3.828  33.328   6.646
 3629POPC   C3B47877   3.970  33.221   7.036
 3629POPC   C4B47878   3.879  33.106   7.451
 3630POPC   NC347879  28.604  17.379   5.323
 3630POPC   PO447880  28.075  17.632   5.505
 3630POPC   GL147881  28.349  17.461   5.798
 3630POPC   GL247882  28.570  17.739   5.766
 3630POPC   C1A47883  28.433  17.290   6.211
 3630POPC   D2A47884  28.287  17.140   6.623
 3630POPC   C3A47885  28.437  17.276   7.037
 3630POPC   C4A47886  28.286  17.307   7.484
 3630POPC   C1B47887  28.301  17.818   6.160
 3630POPC   C2B47888  28.225  17.650   6.552
 3630POPC   C3B47889  28.235  17.767   6.954
 3630POPC   C4B47890  28.425  17.761   7.333
 3631POPC   NC347891  13.377  41.149   5.541
 3631POPC   PO447892  13.677  40.569   5.298
 3631POPC   GL147893  13.728  40.637   5.751
 3631POPC   GL247894  13.425  40.719   5.811
 3631POPC   C1A47895  13.722  40.627   6.248
 3631POPC   D2A47896  13.885  40.878   6.658
 3631POPC   C3A47897  13.779  40.751   7.089
 3631POPC   C4A47898  13.768  40.791   7.525
 3631POPC   C1B47899  13.317  40.921   6.174
 3631POPC   C2B47900  13.382  40.781   6.607
 3631POPC   C3B47901  13.353  40.996   6.974
 3631POPC   C4B47902  13.308  40.955   7.382
 3632POPC   NC347903  36.779   5.127   5.401
 3632POPC   PO447904  36.085   5.188   5.336
 3632POPC   GL147905  36.221   5.124   5.756
 3632POPC   GL247906  36.542   5.219   5.837
 3632POPC   C1A47907  36.058   5.201   6.185
 3632POPC   D2A47908  35.933   4.892   6.490
 3632POPC   C3A47909  36.027   4.974   6.909
 3632POPC   C4A47910  35.743   4.937   7.232
 3632POPC   C1B47911  36.508   5.438   6.253
 3632POPC   C2B47912  36.223   5.577   6.592
 3632POPC   C3B47913  36.132   5.464   7.034
 3632POPC   C4B47914  36.300   5.230   7.330
 3633POPC   NC347915  21.972  11.052   5.327
 3633POPC   PO447916  22.417  11.502   5.442
 3633POPC   GL147917  22.181  11.278   5.786
 3633POPC   GL247918  21.816  11.278   5.785
 3633POPC   C1A47919  22.101  11.113   6.214
 3633POPC   D2A47920  22.131  10.951   6.664
 3633POPC   C3A47921  22.295  11.015   7.121
 3633POPC   C4A47922  22.344  11.078   7.591
 3633POPC   C1B47923  21.655  11.427   6.176
 3633POPC   C2B47924  21.855  11.389   6.579
 3633POPC   C3B47925  21.861  11.244   6.991
 3633POPC   C4B47926  21.859  11.087   7.418
 3634POPC   NC347927  10.875  40.977   5.448
 3634POPC   PO447928  11.388  40.555   5.465
 3634POPC   GL147929  11.220  40.783   5.805
 3634POPC   GL247930  11.444  40.590   6.003
 3634POPC   C1A47931  10.944  40.934   6.160
 3634POPC   D2A47932  10.995  41.089   6.602
 3634POPC   C3A47933  10.880  40.839   6.984
 3634POPC   C4A47934  11.099  40.732   7.415
 3634POPC   C1B47935  11.454  40.990   6.245
 3634POPC   C2B47936  11.565  41.103   6.654
 3634POPC   C3B47937  11.363  40.988   7.039
 3634POPC   C4B47938  11.382  41.159   7.468
 3635POPC   NC347939   1.339  24.661   5.445
 3635POPC   PO447940   0.796  24.739   5.140
 3635POPC   GL147941   0.930  24.476   5.662
 3635POPC   GL247942   1.168  24.686   5.944
 3635POPC   C1A47943   1.043  24.221   6.076
 3635POPC   D2A47944   0.922  24.129   6.518
 3635POPC   C3A47945   0.982  24.472   6.825
 3635POPC   C4A47946   1.058  24.529   7.227
 3635POPC   C1B47947   1.144  24.627   6.377
 3635POPC   C2B47948   1.397  24.299   6.585
 3635POPC   C3B47949   1.488  24.354   6.983
 3635POPC   C4B47950   1.439  24.836   7.100
 3636POPC   NC347951  11.443  17.158   5.445
 3636POPC   PO447952  11.643  16.566   5.224
 3636POPC   GL147953  11.512  16.679   5.682
 3636POPC   GL247954  11.184  16.550   5.784
 3636POPC   C1A47955  11.531  16.773   6.167
 3636POPC   D2A47956  11.332  16.825   6.607
 3636POPC   C3A47957  11.512  16.589   6.960
 3636POPC   C4A47958  11.895  16.433   7.126
 3636POPC   C1B47959  11.068  16.575   6.224
 3636POPC   C2B47960  11.019  16.386   6.654
 3636POPC   C3B47961  11.064  16.391   7.131
 3636POPC   C4B47962  11.110  16.341   7.604
 3637POPC   NC347963  19.029  35.858   5.196
 3637POPC   PO447964  18.970  35.286   5.439
 3637POPC   GL147965  18.979  35.368   5.857
 3637POPC   GL247966  18.833  35.067   5.981
 3637POPC   C1A47967  19.119  35.429   6.262
 3637POPC   D2A47968  18.985  35.349   6.660
 3637POPC   C3A47969  19.276  35.386   6.975
 3637POPC   C4A47970  19.425  35.616   7.323
 3637POPC   C1B47971  19.182  34.923   6.205
 3637POPC   C2B47972  19.374  34.861   6.606
 3637POPC   C3B47973  19.264  34.899   7.030
 3637POPC   C4B47974  19.284  35.143   7.448
 3638POPC   NC347975   5.362  29.983   5.508
 3638POPC   PO447976   4.713  30.224   5.502
 3638POPC   GL147977   4.933  30.045   5.820
 3638POPC   GL247978   5.171  30.296   5.853
 3638POPC   C1A47979   5.019  29.799   6.192
 3638POPC   D2A47980   4.888  29.689   6.607
 3638POPC   C3A47981   5.221  29.564   6.859
 3638POPC   C4A47982   5.400  29.718   7.246
 3638POPC   C1B47983   5.027  30.293   6.267
 3638POPC   C2B47984   5.212  30.079   6.632
 3638POPC   C3B47985   5.053  30.035   7.046
 3638POPC   C4B47986   4.770  30.345   7.227
 3639POPC   NC347987  34.822  16.256   5.608
 3639POPC   PO447988  34.713  16.853   5.235
 3639POPC   GL147989  34.591  16.986   5.658
 3639POPC   GL247990  34.575  16.646   5.800
 3639POPC   C1A47991  34.611  17.033   6.129
 3639POPC   D2A47992  34.896  17.159   6.471
 3639POPC   C3A47993  34.856  17.049   6.887
 3639POPC   C4A47994  34.739  17.115   7.289
 3639POPC   C1B47995  34.427  16.557   6.216
 3639POPC   C2B47996  34.536  16.773   6.589
 3639POPC   C3B47997  34.450  16.763   7.030
 3639POPC   C4B47998  34.564  16.468   7.318
 3640POPC   NC347999  39.643  33.846   5.279
 3640POPC   PO448000  39.069  34.065   5.640
 3640POPC   GL148001  39.112  33.684   5.877
 3640POPC   GL248002  38.803  33.815   6.003
 3640POPC   C1A48003  39.080  33.554   6.322
 3640POPC   D2A48004  39.278  33.774   6.622
 3640POPC   C3A48005  39.077  33.779   6.991
 3640POPC   C4A48006  39.396  33.655   7.220
 3640POPC   C1B48007  39.053  34.124   6.293
 3640POPC   C2B48008  39.073  34.270   6.743
 3640POPC   C3B48009  39.040  34.255   7.205
 3640POPC   C4B48010  39.079  33.927   7.523
 3641POPC   NC348011   7.247  39.336   5.302
 3641POPC   PO448012   6.564  39.109   5.295
 3641POPC   GL148013   6.843  39.172   5.685
 3641POPC   GL248014   6.995  38.832   5.750
 3641POPC   C1A48015   6.703  39.404   6.076
 3641POPC   D2A48016   6.659  39.305   6.505
 3641POPC   C3A48017   6.598  39.562   6.873
 3641POPC   C4A48018   6.592  39.390   7.278
 3641POPC   C1B48019   6.824  38.862   6.174
 3641POPC   C2B48020   6.711  38.813   6.613
 3641POPC   C3B48021   6.879  39.111   6.939
 3641POPC   C4B48022   7.015  39.119   7.337
 3642POPC   NC348023  34.955  13.476   5.666
 3642POPC   PO448024  35.506  13.812   5.373
 3642POPC   GL148025  35.494  13.533   5.726
 3642POPC   GL248026  35.321  13.800   5.845
 3642POPC   C1A48027  35.454  13.371   6.173
 3642POPC   D2A48028  35.727  13.349   6.566
 3642POPC   C3A48029  35.547  13.267   7.000
 3642POPC   C4A48030  35.214  13.385   7.322
 3642POPC   C1B48031  35.514  13.928   6.141
 3642POPC   C2B48032  35.338  13.737   6.501
 3642POPC   C3B48033  35.255  13.693   6.924
 3642POPC   C4B48034  35.433  13.896   7.303
 3643POPC   NC348035  24.712  19.737   5.381
 3643POPC   PO448036  24.199  20.147   5.446
 3643POPC   GL148037  24.490  20.025   5.765
 3643POPC   GL248038  24.876  20.005   5.809
 3643POPC   C1A48039  24.493  19.943   6.184
 3643POPC   D2A48040  24.346  19.948   6.594
 3643POPC   C3A48041  24.353  19.545   6.778
 3643POPC   C4A48042  24.449  19.672   7.169
 3643POPC   C1B48043  24.998  19.833   6.233
 3643POPC   C2B48044  24.830  19.752   6.644
 3643POPC   C3B48045  24.952  19.812   7.074
 3643POPC   C4B48046  24.773  20.095   7.336
 3644POPC   NC348047  10.216  18.443   5.539
 3644POPC   PO448048  10.684  18.061   5.360
 3644POPC   GL148049  10.656  18.236   5.770
 3644POPC   GL248050  10.697  18.579   5.745
 3644POPC   C1A48051  10.478  18.187   6.198
 3644POPC   D2A48052  10.280  18.180   6.622
 3644POPC   C3A48053  10.539  18.311   6.945
 3644POPC   C4A48054  10.616  18.244   7.352
 3644POPC   C1B48055  10.459  18.695   6.119
 3644POPC   C2B48056  10.530  18.696   6.549
 3644POPC   C3B48057  10.207  18.679   6.820
 3644POPC   C4B48058  10.152  18.551   7.220
 3645POPC   NC348059  31.616   2.305   5.422
 3645POPC   PO448060  31.198   1.679   5.503
 3645POPC   GL148061  31.508   1.908   5.752
 3645POPC   GL248062  31.438   2.244   5.891
 3645POPC   C1A48063  31.631   1.858   6.191
 3645POPC   D2A48064  31.530   2.089   6.570
 3645POPC   C3A48065  31.491   2.028   7.030
 3645POPC   C4A48066  31.417   2.196   7.491
 3645POPC   C1B48067  31.787   2.367   6.166
 3645POPC   C2B48068  31.954   2.373   6.570
 3645POPC   C3B48069  31.974   2.095   6.916
 3645POPC   C4B48070  31.932   2.179   7.350
 3646POPC   NC348071  35.522   6.220   5.500
 3646POPC   PO448072  35.239   5.575   5.439
 3646POPC   GL148073  35.193   5.870   5.767
 3646POPC   GL248074  35.507   5.861   5.882
 3646POPC   C1A48075  35.130   5.769   6.202
 3646POPC   D2A48076  35.455   5.791   6.485
 3646POPC   C3A48077  35.292   5.657   6.835
 3646POPC   C4A48078  35.414   5.851   7.197
 3646POPC   C1B48079  35.414   6.206   6.170
 3646POPC   C2B48080  35.473   6.329   6.587
 3646POPC   C3B48081  35.674   6.289   6.979
 3646POPC   C4B48082  35.559   6.284   7.404
 3647POPC   NC348083   7.261   1.841   5.323
 3647POPC   PO448084   7.767   2.268   5.482
 3647POPC   GL148085   7.461   2.074   5.779
 3647POPC   GL248086   7.143   2.226   5.666
 3647POPC   C1A48087   7.477   1.843   6.220
 3647POPC   D2A48088   7.625   1.756   6.660
 3647POPC   C3A48089   7.400   1.954   6.991
 3647POPC   C4A48090   7.549   2.288   7.266
 3647POPC   C1B48091   7.096   2.176   6.114
 3647POPC   C2B48092   7.227   2.189   6.523
 3647POPC   C3B48093   6.976   2.219   6.862
 3647POPC   C4B48094   7.060   2.208   7.273
 3648POPC   NC348095  12.199   8.608   5.232
 3648POPC   PO448096  11.807   9.096   5.501
 3648POPC   GL148097  12.081   9.027   5.858
 3648POPC   GL248098  12.292   8.731   5.885
 3648POPC   C1A48099  11.909   8.851   6.253
 3648POPC   D2A48100  11.666   8.970   6.559
 3648POPC   C3A48101  11.800   8.911   6.948
 3648POPC   C4A48102  12.006   8.572   7.142
 3648POPC   C1B48103  12.369   9.002   6.294
 3648POPC   C2B48104  12.255   8.819   6.701
 3648POPC   C3B48105  12.262   9.056   7.095
 3648POPC   C4B48106  12.364   9.260   7.484
 3649POPC   NC348107   4.500  10.629   5.500
 3649POPC   PO448108   4.035  10.221   5.544
 3649POPC   GL148109   4.310  10.343   5.882
 3649POPC   GL248110   4.226  10.703   5.915
 3649POPC   C1A48111   4.320  10.439   6.328
 3649POPC   D2A48112   4.192  10.501   6.713
 3649POPC   C3A48113   4.552  10.495   6.926
 3649POPC   C4A48114   4.604  10.265   7.310
 3649POPC   C1B48115   4.011  10.891   6.267
 3649POPC   C2B48116   3.840  10.861   6.675
 3649POPC   C3B48117   4.078  10.949   7.016
 3649POPC   C4B48118   4.183  10.574   7.255
 3650POPC   NC348119  31.082   6.226   5.537
 3650POPC   PO448120  31.654   5.901   5.460
 3650POPC   GL148121  31.502   5.813   5.842
 3650POPC   GL248122  31.376   6.139   5.936
 3650POPC   C1A48123  31.665   5.852   6.241
 3650POPC   D2A48124  31.883   5.805   6.573
 3650POPC   C3A48125  31.648   5.862   6.862
 3650POPC   C4A48126  31.596   6.003   7.211
 3650POPC   C1B48127  31.158   5.910   6.263
 3650POPC   C2B48128  31.188   5.752   6.673
 3650POPC   C3B48129  31.105   5.993   7.069
 3650POPC   C4B48130  31.023   6.153   7.508
 3651POPC   NC348131  35.960  10.387   5.468
 3651POPC   PO448132  36.517  10.748   5.478
 3651POPC   GL148133  36.243  10.640   5.807
 3651POPC   GL248134  36.381  10.323   5.827
 3651POPC   C1A48135  35.988  10.416   6.158
 3651POPC   D2A48136  35.935  10.510   6.605
 3651POPC   C3A48137  36.030  10.272   7.006
 3651POPC   C4A48138  36.087  10.520   7.375
 3651POPC   C1B48139  36.486  10.437   6.303
 3651POPC   C2B48140  36.433  10.473   6.786
 3651POPC   C3B48141  36.551  10.666   7.208
 3651POPC   C4B48142  36.512  10.567   7.689
 3652POPC   NC348143  16.584  35.818   5.225
 3652POPC   PO448144  17.126  36.168   5.216
 3652POPC   GL148145  16.971  36.113   5.644
 3652POPC   GL248146  16.597  36.195   5.674
 3652POPC   C1A48147  16.889  36.067   6.089
 3652POPC   D2A48148  16.808  36.259   6.498
 3652POPC   C3A48149  16.784  35.924   6.798
 3652POPC   C4A48150  17.008  35.710   7.109
 3652POPC   C1B48151  16.492  36.394   6.087
 3652POPC   C2B48152  16.314  36.374   6.524
 3652POPC   C3B48153  16.486  36.307   6.941
 3652POPC   C4B48154  16.620  36.592   7.238
 3653POPC   NC348155  11.645  10.934   5.379
 3653POPC   PO448156  11.283  10.348   5.407
 3653POPC   GL148157  11.322  10.555   5.824
 3653POPC   GL248158  11.421  10.884   5.829
 3653POPC   C1A48159  11.554  10.565   6.236
 3653POPC   D2A48160  11.707  10.282   6.585
 3653POPC   C3A48161  11.400  10.297   6.923
 3653POPC   C4A48162  11.289  10.597   7.249
 3653POPC   C1B48163  11.225  10.997   6.217
 3653POPC   C2B48164  11.232  10.833   6.637
 3653POPC   C3B48165  11.141  11.023   7.013
 3653POPC   C4B48166  10.776  10.979   7.263
 3654POPC   NC348167  14.997  12.695   5.467
 3654POPC   PO448168  15.556  12.958   5.180
 3654POPC   GL148169  15.524  12.824   5.611
 3654POPC   GL248170  15.365  13.105   5.780
 3654POPC   C1A48171  15.529  12.645   6.038
 3654POPC   D2A48172  15.371  12.643   6.478
 3654POPC   C3A48173  15.148  12.603   6.882
 3654POPC   C4A48174  15.274  12.726   7.292
 3654POPC   C1B48175  15.106  12.922   6.120
 3654POPC   C2B48176  15.021  13.008   6.552
 3654POPC   C3B48177  15.162  13.111   6.966
 3654POPC   C4B48178  14.885  13.282   7.242
 3655POPC   NC348179  43.450   0.216   5.312
 3655POPC   PO448180  43.989   0.627   5.280
 3655POPC   GL148181  43.967   0.402   5.690
 3655POPC   GL248182  43.605   0.362   5.799
 3655POPC   C1A48183  44.100   0.433   6.143
 3655POPC   D2A48184  44.205   0.687   6.535
 3655POPC   C3A48185  43.995   0.546   6.896
 3655POPC   C4A48186  44.052   0.723   7.298
 3655POPC   C1B48187  43.514   0.524   6.230
 3655POPC   C2B48188  43.631   0.807   6.601
 3655POPC   C3B48189  43.584   0.805   7.068
 3655POPC   C4B48190  43.613   0.524   7.438
 3656POPC   NC348191  16.505  41.592   5.502
 3656POPC   PO448192  16.934  41.281   5.093
 3656POPC   GL148193  17.033  41.516   5.572
 3656POPC   GL248194  16.875  41.852   5.703
 3656POPC   C1A48195  17.033  41.520   6.075
 3656POPC   D2A48196  17.025  41.386   6.537
 3656POPC   C3A48197  16.897  41.597   6.902
 3656POPC   C4A48198  16.582  41.678   7.174
 3656POPC   C1B48199  16.628  41.829   6.135
 3656POPC   C2B48200  16.548  41.778   6.592
 3656POPC   C3B48201  16.217  41.903   6.860
 3656POPC   C4B48202  16.131  41.986   7.249
 3657POPC   NC348203  35.036  33.897   5.260
 3657POPC   PO448204  35.579  33.612   5.547
 3657POPC   GL148205  35.302  33.828   5.827
 3657POPC   GL248206  35.415  33.532   6.041
 3657POPC   C1A48207  35.131  33.866   6.260
 3657POPC   D2A48208  35.415  33.804   6.607
 3657POPC   C3A48209  35.237  33.719   6.991
 3657POPC   C4A48210  34.978  33.988   7.222
 3657POPC   C1B48211  35.748  33.496   6.324
 3657POPC   C2B48212  35.762  33.455   6.746
 3657POPC   C3B48213  35.744  33.746   7.077
 3657POPC   C4B48214  35.754  33.598   7.512
 3658POPC   NC348215  29.010   0.168   5.372
 3658POPC   PO448216  29.361   0.703   5.525
 3658POPC   GL148217  29.247   0.383   5.801
 3658POPC   GL248218  28.944   0.576   5.849
 3658POPC   C1A48219  29.229   0.374   6.247
 3658POPC   D2A48220  29.240   0.178   6.624
 3658POPC   C3A48221  29.274   0.414   6.986
 3658POPC   C4A48222  29.081   0.314   7.377
 3658POPC   C1B48223  28.788   0.626   6.292
 3658POPC   C2B48224  28.855   0.566   6.744
 3658POPC   C3B48225  28.956   0.770   7.167
 3658POPC   C4B48226  28.820   0.712   7.627
 3659POPC   NC348227  18.098  18.325   5.510
 3659POPC   PO448228  18.712  18.041   5.483
 3659POPC   GL148229  18.473  18.158   5.817
 3659POPC   GL248230  18.184  17.944   5.840
 3659POPC   C1A48231  18.449  18.349   6.196
 3659POPC   D2A48232  18.258  18.421   6.589
 3659POPC   C3A48233  18.528  18.473   6.938
 3659POPC   C4A48234  18.553  18.309   7.336
 3659POPC   C1B48235  17.984  18.095   6.240
 3659POPC   C2B48236  17.862  18.118   6.707
 3659POPC   C3B48237  18.005  18.400   7.056
 3659POPC   C4B48238  17.869  18.463   7.482
 3660POPC   NC348239  37.050  30.583   5.354
 3660POPC   PO448240  36.410  30.370   5.481
 3660POPC   GL148241  36.690  30.633   5.770
 3660POPC   GL248242  37.025  30.492   5.842
 3660POPC   C1A48243  36.881  30.945   6.111
 3660POPC   D2A48244  36.853  31.186   6.536
 3660POPC   C3A48245  36.678  30.992   6.944
 3660POPC   C4A48246  36.823  30.874   7.376
 3660POPC   C1B48247  36.787  30.448   6.233
 3660POPC   C2B48248  36.851  30.671   6.585
 3660POPC   C3B48249  37.029  30.614   6.976
 3660POPC   C4B48250  36.981  30.402   7.361
 3661POPC   NC348251  21.325  29.523   5.368
 3661POPC   PO448252  21.174  28.842   5.373
 3661POPC   GL148253  21.347  29.067   5.760
 3661POPC   GL248254  21.511  29.407   5.819
 3661POPC   C1A48255  21.558  29.004   6.176
 3661POPC   D2A48256  21.581  28.765   6.559
 3661POPC   C3A48257  21.532  29.001   6.954
 3661POPC   C4A48258  21.327  29.010   7.370
 3661POPC   C1B48259  21.786  29.452   6.151
 3661POPC   C2B48260  21.695  29.329   6.558
 3661POPC   C3B48261  21.845  29.401   6.944
 3661POPC   C4B48262  21.720  29.340   7.351
 3662POPC   NC348263   6.843   2.476   4.985
 3662POPC   PO448264   6.468   2.794   5.401
 3662POPC   GL148265   6.478   2.720   5.793
 3662POPC   GL248266   6.354   3.039   5.860
 3662POPC   C1A48267   6.705   2.711   6.158
 3662POPC   D2A48268   6.631   2.826   6.577
 3662POPC   C3A48269   6.838   2.693   6.908
 3662POPC   C4A48270   6.703   2.552   7.287
 3662POPC   C1B48271   6.201   3.057   6.271
 3662POPC   C2B48272   6.207   3.060   6.704
 3662POPC   C3B48273   6.420   2.925   7.065
 3662POPC   C4B48274   6.523   2.957   7.508
 3663POPC   NC348275   9.232  19.804   5.500
 3663POPC   PO448276   8.661  20.086   5.437
 3663POPC   GL148277   8.910  19.969   5.854
 3663POPC   GL248278   9.072  19.651   5.969
 3663POPC   C1A48279   8.883  19.945   6.325
 3663POPC   D2A48280   8.580  20.061   6.652
 3663POPC   C3A48281   8.715  19.877   7.057
 3663POPC   C4A48282   9.078  19.864   7.301
 3663POPC   C1B48283   9.214  19.535   6.417
 3663POPC   C2B48284   9.124  19.562   6.875
 3663POPC   C3B48285   9.009  19.366   7.277
 3663POPC   C4B48286   8.919  18.984   7.523
 3664POPC   NC348287  30.225  28.647   5.444
 3664POPC   PO448288  29.579  28.367   5.443
 3664POPC   GL148289  29.874  28.406   5.764
 3664POPC   GL248290  29.797  28.721   5.818
 3664POPC   C1A48291  30.115  28.497   6.145
 3664POPC   D2A48292  30.112  28.645   6.556
 3664POPC   C3A48293  30.123  28.362   6.875
 3664POPC   C4A48294  30.192  28.499   7.268
 3664POPC   C1B48295  29.762  28.895   6.235
 3664POPC   C2B48296  29.617  28.749   6.655
 3664POPC   C3B48297  29.703  28.599   7.048
 3664POPC   C4B48298  29.674  28.812   7.434
 3665POPC   NC348299  15.231  36.526   5.455
 3665POPC   PO448300  14.978  37.093   5.410
 3665POPC   GL148301  15.127  37.028   5.807
 3665POPC   GL248302  15.424  36.847   5.817
 3665POPC   C1A48303  15.050  36.859   6.215
 3665POPC   D2A48304  14.802  36.727   6.557
 3665POPC   C3A48305  14.989  36.907   6.900
 3665POPC   C4A48306  15.298  37.148   7.212
 3665POPC   C1B48307  15.547  36.636   6.216
 3665POPC   C2B48308  15.315  36.557   6.618
 3665POPC   C3B48309  15.370  36.643   7.068
 3665POPC   C4B48310  15.036  36.746   7.391
 3666POPC   NC348311  15.286   3.943   5.513
 3666POPC   PO448312  14.998   3.355   5.527
 3666POPC   GL148313  15.282   3.412   5.869
 3666POPC   GL248314  15.114   3.687   5.925
 3666POPC   C1A48315  15.563   3.229   6.197
 3666POPC   D2A48316  15.668   3.127   6.632
 3666POPC   C3A48317  15.706   3.491   6.916
 3666POPC   C4A48318  15.431   3.765   7.177
 3666POPC   C1B48319  14.961   3.652   6.317
 3666POPC   C2B48320  15.094   3.771   6.716
 3666POPC   C3B48321  14.862   3.770   7.065
 3666POPC   C4B48322  14.569   3.623   7.328
 3667POPC   NC348323  12.352  28.973   5.498
 3667POPC   PO448324  13.002  28.916   5.344
 3667POPC   GL148325  12.866  29.189   5.706
 3667POPC   GL248326  12.597  29.444   5.795
 3667POPC   C1A48327  12.702  29.059   6.106
 3667POPC   D2A48328  12.739  29.223   6.493
 3667POPC   C3A48329  12.783  29.053   6.897
 3667POPC   C4A48330  13.058  29.118   7.239
 3667POPC   C1B48331  12.438  29.586   6.198
 3667POPC   C2B48332  12.326  29.470   6.639
 3667POPC   C3B48333  12.534  29.504   7.049
 3667POPC   C4B48334  12.284  29.480   7.440
 3668POPC   NC348335  40.215  43.445   5.156
 3668POPC   PO448336  39.959  43.832   5.675
 3668POPC   GL148337  39.998  43.536   5.962
 3668POPC   GL248338  40.254  43.372   5.738
 3668POPC   C1A48339  39.988  43.733   6.383
 3668POPC   D2A48340  40.026  44.177   6.539
 3668POPC   C3A48341  39.956  44.190   6.978
 3668POPC   C4A48342  39.808  43.774   7.075
 3668POPC   C1B48343  40.452  43.346   6.168
 3668POPC   C2B48344  40.327  43.411   6.606
 3668POPC   C3B48345  40.264  43.791   6.842
 3668POPC   C4B48346  40.376  43.917   7.277
 3669POPC   NC348347  23.509  40.572   4.948
 3669POPC   PO448348  23.799  41.137   5.208
 3669POPC   GL148349  23.963  40.974   5.671
 3669POPC   GL248350  23.762  41.140   5.930
 3669POPC   C1A48351  24.028  40.737   6.127
 3669POPC   D2A48352  23.856  40.715   6.582
 3669POPC   C3A48353  23.637  40.744   7.016
 3669POPC   C4A48354  23.818  40.704   7.465
 3669POPC   C1B48355  23.934  41.233   6.349
 3669POPC   C2B48356  23.914  41.196   6.815
 3669POPC   C3B48357  23.795  41.159   7.239
 3669POPC   C4B48358  23.411  41.038   7.457
 3670POPC   NC348359  38.722  14.633   5.289
 3670POPC   PO448360  38.099  14.454   5.370
 3670POPC   GL148361  38.436  14.382   5.726
 3670POPC   GL248362  38.768  14.567   5.776
 3670POPC   C1A48363  38.551  14.232   6.135
 3670POPC   D2A48364  38.358  14.017   6.493
 3670POPC   C3A48365  38.396  14.268   6.896
 3670POPC   C4A48366  38.257  14.188   7.324
 3670POPC   C1B48367  38.854  14.651   6.168
 3670POPC   C2B48368  38.676  14.521   6.548
 3670POPC   C3B48369  38.708  14.768   6.909
 3670POPC   C4B48370  38.780  14.696   7.344
 3671POPC   NC348371  12.996  17.098   5.560
 3671POPC   PO448372  13.141  16.474   5.558
 3671POPC   GL148373  12.808  16.670   5.801
 3671POPC   GL248374  12.532  16.870   5.628
 3671POPC   C1A48375  12.943  16.812   6.217
 3671POPC   D2A48376  12.937  16.575   6.583
 3671POPC   C3A48377  12.799  16.714   6.955
 3671POPC   C4A48378  12.921  16.597   7.333
 3671POPC   C1B48379  12.483  16.969   6.065
 3671POPC   C2B48380  12.545  16.949   6.541
 3671POPC   C3B48381  12.612  17.176   6.979
 3671POPC   C4B48382  13.019  17.087   7.244
 3672POPC   NC348383  15.973  34.735   5.496
 3672POPC   PO448384  16.225  34.158   5.245
 3672POPC   GL148385  16.089  34.283   5.712
 3672POPC   GL248386  15.756  34.430   5.822
 3672POPC   C1A48387  16.151  34.364   6.176
 3672POPC   D2A48388  15.976  34.330   6.606
 3672POPC   C3A48389  15.676  34.505   6.894
 3672POPC   C4A48390  15.910  34.335   7.207
 3672POPC   C1B48391  15.759  34.714   6.157
 3672POPC   C2B48392  15.888  34.838   6.558
 3672POPC   C3B48393  16.148  34.721   6.906
 3672POPC   C4B48394  16.162  34.941   7.280
 3673POPC   NC348395  28.862  41.350   5.509
 3673POPC   PO448396  29.488  41.706   5.459
 3673POPC   GL148397  29.225  41.613   5.741
 3673POPC   GL248398  29.317  41.271   5.800
 3673POPC   C1A48399  29.114  41.719   6.124
 3673POPC   D2A48400  29.195  41.621   6.523
 3673POPC   C3A48401  29.199  41.834   6.863
 3673POPC   C4A48402  29.098  41.858   7.267
 3673POPC   C1B48403  29.106  41.205   6.191
 3673POPC   C2B48404  29.204  41.129   6.624
 3673POPC   C3B48405  29.114  41.339   7.009
 3673POPC   C4B48406  28.849  41.401   7.367
 3674POPC   NC348407  43.299  20.831   5.484
 3674POPC   PO448408  43.201  20.154   5.458
 3674POPC   GL148409  43.120  20.328   5.857
 3674POPC   GL248410  42.848  20.594   5.843
 3674POPC   C1A48411  43.284  20.306   6.279
 3674POPC   D2A48412  43.100  20.124   6.649
 3674POPC   C3A48413  43.064  20.410   6.964
 3674POPC   C4A48414  42.735  20.411   7.219
 3674POPC   C1B48415  43.149  20.771   6.141
 3674POPC   C2B48416  43.264  20.756   6.592
 3674POPC   C3B48417  43.253  20.937   6.986
 3674POPC   C4B48418  43.004  20.910   7.311
 3675POPC   NC348419  11.878   9.425   5.185
 3675POPC   PO448420  12.192   9.933   5.440
 3675POPC   GL148421  11.888   9.855   5.741
 3675POPC   GL248422  11.917   9.515   5.791
 3675POPC   C1A48423  11.915   9.966   6.188
 3675POPC   D2A48424  11.895   9.762   6.574
 3675POPC   C3A48425  11.892   9.967   6.977
 3675POPC   C4A48426  12.163  10.116   7.300
 3675POPC   C1B48427  11.920   9.357   6.215
 3675POPC   C2B48428  12.068   9.282   6.628
 3675POPC   C3B48429  11.900   9.420   7.005
 3675POPC   C4B48430  12.009   9.618   7.370
 3676POPC   NC348431  28.839   5.690   5.655
 3676POPC   PO448432  28.358   6.019   5.328
 3676POPC   GL148433  28.351   5.916   5.780
 3676POPC   GL248434  28.070   5.706   5.797
 3676POPC   C1A48435  28.462   5.762   6.214
 3676POPC   D2A48436  28.663   5.510   6.566
 3676POPC   C3A48437  28.533   5.693   6.977
 3676POPC   C4A48438  28.599   6.114   7.183
 3676POPC   C1B48439  27.927   5.826   6.207
 3676POPC   C2B48440  28.011   5.640   6.629
 3676POPC   C3B48441  28.012   5.694   7.093
 3676POPC   C4B48442  28.158   6.017   7.408
 3677POPC   NC348443   1.802   8.223   5.286
 3677POPC   PO448444   2.225   7.793   5.747
 3677POPC   GL148445   2.053   8.164   5.912
 3677POPC   GL248446   1.732   8.213   5.791
 3677POPC   C1A48447   2.172   8.356   6.277
 3677POPC   D2A48448   1.975   8.393   6.658
 3677POPC   C3A48449   2.176   8.337   7.043
 3677POPC   C4A48450   2.242   7.993   7.278
 3677POPC   C1B48451   1.483   8.303   6.166
 3677POPC   C2B48452   1.474   8.191   6.607
 3677POPC   C3B48453   1.650   8.227   7.036
 3677POPC   C4B48454   1.756   8.136   7.458
 3678POPC   NC348455  17.841  13.031   5.390
 3678POPC   PO448456  17.963  12.284   5.292
 3678POPC   GL148457  17.847  12.500   5.756
 3678POPC   GL248458  18.032  12.789   5.784
 3678POPC   C1A48459  17.520  12.675   6.120
 3678POPC   D2A48460  17.184  12.583   6.503
 3678POPC   C3A48461  17.191  12.625   6.985
 3678POPC   C4A48462  17.359  12.970   7.235
 3678POPC   C1B48463  17.891  13.033   6.101
 3678POPC   C2B48464  17.671  12.994   6.472
 3678POPC   C3B48465  17.658  12.842   6.856
 3678POPC   C4B48466  17.844  12.878   7.234
 3679POPC   NC348467   4.493   3.421   5.535
 3679POPC   PO448468   4.010   3.870   5.492
 3679POPC   GL148469   4.178   3.674   5.870
 3679POPC   GL248470   4.511   3.729   5.918
 3679POPC   C1A48471   4.264   3.376   6.210
 3679POPC   D2A48472   4.415   3.514   6.617
 3679POPC   C3A48473   4.461   3.247   6.974
 3679POPC   C4A48474   4.405   3.499   7.306
 3679POPC   C1B48475   4.371   3.920   6.276
 3679POPC   C2B48476   4.056   3.954   6.596
 3679POPC   C3B48477   4.150   3.865   7.012
 3679POPC   C4B48478   4.531   3.997   7.181
 3680POPC   NC348479  40.917  36.360   5.347
 3680POPC   PO448480  40.441  35.917   5.551
 3680POPC   GL148481  40.698  36.134   5.798
 3680POPC   GL248482  40.989  35.948   5.769
 3680POPC   C1A48483  40.864  36.270   6.181
 3680POPC   D2A48484  40.675  36.388   6.532
 3680POPC   C3A48485  40.825  36.178   6.902
 3680POPC   C4A48486  40.779  36.436   7.295
 3680POPC   C1B48487  41.145  35.834   6.182
 3680POPC   C2B48488  41.037  35.796   6.622
 3680POPC   C3B48489  41.177  35.736   7.035
 3680POPC   C4B48490  41.130  36.080   7.304
 3681POPC   NC348491  24.568  34.235   5.451
 3681POPC   PO448492  24.122  34.763   5.239
 3681POPC   GL148493  24.228  34.548   5.677
 3681POPC   GL248494  24.569  34.626   5.799
 3681POPC   C1A48495  24.217  34.555   6.165
 3681POPC   D2A48496  24.375  34.838   6.486
 3681POPC   C3A48497  24.377  34.707   6.893
 3681POPC   C4A48498  24.249  34.254   6.955
 3681POPC   C1B48499  24.729  34.500   6.212
 3681POPC   C2B48500  24.655  34.335   6.635
 3681POPC   C3B48501  24.739  34.385   7.083
 3681POPC   C4B48502  24.755  34.765   7.278
 3682POPC   NC348503  36.342   2.916   5.458
 3682POPC   PO448504  35.735   2.949   5.673
 3682POPC   GL148505  36.082   3.012   5.948
 3682POPC   GL248506  36.485   3.042   5.926
 3682POPC   C1A48507  35.994   3.000   6.379
 3682POPC   D2A48508  35.796   2.807   6.734
 3682POPC   C3A48509  35.889   3.037   7.107
 3682POPC   C4A48510  36.060   2.824   7.479
 3682POPC   C1B48511  36.372   2.667   6.181
 3682POPC   C2B48512  36.385   2.600   6.627
 3682POPC   C3B48513  36.346   2.742   7.044
 3682POPC   C4B48514  36.372   3.134   7.238
 3683POPC   NC348515   6.088   5.441   5.375
 3683POPC   PO448516   5.657   4.928   5.276
 3683POPC   GL148517   5.784   5.080   5.727
 3683POPC   GL248518   6.054   5.305   5.842
 3683POPC   C1A48519   5.889   4.950   6.167
 3683POPC   D2A48520   5.750   4.816   6.579
 3683POPC   C3A48521   6.070   4.888   6.880
 3683POPC   C4A48522   6.103   4.972   7.289
 3683POPC   C1B48523   5.877   5.468   6.189
 3683POPC   C2B48524   6.002   5.303   6.566
 3683POPC   C3B48525   5.994   5.398   7.003
 3683POPC   C4B48526   6.345   5.480   7.221
 3684POPC   NC348527  43.380  14.907   5.493
 3684POPC   PO448528  42.909  15.311   5.351
 3684POPC   GL148529  42.996  15.240   5.778
 3684POPC   GL248530  43.342  15.172   5.922
 3684POPC   C1A48531  42.908  15.192   6.219
 3684POPC   D2A48532  42.946  15.001   6.635
 3684POPC   C3A48533  42.954  15.287   6.999
 3684POPC   C4A48534  43.113  15.592   7.308
 3684POPC   C1B48535  43.302  14.824   6.252
 3684POPC   C2B48536  43.364  14.730   6.695
 3684POPC   C3B48537  43.454  15.107   6.944
 3684POPC   C4B48538  43.375  15.170   7.367
 3685POPC   NC348539  28.625  40.704   5.423
 3685POPC   PO448540  27.904  40.600   5.578
 3685POPC   GL148541  28.165  40.836   5.844
 3685POPC   GL248542  28.514  40.752   5.900
 3685POPC   C1A48543  28.181  40.739   6.260
 3685POPC   D2A48544  28.319  40.603   6.647
 3685POPC   C3A48545  28.155  40.822   6.980
 3685POPC   C4A48546  28.168  40.651   7.356
 3685POPC   C1B48547  28.637  41.011   6.234
 3685POPC   C2B48548  28.754  40.889   6.663
 3685POPC   C3B48549  28.648  40.692   7.034
 3685POPC   C4B48550  28.601  40.952   7.355
 3686POPC   NC348551  16.455  33.716   5.343
 3686POPC   PO448552  17.067  33.863   5.357
 3686POPC   GL148553  16.793  33.763   5.751
 3686POPC   GL248554  16.510  33.998   5.796
 3686POPC   C1A48555  16.605  33.671   6.191
 3686POPC   D2A48556  16.704  33.874   6.624
 3686POPC   C3A48557  16.738  33.694   7.027
 3686POPC   C4A48558  17.115  33.557   7.262
 3686POPC   C1B48559  16.635  34.178   6.216
 3686POPC   C2B48560  16.508  34.357   6.614
 3686POPC   C3B48561  16.355  34.144   6.962
 3686POPC   C4B48562  16.518  34.023   7.380
 3687POPC   NC348563   1.786  38.979   5.423
 3687POPC   PO448564   2.239  38.502   5.416
 3687POPC   GL148565   1.948  38.528   5.741
 3687POPC   GL248566   1.914  38.177   5.785
 3687POPC   C1A48567   1.959  38.592   6.193
 3687POPC   D2A48568   1.942  38.823   6.569
 3687POPC   C3A48569   1.974  38.566   6.907
 3687POPC   C4A48570   2.059  38.484   7.315
 3687POPC   C1B48571   2.171  38.102   6.143
 3687POPC   C2B48572   2.143  38.262   6.545
 3687POPC   C3B48573   2.202  38.096   6.934
 3687POPC   C4B48574   2.381  38.090   7.311
 3688POPC   NC348575  29.469  23.905   5.421
 3688POPC   PO448576  28.959  23.514   5.552
 3688POPC   GL148577  29.125  23.799   5.831
 3688POPC   GL248578  29.452  23.726   5.912
 3688POPC   C1A48579  29.013  23.868   6.236
 3688POPC   D2A48580  28.935  23.629   6.572
 3688POPC   C3A48581  28.933  23.809   6.961
 3688POPC   C4A48582  29.132  23.689   7.356
 3688POPC   C1B48583  29.494  23.994   6.267
 3688POPC   C2B48584  29.611  23.860   6.640
 3688POPC   C3B48585  29.479  23.817   7.018
 3688POPC   C4B48586  29.654  23.791   7.413
 3689POPC   NC348587   3.861  29.680   5.227
 3689POPC   PO448588   3.372  30.147   5.266
 3689POPC   GL148589   3.505  30.004   5.702
 3689POPC   GL248590   3.613  29.635   5.678
 3689POPC   C1A48591   3.689  30.153   6.101
 3689POPC   D2A48592   3.899  29.992   6.427
 3689POPC   C3A48593   3.695  30.050   6.814
 3689POPC   C4A48594   3.842  29.914   7.192
 3689POPC   C1B48595   3.441  29.685   6.093
 3689POPC   C2B48596   3.559  29.615   6.511
 3689POPC   C3B48597   3.369  29.625   6.879
 3689POPC   C4B48598   3.365  29.716   7.289
 3690POPC   NC348599  14.563   3.289   5.421
 3690POPC   PO448600  14.150   3.798   5.605
 3690POPC   GL148601  14.263   3.431   5.867
 3690POPC   GL248602  14.647   3.443   5.912
 3690POPC   C1A48603  14.130   3.312   6.305
 3690POPC   D2A48604  14.264   3.089   6.685
 3690POPC   C3A48605  14.240   3.380   7.019
 3690POPC   C4A48606  14.108   3.450   7.435
 3690POPC   C1B48607  14.625   3.270   6.331
 3690POPC   C2B48608  14.722   3.344   6.765
 3690POPC   C3B48609  14.694   3.139   7.139
 3690POPC   C4B48610  14.540   3.122   7.573
 3691POPC   NC348611   8.599  36.083   5.281
 3691POPC   PO448612   7.989  35.780   5.463
 3691POPC   GL148613   8.094  36.137   5.782
 3691POPC   GL248614   7.918  36.184   6.104
 3691POPC   C1A48615   8.299  36.484   6.055
 3691POPC   D2A48616   8.258  36.484   6.506
 3691POPC   C3A48617   8.564  36.383   6.823
 3691POPC   C4A48618   8.425  36.270   7.235
 3691POPC   C1B48619   8.349  35.998   6.213
 3691POPC   C2B48620   8.440  35.909   6.627
 3691POPC   C3B48621   8.118  36.074   6.872
 3691POPC   C4B48622   7.866  35.880   7.162
 3692POPC   NC348623   6.498   1.575   5.247
 3692POPC   PO448624   6.908   1.056   5.412
 3692POPC   GL148625   6.783   1.121   5.813
 3692POPC   GL248626   6.526   1.347   5.699
 3692POPC   C1A48627   6.832   1.049   6.263
 3692POPC   D2A48628   6.601   0.907   6.652
 3692POPC   C3A48629   6.796   1.014   7.075
 3692POPC   C4A48630   6.785   1.376   7.292
 3692POPC   C1B48631   6.529   1.473   6.114
 3692POPC   C2B48632   6.652   1.437   6.541
 3692POPC   C3B48633   6.438   1.339   6.896
 3692POPC   C4B48634   6.351   1.640   7.165
 3693POPC   NC348635  42.858   0.239   5.350
 3693POPC   PO448636  43.317   0.659   5.500
 3693POPC   GL148637  43.065   0.433   5.802
 3693POPC   GL248638  42.741   0.243   5.831
 3693POPC   C1A48639  42.915   0.507   6.212
 3693POPC   D2A48640  43.123   0.302   6.545
 3693POPC   C3A48641  43.015   0.549   6.896
 3693POPC   C4A48642  43.142   0.667   7.306
 3693POPC   C1B48643  42.845  44.993   6.163
 3693POPC   C2B48644  42.823  44.811   6.541
 3693POPC   C3B48645  42.857   0.012   6.901
 3693POPC   C4B48646  42.826   0.262   7.256
 3694POPC   NC348647  35.613   3.356   5.510
 3694POPC   PO448648  35.186   3.788   5.361
 3694POPC   GL148649  35.146   3.685   5.771
 3694POPC   GL248650  35.459   3.854   5.838
 3694POPC   C1A48651  35.182   3.348   6.081
 3694POPC   D2A48652  35.465   3.237   6.424
 3694POPC   C3A48653  35.289   3.418   6.789
 3694POPC   C4A48654  35.348   3.373   7.228
 3694POPC   C1B48655  35.289   3.840   6.256
 3694POPC   C2B48656  35.502   3.918   6.639
 3694POPC   C3B48657  35.411   3.873   7.060
 3694POPC   C4B48658  35.166   3.808   7.405
 3695POPC   NC348659  44.230  42.832   5.474
 3695POPC   PO448660  43.694  43.250   5.429
 3695POPC   GL148661  43.900  43.109   5.767
 3695POPC   GL248662  43.757  42.787   5.813
 3695POPC   C1A48663  44.027  43.277   6.154
 3695POPC   D2A48664  44.184  43.442   6.547
 3695POPC   C3A48665  44.175  43.194   6.930
 3695POPC   C4A48666  44.032  43.394   7.292
 3695POPC   C1B48667  43.602  42.970   6.195
 3695POPC   C2B48668  43.778  43.097   6.584
 3695POPC   C3B48669  43.752  42.930   6.988
 3695POPC   C4B48670  43.568  43.204   7.240
 3696POPC   NC348671  22.681   6.716   5.089
 3696POPC   PO448672  23.254   6.415   5.394
 3696POPC   GL148673  23.047   6.636   5.779
 3696POPC   GL248674  22.670   6.561   5.945
 3696POPC   C1A48675  22.973   6.864   6.172
 3696POPC   D2A48676  22.687   6.734   6.487
 3696POPC   C3A48677  22.803   6.857   6.901
 3696POPC   C4A48678  22.663   6.775   7.284
 3696POPC   C1B48679  22.960   6.348   6.249
 3696POPC   C2B48680  22.986   6.140   6.663
 3696POPC   C3B48681  22.782   6.355   7.015
 3696POPC   C4B48682  22.870   6.340   7.470
 3697POPC   NC348683  39.304  15.244   5.303
 3697POPC   PO448684  39.942  15.213   5.447
 3697POPC   GL148685  39.482  15.188   5.761
 3697POPC   GL248686  39.187  14.908   5.679
 3697POPC   C1A48687  39.342  14.932   6.184
 3697POPC   D2A48688  39.392  15.061   6.650
 3697POPC   C3A48689  39.405  15.413   6.950
 3697POPC   C4A48690  39.274  15.254   7.356
 3697POPC   C1B48691  38.929  15.126   5.994
 3697POPC   C2B48692  38.908  15.056   6.467
 3697POPC   C3B48693  38.921  15.256   6.861
 3697POPC   C4B48694  38.717  15.202   7.228
 3698POPC   NC348695  41.218  23.313   5.339
 3698POPC   PO448696  41.674  23.876   5.126
 3698POPC   GL148697  41.491  23.773   5.591
 3698POPC   GL248698  41.606  23.484   5.727
 3698POPC   C1A48699  41.419  23.864   6.059
 3698POPC   D2A48700  41.679  23.785   6.452
 3698POPC   C3A48701  41.580  23.782   6.909
 3698POPC   C4A48702  41.446  24.016   7.285
 3698POPC   C1B48703  41.916  23.499   6.080
 3698POPC   C2B48704  41.887  23.285   6.494
 3698POPC   C3B48705  41.817  23.322   6.928
 3698POPC   C4B48706  41.949  23.637   7.251
 3699POPC   NC348707   9.934  22.611   5.507
 3699POPC   PO448708   9.482  23.142   5.533
 3699POPC   GL148709   9.726  22.973   5.851
 3699POPC   GL248710   9.581  23.214   6.075
 3699POPC   C1A48711   9.915  22.837   6.251
 3699POPC   D2A48712   9.936  22.869   6.689
 3699POPC   C3A48713  10.066  22.580   6.974
 3699POPC   C4A48714   9.807  22.608   7.329
 3699POPC   C1B48715  10.017  23.345   6.222
 3699POPC   C2B48716  10.194  23.295   6.664
 3699POPC   C3B48717   9.831  23.353   6.977
 3699POPC   C4B48718   9.685  23.298   7.420
 3700POPC   NC348719  37.323  22.257   5.438
 3700POPC   PO448720  36.691  22.047   5.339
 3700POPC   GL148721  36.858  22.238   5.735
 3700POPC   GL248722  37.167  22.407   5.906
 3700POPC   C1A48723  36.806  22.149   6.164
 3700POPC   D2A48724  37.007  22.149   6.540
 3700POPC   C3A48725  36.689  22.095   6.897
 3700POPC   C4A48726  36.729  21.919   7.329
 3700POPC   C1B48727  37.298  22.595   6.297
 3700POPC   C2B48728  37.238  22.572   6.746
 3700POPC   C3B48729  37.182  22.203   7.008
 3700POPC   C4B48730  37.074  22.335   7.351
 3701POPC   NC348731  17.211  24.164   5.378
 3701POPC   PO448732  17.394  23.551   5.046
 3701POPC   GL148733  17.453  23.744   5.530
 3701POPC   GL248734  17.242  23.582   5.782
 3701POPC   C1A48735  17.689  23.808   5.985
 3701POPC   D2A48736  17.719  23.907   6.461
 3701POPC   C3A48737  17.710  23.805   6.910
 3701POPC   C4A48738  17.746  23.358   7.053
 3701POPC   C1B48739  17.307  23.561   6.246
 3701POPC   C2B48740  17.399  23.486   6.676
 3701POPC   C3B48741  17.225  23.678   7.053
 3701POPC   C4B48742  16.887  24.005   7.084
 3702POPC   NC348743  32.148  36.826   5.403
 3702POPC   PO448744  32.684  37.166   5.490
 3702POPC   GL148745  32.397  36.911   5.829
 3702POPC   GL248746  32.007  37.025   5.856
 3702POPC   C1A48747  32.382  36.572   6.150
 3702POPC   D2A48748  32.445  36.354   6.549
 3702POPC   C3A48749  32.286  36.574   6.931
 3702POPC   C4A48750  32.138  36.844   7.272
 3702POPC   C1B48751  32.028  36.910   6.299
 3702POPC   C2B48752  32.115  37.041   6.742
 3702POPC   C3B48753  31.838  37.194   7.065
 3702POPC   C4B48754  31.929  37.237   7.544
 3703POPC   NC348755   7.907  22.318   5.378
 3703POPC   PO448756   7.314  22.000   5.391
 3703POPC   GL148757   7.529  22.160   5.696
 3703POPC   GL248758   7.632  21.847   5.806
 3703POPC   C1A48759   7.424  22.211   6.130
 3703POPC   D2A48760   7.423  21.989   6.537
 3703POPC   C3A48761   7.374  22.216   6.917
 3703POPC   C4A48762   7.125  22.087   7.247
 3703POPC   C1B48763   7.816  21.892   6.219
 3703POPC   C2B48764   7.869  21.761   6.663
 3703POPC   C3B48765   7.772  21.922   7.078
 3703POPC   C4B48766   7.534  21.803   7.433
 3704POPC   NC348767  35.346  20.870   5.416
 3704POPC   PO448768  35.153  20.209   5.406
 3704POPC   GL148769  35.204  20.460   5.821
 3704POPC   GL248770  35.445  20.716   5.922
 3704POPC   C1A48771  35.250  20.459   6.312
 3704POPC   D2A48772  35.500  20.599   6.677
 3704POPC   C3A48773  35.478  20.291   7.039
 3704POPC   C4A48774  35.199  20.263   7.421
 3704POPC   C1B48775  35.368  20.962   6.290
 3704POPC   C2B48776  35.447  21.171   6.680
 3704POPC   C3B48777  35.526  20.954   7.062
 3704POPC   C4B48778  35.142  20.662   7.093
 3705POPC   NC348779  34.732  20.421   5.328
 3705POPC   PO448780  34.889  21.060   5.383
 3705POPC   GL148781  34.769  20.764   5.714
 3705POPC   GL248782  34.427  20.570   5.724
 3705POPC   C1A48783  34.813  20.659   6.133
 3705POPC   D2A48784  34.749  20.348   6.448
 3705POPC   C3A48785  34.692  20.530   6.828
 3705POPC   C4A48786  34.706  20.383   7.273
 3705POPC   C1B48787  34.318  20.491   6.160
 3705POPC   C2B48788  34.163  20.497   6.594
 3705POPC   C3B48789  34.236  20.426   7.034
 3705POPC   C4B48790  34.246  20.374   7.481
 3706POPC   NC348791  12.483  25.606   5.318
 3706POPC   PO448792  13.147  25.841   5.415
 3706POPC   GL148793  12.963  25.798   5.850
 3706POPC   GL248794  12.629  25.985   5.909
 3706POPC   C1A48795  13.029  25.887   6.316
 3706POPC   D2A48796  12.840  26.164   6.655
 3706POPC   C3A48797  12.950  26.067   7.078
 3706POPC   C4A48798  13.294  25.764   7.149
 3706POPC   C1B48799  12.412  26.271   6.235
 3706POPC   C2B48800  12.382  26.413   6.699
 3706POPC   C3B48801  12.572  26.410   7.145
 3706POPC   C4B48802  12.617  26.214   7.568
 3707POPC   NC348803  39.421  14.433   5.481
 3707POPC   PO448804  38.821  14.193   5.412
 3707POPC   GL148805  39.068  14.146   5.828
 3707POPC   GL248806  39.434  14.096   5.878
 3707POPC   C1A48807  39.124  14.246   6.274
 3707POPC   D2A48808  39.179  14.573   6.574
 3707POPC   C3A48809  39.035  14.375   6.936
 3707POPC   C4A48810  39.199  14.382   7.309
 3707POPC   C1B48811  39.571  14.465   6.139
 3707POPC   C2B48812  39.678  14.681   6.507
 3707POPC   C3B48813  39.546  14.640   6.943
 3707POPC   C4B48814  39.185  14.851   7.081
 3708POPC   NC348815   4.611  32.266   5.624
 3708POPC   PO448816   4.107  32.360   5.132
 3708POPC   GL148817   4.085  32.298   5.661
 3708POPC   GL248818   4.028  32.574   5.930
 3708POPC   C1A48819   4.112  32.080   6.073
 3708POPC   D2A48820   4.420  31.857   6.353
 3708POPC   C3A48821   4.389  31.875   6.817
 3708POPC   C4A48822   4.310  32.141   7.161
 3708POPC   C1B48823   4.351  32.590   6.288
 3708POPC   C2B48824   4.402  32.507   6.772
 3708POPC   C3B48825   4.171  32.647   7.172
 3708POPC   C4B48826   4.023  32.639   7.632
 3709POPC   NC348827  44.280  12.341   5.694
 3709POPC   PO448828  43.780  12.160   5.275
 3709POPC   GL148829  43.800  12.092   5.720
 3709POPC   GL248830  44.050  11.942   5.961
 3709POPC   C1A48831  43.597  12.082   6.132
 3709POPC   D2A48832  43.786  11.989   6.537
 3709POPC   C3A48833  43.492  11.973   6.900
 3709POPC   C4A48834  43.604  12.058   7.328
 3709POPC   C1B48835  44.288  11.966   6.333
 3709POPC   C2B48836  44.265  11.948   6.777
 3709POPC   C3B48837  44.230  11.894   7.197
 3709POPC   C4B48838  44.061  12.163   7.541
 3710POPC   NC348839  31.472  37.463   5.323
 3710POPC   PO448840  31.209  38.122   5.538
 3710POPC   GL148841  31.354  37.705   5.768
 3710POPC   GL248842  31.440  37.350   5.805
 3710POPC   C1A48843  31.324  37.717   6.219
 3710POPC   D2A48844  31.447  37.950   6.630
 3710POPC   C3A48845  31.358  37.887   7.097
 3710POPC   C4A48846  31.700  37.843   7.408
 3710POPC   C1B48847  31.543  37.261   6.201
 3710POPC   C2B48848  31.264  37.374   6.576
 3710POPC   C3B48849  31.374  37.393   6.977
 3710POPC   C4B48850  31.484  37.384   7.387
 3711POPC   NC348851   5.811   6.216   5.455
 3711POPC   PO448852   5.647   5.518   5.510
 3711POPC   GL148853   5.881   5.821   5.797
 3711POPC   GL248854   5.596   6.071   5.888
 3711POPC   C1A48855   5.951   5.979   6.249
 3711POPC   D2A48856   5.838   5.798   6.675
 3711POPC   C3A48857   6.109   5.932   7.029
 3711POPC   C4A48858   6.420   5.953   7.370
 3711POPC   C1B48859   5.555   6.374   6.228
 3711POPC   C2B48860   5.326   6.377   6.647
 3711POPC   C3B48861   5.623   6.245   6.963
 3711POPC   C4B48862   5.626   6.010   7.318
 3712POPC   NC348863  34.128  14.018   5.520
 3712POPC   PO448864  33.545  14.275   5.386
 3712POPC   GL148865  33.829  14.411   5.680
 3712POPC   GL248866  33.590  14.504   5.889
 3712POPC   C1A48867  34.069  14.627   6.006
 3712POPC   D2A48868  33.997  14.697   6.449
 3712POPC   C3A48869  33.977  14.388   6.801
 3712POPC   C4A48870  34.138  14.471   7.227
 3712POPC   C1B48871  33.755  14.295   6.233
 3712POPC   C2B48872  33.543  14.464   6.542
 3712POPC   C3B48873  33.368  14.494   6.923
 3712POPC   C4B48874  33.634  14.384   7.204
 3713POPC   NC348875  40.587  25.647   5.561
 3713POPC   PO448876  40.876  26.208   5.243
 3713POPC   GL148877  40.875  26.091   5.684
 3713POPC   GL248878  41.074  25.794   5.661
 3713POPC   C1A48879  40.653  26.122   6.116
 3713POPC   D2A48880  40.501  26.029   6.568
 3713POPC   C3A48881  40.707  26.243   6.934
 3713POPC   C4A48882  41.152  26.318   7.077
 3713POPC   C1B48883  41.060  25.826   6.116
 3713POPC   C2B48884  41.052  26.014   6.545
 3713POPC   C3B48885  40.972  25.816   6.944
 3713POPC   C4B48886  41.100  25.875   7.340
 3714POPC   NC348887  18.195  38.754   5.029
 3714POPC   PO448888  18.076  38.209   5.441
 3714POPC   GL148889  18.300  38.350   5.815
 3714POPC   GL248890  18.020  38.416   5.957
 3714POPC   C1A48891  18.376  38.463   6.288
 3714POPC   D2A48892  18.158  38.326   6.666
 3714POPC   C3A48893  18.447  38.125   6.920
 3714POPC   C4A48894  18.769  38.345   7.142
 3714POPC   C1B48895  17.851  38.533   6.294
 3714POPC   C2B48896  17.764  38.671   6.707
 3714POPC   C3B48897  17.844  38.421   7.086
 3714POPC   C4B48898  18.146  38.200   7.341
 3715POPC   NC348899   9.289   2.646   5.511
 3715POPC   PO448900   9.410   3.349   5.552
 3715POPC   GL148901   9.255   3.043   5.902
 3715POPC   GL248902   8.988   2.783   5.891
 3715POPC   C1A48903   9.241   2.963   6.365
 3715POPC   D2A48904   9.347   2.669   6.724
 3715POPC   C3A48905   9.056   2.766   7.087
 3715POPC   C4A48906   9.095   2.996   7.489
 3715POPC   C1B48907   8.819   2.669   6.276
 3715POPC   C2B48908   8.871   2.514   6.683
 3715POPC   C3B48909   8.763   2.324   7.068
 3715POPC   C4B48910   8.786   2.427   7.467
 3716POPC   NC348911  11.049  27.825   5.380
 3716POPC   PO448912  11.468  28.321   5.383
 3716POPC   GL148913  11.263  28.158   5.729
 3716POPC   GL248914  11.543  27.973   5.857
 3716POPC   C1A48915  11.239  28.364   6.131
 3716POPC   D2A48916  11.390  28.586   6.487
 3716POPC   C3A48917  11.224  28.368   6.825
 3716POPC   C4A48918  11.214  28.349   7.270
 3716POPC   C1B48919  11.696  28.120   6.255
 3716POPC   C2B48920  11.717  28.227   6.701
 3716POPC   C3B48921  11.688  28.458   7.104
 3716POPC   C4B48922  11.634  28.568   7.543
 3717POPC   NC348923  37.949  32.051   5.531
 3717POPC   PO448924  37.383  31.766   5.539
 3717POPC   GL148925  37.612  31.992   5.925
 3717POPC   GL248926  37.717  32.325   5.889
 3717POPC   C1A48927  37.786  32.215   6.371
 3717POPC   D2A48928  37.734  32.438   6.811
 3717POPC   C3A48929  37.976  32.206   7.113
 3717POPC   C4A48930  37.873  31.785   7.220
 3717POPC   C1B48931  37.314  32.301   6.174
 3717POPC   C2B48932  37.300  32.474   6.549
 3717POPC   C3B48933  37.261  32.285   6.950
 3717POPC   C4B48934  37.255  32.509   7.335
 3718POPC   NC348935  35.007  39.476   5.427
 3718POPC   PO448936  35.634  39.188   5.242
 3718POPC   GL148937  35.429  39.037   5.692
 3718POPC   GL248938  35.670  38.987   5.963
 3718POPC   C1A48939  35.228  38.929   6.156
 3718POPC   D2A48940  35.455  38.945   6.593
 3718POPC   C3A48941  35.192  38.979   7.004
 3718POPC   C4A48942  35.258  39.153   7.442
 3718POPC   C1B48943  35.513  39.342   6.236
 3718POPC   C2B48944  35.432  39.536   6.643
 3718POPC   C3B48945  35.519  39.397   7.058
 3718POPC   C4B48946  35.493  39.612   7.447
 3719POPC   NC348947   4.213  38.930   5.307
 3719POPC   PO448948   4.360  39.516   5.280
 3719POPC   GL148949   4.226  39.296   5.672
 3719POPC   GL248950   4.513  39.067   5.752
 3719POPC   C1A48951   4.049  39.119   6.066
 3719POPC   D2A48952   4.177  39.282   6.479
 3719POPC   C3A48953   4.159  39.150   6.894
 3719POPC   C4A48954   4.511  39.188   7.160
 3719POPC   C1B48955   4.544  39.065   6.218
 3719POPC   C2B48956   4.401  38.794   6.582
 3719POPC   C3B48957   4.355  38.684   7.039
 3719POPC   C4B48958   4.256  38.859   7.457
 3720POPC   NC348959  39.126   9.649   5.271
 3720POPC   PO448960  39.603  10.086   5.520
 3720POPC   GL148961  39.549   9.756   5.884
 3720POPC   GL248962  39.423   9.395   5.900
 3720POPC   C1A48963  39.571   9.646   6.346
 3720POPC   D2A48964  39.352   9.774   6.712
 3720POPC   C3A48965  39.485  10.024   7.057
 3720POPC   C4A48966  39.372   9.971   7.506
 3720POPC   C1B48967  39.163   9.259   6.300
 3720POPC   C2B48968  39.089   9.362   6.777
 3720POPC   C3B48969  39.232   9.564   7.181
 3720POPC   C4B48970  39.092   9.571   7.642
 3721POPC   NC348971  34.770  12.618   5.479
 3721POPC   PO448972  34.378  13.156   5.622
 3721POPC   GL148973  34.683  13.053   5.882
 3721POPC   GL248974  34.709  12.717   5.971
 3721POPC   C1A48975  34.672  13.127   6.280
 3721POPC   D2A48976  34.786  12.830   6.550
 3721POPC   C3A48977  34.516  12.894   6.863
 3721POPC   C4A48978  34.612  12.801   7.264
 3721POPC   C1B48979  34.987  12.472   6.190
 3721POPC   C2B48980  34.946  12.335   6.587
 3721POPC   C3B48981  34.803  12.374   7.023
 3721POPC   C4B48982  35.018  12.509   7.410
 3722POPC   NC348983   4.247  33.086   5.395
 3722POPC   PO448984   4.318  33.870   5.326
 3722POPC   GL148985   4.385  33.870   5.702
 3722POPC   GL248986   4.459  33.494   5.686
 3722POPC   C1A48987   4.337  34.093   6.098
 3722POPC   D2A48988   4.122  34.174   6.484
 3722POPC   C3A48989   4.379  34.059   6.826
 3722POPC   C4A48990   4.298  33.929   7.267
 3722POPC   C1B48991   4.194  33.559   6.048
 3722POPC   C2B48992   4.186  33.663   6.506
 3722POPC   C3B48993   4.349  33.545   6.918
 3722POPC   C4B48994   4.332  33.402   7.352
 3723POPC   NC348995  13.306  19.309   5.542
 3723POPC   PO448996  12.643  19.003   5.541
 3723POPC   GL148997  12.802  19.287   5.843
 3723POPC   GL248998  12.466  19.354   5.935
 3723POPC   C1A48999  13.028  19.147   6.251
 3723POPC   D2A49000  13.170  18.850   6.621
 3723POPC   C3A49001  13.079  18.931   7.053
 3723POPC   C4A49002  12.774  18.895   7.393
 3723POPC   C1B49003  12.516  19.130   6.290
 3723POPC   C2B49004  12.737  19.109   6.681
 3723POPC   C3B49005  12.702  19.289   7.068
 3723POPC   C4B49006  12.369  19.196   7.355
 3724POPC   NC349007  27.343   0.460   5.158
 3724POPC   PO449008  27.837   0.172   5.541
 3724POPC   GL149009  27.688   0.480   5.819
 3724POPC   GL249010  27.347   0.570   5.754
 3724POPC   C1A49011  27.795   0.442   6.239
 3724POPC   D2A49012  27.957   0.562   6.629
 3724POPC   C3A49013  27.719   0.462   6.946
 3724POPC   C4A49014  27.628   0.475   7.369
 3724POPC   C1B49015  27.174   0.557   6.164
 3724POPC   C2B49016  27.364   0.546   6.571
 3724POPC   C3B49017  27.234   0.627   6.980
 3724POPC   C4B49018  27.225   0.802   7.389
 3725POPC   NC349019   7.994   3.509   5.387
 3725POPC   PO449020   8.588   3.876   5.291
 3725POPC   GL149021   8.393   3.636   5.697
 3725POPC   GL249022   8.272   3.292   5.787
 3725POPC   C1A49023   8.229   3.622   6.178
 3725POPC   D2A49024   8.346   3.384   6.581
 3725POPC   C3A49025   8.298   3.573   6.991
 3725POPC   C4A49026   7.998   3.771   7.232
 3725POPC   C1B49027   7.959   3.198   6.116
 3725POPC   C2B49028   7.819   3.364   6.532
 3725POPC   C3B49029   7.869   3.321   6.970
 3725POPC   C4B49030   8.179   3.094   7.220
 3726POPC   NC349031  24.797  18.159   5.667
 3726POPC   PO449032  24.240  18.585   5.483
 3726POPC   GL149033  24.366  18.379   5.876
 3726POPC   GL249034  24.319  18.002   5.883
 3726POPC   C1A49035  24.460  18.525   6.295
 3726POPC   D2A49036  24.489  18.386   6.730
 3726POPC   C3A49037  24.795  18.500   7.040
 3726POPC   C4A49038  24.713  18.427   7.506
 3726POPC   C1B49039  24.407  18.006   6.347
 3726POPC   C2B49040  24.351  17.892   6.781
 3726POPC   C3B49041  24.414  18.115   7.172
 3726POPC   C4B49042  24.391  18.024   7.595
 3727POPC   NC349043  26.146  20.303   5.352
 3727POPC   PO449044  25.658  20.779   5.312
 3727POPC   GL149045  25.862  20.828   5.721
 3727POPC   GL249046  26.198  20.728   5.668
 3727POPC   C1A49047  25.869  20.661   6.161
 3727POPC   D2A49048  25.652  20.602   6.546
 3727POPC   C3A49049  25.772  20.856   6.865
 3727POPC   C4A49050  25.815  20.698   7.272
 3727POPC   C1B49051  26.310  20.887   6.097
 3727POPC   C2B49052  26.215  20.793   6.571
 3727POPC   C3B49053  26.281  20.835   7.047
 3727POPC   C4B49054  26.582  20.767   7.387
 3728POPC   NC349055  33.529  39.752   5.202
 3728POPC   PO449056  33.437  40.325   5.639
 3728POPC   GL149057  33.231  40.217   6.041
 3728POPC   GL249058  32.875  40.004   5.999
 3728POPC   C1A49059  33.075  40.370   6.410
 3728POPC   D2A49060  32.748  40.133   6.558
 3728POPC   C3A49061  32.944  39.982   6.936
 3728POPC   C4A49062  33.304  40.211   7.094
 3728POPC   C1B49063  33.100  39.741   6.276
 3728POPC   C2B49064  33.330  39.926   6.587
 3728POPC   C3B49065  33.434  39.750   6.946
 3728POPC   C4B49066  33.235  39.719   7.297
 3729POPC   NC349067  11.537  11.628   5.533
 3729POPC   PO449068  11.275  12.097   5.057
 3729POPC   GL149069  11.259  12.089   5.580
 3729POPC   GL249070  10.991  12.043   5.805
 3729POPC   C1A49071  11.393  12.046   6.094
 3729POPC   D2A49072  11.687  11.958   6.430
 3729POPC   C3A49073  11.489  11.997   6.832
 3729POPC   C4A49074  11.435  12.147   7.242
 3729POPC   C1B49075  10.906  11.897   6.200
 3729POPC   C2B49076  10.977  12.030   6.615
 3729POPC   C3B49077  11.017  11.918   7.047
 3729POPC   C4B49078  11.006  12.034   7.504
 3730POPC   NC349079  14.565  13.573   5.264
 3730POPC   PO449080  13.919  13.438   5.269
 3730POPC   GL149081  14.179  13.535   5.661
 3730POPC   GL249082  14.556  13.616   5.786
 3730POPC   C1A49083  14.208  13.353   6.087
 3730POPC   D2A49084  14.371  13.547   6.466
 3730POPC   C3A49085  14.564  13.381   6.826
 3730POPC   C4A49086  14.480  13.591   7.203
 3730POPC   C1B49087  14.793  13.761   6.161
 3730POPC   C2B49088  14.889  13.786   6.631
 3730POPC   C3B49089  14.866  13.901   7.073
 3730POPC   C4B49090  14.911  13.728   7.488
 3731POPC   NC349091  27.506  21.925   5.452
 3731POPC   PO449092  27.761  22.480   5.598
 3731POPC   GL149093  27.686  22.386   5.930
 3731POPC   GL249094  27.358  22.288   5.913
 3731POPC   C1A49095  27.781  22.512   6.310
 3731POPC   D2A49096  27.841  22.155   6.503
 3731POPC   C3A49097  27.658  22.105   6.865
 3731POPC   C4A49098  27.843  22.247   7.196
 3731POPC   C1B49099  27.537  21.933   6.162
 3731POPC   C2B49100  27.333  21.760   6.556
 3731POPC   C3B49101  27.445  21.640   6.966
 3731POPC   C4B49102  27.536  21.847   7.320
 3732POPC   NC349103  21.721   7.331   5.432
 3732POPC   PO449104  21.224   7.720   5.270
 3732POPC   GL149105  21.457   7.565   5.787
 3732POPC   GL249106  21.767   7.729   5.839
 3732POPC   C1A49107  21.235   7.308   6.218
 3732POPC   D2A49108  21.205   7.048   6.651
 3732POPC   C3A49109  21.179   7.320   7.027
 3732POPC   C4A49110  21.384   7.358   7.401
 3732POPC   C1B49111  21.665   7.542   6.260
 3732POPC   C2B49112  21.560   7.402   6.650
 3732POPC   C3B49113  21.785   7.456   7.003
 3732POPC   C4B49114  21.794   7.628   7.361
 3733POPC   NC349115  24.273  11.982   5.480
 3733POPC   PO449116  24.772  12.410   5.543
 3733POPC   GL149117  24.665  12.067   5.832
 3733POPC   GL249118  24.818  11.729   5.797
 3733POPC   C1A49119  24.381  11.972   6.179
 3733POPC   D2A49120  24.080  12.024   6.503
 3733POPC   C3A49121  24.254  12.052   6.903
 3733POPC   C4A49122  24.050  12.051   7.266
 3733POPC   C1B49123  24.889  11.839   6.239
 3733POPC   C2B49124  24.689  11.931   6.613
 3733POPC   C3B49125  24.764  12.172   6.971
 3733POPC   C4B49126  24.759  12.140   7.424
 3734POPC   NC349127  11.419  28.745   5.220
 3734POPC   PO449128  11.549  29.312   5.490
 3734POPC   GL149129  11.278  29.157   5.814
 3734POPC   GL249130  11.292  28.739   5.783
 3734POPC   C1A49131  11.172  29.325   6.233
 3734POPC   D2A49132  11.341  29.232   6.640
 3734POPC   C3A49133  11.525  29.516   6.940
 3734POPC   C4A49134  11.296  29.343   7.288
 3734POPC   C1B49135  11.059  28.844   6.153
 3734POPC   C2B49136  10.942  28.880   6.594
 3734POPC   C3B49137  11.000  29.039   7.000
 3734POPC   C4B49138  11.293  28.840   7.271
 3735POPC   NC349139  19.811  17.057   5.253
 3735POPC   PO449140  19.888  16.478   5.516
 3735POPC   GL149141  19.792  16.773   5.786
 3735POPC   GL249142  20.079  16.974   5.702
 3735POPC   C1A49143  19.634  16.724   6.224
 3735POPC   D2A49144  19.865  16.733   6.616
 3735POPC   C3A49145  19.688  16.816   7.025
 3735POPC   C4A49146  19.543  16.526   7.340
 3735POPC   C1B49147  20.149  16.821   6.158
 3735POPC   C2B49148  20.359  16.854   6.572
 3735POPC   C3B49149  20.223  16.829   7.001
 3735POPC   C4B49150  20.195  17.135   7.339
 3736POPC   NC349151  22.423  43.676   5.472
 3736POPC   PO449152  22.388  44.387   5.611
 3736POPC   GL149153  22.154  44.032   5.787
 3736POPC   GL249154  21.875  44.211   5.950
 3736POPC   C1A49155  22.097  43.741   6.145
 3736POPC   D2A49156  22.297  43.579   6.541
 3736POPC   C3A49157  22.196  43.753   6.921
 3736POPC   C4A49158  22.155  43.658   7.330
 3736POPC   C1B49159  22.183  44.226   6.276
 3736POPC   C2B49160  22.131  44.208   6.697
 3736POPC   C3B49161  22.409  44.226   7.005
 3736POPC   C4B49162  22.484  44.052   7.372
 3737POPC   NC349163  29.785  41.337   5.528
 3737POPC   PO449164  30.379  41.716   5.524
 3737POPC   GL149165  30.098  41.774   5.899
 3737POPC   GL249166  29.723  41.679   5.923
 3737POPC   C1A49167  30.041  41.692   6.367
 3737POPC   D2A49168  30.228  41.414   6.699
 3737POPC   C3A49169  30.048  41.421   7.113
 3737POPC   C4A49170  29.993  41.852   7.102
 3737POPC   C1B49171  29.596  41.431   6.281
 3737POPC   C2B49172  29.636  41.477   6.749
 3737POPC   C3B49173  29.551  41.591   7.188
 3737POPC   C4B49174  29.699  41.337   7.549
 3738POPC   NC349175  34.341  27.423   5.446
 3738POPC   PO449176  34.935  27.672   5.356
 3738POPC   GL149177  34.780  27.577   5.728
 3738POPC   GL249178  34.489  27.727   5.867
 3738POPC   C1A49179  34.849  27.503   6.143
 3738POPC   D2A49180  34.720  27.651   6.538
 3738POPC   C3A49181  34.928  27.599   6.942
 3738POPC   C4A49182  34.580  27.470   7.196
 3738POPC   C1B49183  34.253  27.741   6.278
 3738POPC   C2B49184  34.276  27.924   6.726
 3738POPC   C3B49185  34.211  27.850   7.197
 3738POPC   C4B49186  34.024  27.924   7.602
 3739POPC   NC349187  18.772  21.464   5.423
 3739POPC   PO449188  18.165  21.090   5.528
 3739POPC   GL149189  18.205  21.323   5.940
 3739POPC   GL249190  18.475  21.584   5.998
 3739POPC   C1A49191  18.331  21.248   6.371
 3739POPC   D2A49192  18.407  21.397   6.783
 3739POPC   C3A49193  18.023  21.525   6.970
 3739POPC   C4A49194  17.908  21.473   7.384
 3739POPC   C1B49195  18.356  21.786   6.433
 3739POPC   C2B49196  18.350  21.927   6.877
 3739POPC   C3B49197  18.428  21.684   7.242
 3739POPC   C4B49198  18.783  21.520   7.395
 3740POPC   NC349199   1.785   2.386   5.292
 3740POPC   PO449200   2.177   1.803   5.404
 3740POPC   GL149201   1.943   1.977   5.792
 3740POPC   GL249202   2.185   2.106   6.045
 3740POPC   C1A49203   1.734   1.932   6.230
 3740POPC   D2A49204   1.730   2.100   6.668
 3740POPC   C3A49205   2.122   2.167   6.908
 3740POPC   C4A49206   2.231   2.027   7.330
 3740POPC   C1B49207   2.191   1.672   6.207
 3740POPC   C2B49208   2.295   1.557   6.630
 3740POPC   C3B49209   2.170   1.623   7.039
 3740POPC   C4B49210   1.793   1.830   7.119
 3741POPC   NC349211  32.689  18.455   5.358
 3741POPC   PO449212  33.251  18.035   5.327
 3741POPC   GL149213  33.259  18.319   5.635
 3741POPC   GL249214  33.125  18.658   5.606
 3741POPC   C1A49215  33.266  18.188   6.063
 3741POPC   D2A49216  32.982  18.203   6.393
 3741POPC   C3A49217  33.089  18.232   6.820
 3741POPC   C4A49218  32.901  18.188   7.223
 3741POPC   C1B49219  33.021  18.682   6.079
 3741POPC   C2B49220  33.038  18.717   6.553
 3741POPC   C3B49221  32.887  18.681   6.999
 3741POPC   C4B49222  32.904  18.622   7.469
 3742POPC   NC349223  41.865  31.273   5.394
 3742POPC   PO449224  41.309  31.609   5.185
 3742POPC   GL149225  41.412  31.544   5.706
 3742POPC   GL249226  41.640  31.274   5.898
 3742POPC   C1A49227  41.380  31.571   6.200
 3742POPC   D2A49228  41.617  31.421   6.599
 3742POPC   C3A49229  41.404  31.468   7.024
 3742POPC   C4A49230  41.439  31.757   7.398
 3742POPC   C1B49231  41.963  31.081   6.159
 3742POPC   C2B49232  42.108  31.191   6.595
 3742POPC   C3B49233  41.892  31.190   7.009
 3742POPC   C4B49234  41.882  31.553   7.268
 3743POPC   NC349235  34.768  35.087   5.459
 3743POPC   PO449236  34.760  34.538   5.063
 3743POPC   GL149237  34.601  34.543   5.498
 3743POPC   GL249238  34.890  34.623   5.661
 3743POPC   C1A49239  34.425  34.563   5.935
 3743POPC   D2A49240  34.534  34.513   6.393
 3743POPC   C3A49241  34.512  34.669   6.832
 3743POPC   C4A49242  34.806  34.455   7.121
 3743POPC   C1B49243  34.896  34.742   6.083
 3743POPC   C2B49244  34.844  34.916   6.484
 3743POPC   C3B49245  34.978  34.912   6.888
 3743POPC   C4B49246  34.761  34.948   7.245
 3744POPC   NC349247  21.847  14.511   5.509
 3744POPC   PO449248  21.192  14.668   5.573
 3744POPC   GL149249  21.348  14.313   5.806
 3744POPC   GL249250  21.712  14.299   5.953
 3744POPC   C1A49251  21.222  14.284   6.214
 3744POPC   D2A49252  21.457  14.275   6.584
 3744POPC   C3A49253  21.193  14.299   6.946
 3744POPC   C4A49254  21.130  13.990   7.257
 3744POPC   C1B49255  21.573  14.688   6.161
 3744POPC   C2B49256  21.498  14.810   6.584
 3744POPC   C3B49257  21.610  14.584   6.980
 3744POPC   C4B49258  21.436  14.679   7.381
 3745POPC   NC349259  24.792  14.364   5.591
 3745POPC   PO449260  24.142  14.287   5.224
 3745POPC   GL149261  24.295  14.168   5.708
 3745POPC   GL249262  24.588  14.002   5.909
 3745POPC   C1A49263  24.311  14.346   6.166
 3745POPC   D2A49264  24.142  14.269   6.606
 3745POPC   C3A49265  24.363  14.418   6.986
 3745POPC   C4A49266  24.351  14.585   7.410
 3745POPC   C1B49267  24.480  13.915   6.382
 3745POPC   C2B49268  24.479  13.947   6.846
 3745POPC   C3B49269  24.600  14.088   7.285
 3745POPC   C4B49270  24.613  14.254   7.707
 3746POPC   NC349271  27.453  42.402   5.423
 3746POPC   PO449272  28.069  42.210   5.356
 3746POPC   GL149273  27.874  42.309   5.738
 3746POPC   GL249274  27.828  42.684   5.783
 3746POPC   C1A49275  27.673  42.128   6.108
 3746POPC   D2A49276  27.487  42.351   6.472
 3746POPC   C3A49277  27.421  42.154   6.862
 3746POPC   C4A49278  27.341  42.292   7.276
 3746POPC   C1B49279  27.959  42.550   6.214
 3746POPC   C2B49280  28.102  42.381   6.624
 3746POPC   C3B49281  27.900  42.398   7.043
 3746POPC   C4B49282  27.670  42.726   7.256
 3747POPC   NC349283  19.536  16.181   5.599
 3747POPC   PO449284  19.800  15.781   5.021
 3747POPC   GL149285  19.926  15.823   5.583
 3747POPC   GL249286  20.048  16.089   5.772
 3747POPC   C1A49287  19.822  15.797   6.114
 3747POPC   D2A49288  19.812  15.967   6.582
 3747POPC   C3A49289  19.756  15.708   7.007
 3747POPC   C4A49290  19.843  15.614   7.459
 3747POPC   C1B49291  19.990  16.311   6.167
 3747POPC   C2B49292  20.218  16.352   6.548
 3747POPC   C3B49293  20.154  16.149   6.912
 3747POPC   C4B49294  19.888  16.122   7.269
 3748POPC   NC349295  22.395  11.957   5.349
 3748POPC   PO449296  21.808  12.278   5.302
 3748POPC   GL149297  21.976  12.134   5.728
 3748POPC   GL249298  22.007  11.770   5.722
 3748POPC   C1A49299  22.228  12.156   6.129
 3748POPC   D2A49300  22.506  12.324   6.497
 3748POPC   C3A49301  22.323  12.382   6.935
 3748POPC   C4A49302  21.919  12.238   7.151
 3748POPC   C1B49303  22.125  11.643   6.150
 3748POPC   C2B49304  22.101  11.868   6.547
 3748POPC   C3B49305  22.257  11.854   6.956
 3748POPC   C4B49306  22.218  11.503   7.246
 3749POPC   NC349307   2.072  10.902   5.486
 3749POPC   PO449308   1.764  10.271   5.358
 3749POPC   GL149309   1.981  10.457   5.740
 3749POPC   GL249310   2.176  10.236   5.955
 3749POPC   C1A49311   2.054  10.671   6.170
 3749POPC   D2A49312   1.966  10.472   6.579
 3749POPC   C3A49313   2.095  10.622   6.984
 3749POPC   C4A49314   2.195  10.321   7.251
 3749POPC   C1B49315   1.732  10.264   6.170
 3749POPC   C2B49316   1.606  10.089   6.574
 3749POPC   C3B49317   1.752  10.166   6.995
 3749POPC   C4B49318   1.657  10.446   7.317
 3750POPC   NC349319   1.859   1.410   5.487
 3750POPC   PO449320   2.205   0.867   5.417
 3750POPC   GL149321   2.163   1.056   5.818
 3750POPC   GL249322   1.815   1.072   5.864
 3750POPC   C1A49323   2.129   1.141   6.266
 3750POPC   D2A49324   2.181   0.864   6.604
 3750POPC   C3A49325   2.120   1.136   6.904
 3750POPC   C4A49326   2.265   1.178   7.301
 3750POPC   C1B49327   1.686   1.402   6.177
 3750POPC   C2B49328   1.766   1.527   6.613
 3750POPC   C3B49329   1.529   1.424   6.987
 3750POPC   C4B49330   1.350   1.622   7.347
 3751POPC   NC349331  43.944  17.209   5.336
 3751POPC   PO449332  44.199  17.853   5.302
 3751POPC   GL149333  44.163  17.564   5.662
 3751POPC   GL249334  43.802  17.593   5.702
 3751POPC   C1A49335  44.198  17.409   6.111
 3751POPC   D2A49336  43.999  17.257   6.516
 3751POPC   C3A49337  44.176  17.372   6.929
 3751POPC   C4A49338  44.092  17.384   7.367
 3751POPC   C1B49339  43.503  17.736   6.041
 3751POPC   C2B49340  43.501  17.612   6.472
 3751POPC   C3B49341  43.707  17.600   6.848
 3751POPC   C4B49342  43.611  17.478   7.220
 3752POPC   NC349343  29.011  39.762   5.386
 3752POPC   PO449344  29.621  40.095   5.521
 3752POPC   GL149345  29.336  40.228   5.849
 3752POPC   GL249346  29.121  39.946   5.835
 3752POPC   C1A49347  29.208  40.180   6.289
 3752POPC   D2A49348  28.982  40.129   6.661
 3752POPC   C3A49349  29.313  40.175   6.969
 3752POPC   C4A49350  29.323  40.256   7.403
 3752POPC   C1B49351  29.345  39.700   6.116
 3752POPC   C2B49352  29.206  39.680   6.527
 3752POPC   C3B49353  29.391  39.666   6.909
 3752POPC   C4B49354  29.159  39.751   7.249
 3753POPC   NC349355  20.507  16.993   5.345
 3753POPC   PO449356  20.730  16.302   5.321
 3753POPC   GL149357  20.659  16.612   5.683
 3753POPC   GL249358  20.327  16.535   5.769
 3753POPC   C1A49359  20.656  16.868   6.115
 3753POPC   D2A49360  20.838  17.018   6.552
 3753POPC   C3A49361  20.742  16.915   7.018
 3753POPC   C4A49362  20.513  16.762   7.419
 3753POPC   C1B49363  20.518  16.358   6.123
 3753POPC   C2B49364  20.726  16.475   6.508
 3753POPC   C3B49365  20.606  16.429   6.961
 3753POPC   C4B49366  20.390  16.246   7.342
 3754POPC   NC349367   4.044  36.168   5.358
 3754POPC   PO449368   4.622  36.476   5.316
 3754POPC   GL149369   4.345  36.433   5.719
 3754POPC   GL249370   4.221  36.061   5.856
 3754POPC   C1A49371   4.283  36.457   6.178
 3754POPC   D2A49372   4.389  36.166   6.476
 3754POPC   C3A49373   4.232  36.069   6.856
 3754POPC   C4A49374   4.215  36.288   7.220
 3754POPC   C1B49375   4.637  35.949   6.098
 3754POPC   C2B49376   4.860  35.962   6.542
 3754POPC   C3B49377   4.693  35.886   6.979
 3754POPC   C4B49378   4.329  35.797   7.280
 3755POPC   NC349379  18.897   2.747   5.542
 3755POPC   PO449380  19.355   2.329   5.290
 3755POPC   GL149381  19.361   2.624   5.713
 3755POPC   GL249382  19.288   3.001   5.807
 3755POPC   C1A49383  19.230   2.594   6.163
 3755POPC   D2A49384  18.888   2.476   6.435
 3755POPC   C3A49385  19.022   2.512   6.858
 3755POPC   C4A49386  19.069   2.569   7.300
 3755POPC   C1B49387  18.919   2.993   6.137
 3755POPC   C2B49388  18.859   2.982   6.589
 3755POPC   C3B49389  19.023   3.032   7.013
 3755POPC   C4B49390  18.823   3.027   7.410
 3756POPC   NC349391  23.336  39.795   5.396
 3756POPC   PO449392  23.354  39.196   5.487
 3756POPC   GL149393  23.192  39.033   5.917
 3756POPC   GL249394  22.931  38.789   5.890
 3756POPC   C1A49395  22.935  39.049   6.342
 3756POPC   D2A49396  22.611  39.143   6.671
 3756POPC   C3A49397  22.724  39.464   7.003
 3756POPC   C4A49398  23.131  39.599   7.190
 3756POPC   C1B49399  23.164  38.592   6.260
 3756POPC   C2B49400  23.270  38.785   6.662
 3756POPC   C3B49401  23.100  39.153   6.899
 3756POPC   C4B49402  22.968  39.145   7.374
 3757POPC   NC349403  23.773  20.011   5.266
 3757POPC   PO449404  23.321  20.171   5.754
 3757POPC   GL149405  23.568  19.856   5.876
 3757POPC   GL249406  23.847  20.106   5.811
 3757POPC   C1A49407  23.432  19.548   6.223
 3757POPC   D2A49408  23.342  19.366   6.653
 3757POPC   C3A49409  23.542  19.617   7.008
 3757POPC   C4A49410  23.966  19.494   7.172
 3757POPC   C1B49411  23.961  19.922   6.226
 3757POPC   C2B49412  23.895  19.748   6.657
 3757POPC   C3B49413  24.021  19.976   7.045
 3757POPC   C4B49414  23.650  20.130   7.220
 3758POPC   NC349415   1.278  44.138   5.616
 3758POPC   PO449416   1.059  43.602   5.330
 3758POPC   GL149417   1.071  43.589   5.800
 3758POPC   GL249418   1.290  43.844   6.000
 3758POPC   C1A49419   1.190  43.433   6.224
 3758POPC   D2A49420   1.042  43.500   6.610
 3758POPC   C3A49421   1.256  43.727   6.908
 3758POPC   C4A49422   1.170  43.699   7.316
 3758POPC   C1B49423   1.235  43.953   6.440
 3758POPC   C2B49424   1.157  44.223   6.797
 3758POPC   C3B49425   0.947  44.159   7.193
 3758POPC   C4B49426   1.025  44.124   7.627
 3759POPC   NC349427  40.417   2.242   5.407
 3759POPC   PO449428  41.154   2.283   5.463
 3759POPC   GL149429  40.808   2.131   5.751
 3759POPC   GL249430  41.084   2.159   5.950
 3759POPC   C1A49431  40.654   1.969   6.181
 3759POPC   D2A49432  40.793   1.638   6.494
 3759POPC   C3A49433  40.955   1.742   6.903
 3759POPC   C4A49434  40.797   1.919   7.275
 3759POPC   C1B49435  41.123   2.062   6.332
 3759POPC   C2B49436  40.914   2.190   6.642
 3759POPC   C3B49437  41.120   2.234   7.012
 3759POPC   C4B49438  41.211   2.181   7.419
 3760POPC   NC349439  39.627  23.038   5.418
 3760POPC   PO449440  40.006  22.526   5.416
 3760POPC   GL149441  40.050  22.818   5.738
 3760POPC   GL249442  40.301  23.062   5.730
 3760POPC   C1A49443  40.020  22.701   6.166
 3760POPC   D2A49444  39.962  22.869   6.577
 3760POPC   C3A49445  40.192  22.655   6.890
 3760POPC   C4A49446  39.984  22.674   7.269
 3760POPC   C1B49447  40.146  23.198   6.138
 3760POPC   C2B49448  40.355  23.216   6.542
 3760POPC   C3B49449  40.361  23.126   6.980
 3760POPC   C4B49450  40.337  23.312   7.370
 3761POPC   NC349451  40.137   2.961   5.455
 3761POPC   PO449452  39.913   2.274   5.493
 3761POPC   GL149453  39.901   2.497   5.910
 3761POPC   GL249454  39.749   2.840   5.808
 3761POPC   C1A49455  39.948   2.513   6.362
 3761POPC   D2A49456  40.263   2.791   6.553
 3761POPC   C3A49457  40.215   2.778   6.974
 3761POPC   C4A49458  40.284   2.408   7.192
 3761POPC   C1B49459  39.759   2.967   6.254
 3761POPC   C2B49460  39.624   3.078   6.703
 3761POPC   C3B49461  39.792   3.053   7.130
 3761POPC   C4B49462  39.892   2.667   7.379
 3762POPC   NC349463  25.742  14.094   5.435
 3762POPC   PO449464  25.996  14.778   5.360
 3762POPC   GL149465  26.040  14.536   5.795
 3762POPC   GL249466  25.899  14.273   5.900
 3762POPC   C1A49467  26.091  14.582   6.271
 3762POPC   D2A49468  25.890  14.307   6.594
 3762POPC   C3A49469  25.909  14.467   7.011
 3762POPC   C4A49470  25.706  14.716   7.311
 3762POPC   C1B49471  26.178  14.096   6.202
 3762POPC   C2B49472  26.351  14.051   6.597
 3762POPC   C3B49473  26.272  13.884   6.946
 3762POPC   C4B49474  26.091  14.093   7.308
 3763POPC   NC349475  18.792  33.288   5.380
 3763POPC   PO449476  19.428  33.057   5.180
 3763POPC   GL149477  19.317  33.100   5.687
 3763POPC   GL249478  18.970  33.136   5.847
 3763POPC   C1A49479  19.372  33.167   6.202
 3763POPC   D2A49480  19.214  33.354   6.610
 3763POPC   C3A49481  19.243  33.155   7.035
 3763POPC   C4A49482  19.202  33.108   7.507
 3763POPC   C1B49483  18.869  33.133   6.303
 3763POPC   C2B49484  18.795  33.066   6.744
 3763POPC   C3B49485  18.768  33.098   7.202
 3763POPC   C4B49486  18.570  33.463   7.333
 3764POPC   NC349487   5.419  10.245   5.588
 3764POPC   PO449488   4.955  10.749   5.510
 3764POPC   GL149489   4.811  10.553   5.892
 3764POPC   GL249490   5.110  10.396   5.946
 3764POPC   C1A49491   4.832  10.467   6.349
 3764POPC   D2A49492   5.046  10.539   6.716
 3764POPC   C3A49493   4.956  10.638   7.184
 3764POPC   C4A49494   5.069  10.683   7.628
 3764POPC   C1B49495   5.399  10.478   6.283
 3764POPC   C2B49496   5.587  10.589   6.680
 3764POPC   C3B49497   5.392  10.444   7.060
 3764POPC   C4B49498   5.403  10.301   7.443
 3765POPC   NC349499  19.684  36.449   5.544
 3765POPC   PO449500  19.801  35.813   5.257
 3765POPC   GL149501  19.824  35.930   5.671
 3765POPC   GL249502  20.130  35.843   5.832
 3765POPC   C1A49503  19.653  36.060   6.048
 3765POPC   D2A49504  19.613  36.138   6.447
 3765POPC   C3A49505  19.809  36.121   6.803
 3765POPC   C4A49506  19.614  36.065   7.176
 3765POPC   C1B49507  20.129  36.071   6.258
 3765POPC   C2B49508  20.152  36.423   6.572
 3765POPC   C3B49509  20.085  36.476   7.025
 3765POPC   C4B49510  20.096  36.127   7.327
 3766POPC   NC349511  31.556  27.536   5.266
 3766POPC   PO449512  31.224  27.888   5.424
 3766POPC   GL149513  31.439  27.667   5.806
 3766POPC   GL249514  31.558  27.321   5.905
 3766POPC   C1A49515  31.276  27.590   6.260
 3766POPC   D2A49516  31.139  27.317   6.635
 3766POPC   C3A49517  31.145  27.523   7.085
 3766POPC   C4A49518  31.474  27.803   7.281
 3766POPC   C1B49519  31.620  27.247   6.398
 3766POPC   C2B49520  31.932  27.355   6.736
 3766POPC   C3B49521  31.905  27.415   7.209
 3766POPC   C4B49522  31.877  27.671   7.604
 3767POPC   NC349523  35.595  27.766   5.403
 3767POPC   PO449524  35.399  27.088   5.550
 3767POPC   GL149525  35.316  27.492   5.782
 3767POPC   GL249526  35.224  27.857   5.744
 3767POPC   C1A49527  35.341  27.549   6.235
 3767POPC   D2A49528  35.579  27.485   6.628
 3767POPC   C3A49529  35.447  27.660   7.052
 3767POPC   C4A49530  35.482  27.680   7.522
 3767POPC   C1B49531  35.075  27.971   6.135
 3767POPC   C2B49532  35.264  27.962   6.542
 3767POPC   C3B49533  35.165  28.094   6.926
 3767POPC   C4B49534  35.116  27.971   7.322
 3768POPC   NC349535   1.851   7.239   5.115
 3768POPC   PO449536   2.049   7.841   5.219
 3768POPC   GL149537   1.910   7.456   5.595
 3768POPC   GL249538   1.759   7.662   5.910
 3768POPC   C1A49539   1.994   7.248   6.055
 3768POPC   D2A49540   1.890   7.086   6.477
 3768POPC   C3A49541   1.939   7.354   6.834
 3768POPC   C4A49542   1.872   7.160   7.212
 3768POPC   C1B49543   1.783   7.907   6.268
 3768POPC   C2B49544   1.854   7.865   6.680
 3768POPC   C3B49545   1.575   7.728   6.966
 3768POPC   C4B49546   1.849   7.666   7.286
 3769POPC   NC349547  14.798  17.349   5.200
 3769POPC   PO449548  14.151  17.489   5.385
 3769POPC   GL149549  14.267  17.437   5.789
 3769POPC   GL249550  14.605  17.371   5.694
 3769POPC   C1A49551  14.191  17.658   6.184
 3769POPC   D2A49552  14.457  17.755   6.541
 3769POPC   C3A49553  14.315  17.615   6.934
 3769POPC   C4A49554  14.475  17.466   7.298
 3769POPC   C1B49555  14.672  17.495   6.135
 3769POPC   C2B49556  14.916  17.405   6.505
 3769POPC   C3B49557  14.794  17.322   6.937
 3769POPC   C4B49558  14.919  17.195   7.374
 3770POPC   NC349559   4.885   5.842   5.405
 3770POPC   PO449560   5.129   6.300   5.164
 3770POPC   GL149561   5.073   6.198   5.700
 3770POPC   GL249562   5.147   5.815   5.833
 3770POPC   C1A49563   5.094   6.170   6.191
 3770POPC   D2A49564   4.964   5.992   6.612
 3770POPC   C3A49565   5.144   6.012   7.042
 3770POPC   C4A49566   4.952   6.032   7.459
 3770POPC   C1B49567   5.056   5.600   6.240
 3770POPC   C2B49568   5.123   5.506   6.691
 3770POPC   C3B49569   5.192   5.498   7.148
 3770POPC   C4B49570   4.875   5.529   7.458
 3771POPC   NC349571  12.456  32.175   5.161
 3771POPC   PO449572  12.177  32.438   5.661
 3771POPC   GL149573  12.101  32.108   5.916
 3771POPC   GL249574  11.755  32.191   5.928
 3771POPC   C1A49575  12.250  32.155   6.350
 3771POPC   D2A49576  12.495  32.162   6.740
 3771POPC   C3A49577  12.237  32.249   7.112
 3771POPC   C4A49578  11.848  32.503   7.106
 3771POPC   C1B49579  11.776  31.933   6.287
 3771POPC   C2B49580  11.644  31.779   6.695
 3771POPC   C3B49581  11.896  31.750   7.053
 3771POPC   C4B49582  11.918  31.964   7.425
 3772POPC   NC349583  13.067   2.830   5.418
 3772POPC   PO449584  12.434   2.490   5.398
 3772POPC   GL149585  12.680   2.689   5.739
 3772POPC   GL249586  13.048   2.532   5.819
 3772POPC   C1A49587  12.737   2.736   6.182
 3772POPC   D2A49588  12.613   2.738   6.607
 3772POPC   C3A49589  12.934   2.797   6.860
 3772POPC   C4A49590  12.943   2.886   7.270
 3772POPC   C1B49591  13.111   2.381   6.235
 3772POPC   C2B49592  12.920   2.327   6.641
 3772POPC   C3B49593  12.957   2.328   7.113
 3772POPC   C4B49594  13.101   2.466   7.533
 3773POPC   NC349595  24.169  36.825   5.314
 3773POPC   PO449596  24.706  36.478   5.564
 3773POPC   GL149597  24.347  36.658   5.791
 3773POPC   GL249598  24.230  37.013   5.780
 3773POPC   C1A49599  24.328  36.663   6.232
 3773POPC   D2A49600  24.163  36.584   6.619
 3773POPC   C3A49601  24.419  36.737   6.973
 3773POPC   C4A49602  24.252  36.914   7.331
 3773POPC   C1B49603  24.490  37.147   6.142
 3773POPC   C2B49604  24.521  37.120   6.596
 3773POPC   C3B49605  24.288  37.262   6.958
 3773POPC   C4B49606  24.464  37.350   7.349
 3774POPC   NC349607  26.515   6.543   5.520
 3774POPC   PO449608  26.986   6.973   5.305
 3774POPC   GL149609  26.885   6.850   5.730
 3774POPC   GL249610  27.008   6.516   5.818
 3774POPC   C1A49611  26.664   6.779   6.141
 3774POPC   D2A49612  26.529   6.503   6.483
 3774POPC   C3A49613  26.574   6.693   6.870
 3774POPC   C4A49614  26.587   6.917   7.227
 3774POPC   C1B49615  26.952   6.314   6.207
 3774POPC   C2B49616  27.034   6.450   6.612
 3774POPC   C3B49617  26.894   6.292   6.985
 3774POPC   C4B49618  26.957   6.479   7.350
 3775POPC   NC349619  38.806  36.831   5.173
 3775POPC   PO449620  39.385  37.128   5.154
 3775POPC   GL149621  39.281  37.040   5.643
 3775POPC   GL249622  39.225  36.697   5.716
 3775POPC   C1A49623  39.114  37.013   6.112
 3775POPC   D2A49624  39.196  36.817   6.539
 3775POPC   C3A49625  39.190  37.088   6.936
 3775POPC   C4A49626  38.982  37.116   7.347
 3775POPC   C1B49627  39.557  36.785   6.057
 3775POPC   C2B49628  39.710  36.835   6.492
 3775POPC   C3B49629  39.584  36.723   6.917
 3775POPC   C4B49630  39.590  36.600   7.365
 3776POPC   NC349631  42.875   5.033   5.464
 3776POPC   PO449632  43.328   5.503   5.509
 3776POPC   GL149633  43.022   5.314   5.856
 3776POPC   GL249634  42.662   5.408   5.759
 3776POPC   C1A49635  42.983   4.925   6.133
 3776POPC   D2A49636  43.150   4.751   6.536
 3776POPC   C3A49637  43.345   5.050   6.831
 3776POPC   C4A49638  43.184   5.186   7.203
 3776POPC   C1B49639  42.520   5.333   6.169
 3776POPC   C2B49640  42.795   5.231   6.515
 3776POPC   C3B49641  42.866   5.442   6.891
 3776POPC   C4B49642  42.711   5.359   7.288
 3777POPC   NC349643  13.598  39.443   5.446
 3777POPC   PO449644  13.995  38.881   5.554
 3777POPC   GL149645  13.653  39.063   5.809
 3777POPC   GL249646  13.883  39.047   6.071
 3777POPC   C1A49647  13.436  39.312   6.163
 3777POPC   D2A49648  13.262  39.534   6.557
 3777POPC   C3A49649  13.442  39.400   6.908
 3777POPC   C4A49650  13.424  39.153   7.230
 3777POPC   C1B49651  13.933  39.461   6.121
 3777POPC   C2B49652  13.768  39.642   6.475
 3777POPC   C3B49653  13.927  39.538   6.880
 3777POPC   C4B49654  13.853  39.408   7.282
 3778POPC   NC349655  37.947  12.497   5.504
 3778POPC   PO449656  37.781  11.806   5.337
 3778POPC   GL149657  37.788  12.010   5.713
 3778POPC   GL249658  37.570  11.739   5.811
 3778POPC   C1A49659  37.635  12.196   6.098
 3778POPC   D2A49660  37.618  12.052   6.535
 3778POPC   C3A49661  37.390  12.081   6.911
 3778POPC   C4A49662  37.640  12.388   7.124
 3778POPC   C1B49663  37.756  11.702   6.193
 3778POPC   C2B49664  37.845  11.595   6.633
 3778POPC   C3B49665  37.843  11.871   7.005
 3778POPC   C4B49666  37.582  11.946   7.360
 3779POPC   NC349667  20.952  31.311   5.317
 3779POPC   PO449668  20.438  31.421   5.683
 3779POPC   GL149669  20.683  31.665   5.943
 3779POPC   GL249670  21.047  31.614   5.928
 3779POPC   C1A49671  20.529  31.616   6.330
 3779POPC   D2A49672  20.637  31.355   6.666
 3779POPC   C3A49673  20.381  31.477   6.987
 3779POPC   C4A49674  20.136  31.858   7.076
 3779POPC   C1B49675  21.023  31.634   6.384
 3779POPC   C2B49676  20.779  31.868   6.694
 3779POPC   C3B49677  20.784  31.765   7.108
 3779POPC   C4B49678  20.969  31.777   7.536
 3780POPC   NC349679  30.258  43.105   5.291
 3780POPC   PO449680  29.649  43.256   5.364
 3780POPC   GL149681  29.735  43.236   5.790
 3780POPC   GL249682  29.679  43.543   5.960
 3780POPC   C1A49683  29.987  43.187   6.161
 3780POPC   D2A49684  29.943  43.341   6.567
 3780POPC   C3A49685  29.965  43.011   6.879
 3780POPC   C4A49686  30.131  43.153   7.241
 3780POPC   C1B49687  29.480  43.434   6.353
 3780POPC   C2B49688  29.485  43.198   6.747
 3780POPC   C3B49689  29.616  43.275   7.175
 3780POPC   C4B49690  29.761  43.383   7.615
 3781POPC   NC349691  11.141  39.502   5.377
 3781POPC   PO449692  11.151  38.796   5.353
 3781POPC   GL149693  11.177  39.076   5.707
 3781POPC   GL249694  11.491  39.240   5.641
 3781POPC   C1A49695  11.312  39.146   6.163
 3781POPC   D2A49696  11.558  39.043   6.522
 3781POPC   C3A49697  11.233  38.945   6.821
 3781POPC   C4A49698  11.193  39.110   7.244
 3781POPC   C1B49699  11.467  39.572   5.963
 3781POPC   C2B49700  11.479  39.574   6.426
 3781POPC   C3B49701  11.415  39.424   6.857
 3781POPC   C4B49702  11.348  39.619   7.263
 3782POPC   NC349703  35.478   5.161   5.413
 3782POPC   PO449704  34.779   5.244   5.284
 3782POPC   GL149705  35.035   5.102   5.679
 3782POPC   GL249706  35.199   5.350   5.903
 3782POPC   C1A49707  35.230   4.853   6.052
 3782POPC   D2A49708  35.421   4.772   6.471
 3782POPC   C3A49709  35.376   5.021   6.853
 3782POPC   C4A49710  35.220   4.911   7.277
 3782POPC   C1B49711  35.464   5.295   6.289
 3782POPC   C2B49712  35.738   5.359   6.655
 3782POPC   C3B49713  35.634   5.399   7.097
 3782POPC   C4B49714  35.303   5.407   7.409
 3783POPC   NC349715  18.063  33.929   5.522
 3783POPC   PO449716  18.513  34.498   5.426
 3783POPC   GL149717  18.386  34.195   5.799
 3783POPC   GL249718  18.490  33.859   5.882
 3783POPC   C1A49719  18.097  34.040   6.168
 3783POPC   D2A49720  18.205  33.875   6.577
 3783POPC   C3A49721  18.062  34.003   6.976
 3783POPC   C4A49722  18.294  33.895   7.327
 3783POPC   C1B49723  18.573  33.632   6.258
 3783POPC   C2B49724  18.460  33.434   6.657
 3783POPC   C3B49725  18.171  33.490   7.000
 3783POPC   C4B49726  18.062  33.428   7.444
 3784POPC   NC349727  36.450  19.853   5.106
 3784POPC   PO449728  37.138  20.061   5.369
 3784POPC   GL149729  36.968  19.796   5.721
 3784POPC   GL249730  37.245  19.539   5.794
 3784POPC   C1A49731  36.712  19.844   6.099
 3784POPC   D2A49732  36.797  19.724   6.520
 3784POPC   C3A49733  36.695  19.824   6.946
 3784POPC   C4A49734  36.837  19.533   7.264
 3784POPC   C1B49735  37.224  19.753   6.192
 3784POPC   C2B49736  37.184  20.057   6.499
 3784POPC   C3B49737  37.188  19.864   6.870
 3784POPC   C4B49738  37.090  19.977   7.286
 3785POPC   NC349739  36.846  17.047   5.341
 3785POPC   PO449740  36.886  16.352   5.361
 3785POPC   GL149741  36.784  16.675   5.727
 3785POPC   GL249742  36.574  17.012   5.767
 3785POPC   C1A49743  36.969  16.792   6.117
 3785POPC   D2A49744  37.065  16.530   6.473
 3785POPC   C3A49745  36.959  16.720   6.846
 3785POPC   C4A49746  37.134  16.622   7.201
 3785POPC   C1B49747  36.474  16.766   6.139
 3785POPC   C2B49748  36.593  16.917   6.546
 3785POPC   C3B49749  36.432  16.847   6.977
 3785POPC   C4B49750  36.587  16.630   7.352
 3786POPC   NC349751  39.059  34.770   5.323
 3786POPC   PO449752  39.649  34.547   5.402
 3786POPC   GL149753  39.321  34.573   5.803
 3786POPC   GL249754  38.963  34.643   5.800
 3786POPC   C1A49755  39.362  34.609   6.283
 3786POPC   D2A49756  39.213  34.775   6.727
 3786POPC   C3A49757  39.425  34.622   7.154
 3786POPC   C4A49758  39.418  34.345   7.549
 3786POPC   C1B49759  38.858  34.677   6.231
 3786POPC   C2B49760  38.658  34.567   6.606
 3786POPC   C3B49761  38.730  34.761   6.972
 3786POPC   C4B49762  38.837  34.704   7.357
 3787POPC   NC349763  23.042   4.910   5.552
 3787POPC   PO449764  22.761   5.559   5.547
 3787POPC   GL149765  23.077   5.442   5.867
 3787POPC   GL249766  23.391   5.372   5.725
 3787POPC   C1A49767  23.052   5.401   6.332
 3787POPC   D2A49768  22.804   5.112   6.595
 3787POPC   C3A49769  22.992   4.946   6.971
 3787POPC   C4A49770  22.915   5.102   7.415
 3787POPC   C1B49771  23.532   5.317   6.155
 3787POPC   C2B49772  23.409   5.114   6.542
 3787POPC   C3B49773  23.344   5.322   6.905
 3787POPC   C4B49774  23.603   5.460   7.224
 3788POPC   NC349775  29.807  44.571   5.280
 3788POPC   PO449776  30.120   0.217   5.453
 3788POPC   GL149777  29.978   0.030   5.853
 3788POPC   GL249778  29.745  44.775   5.742
 3788POPC   C1A49779  29.938  44.667   6.202
 3788POPC   D2A49780  30.217  44.430   6.538
 3788POPC   C3A49781  30.080  44.506   6.972
 3788POPC   C4A49782  30.216  44.755   7.327
 3788POPC   C1B49783  29.540   0.001   6.077
 3788POPC   C2B49784  29.704   0.067   6.460
 3788POPC   C3B49785  29.665   0.080   6.881
 3788POPC   C4B49786  29.707  44.802   7.218
 3789POPC   NC349787  37.471  31.322   5.430
 3789POPC   PO449788  38.050  31.640   5.343
 3789POPC   GL149789  37.843  31.559   5.772
 3789POPC   GL249790  37.624  31.294   5.907
 3789POPC   C1A49791  37.749  31.647   6.246
 3789POPC   D2A49792  37.569  31.814   6.610
 3789POPC   C3A49793  37.734  31.498   6.843
 3789POPC   C4A49794  37.657  31.254   7.202
 3789POPC   C1B49795  37.349  31.149   6.254
 3789POPC   C2B49796  37.315  31.254   6.715
 3789POPC   C3B49797  37.150  31.177   7.134
 3789POPC   C4B49798  37.323  31.156   7.602
 3790POPC   NC349799  38.870   7.979   5.372
 3790POPC   PO449800  38.365   8.453   5.391
 3790POPC   GL149801  38.229   8.403   5.801
 3790POPC   GL249802  38.092   8.089   5.737
 3790POPC   C1A49803  38.398   8.551   6.211
 3790POPC   D2A49804  38.633   8.416   6.575
 3790POPC   C3A49805  38.396   8.168   6.821
 3790POPC   C4A49806  38.363   8.332   7.219
 3790POPC   C1B49807  37.876   7.950   6.087
 3790POPC   C2B49808  38.028   7.993   6.498
 3790POPC   C3B49809  38.057   7.733   6.871
 3790POPC   C4B49810  38.208   7.868   7.244
 3791POPC   NC349811  11.089  35.846   5.423
 3791POPC   PO449812  11.287  36.487   5.484
 3791POPC   GL149813  11.383  36.338   5.855
 3791POPC   GL249814  11.349  35.979   5.831
 3791POPC   C1A49815  11.225  36.249   6.239
 3791POPC   D2A49816  11.334  36.141   6.611
 3791POPC   C3A49817  11.149  36.284   6.931
 3791POPC   C4A49818  11.177  36.131   7.287
 3791POPC   C1B49819  11.568  35.850   6.179
 3791POPC   C2B49820  11.755  35.884   6.576
 3791POPC   C3B49821  11.534  35.844   7.002
 3791POPC   C4B49822  11.514  35.838   7.517
 3792POPC   NC349823  38.735  33.618   5.510
 3792POPC   PO449824  38.264  34.088   5.537
 3792POPC   GL149825  38.243  33.823   5.877
 3792POPC   GL249826  38.296  33.488   5.787
 3792POPC   C1A49827  38.408  33.796   6.292
 3792POPC   D2A49828  38.732  33.872   6.600
 3792POPC   C3A49829  38.608  34.060   7.004
 3792POPC   C4A49830  38.587  34.093   7.474
 3792POPC   C1B49831  38.604  33.361   6.102
 3792POPC   C2B49832  38.653  33.348   6.544
 3792POPC   C3B49833  38.630  33.512   6.958
 3792POPC   C4B49834  38.418  33.653   7.292
 3793POPC   NC349835  12.359  17.678   5.427
 3793POPC   PO449836  11.918  17.209   5.318
 3793POPC   GL149837  12.204  17.290   5.735
 3793POPC   GL249838  12.133  17.620   5.884
 3793POPC   C1A49839  12.127  17.252   6.249
 3793POPC   D2A49840  12.209  17.290   6.669
 3793POPC   C3A49841  12.054  17.446   7.029
 3793POPC   C4A49842  11.705  17.466   7.274
 3793POPC   C1B49843  11.930  17.729   6.267
 3793POPC   C2B49844  12.107  17.820   6.644
 3793POPC   C3B49845  11.971  17.981   6.989
 3793POPC   C4B49846  12.012  17.844   7.380
 3794POPC   NC349847  20.362  43.852   5.427
 3794POPC   PO449848  21.073  43.807   5.474
 3794POPC   GL149849  20.726  43.789   5.777
 3794POPC   GL249850  20.833  44.099   5.883
 3794POPC   C1A49851  20.477  43.709   6.177
 3794POPC   D2A49852  20.267  43.874   6.553
 3794POPC   C3A49853  20.562  43.982   6.872
 3794POPC   C4A49854  20.597  44.155   7.260
 3794POPC   C1B49855  20.990  43.794   6.207
 3794POPC   C2B49856  20.810  43.616   6.573
 3794POPC   C3B49857  20.897  43.601   7.010
 3794POPC   C4B49858  20.889  43.621   7.462
 3795POPC   NC349859  39.742   3.643   5.451
 3795POPC   PO449860  40.340   3.349   5.603
 3795POPC   GL149861  40.087   3.659   5.848
 3795POPC   GL249862  39.875   3.363   5.871
 3795POPC   C1A49863  39.943   3.822   6.280
 3795POPC   D2A49864  40.184   3.718   6.673
 3795POPC   C3A49865  39.992   3.720   7.102
 3795POPC   C4A49866  40.129   3.617   7.545
 3795POPC   C1B49867  40.119   3.335   6.286
 3795POPC   C2B49868  40.118   3.236   6.743
 3795POPC   C3B49869  40.267   3.287   7.164
 3795POPC   C4B49870  40.118   3.092   7.541
 3796POPC   NC349871  39.814  20.374   5.486
 3796POPC   PO449872  40.063  20.957   5.539
 3796POPC   GL149873  40.019  20.704   5.878
 3796POPC   GL249874  40.305  20.512   5.981
 3796POPC   C1A49875  39.980  20.806   6.317
 3796POPC   D2A49876  40.285  20.939   6.614
 3796POPC   C3A49877  40.313  20.783   7.037
 3796POPC   C4A49878  39.954  20.658   7.292
 3796POPC   C1B49879  40.080  20.316   6.285
 3796POPC   C2B49880  40.030  20.448   6.699
 3796POPC   C3B49881  39.982  20.217   7.039
 3796POPC   C4B49882  40.236  20.160   7.388
 3797POPC   NC349883   7.183  14.615   5.491
 3797POPC   PO449884   6.471  14.477   5.313
 3797POPC   GL149885   6.433  14.277   5.744
 3797POPC   GL249886   6.713  14.020   5.790
 3797POPC   C1A49887   6.630  14.439   6.101
 3797POPC   D2A49888   6.626  14.649   6.492
 3797POPC   C3A49889   6.734  14.585   6.904
 3797POPC   C4A49890   6.456  14.508   7.261
 3797POPC   C1B49891   6.888  13.996   6.246
 3797POPC   C2B49892   6.936  14.119   6.716
 3797POPC   C3B49893   6.845  14.176   7.190
 3797POPC   C4B49894   6.821  13.867   7.562
 3798POPC   NC349895  42.579  14.954   5.368
 3798POPC   PO449896  42.265  15.597   5.299
 3798POPC   GL149897  42.471  15.372   5.680
 3798POPC   GL249898  42.530  15.025   5.885
 3798POPC   C1A49899  42.479  15.482   6.129
 3798POPC   D2A49900  42.480  15.222   6.507
 3798POPC   C3A49901  42.337  15.330   6.930
 3798POPC   C4A49902  42.550  15.304   7.306
 3798POPC   C1B49903  42.314  14.775   6.225
 3798POPC   C2B49904  42.495  14.737   6.631
 3798POPC   C3B49905  42.598  14.888   6.988
 3798POPC   C4B49906  42.296  14.844   7.221
 3799POPC   NC349907  38.854  39.067   5.653
 3799POPC   PO449908  38.393  39.292   5.181
 3799POPC   GL149909  38.367  39.157   5.634
 3799POPC   GL249910  38.473  39.454   5.813
 3799POPC   C1A49911  38.296  39.077   6.107
 3799POPC   D2A49912  38.190  39.222   6.564
 3799POPC   C3A49913  38.417  39.122   7.001
 3799POPC   C4A49914  38.556  39.114   7.465
 3799POPC   C1B49915  38.140  39.583   6.156
 3799POPC   C2B49916  37.989  39.732   6.575
 3799POPC   C3B49917  38.036  39.532   6.988
 3799POPC   C4B49918  38.279  39.521   7.366
 3800POPC   NC349919   4.725  15.402   5.676
 3800POPC   PO449920   5.107  15.139   5.164
 3800POPC   GL149921   5.069  14.988   5.685
 3800POPC   GL249922   5.390  14.872   5.814
 3800POPC   C1A49923   5.122  15.110   6.186
 3800POPC   D2A49924   4.967  15.260   6.607
 3800POPC   C3A49925   5.234  15.248   6.980
 3800POPC   C4A49926   5.329  15.531   7.324
 3800POPC   C1B49927   5.369  14.653   6.196
 3800POPC   C2B49928   5.327  14.819   6.590
 3800POPC   C3B49929   5.575  14.785   6.961
 3800POPC   C4B49930   5.330  14.840   7.265
 3801POPC   NC349931  29.077   4.951   5.259
 3801POPC   PO449932  28.614   5.259   5.698
 3801POPC   GL149933  28.994   5.227   5.881
 3801POPC   GL249934  29.307   5.094   5.796
 3801POPC   C1A49935  29.099   5.222   6.271
 3801POPC   D2A49936  29.119   5.064   6.638
 3801POPC   C3A49937  28.951   5.302   6.957
 3801POPC   C4A49938  29.116   5.229   7.320
 3801POPC   C1B49939  29.537   4.997   6.175
 3801POPC   C2B49940  29.686   5.147   6.561
 3801POPC   C3B49941  29.500   5.115   6.964
 3801POPC   C4B49942  29.612   5.224   7.354
 3802POPC   NC349943  22.306  29.331   5.321
 3802POPC   PO449944  21.680  29.212   5.395
 3802POPC   GL149945  21.916  29.050   5.789
 3802POPC   GL249946  22.290  29.176   5.814
 3802POPC   C1A49947  22.053  29.016   6.257
 3802POPC   D2A49948  22.192  29.173   6.649
 3802POPC   C3A49949  22.049  28.918   6.996
 3802POPC   C4A49950  21.818  28.830   7.371
 3802POPC   C1B49951  22.490  28.839   6.066
 3802POPC   C2B49952  22.488  28.777   6.512
 3802POPC   C3B49953  22.585  28.977   6.902
 3802POPC   C4B49954  22.462  28.861   7.294
 3803POPC   NC349955  41.113  24.892   5.478
 3803POPC   PO449956  40.892  25.461   5.263
 3803POPC   GL149957  40.914  25.294   5.730
 3803POPC   GL249958  40.743  24.969   5.838
 3803POPC   C1A49959  40.773  25.367   6.161
 3803POPC   D2A49960  40.925  25.499   6.550
 3803POPC   C3A49961  40.759  25.310   6.941
 3803POPC   C4A49962  40.760  25.519   7.324
 3803POPC   C1B49963  41.063  24.886   6.195
 3803POPC   C2B49964  41.231  24.733   6.630
 3803POPC   C3B49965  41.059  24.856   7.061
 3803POPC   C4B49966  40.648  24.666   7.214
 3804POPC   NC349967  15.380  27.551   5.368
 3804POPC   PO449968  14.822  27.416   5.234
 3804POPC   GL149969  15.025  27.435   5.722
 3804POPC   GL249970  15.340  27.267   5.795
 3804POPC   C1A49971  15.045  27.663   6.146
 3804POPC   D2A49972  14.948  27.837   6.576
 3804POPC   C3A49973  15.138  27.713   6.976
 3804POPC   C4A49974  15.317  27.532   7.354
 3804POPC   C1B49975  15.110  27.154   6.182
 3804POPC   C2B49976  15.062  27.249   6.654
 3804POPC   C3B49977  15.239  27.120   7.070
 3804POPC   C4B49978  15.263  27.092   7.568
 3805POPC   NC349979  12.241  14.210   5.507
 3805POPC   PO449980  12.389  14.862   5.512
 3805POPC   GL149981  12.260  14.588   5.889
 3805POPC   GL249982  11.901  14.563   5.991
 3805POPC   C1A49983  12.221  14.318   6.285
 3805POPC   D2A49984  11.979  14.274   6.669
 3805POPC   C3A49985  12.204  14.304   7.055
 3805POPC   C4A49986  12.522  13.979   7.181
 3805POPC   C1B49987  11.993  14.798   6.329
 3805POPC   C2B49988  11.858  14.763   6.748
 3805POPC   C3B49989  12.038  14.897   7.102
 3805POPC   C4B49990  12.271  14.706   7.398
 3806POPC   NC349991  14.830  24.680   5.089
 3806POPC   PO449992  14.255  24.458   5.454
 3806POPC   GL149993  14.381  24.297   5.836
 3806POPC   GL249994  14.703  24.236   5.829
 3806POPC   C1A49995  14.180  24.258   6.237
 3806POPC   D2A49996  14.211  24.552   6.565
 3806POPC   C3A49997  14.089  24.455   6.995
 3806POPC   C4A49998  14.274  24.472   7.410
 3806POPC   C1B49999  14.644  24.507   6.224
 3806POPC   C2B50000  14.731  24.679   6.613
 3806POPC   C3B50001  14.583  24.589   7.000
 3806POPC   C4B50002  14.722  24.697   7.376
 3807POPC   NC350003  34.819  15.592   5.442
 3807POPC   PO450004  34.815  14.906   5.374
 3807POPC   GL150005  34.701  15.173   5.736
 3807POPC   GL250006  34.326  15.244   5.772
 3807POPC   C1A50007  34.679  15.343   6.173
 3807POPC   D2A50008  34.626  15.498   6.615
 3807POPC   C3A50009  34.730  15.211   6.969
 3807POPC   C4A50010  34.997  14.909   7.267
 3807POPC   C1B50011  34.102  15.133   6.146
 3807POPC   C2B50012  33.959  15.179   6.582
 3807POPC   C3B50013  34.142  15.314   6.965
 3807POPC   C4B50014  34.415  15.630   7.076
 3808POPC   NC350015   3.716  26.629   5.294
 3808POPC   PO450016   3.701  27.178   5.525
 3808POPC   GL150017   3.698  26.840   5.811
 3808POPC   GL250018   3.422  26.614   5.806
 3808POPC   C1A50019   3.670  26.852   6.262
 3808POPC   D2A50020   3.898  27.003   6.641
 3808POPC   C3A50021   3.793  26.949   7.083
 3808POPC   C4A50022   3.674  27.070   7.528
 3808POPC   C1B50023   3.167  26.761   6.171
 3808POPC   C2B50024   3.317  26.874   6.622
 3808POPC   C3B50025   3.270  26.943   7.061
 3808POPC   C4B50026   3.447  26.627   7.361
 3809POPC   NC350027   6.914  22.222   5.312
 3809POPC   PO450028   6.317  21.961   5.462
 3809POPC   GL150029   6.606  22.148   5.776
 3809POPC   GL250030   6.991  22.159   5.820
 3809POPC   C1A50031   6.530  22.297   6.211
 3809POPC   D2A50032   6.362  22.102   6.614
 3809POPC   C3A50033   6.591  22.253   7.004
 3809POPC   C4A50034   6.668  22.213   7.458
 3809POPC   C1B50035   6.962  21.995   6.272
 3809POPC   C2B50036   6.936  21.968   6.749
 3809POPC   C3B50037   6.744  21.766   7.131
 3809POPC   C4B50038   6.579  21.629   7.539
 3810POPC   NC350039  18.839  16.914   5.441
 3810POPC   PO450040  19.163  16.388   5.398
 3810POPC   GL150041  19.019  16.491   5.825
 3810POPC   GL250042  18.971  16.851   5.930
 3810POPC   C1A50043  19.140  16.508   6.267
 3810POPC   D2A50044  19.374  16.527   6.670
 3810POPC   C3A50045  19.160  16.712   7.038
 3810POPC   C4A50046  18.910  16.616   7.393
 3810POPC   C1B50047  18.752  16.864   6.323
 3810POPC   C2B50048  18.830  16.611   6.643
 3810POPC   C3B50049  18.691  16.465   6.965
 3810POPC   C4B50050  18.588  16.888   7.088
 3811POPC   NC350051   9.438  42.011   5.318
 3811POPC   PO450052   9.790  41.511   5.386
 3811POPC   GL150053   9.915  41.383   5.766
 3811POPC   GL250054   9.977  41.726   5.882
 3811POPC   C1A50055   9.852  41.299   6.203
 3811POPC   D2A50056   9.793  41.570   6.567
 3811POPC   C3A50057   9.878  41.421   7.002
 3811POPC   C4A50058   9.920  41.438   7.467
 3811POPC   C1B50059   9.599  41.824   6.123
 3811POPC   C2B50060   9.546  42.034   6.535
 3811POPC   C3B50061   9.592  41.864   6.947
 3811POPC   C4B50062   9.474  41.621   7.275
 3812POPC   NC350063   0.441   7.020   5.580
 3812POPC   PO450064   0.775   7.546   5.347
 3812POPC   GL150065   0.500   7.513   5.748
 3812POPC   GL250066   0.262   7.788   5.840
 3812POPC   C1A50067   0.417   7.356   6.168
 3812POPC   D2A50068   0.362   7.144   6.559
 3812POPC   C3A50069   0.501   7.361   6.921
 3812POPC   C4A50070   0.590   7.227   7.291
 3812POPC   C1B50071   0.090   7.731   6.249
 3812POPC   C2B50072   0.117   7.591   6.663
 3812POPC   C3B50073   0.160   7.771   7.066
 3812POPC   C4B50074   0.006   7.723   7.454
 3813POPC   NC350075  25.972  19.201   5.023
 3813POPC   PO450076  26.565  19.099   5.358
 3813POPC   GL150077  26.314  19.015   5.713
 3813POPC   GL250078  26.143  19.339   5.709
 3813POPC   C1A50079  26.115  18.984   6.126
 3813POPC   D2A50080  26.293  19.068   6.521
 3813POPC   C3A50081  26.205  18.829   6.865
 3813POPC   C4A50082  25.863  18.880   7.136
 3813POPC   C1B50083  25.866  19.444   6.053
 3813POPC   C2B50084  25.830  19.314   6.483
 3813POPC   C3B50085  26.021  19.333   6.879
 3813POPC   C4B50086  26.248  19.178   7.248
 3814POPC   NC350087  25.239   9.675   5.228
 3814POPC   PO450088  25.400  10.301   5.372
 3814POPC   GL150089  25.404   9.969   5.721
 3814POPC   GL250090  25.305   9.584   5.732
 3814POPC   C1A50091  25.181   9.877   6.127
 3814POPC   D2A50092  24.924   9.758   6.471
 3814POPC   C3A50093  25.168   9.708   6.813
 3814POPC   C4A50094  25.115   9.789   7.224
 3814POPC   C1B50095  25.513   9.359   6.088
 3814POPC   C2B50096  25.466   9.417   6.517
 3814POPC   C3B50097  25.593   9.300   6.909
 3814POPC   C4B50098  25.594   9.322   7.331
 3815POPC   NC350099  11.745  36.535   5.340
 3815POPC   PO450100  12.283  35.972   5.316
 3815POPC   GL150101  12.086  36.044   5.720
 3815POPC   GL250102  11.794  36.123   5.641
 3815POPC   C1A50103  12.090  35.862   6.169
 3815POPC   D2A50104  12.275  35.833   6.596
 3815POPC   C3A50105  12.061  35.995   6.964
 3815POPC   C4A50106  12.306  35.908   7.309
 3815POPC   C1B50107  11.816  36.279   6.104
 3815POPC   C2B50108  11.785  36.408   6.513
 3815POPC   C3B50109  11.630  36.462   6.900
 3815POPC   C4B50110  11.683  36.253   7.240
 3816POPC   NC350111   8.749   7.333   5.302
 3816POPC   PO450112   9.200   7.790   5.316
 3816POPC   GL150113   9.038   7.536   5.713
 3816POPC   GL250114   8.999   7.158   5.799
 3816POPC   C1A50115   8.864   7.533   6.154
 3816POPC   D2A50116   8.880   7.397   6.586
 3816POPC   C3A50117   8.777   7.606   6.964
 3816POPC   C4A50118   8.758   7.471   7.388
 3816POPC   C1B50119   9.111   7.056   6.260
 3816POPC   C2B50120   9.352   7.232   6.648
 3816POPC   C3B50121   9.213   7.303   7.105
 3816POPC   C4B50122   9.251   7.369   7.572
 3817POPC   NC350123  12.249  15.671   5.385
 3817POPC   PO450124  12.428  16.354   5.435
 3817POPC   GL150125  12.230  16.062   5.725
 3817POPC   GL250126  11.887  15.976   5.597
 3817POPC   C1A50127  12.156  16.120   6.175
 3817POPC   D2A50128  12.003  16.173   6.578
 3817POPC   C3A50129  12.268  16.024   6.880
 3817POPC   C4A50130  12.112  15.983   7.247
 3817POPC   C1B50131  11.824  15.787   5.997
 3817POPC   C2B50132  11.815  15.706   6.426
 3817POPC   C3B50133  11.981  15.586   6.804
 3817POPC   C4B50134  11.925  15.518   7.234
 3818POPC   NC350135  18.373  37.754   5.440
 3818POPC   PO450136  17.947  37.202   5.612
 3818POPC   GL150137  18.139  37.532   5.849
 3818POPC   GL250138  18.044  37.886   5.839
 3818POPC   C1A50139  18.353  37.545   6.240
 3818POPC   D2A50140  18.609  37.527   6.611
 3818POPC   C3A50141  18.450  37.597   6.996
 3818POPC   C4A50142  18.555  37.842   7.325
 3818POPC   C1B50143  18.103  38.015   6.241
 3818POPC   C2B50144  18.152  37.825   6.610
 3818POPC   C3B50145  18.004  37.870   6.977
 3818POPC   C4B50146  18.079  37.689   7.374
 3819POPC   NC350147  40.082  27.257   5.176
 3819POPC   PO450148  39.770  27.662   5.590
 3819POPC   GL150149  39.954  27.358   5.831
 3819POPC   GL250150  40.266  27.400   5.730
 3819POPC   C1A50151  39.901  27.290   6.255
 3819POPC   D2A50152  39.819  27.576   6.591
 3819POPC   C3A50153  39.867  27.440   7.014
 3819POPC   C4A50154  39.839  27.541   7.411
 3819POPC   C1B50155  40.291  27.593   6.182
 3819POPC   C2B50156  40.386  27.699   6.598
 3819POPC   C3B50157  40.145  27.865   6.882
 3819POPC   C4B50158  40.239  27.830   7.261
 3820POPC   NC350159  19.345  37.990   5.423
 3820POPC   PO450160  18.831  37.625   5.414
 3820POPC   GL150161  18.681  37.596   5.839
 3820POPC   GL250162  18.543  37.911   5.939
 3820POPC   C1A50163  18.914  37.650   6.222
 3820POPC   D2A50164  19.126  37.651   6.623
 3820POPC   C3A50165  18.985  37.376   6.958
 3820POPC   C4A50166  19.354  37.170   7.108
 3820POPC   C1B50167  18.580  38.003   6.393
 3820POPC   C2B50168  18.890  38.101   6.668
 3820POPC   C3B50169  18.981  37.894   7.052
 3820POPC   C4B50170  19.238  37.651   7.312
 3821POPC   NC350171  21.380   0.947   5.611
 3821POPC   PO450172  20.973   1.569   5.449
 3821POPC   GL150173  21.193   1.369   5.796
 3821POPC   GL250174  20.999   1.087   5.874
 3821POPC   C1A50175  21.423   1.218   6.205
 3821POPC   D2A50176  21.674   1.133   6.586
 3821POPC   C3A50177  21.514   0.986   6.977
 3821POPC   C4A50178  21.540   1.221   7.379
 3821POPC   C1B50179  21.023   0.920   6.237
 3821POPC   C2B50180  21.073   1.081   6.600
 3821POPC   C3B50181  20.967   0.830   6.902
 3821POPC   C4B50182  21.102   0.990   7.278
 3822POPC   NC350183  38.997  11.925   5.413
 3822POPC   PO450184  39.011  12.535   5.253
 3822POPC   GL150185  38.944  12.416   5.673
 3822POPC   GL250186  39.250  12.222   5.763
 3822POPC   C1A50187  38.978  12.437   6.125
 3822POPC   D2A50188  39.053  12.113   6.411
 3822POPC   C3A50189  39.025  12.208   6.846
 3822POPC   C4A50190  39.266  12.171   7.230
 3822POPC   C1B50191  39.422  11.885   6.037
 3822POPC   C2B50192  39.394  11.692   6.425
 3822POPC   C3B50193  39.346  11.794   6.846
 3822POPC   C4B50194  39.577  11.748   7.219
 3823POPC   NC350195  23.142  30.748   5.382
 3823POPC   PO450196  22.521  30.426   5.552
 3823POPC   GL150197  22.890  30.440   5.749
 3823POPC   GL250198  22.887  30.771   5.831
 3823POPC   C1A50199  23.086  30.428   6.161
 3823POPC   D2A50200  23.170  30.588   6.556
 3823POPC   C3A50201  22.944  30.492   6.925
 3823POPC   C4A50202  23.111  30.563   7.351
 3823POPC   C1B50203  22.886  30.945   6.230
 3823POPC   C2B50204  22.718  30.873   6.616
 3823POPC   C3B50205  22.535  30.780   6.997
 3823POPC   C4B50206  22.869  30.986   7.148
 3824POPC   NC350207  28.704  29.007   5.038
 3824POPC   PO450208  29.261  29.314   5.480
 3824POPC   GL150209  29.229  29.062   5.872
 3824POPC   GL250210  28.906  29.009   6.009
 3824POPC   C1A50211  29.273  28.866   6.290
 3824POPC   D2A50212  29.063  28.918   6.665
 3824POPC   C3A50213  29.247  28.841   7.060
 3824POPC   C4A50214  29.252  29.098   7.434
 3824POPC   C1B50215  29.024  29.340   6.304
 3824POPC   C2B50216  29.079  29.508   6.717
 3824POPC   C3B50217  29.174  29.504   7.129
 3824POPC   C4B50218  28.868  29.419   7.469
 3825POPC   NC350219  41.320   9.039   5.473
 3825POPC   PO450220  41.912   8.648   5.480
 3825POPC   GL150221  41.611   8.720   5.819
 3825POPC   GL250222  41.284   8.603   5.723
 3825POPC   C1A50223  41.635   8.888   6.262
 3825POPC   D2A50224  41.920   9.000   6.630
 3825POPC   C3A50225  41.750   9.139   7.033
 3825POPC   C4A50226  41.687   8.861   7.374
 3825POPC   C1B50227  41.155   8.730   6.112
 3825POPC   C2B50228  41.295   8.585   6.518
 3825POPC   C3B50229  41.456   8.732   6.893
 3825POPC   C4B50230  41.211   8.988   7.196
 3826POPC   NC350231  12.775  29.637   5.359
 3826POPC   PO450232  12.662  30.253   5.628
 3826POPC   GL150233  12.672  29.962   5.913
 3826POPC   GL250234  12.954  29.815   5.803
 3826POPC   C1A50235  12.803  29.984   6.325
 3826POPC   D2A50236  13.073  30.112   6.663
 3826POPC   C3A50237  13.001  29.957   7.090
 3826POPC   C4A50238  12.939  29.964   7.552
 3826POPC   C1B50239  12.973  29.537   6.135
 3826POPC   C2B50240  13.060  29.599   6.570
 3826POPC   C3B50241  13.272  29.512   6.942
 3826POPC   C4B50242  13.233  29.595   7.379
 3827POPC   NC350243  40.344  12.728   5.513
 3827POPC   PO450244  40.992  12.896   5.434
 3827POPC   GL150245  40.828  12.955   5.849
 3827POPC   GL250246  41.095  12.895   6.085
 3827POPC   C1A50247  40.605  12.685   6.149
 3827POPC   D2A50248  40.693  12.428   6.521
 3827POPC   C3A50249  40.654  12.561   6.954
 3827POPC   C4A50250  40.781  12.390   7.348
 3827POPC   C1B50251  41.056  12.882   6.549
 3827POPC   C2B50252  40.719  13.060   6.800
 3827POPC   C3B50253  40.519  13.003   7.196
 3827POPC   C4B50254  40.901  12.874   7.384
 3828POPC   NC350255   0.832   8.413   5.400
 3828POPC   PO450256   1.372   7.990   5.268
 3828POPC   GL150257   1.239   8.053   5.728
 3828POPC   GL250258   1.216   8.425   5.749
 3828POPC   C1A50259   1.229   7.853   6.172
 3828POPC   D2A50260   1.145   7.744   6.616
 3828POPC   C3A50261   1.141   8.015   6.957
 3828POPC   C4A50262   1.269   8.041   7.380
 3828POPC   C1B50263   0.954   8.295   6.102
 3828POPC   C2B50264   0.848   8.168   6.524
 3828POPC   C3B50265   0.756   8.346   6.926
 3828POPC   C4B50266   0.789   8.206   7.358
 3829POPC   NC350267  38.297  25.576   5.560
 3829POPC   PO450268  38.635  25.103   5.206
 3829POPC   GL150269  38.731  25.241   5.660
 3829POPC   GL250270  38.391  25.194   5.872
 3829POPC   C1A50271  38.813  25.168   6.118
 3829POPC   D2A50272  38.477  25.047   6.405
 3829POPC   C3A50273  38.449  25.172   6.832
 3829POPC   C4A50274  38.652  25.237   7.220
 3829POPC   C1B50275  38.448  25.529   6.208
 3829POPC   C2B50276  38.311  25.622   6.625
 3829POPC   C3B50277  38.374  25.641   7.094
 3829POPC   C4B50278  38.323  25.486   7.554
 3830POPC   NC350279  32.071  40.979   5.002
 3830POPC   PO450280  32.351  40.606   5.549
 3830POPC   GL150281  32.178  40.799   5.869
 3830POPC   GL250282  31.922  41.047   5.758
 3830POPC   C1A50283  32.172  40.553   6.229
 3830POPC   D2A50284  32.251  40.285   6.540
 3830POPC   C3A50285  32.275  40.530   6.855
 3830POPC   C4A50286  32.029  40.784   7.091
 3830POPC   C1B50287  31.911  41.027   6.237
 3830POPC   C2B50288  32.204  40.962   6.579
 3830POPC   C3B50289  32.479  41.014   6.929
 3830POPC   C4B50290  32.335  41.141   7.342
 3831POPC   NC350291  42.664  33.063   5.439
 3831POPC   PO450292  41.992  33.020   5.399
 3831POPC   GL150293  42.185  32.891   5.767
 3831POPC   GL250294  42.413  33.173   5.864
 3831POPC   C1A50295  42.194  32.863   6.206
 3831POPC   D2A50296  42.278  33.131   6.560
 3831POPC   C3A50297  42.153  32.962   6.956
 3831POPC   C4A50298  42.174  33.144   7.319
 3831POPC   C1B50299  42.680  32.947   6.175
 3831POPC   C2B50300  42.773  32.927   6.614
 3831POPC   C3B50301  42.622  33.141   6.981
 3831POPC   C4B50302  42.641  32.965   7.379
 3832POPC   NC350303  16.114  35.491   5.252
 3832POPC   PO450304  15.425  35.340   5.244
 3832POPC   GL150305  15.735  35.283   5.581
 3832POPC   GL250306  15.540  35.026   5.765
 3832POPC   C1A50307  15.902  35.243   6.033
 3832POPC   D2A50308  15.819  35.344   6.467
 3832POPC   C3A50309  16.090  35.269   6.845
 3832POPC   C4A50310  16.147  35.442   7.282
 3832POPC   C1B50311  15.427  35.091   6.232
 3832POPC   C2B50312  15.450  35.081   6.702
 3832POPC   C3B50313  15.709  34.993   7.044
 3832POPC   C4B50314  15.727  35.138   7.457
 3833POPC   NC350315  18.841  44.390   5.338
 3833POPC   PO450316  19.257  44.934   5.337
 3833POPC   GL150317  19.145  44.958   5.758
 3833POPC   GL250318  18.994  44.637   5.772
 3833POPC   C1A50319  19.189   0.014   6.196
 3833POPC   D2A50320  19.168  44.737   6.548
 3833POPC   C3A50321  19.341  44.883   6.921
 3833POPC   C4A50322  19.120   0.182   7.184
 3833POPC   C1B50323  19.209  44.428   6.104
 3833POPC   C2B50324  19.282  44.248   6.523
 3833POPC   C3B50325  19.162  44.375   6.954
 3833POPC   C4B50326  19.038  44.191   7.349
 3834POPC   NC350327  14.280  22.263   5.422
 3834POPC   PO450328  14.701  22.630   5.444
 3834POPC   GL150329  14.367  22.593   5.829
 3834POPC   GL250330  14.102  22.316   5.910
 3834POPC   C1A50331  14.375  22.494   6.313
 3834POPC   D2A50332  14.598  22.597   6.701
 3834POPC   C3A50333  14.592  22.301   7.064
 3834POPC   C4A50334  14.739  21.880   7.199
 3834POPC   C1B50335  14.112  22.050   6.319
 3834POPC   C2B50336  14.209  22.147   6.759
 3834POPC   C3B50337  14.208  21.959   7.189
 3834POPC   C4B50338  14.391  21.720   7.552
 3835POPC   NC350339  34.082  41.529   5.338
 3835POPC   PO450340  33.492  41.954   5.184
 3835POPC   GL150341  33.696  41.784   5.643
 3835POPC   GL250342  33.861  41.469   5.792
 3835POPC   C1A50343  33.786  41.797   6.156
 3835POPC   D2A50344  34.083  41.825   6.546
 3835POPC   C3A50345  33.965  41.644   6.935
 3835POPC   C4A50346  34.040  41.293   7.254
 3835POPC   C1B50347  33.891  41.210   6.153
 3835POPC   C2B50348  33.983  41.295   6.566
 3835POPC   C3B50349  33.678  41.231   6.907
 3835POPC   C4B50350  33.580  41.555   7.266
 3836POPC   NC350351  23.109  13.499   5.136
 3836POPC   PO450352  22.756  13.977   5.520
 3836POPC   GL150353  22.961  13.923   5.945
 3836POPC   GL250354  22.947  13.568   6.059
 3836POPC   C1A50355  23.298  13.866   6.282
 3836POPC   D2A50356  23.315  13.616   6.655
 3836POPC   C3A50357  23.149  13.838   6.997
 3836POPC   C4A50358  22.890  13.731   7.291
 3836POPC   C1B50359  23.280  13.316   6.254
 3836POPC   C2B50360  23.211  13.108   6.655
 3836POPC   C3B50361  23.029  13.296   7.023
 3836POPC   C4B50362  23.122  13.320   7.459
 3837POPC   NC350363  39.677  43.477   5.494
 3837POPC   PO450364  40.119  42.980   5.176
 3837POPC   GL150365  40.067  42.887   5.629
 3837POPC   GL250366  39.758  42.711   5.743
 3837POPC   C1A50367  40.043  43.021   6.087
 3837POPC   D2A50368  39.794  43.028   6.497
 3837POPC   C3A50369  39.886  43.308   6.868
 3837POPC   C4A50370  40.183  43.421   7.202
 3837POPC   C1B50371  39.796  42.576   6.198
 3837POPC   C2B50372  40.172  42.635   6.465
 3837POPC   C3B50373  40.256  42.933   6.804
 3837POPC   C4B50374  40.040  42.901   7.178
 3838POPC   NC350375  31.265  42.445   5.246
 3838POPC   PO450376  30.576  42.394   5.475
 3838POPC   GL150377  30.549  42.214   5.860
 3838POPC   GL250378  30.915  42.277   5.876
 3838POPC   C1A50379  30.450  42.065   6.258
 3838POPC   D2A50380  30.603  42.273   6.629
 3838POPC   C3A50381  30.861  42.119   6.925
 3838POPC   C4A50382  30.579  42.256   7.254
 3838POPC   C1B50383  30.855  42.500   6.249
 3838POPC   C2B50384  30.860  42.761   6.624
 3838POPC   C3B50385  30.974  42.620   7.051
 3838POPC   C4B50386  30.738  42.713   7.431
 3839POPC   NC350387  38.226   3.351   5.416
 3839POPC   PO450388  38.843   3.597   5.572
 3839POPC   GL150389  38.488   3.506   5.810
 3839POPC   GL250390  38.167   3.742   5.790
 3839POPC   C1A50391  38.294   3.371   6.154
 3839POPC   D2A50392  38.193   3.436   6.575
 3839POPC   C3A50393  38.530   3.348   6.819
 3839POPC   C4A50394  38.399   3.386   7.197
 3839POPC   C1B50395  38.178   3.899   6.246
 3839POPC   C2B50396  38.470   3.927   6.619
 3839POPC   C3B50397  38.560   3.839   7.076
 3839POPC   C4B50398  38.740   3.733   7.491
 3840POPC   NC350399  13.813   3.747   5.301
 3840POPC   PO450400  13.344   3.260   5.360
 3840POPC   GL150401  13.596   3.397   5.728
 3840POPC   GL250402  13.646   3.771   5.804
 3840POPC   C1A50403  13.435   3.452   6.160
 3840POPC   D2A50404  13.563   3.544   6.575
 3840POPC   C3A50405  13.346   3.765   6.874
 3840POPC   C4A50406  13.339   3.481   7.205
 3840POPC   C1B50407  13.885   3.747   6.214
 3840POPC   C2B50408  14.034   3.723   6.669
 3840POPC   C3B50409  13.809   3.703   7.092
 3840POPC   C4B50410  13.782   3.834   7.549
 3841POPC   NC350411   9.477  43.695   5.429
 3841POPC   PO450412   9.918  44.057   5.552
 3841POPC   GL150413   9.954  43.613   5.765
 3841POPC   GL250414  10.298  43.456   5.844
 3841POPC   C1A50415   9.914  43.417   6.189
 3841POPC   D2A50416   9.648  43.591   6.540
 3841POPC   C3A50417   9.716  43.582   6.997
 3841POPC   C4A50418   9.652  43.820   7.410
 3841POPC   C1B50419  10.292  43.732   6.260
 3841POPC   C2B50420  10.136  43.729   6.720
 3841POPC   C3B50421  10.077  43.966   7.155
 3841POPC   C4B50422   9.964  44.191   7.564
 3842POPC   NC350423   0.014  42.797   5.534
 3842POPC   PO450424  44.508  43.281   5.370
 3842POPC   GL150425  44.654  43.089   5.753
 3842POPC   GL250426  44.388  42.945   5.945
 3842POPC   C1A50427  44.832  43.058   6.190
 3842POPC   D2A50428  44.519  43.045   6.559
 3842POPC   C3A50429  44.707  43.127   6.984
 3842POPC   C4A50430  44.983  43.435   7.196
 3842POPC   C1B50431  44.133  42.793   6.275
 3842POPC   C2B50432  44.125  42.715   6.709
 3842POPC   C3B50433  44.370  42.713   7.082
 3842POPC   C4B50434  44.517  42.933   7.451
 3843POPC   NC350435  24.599  42.948   5.380
 3843POPC   PO450436  24.067  42.667   5.660
 3843POPC   GL150437  24.316  43.045   5.858
 3843POPC   GL250438  24.671  43.091   5.870
 3843POPC   C1A50439  24.352  43.306   6.256
 3843POPC   D2A50440  24.612  43.398   6.651
 3843POPC   C3A50441  24.564  43.203   6.996
 3843POPC   C4A50442  24.391  42.932   7.236
 3843POPC   C1B50443  24.642  42.726   6.133
 3843POPC   C2B50444  24.629  42.656   6.582
 3843POPC   C3B50445  24.809  42.730   7.006
 3843POPC   C4B50446  24.860  43.044   7.382
 3844POPC   NC350447  13.531  10.830   4.943
 3844POPC   PO450448  13.674  11.036   5.556
 3844POPC   GL150449  13.603  10.770   5.905
 3844POPC   GL250450  13.387  10.490   5.822
 3844POPC   C1A50451  13.575  10.748   6.352
 3844POPC   D2A50452  13.301  10.904   6.673
 3844POPC   C3A50453  13.528  10.727   7.006
 3844POPC   C4A50454  13.890  10.559   7.184
 3844POPC   C1B50455  13.488  10.257   6.237
 3844POPC   C2B50456  13.615  10.303   6.715
 3844POPC   C3B50457  13.572  10.169   7.192
 3844POPC   C4B50458  13.416  10.061   7.637
 3845POPC   NC350459  31.297  20.093   5.296
 3845POPC   PO450460  31.580  19.459   5.309
 3845POPC   GL150461  31.369  19.651   5.668
 3845POPC   GL250462  31.373  19.997   5.790
 3845POPC   C1A50463  31.324  19.608   6.126
 3845POPC   D2A50464  31.450  19.785   6.522
 3845POPC   C3A50465  31.283  19.640   6.899
 3845POPC   C4A50466  31.364  19.726   7.316
 3845POPC   C1B50467  31.625  20.134   6.174
 3845POPC   C2B50468  31.756  20.180   6.622
 3845POPC   C3B50469  31.725  19.950   7.006
 3845POPC   C4B50470  31.982  19.981   7.372
 3846POPC   NC350471  23.918   5.297   5.367
 3846POPC   PO450472  23.472   4.777   5.448
 3846POPC   GL150473  23.701   4.962   5.769
 3846POPC   GL250474  23.363   4.893   5.965
 3846POPC   C1A50475  24.015   5.188   6.084
 3846POPC   D2A50476  23.893   5.373   6.534
 3846POPC   C3A50477  23.988   5.264   6.990
 3846POPC   C4A50478  24.065   5.328   7.469
 3846POPC   C1B50479  23.706   4.824   6.246
 3846POPC   C2B50480  23.877   4.873   6.628
 3846POPC   C3B50481  23.628   4.895   6.960
 3846POPC   C4B50482  23.385   4.983   7.297
 3847POPC   NC350483  42.808  18.340   5.425
 3847POPC   PO450484  43.554  18.617   5.520
 3847POPC   GL150485  43.433  18.409   5.892
 3847POPC   GL250486  43.158  18.303   5.784
 3847POPC   C1A50487  43.261  18.466   6.325
 3847POPC   D2A50488  42.921  18.439   6.604
 3847POPC   C3A50489  43.027  18.325   7.016
 3847POPC   C4A50490  43.261  18.358   7.380
 3847POPC   C1B50491  43.069  18.042   6.122
 3847POPC   C2B50492  43.160  17.984   6.558
 3847POPC   C3B50493  43.254  17.880   6.973
 3847POPC   C4B50494  42.863  17.819   7.186
 3848POPC   NC350495  38.183  26.353   5.470
 3848POPC   PO450496  38.660  25.846   5.477
 3848POPC   GL150497  38.470  25.997   5.854
 3848POPC   GL250498  38.555  26.332   5.847
 3848POPC   C1A50499  38.503  26.063   6.317
 3848POPC   D2A50500  38.575  26.020   6.775
 3848POPC   C3A50501  38.331  26.150   7.099
 3848POPC   C4A50502  38.260  25.997   7.503
 3848POPC   C1B50503  38.560  26.584   6.248
 3848POPC   C2B50504  38.583  26.554   6.704
 3848POPC   C3B50505  38.805  26.372   7.044
 3848POPC   C4B50506  38.674  26.290   7.457
 3849POPC   NC350507  42.226   3.883   5.437
 3849POPC   PO450508  42.141   3.282   5.305
 3849POPC   GL150509  42.004   3.492   5.679
 3849POPC   GL250510  42.343   3.548   5.805
 3849POPC   C1A50511  41.886   3.581   6.110
 3849POPC   D2A50512  42.018   3.468   6.527
 3849POPC   C3A50513  42.134   3.828   6.754
 3849POPC   C4A50514  42.151   3.793   7.179
 3849POPC   C1B50515  42.308   3.250   6.139
 3849POPC   C2B50516  42.525   3.412   6.493
 3849POPC   C3B50517  42.427   3.439   6.902
 3849POPC   C4B50518  42.657   3.705   7.141
 3850POPC   NC350519  18.790  31.735   5.421
 3850POPC   PO450520  19.335  31.482   5.544
 3850POPC   GL150521  18.969  31.414   5.852
 3850POPC   GL250522  18.804  31.716   5.944
 3850POPC   C1A50523  18.978  31.359   6.343
 3850POPC   D2A50524  19.328  31.460   6.656
 3850POPC   C3A50525  19.233  31.331   7.086
 3850POPC   C4A50526  18.822  31.293   7.312
 3850POPC   C1B50527  19.204  31.774   6.165
 3850POPC   C2B50528  19.239  31.960   6.567
 3850POPC   C3B50529  19.173  31.825   6.983
 3850POPC   C4B50530  19.118  31.693   7.431
 3851POPC   NC350531  33.452  32.512   5.524
 3851POPC   PO450532  32.827  32.290   5.345
 3851POPC   GL150533  32.985  32.255   5.796
 3851POPC   GL250534  33.324  32.099   5.816
 3851POPC   C1A50535  32.832  32.436   6.238
 3851POPC   D2A50536  32.917  32.630   6.641
 3851POPC   C3A50537  32.866  32.319   6.957
 3851POPC   C4A50538  32.999  32.219   7.395
 3851POPC   C1B50539  33.315  32.364   6.183
 3851POPC   C2B50540  33.201  32.180   6.590
 3851POPC   C3B50541  33.211  31.939   6.995
 3851POPC   C4B50542  33.459  32.019   7.365
 3852POPC   NC350543  17.085  44.241   5.133
 3852POPC   PO450544  16.686  43.748   5.378
 3852POPC   GL150545  16.796  43.979   5.750
 3852POPC   GL250546  17.081  44.164   5.641
 3852POPC   C1A50547  16.774  43.856   6.206
 3852POPC   D2A50548  16.854  43.588   6.594
 3852POPC   C3A50549  16.725  43.812   6.963
 3852POPC   C4A50550  16.532  44.148   7.165
 3852POPC   C1B50551  17.172  44.183   6.080
 3852POPC   C2B50552  17.229  43.955   6.476
 3852POPC   C3B50553  17.308  43.877   6.920
 3852POPC   C4B50554  17.081  43.968   7.295
 3853POPC   NC350555  14.148  36.148   5.449
 3853POPC   PO450556  14.822  36.309   5.558
 3853POPC   GL150557  14.608  36.208   5.964
 3853POPC   GL250558  14.269  36.112   5.928
 3853POPC   C1A50559  14.544  35.848   6.275
 3853POPC   D2A50560  14.771  35.699   6.641
 3853POPC   C3A50561  14.567  35.885   7.007
 3853POPC   C4A50562  14.139  35.835   7.160
 3853POPC   C1B50563  14.172  36.226   6.302
 3853POPC   C2B50564  14.376  36.308   6.696
 3853POPC   C3B50565  14.254  36.335   7.112
 3853POPC   C4B50566  14.166  36.599   7.460
 3854POPC   NC350567  21.950  20.151   5.362
 3854POPC   PO450568  21.361  19.681   5.362
 3854POPC   GL150569  21.510  19.555   5.780
 3854POPC   GL250570  21.589  19.890   5.798
 3854POPC   C1A50571  21.485  19.582   6.243
 3854POPC   D2A50572  21.778  19.503   6.587
 3854POPC   C3A50573  21.644  19.707   6.954
 3854POPC   C4A50574  21.297  19.763   7.236
 3854POPC   C1B50575  21.427  20.098   6.163
 3854POPC   C2B50576  21.591  20.105   6.595
 3854POPC   C3B50577  21.427  20.210   7.000
 3854POPC   C4B50578  21.520  20.202   7.445
 3855POPC   NC350579  28.746  23.932   5.509
 3855POPC   PO450580  28.104  23.994   5.354
 3855POPC   GL150581  28.253  23.896   5.767
 3855POPC   GL250582  28.434  23.583   5.740
 3855POPC   C1A50583  28.193  23.893   6.223
 3855POPC   D2A50584  28.485  23.873   6.577
 3855POPC   C3A50585  28.325  23.707   6.945
 3855POPC   C4A50586  28.264  23.925   7.357
 3855POPC   C1B50587  28.605  23.578   6.151
 3855POPC   C2B50588  28.507  23.349   6.526
 3855POPC   C3B50589  28.699  23.333   6.914
 3855POPC   C4B50590  28.644  23.526   7.300
 3856POPC   NC350591  27.853   4.056   5.504
 3856POPC   PO450592  27.194   4.105   5.533
 3856POPC   GL150593  27.461   4.043   5.860
 3856POPC   GL250594  27.552   4.359   5.875
 3856POPC   C1A50595  27.623   4.080   6.284
 3856POPC   D2A50596  27.735   4.089   6.710
 3856POPC   C3A50597  27.470   4.277   7.054
 3856POPC   C4A50598  27.195   4.178   7.430
 3856POPC   C1B50599  27.849   4.562   6.112
 3856POPC   C2B50600  27.962   4.570   6.525
 3856POPC   C3B50601  28.043   4.740   6.911
 3856POPC   C4B50602  27.817   4.813   7.280
 3857POPC   NC350603  21.758   2.833   5.493
 3857POPC   PO450604  22.468   2.518   5.315
 3857POPC   GL150605  22.238   2.740   5.670
 3857POPC   GL250606  22.058   2.513   5.918
 3857POPC   C1A50607  22.097   3.015   6.039
 3857POPC   D2A50608  21.946   2.869   6.452
 3857POPC   C3A50609  22.193   2.954   6.810
 3857POPC   C4A50610  22.033   3.089   7.204
 3857POPC   C1B50611  21.667   2.533   6.177
 3857POPC   C2B50612  21.490   2.565   6.583
 3857POPC   C3B50613  21.615   2.514   7.004
 3857POPC   C4B50614  22.068   2.481   7.110
 3858POPC   NC350615  41.503  25.328   5.140
 3858POPC   PO450616  41.840  25.028   5.659
 3858POPC   GL150617  41.722  25.400   5.846
 3858POPC   GL250618  41.419  25.413   5.656
 3858POPC   C1A50619  41.841  25.497   6.261
 3858POPC   D2A50620  41.913  25.260   6.643
 3858POPC   C3A50621  41.794  25.404   7.074
 3858POPC   C4A50622  41.659  25.331   7.515
 3858POPC   C1B50623  41.295  25.372   6.109
 3858POPC   C2B50624  41.368  25.233   6.543
 3858POPC   C3B50625  41.277  25.384   6.980
 3858POPC   C4B50626  41.174  25.243   7.394
 3859POPC   NC350627  44.888   9.900   5.306
 3859POPC   PO450628  44.326   9.531   5.326
 3859POPC   GL150629  44.564   9.751   5.705
 3859POPC   GL250630  44.739  10.101   5.770
 3859POPC   C1A50631  44.726   9.683   6.146
 3859POPC   D2A50632  44.738   9.412   6.542
 3859POPC   C3A50633  44.855   9.542   6.973
 3859POPC   C4A50634  44.579   9.468   7.313
 3859POPC   C1B50635  44.997  10.130   6.177
 3859POPC   C2B50636  44.942   9.923   6.597
 3859POPC   C3B50637  44.959  10.046   7.043
 3859POPC   C4B50638  44.964  10.258   7.471
 3860POPC   NC350639  31.771   8.019   5.373
 3860POPC   PO450640  31.165   8.248   5.227
 3860POPC   GL150641  31.450   8.277   5.649
 3860POPC   GL250642  31.622   8.561   5.744
 3860POPC   C1A50643  31.443   8.199   6.128
 3860POPC   D2A50644  31.349   8.324   6.575
 3860POPC   C3A50645  31.441   8.091   6.951
 3860POPC   C4A50646  31.236   7.999   7.312
 3860POPC   C1B50647  31.858   8.490   6.159
 3860POPC   C2B50648  31.871   8.363   6.604
 3860POPC   C3B50649  31.663   8.537   6.981
 3860POPC   C4B50650  31.637   8.326   7.364
 3861POPC   NC350651  33.275  44.191   5.033
 3861POPC   PO450652  32.922  43.819   5.477
 3861POPC   GL150653  32.944  43.976   5.833
 3861POPC   GL250654  32.687  44.225   5.847
 3861POPC   C1A50655  33.196  43.849   6.185
 3861POPC   D2A50656  33.116  43.551   6.541
 3861POPC   C3A50657  33.081  43.808   6.918
 3861POPC   C4A50658  33.145  43.882   7.347
 3861POPC   C1B50659  32.745  44.089   6.278
 3861POPC   C2B50660  32.852  44.185   6.679
 3861POPC   C3B50661  32.653  44.135   7.065
 3861POPC   C4B50662  32.460  43.800   7.214
 3862POPC   NC350663   3.982  18.268   5.456
 3862POPC   PO450664   4.562  18.135   5.724
 3862POPC   GL150665   4.197  18.264   5.975
 3862POPC   GL250666   4.088  18.001   6.188
 3862POPC   C1A50667   4.187  18.462   6.394
 3862POPC   D2A50668   4.387  18.455   6.796
 3862POPC   C3A50669   4.177  18.420   7.192
 3862POPC   C4A50670   3.907  18.244   7.509
 3862POPC   C1B50671   4.495  18.024   6.478
 3862POPC   C2B50672   4.768  18.108   6.881
 3862POPC   C3B50673   4.692  18.438   7.205
 3862POPC   C4B50674   4.468  18.840   7.329
 3863POPC   NC350675  30.353   5.740   5.681
 3863POPC   PO450676  29.654   5.878   5.424
 3863POPC   GL150677  29.825   5.980   5.790
 3863POPC   GL250678  29.833   5.631   5.837
 3863POPC   C1A50679  29.921   5.942   6.237
 3863POPC   D2A50680  30.192   5.939   6.599
 3863POPC   C3A50681  30.011   5.903   7.023
 3863POPC   C4A50682  30.190   6.015   7.426
 3863POPC   C1B50683  29.579   5.541   6.217
 3863POPC   C2B50684  29.723   5.653   6.632
 3863POPC   C3B50685  29.559   5.641   7.050
 3863POPC   C4B50686  29.800   5.676   7.447
 3864POPC   NC350687  35.967  21.025   5.639
 3864POPC   PO450688  36.298  21.519   5.444
 3864POPC   GL150689  36.184  21.429   5.849
 3864POPC   GL250690  36.355  21.101   5.972
 3864POPC   C1A50691  36.068  21.425   6.257
 3864POPC   D2A50692  36.302  21.338   6.590
 3864POPC   C3A50693  35.988  21.472   6.864
 3864POPC   C4A50694  35.976  21.406   7.279
 3864POPC   C1B50695  36.052  20.913   6.268
 3864POPC   C2B50696  35.920  20.986   6.656
 3864POPC   C3B50697  36.178  21.008   6.990
 3864POPC   C4B50698  35.973  20.908   7.342
 3865POPC   NC350699  11.028  24.803   5.178
 3865POPC   PO450700  11.644  24.596   5.231
 3865POPC   GL150701  11.385  24.399   5.632
 3865POPC   GL250702  11.029  24.507   5.737
 3865POPC   C1A50703  11.347  24.238   6.091
 3865POPC   D2A50704  11.278  24.484   6.500
 3865POPC   C3A50705  11.148  24.346   6.914
 3865POPC   C4A50706  11.226  24.493   7.325
 3865POPC   C1B50707  10.867  24.488   6.197
 3865POPC   C2B50708  10.744  24.586   6.670
 3865POPC   C3B50709  10.855  24.763   7.113
 3865POPC   C4B50710  10.801  24.595   7.568
 3866POPC   NC350711  25.550   0.596   5.414
 3866POPC   PO450712  26.160   0.329   5.077
 3866POPC   GL150713  26.044   0.359   5.569
 3866POPC   GL250714  25.981   0.714   5.696
 3866POPC   C1A50715  26.158   0.322   6.057
 3866POPC   D2A50716  26.373   0.394   6.486
 3866POPC   C3A50717  26.163   0.350   6.891
 3866POPC   C4A50718  26.160   0.023   7.198
 3866POPC   C1B50719  25.707   0.594   6.067
 3866POPC   C2B50720  25.850   0.506   6.488
 3866POPC   C3B50721  25.760   0.712   6.885
 3866POPC   C4B50722  25.728   0.927   7.282
 3867POPC   NC350723  34.645  31.392   5.455
 3867POPC   PO450724  34.297  31.926   5.313
 3867POPC   GL150725  34.379  31.706   5.726
 3867POPC   GL250726  34.222  31.371   5.861
 3867POPC   C1A50727  34.596  31.561   6.135
 3867POPC   D2A50728  34.506  31.376   6.529
 3867POPC   C3A50729  34.731  31.530   6.875
 3867POPC   C4A50730  34.463  31.631   7.209
 3867POPC   C1B50731  34.548  31.052   6.075
 3867POPC   C2B50732  34.768  30.945   6.502
 3867POPC   C3B50733  34.618  30.983   6.959
 3867POPC   C4B50734  34.751  31.222   7.311
 3868POPC   NC350735  15.712  14.166   5.460
 3868POPC   PO450736  16.143  14.715   5.249
 3868POPC   GL150737  15.974  14.538   5.678
 3868POPC   GL250738  16.084  14.175   5.806
 3868POPC   C1A50739  15.861  14.623   6.121
 3868POPC   D2A50740  15.715  14.806   6.531
 3868POPC   C3A50741  15.881  14.686   6.940
 3868POPC   C4A50742  15.759  14.513   7.352
 3868POPC   C1B50743  15.793  14.106   6.171
 3868POPC   C2B50744  15.799  14.278   6.616
 3868POPC   C3B50745  16.108  14.204   6.974
 3868POPC   C4B50746  16.291  14.068   7.409
 3869POPC   NC350747  21.258  10.913   5.374
 3869POPC   PO450748  21.233  11.582   5.248
 3869POPC   GL150749  21.161  11.402   5.691
 3869POPC   GL250750  21.322  11.099   5.868
 3869POPC   C1A50751  21.083  11.483   6.160
 3869POPC   D2A50752  21.294  11.342   6.546
 3869POPC   C3A50753  21.236  11.545   6.948
 3869POPC   C4A50754  21.495  11.422   7.294
 3869POPC   C1B50755  21.603  10.915   6.231
 3869POPC   C2B50756  21.616  10.918   6.675
 3869POPC   C3B50757  21.462  10.931   7.096
 3869POPC   C4B50758  21.540  10.686   7.468
 3870POPC   NC350759  37.062   2.336   5.366
 3870POPC   PO450760  36.694   1.701   5.345
 3870POPC   GL150761  36.890   1.895   5.684
 3870POPC   GL250762  36.674   2.180   5.679
 3870POPC   C1A50763  37.075   1.918   6.094
 3870POPC   D2A50764  37.111   2.229   6.405
 3870POPC   C3A50765  37.059   2.074   6.797
 3870POPC   C4A50766  37.031   2.090   7.233
 3870POPC   C1B50767  36.669   2.245   6.115
 3870POPC   C2B50768  36.597   2.133   6.543
 3870POPC   C3B50769  36.616   2.263   6.986
 3870POPC   C4B50770  36.432   1.912   7.185
 3871POPC   NC350771  21.451  17.235   5.120
 3871POPC   PO450772  21.468  17.703   5.460
 3871POPC   GL150773  21.358  17.556   5.826
 3871POPC   GL250774  21.470  17.247   5.761
 3871POPC   C1A50775  21.502  17.574   6.239
 3871POPC   D2A50776  21.809  17.618   6.552
 3871POPC   C3A50777  21.598  17.733   6.922
 3871POPC   C4A50778  21.468  17.557   7.287
 3871POPC   C1B50779  21.168  17.195   6.147
 3871POPC   C2B50780  21.138  17.423   6.581
 3871POPC   C3B50781  21.170  17.233   7.007
 3871POPC   C4B50782  21.434  17.065   7.348
 3872POPC   NC350783   7.584  20.687   5.167
 3872POPC   PO450784   8.197  20.874   5.434
 3872POPC   GL150785   8.471  21.031   5.771
 3872POPC   GL250786   8.170  21.104   5.938
 3872POPC   C1A50787   8.695  20.891   6.175
 3872POPC   D2A50788   8.605  20.625   6.583
 3872POPC   C3A50789   8.358  20.834   6.920
 3872POPC   C4A50790   8.251  20.750   7.349
 3872POPC   C1B50791   8.205  20.857   6.349
 3872POPC   C2B50792   8.097  20.492   6.651
 3872POPC   C3B50793   7.993  20.384   7.104
 3872POPC   C4B50794   8.001  20.374   7.592
 3873POPC   NC350795   3.670  21.026   5.473
 3873POPC   PO450796   3.415  20.297   5.458
 3873POPC   GL150797   3.682  20.401   5.790
 3873POPC   GL250798   3.531  20.722   5.861
 3873POPC   C1A50799   3.741  20.446   6.230
 3873POPC   D2A50800   3.512  20.399   6.596
 3873POPC   C3A50801   3.616  20.477   7.010
 3873POPC   C4A50802   3.311  20.405   7.338
 3873POPC   C1B50803   3.627  20.926   6.265
 3873POPC   C2B50804   3.522  20.933   6.692
 3873POPC   C3B50805   3.371  20.928   7.095
 3873POPC   C4B50806   3.334  21.215   7.469
 3874POPC   NC350807   6.908  44.798   5.400
 3874POPC   PO450808   6.415  44.419   5.357
 3874POPC   GL150809   6.635  44.536   5.770
 3874POPC   GL250810   6.967  44.411   5.773
 3874POPC   C1A50811   6.632  44.474   6.240
 3874POPC   D2A50812   6.414  44.177   6.522
 3874POPC   C3A50813   6.514  44.250   6.936
 3874POPC   C4A50814   6.651  44.618   7.167
 3874POPC   C1B50815   7.085  44.690   6.119
 3874POPC   C2B50816   6.979  44.866   6.525
 3874POPC   C3B50817   7.148  44.782   6.934
 3874POPC   C4B50818   7.155  44.665   7.380
 3875POPC   NC350819  27.836   7.019   5.437
 3875POPC   PO450820  27.651   7.684   5.534
 3875POPC   GL150821  27.704   7.377   5.898
 3875POPC   GL250822  28.047   7.230   5.851
 3875POPC   C1A50823  27.561   7.367   6.377
 3875POPC   D2A50824  27.206   7.470   6.700
 3875POPC   C3A50825  27.300   7.403   7.144
 3875POPC   C4A50826  27.522   7.086   7.046
 3875POPC   C1B50827  28.110   7.563   6.155
 3875POPC   C2B50828  28.107   7.411   6.558
 3875POPC   C3B50829  27.800   7.471   6.859
 3875POPC   C4B50830  27.829   7.453   7.293
 3876POPC   NC350831  21.134  35.351   5.431
 3876POPC   PO450832  21.790  35.204   5.338
 3876POPC   GL150833  21.462  35.216   5.798
 3876POPC   GL250834  21.124  35.203   5.918
 3876POPC   C1A50835  21.523  35.345   6.243
 3876POPC   D2A50836  21.875  35.402   6.552
 3876POPC   C3A50837  21.730  35.371   6.998
 3876POPC   C4A50838  21.524  35.298   7.397
 3876POPC   C1B50839  21.001  35.011   6.293
 3876POPC   C2B50840  21.169  35.204   6.648
 3876POPC   C3B50841  21.166  35.413   7.041
 3876POPC   C4B50842  20.767  35.374   7.177
 3877POPC   NC350843  44.034  30.288   5.244
 3877POPC   PO450844  43.846  29.666   5.374
 3877POPC   GL150845  43.804  29.857   5.773
 3877POPC   GL250846  44.095  30.030   5.721
 3877POPC   C1A50847  43.918  29.722   6.203
 3877POPC   D2A50848  44.123  29.843   6.582
 3877POPC   C3A50849  43.962  29.668   6.952
 3877POPC   C4A50850  44.133  29.796   7.319
 3877POPC   C1B50851  44.045  30.201   6.133
 3877POPC   C2B50852  43.837  30.254   6.541
 3877POPC   C3B50853  43.879  30.193   6.986
 3877POPC   C4B50854  44.210  30.350   7.233
 3878POPC   NC350855  42.033  41.702   5.389
 3878POPC   PO450856  42.651  41.396   5.281
 3878POPC   GL150857  42.667  41.542   5.768
 3878POPC   GL250858  42.454  41.827   5.902
 3878POPC   C1A50859  42.588  41.403   6.219
 3878POPC   D2A50860  42.598  41.566   6.678
 3878POPC   C3A50861  42.560  41.298   7.050
 3878POPC   C4A50862  42.261  41.495   7.337
 3878POPC   C1B50863  42.271  41.808   6.331
 3878POPC   C2B50864  42.182  41.858   6.792
 3878POPC   C3B50865  42.156  42.008   7.227
 3878POPC   C4B50866  42.129  41.874   7.653
 3879POPC   NC350867  39.939  44.182   5.377
 3879POPC   PO450868  39.989  44.869   5.354
 3879POPC   GL150869  39.970  44.673   5.757
 3879POPC   GL250870  39.671  44.481   5.729
 3879POPC   C1A50871  40.035  44.637   6.229
 3879POPC   D2A50872  40.267  44.611   6.632
 3879POPC   C3A50873  40.130  44.672   7.074
 3879POPC   C4A50874  40.134  44.542   7.513
 3879POPC   C1B50875  39.613  44.348   6.160
 3879POPC   C2B50876  39.510  44.325   6.604
 3879POPC   C3B50877  39.621  44.597   6.962
 3879POPC   C4B50878  39.621  44.467   7.373
 3880POPC   NC350879  33.159  12.498   5.406
 3880POPC   PO450880  32.645  12.989   5.474
 3880POPC   GL150881  32.886  12.841   5.811
 3880POPC   GL250882  33.046  13.184   5.781
 3880POPC   C1A50883  33.200  12.855   6.176
 3880POPC   D2A50884  33.436  12.876   6.596
 3880POPC   C3A50885  33.239  12.685   6.964
 3880POPC   C4A50886  33.020  12.772   7.363
 3880POPC   C1B50887  32.894  13.290   6.188
 3880POPC   C2B50888  32.998  13.132   6.591
 3880POPC   C3B50889  32.796  13.026   6.969
 3880POPC   C4B50890  32.779  13.226   7.354
 3881POPC   NC350891   8.919  30.156   5.241
 3881POPC   PO450892   8.970  29.535   5.380
 3881POPC   GL150893   9.005  29.800   5.740
 3881POPC   GL250894   9.234  29.578   5.882
 3881POPC   C1A50895   8.842  30.051   6.136
 3881POPC   D2A50896   8.844  29.916   6.588
 3881POPC   C3A50897   8.866  30.086   7.030
 3881POPC   C4A50898   8.879  29.820   7.427
 3881POPC   C1B50899   9.255  29.756   6.285
 3881POPC   C2B50900   9.305  29.693   6.699
 3881POPC   C3B50901   9.287  29.777   7.126
 3881POPC   C4B50902   9.395  29.815   7.564
 3882POPC   NC350903  18.687  11.406   5.582
 3882POPC   PO450904  19.262  11.126   5.388
 3882POPC   GL150905  19.292  11.191   5.817
 3882POPC   GL250906  19.360  11.537   5.709
 3882POPC   C1A50907  19.138  11.123   6.262
 3882POPC   D2A50908  19.100  11.185   6.722
 3882POPC   C3A50909  19.198  10.919   7.087
 3882POPC   C4A50910  19.142  10.929   7.563
 3882POPC   C1B50911  19.212  11.623   6.141
 3882POPC   C2B50912  19.098  11.699   6.602
 3882POPC   C3B50913  18.928  11.561   7.021
 3882POPC   C4B50914  19.206  11.381   7.309
 3883POPC   NC350915   2.975  10.329   5.305
 3883POPC   PO450916   2.424  10.600   5.464
 3883POPC   GL150917   2.672  10.413   5.749
 3883POPC   GL250918   2.876  10.692   5.858
 3883POPC   C1A50919   2.637  10.361   6.180
 3883POPC   D2A50920   2.460  10.592   6.505
 3883POPC   C3A50921   2.566  10.413   6.893
 3883POPC   C4A50922   2.735  10.316   7.297
 3883POPC   C1B50923   2.971  10.924   6.237
 3883POPC   C2B50924   2.935  10.763   6.642
 3883POPC   C3B50925   2.883  10.781   7.089
 3883POPC   C4B50926   2.961  10.757   7.490
 3884POPC   NC350927  18.782  23.953   5.416
 3884POPC   PO450928  19.313  23.504   5.348
 3884POPC   GL150929  18.928  23.507   5.631
 3884POPC   GL250930  19.061  23.793   5.823
 3884POPC   C1A50931  18.724  23.513   6.063
 3884POPC   D2A50932  18.937  23.663   6.450
 3884POPC   C3A50933  18.810  23.491   6.851
 3884POPC   C4A50934  18.588  23.697   7.201
 3884POPC   C1B50935  19.291  23.952   6.211
 3884POPC   C2B50936  19.338  23.945   6.656
 3884POPC   C3B50937  18.993  23.952   6.998
 3884POPC   C4B50938  18.977  23.851   7.487
 3885POPC   NC350939   3.335   1.188   5.364
 3885POPC   PO450940   3.955   0.849   5.343
 3885POPC   GL150941   3.679   0.982   5.712
 3885POPC   GL250942   3.635   1.344   5.746
 3885POPC   C1A50943   3.481   1.058   6.156
 3885POPC   D2A50944   3.535   1.258   6.592
 3885POPC   C3A50945   3.496   1.017   7.000
 3885POPC   C4A50946   3.437   1.059   7.467
 3885POPC   C1B50947   3.757   1.494   6.140
 3885POPC   C2B50948   3.988   1.531   6.516
 3885POPC   C3B50949   4.031   1.735   6.922
 3885POPC   C4B50950   3.979   1.716   7.369
 3886POPC   NC350951  16.691  34.675   5.229
 3886POPC   PO450952  16.355  34.880   5.735
 3886POPC   GL150953  16.583  34.576   5.924
 3886POPC   GL250954  16.863  34.388   5.772
 3886POPC   C1A50955  16.757  34.709   6.325
 3886POPC   D2A50956  16.972  34.764   6.714
 3886POPC   C3A50957  16.655  34.684   7.017
 3886POPC   C4A50958  16.374  34.498   7.331
 3886POPC   C1B50959  17.100  34.389   6.164
 3886POPC   C2B50960  17.051  34.259   6.596
 3886POPC   C3B50961  16.866  34.226   7.014
 3886POPC   C4B50962  16.855  34.436   7.451
 3887POPC   NC350963   4.050  43.297   5.036
 3887POPC   PO450964   4.510  43.074   5.541
 3887POPC   GL150965   4.348  43.027   5.908
 3887POPC   GL250966   4.134  43.297   5.853
 3887POPC   C1A50967   4.448  42.850   6.299
 3887POPC   D2A50968   4.431  42.797   6.752
 3887POPC   C3A50969   4.650  43.064   7.046
 3887POPC   C4A50970   4.532  43.201   7.466
 3887POPC   C1B50971   4.046  43.223   6.282
 3887POPC   C2B50972   4.211  43.325   6.676
 3887POPC   C3B50973   4.131  43.131   7.051
 3887POPC   C4B50974   4.274  42.761   7.262
 3888POPC   NC350975  36.517  29.106   5.463
 3888POPC   PO450976  35.781  28.968   5.397
 3888POPC   GL150977  35.831  29.108   5.817
 3888POPC   GL250978  36.181  29.193   5.822
 3888POPC   C1A50979  35.903  29.429   6.152
 3888POPC   D2A50980  36.021  29.410   6.581
 3888POPC   C3A50981  35.907  29.141   6.897
 3888POPC   C4A50982  36.149  28.962   7.185
 3888POPC   C1B50983  36.241  29.036   6.258
 3888POPC   C2B50984  36.362  28.955   6.680
 3888POPC   C3B50985  36.485  28.632   6.942
 3888POPC   C4B50986  36.383  28.549   7.323
 3889POPC   NC350987  31.036  10.955   5.561
 3889POPC   PO450988  30.754  11.520   5.246
 3889POPC   GL150989  30.913  11.414   5.687
 3889POPC   GL250990  30.921  11.587   5.956
 3889POPC   C1A50991  30.841  11.133   6.125
 3889POPC   D2A50992  30.632  10.980   6.467
 3889POPC   C3A50993  30.911  10.933   6.792
 3889POPC   C4A50994  30.704  11.019   7.157
 3889POPC   C1B50995  30.770  11.577   6.371
 3889POPC   C2B50996  30.689  11.404   6.767
 3889POPC   C3B50997  30.863  11.501   7.156
 3889POPC   C4B50998  30.720  11.697   7.512
 3890POPC   NC350999  10.241  16.719   5.413
 3890POPC   PO451000  10.925  16.805   5.411
 3890POPC   GL151001  10.599  16.822   5.780
 3890POPC   GL251002  10.269  17.037   5.821
 3890POPC   C1A51003  10.558  16.675   6.208
 3890POPC   D2A51004  10.797  16.841   6.567
 3890POPC   C3A51005  10.647  16.659   6.960
 3890POPC   C4A51006  10.706  16.742   7.399
 3890POPC   C1B51007  10.422  17.172   6.252
 3890POPC   C2B51008  10.355  17.033   6.688
 3890POPC   C3B51009  10.454  17.110   7.130
 3890POPC   C4B51010  10.164  17.004   7.501
 3891POPC   NC351011  32.659   8.230   5.295
 3891POPC   PO451012  32.016   8.432   5.414
 3891POPC   GL151013  32.043   8.213   5.773
 3891POPC   GL251014  32.204   7.901   5.718
 3891POPC   C1A51015  32.289   8.150   6.163
 3891POPC   D2A51016  32.324   7.929   6.546
 3891POPC   C3A51017  32.466   8.143   6.909
 3891POPC   C4A51018  32.102   8.316   7.109
 3891POPC   C1B51019  31.894   7.827   6.072
 3891POPC   C2B51020  31.716   7.872   6.482
 3891POPC   C3B51021  31.914   7.910   6.880
 3891POPC   C4B51022  31.769   7.783   7.281
 3892POPC   NC351023  37.589  20.172   5.418
 3892POPC   PO451024  37.666  20.814   5.371
 3892POPC   GL151025  37.601  20.565   5.773
 3892POPC   GL251026  37.888  20.323   5.809
 3892POPC   C1A51027  37.668  20.668   6.221
 3892POPC   D2A51028  37.807  20.935   6.576
 3892POPC   C3A51029  37.661  20.789   6.968
 3892POPC   C4A51030  37.713  20.764   7.399
 3892POPC   C1B51031  38.093  20.371   6.204
 3892POPC   C2B51032  37.926  20.435   6.616
 3892POPC   C3B51033  38.028  20.435   7.027
 3892POPC   C4B51034  38.085  20.091   7.246
 3893POPC   NC351035   1.621  30.733   5.380
 3893POPC   PO451036   2.272  30.910   5.329
 3893POPC   GL151037   2.145  30.858   5.745
 3893POPC   GL251038   2.372  31.125   5.848
 3893POPC   C1A51039   1.944  30.608   6.095
 3893POPC   D2A51040   2.125  30.436   6.485
 3893POPC   C3A51041   2.002  30.566   6.899
 3893POPC   C4A51042   1.781  30.658   7.293
 3893POPC   C1B51043   2.372  31.024   6.279
 3893POPC   C2B51044   2.383  30.854   6.681
 3893POPC   C3B51045   2.340  30.943   7.092
 3893POPC   C4B51046   2.281  30.614   7.352
 3894POPC   NC351047  28.785  10.767   5.605
 3894POPC   PO451048  29.325  10.336   5.464
 3894POPC   GL151049  29.078  10.390   5.844
 3894POPC   GL251050  29.119  10.741   5.979
 3894POPC   C1A51051  29.183  10.337   6.280
 3894POPC   D2A51052  29.260  10.638   6.593
 3894POPC   C3A51053  29.436  10.567   7.019
 3894POPC   C4A51054  29.223  10.438   7.434
 3894POPC   C1B51055  28.743  10.843   6.259
 3894POPC   C2B51056  28.815  10.950   6.685
 3894POPC   C3B51057  28.967  10.774   7.074
 3894POPC   C4B51058  28.763  10.691   7.473
 3895POPC   NC351059  35.197  40.130   5.318
 3895POPC   PO451060  35.442  39.579   5.559
 3895POPC   GL151061  35.332  39.911   5.805
 3895POPC   GL251062  35.572  40.174   5.688
 3895POPC   C1A51063  35.292  39.854   6.252
 3895POPC   D2A51064  35.127  40.140   6.559
 3895POPC   C3A51065  35.124  39.956   6.980
 3895POPC   C4A51066  35.258  40.045   7.399
 3895POPC   C1B51067  35.503  40.305   6.136
 3895POPC   C2B51068  35.637  40.281   6.586
 3895POPC   C3B51069  35.592  40.288   7.046
 3895POPC   C4B51070  35.784  40.028   7.350
 3896POPC   NC351071  36.512  39.805   5.492
 3896POPC   PO451072  37.102  39.865   5.265
 3896POPC   GL151073  37.051  40.079   5.703
 3896POPC   GL251074  36.708  40.130   5.828
 3896POPC   C1A51075  37.123  40.126   6.176
 3896POPC   D2A51076  36.942  40.306   6.528
 3896POPC   C3A51077  37.141  40.144   6.905
 3896POPC   C4A51078  37.221  40.093   7.326
 3896POPC   C1B51079  36.632  39.984   6.241
 3896POPC   C2B51080  36.824  39.823   6.618
 3896POPC   C3B51081  36.635  40.135   6.902
 3896POPC   C4B51082  36.740  40.247   7.286
 3897POPC   NC351083  30.804  43.786   5.202
 3897POPC   PO451084  30.734  44.347   5.637
 3897POPC   GL151085  30.668  44.056   5.944
 3897POPC   GL251086  30.722  43.788   5.720
 3897POPC   C1A51087  30.564  44.009   6.350
 3897POPC   D2A51088  30.728  44.063   6.737
 3897POPC   C3A51089  30.412  44.101   7.049
 3897POPC   C4A51090  30.454  43.930   7.449
 3897POPC   C1B51091  30.927  43.653   6.107
 3897POPC   C2B51092  30.761  43.555   6.514
 3897POPC   C3B51093  30.735  43.591   6.958
 3897POPC   C4B51094  31.066  43.568   7.261
 3898POPC   NC351095  36.913   4.145   5.273
 3898POPC   PO451096  36.594   4.722   5.554
 3898POPC   GL151097  36.761   4.459   5.891
 3898POPC   GL251098  36.805   4.118   5.778
 3898POPC   C1A51099  36.855   4.437   6.319
 3898POPC   D2A51100  36.964   4.657   6.725
 3898POPC   C3A51101  37.198   4.383   7.044
 3898POPC   C4A51102  37.132   4.183   7.476
 3898POPC   C1B51103  36.486   4.058   6.125
 3898POPC   C2B51104  36.437   3.814   6.540
 3898POPC   C3B51105  36.476   3.999   6.977
 3898POPC   C4B51106  36.679   4.365   7.084
 3899POPC   NC351107  34.821  43.973   5.205
 3899POPC   PO451108  34.353  43.504   5.407
 3899POPC   GL151109  34.560  43.693   5.740
 3899POPC   GL251110  34.556  44.059   5.745
 3899POPC   C1A51111  34.797  43.623   6.136
 3899POPC   D2A51112  34.557  43.593   6.527
 3899POPC   C3A51113  34.692  43.775   6.918
 3899POPC   C4A51114  34.756  43.635   7.322
 3899POPC   C1B51115  34.408  43.952   6.161
 3899POPC   C2B51116  34.506  44.107   6.555
 3899POPC   C3B51117  34.308  44.107   6.930
 3899POPC   C4B51118  34.260  43.847   7.275
 3900POPC   NC351119  27.489  13.059   5.405
 3900POPC   PO451120  27.865  12.574   5.471
 3900POPC   GL151121  27.708  12.724   5.887
 3900POPC   GL251122  27.395  12.859   5.847
 3900POPC   C1A51123  27.596  12.804   6.348
 3900POPC   D2A51124  27.393  13.077   6.688
 3900POPC   C3A51125  27.575  12.953   7.085
 3900POPC   C4A51126  28.005  12.779   7.187
 3900POPC   C1B51127  27.173  13.028   6.166
 3900POPC   C2B51128  27.047  12.763   6.492
 3900POPC   C3B51129  27.177  12.591   6.883
 3900POPC   C4B51130  27.512  12.431   7.140
 3901POPC   NC351131  29.921  22.691   5.475
 3901POPC   PO451132  30.559  22.919   5.538
 3901POPC   GL151133  30.271  23.003   5.904
 3901POPC   GL251134  30.110  22.692   5.956
 3901POPC   C1A51135  30.094  23.100   6.356
 3901POPC   D2A51136  29.848  23.335   6.721
 3901POPC   C3A51137  29.988  23.481   7.160
 3901POPC   C4A51138  30.037  23.559   7.654
 3901POPC   C1B51139  29.702  22.890   6.097
 3901POPC   C2B51140  29.498  22.843   6.500
 3901POPC   C3B51141  29.588  22.569   6.867
 3901POPC   C4B51142  29.753  22.693   7.273
 3902POPC   NC351143  11.280   5.203   5.420
 3902POPC   PO451144  11.635   4.648   5.454
 3902POPC   GL151145  11.396   4.862   5.777
 3902POPC   GL251146  11.035   4.829   5.645
 3902POPC   C1A51147  11.336   5.120   6.148
 3902POPC   D2A51148  11.191   5.312   6.546
 3902POPC   C3A51149  11.452   5.273   6.911
 3902POPC   C4A51150  11.431   4.928   7.185
 3902POPC   C1B51151  10.892   4.853   6.046
 3902POPC   C2B51152  10.834   4.851   6.475
 3902POPC   C3B51153  10.999   4.940   6.866
 3902POPC   C4B51154  10.913   4.802   7.281
 3903POPC   NC351155  13.286  36.370   5.688
 3903POPC   PO451156  13.701  36.004   5.351
 3903POPC   GL151157  13.626  35.981   5.809
 3903POPC   GL251158  13.776  36.302   5.910
 3903POPC   C1A51159  13.657  36.010   6.295
 3903POPC   D2A51160  13.946  35.962   6.673
 3903POPC   C3A51161  13.769  36.172   7.034
 3903POPC   C4A51162  13.428  36.056   7.238
 3903POPC   C1B51163  13.470  36.485   6.289
 3903POPC   C2B51164  13.263  36.480   6.713
 3903POPC   C3B51165  13.330  36.553   7.158
 3903POPC   C4B51166  13.638  36.460   7.501
 3904POPC   NC351167  40.428  33.764   5.478
 3904POPC   PO451168  40.919  34.192   5.740
 3904POPC   GL151169  40.726  33.817   5.876
 3904POPC   GL251170  40.426  34.025   5.943
 3904POPC   C1A51171  40.516  33.563   6.212
 3904POPC   D2A51172  40.318  33.664   6.635
 3904POPC   C3A51173  40.544  33.693   7.050
 3904POPC   C4A51174  40.960  33.707   7.287
 3904POPC   C1B51175  40.716  34.031   6.335
 3904POPC   C2B51176  40.743  34.097   6.769
 3904POPC   C3B51177  40.588  34.241   7.154
 3904POPC   C4B51178  40.637  34.095   7.557
 3905POPC   NC351179   0.289  18.434   5.361
 3905POPC   PO451180   0.841  18.110   5.636
 3905POPC   GL151181   0.634  18.486   5.776
 3905POPC   GL251182   0.270  18.485   5.876
 3905POPC   C1A51183   0.626  18.720   6.171
 3905POPC   D2A51184   0.434  18.692   6.584
 3905POPC   C3A51185   0.594  18.512   6.984
 3905POPC   C4A51186   0.774  18.139   7.171
 3905POPC   C1B51187   0.435  18.224   6.213
 3905POPC   C2B51188   0.426  17.928   6.575
 3905POPC   C3B51189   0.310  18.054   6.981
 3905POPC   C4B51190  44.959  18.293   7.096
 3906POPC   NC351191   0.498  38.191   5.075
 3906POPC   PO451192   0.122  37.766   5.437
 3906POPC   GL151193   0.499  37.697   5.713
 3906POPC   GL251194   0.769  37.425   5.742
 3906POPC   C1A51195   0.448  37.628   6.138
 3906POPC   D2A51196   0.182  37.686   6.480
 3906POPC   C3A51197   0.474  37.871   6.795
 3906POPC   C4A51198   0.659  38.068   7.185
 3906POPC   C1B51199   0.762  37.226   6.166
 3906POPC   C2B51200   0.547  37.337   6.577
 3906POPC   C3B51201   0.730  37.476   7.008
 3906POPC   C4B51202   0.787  37.573   7.452
 3907POPC   NC351203  36.602  41.263   5.424
 3907POPC   PO451204  37.264  41.652   5.323
 3907POPC   GL151205  37.054  41.515   5.709
 3907POPC   GL251206  36.704  41.599   5.812
 3907POPC   C1A51207  37.123  41.631   6.157
 3907POPC   D2A51208  36.908  41.563   6.541
 3907POPC   C3A51209  37.152  41.605   6.925
 3907POPC   C4A51210  36.936  41.566   7.324
 3907POPC   C1B51211  36.766  41.233   6.126
 3907POPC   C2B51212  36.824  41.055   6.563
 3907POPC   C3B51213  36.708  41.291   6.928
 3907POPC   C4B51214  36.527  41.253   7.321
 3908POPC   NC351215  25.798  26.562   5.556
 3908POPC   PO451216  26.215  27.047   5.295
 3908POPC   GL151217  26.107  26.981   5.734
 3908POPC   GL251218  26.394  27.133   5.853
 3908POPC   C1A51219  25.909  26.846   6.146
 3908POPC   D2A51220  25.815  27.065   6.530
 3908POPC   C3A51221  25.855  26.883   6.955
 3908POPC   C4A51222  26.021  27.034   7.317
 3908POPC   C1B51223  26.347  27.055   6.308
 3908POPC   C2B51224  26.304  27.037   6.761
 3908POPC   C3B51225  26.501  26.932   7.156
 3908POPC   C4B51226  26.444  26.895   7.600
 3909POPC   NC351227   6.890   8.203   5.356
 3909POPC   PO451228   6.331   7.872   5.350
 3909POPC   GL151229   6.548   8.057   5.762
 3909POPC   GL251230   6.761   8.400   5.804
 3909POPC   C1A51231   6.678   8.060   6.211
 3909POPC   D2A51232   6.811   8.284   6.598
 3909POPC   C3A51233   6.795   8.037   6.960
 3909POPC   C4A51234   6.381   7.977   7.131
 3909POPC   C1B51235   6.715   8.612   6.207
 3909POPC   C2B51236   6.464   8.751   6.604
 3909POPC   C3B51237   6.365   8.574   7.041
 3909POPC   C4B51238   6.658   8.370   7.334
 3910POPC   NC351239  10.460   9.264   5.421
 3910POPC   PO451240  10.935   8.790   5.442
 3910POPC   GL151241  10.575   8.873   5.777
 3910POPC   GL251242  10.459   9.212   5.913
 3910POPC   C1A51243  10.310   8.805   6.170
 3910POPC   D2A51244  10.133   8.988   6.550
 3910POPC   C3A51245  10.288   8.881   6.983
 3910POPC   C4A51246  10.345   9.136   7.381
 3910POPC   C1B51247  10.707   9.104   6.245
 3910POPC   C2B51248  10.665   8.959   6.632
 3910POPC   C3B51249  10.691   9.187   6.989
 3910POPC   C4B51250  10.999   9.227   7.262
 3911POPC   NC351251  42.112   0.839   5.416
 3911POPC   PO451252  42.390   0.266   5.466
 3911POPC   GL151253  42.254   0.448   5.833
 3911POPC   GL251254  42.480   0.721   5.908
 3911POPC   C1A51255  42.393   0.241   6.232
 3911POPC   D2A51256  42.607   0.338   6.609
 3911POPC   C3A51257  42.392   0.270   7.017
 3911POPC   C4A51258  42.360   0.376   7.470
 3911POPC   C1B51259  42.170   0.684   6.273
 3911POPC   C2B51260  42.153   0.566   6.680
 3911POPC   C3B51261  42.091   0.671   7.123
 3911POPC   C4B51262  41.905   0.627   7.493
 3912POPC   NC351263   6.005  26.088   5.364
 3912POPC   PO451264   5.500  25.574   5.212
 3912POPC   GL151265   5.763  25.786   5.691
 3912POPC   GL251266   6.055  25.974   5.843
 3912POPC   C1A51267   5.709  25.982   6.188
 3912POPC   D2A51268   5.697  25.904   6.662
 3912POPC   C3A51269   5.760  26.126   7.089
 3912POPC   C4A51270   5.798  26.211   7.577
 3912POPC   C1B51271   6.248  26.022   6.239
 3912POPC   C2B51272   6.170  26.136   6.675
 3912POPC   C3B51273   6.256  26.196   7.120
 3912POPC   C4B51274   6.214  25.934   7.496
 3913POPC   NC351275   1.020  15.378   5.433
 3913POPC   PO451276   1.647  15.107   5.316
 3913POPC   GL151277   1.363  15.112   5.680
 3913POPC   GL251278   1.473  15.456   5.740
 3913POPC   C1A51279   1.080  14.948   6.023
 3913POPC   D2A51280   1.068  15.050   6.466
 3913POPC   C3A51281   0.845  15.020   6.855
 3913POPC   C4A51282   1.182  15.031   7.173
 3913POPC   C1B51283   1.478  15.309   6.165
 3913POPC   C2B51284   1.293  15.495   6.526
 3913POPC   C3B51285   1.101  15.471   6.916
 3913POPC   C4B51286   1.224  15.542   7.319
 3914POPC   NC351287  37.934  27.846   5.334
 3914POPC   PO451288  37.562  27.282   5.217
 3914POPC   GL151289  37.741  27.456   5.645
 3914POPC   GL251290  37.481  27.445   5.934
 3914POPC   C1A51291  37.963  27.406   6.075
 3914POPC   D2A51292  37.807  27.308   6.510
 3914POPC   C3A51293  37.731  27.567   6.880
 3914POPC   C4A51294  37.829  27.464   7.297
 3914POPC   C1B51295  37.534  27.761   6.337
 3914POPC   C2B51296  37.661  28.081   6.719
 3914POPC   C3B51297  37.678  27.993   7.217
 3914POPC   C4B51298  37.434  28.016   7.636
 3915POPC   NC351299  24.778   5.383   5.511
 3915POPC   PO451300  24.235   4.879   5.397
 3915POPC   GL151301  24.447   4.987   5.778
 3915POPC   GL251302  24.817   4.948   5.798
 3915POPC   C1A51303  24.412   4.860   6.223
 3915POPC   D2A51304  24.512   5.101   6.585
 3915POPC   C3A51305  24.341   4.927   6.921
 3915POPC   C4A51306  24.410   4.718   7.272
 3915POPC   C1B51307  24.742   5.231   6.136
 3915POPC   C2B51308  24.817   5.523   6.455
 3915POPC   C3B51309  24.859   5.404   6.883
 3915POPC   C4B51310  24.809   5.006   7.101
 3916POPC   NC351311  33.096   3.811   5.363
 3916POPC   PO451312  33.338   3.196   5.521
 3916POPC   GL151313  32.876   3.241   5.695
 3916POPC   GL251314  32.744   3.588   5.733
 3916POPC   C1A51315  32.830   3.347   6.160
 3916POPC   D2A51316  33.220   3.521   6.387
 3916POPC   C3A51317  33.285   3.538   6.846
 3916POPC   C4A51318  32.966   3.574   7.159
 3916POPC   C1B51319  32.724   3.844   6.188
 3916POPC   C2B51320  33.018   3.991   6.528
 3916POPC   C3B51321  33.116   4.050   6.966
 3916POPC   C4B51322  33.376   3.862   7.255
 3917POPC   NC351323  44.617   4.943   5.359
 3917POPC   PO451324  44.538   5.566   5.541
 3917POPC   GL151325  44.606   5.210   5.798
 3917POPC   GL251326  44.883   4.939   5.805
 3917POPC   C1A51327  44.517   5.005   6.184
 3917POPC   D2A51328  44.382   5.056   6.591
 3917POPC   C3A51329  44.568   4.946   6.942
 3917POPC   C4A51330  44.263   4.864   7.254
 3917POPC   C1B51331  44.960   5.260   6.148
 3917POPC   C2B51332  44.889   5.262   6.592
 3917POPC   C3B51333   0.104   5.157   6.985
 3917POPC   C4B51334   0.047   4.878   7.327
 3918POPC   NC351335  28.041   0.665   5.481
 3918POPC   PO451336  28.673   0.491   5.391
 3918POPC   GL151337  28.439   0.671   5.789
 3918POPC   GL251338  28.202   0.360   5.847
 3918POPC   C1A51339  28.293   0.626   6.245
 3918POPC   D2A51340  28.407   0.334   6.589
 3918POPC   C3A51341  28.357   0.580   6.959
 3918POPC   C4A51342  28.051   0.747   7.223
 3918POPC   C1B51343  28.603   0.243   6.017
 3918POPC   C2B51344  28.803   0.109   6.380
 3918POPC   C3B51345  28.802   0.059   6.844
 3918POPC   C4B51346  28.606   0.215   7.189
 3919POPC   NC351347  36.512  44.767   5.510
 3919POPC   PO451348  35.749  44.619   5.480
 3919POPC   GL151349  36.015  44.821   5.764
 3919POPC   GL251350  36.172  44.490   5.763
 3919POPC   C1A51351  36.010  44.993   6.187
 3919POPC   D2A51352  36.231  44.931   6.579
 3919POPC   C3A51353  36.036  44.944   6.970
 3919POPC   C4A51354  36.166  44.848   7.370
 3919POPC   C1B51355  36.118  44.479   6.190
 3919POPC   C2B51356  36.274  44.415   6.586
 3919POPC   C3B51357  36.178  44.455   6.987
 3919POPC   C4B51358  36.089  44.218   7.329
 3920POPC   NC351359  29.467  28.875   5.465
 3920POPC   PO451360  30.083  29.133   5.438
 3920POPC   GL151361  30.068  29.137   5.870
 3920POPC   GL251362  29.723  29.243   5.812
 3920POPC   C1A51363  30.207  29.081   6.305
 3920POPC   D2A51364  29.991  29.186   6.651
 3920POPC   C3A51365  30.081  28.935   6.991
 3920POPC   C4A51366  30.067  29.142   7.354
 3920POPC   C1B51367  29.520  29.351   6.176
 3920POPC   C2B51368  29.480  29.228   6.604
 3920POPC   C3B51369  29.625  29.164   7.038
 3920POPC   C4B51370  29.691  29.477   7.343
 3921POPC   NC351371  32.059  22.593   5.501
 3921POPC   PO451372  32.210  21.931   5.550
 3921POPC   GL151373  31.896  21.931   5.881
 3921POPC   GL251374  32.147  22.184   6.014
 3921POPC   C1A51375  31.801  22.035   6.341
 3921POPC   D2A51376  32.113  22.297   6.595
 3921POPC   C3A51377  32.224  22.307   7.053
 3921POPC   C4A51378  32.200  22.652   7.360
 3921POPC   C1B51379  32.493  22.071   6.288
 3921POPC   C2B51380  32.680  21.924   6.659
 3921POPC   C3B51381  32.754  22.131   7.091
 3921POPC   C4B51382  32.535  22.268   7.477
 3922POPC   NC351383   7.064  10.902   5.072
 3922POPC   PO451384   7.507  11.269   5.404
 3922POPC   GL151385   7.586  11.234   5.787
 3922POPC   GL251386   7.310  11.407   5.930
 3922POPC   C1A51387   7.627  10.973   6.137
 3922POPC   D2A51388   7.308  11.009   6.431
 3922POPC   C3A51389   7.388  11.091   6.860
 3922POPC   C4A51390   7.546  11.392   7.116
 3922POPC   C1B51391   7.345  11.517   6.343
 3922POPC   C2B51392   7.640  11.778   6.502
 3922POPC   C3B51393   7.864  11.711   6.860
 3922POPC   C4B51394   7.770  11.840   7.274
 3923POPC   NC351395  37.216  40.515   5.462
 3923POPC   PO451396  36.623  40.769   5.433
 3923POPC   GL151397  36.945  40.858   5.759
 3923POPC   GL251398  37.253  41.018   5.599
 3923POPC   C1A51399  37.108  40.690   6.181
 3923POPC   D2A51400  37.205  40.717   6.632
 3923POPC   C3A51401  36.830  40.646   6.907
 3923POPC   C4A51402  36.560  40.724   7.258
 3923POPC   C1B51403  37.268  41.150   6.019
 3923POPC   C2B51404  37.281  41.228   6.475
 3923POPC   C3B51405  37.241  41.112   6.920
 3923POPC   C4B51406  36.992  41.036   7.248
 3924POPC   NC351407   4.754  23.097   5.321
 3924POPC   PO451408   5.193  22.657   5.343
 3924POPC   GL151409   5.005  22.709   5.725
 3924POPC   GL251410   5.009  23.081   5.758
 3924POPC   C1A51411   5.183  22.609   6.134
 3924POPC   D2A51412   5.335  22.737   6.553
 3924POPC   C3A51413   5.003  22.797   6.872
 3924POPC   C4A51414   4.966  22.876   7.301
 3924POPC   C1B51415   4.819  22.996   6.137
 3924POPC   C2B51416   4.839  23.156   6.551
 3924POPC   C3B51417   4.768  23.238   6.991
 3924POPC   C4B51418   4.760  23.532   7.321
 3925POPC   NC351419  19.129  24.717   5.635
 3925POPC   PO451420  19.258  24.102   5.413
 3925POPC   GL151421  19.297  24.251   5.804
 3925POPC   GL251422  18.964  24.293   5.900
 3925POPC   C1A51423  19.316  24.474   6.210
 3925POPC   D2A51424  19.091  24.392   6.566
 3925POPC   C3A51425  19.300  24.358   6.943
 3925POPC   C4A51426  19.069  24.330   7.322
 3925POPC   C1B51427  18.808  24.633   6.183
 3925POPC   C2B51428  18.874  24.855   6.575
 3925POPC   C3B51429  18.889  24.682   6.974
 3925POPC   C4B51430  18.642  24.611   7.313
 3926POPC   NC351431   5.494  29.266   5.221
 3926POPC   PO451432   5.055  29.622   5.540
 3926POPC   GL151433   4.891  29.404   5.876
 3926POPC   GL251434   4.974  29.055   5.865
 3926POPC   C1A51435   5.046  29.301   6.318
 3926POPC   D2A51436   5.122  29.044   6.691
 3926POPC   C3A51437   4.864  29.187   7.021
 3926POPC   C4A51438   5.006  29.389   7.372
 3926POPC   C1B51439   4.881  28.823   6.266
 3926POPC   C2B51440   4.678  28.819   6.678
 3926POPC   C3B51441   4.777  28.668   7.075
 3926POPC   C4B51442   5.156  28.822   7.288
 3927POPC   NC351443  26.077   4.030   5.250
 3927POPC   PO451444  25.887   4.669   5.456
 3927POPC   GL151445  26.066   4.378   5.759
 3927POPC   GL251446  26.348   4.166   5.675
 3927POPC   C1A51447  25.962   4.204   6.168
 3927POPC   D2A51448  25.678   4.233   6.523
 3927POPC   C3A51449  25.904   4.189   6.900
 3927POPC   C4A51450  25.833   4.414   7.258
 3927POPC   C1B51451  26.448   4.025   6.097
 3927POPC   C2B51452  26.288   4.003   6.542
 3927POPC   C3B51453  26.426   4.037   6.963
 3927POPC   C4B51454  26.318   3.922   7.426
 3928POPC   NC351455  11.833  40.497   5.575
 3928POPC   PO451456  12.177  41.048   5.323
 3928POPC   GL151457  12.085  40.952   5.770
 3928POPC   GL251458  11.719  40.973   5.790
 3928POPC   C1A51459  12.345  40.998   6.207
 3928POPC   D2A51460  12.564  41.097   6.617
 3928POPC   C3A51461  12.406  40.890   6.995
 3928POPC   C4A51462  12.123  40.507   7.020
 3928POPC   C1B51463  11.900  40.755   6.196
 3928POPC   C2B51464  12.050  40.857   6.618
 3928POPC   C3B51465  11.885  40.962   7.044
 3928POPC   C4B51466  11.668  40.736   7.344
 3929POPC   NC351467  34.406  13.545   5.379
 3929POPC   PO451468  34.852  13.942   5.735
 3929POPC   GL151469  34.451  13.842   5.871
 3929POPC   GL251470  34.459  13.518   5.959
 3929POPC   C1A51471  34.299  13.836   6.310
 3929POPC   D2A51472  34.424  13.493   6.642
 3929POPC   C3A51473  34.729  13.690   6.931
 3929POPC   C4A51474  34.917  13.835   7.327
 3929POPC   C1B51475  34.782  13.632   6.296
 3929POPC   C2B51476  35.005  13.371   6.574
 3929POPC   C3B51477  34.948  13.179   6.933
 3929POPC   C4B51478  34.704  13.306   7.267
 3930POPC   NC351479  38.978  25.546   5.294
 3930POPC   PO451480  39.426  25.077   5.463
 3930POPC   GL151481  39.256  25.115   5.843
 3930POPC   GL251482  39.212  25.443   5.773
 3930POPC   C1A51483  39.273  25.273   6.279
 3930POPC   D2A51484  38.935  25.218   6.614
 3930POPC   C3A51485  39.087  25.075   7.002
 3930POPC   C4A51486  39.495  25.079   7.194
 3930POPC   C1B51487  38.942  25.644   6.063
 3930POPC   C2B51488  38.862  25.710   6.507
 3930POPC   C3B51489  38.893  25.614   6.970
 3930POPC   C4B51490  39.107  25.438   7.371
 3931POPC   NC351491  10.848  23.287   5.466
 3931POPC   PO451492  10.376  22.792   5.494
 3931POPC   GL151493  10.414  23.118   5.813
 3931POPC   GL251494  10.741  23.023   5.887
 3931POPC   C1A51495  10.417  23.034   6.271
 3931POPC   D2A51496  10.436  22.740   6.591
 3931POPC   C3A51497  10.485  22.913   7.005
 3931POPC   C4A51498  10.104  23.012   7.238
 3931POPC   C1B51499  10.859  22.768   6.247
 3931POPC   C2B51500  10.933  22.785   6.707
 3931POPC   C3B51501  10.962  22.640   7.143
 3931POPC   C4B51502  10.838  22.610   7.589
 3932POPC   NC351503  42.109  28.659   5.151
 3932POPC   PO451504  42.402  28.048   5.274
 3932POPC   GL151505  42.338  28.270   5.681
 3932POPC   GL251506  42.128  28.567   5.762
 3932POPC   C1A51507  42.313  28.186   6.114
 3932POPC   D2A51508  42.378  28.374   6.504
 3932POPC   C3A51509  42.358  28.177   6.872
 3932POPC   C4A51510  42.280  28.137   7.276
 3932POPC   C1B51511  41.986  28.585   6.208
 3932POPC   C2B51512  42.103  28.778   6.627
 3932POPC   C3B51513  42.069  28.561   7.035
 3932POPC   C4B51514  42.101  28.605   7.500
 3933POPC   NC351515  44.422  36.987   5.412
 3933POPC   PO451516   0.056  36.921   5.504
 3933POPC   GL151517  44.738  37.070   5.850
 3933POPC   GL251518  44.339  37.115   5.886
 3933POPC   C1A51519  44.654  36.791   6.221
 3933POPC   D2A51520  44.708  36.619   6.643
 3933POPC   C3A51521  44.658  36.608   7.101
 3933POPC   C4A51522  44.913  36.548   7.480
 3933POPC   C1B51523  44.362  37.185   6.315
 3933POPC   C2B51524  44.480  37.082   6.723
 3933POPC   C3B51525  44.706  37.122   7.086
 3933POPC   C4B51526  44.469  37.262   7.424
 3934POPC   NC351527  43.717  25.476   5.333
 3934POPC   PO451528  43.562  24.823   5.503
 3934POPC   GL151529  43.834  25.042   5.793
 3934POPC   GL251530  43.697  25.381   5.815
 3934POPC   C1A51531  43.938  24.944   6.237
 3934POPC   D2A51532  43.741  24.919   6.662
 3934POPC   C3A51533  43.857  25.201   6.995
 3934POPC   C4A51534  43.986  25.169   7.406
 3934POPC   C1B51535  43.879  25.445   6.170
 3934POPC   C2B51536  43.682  25.426   6.529
 3934POPC   C3B51537  43.761  25.688   6.834
 3934POPC   C4B51538  43.788  25.694   7.267
 3935POPC   NC351539   1.872  12.436   5.357
 3935POPC   PO451540   1.816  13.123   5.273
 3935POPC   GL151541   1.783  12.861   5.637
 3935POPC   GL251542   2.139  12.910   5.681
 3935POPC   C1A51543   1.831  12.760   6.089
 3935POPC   D2A51544   1.619  12.843   6.487
 3935POPC   C3A51545   1.864  12.747   6.847
 3935POPC   C4A51546   1.709  12.762   7.268
 3935POPC   C1B51547   2.242  13.145   6.061
 3935POPC   C2B51548   2.136  13.050   6.477
 3935POPC   C3B51549   2.222  13.108   6.929
 3935POPC   C4B51550   2.214  12.814   7.272
 3936POPC   NC351551  41.416  24.205   5.338
 3936POPC   PO451552  41.490  24.855   5.215
 3936POPC   GL151553  41.483  24.632   5.701
 3936POPC   GL251554  41.732  24.439   5.873
 3936POPC   C1A51555  41.304  24.414   6.138
 3936POPC   D2A51556  41.264  24.125   6.513
 3936POPC   C3A51557  41.481  24.279   6.850
 3936POPC   C4A51558  41.580  24.543   7.181
 3936POPC   C1B51559  41.944  24.562   6.256
 3936POPC   C2B51560  41.784  24.658   6.666
 3936POPC   C3B51561  41.912  24.901   6.996
 3936POPC   C4B51562  41.890  24.891   7.399
 3937POPC   NC351563  29.886   7.879   5.475
 3937POPC   PO451564  30.365   8.317   5.299
 3937POPC   GL151565  30.115   8.341   5.723
 3937POPC   GL251566  29.813   8.159   5.900
 3937POPC   C1A51567  30.283   8.301   6.163
 3937POPC   D2A51568  30.107   8.189   6.563
 3937POPC   C3A51569  30.241   8.387   6.965
 3937POPC   C4A51570  30.125   8.121   7.303
 3937POPC   C1B51571  29.491   8.281   6.238
 3937POPC   C2B51572  29.514   8.422   6.658
 3937POPC   C3B51573  29.753   8.201   6.958
 3937POPC   C4B51574  29.621   7.958   7.311
 3938POPC   NC351575   7.868  27.284   5.363
 3938POPC   PO451576   7.416  26.785   5.166
 3938POPC   GL151577   7.348  26.805   5.636
 3938POPC   GL251578   7.425  27.135   5.794
 3938POPC   C1A51579   7.288  26.720   6.088
 3938POPC   D2A51580   7.427  26.936   6.463
 3938POPC   C3A51581   7.370  26.693   6.824
 3938POPC   C4A51582   7.290  26.750   7.237
 3938POPC   C1B51583   7.123  27.225   6.148
 3938POPC   C2B51584   7.080  27.282   6.610
 3938POPC   C3B51585   7.317  27.211   6.999
 3938POPC   C4B51586   7.315  27.198   7.456
 3939POPC   NC351587   7.948  12.350   5.013
 3939POPC   PO451588   8.202  11.835   5.115
 3939POPC   GL151589   8.046  11.936   5.601
 3939POPC   GL251590   8.121  12.284   5.737
 3939POPC   C1A51591   8.094  11.927   6.112
 3939POPC   D2A51592   8.243  12.161   6.520
 3939POPC   C3A51593   8.310  11.945   6.918
 3939POPC   C4A51594   8.451  11.714   7.258
 3939POPC   C1B51595   7.925  12.411   6.153
 3939POPC   C2B51596   7.756  12.282   6.580
 3939POPC   C3B51597   7.909  12.291   7.048
 3939POPC   C4B51598   7.802  12.275   7.528
 3940POPC   NC351599   3.417  38.624   5.304
 3940POPC   PO451600   4.066  38.586   5.574
 3940POPC   GL151601   3.631  38.567   5.777
 3940POPC   GL251602   3.253  38.437   5.768
 3940POPC   C1A51603   3.621  38.754   6.165
 3940POPC   D2A51604   3.903  38.851   6.491
 3940POPC   C3A51605   3.829  38.762   6.902
 3940POPC   C4A51606   3.766  38.654   7.302
 3940POPC   C1B51607   3.323  38.348   6.208
 3940POPC   C2B51608   3.567  38.447   6.578
 3940POPC   C3B51609   3.362  38.513   6.936
 3940POPC   C4B51610   3.275  38.549   7.328
 3941POPC   NC351611  36.303  20.714   5.171
 3941POPC   PO451612  35.749  20.617   5.544
 3941POPC   GL151613  35.981  20.546   5.878
 3941POPC   GL251614  36.303  20.636   5.726
 3941POPC   C1A51615  35.943  20.407   6.290
 3941POPC   D2A51616  36.175  20.541   6.639
 3941POPC   C3A51617  35.923  20.555   6.981
 3941POPC   C4A51618  36.015  20.320   7.318
 3941POPC   C1B51619  36.452  20.607   6.174
 3941POPC   C2B51620  36.540  20.878   6.545
 3941POPC   C3B51621  36.613  20.735   6.990
 3941POPC   C4B51622  36.429  20.691   7.416
 3942POPC   NC351623  16.179   6.338   5.509
 3942POPC   PO451624  16.694   6.020   5.281
 3942POPC   GL151625  16.724   5.897   5.764
 3942POPC   GL251626  16.874   5.586   5.829
 3942POPC   C1A51627  16.888   5.947   6.221
 3942POPC   D2A51628  16.991   6.073   6.673
 3942POPC   C3A51629  16.675   6.167   6.991
 3942POPC   C4A51630  16.604   5.912   7.365
 3942POPC   C1B51631  16.594   5.512   6.200
 3942POPC   C2B51632  16.422   5.480   6.615
 3942POPC   C3B51633  16.727   5.656   6.905
 3942POPC   C4B51634  16.923   5.511   7.254
 3943POPC   NC351635  15.787  41.917   5.070
 3943POPC   PO451636  16.196  41.413   5.211
 3943POPC   GL151637  15.955  41.409   5.603
 3943POPC   GL251638  15.782  41.739   5.638
 3943POPC   C1A51639  16.076  41.419   6.044
 3943POPC   D2A51640  16.093  41.686   6.393
 3943POPC   C3A51641  16.061  41.434   6.750
 3943POPC   C4A51642  16.114  41.464   7.189
 3943POPC   C1B51643  15.689  41.869   6.098
 3943POPC   C2B51644  15.596  41.662   6.503
 3943POPC   C3B51645  15.686  41.703   6.942
 3943POPC   C4B51646  15.421  41.820   7.240
 3944POPC   NC351647  41.960  15.921   5.420
 3944POPC   PO451648  42.588  16.181   5.541
 3944POPC   GL151649  42.433  16.155   5.920
 3944POPC   GL251650  42.097  16.233   5.800
 3944POPC   C1A51651  42.513  15.984   6.325
 3944POPC   D2A51652  42.279  15.694   6.571
 3944POPC   C3A51653  42.179  15.843   6.975
 3944POPC   C4A51654  42.256  15.757   7.390
 3944POPC   C1B51655  42.026  15.945   6.140
 3944POPC   C2B51656  42.037  16.137   6.528
 3944POPC   C3B51657  42.026  16.333   6.902
 3944POPC   C4B51658  42.119  16.243   7.331
 3945POPC   NC351659  33.181   1.877   5.475
 3945POPC   PO451660  33.392   2.485   5.517
 3945POPC   GL151661  33.126   2.291   5.803
 3945POPC   GL251662  32.786   2.200   5.623
 3945POPC   C1A51663  33.288   2.100   6.182
 3945POPC   D2A51664  33.319   2.139   6.635
 3945POPC   C3A51665  33.164   1.785   6.832
 3945POPC   C4A51666  33.181   1.596   7.224
 3945POPC   C1B51667  32.668   2.075   6.047
 3945POPC   C2B51668  32.837   1.936   6.438
 3945POPC   C3B51669  32.827   2.180   6.800
 3945POPC   C4B51670  32.888   2.075   7.178
 3946POPC   NC351671  28.000  22.792   5.390
 3946POPC   PO451672  28.656  22.618   5.356
 3946POPC   GL151673  28.508  22.887   5.702
 3946POPC   GL251674  28.221  23.105   5.719
 3946POPC   C1A51675  28.594  23.061   6.102
 3946POPC   D2A51676  28.524  22.837   6.462
 3946POPC   C3A51677  28.634  22.778   6.867
 3946POPC   C4A51678  28.647  22.976   7.259
 3946POPC   C1B51679  28.084  22.877   6.095
 3946POPC   C2B51680  28.040  22.962   6.542
 3946POPC   C3B51681  28.217  23.136   6.913
 3946POPC   C4B51682  28.162  23.130   7.345
 3947POPC   NC351683  25.558  31.862   5.434
 3947POPC   PO451684  25.244  31.271   5.424
 3947POPC   GL151685  25.343  31.517   5.793
 3947POPC   GL251686  25.685  31.443   5.755
 3947POPC   C1A51687  25.276  31.484   6.264
 3947POPC   D2A51688  25.144  31.170   6.583
 3947POPC   C3A51689  24.989  31.264   7.013
 3947POPC   C4A51690  25.082  31.427   7.425
 3947POPC   C1B51691  25.734  31.680   6.136
 3947POPC   C2B51692  25.645  31.687   6.594
 3947POPC   C3B51693  25.456  31.531   6.989
 3947POPC   C4B51694  25.548  31.612   7.431
 3948POPC   NC351695  34.592   0.734   5.417
 3948POPC   PO451696  34.320   0.193   5.163
 3948POPC   GL151697  34.615   0.295   5.663
 3948POPC   GL251698  34.442   0.627   5.871
 3948POPC   C1A51699  34.748   0.428   6.178
 3948POPC   D2A51700  34.571   0.643   6.570
 3948POPC   C3A51701  34.441   0.359   6.891
 3948POPC   C4A51702  34.565   0.173   7.275
 3948POPC   C1B51703  34.170   0.664   6.240
 3948POPC   C2B51704  34.083   0.876   6.605
 3948POPC   C3B51705  34.278   0.852   7.009
 3948POPC   C4B51706  34.362   0.859   7.451
 3949POPC   NC351707   3.110  44.717   5.357
 3949POPC   PO451708   2.558  44.326   5.415
 3949POPC   GL151709   2.634  44.515   5.851
 3949POPC   GL251710   2.654  44.891   5.882
 3949POPC   C1A51711   2.787  44.607   6.306
 3949POPC   D2A51712   3.034  44.770   6.685
 3949POPC   C3A51713   3.000  44.440   6.999
 3949POPC   C4A51714   2.774  44.512   7.369
 3949POPC   C1B51715   2.335  44.839   6.193
 3949POPC   C2B51716   2.342  44.652   6.583
 3949POPC   C3B51717   2.568  44.735   6.937
 3949POPC   C4B51718   2.516  44.937   7.326
 3950POPC   NC351719   7.329  30.463   5.292
 3950POPC   PO451720   7.475  29.788   5.229
 3950POPC   GL151721   7.310  29.994   5.625
 3950POPC   GL251722   7.518  30.248   5.786
 3950POPC   C1A51723   7.246  29.928   6.081
 3950POPC   D2A51724   7.411  29.709   6.427
 3950POPC   C3A51725   7.326  29.811   6.852
 3950POPC   C4A51726   7.270  29.711   7.278
 3950POPC   C1B51727   7.758  30.004   6.124
 3950POPC   C2B51728   7.841  29.932   6.586
 3950POPC   C3B51729   7.793  29.815   7.047
 3950POPC   C4B51730   7.567  30.111   7.268
 3951POPC   NC351731  39.722   4.982   5.183
 3951POPC   PO451732  39.114   5.092   5.196
 3951POPC   GL151733  39.085   5.073   5.698
 3951POPC   GL251734  39.271   4.783   5.800
 3951POPC   C1A51735  39.237   5.113   6.165
 3951POPC   D2A51736  39.366   5.196   6.590
 3951POPC   C3A51737  39.112   5.238   6.975
 3951POPC   C4A51738  39.130   4.977   7.365
 3951POPC   C1B51739  39.390   4.601   6.203
 3951POPC   C2B51740  39.528   4.664   6.624
 3951POPC   C3B51741  39.516   4.799   7.059
 3951POPC   C4B51742  39.614   4.849   7.535
 3952POPC   NC351743  44.643  17.671   5.340
 3952POPC   PO451744  44.407  17.040   5.468
 3952POPC   GL151745  44.646  17.307   5.778
 3952POPC   GL251746  44.629  17.683   5.852
 3952POPC   C1A51747  44.696  17.339   6.245
 3952POPC   D2A51748  44.509  17.123   6.587
 3952POPC   C3A51749  44.665  17.215   6.994
 3952POPC   C4A51750  44.647  17.457   7.378
 3952POPC   C1B51751  44.502  17.820   6.262
 3952POPC   C2B51752  44.522  17.651   6.683
 3952POPC   C3B51753  44.403  17.810   7.108
 3952POPC   C4B51754  44.316  17.782   7.581
 3953POPC   NC351755  25.772   1.734   5.533
 3953POPC   PO451756  25.627   1.064   5.496
 3953POPC   GL151757  25.440   1.240   5.886
 3953POPC   GL251758  25.071   1.424   5.837
 3953POPC   C1A51759  25.436   1.003   6.296
 3953POPC   D2A51760  25.091   1.033   6.628
 3953POPC   C3A51761  25.008   1.053   7.087
 3953POPC   C4A51762  25.292   1.136   7.446
 3953POPC   C1B51763  25.136   1.413   6.278
 3953POPC   C2B51764  25.489   1.430   6.574
 3953POPC   C3B51765  25.430   1.348   6.996
 3953POPC   C4B51766  25.091   1.570   7.170
 3954POPC   NC351767  10.270  11.122   5.381
 3954POPC   PO451768   9.679  11.392   5.244
 3954POPC   GL151769   9.929  11.476   5.628
 3954POPC   GL251770   9.943  11.140   5.779
 3954POPC   C1A51771   9.884  11.562   6.087
 3954POPC   D2A51772   9.685  11.656   6.513
 3954POPC   C3A51773   9.895  11.486   6.886
 3954POPC   C4A51774   9.905  11.317   7.280
 3954POPC   C1B51775   9.772  11.048   6.189
 3954POPC   C2B51776   9.856  11.039   6.634
 3954POPC   C3B51777   9.589  11.050   6.990
 3954POPC   C4B51778   9.403  10.724   7.223
 3955POPC   NC351779  41.604  22.460   5.076
 3955POPC   PO451780  41.527  21.973   5.575
 3955POPC   GL151781  41.690  22.160   5.945
 3955POPC   GL251782  41.562  22.510   5.879
 3955POPC   C1A51783  41.795  21.997   6.338
 3955POPC   D2A51784  41.463  21.834   6.490
 3955POPC   C3A51785  41.416  21.846   6.887
 3955POPC   C4A51786  41.512  21.924   7.264
 3955POPC   C1B51787  41.679  22.495   6.323
 3955POPC   C2B51788  41.546  22.321   6.692
 3955POPC   C3B51789  41.762  22.325   7.043
 3955POPC   C4B51790  42.159  22.488   7.218
 3956POPC   NC351791  38.927  29.416   5.231
 3956POPC   PO451792  38.370  29.019   5.424
 3956POPC   GL151793  38.549  29.126   5.799
 3956POPC   GL251794  38.780  29.357   5.731
 3956POPC   C1A51795  38.393  29.217   6.227
 3956POPC   D2A51796  38.589  29.092   6.615
 3956POPC   C3A51797  38.457  28.906   7.009
 3956POPC   C4A51798  38.255  28.776   7.396
 3956POPC   C1B51799  38.795  29.528   6.159
 3956POPC   C2B51800  38.860  29.547   6.624
 3956POPC   C3B51801  38.635  29.417   7.041
 3956POPC   C4B51802  38.495  29.229   7.447
 3957POPC   NC351803   1.701  42.519   4.985
 3957POPC   PO451804   2.210  42.318   5.446
 3957POPC   GL151805   2.129  42.243   5.873
 3957POPC   GL251806   1.865  42.003   5.899
 3957POPC   C1A51807   1.924  42.364   6.280
 3957POPC   D2A51808   1.944  42.602   6.669
 3957POPC   C3A51809   2.326  42.608   6.843
 3957POPC   C4A51810   2.433  42.349   7.184
 3957POPC   C1B51811   1.571  41.999   6.232
 3957POPC   C2B51812   1.681  41.940   6.663
 3957POPC   C3B51813   1.786  42.224   6.997
 3957POPC   C4B51814   1.917  42.217   7.406
 3958POPC   NC351815  25.111  36.496   5.373
 3958POPC   PO451816  25.516  36.990   5.280
 3958POPC   GL151817  25.425  36.862   5.715
 3958POPC   GL251818  25.571  36.540   5.768
 3958POPC   C1A51819  25.330  36.963   6.179
 3958POPC   D2A51820  25.100  36.806   6.586
 3958POPC   C3A51821  25.215  36.942   7.037
 3958POPC   C4A51822  25.232  37.311   7.309
 3958POPC   C1B51823  25.742  36.655   6.202
 3958POPC   C2B51824  25.627  36.887   6.611
 3958POPC   C3B51825  25.668  36.699   7.012
 3958POPC   C4B51826  25.603  36.680   7.449
 3959POPC   NC351827  19.842  26.407   5.348
 3959POPC   PO451828  19.790  25.747   5.397
 3959POPC   GL151829  19.849  25.923   5.797
 3959POPC   GL251830  20.089  25.678   5.922
 3959POPC   C1A51831  20.019  26.121   6.199
 3959POPC   D2A51832  19.960  26.335   6.584
 3959POPC   C3A51833  20.152  26.242   6.949
 3959POPC   C4A51834  19.850  26.276   7.270
 3959POPC   C1B51835  19.748  25.701   6.240
 3959POPC   C2B51836  19.681  25.876   6.638
 3959POPC   C3B51837  19.870  25.823   7.034
 3959POPC   C4B51838  20.056  25.456   7.142
 3960POPC   NC351839  37.799   8.670   5.619
 3960POPC   PO451840  37.662   9.191   5.206
 3960POPC   GL151841  37.550   9.137   5.689
 3960POPC   GL251842  37.396   9.400   5.832
 3960POPC   C1A51843  37.642   9.026   6.148
 3960POPC   D2A51844  37.580   8.748   6.502
 3960POPC   C3A51845  37.752   8.874   6.907
 3960POPC   C4A51846  37.632   8.843   7.346
 3960POPC   C1B51847  37.222   9.304   6.230
 3960POPC   C2B51848  37.309   9.165   6.613
 3960POPC   C3B51849  37.329   9.404   6.957
 3960POPC   C4B51850  37.458   9.323   7.346
 3961POPC   NC351851  30.201  21.759   5.245
 3961POPC   PO451852  30.301  22.399   5.411
 3961POPC   GL151853  29.974  22.215   5.756
 3961POPC   GL251854  29.665  22.401   5.822
 3961POPC   C1A51855  29.696  21.965   6.121
 3961POPC   D2A51856  29.556  22.080   6.592
 3961POPC   C3A51857  29.713  21.851   6.999
 3961POPC   C4A51858  29.776  21.841   7.482
 3961POPC   C1B51859  29.801  22.431   6.276
 3961POPC   C2B51860  30.072  22.635   6.571
 3961POPC   C3B51861  30.176  22.581   7.011
 3961POPC   C4B51862  29.974  22.246   7.227
 3962POPC   NC351863  20.207  35.152   5.112
 3962POPC   PO451864  20.753  35.511   5.221
 3962POPC   GL151865  20.742  35.500   5.722
 3962POPC   GL251866  21.020  35.727   5.839
 3962POPC   C1A51867  20.586  35.263   6.123
 3962POPC   D2A51868  20.593  35.144   6.603
 3962POPC   C3A51869  20.260  35.283   6.917
 3962POPC   C4A51870  20.289  35.296   7.371
 3962POPC   C1B51871  21.001  35.546   6.266
 3962POPC   C2B51872  20.826  35.613   6.663
 3962POPC   C3B51873  20.938  35.888   6.987
 3962POPC   C4B51874  20.972  35.832   7.422
 3963POPC   NC351875  20.982  20.404   5.379
 3963POPC   PO451876  21.684  20.627   5.352
 3963POPC   GL151877  21.468  20.623   5.746
 3963POPC   GL251878  21.118  20.788   5.754
 3963POPC   C1A51879  21.413  20.724   6.169
 3963POPC   D2A51880  21.262  20.508   6.522
 3963POPC   C3A51881  21.343  20.717   6.891
 3963POPC   C4A51882  21.360  20.641   7.296
 3963POPC   C1B51883  20.920  20.785   6.204
 3963POPC   C2B51884  20.851  20.809   6.675
 3963POPC   C3B51885  20.904  20.822   7.131
 3963POPC   C4B51886  21.009  20.914   7.568
 3964POPC   NC351887  40.005  35.949   5.358
 3964POPC   PO451888  39.532  36.454   5.409
 3964POPC   GL151889  39.775  36.376   5.778
 3964POPC   GL251890  40.122  36.231   5.797
 3964POPC   C1A51891  39.767  36.106   6.173
 3964POPC   D2A51892  39.640  35.884   6.567
 3964POPC   C3A51893  39.836  36.050   6.906
 3964POPC   C4A51894  39.643  36.028   7.281
 3964POPC   C1B51895  40.313  36.164   6.221
 3964POPC   C2B51896  40.369  36.032   6.694
 3964POPC   C3B51897  40.349  36.304   7.020
 3964POPC   C4B51898  40.021  36.442   7.202
 3965POPC   NC351899  42.887  12.862   5.450
 3965POPC   PO451900  43.576  12.844   5.468
 3965POPC   GL151901  43.264  12.991   5.807
 3965POPC   GL251902  43.029  12.713   5.908
 3965POPC   C1A51903  43.107  13.060   6.255
 3965POPC   D2A51904  43.252  12.853   6.625
 3965POPC   C3A51905  43.077  12.999   6.989
 3965POPC   C4A51906  42.828  12.755   7.237
 3965POPC   C1B51907  43.431  12.618   6.154
 3965POPC   C2B51908  43.492  12.390   6.551
 3965POPC   C3B51909  43.463  12.510   6.994
 3965POPC   C4B51910  43.537  12.899   7.175
 3966POPC   NC351911  19.291  15.277   5.416
 3966POPC   PO451912  18.772  14.840   5.379
 3966POPC   GL151913  18.937  15.084   5.752
 3966POPC   GL251914  19.056  15.437   5.827
 3966POPC   C1A51915  19.041  15.086   6.198
 3966POPC   D2A51916  18.770  15.091   6.536
 3966POPC   C3A51917  19.012  15.037   6.872
 3966POPC   C4A51918  18.970  15.090   7.262
 3966POPC   C1B51919  19.078  15.597   6.245
 3966POPC   C2B51920  19.132  15.477   6.638
 3966POPC   C3B51921  19.235  15.639   7.012
 3966POPC   C4B51922  18.997  15.600   7.346
 3967POPC   NC351923   6.199  25.380   5.292
 3967POPC   PO451924   5.864  24.908   5.629
 3967POPC   GL151925   5.913  25.318   5.832
 3967POPC   GL251926   5.566  25.451   6.007
 3967POPC   C1A51927   6.046  25.535   6.208
 3967POPC   D2A51928   5.987  25.450   6.640
 3967POPC   C3A51929   6.065  25.721   6.985
 3967POPC   C4A51930   5.785  25.683   7.343
 3967POPC   C1B51931   5.712  25.097   6.261
 3967POPC   C2B51932   5.926  24.861   6.574
 3967POPC   C3B51933   6.041  25.046   6.947
 3967POPC   C4B51934   5.720  25.187   7.177
 3968POPC   NC351935   5.079  36.541   5.424
 3968POPC   PO451936   5.518  36.051   5.444
 3968POPC   GL151937   5.247  36.150   5.736
 3968POPC   GL251938   5.166  35.814   5.795
 3968POPC   C1A51939   5.090  36.193   6.134
 3968POPC   D2A51940   5.308  36.239   6.505
 3968POPC   C3A51941   5.096  36.257   6.908
 3968POPC   C4A51942   4.847  36.260   7.288
 3968POPC   C1B51943   5.451  35.830   6.134
 3968POPC   C2B51944   5.401  35.720   6.535
 3968POPC   C3B51945   5.163  35.734   6.889
 3968POPC   C4B51946   5.192  35.877   7.293
 3969POPC   NC351947   0.296  10.622   5.378
 3969POPC   PO451948   0.241   9.950   5.581
 3969POPC   GL151949   0.359  10.319   5.800
 3969POPC   GL251950   0.631  10.618   5.753
 3969POPC   C1A51951   0.644  10.301   6.149
 3969POPC   D2A51952   0.705  10.399   6.559
 3969POPC   C3A51953   0.323  10.295   6.779
 3969POPC   C4A51954   0.369  10.367   7.191
 3969POPC   C1B51955   0.349  10.755   6.071
 3969POPC   C2B51956   0.288  10.715   6.503
 3969POPC   C3B51957   0.528  10.769   6.897
 3969POPC   C4B51958   0.462  11.035   7.233
 3970POPC   NC351959  30.765  44.765   5.400
 3970POPC   PO451960  30.250  44.355   5.205
 3970POPC   GL151961  30.281  44.653   5.637
 3970POPC   GL251962  30.478  44.991   5.744
 3970POPC   C1A51963  30.430  44.633   6.107
 3970POPC   D2A51964  30.741  44.488   6.413
 3970POPC   C3A51965  30.630  44.554   6.864
 3970POPC   C4A51966  30.850  44.360   7.209
 3970POPC   C1B51967  30.811  44.982   6.070
 3970POPC   C2B51968  30.969  44.932   6.520
 3970POPC   C3B51969  31.003  44.898   6.988
 3970POPC   C4B51970  30.794  44.855   7.390
 3971POPC   NC351971  38.286  29.491   5.380
 3971POPC   PO451972  37.644  29.211   5.339
 3971POPC   GL151973  37.828  29.439   5.696
 3971POPC   GL251974  38.044  29.180   5.787
 3971POPC   C1A51975  37.753  29.349   6.169
 3971POPC   D2A51976  37.525  29.111   6.488
 3971POPC   C3A51977  37.568  29.257   6.895
 3971POPC   C4A51978  37.480  28.965   7.236
 3971POPC   C1B51979  37.991  28.904   6.147
 3971POPC   C2B51980  38.108  28.826   6.579
 3971POPC   C3B51981  37.944  28.926   7.005
 3971POPC   C4B51982  37.991  29.230   7.356
 3972POPC   NC351983  43.345   8.571   5.554
 3972POPC   PO451984  42.779   8.157   5.391
 3972POPC   GL151985  42.877   8.303   5.829
 3972POPC   GL251986  43.014   8.624   5.929
 3972POPC   C1A51987  43.118   8.248   6.267
 3972POPC   D2A51988  43.386   8.389   6.634
 3972POPC   C3A51989  43.292   8.147   7.019
 3972POPC   C4A51990  43.216   7.855   7.371
 3972POPC   C1B51991  42.703   8.564   6.253
 3972POPC   C2B51992  42.737   8.393   6.650
 3972POPC   C3B51993  42.810   8.311   7.082
 3972POPC   C4B51994  43.072   8.387   7.427
 3973POPC   NC351995   7.705  33.548   5.468
 3973POPC   PO451996   7.915  32.958   5.249
 3973POPC   GL151997   8.153  33.064   5.710
 3973POPC   GL251998   8.345  33.419   5.788
 3973POPC   C1A51999   8.201  32.872   6.182
 3973POPC   D2A52000   8.033  32.609   6.571
 3973POPC   C3A52001   7.895  32.786   6.994
 3973POPC   C4A52002   8.086  32.878   7.443
 3973POPC   C1B52003   8.331  33.381   6.266
 3973POPC   C2B52004   8.162  33.122   6.650
 3973POPC   C3B52005   8.124  33.235   7.094
 3973POPC   C4B52006   8.262  33.574   7.328
 3974POPC   NC352007  42.944  34.630   5.381
 3974POPC   PO452008  42.285  34.454   5.296
 3974POPC   GL152009  42.371  34.675   5.710
 3974POPC   GL252010  42.096  34.772   5.853
 3974POPC   C1A52011  42.485  34.725   6.200
 3974POPC   D2A52012  42.621  34.498   6.607
 3974POPC   C3A52013  42.714  34.667   7.011
 3974POPC   C4A52014  42.438  34.879   7.261
 3974POPC   C1B52015  42.063  34.445   6.129
 3974POPC   C2B52016  41.937  34.485   6.551
 3974POPC   C3B52017  42.152  34.458   6.934
 3974POPC   C4B52018  42.011  34.587   7.328
 3975POPC   NC352019   8.537  13.119   5.508
 3975POPC   PO452020   8.191  12.621   5.275
 3975POPC   GL152021   8.264  12.769   5.780
 3975POPC   GL252022   8.534  12.920   5.955
 3975POPC   C1A52023   8.098  12.892   6.213
 3975POPC   D2A52024   8.079  12.661   6.596
 3975POPC   C3A52025   8.020  12.829   6.988
 3975POPC   C4A52026   8.161  12.687   7.382
 3975POPC   C1B52027   8.547  13.132   6.317
 3975POPC   C2B52028   8.351  13.104   6.694
 3975POPC   C3B52029   8.364  13.188   7.127
 3975POPC   C4B52030   8.418  13.118   7.548
 3976POPC   NC352031  21.395   9.164   5.378
 3976POPC   PO452032  21.627   8.551   5.264
 3976POPC   GL152033  21.423   8.734   5.691
 3976POPC   GL252034  21.493   9.076   5.867
 3976POPC   C1A52035  21.192   8.775   6.132
 3976POPC   D2A52036  21.140   8.605   6.584
 3976POPC   C3A52037  21.377   8.782   6.954
 3976POPC   C4A52038  21.329   8.794   7.442
 3976POPC   C1B52039  21.526   9.140   6.333
 3976POPC   C2B52040  21.401   9.296   6.776
 3976POPC   C3B52041  21.255   9.248   7.226
 3976POPC   C4B52042  21.526   9.280   7.611
 3977POPC   NC352043  23.543   1.636   5.553
 3977POPC   PO452044  23.952   1.151   5.241
 3977POPC   GL152045  24.054   1.151   5.678
 3977POPC   GL252046  24.012   1.498   5.758
 3977POPC   C1A52047  23.795   1.077   6.056
 3977POPC   D2A52048  23.865   1.026   6.522
 3977POPC   C3A52049  23.598   1.251   6.832
 3977POPC   C4A52050  23.448   1.235   7.245
 3977POPC   C1B52051  24.218   1.342   6.154
 3977POPC   C2B52052  24.345   1.241   6.562
 3977POPC   C3B52053  24.126   1.298   6.951
 3977POPC   C4B52054  23.913   1.045   7.211
 3978POPC   NC352055  12.830  39.482   5.370
 3978POPC   PO452056  13.271  39.006   5.369
 3978POPC   GL152057  13.070  39.171   5.784
 3978POPC   GL252058  12.698  39.217   5.805
 3978POPC   C1A52059  12.921  39.316   6.242
 3978POPC   D2A52060  12.746  39.386   6.669
 3978POPC   C3A52061  12.944  39.176   7.029
 3978POPC   C4A52062  13.005  39.211   7.496
 3978POPC   C1B52063  12.596  39.652   6.012
 3978POPC   C2B52064  12.342  39.722   6.410
 3978POPC   C3B52065  12.299  39.589   6.853
 3978POPC   C4B52066  12.579  39.543   7.208
 3979POPC   NC352067  22.181   6.228   5.343
 3979POPC   PO452068  21.850   5.682   5.538
 3979POPC   GL152069  22.053   5.995   5.806
 3979POPC   GL252070  22.383   6.052   5.769
 3979POPC   C1A52071  22.042   5.977   6.225
 3979POPC   D2A52072  22.169   5.786   6.583
 3979POPC   C3A52073  22.031   5.867   6.986
 3979POPC   C4A52074  22.141   5.468   7.161
 3979POPC   C1B52075  22.507   6.138   6.164
 3979POPC   C2B52076  22.482   6.211   6.579
 3979POPC   C3B52077  22.535   5.922   6.941
 3979POPC   C4B52078  22.425   5.972   7.372
 3980POPC   NC352079  41.970  26.180   5.376
 3980POPC   PO452080  42.496  25.907   5.515
 3980POPC   GL152081  42.708  26.238   5.754
 3980POPC   GL252082  42.556  26.018   6.022
 3980POPC   C1A52083  42.760  26.476   6.144
 3980POPC   D2A52084  42.534  26.252   6.470
 3980POPC   C3A52085  42.558  26.330   6.890
 3980POPC   C4A52086  42.427  26.034   7.216
 3980POPC   C1B52087  42.098  25.995   6.206
 3980POPC   C2B52088  41.933  26.046   6.644
 3980POPC   C3B52089  41.976  25.887   7.067
 3980POPC   C4B52090  42.092  25.621   7.448
 3981POPC   NC352091  13.126  28.523   5.111
 3981POPC   PO452092  13.108  27.873   5.212
 3981POPC   GL152093  13.090  28.115   5.662
 3981POPC   GL252094  13.090  28.507   5.683
 3981POPC   C1A52095  12.815  28.225   6.062
 3981POPC   D2A52096  12.688  28.596   6.349
 3981POPC   C3A52097  12.696  28.529   6.779
 3981POPC   C4A52098  12.765  28.628   7.198
 3981POPC   C1B52099  13.163  28.586   6.134
 3981POPC   C2B52100  13.126  28.339   6.541
 3981POPC   C3B52101  13.193  28.485   6.991
 3981POPC   C4B52102  13.143  28.435   7.479
 3982POPC   NC352103  26.763  40.954   5.491
 3982POPC   PO452104  26.992  40.344   5.308
 3982POPC   GL152105  26.946  40.557   5.755
 3982POPC   GL252106  26.646  40.744   5.935
 3982POPC   C1A52107  27.087  40.668   6.195
 3982POPC   D2A52108  26.712  40.666   6.493
 3982POPC   C3A52109  26.825  40.582   6.896
 3982POPC   C4A52110  27.237  40.557   7.071
 3982POPC   C1B52111  26.814  41.092   6.230
 3982POPC   C2B52112  27.091  41.015   6.630
 3982POPC   C3B52113  27.027  41.043   7.091
 3982POPC   C4B52114  26.616  41.212   7.261
 3983POPC   NC352115  42.616  11.911   5.306
 3983POPC   PO452116  42.490  11.192   5.365
 3983POPC   GL152117  42.336  11.070   5.787
 3983POPC   GL252118  42.143  10.737   5.777
 3983POPC   C1A52119  42.461  11.278   6.218
 3983POPC   D2A52120  42.724  11.493   6.575
 3983POPC   C3A52121  42.607  11.401   7.025
 3983POPC   C4A52122  42.251  11.557   7.316
 3983POPC   C1B52123  42.300  10.797   6.218
 3983POPC   C2B52124  42.350  10.996   6.658
 3983POPC   C3B52125  42.176  11.084   7.078
 3983POPC   C4B52126  42.079  10.793   7.395
 3984POPC   NC352127   1.524  25.295   5.361
 3984POPC   PO452128   1.005  24.954   5.576
 3984POPC   GL152129   1.109  25.244   5.873
 3984POPC   GL252130   1.371  25.482   5.803
 3984POPC   C1A52131   1.103  25.147   6.286
 3984POPC   D2A52132   1.301  25.077   6.639
 3984POPC   C3A52133   1.077  25.242   6.943
 3984POPC   C4A52134   0.985  25.010   7.247
 3984POPC   C1B52135   1.455  25.514   6.224
 3984POPC   C2B52136   1.258  25.610   6.596
 3984POPC   C3B52137   1.400  25.633   6.997
 3984POPC   C4B52138   1.469  25.335   7.278
 3985POPC   NC352139   4.762   8.332   5.438
 3985POPC   PO452140   5.359   8.049   5.285
 3985POPC   GL152141   5.112   8.024   5.649
 3985POPC   GL252142   5.172   8.391   5.735
 3985POPC   C1A52143   5.171   8.029   6.106
 3985POPC   D2A52144   5.397   8.143   6.500
 3985POPC   C3A52145   5.137   8.032   6.865
 3985POPC   C4A52146   4.728   8.099   7.078
 3985POPC   C1B52147   5.010   8.528   6.149
 3985POPC   C2B52148   4.945   8.419   6.591
 3985POPC   C3B52149   4.997   8.532   7.051
 3985POPC   C4B52150   5.030   8.535   7.524
 3986POPC   NC352151  29.944  39.778   5.469
 3986POPC   PO452152  30.010  40.466   5.345
 3986POPC   GL152153  29.944  40.328   5.834
 3986POPC   GL252154  30.124  40.029   5.872
 3986POPC   C1A52155  29.712  40.108   6.192
 3986POPC   D2A52156  29.726  39.762   6.496
 3986POPC   C3A52157  29.902  39.848   6.892
 3986POPC   C4A52158  29.738  39.998   7.246
 3986POPC   C1B52159  30.216  40.187   6.274
 3986POPC   C2B52160  30.191  40.209   6.681
 3986POPC   C3B52161  30.106  40.354   7.076
 3986POPC   C4B52162  30.347  40.304   7.440
 3987POPC   NC352163  10.935  44.113   5.401
 3987POPC   PO452164  11.185  43.601   5.345
 3987POPC   GL152165  11.058  43.769   5.783
 3987POPC   GL252166  11.147  44.175   5.864
 3987POPC   C1A52167  10.936  43.650   6.238
 3987POPC   D2A52168  11.179  43.771   6.625
 3987POPC   C3A52169  11.466  43.527   6.861
 3987POPC   C4A52170  11.377  43.559   7.274
 3987POPC   C1B52171  11.530  44.353   6.157
 3987POPC   C2B52172  11.567  44.118   6.575
 3987POPC   C3B52173  11.509  43.992   7.018
 3987POPC   C4B52174  11.424  44.092   7.448
 3988POPC   NC352175  34.884  29.973   5.241
 3988POPC   PO452176  35.518  29.921   5.548
 3988POPC   GL152177  35.445  29.661   5.900
 3988POPC   GL252178  35.088  29.546   5.992
 3988POPC   C1A52179  35.502  29.661   6.344
 3988POPC   D2A52180  35.743  29.820   6.645
 3988POPC   C3A52181  35.531  29.909   6.979
 3988POPC   C4A52182  35.628  29.806   7.365
 3988POPC   C1B52183  35.020  29.808   6.360
 3988POPC   C2B52184  35.041  29.684   6.787
 3988POPC   C3B52185  35.093  29.759   7.194
 3988POPC   C4B52186  35.208  30.131   7.343
 3989POPC   NC352187   7.573   9.251   5.434
 3989POPC   PO452188   8.236   9.197   5.460
 3989POPC   GL152189   8.250   8.932   5.855
 3989POPC   GL252190   7.895   8.792   5.862
 3989POPC   C1A52191   8.148   8.910   6.320
 3989POPC   D2A52192   8.009   9.164   6.697
 3989POPC   C3A52193   8.275   9.100   7.083
 3989POPC   C4A52194   8.604   8.978   7.370
 3989POPC   C1B52195   7.880   8.468   6.182
 3989POPC   C2B52196   8.004   8.446   6.628
 3989POPC   C3B52197   8.003   8.642   7.050
 3989POPC   C4B52198   7.894   8.924   7.391
 3990POPC   NC352199  11.796  17.644   5.508
 3990POPC   PO452200  11.171  17.539   5.360
 3990POPC   GL152201  11.217  17.449   5.825
 3990POPC   GL252202  11.158  17.065   5.868
 3990POPC   C1A52203  11.370  17.688   6.229
 3990POPC   D2A52204  11.571  17.841   6.626
 3990POPC   C3A52205  11.356  17.725   7.020
 3990POPC   C4A52206  11.209  17.534   7.448
 3990POPC   C1B52207  11.113  17.217   6.295
 3990POPC   C2B52208  11.380  17.347   6.647
 3990POPC   C3B52209  11.383  17.158   7.043
 3990POPC   C4B52210  11.191  16.854   7.281
 3991POPC   NC352211  23.458  37.204   5.328
 3991POPC   PO452212  23.721  36.645   5.278
 3991POPC   GL152213  23.735  36.849   5.692
 3991POPC   GL252214  23.393  36.950   5.782
 3991POPC   C1A52215  23.895  36.898   6.124
 3991POPC   D2A52216  24.021  37.094   6.515
 3991POPC   C3A52217  23.929  36.911   6.930
 3991POPC   C4A52218  23.783  37.115   7.308
 3991POPC   C1B52219  23.384  36.741   6.169
 3991POPC   C2B52220  23.576  36.833   6.556
 3991POPC   C3B52221  23.454  36.773   6.988
 3991POPC   C4B52222  23.243  36.528   7.264
 3992POPC   NC352223  15.776  34.059   5.234
 3992POPC   PO452224  16.031  33.545   5.268
 3992POPC   GL152225  15.999  33.777   5.642
 3992POPC   GL252226  15.673  33.936   5.743
 3992POPC   C1A52227  16.093  33.822   6.073
 3992POPC   D2A52228  16.226  33.919   6.474
 3992POPC   C3A52229  15.998  33.775   6.836
 3992POPC   C4A52230  16.058  33.843   7.256
 3992POPC   C1B52231  15.696  34.115   6.207
 3992POPC   C2B52232  15.526  34.093   6.638
 3992POPC   C3B52233  15.562  33.971   7.065
 3992POPC   C4B52234  15.565  34.054   7.508
 3993POPC   NC352235  12.718   7.813   4.979
 3993POPC   PO452236  12.561   8.362   5.389
 3993POPC   GL152237  12.734   8.240   5.721
 3993POPC   GL252238  12.887   7.955   5.593
 3993POPC   C1A52239  12.855   8.385   6.128
 3993POPC   D2A52240  12.651   8.503   6.523
 3993POPC   C3A52241  12.840   8.264   6.882
 3993POPC   C4A52242  12.684   8.239   7.313
 3993POPC   C1B52243  12.982   7.903   6.017
 3993POPC   C2B52244  12.888   7.965   6.438
 3993POPC   C3B52245  13.030   7.761   6.790
 3993POPC   C4B52246  13.025   7.864   7.230
 3994POPC   NC352247  33.453  35.769   5.538
 3994POPC   PO452248  33.871  35.198   5.336
 3994POPC   GL152249  33.783  35.339   5.749
 3994POPC   GL252250  33.835  35.021   5.921
 3994POPC   C1A52251  33.830  35.666   6.096
 3994POPC   D2A52252  33.668  35.708   6.531
 3994POPC   C3A52253  33.905  35.496   6.863
 3994POPC   C4A52254  34.044  35.486   7.280
 3994POPC   C1B52255  33.968  35.191   6.325
 3994POPC   C2B52256  33.989  34.984   6.709
 3994POPC   C3B52257  33.798  35.050   7.141
 3994POPC   C4B52258  33.818  35.127   7.604
 3995POPC   NC352259  13.548  40.164   5.508
 3995POPC   PO452260  14.028  39.656   5.427
 3995POPC   GL152261  13.668  39.784   5.820
 3995POPC   GL252262  13.589  40.150   6.010
 3995POPC   C1A52263  13.276  39.792   6.113
 3995POPC   D2A52264  13.362  40.030   6.490
 3995POPC   C3A52265  13.574  39.910   6.870
 3995POPC   C4A52266  13.642  39.879   7.304
 3995POPC   C1B52267  13.850  40.139   6.362
 3995POPC   C2B52268  13.771  40.373   6.739
 3995POPC   C3B52269  13.929  40.278   7.166
 3995POPC   C4B52270  14.035  40.186   7.599
 3996POPC   NC352271   6.606  30.475   5.580
 3996POPC   PO452272   7.034  30.971   5.330
 3996POPC   GL152273   6.848  30.900   5.768
 3996POPC   GL252274   6.480  30.913   5.860
 3996POPC   C1A52275   6.859  30.926   6.228
 3996POPC   D2A52276   6.627  30.962   6.643
 3996POPC   C3A52277   6.760  30.776   7.023
 3996POPC   C4A52278   6.518  30.505   7.262
 3996POPC   C1B52279   6.387  30.706   6.264
 3996POPC   C2B52280   6.524  30.447   6.643
 3996POPC   C3B52281   6.389  30.131   6.938
 3996POPC   C4B52282   6.435  30.004   7.364
 3997POPC   NC352283   7.249  24.068   5.494
 3997POPC   PO452284   7.615  23.494   5.377
 3997POPC   GL152285   7.387  23.611   5.724
 3997POPC   GL252286   7.681  23.799   5.820
 3997POPC   C1A52287   7.273  23.728   6.139
 3997POPC   D2A52288   6.985  23.835   6.448
 3997POPC   C3A52289   7.151  23.718   6.857
 3997POPC   C4A52290   7.160  23.389   7.137
 3997POPC   C1B52291   7.688  24.046   6.183
 3997POPC   C2B52292   7.482  23.987   6.568
 3997POPC   C3B52293   7.648  23.817   6.947
 3997POPC   C4B52294   7.920  24.056   7.165
 3998POPC   NC352295  33.684  11.428   5.506
 3998POPC   PO452296  33.200  11.045   5.728
 3998POPC   GL152297  33.597  11.137   5.909
 3998POPC   GL252298  33.977  11.110   5.791
 3998POPC   C1A52299  33.784  11.226   6.283
 3998POPC   D2A52300  33.762  11.483   6.617
 3998POPC   C3A52301  33.807  11.273   6.958
 3998POPC   C4A52302  33.611  10.949   7.205
 3998POPC   C1B52303  34.261  11.086   6.161
 3998POPC   C2B52304  34.227  11.248   6.599
 3998POPC   C3B52305  34.230  11.028   7.015
 3998POPC   C4B52306  34.010  11.119   7.456
 3999POPC   NC352307  35.165  33.377   5.628
 3999POPC   PO452308  35.334  32.785   5.569
 3999POPC   GL152309  35.277  32.904   5.952
 3999POPC   GL252310  34.923  32.971   5.922
 3999POPC   C1A52311  35.566  32.711   6.232
 3999POPC   D2A52312  35.789  32.834   6.575
 3999POPC   C3A52313  35.526  32.934   6.912
 3999POPC   C4A52314  35.547  33.285   7.170
 3999POPC   C1B52315  35.034  33.273   6.266
 3999POPC   C2B52316  34.976  33.369   6.687
 3999POPC   C3B52317  35.050  33.235   7.118
 3999POPC   C4B52318  35.223  32.861   7.334
 4000POPC   NC352319  23.840  36.181   5.330
 4000POPC   PO452320  23.222  36.066   5.614
 4000POPC   GL152321  23.608  36.314   5.783
 4000POPC   GL252322  23.856  36.037   5.820
 4000POPC   C1A52323  23.790  36.420   6.207
 4000POPC   D2A52324  23.565  36.319   6.581
 4000POPC   C3A52325  23.703  36.300   7.007
 4000POPC   C4A52326  23.451  36.036   7.266
 4000POPC   C1B52327  23.751  35.916   6.227
 4000POPC   C2B52328  23.826  35.638   6.556
 4000POPC   C3B52329  23.676  35.671   6.950
 4000POPC   C4B52330  23.693  35.593   7.357
 4001POPC   NC352331   2.667  43.820   5.360
 4001POPC   PO452332   3.155  43.599   5.754
 4001POPC   GL152333   2.712  43.638   5.851
 4001POPC   GL252334   2.530  43.975   5.826
 4001POPC   C1A52335   2.576  43.512   6.250
 4001POPC   D2A52336   2.633  43.582   6.678
 4001POPC   C3A52337   2.906  43.836   6.901
 4001POPC   C4A52338   2.733  43.642   7.238
 4001POPC   C1B52339   2.661  44.036   6.258
 4001POPC   C2B52340   2.541  44.144   6.682
 4001POPC   C3B52341   2.549  44.122   7.129
 4001POPC   C4B52342   2.458  44.136   7.583
 4002POPC   NC352343  16.028  39.796   5.190
 4002POPC   PO452344  15.982  39.201   5.444
 4002POPC   GL152345  15.863  39.156   5.855
 4002POPC   GL252346  15.815  39.476   6.033
 4002POPC   C1A52347  15.634  39.003   6.209
 4002POPC   D2A52348  15.884  39.025   6.587
 4002POPC   C3A52349  15.848  39.352   6.885
 4002POPC   C4A52350  15.617  39.339   7.276
 4002POPC   C1B52351  16.219  39.521   6.245
 4002POPC   C2B52352  16.499  39.377   6.589
 4002POPC   C3B52353  16.472  39.538   7.025
 4002POPC   C4B52354  16.095  39.579   7.272
 4003POPC   NC352355  28.070  24.430   5.502
 4003POPC   PO452356  28.631  24.753   5.487
 4003POPC   GL152357  28.507  24.368   5.772
 4003POPC   GL252358  28.171  24.358   5.988
 4003POPC   C1A52359  28.613  24.192   6.183
 4003POPC   D2A52360  28.705  24.373   6.603
 4003POPC   C3A52361  28.557  24.192   7.001
 4003POPC   C4A52362  28.789  24.061   7.374
 4003POPC   C1B52363  28.365  24.689   6.208
 4003POPC   C2B52364  28.312  24.830   6.626
 4003POPC   C3B52365  28.083  24.652   6.955
 4003POPC   C4B52366  28.126  24.463   7.383
 4004POPC   NC352367  11.494  37.543   5.298
 4004POPC   PO452368  11.542  36.961   5.274
 4004POPC   GL152369  11.367  37.011   5.704
 4004POPC   GL252370  11.029  37.060   5.762
 4004POPC   C1A52371  11.310  36.783   6.114
 4004POPC   D2A52372  11.281  36.648   6.538
 4004POPC   C3A52373  11.201  36.809   6.925
 4004POPC   C4A52374  11.298  36.611   7.296
 4004POPC   C1B52375  10.913  37.074   6.198
 4004POPC   C2B52376  10.802  36.935   6.586
 4004POPC   C3B52377  10.793  37.163   6.967
 4004POPC   C4B52378  10.981  37.113   7.377
 4005POPC   NC352379  13.146  11.655   5.354
 4005POPC   PO452380  12.715  12.172   5.412
 4005POPC   GL152381  12.664  12.367   5.822
 4005POPC   GL252382  12.611  12.021   5.936
 4005POPC   C1A52383  12.629  12.370   6.287
 4005POPC   D2A52384  12.865  12.147   6.601
 4005POPC   C3A52385  12.763  12.106   7.025
 4005POPC   C4A52386  12.495  12.430   7.167
 4005POPC   C1B52387  13.053  12.005   6.134
 4005POPC   C2B52388  13.240  11.836   6.529
 4005POPC   C3B52389  13.242  11.932   6.934
 4005POPC   C4B52390  13.157  11.813   7.363
 4006POPC   NC352391  20.369  31.001   5.499
 4006POPC   PO452392  20.991  30.770   5.470
 4006POPC   GL152393  20.804  30.593   5.851
 4006POPC   GL252394  20.511  30.770   5.934
 4006POPC   C1A52395  20.718  30.434   6.279
 4006POPC   D2A52396  21.007  30.345   6.615
 4006POPC   C3A52397  20.822  30.396   7.015
 4006POPC   C4A52398  20.523  30.562   7.312
 4006POPC   C1B52399  20.739  31.005   6.253
 4006POPC   C2B52400  20.840  30.876   6.685
 4006POPC   C3B52401  20.641  31.001   7.072
 4006POPC   C4B52402  20.170  31.013   7.134
 4007POPC   NC352403  38.277  35.209   5.496
 4007POPC   PO452404  38.690  35.721   5.513
 4007POPC   GL152405  38.632  35.471   5.812
 4007POPC   GL252406  38.767  35.122   5.734
 4007POPC   C1A52407  38.323  35.572   6.144
 4007POPC   D2A52408  38.264  35.444   6.564
 4007POPC   C3A52409  38.249  35.700   6.918
 4007POPC   C4A52410  38.379  35.618   7.327
 4007POPC   C1B52411  38.594  35.109   6.152
 4007POPC   C2B52412  38.671  35.102   6.575
 4007POPC   C3B52413  38.489  35.215   6.963
 4007POPC   C4B52414  38.439  35.055   7.342
 4008POPC   NC352415  26.844  17.272   5.668
 4008POPC   PO452416  27.325  17.746   5.646
 4008POPC   GL152417  27.058  17.629   5.981
 4008POPC   GL252418  27.047  17.272   6.135
 4008POPC   C1A52419  26.922  17.689   6.400
 4008POPC   D2A52420  26.818  17.424   6.721
 4008POPC   C3A52421  27.019  17.491   7.090
 4008POPC   C4A52422  26.921  17.514   7.525
 4008POPC   C1B52423  26.591  17.246   6.286
 4008POPC   C2B52424  26.432  17.093   6.699
 4008POPC   C3B52425  26.541  17.304   7.133
 4008POPC   C4B52426  26.506  17.244   7.577
 4009POPC   NC352427  35.021  21.507   5.475
 4009POPC   PO452428  35.633  21.232   5.410
 4009POPC   GL152429  35.448  21.237   5.837
 4009POPC   GL252430  35.109  21.131   5.847
 4009POPC   C1A52431  35.310  21.474   6.250
 4009POPC   D2A52432  35.317  21.710   6.683
 4009POPC   C3A52433  35.509  21.519   7.050
 4009POPC   C4A52434  35.486  21.363   7.444
 4009POPC   C1B52435  34.883  21.154   6.240
 4009POPC   C2B52436  34.928  20.984   6.679
 4009POPC   C3B52437  35.072  21.188   7.065
 4009POPC   C4B52438  34.998  21.514   7.336
 4010POPC   NC352439  41.988  26.858   5.231
 4010POPC   PO452440  42.604  27.108   5.456
 4010POPC   GL152441  42.265  26.865   5.673
 4010POPC   GL252442  42.314  26.544   5.525
 4010POPC   C1A52443  42.208  26.903   6.154
 4010POPC   D2A52444  42.524  26.763   6.511
 4010POPC   C3A52445  42.522  26.876   6.951
 4010POPC   C4A52446  42.233  27.208   7.119
 4010POPC   C1B52447  42.257  26.430   5.975
 4010POPC   C2B52448  42.075  26.479   6.399
 4010POPC   C3B52449  42.099  26.629   6.809
 4010POPC   C4B52450  42.154  26.465   7.207
 4011POPC   NC352451  33.704  29.140   5.414
 4011POPC   PO452452  34.298  29.366   5.190
 4011POPC   GL152453  34.130  29.478   5.662
 4011POPC   GL252454  33.837  29.301   5.873
 4011POPC   C1A52455  34.179  29.561   6.130
 4011POPC   D2A52456  33.912  29.301   6.416
 4011POPC   C3A52457  33.925  29.254   6.857
 4011POPC   C4A52458  33.943  29.124   7.270
 4011POPC   C1B52459  33.465  29.196   6.169
 4011POPC   C2B52460  33.241  29.152   6.592
 4011POPC   C3B52461  33.420  29.154   7.012
 4011POPC   C4B52462  33.483  29.088   7.472
 4012POPC   NC352463  34.989  26.388   5.453
 4012POPC   PO452464  34.543  26.985   5.360
 4012POPC   GL152465  34.681  27.057   5.798
 4012POPC   GL252466  34.797  26.690   5.882
 4012POPC   C1A52467  34.753  27.017   6.272
 4012POPC   D2A52468  34.681  26.705   6.584
 4012POPC   C3A52469  34.569  26.819   6.996
 4012POPC   C4A52470  34.195  26.747   7.227
 4012POPC   C1B52471  34.842  26.357   6.246
 4012POPC   C2B52472  35.002  26.334   6.718
 4012POPC   C3B52473  34.951  26.508   7.165
 4012POPC   C4B52474  34.833  26.255   7.606
 4013POPC   NC352475   9.310  21.369   5.333
 4013POPC   PO452476   9.905  21.478   5.231
 4013POPC   GL152477   9.860  21.535   5.680
 4013POPC   GL252478   9.501  21.668   5.791
 4013POPC   C1A52479   9.881  21.542   6.115
 4013POPC   D2A52480   9.715  21.299   6.458
 4013POPC   C3A52481   9.735  21.442   6.870
 4013POPC   C4A52482   9.857  21.445   7.303
 4013POPC   C1B52483   9.382  21.645   6.273
 4013POPC   C2B52484   9.376  21.787   6.733
 4013POPC   C3B52485   9.327  21.539   7.171
 4013POPC   C4B52486   9.509  21.644   7.613
 4014POPC   NC352487  40.543  31.013   5.688
 4014POPC   PO452488  40.958  30.734   5.273
 4014POPC   GL152489  40.907  30.601   5.687
 4014POPC   GL252490  40.602  30.442   5.776
 4014POPC   C1A52491  40.992  30.608   6.132
 4014POPC   D2A52492  40.834  30.748   6.546
 4014POPC   C3A52493  41.068  30.620   6.920
 4014POPC   C4A52494  40.950  30.762   7.330
 4014POPC   C1B52495  40.509  30.430   6.200
 4014POPC   C2B52496  40.388  30.488   6.634
 4014POPC   C3B52497  40.559  30.663   7.014
 4014POPC   C4B52498  40.547  30.468   7.455
 4015POPC   NC352499  11.377  20.865   5.091
 4015POPC   PO452500  10.966  20.445   5.418
 4015POPC   GL152501  11.256  20.420   5.760
 4015POPC   GL252502  11.462  20.712   5.838
 4015POPC   C1A52503  11.319  20.396   6.203
 4015POPC   D2A52504  11.202  20.610   6.570
 4015POPC   C3A52505  11.264  20.406   6.937
 4015POPC   C4A52506  11.340  20.554   7.335
 4015POPC   C1B52507  11.394  20.943   6.202
 4015POPC   C2B52508  11.557  20.990   6.584
 4015POPC   C3B52509  11.377  20.919   6.977
 4015POPC   C4B52510  11.664  20.975   7.314
 4016POPC   NC352511   8.392  44.750   4.865
 4016POPC   PO452512   8.229  44.311   5.331
 4016POPC   GL152513   8.012  44.511   5.817
 4016POPC   GL252514   8.231  44.767   6.001
 4016POPC   C1A52515   7.979  44.523   6.346
 4016POPC   D2A52516   8.352  44.661   6.583
 4016POPC   C3A52517   8.307  44.977   6.895
 4016POPC   C4A52518   7.988   0.005   7.242
 4016POPC   C1B52519   8.007   0.031   6.358
 4016POPC   C2B52520   7.992   0.336   6.710
 4016POPC   C3B52521   8.210   0.433   7.101
 4016POPC   C4B52522   8.491   0.130   7.361
 4017POPC   NC352523  18.751  13.230   5.512
 4017POPC   PO452524  18.933  13.854   5.332
 4017POPC   GL152525  18.977  13.635   5.743
 4017POPC   GL252526  19.126  13.918   5.838
 4017POPC   C1A52527  19.126  13.534   6.187
 4017POPC   D2A52528  19.150  13.283   6.597
 4017POPC   C3A52529  18.992  13.516   6.978
 4017POPC   C4A52530  19.065  13.678   7.389
 4017POPC   C1B52531  18.801  14.007   6.118
 4017POPC   C2B52532  18.815  14.082   6.565
 4017POPC   C3B52533  19.004  14.100   6.970
 4017POPC   C4B52534  19.182  14.159   7.355
 4018POPC   NC352535  14.891  18.614   5.370
 4018POPC   PO452536  15.471  18.409   5.280
 4018POPC   GL152537  15.309  18.204   5.711
 4018POPC   GL252538  14.930  18.149   5.753
 4018POPC   C1A52539  15.477  18.173   6.174
 4018POPC   D2A52540  15.416  18.039   6.620
 4018POPC   C3A52541  15.585  18.242   7.017
 4018POPC   C4A52542  15.432  18.440   7.426
 4018POPC   C1B52543  14.893  17.955   6.202
 4018POPC   C2B52544  14.852  18.051   6.670
 4018POPC   C3B52545  15.075  18.159   7.054
 4018POPC   C4B52546  14.991  18.172   7.474
 4019POPC   NC352547   1.294  41.364   5.371
 4019POPC   PO452548   1.596  41.969   5.437
 4019POPC   GL152549   1.463  41.682   5.795
 4019POPC   GL252550   1.108  41.590   5.785
 4019POPC   C1A52551   1.374  41.511   6.229
 4019POPC   D2A52552   1.416  41.235   6.595
 4019POPC   C3A52553   1.264  41.437   6.962
 4019POPC   C4A52554   1.363  41.857   7.061
 4019POPC   C1B52555   0.859  41.458   6.130
 4019POPC   C2B52556   0.939  41.575   6.542
 4019POPC   C3B52557   0.768  41.518   6.931
 4019POPC   C4B52558   0.882  41.278   7.294
 4020POPC   NC352559  39.725  25.451   5.437
 4020POPC   PO452560  40.178  24.945   5.624
 4020POPC   GL152561  39.782  25.062   5.845
 4020POPC   GL252562  39.708  25.431   5.956
 4020POPC   C1A52563  39.743  25.051   6.291
 4020POPC   D2A52564  39.881  25.271   6.663
 4020POPC   C3A52565  40.159  25.041   6.952
 4020POPC   C4A52566  39.999  25.155   7.332
 4020POPC   C1B52567  40.125  25.435   6.221
 4020POPC   C2B52568  40.343  25.528   6.660
 4020POPC   C3B52569  40.293  25.516   7.134
 4020POPC   C4B52570  40.352  25.556   7.627
 4021POPC   NC352571   8.679   5.455   5.356
 4021POPC   PO452572   8.507   4.689   5.388
 4021POPC   GL152573   8.384   5.085   5.654
 4021POPC   GL252574   8.034   5.112   5.855
 4021POPC   C1A52575   8.461   5.172   6.132
 4021POPC   D2A52576   8.241   4.983   6.505
 4021POPC   C3A52577   8.444   4.766   6.857
 4021POPC   C4A52578   8.352   4.713   7.288
 4021POPC   C1B52579   7.956   5.347   6.210
 4021POPC   C2B52580   8.251   5.504   6.524
 4021POPC   C3B52581   8.251   5.331   6.908
 4021POPC   C4B52582   7.947   5.347   7.273
 4022POPC   NC352583  39.248   5.563   5.212
 4022POPC   PO452584  39.465   6.103   5.544
 4022POPC   GL152585  39.232   5.984   5.841
 4022POPC   GL252586  39.155   5.629   5.733
 4022POPC   C1A52587  39.237   6.129   6.268
 4022POPC   D2A52588  38.957   6.133   6.607
 4022POPC   C3A52589  39.157   6.014   6.963
 4022POPC   C4A52590  39.015   5.735   7.210
 4022POPC   C1B52591  39.312   5.613   6.163
 4022POPC   C2B52592  39.329   5.722   6.587
 4022POPC   C3B52593  39.483   5.624   6.990
 4022POPC   C4B52594  39.536   5.281   7.254
 4023POPC   NC352595  31.974  17.434   5.566
 4023POPC   PO452596  31.306  17.609   5.435
 4023POPC   GL152597  31.339  17.823   5.821
 4023POPC   GL252598  31.642  17.677   5.845
 4023POPC   C1A52599  31.197  17.827   6.258
 4023POPC   D2A52600  31.317  17.898   6.697
 4023POPC   C3A52601  31.310  17.558   6.988
 4023POPC   C4A52602  31.218  17.163   7.166
 4023POPC   C1B52603  31.626  17.496   6.275
 4023POPC   C2B52604  31.595  17.249   6.678
 4023POPC   C3B52605  31.715  17.257   7.112
 4023POPC   C4B52606  31.619  17.565   7.430
 4024POPC   NC352607  20.301  10.454   5.129
 4024POPC   PO452608  20.849  10.739   5.120
 4024POPC   GL152609  20.633  10.435   5.531
 4024POPC   GL252610  20.311  10.444   5.734
 4024POPC   C1A52611  20.755  10.395   6.017
 4024POPC   D2A52612  20.883  10.397   6.459
 4024POPC   C3A52613  20.649  10.311   6.838
 4024POPC   C4A52614  20.654  10.527   7.240
 4024POPC   C1B52615  20.317  10.575   6.216
 4024POPC   C2B52616  20.165  10.564   6.669
 4024POPC   C3B52617  20.286  10.816   7.037
 4024POPC   C4B52618  20.442  10.879   7.521
 4025POPC   NC352619  11.648  12.481   5.502
 4025POPC   PO452620  12.217  12.868   5.317
 4025POPC   GL152621  12.059  12.864   5.770
 4025POPC   GL252622  11.885  13.196   5.862
 4025POPC   C1A52623  12.208  12.655   6.168
 4025POPC   D2A52624  12.002  12.574   6.581
 4025POPC   C3A52625  12.145  12.763   6.970
 4025POPC   C4A52626  12.091  12.655   7.445
 4025POPC   C1B52627  11.790  12.923   6.256
 4025POPC   C2B52628  11.647  12.970   6.698
 4025POPC   C3B52629  11.734  12.989   7.168
 4025POPC   C4B52630  11.712  13.041   7.647
 4026POPC   NC352631  32.380  41.876   5.320
 4026POPC   PO452632  32.076  41.323   5.335
 4026POPC   GL152633  32.163  41.526   5.743
 4026POPC   GL252634  32.378  41.822   5.835
 4026POPC   C1A52635  32.145  41.524   6.210
 4026POPC   D2A52636  32.392  41.467   6.587
 4026POPC   C3A52637  32.115  41.388   6.929
 4026POPC   C4A52638  32.012  41.527   7.328
 4026POPC   C1B52639  32.500  41.926   6.236
 4026POPC   C2B52640  32.287  42.024   6.597
 4026POPC   C3B52641  32.368  41.847   6.947
 4026POPC   C4B52642  32.503  41.633   7.295
 4027POPC   NC352643  37.550  15.459   5.577
 4027POPC   PO452644  38.157  15.350   5.433
 4027POPC   GL152645  37.972  15.147   5.837
 4027POPC   GL252646  37.615  15.053   5.880
 4027POPC   C1A52647  37.937  14.967   6.280
 4027POPC   D2A52648  37.857  15.174   6.713
 4027POPC   C3A52649  37.776  14.951   7.130
 4027POPC   C4A52650  37.956  14.958   7.566
 4027POPC   C1B52651  37.606  15.365   6.251
 4027POPC   C2B52652  37.407  15.427   6.687
 4027POPC   C3B52653  37.619  15.464   7.106
 4027POPC   C4B52654  37.561  15.264   7.507
 4028POPC   NC352655  38.710  37.557   5.671
 4028POPC   PO452656  38.162  37.894   5.784
 4028POPC   GL152657  38.300  37.552   6.028
 4028POPC   GL252658  38.295  37.256   5.810
 4028POPC   C1A52659  38.356  37.437   6.472
 4028POPC   D2A52660  38.173  37.280   6.830
 4028POPC   C3A52661  38.244  37.670   7.056
 4028POPC   C4A52662  38.537  38.038   7.179
 4028POPC   C1B52663  38.601  37.140   6.161
 4028POPC   C2B52664  38.823  37.165   6.538
 4028POPC   C3B52665  38.683  37.351   6.899
 4028POPC   C4B52666  38.728  37.549   7.278
 4029POPC   NC352667  38.480  39.764   5.396
 4029POPC   PO452668  39.014  39.502   5.754
 4029POPC   GL152669  38.757  39.914   5.833
 4029POPC   GL252670  38.376  39.969   5.851
 4029POPC   C1A52671  38.706  40.248   6.175
 4029POPC   D2A52672  38.499  40.225   6.590
 4029POPC   C3A52673  38.710  40.094   6.956
 4029POPC   C4A52674  38.672  39.654   7.079
 4029POPC   C1B52675  38.184  40.246   6.161
 4029POPC   C2B52676  38.018  40.354   6.600
 4029POPC   C3B52677  38.163  40.145   7.001
 4029POPC   C4B52678  37.978  39.912   7.348
 4030POPC   NC352679  13.746  23.246   5.480
 4030POPC   PO452680  13.787  23.890   5.464
 4030POPC   GL152681  13.561  23.670   5.761
 4030POPC   GL252682  13.837  23.526   5.895
 4030POPC   C1A52683  13.386  23.622   6.189
 4030POPC   D2A52684  13.472  23.884   6.569
 4030POPC   C3A52685  13.367  23.690   6.962
 4030POPC   C4A52686  13.568  23.736   7.339
 4030POPC   C1B52687  13.848  23.836   6.227
 4030POPC   C2B52688  14.077  23.905   6.602
 4030POPC   C3B52689  13.939  23.745   6.971
 4030POPC   C4B52690  14.040  23.545   7.348
 4031POPC   NC352691  33.930   3.261   5.397
 4031POPC   PO452692  33.670   3.831   5.115
 4031POPC   GL152693  33.597   3.680   5.576
 4031POPC   GL252694  33.951   3.657   5.722
 4031POPC   C1A52695  33.607   3.725   6.080
 4031POPC   D2A52696  33.760   3.532   6.493
 4031POPC   C3A52697  33.800   3.623   6.939
 4031POPC   C4A52698  33.641   3.396   7.279
 4031POPC   C1B52699  34.001   3.340   6.068
 4031POPC   C2B52700  34.230   3.303   6.470
 4031POPC   C3B52701  34.375   3.319   6.906
 4031POPC   C4B52702  34.190   3.370   7.299
 4032POPC   NC352703   9.684  25.066   5.287
 4032POPC   PO452704   9.543  25.657   5.550
 4032POPC   GL152705   9.694  25.286   5.744
 4032POPC   GL252706   9.384  25.098   5.712
 4032POPC   C1A52707   9.813  25.160   6.161
 4032POPC   D2A52708   9.933  25.421   6.506
 4032POPC   C3A52709   9.838  25.299   6.918
 4032POPC   C4A52710   9.863  25.386   7.348
 4032POPC   C1B52711   9.313  25.297   6.120
 4032POPC   C2B52712   9.452  25.179   6.546
 4032POPC   C3B52713   9.320  25.298   6.959
 4032POPC   C4B52714   9.405  25.174   7.377
 4033POPC   NC352715   0.125  27.782   5.433
 4033POPC   PO452716   0.400  27.158   5.394
 4033POPC   GL152717   0.309  27.344   5.763
 4033POPC   GL252718   0.544  27.647   5.762
 4033POPC   C1A52719   0.317  27.454   6.185
 4033POPC   D2A52720   0.133  27.547   6.561
 4033POPC   C3A52721   0.229  27.333   6.939
 4033POPC   C4A52722   0.178  27.602   7.270
 4033POPC   C1B52723   0.803  27.393   6.056
 4033POPC   C2B52724   0.737  27.421   6.510
 4033POPC   C3B52725   0.657  27.623   6.908
 4033POPC   C4B52726   0.706  27.476   7.316
 4034POPC   NC352727   9.050   3.585   5.364
 4034POPC   PO452728   8.960   2.955   5.406
 4034POPC   GL152729   8.801   3.247   5.790
 4034POPC   GL252730   9.002   3.545   5.884
 4034POPC   C1A52731   8.814   3.254   6.285
 4034POPC   D2A52732   8.819   3.178   6.777
 4034POPC   C3A52733   9.170   3.321   7.091
 4034POPC   C4A52734   9.141   3.497   7.559
 4034POPC   C1B52735   9.190   3.616   6.308
 4034POPC   C2B52736   9.122   3.713   6.709
 4034POPC   C3B52737   8.778   3.711   6.925
 4034POPC   C4B52738   8.715   3.448   7.262
 4035POPC   NC352739  12.666   4.639   4.980
 4035POPC   PO452740  12.717   4.038   5.372
 4035POPC   GL152741  12.860   4.189   5.786
 4035POPC   GL252742  13.188   4.033   5.718
 4035POPC   C1A52743  12.759   4.348   6.223
 4035POPC   D2A52744  12.551   4.186   6.617
 4035POPC   C3A52745  12.624   4.306   7.063
 4035POPC   C4A52746  12.528   4.175   7.498
 4035POPC   C1B52747  13.240   3.981   6.168
 4035POPC   C2B52748  13.102   4.158   6.584
 4035POPC   C3B52749  13.152   4.245   7.023
 4035POPC   C4B52750  13.006   4.317   7.448
 4036POPC   NC352751  26.826  39.021   5.494
 4036POPC   PO452752  26.480  39.485   5.297
 4036POPC   GL152753  26.752  39.413   5.787
 4036POPC   GL252754  26.668  39.075   5.954
 4036POPC   C1A52755  27.005  39.288   6.233
 4036POPC   D2A52756  27.086  38.997   6.582
 4036POPC   C3A52757  27.036  39.233   6.924
 4036POPC   C4A52758  26.933  39.536   7.253
 4036POPC   C1B52759  26.702  38.822   6.299
 4036POPC   C2B52760  26.635  38.723   6.707
 4036POPC   C3B52761  26.813  38.810   7.088
 4036POPC   C4B52762  26.813  39.067   7.420
 4037POPC   NC352763  24.462  35.044   5.510
 4037POPC   PO452764  24.795  35.612   5.343
 4037POPC   GL152765  24.584  35.530   5.773
 4037POPC   GL252766  24.244  35.499   5.718
 4037POPC   C1A52767  24.506  35.249   6.183
 4037POPC   D2A52768  24.697  35.204   6.643
 4037POPC   C3A52769  24.464  35.264   7.042
 4037POPC   C4A52770  24.361  35.097   7.474
 4037POPC   C1B52771  24.200  35.650   6.146
 4037POPC   C2B52772  24.332  35.575   6.589
 4037POPC   C3B52773  24.187  35.706   7.012
 4037POPC   C4B52774  24.199  35.590   7.445
 4038POPC   NC352775  18.088  36.458   5.502
 4038POPC   PO452776  18.659  36.093   5.337
 4038POPC   GL152777  18.421  36.163   5.743
 4038POPC   GL252778  18.305  35.847   5.953
 4038POPC   C1A52779  18.255  36.309   6.149
 4038POPC   D2A52780  18.258  36.041   6.527
 4038POPC   C3A52781  18.187  36.222   6.919
 4038POPC   C4A52782  18.068  36.406   7.306
 4038POPC   C1B52783  17.887  35.948   6.182
 4038POPC   C2B52784  17.709  36.046   6.595
 4038POPC   C3B52785  17.808  35.893   7.018
 4038POPC   C4B52786  18.226  35.710   7.115
 4039POPC   NC352787  12.336  30.529   5.460
 4039POPC   PO452788  12.094  31.173   5.454
 4039POPC   GL152789  12.078  30.854   5.742
 4039POPC   GL252790  11.747  30.760   5.765
 4039POPC   C1A52791  12.334  30.748   6.096
 4039POPC   D2A52792  12.196  30.663   6.511
 4039POPC   C3A52793  12.394  30.820   6.864
 4039POPC   C4A52794  12.331  30.574   7.227
 4039POPC   C1B52795  11.873  30.510   6.135
 4039POPC   C2B52796  11.889  30.256   6.530
 4039POPC   C3B52797  11.915  30.421   6.958
 4039POPC   C4B52798  11.771  30.506   7.390
 4040POPC   NC352799   0.307  36.532   5.512
 4040POPC   PO452800   0.294  35.954   5.602
 4040POPC   GL152801   0.508  36.243   5.894
 4040POPC   GL252802   0.881  36.212   5.871
 4040POPC   C1A52803   0.251  36.180   6.263
 4040POPC   D2A52804  44.819  36.138   6.433
 4040POPC   C3A52805  44.857  35.986   6.853
 4040POPC   C4A52806   0.186  36.083   7.140
 4040POPC   C1B52807   0.743  36.052   6.320
 4040POPC   C2B52808   0.520  35.986   6.741
 4040POPC   C3B52809   0.709  36.118   7.166
 4040POPC   C4B52810   0.886  36.155   7.610
 4041POPC   NC352811  11.173  21.712   5.208
 4041POPC   PO452812  11.706  22.102   5.366
 4041POPC   GL152813  11.428  22.030   5.712
 4041POPC   GL252814  11.557  21.710   5.735
 4041POPC   C1A52815  11.249  22.121   6.164
 4041POPC   D2A52816  11.089  21.923   6.560
 4041POPC   C3A52817  11.107  22.165   6.949
 4041POPC   C4A52818  11.542  22.317   7.091
 4041POPC   C1B52819  11.710  21.905   6.123
 4041POPC   C2B52820  11.748  22.040   6.544
 4041POPC   C3B52821  11.605  21.849   6.909
 4041POPC   C4B52822  11.352  21.859   7.268
 4042POPC   NC352823  36.550  27.469   5.432
 4042POPC   PO452824  35.903  27.420   5.336
 4042POPC   GL152825  35.827  27.296   5.760
 4042POPC   GL252826  36.163  27.156   5.799
 4042POPC   C1A52827  35.836  27.509   6.144
 4042POPC   D2A52828  36.094  27.529   6.499
 4042POPC   C3A52829  35.963  27.653   6.938
 4042POPC   C4A52830  36.253  27.656   7.287
 4042POPC   C1B52831  36.045  27.036   6.227
 4042POPC   C2B52832  36.137  27.042   6.658
 4042POPC   C3B52833  36.191  27.208   7.054
 4042POPC   C4B52834  35.876  27.334   7.403
 4043POPC   NC352835  13.509  34.192   5.618
 4043POPC   PO452836  13.572  33.655   5.239
 4043POPC   GL152837  13.767  33.730   5.651
 4043POPC   GL252838  13.513  33.558   5.833
 4043POPC   C1A52839  13.868  33.777   6.130
 4043POPC   D2A52840  13.673  33.735   6.588
 4043POPC   C3A52841  13.946  33.743   6.999
 4043POPC   C4A52842  13.925  33.695   7.493
 4043POPC   C1B52843  13.363  33.847   6.166
 4043POPC   C2B52844  13.258  34.081   6.540
 4043POPC   C3B52845  13.239  33.866   6.928
 4043POPC   C4B52846  13.499  33.817   7.275
 4044POPC   NC352847   5.550  37.246   5.334
 4044POPC   PO452848   4.931  37.016   5.366
 4044POPC   GL152849   5.172  36.949   5.720
 4044POPC   GL252850   5.339  37.235   5.805
 4044POPC   C1A52851   5.245  36.676   6.085
 4044POPC   D2A52852   5.289  36.762   6.523
 4044POPC   C3A52853   4.988  36.768   6.860
 4044POPC   C4A52854   5.145  36.663   7.270
 4044POPC   C1B52855   5.081  37.157   6.193
 4044POPC   C2B52856   5.214  37.265   6.638
 4044POPC   C3B52857   5.316  37.112   7.064
 4044POPC   C4B52858   5.328  37.090   7.514
 4045POPC   NC352859   9.886  30.598   5.457
 4045POPC   PO452860   9.521  31.137   5.265
 4045POPC   GL152861   9.647  31.009   5.704
 4045POPC   GL252862   9.493  30.654   5.792
 4045POPC   C1A52863   9.892  30.849   6.085
 4045POPC   D2A52864   9.724  30.551   6.409
 4045POPC   C3A52865   9.703  30.640   6.853
 4045POPC   C4A52866   9.978  30.533   7.206
 4045POPC   C1B52867   9.407  30.909   6.168
 4045POPC   C2B52868   9.597  31.088   6.539
 4045POPC   C3B52869   9.678  31.191   6.970
 4045POPC   C4B52870   9.672  30.907   7.322
 4046POPC   NC352871   0.947   6.987   5.199
 4046POPC   PO452872   1.632   7.046   5.471
 4046POPC   GL152873   1.379   6.779   5.761
 4046POPC   GL252874   1.225   6.428   5.776
 4046POPC   C1A52875   1.143   6.769   6.148
 4046POPC   D2A52876   1.141   6.564   6.530
 4046POPC   C3A52877   1.192   6.769   6.932
 4046POPC   C4A52878   1.064   7.064   7.234
 4046POPC   C1B52879   1.429   6.278   6.179
 4046POPC   C2B52880   1.419   6.149   6.642
 4046POPC   C3B52881   1.488   6.348   7.049
 4046POPC   C4B52882   1.429   6.326   7.495
 4047POPC   NC352883  27.063  15.641   5.558
 4047POPC   PO452884  26.734  14.974   5.442
 4047POPC   GL152885  26.733  15.004   5.866
 4047POPC   GL252886  26.881  15.338   5.942
 4047POPC   C1A52887  26.680  15.044   6.311
 4047POPC   D2A52888  26.887  15.307   6.589
 4047POPC   C3A52889  26.763  15.120   6.930
 4047POPC   C4A52890  26.529  15.406   7.156
 4047POPC   C1B52891  27.200  15.124   6.220
 4047POPC   C2B52892  27.160  14.886   6.632
 4047POPC   C3B52893  27.241  14.937   7.059
 4047POPC   C4B52894  27.398  15.295   7.276
 4048POPC   NC352895   1.072   1.702   5.508
 4048POPC   PO452896   1.341   2.352   5.451
 4048POPC   GL152897   1.177   2.125   5.850
 4048POPC   GL252898   1.318   1.777   5.951
 4048POPC   C1A52899   1.256   2.135   6.316
 4048POPC   D2A52900   1.304   1.813   6.652
 4048POPC   C3A52901   1.328   2.041   7.045
 4048POPC   C4A52902   1.053   2.387   7.137
 4048POPC   C1B52903   0.937   1.736   6.226
 4048POPC   C2B52904   0.796   1.629   6.626
 4048POPC   C3B52905   0.929   1.722   7.020
 4048POPC   C4B52906   0.701   1.736   7.385
 4049POPC   NC352907  13.575  40.955   5.068
 4049POPC   PO452908  13.676  41.524   5.476
 4049POPC   GL152909  13.708  41.450   5.882
 4049POPC   GL252910  13.742  41.124   5.915
 4049POPC   C1A52911  13.748  41.691   6.256
 4049POPC   D2A52912  13.792  41.975   6.559
 4049POPC   C3A52913  13.561  41.872   6.917
 4049POPC   C4A52914  13.703  41.734   7.298
 4049POPC   C1B52915  13.685  41.200   6.343
 4049POPC   C2B52916  13.595  41.386   6.733
 4049POPC   C3B52917  13.778  41.255   7.131
 4049POPC   C4B52918  13.676  41.290   7.572
 4050POPC   NC352919   3.296  33.038   5.497
 4050POPC   PO452920   2.761  33.401   5.534
 4050POPC   GL152921   2.986  33.673   5.834
 4050POPC   GL252922   3.246  33.434   5.938
 4050POPC   C1A52923   2.806  33.891   6.222
 4050POPC   D2A52924   2.931  33.881   6.671
 4050POPC   C3A52925   2.584  33.778   6.971
 4050POPC   C4A52926   2.675  33.680   7.416
 4050POPC   C1B52927   2.907  33.376   6.249
 4050POPC   C2B52928   2.777  33.371   6.680
 4050POPC   C3B52929   2.985  33.471   7.052
 4050POPC   C4B52930   3.004  33.289   7.464
 4051POPC   NC352931  40.676   3.651   5.493
 4051POPC   PO452932  41.215   3.281   5.442
 4051POPC   GL152933  41.028   3.457   5.794
 4051POPC   GL252934  40.791   3.230   5.823
 4051POPC   C1A52935  40.803   3.640   6.178
 4051POPC   D2A52936  40.678   3.828   6.584
 4051POPC   C3A52937  40.660   3.583   6.960
 4051POPC   C4A52938  40.620   3.695   7.397
 4051POPC   C1B52939  41.020   3.120   6.186
 4051POPC   C2B52940  41.123   3.347   6.551
 4051POPC   C3B52941  41.178   3.208   6.962
 4051POPC   C4B52942  40.960   3.255   7.331
 4052POPC   NC352943   2.133  24.867   5.723
 4052POPC   PO452944   1.946  25.209   5.177
 4052POPC   GL152945   1.893  25.337   5.715
 4052POPC   GL252946   1.673  25.085   5.997
 4052POPC   C1A52947   1.999  25.401   6.175
 4052POPC   D2A52948   1.766  25.293   6.579
 4052POPC   C3A52949   1.898  25.423   6.994
 4052POPC   C4A52950   2.265  25.589   7.212
 4052POPC   C1B52951   2.020  24.911   6.329
 4052POPC   C2B52952   2.239  24.858   6.716
 4052POPC   C3B52953   2.222  25.039   7.141
 4052POPC   C4B52954   2.384  24.992   7.584
 4053POPC   NC352955  26.547  18.561   5.523
 4053POPC   PO452956  25.932  18.325   5.320
 4053POPC   GL152957  25.935  18.263   5.771
 4053POPC   GL252958  26.180  18.512   5.885
 4053POPC   C1A52959  26.034  18.124   6.205
 4053POPC   D2A52960  25.870  18.155   6.633
 4053POPC   C3A52961  26.151  17.944   6.944
 4053POPC   C4A52962  25.990  17.959   7.350
 4053POPC   C1B52963  26.334  18.542   6.321
 4053POPC   C2B52964  26.351  18.354   6.731
 4053POPC   C3B52965  26.014  18.408   7.077
 4053POPC   C4B52966  26.143  18.591   7.477
 4054POPC   NC352967  41.570  27.250   5.433
 4054POPC   PO452968  41.758  26.581   5.532
 4054POPC   GL152969  41.722  26.926   5.785
 4054POPC   GL252970  41.365  26.828   5.836
 4054POPC   C1A52971  41.626  27.074   6.196
 4054POPC   D2A52972  41.675  26.802   6.542
 4054POPC   C3A52973  41.734  27.005   6.925
 4054POPC   C4A52974  41.883  26.885   7.308
 4054POPC   C1B52975  41.233  26.685   6.283
 4054POPC   C2B52976  41.212  26.727   6.762
 4054POPC   C3B52977  41.351  26.791   7.188
 4054POPC   C4B52978  41.174  26.621   7.573
 4055POPC   NC352979  44.837  20.401   4.827
 4055POPC   PO452980  44.584  20.930   5.245
 4055POPC   GL152981  44.578  20.571   5.659
 4055POPC   GL252982  44.670  20.222   5.646
 4055POPC   C1A52983  44.741  20.532   6.146
 4055POPC   D2A52984   0.020  20.782   6.451
 4055POPC   C3A52985  44.903  20.771   6.904
 4055POPC   C4A52986  44.782  20.484   7.245
 4055POPC   C1B52987  44.461  20.124   6.048
 4055POPC   C2B52988  44.447  20.265   6.449
 4055POPC   C3B52989  44.526  20.211   6.871
 4055POPC   C4B52990  44.435  20.070   7.261
 4056POPC   NC352991  21.213  23.917   5.358
 4056POPC   PO452992  21.543  23.428   5.588
 4056POPC   GL152993  21.327  23.668   5.834
 4056POPC   GL252994  21.591  23.921   5.846
 4056POPC   C1A52995  21.335  23.777   6.256
 4056POPC   D2A52996  21.602  23.836   6.595
 4056POPC   C3A52997  21.389  23.821   6.996
 4056POPC   C4A52998  21.218  23.697   7.399
 4056POPC   C1B52999  21.825  23.589   6.150
 4056POPC   C2B53000  21.903  23.399   6.544
 4056POPC   C3B53001  21.725  23.441   6.926
 4056POPC   C4B53002  21.755  23.664   7.318
 4057POPC   NC353003  35.484  17.663   5.196
 4057POPC   PO453004  35.676  17.126   5.471
 4057POPC   GL153005  35.555  17.493   5.737
 4057POPC   GL253006  35.253  17.431   5.932
 4057POPC   C1A53007  35.591  17.706   6.160
 4057POPC   D2A53008  35.264  17.745   6.477
 4057POPC   C3A53009  35.395  17.780   6.906
 4057POPC   C4A53010  35.239  17.614   7.287
 4057POPC   C1B53011  35.355  17.266   6.306
 4057POPC   C2B53012  35.639  17.415   6.622
 4057POPC   C3B53013  35.343  17.234   6.885
 4057POPC   C4B53014  35.263  17.090   7.287
 4058POPC   NC353015  24.172  18.125   5.408
 4058POPC   PO453016  23.492  18.504   5.470
 4058POPC   GL153017  23.544  18.258   5.835
 4058POPC   GL253018  23.870  18.325   5.782
 4058POPC   C1A53019  23.511  18.375   6.295
 4058POPC   D2A53020  23.642  18.350   6.728
 4058POPC   C3A53021  23.441  18.578   7.057
 4058POPC   C4A53022  23.469  18.343   7.444
 4058POPC   C1B53023  23.945  18.150   6.191
 4058POPC   C2B53024  23.883  17.911   6.572
 4058POPC   C3B53025  23.901  17.947   7.025
 4058POPC   C4B53026  23.925  18.321   7.211
 4059POPC   NC353027  17.543  36.235   5.064
 4059POPC   PO453028  17.937  35.925   5.536
 4059POPC   GL153029  17.546  36.033   5.745
 4059POPC   GL253030  17.431  36.354   5.661
 4059POPC   C1A53031  17.387  36.093   6.160
 4059POPC   D2A53032  17.204  35.940   6.510
 4059POPC   C3A53033  17.312  36.069   6.919
 4059POPC   C4A53034  17.407  35.980   7.356
 4059POPC   C1B53035  17.723  36.439   6.048
 4059POPC   C2B53036  17.625  36.547   6.509
 4059POPC   C3B53037  17.652  36.447   6.989
 4059POPC   C4B53038  17.575  36.448   7.476
 4060POPC   NC353039  17.559  39.508   5.198
 4060POPC   PO453040  17.774  38.877   5.170
 4060POPC   GL153041  17.590  39.005   5.613
 4060POPC   GL253042  17.440  39.327   5.697
 4060POPC   C1A53043  17.503  38.944   6.078
 4060POPC   D2A53044  17.397  39.149   6.488
 4060POPC   C3A53045  17.466  39.042   6.922
 4060POPC   C4A53046  17.419  39.282   7.285
 4060POPC   C1B53047  17.613  39.448   6.109
 4060POPC   C2B53048  17.614  39.620   6.502
 4060POPC   C3B53049  17.687  39.572   6.936
 4060POPC   C4B53050  17.628  39.753   7.335
 4061POPC   NC353051  43.639  41.946   5.472
 4061POPC   PO453052  43.873  42.550   5.356
 4061POPC   GL153053  44.037  42.353   5.752
 4061POPC   GL253054  43.688  42.260   5.864
 4061POPC   C1A53055  44.213  42.269   6.206
 4061POPC   D2A53056  43.961  42.243   6.640
 4061POPC   C3A53057  44.151  42.060   7.032
 4061POPC   C4A53058  44.248  42.304   7.416
 4061POPC   C1B53059  43.748  42.463   6.229
 4061POPC   C2B53060  43.570  42.629   6.592
 4061POPC   C3B53061  43.467  42.462   6.959
 4061POPC   C4B53062  43.845  42.447   7.156
 4062POPC   NC353063   8.435  25.660   5.511
 4062POPC   PO453064   7.879  26.097   5.361
 4062POPC   GL153065   8.068  25.937   5.736
 4062POPC   GL253066   8.174  26.252   5.857
 4062POPC   C1A53067   7.946  25.912   6.181
 4062POPC   D2A53068   8.063  26.154   6.567
 4062POPC   C3A53069   8.039  25.948   6.990
 4062POPC   C4A53070   8.021  26.069   7.425
 4062POPC   C1B53071   8.458  26.132   6.209
 4062POPC   C2B53072   8.560  26.369   6.605
 4062POPC   C3B53073   8.479  26.206   7.034
 4062POPC   C4B53074   8.616  25.830   7.260
 4063POPC   NC353075   5.813   0.799   5.303
 4063POPC   PO453076   5.810   0.187   5.354
 4063POPC   GL153077   5.804   0.423   5.690
 4063POPC   GL253078   6.155   0.485   5.659
 4063POPC   C1A53079   5.741   0.299   6.133
 4063POPC   D2A53080   5.938   0.139   6.520
 4063POPC   C3A53081   5.645   0.238   6.888
 4063POPC   C4A53082   5.670   0.635   7.119
 4063POPC   C1B53083   6.254   0.332   6.089
 4063POPC   C2B53084   6.337   0.489   6.520
 4063POPC   C3B53085   6.134   0.432   6.917
 4063POPC   C4B53086   6.031   0.100   7.229
 4064POPC   NC353087  37.759   5.321   5.455
 4064POPC   PO453088  37.486   4.678   5.409
 4064POPC   GL153089  37.631   4.955   5.781
 4064POPC   GL253090  37.525   5.270   5.938
 4064POPC   C1A53091  37.723   4.872   6.230
 4064POPC   D2A53092  37.605   4.670   6.631
 4064POPC   C3A53093  37.764   4.904   6.996
 4064POPC   C4A53094  37.669   5.095   7.395
 4064POPC   C1B53095  37.604   5.416   6.379
 4064POPC   C2B53096  37.640   5.379   6.860
 4064POPC   C3B53097  37.582   5.571   7.279
 4064POPC   C4B53098  37.554   5.434   7.754
 4065POPC   NC353099   5.025  14.696   5.274
 4065POPC   PO453100   4.928  14.123   5.192
 4065POPC   GL153101   4.919  14.293   5.654
 4065POPC   GL253102   4.745  14.583   5.683
 4065POPC   C1A53103   5.111  14.229   6.091
 4065POPC   D2A53104   5.028  14.353   6.531
 4065POPC   C3A53105   5.201  14.414   6.938
 4065POPC   C4A53106   5.243  14.333   7.355
 4065POPC   C1B53107   4.890  14.670   6.054
 4065POPC   C2B53108   4.811  14.801   6.459
 4065POPC   C3B53109   4.918  14.825   6.897
 4065POPC   C4B53110   4.835  14.743   7.353
 4066POPC   NC353111  10.660  38.231   5.723
 4066POPC   PO453112  10.194  38.652   5.479
 4066POPC   GL153113  10.427  38.646   5.887
 4066POPC   GL253114  10.785  38.767   5.942
 4066POPC   C1A53115  10.542  38.479   6.326
 4066POPC   D2A53116  10.684  38.105   6.608
 4066POPC   C3A53117  10.664  38.199   7.069
 4066POPC   C4A53118  10.353  38.214   7.379
 4066POPC   C1B53119  10.946  38.801   6.363
 4066POPC   C2B53120  10.857  38.586   6.742
 4066POPC   C3B53121  11.028  38.607   7.158
 4066POPC   C4B53122  10.917  38.537   7.592
 4067POPC   NC353123  19.957  17.825   5.416
 4067POPC   PO453124  19.426  17.352   5.363
 4067POPC   GL153125  19.773  17.388   5.648
 4067POPC   GL253126  19.697  17.682   5.828
 4067POPC   C1A53127  19.800  17.214   6.065
 4067POPC   D2A53128  19.716  17.402   6.462
 4067POPC   C3A53129  19.940  17.269   6.840
 4067POPC   C4A53130  19.642  17.370   7.162
 4067POPC   C1B53131  20.045  17.659   6.114
 4067POPC   C2B53132  20.085  17.754   6.550
 4067POPC   C3B53133  19.894  17.789   6.940
 4067POPC   C4B53134  20.092  17.609   7.247
 4068POPC   NC353135   8.329  33.953   5.290
 4068POPC   PO453136   7.898  33.791   5.802
 4068POPC   GL153137   8.147  33.878   6.008
 4068POPC   GL253138   8.335  34.088   5.805
 4068POPC   C1A53139   8.119  33.845   6.430
 4068POPC   D2A53140   8.105  33.618   6.762
 4068POPC   C3A53141   7.973  33.885   7.055
 4068POPC   C4A53142   7.746  33.789   7.430
 4068POPC   C1B53143   8.580  33.925   6.217
 4068POPC   C2B53144   8.595  33.716   6.590
 4068POPC   C3B53145   8.484  33.897   6.954
 4068POPC   C4B53146   8.539  33.995   7.347
 4069POPC   NC353147  34.861   9.622   5.325
 4069POPC   PO453148  34.233   9.812   5.384
 4069POPC   GL153149  34.503   9.683   5.761
 4069POPC   GL253150  34.831   9.517   5.801
 4069POPC   C1A53151  34.498   9.487   6.180
 4069POPC   D2A53152  34.428   9.657   6.581
 4069POPC   C3A53153  34.713   9.590   6.913
 4069POPC   C4A53154  34.508   9.827   7.158
 4069POPC   C1B53155  34.928   9.794   6.142
 4069POPC   C2B53156  34.846   9.987   6.548
 4069POPC   C3B53157  34.809  10.185   6.965
 4069POPC   C4B53158  34.878  10.079   7.433
 4070POPC   NC353159  40.168  14.789   5.517
 4070POPC   PO453160  39.809  14.218   5.566
 4070POPC   GL153161  40.075  14.387   5.815
 4070POPC   GL253162  40.220  14.105   5.878
 4070POPC   C1A53163  40.085  14.580   6.204
 4070POPC   D2A53164  40.123  14.920   6.508
 4070POPC   C3A53165  40.059  14.685   6.858
 4070POPC   C4A53166  39.986  14.630   7.258
 4070POPC   C1B53167  39.902  14.076   6.205
 4070POPC   C2B53168  39.869  14.231   6.584
 4070POPC   C3B53169  39.851  14.219   6.987
 4070POPC   C4B53170  40.261  14.211   7.151
 4071POPC   NC353171  43.479  22.511   5.468
 4071POPC   PO453172  43.641  23.153   5.546
 4071POPC   GL153173  43.862  22.826   5.792
 4071POPC   GL253174  43.574  22.674   5.960
 4071POPC   C1A53175  44.052  22.818   6.220
 4071POPC   D2A53176  43.812  22.804   6.609
 4071POPC   C3A53177  44.018  22.870   6.971
 4071POPC   C4A53178  43.979  23.035   7.397
 4071POPC   C1B53179  43.581  23.068   6.221
 4071POPC   C2B53180  43.387  23.141   6.642
 4071POPC   C3B53181  43.546  23.048   7.073
 4071POPC   C4B53182  43.484  22.950   7.526
 4072POPC   NC353183   3.305  14.190   5.447
 4072POPC   PO453184   3.810  14.575   5.527
 4072POPC   GL153185   3.658  14.465   5.941
 4072POPC   GL253186   3.410  14.260   5.938
 4072POPC   C1A53187   3.786  14.162   6.258
 4072POPC   D2A53188   3.978  14.198   6.645
 4072POPC   C3A53189   3.646  14.347   6.869
 4072POPC   C4A53190   3.622  14.293   7.292
 4072POPC   C1B53191   3.228  14.268   6.377
 4072POPC   C2B53192   2.975  14.347   6.750
 4072POPC   C3B53193   3.174  14.480   7.120
 4072POPC   C4B53194   3.190  14.264   7.538
 4073POPC   NC353195  20.472   4.261   5.416
 4073POPC   PO453196  21.154   4.011   5.434
 4073POPC   GL153197  20.842   4.251   5.761
 4073POPC   GL253198  20.647   4.053   5.934
 4073POPC   C1A53199  20.512   4.512   6.081
 4073POPC   D2A53200  20.633   4.677   6.504
 4073POPC   C3A53201  20.483   4.509   6.886
 4073POPC   C4A53202  20.663   4.474   7.275
 4073POPC   C1B53203  20.945   4.315   6.245
 4073POPC   C2B53204  21.098   4.172   6.639
 4073POPC   C3B53205  20.945   4.077   7.040
 4073POPC   C4B53206  21.064   4.221   7.429
 4074POPC   NC353207  22.735  37.359   5.490
 4074POPC   PO453208  22.656  36.747   5.377
 4074POPC   GL153209  22.899  36.774   5.789
 4074POPC   GL253210  22.903  37.087   5.882
 4074POPC   C1A53211  22.862  36.677   6.238
 4074POPC   D2A53212  23.057  36.809   6.631
 4074POPC   C3A53213  22.856  36.666   6.986
 4074POPC   C4A53214  22.767  36.868   7.338
 4074POPC   C1B53215  23.089  37.157   6.264
 4074POPC   C2B53216  23.299  37.262   6.680
 4074POPC   C3B53217  23.122  37.136   7.082
 4074POPC   C4B53218  23.075  37.256   7.526
 4075POPC   NC353219   7.468  30.981   5.551
 4075POPC   PO453220   7.058  30.460   5.655
 4075POPC   GL153221   7.292  30.714   5.949
 4075POPC   GL253222   7.662  30.717   5.967
 4075POPC   C1A53223   7.354  30.888   6.369
 4075POPC   D2A53224   7.510  31.026   6.765
 4075POPC   C3A53225   7.247  30.920   7.115
 4075POPC   C4A53226   7.198  30.684   7.517
 4075POPC   C1B53227   7.477  30.386   6.282
 4075POPC   C2B53228   7.165  30.250   6.605
 4075POPC   C3B53229   7.209  30.404   7.043
 4075POPC   C4B53230   7.640  30.606   7.176
 4076POPC   NC353231  17.696  40.997   5.568
 4076POPC   PO453232  17.283  40.397   5.403
 4076POPC   GL153233  17.272  40.439   5.861
 4076POPC   GL253234  17.464  40.742   5.940
 4076POPC   C1A53235  17.278  40.493   6.329
 4076POPC   D2A53236  17.657  40.611   6.547
 4076POPC   C3A53237  17.610  40.494   6.961
 4076POPC   C4A53238  17.337  40.728   7.219
 4076POPC   C1B53239  17.796  40.978   6.192
 4076POPC   C2B53240  17.869  41.110   6.565
 4076POPC   C3B53241  17.580  41.056   6.865
 4076POPC   C4B53242  17.582  41.294   7.224
 4077POPC   NC353243   6.421  13.985   5.339
 4077POPC   PO453244   6.858  13.554   5.306
 4077POPC   GL153245   6.636  13.507   5.707
 4077POPC   GL253246   6.283  13.639   5.728
 4077POPC   C1A53247   6.787  13.458   6.145
 4077POPC   D2A53248   7.009  13.584   6.541
 4077POPC   C3A53249   6.819  13.500   6.929
 4077POPC   C4A53250   6.438  13.284   7.089
 4077POPC   C1B53251   6.335  13.909   6.103
 4077POPC   C2B53252   6.453  14.143   6.472
 4077POPC   C3B53253   6.406  14.161   6.893
 4077POPC   C4B53254   6.486  13.817   7.181
 4078POPC   NC353255  15.398  26.268   5.334
 4078POPC   PO453256  16.035  26.025   5.236
 4078POPC   GL153257  15.885  25.961   5.653
 4078POPC   GL253258  15.819  25.620   5.687
 4078POPC   C1A53259  16.100  25.997   6.051
 4078POPC   D2A53260  15.982  26.082   6.461
 4078POPC   C3A53261  16.112  26.038   6.854
 4078POPC   C4A53262  16.117  26.424   7.110
 4078POPC   C1B53263  15.765  25.637   6.143
 4078POPC   C2B53264  15.737  25.630   6.576
 4078POPC   C3B53265  15.738  25.739   7.011
 4078POPC   C4B53266  15.807  25.554   7.407
 4079POPC   NC353267  18.089  24.497   5.405
 4079POPC   PO453268  18.765  24.595   5.381
 4079POPC   GL153269  18.518  24.358   5.685
 4079POPC   GL253270  18.300  24.523   5.859
 4079POPC   C1A53271  18.525  24.210   6.176
 4079POPC   D2A53272  18.566  24.441   6.603
 4079POPC   C3A53273  18.541  24.214   7.009
 4079POPC   C4A53274  18.306  24.213   7.417
 4079POPC   C1B53275  18.293  24.727   6.223
 4079POPC   C2B53276  18.077  24.623   6.576
 4079POPC   C3B53277  18.269  24.768   6.909
 4079POPC   C4B53278  18.135  24.656   7.251
 4080POPC   NC353279  24.236  38.554   5.336
 4080POPC   PO453280  24.665  38.158   5.226
 4080POPC   GL153281  24.548  38.318   5.660
 4080POPC   GL253282  24.293  38.107   5.745
 4080POPC   C1A53283  24.487  38.642   6.004
 4080POPC   D2A53284  24.617  38.565   6.431
 4080POPC   C3A53285  24.578  38.695   6.859
 4080POPC   C4A53286  24.764  38.613   7.259
 4080POPC   C1B53287  24.369  38.180   6.194
 4080POPC   C2B53288  24.487  38.052   6.607
 4080POPC   C3B53289  24.520  38.215   7.022
 4080POPC   C4B53290  24.253  38.114   7.398
 4081POPC   NC353291  13.431  35.598   5.450
 4081POPC   PO453292  13.880  34.998   5.413
 4081POPC   GL153293  13.591  35.139   5.746
 4081POPC   GL253294  13.803  35.449   5.806
 4081POPC   C1A53295  13.601  35.161   6.224
 4081POPC   D2A53296  13.869  35.196   6.634
 4081POPC   C3A53297  13.604  35.159   7.014
 4081POPC   C4A53298  13.249  35.192   7.313
 4081POPC   C1B53299  13.898  35.569   6.248
 4081POPC   C2B53300  13.559  35.596   6.579
 4081POPC   C3B53301  13.663  35.663   7.003
 4081POPC   C4B53302  13.552  35.589   7.415
 4082POPC   NC353303  11.830   8.653   5.620
 4082POPC   PO453304  12.072   8.111   5.287
 4082POPC   GL153305  12.158   8.259   5.694
 4082POPC   GL253306  11.885   8.083   5.829
 4082POPC   C1A53307  12.389   8.196   6.086
 4082POPC   D2A53308  12.381   8.052   6.507
 4082POPC   C3A53309  12.320   8.282   6.869
 4082POPC   C4A53310  12.196   8.078   7.240
 4082POPC   C1B53311  11.925   8.349   6.206
 4082POPC   C2B53312  11.864   8.465   6.641
 4082POPC   C3B53313  11.778   8.120   6.947
 4082POPC   C4B53314  11.582   7.860   7.297
 4083POPC   NC353315  13.055   4.471   5.398
 4083POPC   PO453316  13.643   4.168   5.180
 4083POPC   GL153317  13.654   4.278   5.638
 4083POPC   GL253318  13.392   4.506   5.801
 4083POPC   C1A53319  13.715   4.222   6.095
 4083POPC   D2A53320  13.618   4.074   6.527
 4083POPC   C3A53321  13.892   4.191   6.868
 4083POPC   C4A53322  13.718   4.248   7.253
 4083POPC   C1B53323  13.303   4.490   6.266
 4083POPC   C2B53324  13.469   4.567   6.720
 4083POPC   C3B53325  13.826   4.691   7.030
 4083POPC   C4B53326  13.879   4.702   7.498
 4084POPC   NC353327  18.871  14.318   5.400
 4084POPC   PO453328  19.485  14.158   5.543
 4084POPC   GL153329  19.228  14.418   5.841
 4084POPC   GL253330  18.878  14.561   5.831
 4084POPC   C1A53331  19.184  14.364   6.292
 4084POPC   D2A53332  19.404  14.332   6.705
 4084POPC   C3A53333  19.208  14.582   7.033
 4084POPC   C4A53334  19.086  14.634   7.464
 4084POPC   C1B53335  18.759  14.664   6.218
 4084POPC   C2B53336  18.881  14.595   6.637
 4084POPC   C3B53337  18.687  14.661   7.033
 4084POPC   C4B53338  18.656  14.331   7.313
 4085POPC   NC353339  16.679  15.275   5.348
 4085POPC   PO453340  16.943  14.704   5.090
 4085POPC   GL153341  16.737  14.866   5.631
 4085POPC   GL253342  17.032  14.834   5.906
 4085POPC   C1A53343  16.719  15.191   6.048
 4085POPC   D2A53344  16.933  15.511   6.361
 4085POPC   C3A53345  16.799  15.497   6.805
 4085POPC   C4A53346  16.563  15.252   7.148
 4085POPC   C1B53347  17.175  15.012   6.274
 4085POPC   C2B53348  16.866  15.040   6.562
 4085POPC   C3B53349  16.884  14.899   6.937
 4085POPC   C4B53350  16.771  14.766   7.298
 4086POPC   NC353351  16.858  12.851   5.357
 4086POPC   PO453352  17.501  12.716   5.491
 4086POPC   GL153353  17.111  12.771   5.830
 4086POPC   GL253354  16.786  12.610   5.791
 4086POPC   C1A53355  16.904  12.956   6.276
 4086POPC   D2A53356  16.727  12.906   6.750
 4086POPC   C3A53357  16.884  13.061   7.145
 4086POPC   C4A53358  16.833  13.237   7.587
 4086POPC   C1B53359  16.518  12.658   6.103
 4086POPC   C2B53360  16.635  12.501   6.478
 4086POPC   C3B53361  16.717  12.409   6.896
 4086POPC   C4B53362  16.427  12.504   7.226
 4087POPC   NC353363  20.731  19.555   5.075
 4087POPC   PO453364  20.506  20.198   5.397
 4087POPC   GL153365  20.432  19.933   5.785
 4087POPC   GL253366  20.639  19.615   5.740
 4087POPC   C1A53367  20.437  19.939   6.265
 4087POPC   D2A53368  20.428  19.798   6.711
 4087POPC   C3A53369  20.809  19.842   6.990
 4087POPC   C4A53370  20.981  20.167   7.283
 4087POPC   C1B53371  20.319  19.460   6.061
 4087POPC   C2B53372  20.218  19.332   6.530
 4087POPC   C3B53373  20.168  19.433   7.002
 4087POPC   C4B53374  20.408  19.698   7.282
 4088POPC   NC353375  32.085  18.428   5.530
 4088POPC   PO453376  32.539  18.000   5.334
 4088POPC   GL153377  32.477  18.104   5.778
 4088POPC   GL253378  32.793  18.248   5.842
 4088POPC   C1A53379  32.161  18.197   6.144
 4088POPC   D2A53380  32.091  18.402   6.532
 4088POPC   C3A53381  32.206  18.157   6.883
 4088POPC   C4A53382  32.135  18.064   7.287
 4088POPC   C1B53383  32.586  18.445   6.186
 4088POPC   C2B53384  32.590  18.458   6.620
 4088POPC   C3B53385  32.362  18.662   6.922
 4088POPC   C4B53386  32.450  18.455   7.284
 4089POPC   NC353387  18.630   6.938   5.066
 4089POPC   PO453388  18.167   6.589   5.332
 4089POPC   GL153389  18.321   6.554   5.755
 4089POPC   GL253390  17.970   6.649   5.876
 4089POPC   C1A53391  18.575   6.576   6.167
 4089POPC   D2A53392  18.721   6.465   6.604
 4089POPC   C3A53393  18.485   6.551   7.037
 4089POPC   C4A53394  18.068   6.726   7.206
 4089POPC   C1B53395  18.105   6.722   6.298
 4089POPC   C2B53396  18.263   6.863   6.700
 4089POPC   C3B53397  18.023   7.158   6.959
 4089POPC   C4B53398  17.785   7.170   7.351
 4090POPC   NC353399   9.445  29.520   5.421
 4090POPC   PO453400   9.719  30.173   5.444
 4090POPC   GL153401   9.813  29.832   5.737
 4090POPC   GL253402   9.556  29.997   5.950
 4090POPC   C1A53403  10.003  29.850   6.167
 4090POPC   D2A53404   9.711  30.027   6.478
 4090POPC   C3A53405   9.737  29.903   6.898
 4090POPC   C4A53406   9.810  30.048   7.295
 4090POPC   C1B53407   9.302  30.276   6.264
 4090POPC   C2B53408   9.279  30.223   6.726
 4090POPC   C3B53409   9.397  30.326   7.158
 4090POPC   C4B53410   9.610  30.419   7.583
 4091POPC   NC353411  27.076  43.242   5.593
 4091POPC   PO453412  26.506  42.940   5.579
 4091POPC   GL153413  26.664  42.853   5.979
 4091POPC   GL253414  27.003  42.812   5.965
 4091POPC   C1A53415  26.683  43.087   6.379
 4091POPC   D2A53416  26.352  43.138   6.734
 4091POPC   C3A53417  26.542  43.156   7.136
 4091POPC   C4A53418  26.956  43.176   7.151
 4091POPC   C1B53419  27.027  42.650   6.389
 4091POPC   C2B53420  27.165  42.747   6.811
 4091POPC   C3B53421  27.174  42.758   7.276
 4091POPC   C4B53422  27.108  43.051   7.646
 4092POPC   NC353423   9.973  25.797   5.444
 4092POPC   PO453424   9.488  26.143   5.105
 4092POPC   GL153425   9.605  26.172   5.598
 4092POPC   GL253426   9.541  26.444   5.848
 4092POPC   C1A53427   9.852  26.093   6.043
 4092POPC   D2A53428   9.870  26.169   6.522
 4092POPC   C3A53429   9.874  25.831   6.863
 4092POPC   C4A53430   9.548  25.700   7.138
 4092POPC   C1B53431   9.392  26.244   6.236
 4092POPC   C2B53432   9.317  26.114   6.656
 4092POPC   C3B53433   9.502  26.197   7.043
 4092POPC   C4B53434   9.877  26.198   7.233
 4093POPC   NC353435  25.938  24.182   5.342
 4093POPC   PO453436  26.308  24.731   5.433
 4093POPC   GL153437  26.245  24.378   5.701
 4093POPC   GL253438  25.874  24.447   5.793
 4093POPC   C1A53439  26.224  24.189   6.129
 4093POPC   D2A53440  26.093  24.453   6.490
 4093POPC   C3A53441  26.132  24.321   6.920
 4093POPC   C4A53442  25.974  24.557   7.262
 4093POPC   C1B53443  25.699  24.211   6.174
 4093POPC   C2B53444  25.704  24.126   6.637
 4093POPC   C3B53445  25.606  24.292   7.049
 4093POPC   C4B53446  25.524  24.322   7.519
 4094POPC   NC353447  27.059  29.739   5.408
 4094POPC   PO453448  26.578  30.206   5.406
 4094POPC   GL153449  26.723  29.983   5.754
 4094POPC   GL253450  27.066  30.058   5.835
 4094POPC   C1A53451  26.538  29.920   6.143
 4094POPC   D2A53452  26.678  29.810   6.531
 4094POPC   C3A53453  26.912  29.998   6.833
 4094POPC   C4A53454  26.742  29.876   7.186
 4094POPC   C1B53455  26.988  29.690   6.101
 4094POPC   C2B53456  26.921  29.373   6.447
 4094POPC   C3B53457  26.934  29.482   6.862
 4094POPC   C4B53458  27.069  29.520   7.293
 4095POPC   NC353459  31.885   3.004   5.297
 4095POPC   PO453460  31.280   2.656   5.308
 4095POPC   GL153461  31.488   2.767   5.682
 4095POPC   GL253462  31.551   3.133   5.661
 4095POPC   C1A53463  31.405   2.711   6.114
 4095POPC   D2A53464  31.560   2.762   6.521
 4095POPC   C3A53465  31.442   2.517   6.841
 4095POPC   C4A53466  31.445   2.643   7.237
 4095POPC   C1B53467  31.616   3.183   6.102
 4095POPC   C2B53468  31.791   3.266   6.511
 4095POPC   C3B53469  31.662   3.076   6.904
 4095POPC   C4B53470  31.786   3.085   7.295
 4096POPC   NC353471  29.707   4.333   5.411
 4096POPC   PO453472  30.327   4.401   5.098
 4096POPC   GL153473  30.139   4.518   5.600
 4096POPC   GL253474  29.805   4.628   5.805
 4096POPC   C1A53475  30.131   4.379   6.092
 4096POPC   D2A53476  29.974   4.456   6.541
 4096POPC   C3A53477  30.245   4.423   6.901
 4096POPC   C4A53478  30.031   4.082   7.092
 4096POPC   C1B53479  29.588   4.491   6.187
 4096POPC   C2B53480  29.493   4.669   6.606
 4096POPC   C3B53481  29.491   4.499   7.013
 4096POPC   C4B53482  29.618   4.363   7.425
 4097POPC   NC353483  44.981   5.688   5.572
 4097POPC   PO453484  44.697   6.313   5.336
 4097POPC   GL153485  44.706   6.149   5.790
 4097POPC   GL253486  44.682   5.802   5.951
 4097POPC   C1A53487  44.823   6.138   6.270
 4097POPC   D2A53488  44.808   6.294   6.682
 4097POPC   C3A53489  44.596   6.028   6.915
 4097POPC   C4A53490  44.766   5.944   7.275
 4097POPC   C1B53491  44.520   5.559   6.267
 4097POPC   C2B53492  44.488   5.561   6.696
 4097POPC   C3B53493  44.703   5.484   7.047
 4097POPC   C4B53494  44.648   5.185   7.374
 4098POPC   NC353495  22.014  25.847   5.493
 4098POPC   PO453496  21.839  26.585   5.426
 4098POPC   GL153497  22.106  26.337   5.806
 4098POPC   GL253498  22.217  25.967   5.932
 4098POPC   C1A53499  22.280  26.356   6.249
 4098POPC   D2A53500  22.044  26.460   6.639
 4098POPC   C3A53501  22.127  26.219   7.008
 4098POPC   C4A53502  22.062  26.114   7.427
 4098POPC   C1B53503  21.961  25.731   6.248
 4098POPC   C2B53504  22.015  25.834   6.693
 4098POPC   C3B53505  22.083  25.686   7.139
 4098POPC   C4B53506  22.162  25.627   7.618
 4099POPC   NC353507  28.726   9.283   5.409
 4099POPC   PO453508  28.494  10.003   5.369
 4099POPC   GL153509  28.434   9.838   5.783
 4099POPC   GL253510  28.391   9.510   5.730
 4099POPC   C1A53511  28.351   9.943   6.220
 4099POPC   D2A53512  28.359  10.159   6.623
 4099POPC   C3A53513  28.203   9.961   7.009
 4099POPC   C4A53514  28.506   9.914   7.325
 4099POPC   C1B53515  28.591   9.408   6.074
 4099POPC   C2B53516  28.578   9.549   6.481
 4099POPC   C3B53517  28.632   9.668   6.893
 4099POPC   C4B53518  28.610   9.432   7.253
 4100POPC   NC353519  21.153  23.155   5.523
 4100POPC   PO453520  21.782  23.038   5.211
 4100POPC   GL153521  21.619  22.914   5.673
 4100POPC   GL253522  21.750  23.116   5.947
 4100POPC   C1A53523  21.400  22.760   6.099
 4100POPC   D2A53524  21.211  22.890   6.529
 4100POPC   C3A53525  21.445  22.901   6.920
 4100POPC   C4A53526  21.307  22.780   7.336
 4100POPC   C1B53527  21.449  23.262   6.257
 4100POPC   C2B53528  21.284  23.409   6.646
 4100POPC   C3B53529  21.212  23.325   7.072
 4100POPC   C4B53530  21.563  23.198   7.339
 4101POPC   NC353531  39.036   6.278   5.417
 4101POPC   PO453532  39.697   6.453   5.208
 4101POPC   GL153533  39.507   6.586   5.657
 4101POPC   GL253534  39.149   6.500   5.853
 4101POPC   C1A53535  39.589   6.461   6.075
 4101POPC   D2A53536  39.423   6.585   6.452
 4101POPC   C3A53537  39.517   6.337   6.753
 4101POPC   C4A53538  39.350   6.453   7.109
 4101POPC   C1B53539  38.940   6.571   6.278
 4101POPC   C2B53540  38.984   6.613   6.750
 4101POPC   C3B53541  38.862   6.377   7.132
 4101POPC   C4B53542  38.730   6.402   7.566
 4102POPC   NC353543  44.487  26.460   5.624
 4102POPC   PO453544  44.573  25.852   5.382
 4102POPC   GL153545  44.706  25.998   5.778
 4102POPC   GL253546  44.859  25.698   5.866
 4102POPC   C1A53547  44.555  26.119   6.208
 4102POPC   D2A53548  44.480  26.157   6.657
 4102POPC   C3A53549  44.479  26.322   7.071
 4102POPC   C4A53550  44.674  26.178   7.458
 4102POPC   C1B53551  44.741  25.618   6.269
 4102POPC   C2B53552  44.581  25.662   6.660
 4102POPC   C3B53553  44.669  25.829   7.048
 4102POPC   C4B53554  44.851  25.699   7.418
 4103POPC   NC353555  34.640   7.825   5.301
 4103POPC   PO453556  34.724   7.162   5.432
 4103POPC   GL153557  34.625   7.504   5.715
 4103POPC   GL253558  34.243   7.534   5.738
 4103POPC   C1A53559  34.581   7.677   6.136
 4103POPC   D2A53560  34.408   7.659   6.545
 4103POPC   C3A53561  34.639   7.736   6.934
 4103POPC   C4A53562  34.549   7.585   7.320
 4103POPC   C1B53563  34.366   7.220   6.073
 4103POPC   C2B53564  34.210   7.197   6.510
 4103POPC   C3B53565  34.359   7.301   6.921
 4103POPC   C4B53566  34.244   7.151   7.300
 4104POPC   NC353567  39.500  28.746   5.389
 4104POPC   PO453568  39.011  28.254   5.483
 4104POPC   GL153569  39.260  28.458   5.781
 4104POPC   GL253570  39.624  28.343   5.727
 4104POPC   C1A53571  39.037  28.512   6.176
 4104POPC   D2A53572  38.952  28.202   6.511
 4104POPC   C3A53573  39.231  28.206   6.848
 4104POPC   C4A53574  39.175  28.351   7.244
 4104POPC   C1B53575  39.668  28.587   6.107
 4104POPC   C2B53576  39.442  28.583   6.506
 4104POPC   C3B53577  39.357  28.694   6.926
 4104POPC   C4B53578  39.668  28.478   7.180
 4105POPC   NC353579  31.517  12.276   5.420
 4105POPC   PO453580  31.515  11.571   5.425
 4105POPC   GL153581  31.367  11.741   5.829
 4105POPC   GL253582  31.468  12.059   5.909
 4105POPC   C1A53583  31.190  11.844   6.287
 4105POPC   D2A53584  31.326  11.867   6.712
 4105POPC   C3A53585  31.257  11.842   7.142
 4105POPC   C4A53586  31.505  12.005   7.498
 4105POPC   C1B53587  31.564  12.166   6.365
 4105POPC   C2B53588  31.694  12.242   6.768
 4105POPC   C3B53589  31.574  12.394   7.161
 4105POPC   C4B53590  31.542  12.829   7.289
 4106POPC   NC353591   9.107   8.266   5.343
 4106POPC   PO453592   8.571   8.652   5.392
 4106POPC   GL153593   8.765   8.379   5.729
 4106POPC   GL253594   8.932   8.045   5.768
 4106POPC   C1A53595   8.935   8.423   6.144
 4106POPC   D2A53596   8.949   8.146   6.525
 4106POPC   C3A53597   8.938   8.339   6.921
 4106POPC   C4A53598   8.967   8.610   7.264
 4106POPC   C1B53599   8.636   7.999   6.131
 4106POPC   C2B53600   8.535   7.853   6.577
 4106POPC   C3B53601   8.526   8.062   6.995
 4106POPC   C4B53602   8.760   8.110   7.395
 4107POPC   NC353603  41.376   1.266   5.168
 4107POPC   PO453604  41.711   1.477   5.666
 4107POPC   GL153605  41.667   1.093   5.874
 4107POPC   GL253606  41.990   0.965   5.898
 4107POPC   C1A53607  41.397   1.027   6.259
 4107POPC   D2A53608  41.233   1.010   6.688
 4107POPC   C3A53609  41.281   1.318   7.029
 4107POPC   C4A53610  41.526   1.299   7.424
 4107POPC   C1B53611  41.892   1.119   6.332
 4107POPC   C2B53612  41.651   1.355   6.624
 4107POPC   C3B53613  41.775   1.166   6.991
 4107POPC   C4B53614  41.587   0.809   7.131
 4108POPC   NC353615  33.458  44.162   5.560
 4108POPC   PO453616  33.003  44.534   5.222
 4108POPC   GL153617  33.028  44.611   5.688
 4108POPC   GL253618  33.209  44.403   5.934
 4108POPC   C1A53619  32.999  44.823   6.109
 4108POPC   D2A53620  33.025  44.625   6.499
 4108POPC   C3A53621  33.204  44.775   6.883
 4108POPC   C4A53622  33.049  44.748   7.310
 4108POPC   C1B53623  33.466  44.313   6.294
 4108POPC   C2B53624  33.365  44.273   6.724
 4108POPC   C3B53625  33.139  44.310   7.101
 4108POPC   C4B53626  33.278  44.358   7.558
 4109POPC   NC353627  42.143  36.818   5.515
 4109POPC   PO453628  42.668  37.232   5.510
 4109POPC   GL153629  42.591  36.888   5.805
 4109POPC   GL253630  42.340  37.107   5.916
 4109POPC   C1A53631  42.528  36.789   6.280
 4109POPC   D2A53632  42.485  37.086   6.686
 4109POPC   C3A53633  42.576  36.951   7.123
 4109POPC   C4A53634  42.601  36.499   7.248
 4109POPC   C1B53635  42.098  37.077   6.313
 4109POPC   C2B53636  42.099  36.670   6.563
 4109POPC   C3B53637  42.186  36.659   6.956
 4109POPC   C4B53638  42.077  37.067   7.101
 4110POPC   NC353639  30.539  41.203   5.508
 4110POPC   PO453640  30.831  40.489   5.490
 4110POPC   GL153641  30.758  40.662   5.902
 4110POPC   GL253642  30.914  41.003   5.844
 4110POPC   C1A53643  30.533  40.592   6.328
 4110POPC   D2A53644  30.482  40.626   6.778
 4110POPC   C3A53645  30.810  40.773   7.044
 4110POPC   C4A53646  30.835  40.643   7.491
 4110POPC   C1B53647  30.653  41.074   6.190
 4110POPC   C2B53648  30.658  41.113   6.633
 4110POPC   C3B53649  30.550  41.208   7.051
 4110POPC   C4B53650  30.636  41.091   7.511
 4111POPC   NC353651   0.849  42.259   5.419
 4111POPC   PO453652   0.244  42.497   5.255
 4111POPC   GL153653   0.440  42.453   5.703
 4111POPC   GL253654   0.290  42.189   5.886
 4111POPC   C1A53655   0.762  42.333   6.062
 4111POPC   D2A53656   0.843  42.490   6.495
 4111POPC   C3A53657   0.571  42.394   6.841
 4111POPC   C4A53658   0.589  42.328   7.269
 4111POPC   C1B53659   0.302  42.315   6.340
 4111POPC   C2B53660   0.087  42.240   6.749
 4111POPC   C3B53661   0.069  42.190   7.210
 4111POPC   C4B53662  44.978  42.045   7.648
 4112POPC   NC353663  39.501  37.532   5.333
 4112POPC   PO453664  38.987  37.924   5.580
 4112POPC   GL153665  39.247  37.592   5.800
 4112POPC   GL253666  39.577  37.399   5.834
 4112POPC   C1A53667  39.160  37.511   6.221
 4112POPC   D2A53668  38.863  37.679   6.504
 4112POPC   C3A53669  39.081  37.659   6.870
 4112POPC   C4A53670  39.245  37.550   7.237
 4112POPC   C1B53671  39.631  37.302   6.284
 4112POPC   C2B53672  39.551  37.427   6.746
 4112POPC   C3B53673  39.744  37.452   7.190
 4112POPC   C4B53674  39.555  37.544   7.626
 4113POPC   NC353675  40.440  22.685   5.370
 4113POPC   PO453676  40.781  23.260   5.513
 4113POPC   GL153677  40.783  23.077   5.889
 4113POPC   GL253678  40.900  22.766   5.827
 4113POPC   C1A53679  40.525  22.834   6.175
 4113POPC   D2A53680  40.618  22.738   6.595
 4113POPC   C3A53681  40.832  23.111   6.770
 4113POPC   C4A53682  40.857  23.164   7.226
 4113POPC   C1B53683  41.065  22.801   6.257
 4113POPC   C2B53684  41.136  22.670   6.694
 4113POPC   C3B53685  40.891  22.678   7.061
 4113POPC   C4B53686  40.958  22.673   7.529
 4114POPC   NC353687  24.792  36.024   5.545
 4114POPC   PO453688  24.267  36.332   5.241
 4114POPC   GL153689  24.336  36.145   5.725
 4114POPC   GL253690  24.644  36.228   5.979
 4114POPC   C1A53691  24.219  36.150   6.212
 4114POPC   D2A53692  24.051  36.082   6.640
 4114POPC   C3A53693  24.324  36.217   6.963
 4114POPC   C4A53694  24.762  36.313   7.006
 4114POPC   C1B53695  24.680  35.866   6.202
 4114POPC   C2B53696  24.595  36.003   6.585
 4114POPC   C3B53697  24.687  35.808   6.931
 4114POPC   C4B53698  24.673  35.689   7.312
 4115POPC   NC353699  31.881   6.348   5.337
 4115POPC   PO453700  31.171   6.607   5.280
 4115POPC   GL153701  31.288   6.715   5.734
 4115POPC   GL253702  31.641   6.901   5.758
 4115POPC   C1A53703  31.329   6.933   6.156
 4115POPC   D2A53704  31.457   6.732   6.539
 4115POPC   C3A53705  31.568   6.916   6.922
 4115POPC   C4A53706  31.563   6.735   7.332
 4115POPC   C1B53707  31.672   6.543   6.069
 4115POPC   C2B53708  31.747   6.314   6.476
 4115POPC   C3B53709  31.738   6.411   6.922
 4115POPC   C4B53710  31.955   6.397   7.332
 4116POPC   NC353711  28.513  22.169   5.357
 4116POPC   PO453712  27.907  21.920   5.202
 4116POPC   GL153713  28.065  22.087   5.610
 4116POPC   GL253714  28.247  22.438   5.677
 4116POPC   C1A53715  28.092  22.097   6.057
 4116POPC   D2A53716  28.343  21.909   6.368
 4116POPC   C3A53717  28.244  21.982   6.772
 4116POPC   C4A53718  28.326  22.094   7.167
 4116POPC   C1B53719  28.431  22.516   6.055
 4116POPC   C2B53720  28.279  22.407   6.439
 4116POPC   C3B53721  28.088  22.494   6.800
 4116POPC   C4B53722  28.221  22.653   7.157
 4117POPC   NC353723   6.426  38.664   5.352
 4117POPC   PO453724   6.859  38.172   5.485
 4117POPC   GL153725   6.635  38.466   5.813
 4117POPC   GL253726   6.470  38.831   5.821
 4117POPC   C1A53727   6.461  38.505   6.239
 4117POPC   D2A53728   6.537  38.326   6.625
 4117POPC   C3A53729   6.339  38.458   6.972
 4117POPC   C4A53730   6.473  38.219   7.298
 4117POPC   C1B53731   6.302  39.016   6.213
 4117POPC   C2B53732   6.218  38.827   6.604
 4117POPC   C3B53733   6.408  38.980   6.976
 4117POPC   C4B53734   6.651  38.772   7.274
 4118POPC   NC353735  40.392   4.493   5.611
 4118POPC   PO453736  40.852   4.122   5.314
 4118POPC   GL153737  40.918   4.336   5.684
 4118POPC   GL253738  40.677   4.077   5.829
 4118POPC   C1A53739  40.952   4.370   6.128
 4118POPC   D2A53740  40.717   4.322   6.447
 4118POPC   C3A53741  40.818   4.322   6.878
 4118POPC   C4A53742  41.062   4.194   7.231
 4118POPC   C1B53743  40.388   4.041   6.186
 4118POPC   C2B53744  40.269   4.197   6.619
 4118POPC   C3B53745  40.386   4.050   7.024
 4118POPC   C4B53746  40.572   4.282   7.356
 4119POPC   NC353747  26.560   4.893   5.102
 4119POPC   PO453748  27.092   5.098   5.408
 4119POPC   GL153749  26.914   5.236   5.808
 4119POPC   GL253750  26.615   5.172   5.739
 4119POPC   C1A53751  26.994   5.196   6.224
 4119POPC   D2A53752  27.076   4.973   6.606
 4119POPC   C3A53753  26.982   5.208   6.998
 4119POPC   C4A53754  26.782   5.416   7.389
 4119POPC   C1B53755  26.490   5.042   6.147
 4119POPC   C2B53756  26.560   4.877   6.518
 4119POPC   C3B53757  26.492   5.051   6.887
 4119POPC   C4B53758  26.592   4.946   7.275
 4120POPC   NC353759   3.079  37.988   5.400
 4120POPC   PO453760   2.473  37.583   5.420
 4120POPC   GL153761   2.698  37.773   5.772
 4120POPC   GL253762   3.054  37.689   5.832
 4120POPC   C1A53763   2.596  37.785   6.216
 4120POPC   D2A53764   2.598  38.038   6.590
 4120POPC   C3A53765   2.630  37.791   6.986
 4120POPC   C4A53766   2.489  37.610   7.403
 4120POPC   C1B53767   3.138  37.833   6.229
 4120POPC   C2B53768   2.955  37.670   6.583
 4120POPC   C3B53769   3.078  37.559   6.980
 4120POPC   C4B53770   2.987  37.667   7.384
 4121POPC   NC353771  23.821  27.636   5.582
 4121POPC   PO453772  23.314  27.446   5.212
 4121POPC   GL153773  23.498  27.216   5.641
 4121POPC   GL253774  23.886  27.174   5.745
 4121POPC   C1A53775  23.544  27.356   6.115
 4121POPC   D2A53776  23.749  27.683   6.422
 4121POPC   C3A53777  23.652  27.615   6.854
 4121POPC   C4A53778  23.598  27.709   7.275
 4121POPC   C1B53779  24.063  27.365   6.152
 4121POPC   C2B53780  24.057  27.324   6.634
 4121POPC   C3B53781  24.052  27.435   7.109
 4121POPC   C4B53782  23.799  27.271   7.483
 4122POPC   NC353783  25.756  15.957   5.361
 4122POPC   PO453784  26.404  15.689   5.304
 4122POPC   GL153785  26.147  15.777   5.757
 4122POPC   GL253786  25.923  16.112   5.824
 4122POPC   C1A53787  26.199  15.772   6.267
 4122POPC   D2A53788  26.235  16.066   6.670
 4122POPC   C3A53789  26.129  15.970   7.120
 4122POPC   C4A53790  26.172  16.029   7.593
 4122POPC   C1B53791  25.861  16.148   6.276
 4122POPC   C2B53792  25.753  15.861   6.614
 4122POPC   C3B53793  25.656  16.088   6.978
 4122POPC   C4B53794  25.697  16.153   7.395
 4123POPC   NC353795  33.669  34.796   5.450
 4123POPC   PO453796  33.904  34.196   5.449
 4123POPC   GL153797  33.894  34.489   5.824
 4123POPC   GL253798  33.553  34.573   5.931
 4123POPC   C1A53799  34.024  34.650   6.252
 4123POPC   D2A53800  34.080  34.420   6.638
 4123POPC   C3A53801  34.036  34.579   7.050
 4123POPC   C4A53802  33.717  34.355   7.261
 4123POPC   C1B53803  33.539  34.785   6.352
 4123POPC   C2B53804  33.575  34.719   6.818
 4123POPC   C3B53805  33.385  34.749   7.260
 4123POPC   C4B53806  33.400  34.810   7.718
 4124POPC   NC353807   3.682   6.918   5.184
 4124POPC   PO453808   3.821   7.600   5.372
 4124POPC   GL153809   3.682   7.334   5.718
 4124POPC   GL253810   3.350   7.382   5.810
 4124POPC   C1A53811   3.693   7.511   6.157
 4124POPC   D2A53812   3.435   7.638   6.507
 4124POPC   C3A53813   3.564   7.414   6.870
 4124POPC   C4A53814   3.567   7.455   7.294
 4124POPC   C1B53815   3.343   7.160   6.259
 4124POPC   C2B53816   3.129   7.234   6.687
 4124POPC   C3B53817   3.199   7.131   7.138
 4124POPC   C4B53818   3.462   6.764   7.231
 4125POPC   NC353819  43.956  28.226   5.460
 4125POPC   PO453820  43.308  28.395   5.525
 4125POPC   GL153821  43.640  28.339   5.838
 4125POPC   GL253822  43.664  27.969   5.886
 4125POPC   C1A53823  43.730  28.582   6.213
 4125POPC   D2A53824  43.652  28.485   6.606
 4125POPC   C3A53825  43.962  28.491   6.898
 4125POPC   C4A53826  43.883  28.454   7.334
 4125POPC   C1B53827  43.757  28.065   6.341
 4125POPC   C2B53828  43.742  28.025   6.808
 4125POPC   C3B53829  43.798  27.974   7.238
 4125POPC   C4B53830  44.084  28.061   7.599
 4126POPC   NC353831  23.523  20.461   5.468
 4126POPC   PO453832  22.934  20.774   5.199
 4126POPC   GL153833  23.054  20.641   5.642
 4126POPC   GL253834  23.346  20.823   5.779
 4126POPC   C1A53835  22.903  20.661   6.103
 4126POPC   D2A53836  22.659  20.596   6.532
 4126POPC   C3A53837  22.689  20.798   6.932
 4126POPC   C4A53838  22.908  20.587   7.261
 4126POPC   C1B53839  23.333  20.935   6.222
 4126POPC   C2B53840  23.169  20.840   6.681
 4126POPC   C3B53841  23.131  21.009   7.135
 4126POPC   C4B53842  23.246  21.025   7.598
 4127POPC   NC353843  34.134  32.386   5.340
 4127POPC   PO453844  33.629  32.031   5.428
 4127POPC   GL153845  33.847  32.237   5.781
 4127POPC   GL253846  34.048  32.528   5.858
 4127POPC   C1A53847  33.747  32.127   6.213
 4127POPC   D2A53848  33.681  32.421   6.535
 4127POPC   C3A53849  33.651  32.225   6.920
 4127POPC   C4A53850  33.693  32.481   7.280
 4127POPC   C1B53851  34.206  32.351   6.243
 4127POPC   C2B53852  34.130  32.199   6.636
 4127POPC   C3B53853  34.137  32.297   7.060
 4127POPC   C4B53854  34.145  32.360   7.514
 4128POPC   NC353855   9.696  28.754   5.446
 4128POPC   PO453856   9.926  29.405   5.430
 4128POPC   GL153857   9.914  29.130   5.747
 4128POPC   GL253858   9.568  29.177   5.783
 4128POPC   C1A53859   9.866  28.916   6.127
 4128POPC   D2A53860   9.687  29.032   6.512
 4128POPC   C3A53861   9.956  28.976   6.866
 4128POPC   C4A53862  10.053  28.762   7.236
 4128POPC   C1B53863   9.675  29.459   6.114
 4128POPC   C2B53864   9.800  29.527   6.535
 4128POPC   C3B53865   9.650  29.383   6.911
 4128POPC   C4B53866   9.713  29.549   7.292
 4129POPC   NC353867   6.923   4.898   5.519
 4129POPC   PO453868   6.544   5.383   5.347
 4129POPC   GL153869   6.551   5.168   5.761
 4129POPC   GL253870   6.892   5.189   5.944
 4129POPC   C1A53871   6.451   5.129   6.217
 4129POPC   D2A53872   6.778   5.093   6.571
 4129POPC   C3A53873   6.609   5.119   7.004
 4129POPC   C4A53874   6.567   5.115   7.490
 4129POPC   C1B53875   7.136   4.892   6.207
 4129POPC   C2B53876   7.255   4.793   6.611
 4129POPC   C3B53877   6.979   4.758   6.963
 4129POPC   C4B53878   7.001   4.973   7.326
 4130POPC   NC353879   4.457   3.969   5.359
 4130POPC   PO453880   4.774   4.460   5.231
 4130POPC   GL153881   4.504   4.462   5.674
 4130POPC   GL253882   4.301   4.183   5.786
 4130POPC   C1A53883   4.495   4.431   6.180
 4130POPC   D2A53884   4.487   4.284   6.642
 4130POPC   C3A53885   4.480   4.505   7.056
 4130POPC   C4A53886   4.147   4.391   7.350
 4130POPC   C1B53887   3.999   4.223   6.107
 4130POPC   C2B53888   4.028   4.525   6.436
 4130POPC   C3B53889   4.003   4.447   6.855
 4130POPC   C4B53890   3.718   4.151   7.029
 4131POPC   NC353891  10.224  40.339   5.343
 4131POPC   PO453892  10.415  41.115   5.418
 4131POPC   GL153893  10.464  40.937   5.813
 4131POPC   GL253894  10.334  40.645   5.733
 4131POPC   C1A53895  10.289  40.983   6.244
 4131POPC   D2A53896  10.487  41.120   6.647
 4131POPC   C3A53897  10.387  41.087   7.100
 4131POPC   C4A53898  10.574  40.795   7.413
 4131POPC   C1B53899  10.482  40.500   6.129
 4131POPC   C2B53900  10.285  40.523   6.515
 4131POPC   C3B53901  10.424  40.613   6.907
 4131POPC   C4B53902  10.139  40.594   7.224
 4132POPC   NC353903   3.658  12.547   5.196
 4132POPC   PO453904   3.183  12.971   5.370
 4132POPC   GL153905   3.351  12.629   5.617
 4132POPC   GL253906   3.723  12.676   5.711
 4132POPC   C1A53907   3.266  12.644   6.052
 4132POPC   D2A53908   3.416  12.655   6.470
 4132POPC   C3A53909   3.342  12.989   6.746
 4132POPC   C4A53910   3.226  12.830   7.127
 4132POPC   C1B53911   3.742  12.893   6.127
 4132POPC   C2B53912   3.868  12.955   6.565
 4132POPC   C3B53913   3.781  12.811   6.979
 4132POPC   C4B53914   3.913  13.066   7.299
 4133POPC   NC353915  41.304  30.446   5.374
 4133POPC   PO453916  41.450  31.087   5.485
 4133POPC   GL153917  41.414  30.756   5.796
 4133POPC   GL253918  41.691  30.488   5.789
 4133POPC   C1A53919  41.521  30.676   6.235
 4133POPC   D2A53920  41.717  30.868   6.572
 4133POPC   C3A53921  41.594  30.734   6.949
 4133POPC   C4A53922  41.366  30.991   7.191
 4133POPC   C1B53923  41.910  30.327   6.200
 4133POPC   C2B53924  41.843  30.326   6.694
 4133POPC   C3B53925  41.895  30.387   7.188
 4133POPC   C4B53926  41.768  30.387   7.677
 4134POPC   NC353927  37.129   1.358   5.562
 4134POPC   PO453928  37.845   1.391   5.630
 4134POPC   GL153929  37.761   1.025   5.887
 4134POPC   GL253930  37.439   0.891   5.851
 4134POPC   C1A53931  37.883   1.101   6.276
 4134POPC   D2A53932  38.040   1.445   6.449
 4134POPC   C3A53933  37.883   1.518   6.865
 4134POPC   C4A53934  37.528   1.415   7.110
 4134POPC   C1B53935  37.382   1.201   6.205
 4134POPC   C2B53936  37.537   1.181   6.636
 4134POPC   C3B53937  37.667   0.929   6.972
 4134POPC   C4B53938  37.465   0.938   7.345
 4135POPC   NC353939  35.388  23.998   5.346
 4135POPC   PO453940  35.537  23.311   5.414
 4135POPC   GL153941  35.282  23.485   5.787
 4135POPC   GL253942  35.263  23.854   5.840
 4135POPC   C1A53943  35.175  23.564   6.253
 4135POPC   D2A53944  35.178  23.913   6.531
 4135POPC   C3A53945  35.313  23.818   6.962
 4135POPC   C4A53946  35.408  23.398   7.029
 4135POPC   C1B53947  35.542  24.079   6.183
 4135POPC   C2B53948  35.699  24.068   6.634
 4135POPC   C3B53949  35.700  24.140   7.123
 4135POPC   C4B53950  35.460  24.011   7.521
 4136POPC   NC353951  17.043  44.942   5.282
 4136POPC   PO453952  16.649  44.342   5.206
 4136POPC   GL153953  16.668  44.493   5.632
 4136POPC   GL253954  16.961  44.675   5.717
 4136POPC   C1A53955  16.685  44.417   6.094
 4136POPC   D2A53956  16.725  44.718   6.445
 4136POPC   C3A53957  16.634  44.679   6.882
 4136POPC   C4A53958  16.498  44.988   7.160
 4136POPC   C1B53959  17.154  44.716   6.133
 4136POPC   C2B53960  17.193  44.476   6.515
 4136POPC   C3B53961  16.979  44.281   6.863
 4136POPC   C4B53962  16.926  44.479   7.262
 4137POPC   NC353963  15.847  32.531   5.077
 4137POPC   PO453964  15.889  32.047   5.606
 4137POPC   GL153965  15.772  32.166   5.968
 4137POPC   GL253966  16.087  32.368   5.975
 4137POPC   C1A53967  15.697  32.502   6.271
 4137POPC   D2A53968  15.805  32.629   6.671
 4137POPC   C3A53969  15.660  32.302   6.952
 4137POPC   C4A53970  15.802  31.926   7.187
 4137POPC   C1B53971  16.057  32.053   6.341
 4137POPC   C2B53972  16.067  32.052   6.753
 4137POPC   C3B53973  16.215  32.196   7.131
 4137POPC   C4B53974  16.374  31.862   7.363
 4138POPC   NC353975  43.963   8.996   5.276
 4138POPC   PO453976  43.804   8.456   5.547
 4138POPC   GL153977  43.733   8.774   5.857
 4138POPC   GL253978  43.789   9.156   5.746
 4138POPC   C1A53979  43.787   8.692   6.314
 4138POPC   D2A53980  44.139   8.859   6.573
 4138POPC   C3A53981  44.102   8.795   7.018
 4138POPC   C4A53982  43.914   8.747   7.436
 4138POPC   C1B53983  43.922   9.178   6.188
 4138POPC   C2B53984  43.712   9.120   6.620
 4138POPC   C3B53985  43.662   9.099   7.071
 4138POPC   C4B53986  43.686   9.443   7.360
 4139POPC   NC353987  33.938  20.137   5.393
 4139POPC   PO453988  33.712  19.493   5.459
 4139POPC   GL153989  33.732  19.840   5.752
 4139POPC   GL253990  34.081  20.001   5.851
 4139POPC   C1A53991  33.673  20.026   6.140
 4139POPC   D2A53992  33.787  19.834   6.513
 4139POPC   C3A53993  33.875  20.078   6.851
 4139POPC   C4A53994  33.702  19.893   7.210
 4139POPC   C1B53995  34.097  19.628   6.117
 4139POPC   C2B53996  34.213  19.550   6.533
 4139POPC   C3B53997  34.084  19.614   6.950
 4139POPC   C4B53998  34.234  19.937   7.207
 4140POPC   NC353999   7.168  34.841   5.449
 4140POPC   PO454000   6.506  34.872   5.255
 4140POPC   GL154001   6.591  34.732   5.714
 4140POPC   GL254002   6.908  34.518   5.750
 4140POPC   C1A54003   6.526  34.402   6.094
 4140POPC   D2A54004   6.467  34.493   6.559
 4140POPC   C3A54005   6.665  34.328   6.914
 4140POPC   C4A54006   6.871  34.464   7.302
 4140POPC   C1B54007   6.903  34.756   6.137
 4140POPC   C2B54008   6.968  34.620   6.533
 4140POPC   C3B54009   6.892  34.790   6.911
 4140POPC   C4B54010   6.810  35.081   7.211
 4141POPC   NC354011   1.007  32.226   5.350
 4141POPC   PO454012   1.049  31.644   5.362
 4141POPC   GL154013   1.110  31.952   5.791
 4141POPC   GL254014   1.170  32.342   5.837
 4141POPC   C1A54015   1.110  32.080   6.285
 4141POPC   D2A54016   1.190  32.308   6.709
 4141POPC   C3A54017   1.493  32.135   6.969
 4141POPC   C4A54018   1.466  31.999   7.378
 4141POPC   C1B54019   1.239  32.587   6.269
 4141POPC   C2B54020   1.475  32.734   6.664
 4141POPC   C3B54021   1.599  32.628   7.059
 4141POPC   C4B54022   1.642  32.933   7.378
 4142POPC   NC354023  13.978   5.071   5.574
 4142POPC   PO454024  14.485   4.647   5.427
 4142POPC   GL154025  14.313   4.745   5.824
 4142POPC   GL254026  13.962   4.637   5.878
 4142POPC   C1A54027  14.446   5.015   6.158
 4142POPC   D2A54028  14.679   4.925   6.526
 4142POPC   C3A54029  14.661   5.203   6.851
 4142POPC   C4A54030  14.713   5.145   7.274
 4142POPC   C1B54031  14.007   4.815   6.311
 4142POPC   C2B54032  14.190   5.073   6.648
 4142POPC   C3B54033  14.263   4.952   7.078
 4142POPC   C4B54034  14.283   4.500   7.256
 4143POPC   NC354035  36.507   7.300   5.405
 4143POPC   PO454036  37.136   7.563   5.423
 4143POPC   GL154037  36.977   7.452   5.801
 4143POPC   GL254038  36.651   7.614   5.802
 4143POPC   C1A54039  37.131   7.342   6.208
 4143POPC   D2A54040  37.416   7.257   6.524
 4143POPC   C3A54041  37.166   7.225   6.888
 4143POPC   C4A54042  37.096   7.457   7.263
 4143POPC   C1B54043  36.639   7.454   6.207
 4143POPC   C2B54044  36.809   7.513   6.631
 4143POPC   C3B54045  36.718   7.699   7.038
 4143POPC   C4B54046  36.656   7.678   7.524
 4144POPC   NC354047  26.685   2.939   5.327
 4144POPC   PO454048  26.996   2.337   5.355
 4144POPC   GL154049  27.115   2.600   5.711
 4144POPC   GL254050  27.011   2.948   5.807
 4144POPC   C1A54051  27.121   2.562   6.163
 4144POPC   D2A54052  26.841   2.630   6.526
 4144POPC   C3A54053  26.982   2.757   6.924
 4144POPC   C4A54054  27.086   2.546   7.280
 4144POPC   C1B54055  26.683   2.978   6.178
 4144POPC   C2B54056  26.448   2.964   6.617
 4144POPC   C3B54057  26.355   3.048   7.071
 4144POPC   C4B54058  26.681   2.881   7.324
 4145POPC   NC354059   8.747  44.368   5.309
 4145POPC   PO454060   8.986  43.711   5.441
 4145POPC   GL154061   8.970  43.746   5.934
 4145POPC   GL254062   9.277  43.958   5.860
 4145POPC   C1A54063   8.792  43.876   6.412
 4145POPC   D2A54064   8.551  44.191   6.600
 4145POPC   C3A54065   8.748  44.216   6.993
 4145POPC   C4A54066   8.830  43.859   7.273
 4145POPC   C1B54067   9.273  43.986   6.298
 4145POPC   C2B54068   9.082  44.286   6.593
 4145POPC   C3B54069   9.221  44.440   6.982
 4145POPC   C4B54070   9.258  44.116   7.264
 4146POPC   NC354071  38.700   1.940   5.221
 4146POPC   PO454072  38.227   2.304   5.485
 4146POPC   GL154073  38.341   2.048   5.867
 4146POPC   GL254074  38.679   1.900   5.861
 4146POPC   C1A54075  38.348   1.856   6.286
 4146POPC   D2A54076  38.306   1.785   6.700
 4146POPC   C3A54077  38.434   1.991   7.029
 4146POPC   C4A54078  38.224   1.804   7.312
 4146POPC   C1B54079  38.782   2.091   6.258
 4146POPC   C2B54080  38.765   2.040   6.642
 4146POPC   C3B54081  38.940   1.926   7.002
 4146POPC   C4B54082  38.766   1.644   7.269
 4147POPC   NC354083  40.228  15.041   5.096
 4147POPC   PO454084  39.584  14.837   5.347
 4147POPC   GL154085  39.806  14.836   5.847
 4147POPC   GL254086  40.176  15.030   5.950
 4147POPC   C1A54087  39.777  15.163   6.208
 4147POPC   D2A54088  39.787  15.403   6.592
 4147POPC   C3A54089  39.858  15.142   6.960
 4147POPC   C4A54090  40.271  15.054   7.164
 4147POPC   C1B54091  40.246  15.368   6.292
 4147POPC   C2B54092  40.278  15.404   6.761
 4147POPC   C3B54093  40.307  15.667   7.137
 4147POPC   C4B54094  40.409  15.620   7.606
 4148POPC   NC354095  36.198  42.164   5.364
 4148POPC   PO454096  35.894  42.821   5.433
 4148POPC   GL154097  36.129  42.540   5.747
 4148POPC   GL254098  35.995  42.201   5.828
 4148POPC   C1A54099  36.315  42.434   6.171
 4148POPC   D2A54100  36.498  42.469   6.590
 4148POPC   C3A54101  36.329  42.184   6.882
 4148POPC   C4A54102  36.180  42.296   7.280
 4148POPC   C1B54103  35.823  42.332   6.244
 4148POPC   C2B54104  35.963  42.483   6.631
 4148POPC   C3B54105  35.755  42.504   7.003
 4148POPC   C4B54106  35.696  42.188   7.301
 4149POPC   NC354107  26.152  16.920   5.383
 4149POPC   PO454108  25.713  16.440   5.359
 4149POPC   GL154109  25.826  16.669   5.791
 4149POPC   GL254110  26.184  16.844   5.890
 4149POPC   C1A54111  25.821  16.682   6.272
 4149POPC   D2A54112  25.697  16.569   6.713
 4149POPC   C3A54113  26.014  16.457   7.039
 4149POPC   C4A54114  26.040  16.506   7.492
 4149POPC   C1B54115  26.010  17.178   6.174
 4149POPC   C2B54116  25.852  17.119   6.594
 4149POPC   C3B54117  25.996  16.971   6.979
 4149POPC   C4B54118  26.340  16.846   7.205
 4150POPC   NC354119   7.182  33.978   5.303
 4150POPC   PO454120   7.841  33.955   5.276
 4150POPC   GL154121   7.425  33.903   5.727
 4150POPC   GL254122   7.408  33.608   5.878
 4150POPC   C1A54123   7.464  33.919   6.253
 4150POPC   D2A54124   7.590  33.683   6.623
 4150POPC   C3A54125   7.475  33.916   6.980
 4150POPC   C4A54126   7.370  34.134   7.354
 4150POPC   C1B54127   7.111  33.496   6.188
 4150POPC   C2B54128   7.215  33.306   6.577
 4150POPC   C3B54129   7.195  33.488   6.968
 4150POPC   C4B54130   7.242  33.630   7.359
 4151POPC   NC354131  36.054  24.814   5.090
 4151POPC   PO454132  35.886  24.181   5.405
 4151POPC   GL154133  36.180  24.255   5.741
 4151POPC   GL254134  35.949  24.355   5.932
 4151POPC   C1A54135  36.426  24.220   6.143
 4151POPC   D2A54136  36.146  24.300   6.475
 4151POPC   C3A54137  36.165  24.190   6.889
 4151POPC   C4A54138  36.238  24.370   7.290
 4151POPC   C1B54139  36.190  24.686   6.136
 4151POPC   C2B54140  36.298  24.794   6.559
 4151POPC   C3B54141  36.141  24.749   6.965
 4151POPC   C4B54142  35.982  24.895   7.343
 4152POPC   NC354143  17.967  38.663   5.533
 4152POPC   PO454144  17.244  38.508   5.433
 4152POPC   GL154145  17.516  38.519   5.796
 4152POPC   GL254146  17.615  38.201   5.768
 4152POPC   C1A54147  17.363  38.484   6.248
 4152POPC   D2A54148  17.242  38.671   6.613
 4152POPC   C3A54149  17.347  38.525   7.005
 4152POPC   C4A54150  17.275  38.776   7.345
 4152POPC   C1B54151  17.609  38.052   6.168
 4152POPC   C2B54152  17.662  38.172   6.593
 4152POPC   C3B54153  17.511  38.037   6.962
 4152POPC   C4B54154  17.646  37.983   7.312
 4153POPC   NC354155  44.058  32.339   4.849
 4153POPC   PO454156  43.807  32.194   5.421
 4153POPC   GL154157  43.843  32.003   5.840
 4153POPC   GL254158  43.830  32.333   5.961
 4153POPC   C1A54159  43.834  31.943   6.294
 4153POPC   D2A54160  43.965  32.231   6.619
 4153POPC   C3A54161  43.913  32.074   7.034
 4153POPC   C4A54162  44.032  32.141   7.473
 4153POPC   C1B54163  43.607  32.671   6.213
 4153POPC   C2B54164  43.633  32.731   6.650
 4153POPC   C3B54165  43.717  32.549   7.054
 4153POPC   C4B54166  44.085  32.627   7.323
 4154POPC   NC354167  43.378  31.454   5.578
 4154POPC   PO454168  42.759  31.674   5.456
 4154POPC   GL154169  42.861  31.428   5.813
 4154POPC   GL254170  43.000  31.693   5.956
 4154POPC   C1A54171  43.001  31.273   6.220
 4154POPC   D2A54172  43.062  31.444   6.615
 4154POPC   C3A54173  43.247  31.242   6.970
 4154POPC   C4A54174  42.922  31.138   7.267
 4154POPC   C1B54175  43.356  31.698   6.258
 4154POPC   C2B54176  43.422  31.763   6.720
 4154POPC   C3B54177  43.285  31.698   7.183
 4154POPC   C4B54178  43.246  31.764   7.684
 4155POPC   NC354179   0.604  26.562   5.422
 4155POPC   PO454180  44.936  26.570   5.596
 4155POPC   GL154181   0.301  26.793   5.764
 4155POPC   GL254182   0.663  26.936   5.775
 4155POPC   C1A54183   0.320  26.920   6.161
 4155POPC   D2A54184   0.374  27.066   6.531
 4155POPC   C3A54185   0.216  26.804   6.846
 4155POPC   C4A54186   0.276  26.919   7.277
 4155POPC   C1B54187   0.833  26.838   6.190
 4155POPC   C2B54188   0.680  26.672   6.596
 4155POPC   C3B54189   0.704  26.867   6.997
 4155POPC   C4B54190   0.886  26.688   7.387
 4156POPC   NC354191  43.136  21.600   5.555
 4156POPC   PO454192  42.805  21.042   5.504
 4156POPC   GL154193  43.114  21.177   5.833
 4156POPC   GL254194  42.947  21.451   5.997
 4156POPC   C1A54195  43.316  21.239   6.254
 4156POPC   D2A54196  43.109  21.274   6.634
 4156POPC   C3A54197  43.358  21.486   6.968
 4156POPC   C4A54198  43.364  21.308   7.385
 4156POPC   C1B54199  42.960  21.756   6.335
 4156POPC   C2B54200  42.896  21.705   6.779
 4156POPC   C3B54201  42.903  21.407   7.176
 4156POPC   C4B54202  43.024  21.606   7.611
 4157POPC   NC354203  13.517  36.573   5.247
 4157POPC   PO454204  13.316  37.296   5.373
 4157POPC   GL154205  13.556  37.127   5.745
 4157POPC   GL254206  13.634  36.774   5.810
 4157POPC   C1A54207  13.561  37.074   6.204
 4157POPC   D2A54208  13.595  36.898   6.598
 4157POPC   C3A54209  13.686  37.230   6.849
 4157POPC   C4A54210  13.348  37.452   7.101
 4157POPC   C1B54211  13.920  36.695   6.207
 4157POPC   C2B54212  13.884  36.484   6.632
 4157POPC   C3B54213  13.844  36.677   7.037
 4157POPC   C4B54214  13.581  36.971   7.248
 4158POPC   NC354215  37.500  39.956   5.446
 4158POPC   PO454216  38.050  39.582   5.500
 4158POPC   GL154217  37.823  39.856   5.855
 4158POPC   GL254218  37.446  39.816   5.917
 4158POPC   C1A54219  37.723  40.077   6.273
 4158POPC   D2A54220  37.492  40.315   6.544
 4158POPC   C3A54221  37.650  40.208   6.938
 4158POPC   C4A54222  37.678  40.348   7.320
 4158POPC   C1B54223  37.544  39.617   6.276
 4158POPC   C2B54224  37.472  39.803   6.674
 4158POPC   C3B54225  37.563  39.739   7.096
 4158POPC   C4B54226  37.603  39.322   7.197
 4159POPC   NC354227  34.278  18.388   5.598
 4159POPC   PO454228  34.808  18.128   5.219
 4159POPC   GL154229  34.759  18.061   5.686
 4159POPC   GL254230  34.939  18.385   5.776
 4159POPC   C1A54231  34.519  17.978   6.107
 4159POPC   D2A54232  34.606  18.164   6.530
 4159POPC   C3A54233  34.513  17.955   6.920
 4159POPC   C4A54234  34.359  18.168   7.249
 4159POPC   C1B54235  34.721  18.563   6.158
 4159POPC   C2B54236  34.505  18.667   6.557
 4159POPC   C3B54237  34.659  18.484   6.940
 4159POPC   C4B54238  34.936  18.593   7.271
 4160POPC   NC354239  27.759  20.960   5.531
 4160POPC   PO454240  27.140  20.763   5.262
 4160POPC   GL154241  27.396  20.657   5.689
 4160POPC   GL254242  27.382  20.970   5.884
 4160POPC   C1A54243  27.622  20.443   6.084
 4160POPC   D2A54244  27.536  20.193   6.496
 4160POPC   C3A54245  27.556  20.412   6.880
 4160POPC   C4A54246  27.747  20.648   7.201
 4160POPC   C1B54247  27.437  20.871   6.288
 4160POPC   C2B54248  27.254  20.819   6.673
 4160POPC   C3B54249  27.267  20.764   7.105
 4160POPC   C4B54250  27.430  20.977   7.427
 4161POPC   NC354251  29.457  39.085   5.109
 4161POPC   PO454252  28.798  39.326   5.334
 4161POPC   GL154253  29.021  39.404   5.750
 4161POPC   GL254254  29.357  39.247   5.818
 4161POPC   C1A54255  28.917  39.408   6.180
 4161POPC   D2A54256  28.979  39.201   6.564
 4161POPC   C3A54257  28.967  39.359   6.954
 4161POPC   C4A54258  29.136  39.171   7.318
 4161POPC   C1B54259  29.214  38.970   6.172
 4161POPC   C2B54260  29.324  38.796   6.589
 4161POPC   C3B54261  29.469  38.947   7.000
 4161POPC   C4B54262  29.526  38.869   7.458
 4162POPC   NC354263  32.464  12.561   5.567
 4162POPC   PO454264  31.887  12.476   5.218
 4162POPC   GL154265  31.996  12.724   5.692
 4162POPC   GL254266  32.283  12.963   5.823
 4162POPC   C1A54267  32.025  12.778   6.224
 4162POPC   D2A54268  31.778  12.747   6.652
 4162POPC   C3A54269  32.014  12.646   7.041
 4162POPC   C4A54270  32.476  12.597   7.110
 4162POPC   C1B54271  32.530  12.903   6.233
 4162POPC   C2B54272  32.365  12.889   6.688
 4162POPC   C3B54273  32.292  13.084   7.118
 4162POPC   C4B54274  32.313  13.317   7.522
 4163POPC   NC354275  38.752   4.837   5.378
 4163POPC   PO454276  38.211   5.256   5.326
 4163POPC   GL154277  38.553   5.193   5.698
 4163POPC   GL254278  38.600   4.825   5.853
 4163POPC   C1A54279  38.719   5.230   6.139
 4163POPC   D2A54280  38.570   5.049   6.541
 4163POPC   C3A54281  38.423   5.289   6.887
 4163POPC   C4A54282  38.666   5.128   7.206
 4163POPC   C1B54283  38.267   4.838   6.163
 4163POPC   C2B54284  38.119   4.795   6.593
 4163POPC   C3B54285  38.292   4.798   7.008
 4163POPC   C4B54286  38.173   5.057   7.321
 4164POPC   NC354287  29.122  28.208   5.395
 4164POPC   PO454288  29.078  28.848   5.247
 4164POPC   GL154289  28.986  28.625   5.673
 4164POPC   GL254290  29.301  28.536   5.834
 4164POPC   C1A54291  28.926  28.503   6.161
 4164POPC   D2A54292  29.159  28.423   6.592
 4164POPC   C3A54293  28.926  28.450   7.035
 4164POPC   C4A54294  28.980  28.664   7.470
 4164POPC   C1B54295  29.548  28.439   6.208
 4164POPC   C2B54296  29.657  28.243   6.620
 4164POPC   C3B54297  29.384  28.182   6.996
 4164POPC   C4B54298  29.381  28.396   7.388
 4165POPC   NC354299  31.748  36.276   5.268
 4165POPC   PO454300  32.428  36.436   5.383
 4165POPC   GL154301  32.251  36.341   5.738
 4165POPC   GL254302  31.946  36.517   5.768
 4165POPC   C1A54303  32.296  36.042   6.119
 4165POPC   D2A54304  32.117  35.959   6.546
 4165POPC   C3A54305  32.270  36.043   6.950
 4165POPC   C4A54306  32.390  35.859   7.360
 4165POPC   C1B54307  31.909  36.376   6.208
 4165POPC   C2B54308  31.725  36.392   6.633
 4165POPC   C3B54309  31.810  36.423   7.090
 4165POPC   C4B54310  32.139  36.318   7.381
 4166POPC   NC354311  35.105   7.423   5.449
 4166POPC   PO454312  35.734   7.488   5.555
 4166POPC   GL154313  35.455   7.237   5.859
 4166POPC   GL254314  35.104   7.073   5.827
 4166POPC   C1A54315  35.378   7.394   6.304
 4166POPC   D2A54316  35.547   7.721   6.598
 4166POPC   C3A54317  35.531   7.667   7.054
 4166POPC   C4A54318  35.429   7.319   7.321
 4166POPC   C1B54319  34.882   7.208   6.214
 4166POPC   C2B54320  34.908   7.391   6.636
 4166POPC   C3B54321  34.979   7.403   7.097
 4166POPC   C4B54322  34.804   7.159   7.475
 4167POPC   NC354323  22.067  35.559   5.137
 4167POPC   PO454324  21.863  36.193   5.208
 4167POPC   GL154325  21.896  36.178   5.680
 4167POPC   GL254326  22.171  36.070   5.821
 4167POPC   C1A54327  21.831  36.307   6.156
 4167POPC   D2A54328  21.663  36.191   6.583
 4167POPC   C3A54329  21.942  36.261   6.930
 4167POPC   C4A54330  22.064  36.312   7.339
 4167POPC   C1B54331  22.003  35.845   6.215
 4167POPC   C2B54332  22.227  35.767   6.553
 4167POPC   C3B54333  22.047  35.764   6.910
 4167POPC   C4B54334  22.203  35.818   7.268
 4168POPC   NC354335   1.093  28.017   5.347
 4168POPC   PO454336   0.913  28.564   5.458
 4168POPC   GL154337   1.184  28.464   5.794
 4168POPC   GL254338   1.438  28.232   5.683
 4168POPC   C1A54339   1.044  28.379   6.214
 4168POPC   D2A54340   1.211  28.226   6.585
 4168POPC   C3A54341   1.200  28.477   6.946
 4168POPC   C4A54342   1.153  28.403   7.393
 4168POPC   C1B54343   1.441  28.061   6.101
 4168POPC   C2B54344   1.692  28.053   6.472
 4168POPC   C3B54345   1.570  27.968   6.871
 4168POPC   C4B54346   1.576  28.209   7.188
 4169POPC   NC354347  20.175  19.111   5.403
 4169POPC   PO454348  19.493  18.805   5.439
 4169POPC   GL154349  19.816  18.978   5.748
 4169POPC   GL254350  20.181  18.847   5.819
 4169POPC   C1A54351  19.929  19.086   6.173
 4169POPC   D2A54352  19.739  19.059   6.560
 4169POPC   C3A54353  19.935  18.986   6.919
 4169POPC   C4A54354  19.738  19.077   7.305
 4169POPC   C1B54355  20.162  18.588   6.166
 4169POPC   C2B54356  20.190  18.720   6.554
 4169POPC   C3B54357  20.386  18.714   6.945
 4169POPC   C4B54358  20.234  18.892   7.320
 4170POPC   NC354359   3.743   0.360   5.408
 4170POPC   PO454360   3.188   0.806   5.592
 4170POPC   GL154361   3.447   0.522   5.789
 4170POPC   GL254362   3.345   0.168   5.704
 4170POPC   C1A54363   3.702   0.579   6.153
 4170POPC   D2A54364   3.502   0.717   6.544
 4170POPC   C3A54365   3.719   0.565   6.882
 4170POPC   C4A54366   3.589   0.568   7.295
 4170POPC   C1B54367   3.300   0.198   6.168
 4170POPC   C2B54368   3.162   0.314   6.595
 4170POPC   C3B54369   3.287   0.203   7.033
 4170POPC   C4B54370   3.118  44.873   7.276
 4171POPC   NC354371  36.947  18.670   5.548
 4171POPC   PO454372  36.872  19.275   5.147
 4171POPC   GL154373  36.877  19.216   5.611
 4171POPC   GL254374  36.620  18.996   5.759
 4171POPC   C1A54375  36.859  19.342   6.073
 4171POPC   D2A54376  36.778  19.222   6.504
 4171POPC   C3A54377  37.046  19.339   6.848
 4171POPC   C4A54378  37.146  19.121   7.247
 4171POPC   C1B54379  36.834  18.815   6.156
 4171POPC   C2B54380  36.690  18.714   6.563
 4171POPC   C3B54381  36.774  18.903   6.935
 4171POPC   C4B54382  36.750  18.741   7.326
 4172POPC   NC354383  14.390  16.170   5.508
 4172POPC   PO454384  14.166  15.483   5.455
 4172POPC   GL154385  14.308  15.747   5.794
 4172POPC   GL254386  14.663  15.759   5.715
 4172POPC   C1A54387  14.313  16.045   6.171
 4172POPC   D2A54388  14.338  16.251   6.570
 4172POPC   C3A54389  14.487  16.121   6.985
 4172POPC   C4A54390  14.187  16.059   7.299
 4172POPC   C1B54391  14.645  15.674   6.184
 4172POPC   C2B54392  14.701  15.873   6.598
 4172POPC   C3B54393  14.916  15.805   6.985
 4172POPC   C4B54394  14.857  15.412   7.129
 4173POPC   NC354395  37.292   5.873   5.487
 4173POPC   PO454396  36.735   5.589   5.421
 4173POPC   GL154397  36.797   5.667   5.848
 4173POPC   GL254398  37.142   5.610   5.892
 4173POPC   C1A54399  36.869   5.988   6.172
 4173POPC   D2A54400  37.014   6.106   6.581
 4173POPC   C3A54401  36.798   6.105   6.976
 4173POPC   C4A54402  36.927   6.164   7.375
 4173POPC   C1B54403  37.007   5.507   6.319
 4173POPC   C2B54404  36.833   5.619   6.741
 4173POPC   C3B54405  37.078   5.526   7.156
 4173POPC   C4B54406  37.196   5.760   7.558
 4174POPC   NC354407  35.959  35.965   5.548
 4174POPC   PO454408  36.446  36.084   5.125
 4174POPC   GL154409  36.445  36.109   5.653
 4174POPC   GL254410  36.280  35.842   5.917
 4174POPC   C1A54411  36.306  36.316   6.106
 4174POPC   D2A54412  35.977  36.367   6.440
 4174POPC   C3A54413  36.065  36.286   6.847
 4174POPC   C4A54414  36.062  36.340   7.274
 4174POPC   C1B54415  36.109  35.556   6.269
 4174POPC   C2B54416  36.062  35.498   6.722
 4174POPC   C3B54417  36.083  35.814   7.033
 4174POPC   C4B54418  36.111  35.859   7.473
 4175POPC   NC354419   6.880  40.158   5.389
 4175POPC   PO454420   6.139  39.935   5.275
 4175POPC   GL154421   6.441  40.050   5.649
 4175POPC   GL254422   6.349  39.757   5.824
 4175POPC   C1A54423   6.815  39.975   6.006
 4175POPC   D2A54424   6.798  39.850   6.466
 4175POPC   C3A54425   6.981  39.999   6.881
 4175POPC   C4A54426   6.812  39.929   7.312
 4175POPC   C1B54427   6.359  40.050   6.185
 4175POPC   C2B54428   6.422  40.210   6.580
 4175POPC   C3B54429   6.485  40.068   6.962
 4175POPC   C4B54430   6.305  40.227   7.356
 4176POPC   NC354431  23.159  43.301   5.421
 4176POPC   PO454432  22.505  43.225   5.571
 4176POPC   GL154433  22.764  43.414   5.843
 4176POPC   GL254434  22.984  43.141   5.915
 4176POPC   C1A54435  22.735  43.383   6.304
 4176POPC   D2A54436  22.693  43.156   6.668
 4176POPC   C3A54437  22.873  43.298   7.042
 4176POPC   C4A54438  23.276  43.219   7.254
 4176POPC   C1B54439  23.200  43.097   6.319
 4176POPC   C2B54440  23.201  42.999   6.767
 4176POPC   C3B54441  23.000  42.811   7.142
 4176POPC   C4B54442  23.220  42.817   7.567
 4177POPC   NC354443   1.303  17.114   5.427
 4177POPC   PO454444   1.265  16.543   5.567
 4177POPC   GL154445   1.209  16.684   5.938
 4177POPC   GL254446   1.115  16.999   5.894
 4177POPC   C1A54447   0.968  16.742   6.299
 4177POPC   D2A54448   0.980  16.993   6.596
 4177POPC   C3A54449   1.234  16.876   6.917
 4177POPC   C4A54450   1.081  16.678   7.260
 4177POPC   C1B54451   1.462  17.005   6.228
 4177POPC   C2B54452   1.783  17.023   6.552
 4177POPC   C3B54453   1.706  17.146   6.996
 4177POPC   C4B54454   1.502  16.931   7.367
 4178POPC   NC354455   9.591   7.819   5.067
 4178POPC   PO454456  10.005   7.388   5.324
 4178POPC   GL154457   9.897   7.251   5.744
 4178POPC   GL254458   9.552   7.386   5.748
 4178POPC   C1A54459  10.067   7.328   6.180
 4178POPC   D2A54460   9.962   7.527   6.601
 4178POPC   C3A54461  10.084   7.263   6.959
 4178POPC   C4A54462  10.085   7.181   7.412
 4178POPC   C1B54463   9.370   7.514   6.153
 4178POPC   C2B54464   9.276   7.736   6.551
 4178POPC   C3B54465   9.537   7.686   6.903
 4178POPC   C4B54466   9.698   7.483   7.246
 4179POPC   NC354467  22.452  19.456   5.474
 4179POPC   PO454468  21.962  18.990   5.361
 4179POPC   GL154469  21.853  19.024   5.790
 4179POPC   GL254470  22.170  18.815   5.856
 4179POPC   C1A54471  22.008  19.212   6.197
 4179POPC   D2A54472  22.309  19.096   6.543
 4179POPC   C3A54473  22.376  19.342   6.937
 4179POPC   C4A54474  22.057  19.496   7.215
 4179POPC   C1B54475  22.120  18.662   6.279
 4179POPC   C2B54476  22.029  18.669   6.713
 4179POPC   C3B54477  21.965  19.022   6.998
 4179POPC   C4B54478  22.056  19.054   7.454
 4180POPC   NC354479  18.200  20.645   5.476
 4180POPC   PO454480  18.774  20.302   5.436
 4180POPC   GL154481  18.571  20.495   5.820
 4180POPC   GL254482  18.225  20.423   5.935
 4180POPC   C1A54483  18.529  20.754   6.223
 4180POPC   D2A54484  18.605  20.894   6.663
 4180POPC   C3A54485  18.379  20.713   7.046
 4180POPC   C4A54486  17.995  20.492   7.230
 4180POPC   C1B54487  18.452  20.241   6.271
 4180POPC   C2B54488  18.583  20.370   6.682
 4180POPC   C3B54489  18.553  20.228   7.107
 4180POPC   C4B54490  18.338  20.209   7.487
 4181POPC   NC354491  44.028  23.478   5.494
 4181POPC   PO454492  43.772  24.068   5.322
 4181POPC   GL154493  44.050  23.946   5.708
 4181POPC   GL254494  43.862  23.652   5.936
 4181POPC   C1A54495  44.175  23.973   6.154
 4181POPC   D2A54496  43.863  23.800   6.469
 4181POPC   C3A54497  44.001  23.836   6.900
 4181POPC   C4A54498  44.120  23.925   7.310
 4181POPC   C1B54499  44.011  23.354   6.292
 4181POPC   C2B54500  43.845  23.345   6.751
 4181POPC   C3B54501  43.726  23.515   7.211
 4181POPC   C4B54502  43.590  23.416   7.663
 4182POPC   NC354503  40.512  37.160   4.906
 4182POPC   PO454504  40.977  36.824   5.315
 4182POPC   GL154505  40.660  36.696   5.646
 4182POPC   GL254506  40.944  36.584   5.794
 4182POPC   C1A54507  40.520  36.681   6.105
 4182POPC   D2A54508  40.645  37.011   6.440
 4182POPC   C3A54509  40.567  37.068   6.885
 4182POPC   C4A54510  40.424  36.794   7.227
 4182POPC   C1B54511  41.001  36.836   6.104
 4182POPC   C2B54512  41.075  36.700   6.495
 4182POPC   C3B54513  40.886  36.690   6.883
 4182POPC   C4B54514  40.917  36.938   7.259
 4183POPC   NC354515   1.758   5.777   5.465
 4183POPC   PO454516   2.214   6.234   5.425
 4183POPC   GL154517   2.110   5.966   5.817
 4183POPC   GL254518   2.018   5.590   5.861
 4183POPC   C1A54519   2.264   5.817   6.245
 4183POPC   D2A54520   2.106   5.606   6.603
 4183POPC   C3A54521   2.244   5.798   6.974
 4183POPC   C4A54522   2.137   5.735   7.406
 4183POPC   C1B54523   1.747   5.716   6.243
 4183POPC   C2B54524   1.604   5.668   6.708
 4183POPC   C3B54525   1.745   5.900   7.101
 4183POPC   C4B54526   1.694   5.895   7.611
 4184POPC   NC354527  15.422  43.769   5.433
 4184POPC   PO454528  15.128  44.321   5.550
 4184POPC   GL154529  14.983  43.990   5.876
 4184POPC   GL254530  14.962  43.601   5.808
 4184POPC   C1A54531  15.191  43.951   6.284
 4184POPC   D2A54532  15.454  44.151   6.625
 4184POPC   C3A54533  15.539  43.994   7.065
 4184POPC   C4A54534  15.273  44.119   7.439
 4184POPC   C1B54535  14.811  43.598   6.245
 4184POPC   C2B54536  14.894  43.770   6.657
 4184POPC   C3B54537  14.728  43.630   7.022
 4184POPC   C4B54538  14.599  43.801   7.403
 4185POPC   NC354539  32.240  29.417   5.445
 4185POPC   PO454540  32.682  29.026   5.481
 4185POPC   GL154541  32.415  29.137   5.859
 4185POPC   GL254542  32.422  29.507   5.900
 4185POPC   C1A54543  32.386  28.956   6.294
 4185POPC   D2A54544  32.266  28.964   6.754
 4185POPC   C3A54545  32.473  28.906   7.161
 4185POPC   C4A54546  32.300  28.597   7.486
 4185POPC   C1B54547  32.546  29.437   6.290
 4185POPC   C2B54548  32.682  29.234   6.618
 4185POPC   C3B54549  32.468  29.420   6.914
 4185POPC   C4B54550  32.150  29.406   7.202
 4186POPC   NC354551   7.484  26.361   5.374
 4186POPC   PO454552   7.187  25.833   5.368
 4186POPC   GL154553   7.267  25.850   5.806
 4186POPC   GL254554   7.570  26.021   5.766
 4186POPC   C1A54555   7.437  25.845   6.249
 4186POPC   D2A54556   7.649  25.828   6.654
 4186POPC   C3A54557   7.382  26.064   6.932
 4186POPC   C4A54558   7.110  25.926   7.240
 4186POPC   C1B54559   7.647  26.318   6.076
 4186POPC   C2B54560   7.554  26.320   6.512
 4186POPC   C3B54561   7.776  26.389   6.925
 4186POPC   C4B54562   7.604  26.349   7.327
 4187POPC   NC354563   2.386   3.055   5.440
 4187POPC   PO454564   3.095   3.142   5.332
 4187POPC   GL154565   2.933   2.879   5.712
 4187POPC   GL254566   3.176   2.565   5.706
 4187POPC   C1A54567   2.678   2.869   6.148
 4187POPC   D2A54568   2.462   2.709   6.584
 4187POPC   C3A54569   2.512   2.795   7.071
 4187POPC   C4A54570   2.581   2.748   7.552
 4187POPC   C1B54571   2.934   2.424   6.026
 4187POPC   C2B54572   2.968   2.549   6.442
 4187POPC   C3B54573   2.975   2.590   6.890
 4187POPC   C4B54574   3.027   2.642   7.329
 4188POPC   NC354575  12.353  10.960   4.998
 4188POPC   PO454576  12.121  10.591   5.518
 4188POPC   GL154577  11.926  10.688   5.872
 4188POPC   GL254578  11.958  11.029   5.806
 4188POPC   C1A54579  12.070  10.485   6.254
 4188POPC   D2A54580  12.266  10.279   6.612
 4188POPC   C3A54581  12.039  10.472   6.937
 4188POPC   C4A54582  11.760  10.426   7.256
 4188POPC   C1B54583  12.239  10.977   6.183
 4188POPC   C2B54584  12.242  10.834   6.617
 4188POPC   C3B54585  12.186  10.956   7.050
 4188POPC   C4B54586  12.190  10.661   7.398
 4189POPC   NC354587   9.465  14.575   5.538
 4189POPC   PO454588  10.115  14.604   5.317
 4189POPC   GL154589   9.914  14.426   5.731
 4189POPC   GL254590   9.671  14.144   5.745
 4189POPC   C1A54591   9.818  14.439   6.211
 4189POPC   D2A54592   9.892  14.615   6.655
 4189POPC   C3A54593   9.966  14.472   7.091
 4189POPC   C4A54594   9.785  14.333   7.508
 4189POPC   C1B54595   9.396  14.153   6.112
 4189POPC   C2B54596   9.365  14.404   6.495
 4189POPC   C3B54597   9.489  14.350   6.905
 4189POPC   C4B54598   9.330  14.184   7.289
 4190POPC   NC354599  14.618  15.378   5.337
 4190POPC   PO454600  14.652  14.724   5.621
 4190POPC   GL154601  14.424  14.944   5.904
 4190POPC   GL254602  14.518  15.269   5.828
 4190POPC   C1A54603  14.147  14.873   6.245
 4190POPC   D2A54604  14.065  15.041   6.642
 4190POPC   C3A54605  14.422  15.111   6.897
 4190POPC   C4A54606  14.432  15.205   7.309
 4190POPC   C1B54607  14.228  15.382   6.157
 4190POPC   C2B54608  14.268  15.609   6.543
 4190POPC   C3B54609  14.312  15.629   6.989
 4190POPC   C4B54610  14.081  15.568   7.375
 4191POPC   NC354611   2.060  40.973   5.513
 4191POPC   PO454612   2.327  40.365   5.527
 4191POPC   GL154613   2.111  40.570   5.839
 4191POPC   GL254614   1.757  40.686   5.820
 4191POPC   C1A54615   2.120  40.853   6.177
 4191POPC   D2A54616   2.036  40.659   6.519
 4191POPC   C3A54617   2.076  40.860   6.848
 4191POPC   C4A54618   2.165  40.778   7.243
 4191POPC   C1B54619   1.599  40.821   6.243
 4191POPC   C2B54620   1.554  40.751   6.700
 4191POPC   C3B54621   1.664  40.769   7.143
 4191POPC   C4B54622   1.812  40.587   7.551
 4192POPC   NC354623  44.127  20.907   5.649
 4192POPC   PO454624  43.533  21.341   5.489
 4192POPC   GL154625  43.583  21.450   5.876
 4192POPC   GL254626  43.386  21.738   5.976
 4192POPC   C1A54627  43.845  21.280   6.221
 4192POPC   D2A54628  44.015  21.433   6.629
 4192POPC   C3A54629  43.824  21.255   7.021
 4192POPC   C4A54630  44.091  21.086   7.347
 4192POPC   C1B54631  43.786  21.808   6.190
 4192POPC   C2B54632  43.909  21.929   6.604
 4192POPC   C3B54633  43.823  21.807   7.024
 4192POPC   C4B54634  43.770  21.601   7.411
 4193POPC   NC354635   8.177  42.567   5.728
 4193POPC   PO454636   8.520  42.075   5.391
 4193POPC   GL154637   8.287  42.057   5.768
 4193POPC   GL254638   7.923  42.099   5.751
 4193POPC   C1A54639   8.186  42.103   6.185
 4193POPC   D2A54640   8.063  42.406   6.496
 4193POPC   C3A54641   8.163  42.277   6.919
 4193POPC   C4A54642   8.156  42.428   7.354
 4193POPC   C1B54643   7.701  42.225   6.178
 4193POPC   C2B54644   7.719  42.064   6.634
 4193POPC   C3B54645   7.808  41.941   7.069
 4193POPC   C4B54646   7.851  42.064   7.521
 4194POPC   NC354647  12.926  22.859   5.205
 4194POPC   PO454648  12.643  23.378   5.079
 4194POPC   GL154649  12.655  23.058   5.566
 4194POPC   GL254650  13.014  23.016   5.714
 4194POPC   C1A54651  12.692  22.812   6.029
 4194POPC   D2A54652  12.890  22.731   6.475
 4194POPC   C3A54653  12.733  22.902   6.899
 4194POPC   C4A54654  12.478  22.744   7.284
 4194POPC   C1B54655  13.059  23.133   6.192
 4194POPC   C2B54656  13.224  23.327   6.580
 4194POPC   C3B54657  13.241  23.168   7.006
 4194POPC   C4B54658  12.993  23.025   7.321
 4195POPC   NC354659  13.787  37.474   5.394
 4195POPC   PO454660  13.517  38.161   5.257
 4195POPC   GL154661  13.588  37.875   5.638
 4195POPC   GL254662  13.693  38.069   5.918
 4195POPC   C1A54663  13.581  37.576   6.024
 4195POPC   D2A54664  13.471  37.506   6.475
 4195POPC   C3A54665  13.673  37.743   6.813
 4195POPC   C4A54666  13.837  37.562   7.212
 4195POPC   C1B54667  13.419  37.982   6.302
 4195POPC   C2B54668  13.307  38.116   6.717
 4195POPC   C3B54669  13.292  37.971   7.122
 4195POPC   C4B54670  13.475  37.813   7.475
 4196POPC   NC354671  10.726  19.230   5.441
 4196POPC   PO454672  10.162  18.891   5.559
 4196POPC   GL154673  10.403  19.146   5.846
 4196POPC   GL254674  10.781  19.058   5.911
 4196POPC   C1A54675  10.477  19.195   6.287
 4196POPC   D2A54676  10.809  19.139   6.549
 4196POPC   C3A54677  10.638  19.268   6.938
 4196POPC   C4A54678  10.213  19.215   7.103
 4196POPC   C1B54679  10.957  18.741   6.190
 4196POPC   C2B54680  11.131  18.745   6.593
 4196POPC   C3B54681  10.971  18.629   6.967
 4196POPC   C4B54682  10.597  18.789   7.132
 4197POPC   NC354683   0.156  15.027   5.459
 4197POPC   PO454684  44.576  15.373   5.499
 4197POPC   GL154685  44.747  15.182   5.826
 4197POPC   GL254686   0.087  15.341   5.865
 4197POPC   C1A54687  44.623  15.266   6.237
 4197POPC   D2A54688  44.637  15.476   6.610
 4197POPC   C3A54689  44.759  15.257   6.989
 4197POPC   C4A54690  44.562  15.235   7.410
 4197POPC   C1B54691   0.071  14.995   6.174
 4197POPC   C2B54692  44.835  14.944   6.576
 4197POPC   C3B54693  44.870  14.754   6.972
 4197POPC   C4B54694  44.944  14.920   7.359
 4198POPC   NC354695  14.930  32.356   5.349
 4198POPC   PO454696  14.281  32.211   5.451
 4198POPC   GL154697  14.408  32.157   5.864
 4198POPC   GL254698  14.759  32.135   5.771
 4198POPC   C1A54699  14.355  32.182   6.340
 4198POPC   D2A54700  14.328  32.455   6.726
 4198POPC   C3A54701  14.321  32.272   7.183
 4198POPC   C4A54702  14.197  32.170   7.636
 4198POPC   C1B54703  14.828  32.304   6.143
 4198POPC   C2B54704  14.801  32.412   6.546
 4198POPC   C3B54705  14.740  32.181   6.900
 4198POPC   C4B54706  14.855  32.165   7.311
 4199POPC   NC354707  33.627  21.087   5.402
 4199POPC   PO454708  33.542  20.393   5.374
 4199POPC   GL154709  33.852  20.517   5.739
 4199POPC   GL254710  33.949  20.891   5.807
 4199POPC   C1A54711  33.803  20.548   6.190
 4199POPC   D2A54712  33.538  20.662   6.529
 4199POPC   C3A54713  33.747  20.579   6.900
 4199POPC   C4A54714  33.781  20.401   7.273
 4199POPC   C1B54715  33.575  21.010   6.083
 4199POPC   C2B54716  33.540  21.177   6.522
 4199POPC   C3B54717  33.674  21.063   6.938
 4199POPC   C4B54718  33.819  20.922   7.353
 4200POPC   NC354719  36.236   1.773   5.388
 4200POPC   PO454720  35.860   2.293   5.288
 4200POPC   GL154721  35.962   2.077   5.727
 4200POPC   GL254722  35.983   1.702   5.832
 4200POPC   C1A54723  36.146   2.075   6.171
 4200POPC   D2A54724  36.065   1.951   6.609
 4200POPC   C3A54725  36.114   2.257   6.932
 4200POPC   C4A54726  36.213   2.358   7.363
 4200POPC   C1B54727  35.788   1.634   6.257
 4200POPC   C2B54728  35.874   1.416   6.652
 4200POPC   C3B54729  36.051   1.600   7.020
 4200POPC   C4B54730  35.918   1.929   7.322
 4201POPC   NC354731  25.791  25.717   5.438
 4201POPC   PO454732  26.201  26.289   5.598
 4201POPC   GL154733  25.911  26.042   5.868
 4201POPC   GL254734  26.039  25.722   5.880
 4201POPC   C1A54735  25.959  25.926   6.335
 4201POPC   D2A54736  26.291  26.132   6.599
 4201POPC   C3A54737  26.092  26.390   6.887
 4201POPC   C4A54738  25.839  26.083   7.049
 4201POPC   C1B54739  26.261  25.518   6.190
 4201POPC   C2B54740  26.254  25.571   6.638
 4201POPC   C3B54741  26.270  25.733   7.073
 4201POPC   C4B54742  26.303  25.575   7.523
 4202POPC   NC354743  13.892  42.892   5.337
 4202POPC   PO454744  13.251  43.172   5.219
 4202POPC   GL154745  13.475  42.971   5.659
 4202POPC   GL254746  13.794  42.797   5.809
 4202POPC   C1A54747  13.436  42.836   6.147
 4202POPC   D2A54748  13.657  42.925   6.553
 4202POPC   C3A54749  13.491  43.061   6.940
 4202POPC   C4A54750  13.655  43.407   7.189
 4202POPC   C1B54751  14.025  42.906   6.189
 4202POPC   C2B54752  14.189  42.849   6.639
 4202POPC   C3B54753  13.949  42.805   7.067
 4202POPC   C4B54754  13.971  42.668   7.536
 4203POPC   NC354755  31.154  18.793   5.513
 4203POPC   PO454756  30.616  19.007   5.239
 4203POPC   GL154757  30.595  19.144   5.730
 4203POPC   GL254758  30.862  19.273   5.983
 4203POPC   C1A54759  30.381  19.249   6.149
 4203POPC   D2A54760  30.550  19.229   6.582
 4203POPC   C3A54761  30.359  18.998   6.929
 4203POPC   C4A54762  30.336  19.270   7.235
 4203POPC   C1B54763  30.810  18.893   6.227
 4203POPC   C2B54764  30.764  18.749   6.671
 4203POPC   C3B54765  30.852  19.001   7.055
 4203POPC   C4B54766  30.934  19.431   7.224
 4204POPC   NC354767   5.345   0.193   5.441
 4204POPC   PO454768   4.962   0.715   5.304
 4204POPC   GL154769   4.961   0.456   5.675
 4204POPC   GL254770   4.622   0.311   5.735
 4204POPC   C1A54771   5.259   0.540   6.061
 4204POPC   D2A54772   5.492   0.594   6.498
 4204POPC   C3A54773   5.252   0.801   6.839
 4204POPC   C4A54774   5.145   0.656   7.252
 4204POPC   C1B54775   4.867   0.155   6.084
 4204POPC   C2B54776   5.143   0.208   6.447
 4204POPC   C3B54777   5.083   0.317   6.871
 4204POPC   C4B54778   4.932   0.190   7.287
 4205POPC   NC354779  30.725   1.853   5.396
 4205POPC   PO454780  30.596   2.467   5.372
 4205POPC   GL154781  30.551   2.180   5.759
 4205POPC   GL254782  30.935   2.086   5.808
 4205POPC   C1A54783  30.592   1.840   6.104
 4205POPC   D2A54784  30.769   1.676   6.523
 4205POPC   C3A54785  30.692   1.864   6.948
 4205POPC   C4A54786  30.374   2.010   7.230
 4205POPC   C1B54787  31.101   2.050   6.246
 4205POPC   C2B54788  31.016   2.262   6.657
 4205POPC   C3B54789  31.033   2.235   7.117
 4205POPC   C4B54790  31.124   1.810   7.308
 4206POPC   NC354791  27.625  16.150   5.467
 4206POPC   PO454792  27.390  15.538   5.228
 4206POPC   GL154793  27.551  15.585   5.716
 4206POPC   GL254794  27.464  15.888   5.889
 4206POPC   C1A54795  27.605  15.560   6.239
 4206POPC   D2A54796  27.660  15.806   6.657
 4206POPC   C3A54797  27.527  15.723   7.037
 4206POPC   C4A54798  27.590  15.741   7.435
 4206POPC   C1B54799  27.386  16.065   6.293
 4206POPC   C2B54800  27.333  16.228   6.713
 4206POPC   C3B54801  27.200  16.087   7.117
 4206POPC   C4B54802  27.375  16.177   7.504
 4207POPC   NC354803  21.070  30.288   5.524
 4207POPC   PO454804  21.481  29.936   5.217
 4207POPC   GL154805  21.285  29.878   5.739
 4207POPC   GL254806  21.177  30.200   6.009
 4207POPC   C1A54807  21.415  29.795   6.167
 4207POPC   D2A54808  21.651  29.854   6.500
 4207POPC   C3A54809  21.508  29.753   6.853
 4207POPC   C4A54810  21.483  29.787   7.270
 4207POPC   C1B54811  21.463  30.313   6.354
 4207POPC   C2B54812  21.472  30.271   6.828
 4207POPC   C3B54813  21.274  30.242   7.238
 4207POPC   C4B54814  20.940  30.318   7.515
 4208POPC   NC354815   4.737  28.820   5.231
 4208POPC   PO454816   4.199  29.339   5.315
 4208POPC   GL154817   4.361  29.230   5.775
 4208POPC   GL254818   4.045  29.255   5.956
 4208POPC   C1A54819   4.411  29.034   6.241
 4208POPC   D2A54820   4.197  28.978   6.651
 4208POPC   C3A54821   4.359  29.017   7.065
 4208POPC   C4A54822   4.137  29.166   7.439
 4208POPC   C1B54823   4.059  29.464   6.354
 4208POPC   C2B54824   4.020  29.607   6.765
 4208POPC   C3B54825   3.864  29.411   7.090
 4208POPC   C4B54826   3.771  29.503   7.498
 4209POPC   NC354827   0.370  37.271   5.450
 4209POPC   PO454828   0.742  36.698   5.457
 4209POPC   GL154829   0.482  36.844   5.878
 4209POPC   GL254830   0.276  37.162   5.937
 4209POPC   C1A54831   0.187  36.689   6.245
 4209POPC   D2A54832   0.171  36.435   6.685
 4209POPC   C3A54833   0.245  36.601   7.088
 4209POPC   C4A54834   0.672  36.621   7.237
 4209POPC   C1B54835   0.019  37.178   6.318
 4209POPC   C2B54836   0.142  36.963   6.691
 4209POPC   C3B54837   0.502  37.009   6.954
 4209POPC   C4B54838   0.315  37.232   7.257
 4210POPC   NC354839  31.720  32.340   5.344
 4210POPC   PO454840  31.094  32.407   5.478
 4210POPC   GL154841  31.434  32.213   5.759
 4210POPC   GL254842  31.722  32.392   5.867
 4210POPC   C1A54843  31.424  32.107   6.203
 4210POPC   D2A54844  31.336  32.314   6.647
 4210POPC   C3A54845  31.147  32.209   7.069
 4210POPC   C4A54846  31.269  32.431   7.463
 4210POPC   C1B54847  31.826  32.415   6.327
 4210POPC   C2B54848  31.833  32.178   6.720
 4210POPC   C3B54849  31.650  32.266   7.111
 4210POPC   C4B54850  31.754  32.324   7.540
 4211POPC   NC354851   2.533  40.159   5.176
 4211POPC   PO454852   3.119  39.853   5.195
 4211POPC   GL154853   2.801  39.924   5.605
 4211POPC   GL254854   2.777  40.258   5.750
 4211POPC   C1A54855   2.848  39.946   6.134
 4211POPC   D2A54856   2.838  40.211   6.543
 4211POPC   C3A54857   2.746  40.000   6.976
 4211POPC   C4A54858   2.913  39.832   7.404
 4211POPC   C1B54859   2.518  40.364   6.144
 4211POPC   C2B54860   2.316  40.237   6.536
 4211POPC   C3B54861   2.402  40.431   6.917
 4211POPC   C4B54862   2.353  40.301   7.301
 4212POPC   NC354863   7.053  20.839   5.568
 4212POPC   PO454864   7.342  20.362   5.356
 4212POPC   GL154865   7.476  20.613   5.720
 4212POPC   GL254866   7.707  20.897   5.623
 4212POPC   C1A54867   7.318  20.660   6.191
 4212POPC   D2A54868   7.255  20.480   6.627
 4212POPC   C3A54869   7.335  20.642   7.060
 4212POPC   C4A54870   7.387  20.436   7.518
 4212POPC   C1B54871   7.776  20.828   6.072
 4212POPC   C2B54872   7.702  20.804   6.533
 4212POPC   C3B54873   7.847  20.867   6.951
 4212POPC   C4B54874   7.727  20.761   7.354
 4213POPC   NC354875   4.504  21.277   5.436
 4213POPC   PO454876   3.958  21.590   5.133
 4213POPC   GL154877   4.010  21.389   5.639
 4213POPC   GL254878   4.293  21.521   5.850
 4213POPC   C1A54879   3.918  21.342   6.129
 4213POPC   D2A54880   3.963  21.246   6.618
 4213POPC   C3A54881   4.313  21.328   6.963
 4213POPC   C4A54882   4.416  21.502   7.439
 4213POPC   C1B54883   4.416  21.284   6.267
 4213POPC   C2B54884   4.444  20.975   6.631
 4213POPC   C3B54885   4.578  20.910   7.083
 4213POPC   C4B54886   4.676  21.085   7.512
 4214POPC   NC354887  35.499  11.248   5.441
 4214POPC   PO454888  34.866  11.362   5.419
 4214POPC   GL154889  35.127  11.439   5.803
 4214POPC   GL254890  35.515  11.529   5.861
 4214POPC   C1A54891  35.200  11.521   6.246
 4214POPC   D2A54892  35.406  11.365   6.594
 4214POPC   C3A54893  35.384  11.576   6.939
 4214POPC   C4A54894  35.041  11.531   7.207
 4214POPC   C1B54895  35.587  11.161   6.167
 4214POPC   C2B54896  35.823  11.101   6.584
 4214POPC   C3B54897  35.616  11.121   7.007
 4214POPC   C4B54898  35.511  11.371   7.389
 4215POPC   NC354899  24.720   0.321   5.323
 4215POPC   PO454900  23.995   0.251   5.397
 4215POPC   GL154901  24.353   0.354   5.681
 4215POPC   GL254902  24.319   0.706   5.677
 4215POPC   C1A54903  24.601   0.429   6.078
 4215POPC   D2A54904  24.536   0.231   6.483
 4215POPC   C3A54905  24.512   0.382   6.914
 4215POPC   C4A54906  24.749   0.471   7.293
 4215POPC   C1B54907  24.240   0.812   6.109
 4215POPC   C2B54908  24.191   0.630   6.516
 4215POPC   C3B54909  24.000   0.635   6.910
 4215POPC   C4B54910  24.203   0.606   7.298
 4216POPC   NC354911  38.915  23.231   5.645
 4216POPC   PO454912  39.230  22.726   5.423
 4216POPC   GL154913  39.293  22.888   5.803
 4216POPC   GL254914  39.579  22.664   5.867
 4216POPC   C1A54915  39.074  22.881   6.203
 4216POPC   D2A54916  38.908  23.124   6.563
 4216POPC   C3A54917  39.025  22.935   6.974
 4216POPC   C4A54918  39.170  23.015   7.384
 4216POPC   C1B54919  39.590  22.976   6.206
 4216POPC   C2B54920  39.411  22.917   6.615
 4216POPC   C3B54921  39.585  22.867   7.017
 4216POPC   C4B54922  39.882  23.183   7.198
 4217POPC   NC354923  22.589  27.362   5.630
 4217POPC   PO454924  22.453  27.914   5.192
 4217POPC   GL154925  22.308  27.808   5.683
 4217POPC   GL254926  21.949  27.689   5.742
 4217POPC   C1A54927  22.313  27.657   6.156
 4217POPC   D2A54928  22.456  27.494   6.580
 4217POPC   C3A54929  22.332  27.710   6.981
 4217POPC   C4A54930  22.349  27.458   7.384
 4217POPC   C1B54931  21.811  27.556   6.172
 4217POPC   C2B54932  21.947  27.597   6.613
 4217POPC   C3B54933  22.004  27.339   7.003
 4217POPC   C4B54934  21.848  27.477   7.400
 4218POPC   NC354935  42.901   6.881   5.299
 4218POPC   PO454936  43.524   6.701   5.504
 4218POPC   GL154937  43.144   6.582   5.706
 4218POPC   GL254938  43.078   6.893   5.910
 4218POPC   C1A54939  43.081   6.436   6.146
 4218POPC   D2A54940  42.986   6.604   6.582
 4218POPC   C3A54941  43.107   6.858   6.975
 4218POPC   C4A54942  43.063   6.753   7.456
 4218POPC   C1B54943  43.406   6.821   6.292
 4218POPC   C2B54944  43.516   6.631   6.736
 4218POPC   C3B54945  43.394   6.499   7.186
 4218POPC   C4B54946  43.457   6.415   7.658
 4219POPC   NC354947  40.652   7.590   5.589
 4219POPC   PO454948  41.172   7.082   5.496
 4219POPC   GL154949  41.040   7.284   5.836
 4219POPC   GL254950  40.719   7.141   5.869
 4219POPC   C1A54951  41.070   7.417   6.252
 4219POPC   D2A54952  41.041   7.237   6.654
 4219POPC   C3A54953  40.951   7.606   6.914
 4219POPC   C4A54954  40.613   7.770   7.209
 4219POPC   C1B54955  40.660   7.150   6.287
 4219POPC   C2B54956  40.556   7.350   6.638
 4219POPC   C3B54957  40.434   7.280   7.036
 4219POPC   C4B54958  40.270   7.380   7.419
 4220POPC   NC354959  12.067  16.755   5.392
 4220POPC   PO454960  11.712  17.290   5.793
 4220POPC   GL154961  11.965  16.873   5.899
 4220POPC   GL254962  12.208  16.563   5.868
 4220POPC   C1A54963  12.072  16.727   6.322
 4220POPC   D2A54964  11.906  16.846   6.691
 4220POPC   C3A54965  12.161  16.891   7.034
 4220POPC   C4A54966  11.797  16.941   7.266
 4220POPC   C1B54967  12.515  16.483   6.249
 4220POPC   C2B54968  12.407  16.486   6.719
 4220POPC   C3B54969  12.404  16.436   7.206
 4220POPC   C4B54970  12.401  16.203   7.624
 4221POPC   NC354971  15.354  15.767   5.396
 4221POPC   PO454972  14.853  16.206   5.529
 4221POPC   GL154973  15.195  16.055   5.791
 4221POPC   GL254974  15.085  15.816   5.998
 4221POPC   C1A54975  15.401  16.146   6.193
 4221POPC   D2A54976  15.194  16.000   6.560
 4221POPC   C3A54977  15.424  16.074   6.929
 4221POPC   C4A54978  15.277  15.999   7.329
 4221POPC   C1B54979  14.845  16.149   6.200
 4221POPC   C2B54980  14.835  16.381   6.590
 4221POPC   C3B54981  14.973  16.317   7.015
 4221POPC   C4B54982  14.822  16.170   7.442
 4222POPC   NC354983  28.426   8.502   5.406
 4222POPC   PO454984  28.216   9.176   5.393
 4222POPC   GL154985  28.433   8.971   5.717
 4222POPC   GL254986  28.203   9.016   5.988
 4222POPC   C1A54987  28.729   8.918   6.061
 4222POPC   D2A54988  28.882   8.998   6.472
 4222POPC   C3A54989  28.658   8.774   6.787
 4222POPC   C4A54990  28.617   8.923   7.217
 4222POPC   C1B54991  28.357   9.066   6.415
 4222POPC   C2B54992  28.360   9.196   6.852
 4222POPC   C3B54993  28.176   9.161   7.275
 4222POPC   C4B54994  28.067   8.965   7.660
 4223POPC   NC354995  35.987  38.883   5.267
 4223POPC   PO454996  36.473  38.397   5.471
 4223POPC   GL154997  36.199  38.491   5.896
 4223POPC   GL254998  35.877  38.260   5.971
 4223POPC   C1A54999  35.915  38.649   6.246
 4223POPC   D2A55000  35.823  38.598   6.646
 4223POPC   C3A55001  36.144  38.739   6.880
 4223POPC   C4A55002  36.436  38.693   7.197
 4223POPC   C1B55003  36.025  38.115   6.345
 4223POPC   C2B55004  35.888  38.113   6.755
 4223POPC   C3B55005  35.871  38.350   7.129
 4223POPC   C4B55006  35.935  38.194   7.559
 4224POPC   NC355007  21.332  15.057   5.408
 4224POPC   PO455008  21.327  15.672   5.370
 4224POPC   GL155009  21.470  15.373   5.769
 4224POPC   GL255010  21.184  15.137   5.890
 4224POPC   C1A55011  21.543  15.234   6.231
 4224POPC   D2A55012  21.748  15.430   6.582
 4224POPC   C3A55013  21.530  15.414   6.937
 4224POPC   C4A55014  21.418  15.168   7.249
 4224POPC   C1B55015  21.053  14.806   6.203
 4224POPC   C2B55016  20.982  14.730   6.652
 4224POPC   C3B55017  21.029  14.877   7.112
 4224POPC   C4B55018  21.012  14.839   7.624
 4225POPC   NC355019   4.956  37.458   5.513
 4225POPC   PO455020   4.829  38.029   5.289
 4225POPC   GL155021   4.880  37.867   5.782
 4225POPC   GL255022   5.219  37.811   5.905
 4225POPC   C1A55023   4.885  37.696   6.258
 4225POPC   D2A55024   4.926  37.860   6.712
 4225POPC   C3A55025   4.980  37.547   7.054
 4225POPC   C4A55026   5.017  37.488   7.503
 4225POPC   C1B55027   5.404  37.547   6.211
 4225POPC   C2B55028   5.638  37.574   6.576
 4225POPC   C3B55029   5.700  37.429   6.980
 4225POPC   C4B55030   5.452  37.582   7.289
 4226POPC   NC355031  43.988  18.883   5.486
 4226POPC   PO455032  43.945  19.529   5.398
 4226POPC   GL155033  43.705  19.417   5.760
 4226POPC   GL255034  43.614  19.086   5.779
 4226POPC   C1A55035  43.859  19.265   6.204
 4226POPC   D2A55036  44.114  19.343   6.607
 4226POPC   C3A55037  44.077  19.217   7.076
 4226POPC   C4A55038  44.071  19.179   7.575
 4226POPC   C1B55039  43.535  18.855   6.156
 4226POPC   C2B55040  43.711  18.663   6.521
 4226POPC   C3B55041  43.841  18.752   6.927
 4226POPC   C4B55042  43.624  19.015   7.212
 4227POPC   NC355043   2.184  20.299   5.414
 4227POPC   PO455044   1.722  20.802   5.251
 4227POPC   GL155045   1.960  20.737   5.635
 4227POPC   GL255046   1.883  20.412   5.818
 4227POPC   C1A55047   2.046  20.863   6.070
 4227POPC   D2A55048   2.289  20.839   6.493
 4227POPC   C3A55049   2.033  20.820   6.898
 4227POPC   C4A55050   1.765  20.567   7.181
 4227POPC   C1B55051   2.249  20.396   6.111
 4227POPC   C2B55052   2.320  20.331   6.561
 4227POPC   C3B55053   2.446  20.535   6.937
 4227POPC   C4B55054   2.250  20.494   7.350
 4228POPC   NC355055   2.249  38.045   5.376
 4228POPC   PO455056   1.749  37.650   5.232
 4228POPC   GL155057   1.889  37.674   5.680
 4228POPC   GL255058   1.568  37.719   5.815
 4228POPC   C1A55059   2.097  37.562   6.096
 4228POPC   D2A55060   2.144  37.751   6.528
 4228POPC   C3A55061   2.154  37.580   6.957
 4228POPC   C4A55062   2.002  37.737   7.369
 4228POPC   C1B55063   1.696  37.895   6.185
 4228POPC   C2B55064   1.603  37.761   6.565
 4228POPC   C3B55065   1.654  37.751   6.982
 4228POPC   C4B55066   1.742  38.138   7.141
 4229POPC   NC355067   1.416  29.785   5.369
 4229POPC   PO455068   0.924  30.160   5.286
 4229POPC   GL155069   1.120  30.034   5.724
 4229POPC   GL255070   1.198  29.662   5.792
 4229POPC   C1A55071   1.082  29.922   6.198
 4229POPC   D2A55072   1.352  30.040   6.528
 4229POPC   C3A55073   1.251  30.131   6.978
 4229POPC   C4A55074   0.979  29.851   7.216
 4229POPC   C1B55075   1.528  29.689   6.108
 4229POPC   C2B55076   1.719  29.647   6.519
 4229POPC   C3B55077   1.527  29.692   6.919
 4229POPC   C4B55078   1.681  29.729   7.326
 4230POPC   NC355079  17.880   8.684   5.336
 4230POPC   PO455080  17.259   8.914   5.515
 4230POPC   GL155081  17.652   8.831   5.809
 4230POPC   GL255082  17.720   8.470   5.806
 4230POPC   C1A55083  17.772   8.865   6.291
 4230POPC   D2A55084  17.642   9.095   6.707
 4230POPC   C3A55085  17.813   8.992   7.131
 4230POPC   C4A55086  17.700   9.134   7.553
 4230POPC   C1B55087  17.427   8.496   6.169
 4230POPC   C2B55088  17.344   8.679   6.597
 4230POPC   C3B55089  17.330   8.848   7.034
 4230POPC   C4B55090  17.208   8.833   7.454
 4231POPC   NC355091  28.262  29.768   4.966
 4231POPC   PO455092  28.122  29.766   5.638
 4231POPC   GL155093  28.242  30.048   5.930
 4231POPC   GL255094  28.568  30.093   5.830
 4231POPC   C1A55095  28.181  29.954   6.360
 4231POPC   D2A55096  27.994  29.858   6.755
 4231POPC   C3A55097  28.313  29.968   7.030
 4231POPC   C4A55098  28.505  29.738   7.323
 4231POPC   C1B55099  28.677  30.241   6.223
 4231POPC   C2B55100  28.551  30.203   6.627
 4231POPC   C3B55101  28.634  30.383   7.009
 4231POPC   C4B55102  28.586  30.243   7.425
 4232POPC   NC355103  37.543  37.408   5.404
 4232POPC   PO455104  37.722  38.046   5.278
 4232POPC   GL155105  37.673  37.816   5.701
 4232POPC   GL255106  37.820  37.477   5.826
 4232POPC   C1A55107  37.605  37.836   6.161
 4232POPC   D2A55108  37.847  37.563   6.439
 4232POPC   C3A55109  37.733  37.549   6.883
 4232POPC   C4A55110  37.471  37.824   7.117
 4232POPC   C1B55111  37.445  37.356   6.056
 4232POPC   C2B55112  37.308  37.464   6.460
 4232POPC   C3B55113  37.284  37.216   6.813
 4232POPC   C4B55114  37.410  37.314   7.205
 4233POPC   NC355115  42.326   6.365   5.136
 4233POPC   PO455116  42.381   5.806   5.618
 4233POPC   GL155117  42.122   5.712   5.921
 4233POPC   GL255118  42.189   6.044   6.054
 4233POPC   C1A55119  41.884   5.705   6.273
 4233POPC   D2A55120  42.003   5.835   6.686
 4233POPC   C3A55121  42.313   5.592   6.938
 4233POPC   C4A55122  42.293   5.609   7.374
 4233POPC   C1B55123  42.420   5.811   6.360
 4233POPC   C2B55124  42.659   5.909   6.733
 4233POPC   C3B55125  42.474   6.113   7.079
 4233POPC   C4B55126  42.514   6.063   7.525
 4234POPC   NC355127  44.310  20.536   5.217
 4234POPC   PO455128  43.742  20.693   5.502
 4234POPC   GL155129  43.797  20.645   5.933
 4234POPC   GL255130  44.103  20.457   5.887
 4234POPC   C1A55131  43.695  20.611   6.368
 4234POPC   D2A55132  43.547  20.331   6.722
 4234POPC   C3A55133  43.550  20.511   7.107
 4234POPC   C4A55134  43.616  20.875   7.335
 4234POPC   C1B55135  44.211  20.668   6.263
 4234POPC   C2B55136  44.487  20.749   6.606
 4234POPC   C3B55137  44.377  20.711   7.039
 4234POPC   C4B55138  44.036  20.565   7.278
 4235POPC   NC355139  36.179  17.277   5.461
 4235POPC   PO455140  35.757  17.921   5.459
 4235POPC   GL155141  36.029  17.685   5.833
 4235POPC   GL255142  36.344  17.476   5.899
 4235POPC   C1A55143  36.059  17.646   6.313
 4235POPC   D2A55144  35.831  17.908   6.626
 4235POPC   C3A55145  35.884  17.782   7.055
 4235POPC   C4A55146  35.697  17.410   7.191
 4235POPC   C1B55147  36.266  17.197   6.244
 4235POPC   C2B55148  36.145  17.202   6.666
 4235POPC   C3B55149  36.193  17.354   7.080
 4235POPC   C4B55150  36.538  17.515   7.336
 4236POPC   NC355151  25.434  33.614   5.583
 4236POPC   PO455152  24.944  33.279   5.287
 4236POPC   GL155153  24.911  33.526   5.724
 4236POPC   GL255154  25.121  33.782   5.931
 4236POPC   C1A55155  24.921  33.432   6.209
 4236POPC   D2A55156  25.261  33.296   6.503
 4236POPC   C3A55157  25.178  33.521   6.878
 4236POPC   C4A55158  25.037  33.578   7.296
 4236POPC   C1B55159  25.369  33.778   6.325
 4236POPC   C2B55160  25.493  33.994   6.709
 4236POPC   C3B55161  25.270  33.983   7.106
 4236POPC   C4B55162  25.297  33.954   7.549
 4237POPC   NC355163  40.131  12.095   5.297
 4237POPC   PO455164  39.460  11.939   5.382
 4237POPC   GL155165  39.811  12.033   5.726
 4237POPC   GL255166  40.136  12.243   5.786
 4237POPC   C1A55167  39.904  11.981   6.196
 4237POPC   D2A55168  39.853  11.818   6.626
 4237POPC   C3A55169  39.871  12.101   6.975
 4237POPC   C4A55170  39.978  12.051   7.397
 4237POPC   C1B55171  40.045  12.468   6.167
 4237POPC   C2B55172  39.905  12.554   6.569
 4237POPC   C3B55173  40.134  12.558   6.947
 4237POPC   C4B55174  40.280  12.527   7.361
 4238POPC   NC355175  26.745  24.529   5.474
 4238POPC   PO455176  26.689  23.919   5.426
 4238POPC   GL155177  26.956  24.174   5.762
 4238POPC   GL255178  27.142  24.503   5.832
 4238POPC   C1A55179  26.792  24.334   6.168
 4238POPC   D2A55180  26.551  24.253   6.542
 4238POPC   C3A55181  26.697  24.281   6.963
 4238POPC   C4A55182  26.479  24.557   7.230
 4238POPC   C1B55183  27.104  24.755   6.195
 4238POPC   C2B55184  26.952  24.617   6.597
 4238POPC   C3B55185  26.780  24.834   6.935
 4238POPC   C4B55186  26.907  24.805   7.355
 4239POPC   NC355187   7.659  43.402   5.546
 4239POPC   PO455188   7.172  42.989   5.608
 4239POPC   GL155189   7.505  43.019   5.875
 4239POPC   GL255190   7.836  42.949   5.800
 4239POPC   C1A55191   7.617  43.253   6.239
 4239POPC   D2A55192   7.360  43.426   6.580
 4239POPC   C3A55193   7.497  43.372   6.992
 4239POPC   C4A55194   7.493  42.957   7.127
 4239POPC   C1B55195   7.760  42.735   6.217
 4239POPC   C2B55196   7.645  42.637   6.652
 4239POPC   C3B55197   7.931  42.737   7.013
 4239POPC   C4B55198   7.832  42.785   7.476
 4240POPC   NC355199   7.275  32.867   5.243
 4240POPC   PO455200   7.221  33.509   5.400
 4240POPC   GL155201   7.355  33.153   5.681
 4240POPC   GL255202   7.090  32.922   5.741
 4240POPC   C1A55203   7.565  33.169   6.120
 4240POPC   D2A55204   7.632  32.971   6.549
 4240POPC   C3A55205   7.638  33.236   6.912
 4240POPC   C4A55206   7.496  33.184   7.340
 4240POPC   C1B55207   7.099  32.977   6.184
 4240POPC   C2B55208   7.119  32.792   6.612
 4240POPC   C3B55209   7.283  32.833   7.040
 4240POPC   C4B55210   7.157  32.747   7.495
 4241POPC   NC355211   9.300  18.082   5.421
 4241POPC   PO455212   8.715  18.165   5.351
 4241POPC   GL155213   8.993  18.295   5.784
 4241POPC   GL255214   9.121  17.996   5.913
 4241POPC   C1A55215   9.126  18.358   6.276
 4241POPC   D2A55216   9.273  18.140   6.664
 4241POPC   C3A55217   9.020  18.243   7.013
 4241POPC   C4A55218   8.962  18.649   7.153
 4241POPC   C1B55219   8.836  17.940   6.285
 4241POPC   C2B55220   8.672  18.128   6.665
 4241POPC   C3B55221   8.545  17.984   7.066
 4241POPC   C4B55222   8.801  17.995   7.403
 4242POPC   NC355223  22.837  27.432   5.148
 4242POPC   PO455224  22.792  27.976   5.598
 4242POPC   GL155225  22.968  27.688   5.841
 4242POPC   GL255226  23.318  27.709   5.730
 4242POPC   C1A55227  22.825  27.744   6.267
 4242POPC   D2A55228  22.740  27.912   6.688
 4242POPC   C3A55229  22.818  27.568   6.980
 4242POPC   C4A55230  23.210  27.430   7.101
 4242POPC   C1B55231  23.342  27.844   6.169
 4242POPC   C2B55232  23.233  27.728   6.588
 4242POPC   C3B55233  23.207  27.911   6.976
 4242POPC   C4B55234  23.118  27.891   7.382
 4243POPC   NC355235  40.323  41.443   5.377
 4243POPC   PO455236  39.797  41.878   5.439
 4243POPC   GL155237  40.050  41.705   5.786
 4243POPC   GL255238  39.956  41.366   5.811
 4243POPC   C1A55239  40.215  41.552   6.210
 4243POPC   D2A55240  40.310  41.283   6.588
 4243POPC   C3A55241  40.290  41.591   6.927
 4243POPC   C4A55242  40.175  41.634   7.368
 4243POPC   C1B55243  39.694  41.376   6.160
 4243POPC   C2B55244  39.834  41.486   6.564
 4243POPC   C3B55245  39.791  41.550   7.005
 4243POPC   C4B55246  39.642  41.281   7.325
 4244POPC   NC355247  30.144   2.489   5.428
 4244POPC   PO455248  29.550   2.809   5.577
 4244POPC   GL155249  29.868   2.773   5.863
 4244POPC   GL255250  30.002   3.084   5.955
 4244POPC   C1A55251  29.929   2.610   6.271
 4244POPC   D2A55252  30.025   2.584   6.695
 4244POPC   C3A55253  29.717   2.730   7.032
 4244POPC   C4A55254  29.829   2.705   7.503
 4244POPC   C1B55255  30.235   3.048   6.293
 4244POPC   C2B55256  30.372   2.977   6.690
 4244POPC   C3B55257  30.199   2.928   7.054
 4244POPC   C4B55258  29.890   3.138   7.286
 4245POPC   NC355259  20.270   3.377   5.613
 4245POPC   PO455260  19.644   3.248   5.448
 4245POPC   GL155261  19.703   3.494   5.818
 4245POPC   GL255262  19.427   3.678   5.922
 4245POPC   C1A55263  19.917   3.403   6.208
 4245POPC   D2A55264  20.140   3.629   6.526
 4245POPC   C3A55265  19.883   3.613   6.894
 4245POPC   C4A55266  19.964   3.428   7.293
 4245POPC   C1B55267  19.649   3.864   6.263
 4245POPC   C2B55268  19.483   4.074   6.619
 4245POPC   C3B55269  19.384   3.814   6.965
 4245POPC   C4B55270  19.602   3.785   7.347
 4246POPC   NC355271  32.899  17.815   5.550
 4246POPC   PO455272  33.290  17.350   5.449
 4246POPC   GL155273  32.950  17.342   5.784
 4246POPC   GL255274  32.593  17.497   5.817
 4246POPC   C1A55275  32.886  17.307   6.236
 4246POPC   D2A55276  33.006  17.633   6.574
 4246POPC   C3A55277  32.990  17.574   7.040
 4246POPC   C4A55278  33.277  17.471   7.372
 4246POPC   C1B55279  32.678  17.817   6.192
 4246POPC   C2B55280  32.618  17.939   6.679
 4246POPC   C3B55281  32.564  17.835   7.150
 4246POPC   C4B55282  32.880  17.777   7.540
 4247POPC   NC355283  22.737   2.980   5.355
 4247POPC   PO455284  23.399   2.851   5.463
 4247POPC   GL155285  23.054   2.994   5.764
 4247POPC   GL255286  22.649   3.018   5.857
 4247POPC   C1A55287  22.981   2.703   6.093
 4247POPC   D2A55288  23.142   2.595   6.479
 4247POPC   C3A55289  22.911   2.800   6.774
 4247POPC   C4A55290  22.981   2.717   7.183
 4247POPC   C1B55291  22.530   2.873   6.299
 4247POPC   C2B55292  22.564   2.476   6.530
 4247POPC   C3B55293  22.578   2.446   6.958
 4247POPC   C4B55294  22.469   2.785   7.224
 4248POPC   NC355295   2.374  26.489   5.452
 4248POPC   PO455296   1.763  26.769   5.444
 4248POPC   GL155297   1.908  26.632   5.857
 4248POPC   GL255298   2.257  26.646   5.905
 4248POPC   C1A55299   1.896  26.730   6.298
 4248POPC   D2A55300   1.675  26.718   6.700
 4248POPC   C3A55301   1.683  26.989   7.046
 4248POPC   C4A55302   1.798  26.890   7.471
 4248POPC   C1B55303   2.325  26.437   6.272
 4248POPC   C2B55304   2.322  26.727   6.587
 4248POPC   C3B55305   2.192  26.898   6.953
 4248POPC   C4B55306   2.400  26.801   7.309
 4249POPC   NC355307   1.883  43.375   5.470
 4249POPC   PO455308   1.901  42.757   5.319
 4249POPC   GL155309   2.076  42.768   5.770
 4249POPC   GL255310   1.999  43.126   5.882
 4249POPC   C1A55311   2.111  42.839   6.256
 4249POPC   D2A55312   1.881  43.106   6.564
 4249POPC   C3A55313   2.015  43.037   6.974
 4249POPC   C4A55314   2.060  42.686   7.272
 4249POPC   C1B55315   1.778  43.430   6.168
 4249POPC   C2B55316   1.580  43.528   6.561
 4249POPC   C3B55317   1.766  43.517   6.959
 4249POPC   C4B55318   1.802  43.566   7.386
 4250POPC   NC355319  40.202  31.631   5.253
 4250POPC   PO455320  40.296  31.013   5.302
 4250POPC   GL155321  40.132  31.369   5.694
 4250POPC   GL255322  40.167  31.749   5.756
 4250POPC   C1A55323  39.776  31.538   6.038
 4250POPC   D2A55324  39.599  31.586   6.495
 4250POPC   C3A55325  39.837  31.370   6.825
 4250POPC   C4A55326  39.999  31.258   7.225
 4250POPC   C1B55327  40.280  31.544   6.176
 4250POPC   C2B55328  40.278  31.516   6.633
 4250POPC   C3B55329  40.187  31.688   7.042
 4250POPC   C4B55330  40.085  31.718   7.503
 4251POPC   NC355331  12.636  35.627   5.539
 4251POPC   PO455332  13.151  35.171   5.409
 4251POPC   GL155333  13.047  35.405   5.791
 4251POPC   GL255334  13.325  35.560   5.968
 4251POPC   C1A55335  12.717  35.382   6.134
 4251POPC   D2A55336  12.609  35.078   6.465
 4251POPC   C3A55337  12.446  35.307   6.812
 4251POPC   C4A55338  12.724  35.251   7.153
 4251POPC   C1B55339  13.064  35.773   6.274
 4251POPC   C2B55340  12.755  35.638   6.582
 4251POPC   C3B55341  12.694  35.751   7.007
 4251POPC   C4B55342  13.068  35.681   7.256
 4252POPC   NC355343   0.146  38.990   5.179
 4252POPC   PO455344   0.567  39.526   5.412
 4252POPC   GL155345   0.649  39.480   5.861
 4252POPC   GL255346   0.563  39.117   5.881
 4252POPC   C1A55347   0.610  39.370   6.321
 4252POPC   D2A55348   0.788  39.035   6.620
 4252POPC   C3A55349   0.773  39.152   7.063
 4252POPC   C4A55350   0.502  39.427   7.317
 4252POPC   C1B55351   0.216  38.989   6.148
 4252POPC   C2B55352   0.187  38.749   6.536
 4252POPC   C3B55353   0.276  38.948   6.940
 4252POPC   C4B55354   0.117  39.065   7.352
 4253POPC   NC355355  44.040  30.875   5.490
 4253POPC   PO455356  43.582  30.328   5.347
 4253POPC   GL155357  43.820  30.467   5.717
 4253POPC   GL255358  43.644  30.766   5.801
 4253POPC   C1A55359  44.019  30.700   6.112
 4253POPC   D2A55360  43.827  30.787   6.493
 4253POPC   C3A55361  44.123  30.720   6.844
 4253POPC   C4A55362  44.134  30.884   7.258
 4253POPC   C1B55363  43.559  30.465   6.166
 4253POPC   C2B55364  43.401  30.503   6.618
 4253POPC   C3B55365  43.620  30.719   6.954
 4253POPC   C4B55366  43.751  30.600   7.324
 4254POPC   NC355367   2.059  17.055   5.537
 4254POPC   PO455368   1.931  16.464   5.251
 4254POPC   GL155369   1.968  16.554   5.727
 4254POPC   GL255370   1.691  16.804   5.803
 4254POPC   C1A55371   2.100  16.677   6.181
 4254POPC   D2A55372   2.273  16.485   6.596
 4254POPC   C3A55373   2.233  16.638   7.032
 4254POPC   C4A55374   2.012  16.894   7.305
 4254POPC   C1B55375   1.630  16.492   6.145
 4254POPC   C2B55376   1.770  16.491   6.547
 4254POPC   C3B55377   1.707  16.646   6.937
 4254POPC   C4B55378   1.686  16.456   7.316
 4255POPC   NC355379   4.109  28.339   4.958
 4255POPC   PO455380   4.595  28.442   5.509
 4255POPC   GL155381   4.312  28.400   5.860
 4255POPC   GL255382   4.576  28.263   6.054
 4255POPC   C1A55383   4.106  28.289   6.247
 4255POPC   D2A55384   4.347  28.485   6.521
 4255POPC   C3A55385   4.274  28.517   6.947
 4255POPC   C4A55386   4.173  28.217   7.259
 4255POPC   C1B55387   4.488  27.975   6.389
 4255POPC   C2B55388   4.324  28.013   6.785
 4255POPC   C3B55389   4.635  28.158   7.071
 4255POPC   C4B55390   4.624  28.347   7.486
 4256POPC   NC355391  44.886  31.125   5.345
 4256POPC   PO455392  44.684  31.724   5.522
 4256POPC   GL155393  44.645  31.383   5.792
 4256POPC   GL255394  44.309  31.299   5.694
 4256POPC   C1A55395  44.726  31.371   6.263
 4256POPC   D2A55396  44.613  31.433   6.702
 4256POPC   C3A55397  44.900  31.511   7.078
 4256POPC   C4A55398   0.144  31.551   7.462
 4256POPC   C1B55399  44.312  31.121   6.099
 4256POPC   C2B55400  44.157  31.169   6.497
 4256POPC   C3B55401  44.173  31.259   6.911
 4256POPC   C4B55402  44.512  31.189   7.132
 4257POPC   NC355403  42.723  22.221   5.426
 4257POPC   PO455404  43.372  22.028   5.535
 4257POPC   GL155405  43.110  22.241   5.773
 4257POPC   GL255406  42.903  21.957   5.844
 4257POPC   C1A55407  43.127  22.393   6.178
 4257POPC   D2A55408  43.129  22.441   6.630
 4257POPC   C3A55409  43.327  22.056   6.852
 4257POPC   C4A55410  43.376  21.908   7.280
 4257POPC   C1B55411  42.664  22.172   6.130
 4257POPC   C2B55412  42.626  22.149   6.559
 4257POPC   C3B55413  42.831  22.188   6.947
 4257POPC   C4B55414  42.880  21.913   7.241
 4258POPC   NC355415  27.036  12.247   5.298
 4258POPC   PO455416  26.375  12.233   5.375
 4258POPC   GL155417  26.668  12.017   5.721
 4258POPC   GL255418  26.952  12.202   5.810
 4258POPC   C1A55419  26.859  11.907   6.194
 4258POPC   D2A55420  26.651  12.035   6.581
 4258POPC   C3A55421  26.594  11.767   6.927
 4258POPC   C4A55422  26.655  11.624   7.336
 4258POPC   C1B55423  26.775  12.410   6.212
 4258POPC   C2B55424  26.617  12.536   6.637
 4258POPC   C3B55425  26.636  12.332   7.027
 4258POPC   C4B55426  26.986  12.303   7.269
 4259POPC   NC355427  14.764  26.512   5.259
 4259POPC   PO455428  15.095  25.911   5.421
 4259POPC   GL155429  15.320  25.755   5.789
 4259POPC   GL255430  15.361  26.099   5.832
 4259POPC   C1A55431  15.277  25.736   6.277
 4259POPC   D2A55432  15.014  25.996   6.574
 4259POPC   C3A55433  15.151  26.048   7.012
 4259POPC   C4A55434  15.007  26.020   7.467
 4259POPC   C1B55435  15.575  26.144   6.189
 4259POPC   C2B55436  15.508  26.073   6.637
 4259POPC   C3B55437  15.645  26.237   7.025
 4259POPC   C4B55438  15.443  26.260   7.371
 4260POPC   NC355439   3.559  42.156   5.470
 4260POPC   PO455440   3.601  42.814   5.463
 4260POPC   GL155441   3.755  42.480   5.817
 4260POPC   GL255442   3.466  42.269   5.965
 4260POPC   C1A55443   3.883  42.270   6.253
 4260POPC   D2A55444   3.725  42.192   6.698
 4260POPC   C3A55445   3.915  42.343   7.106
 4260POPC   C4A55446   3.825  42.171   7.511
 4260POPC   C1B55447   3.319  42.022   6.331
 4260POPC   C2B55448   3.198  42.048   6.767
 4260POPC   C3B55449   3.433  42.044   7.111
 4260POPC   C4B55450   3.445  42.457   7.209
 4261POPC   NC355451  34.808   5.563   5.623
 4261POPC   PO455452  34.399   5.954   5.154
 4261POPC   GL155453  34.395   6.058   5.668
 4261POPC   GL255454  34.696   6.010   5.794
 4261POPC   C1A55455  34.395   5.864   6.164
 4261POPC   D2A55456  34.440   5.954   6.609
 4261POPC   C3A55457  34.550   5.659   6.933
 4261POPC   C4A55458  34.920   5.721   7.186
 4261POPC   C1B55459  34.820   6.174   6.184
 4261POPC   C2B55460  35.014   6.099   6.607
 4261POPC   C3B55461  35.142   6.252   7.042
 4261POPC   C4B55462  35.089   6.115   7.501
 4262POPC   NC355463   8.742  26.907   5.580
 4262POPC   PO455464   9.328  26.723   5.476
 4262POPC   GL155465   9.140  26.781   5.865
 4262POPC   GL255466   9.158  27.130   5.871
 4262POPC   C1A55467   8.889  26.927   6.238
 4262POPC   D2A55468   8.663  27.048   6.578
 4262POPC   C3A55469   8.781  26.858   6.876
 4262POPC   C4A55470   9.009  26.902   7.193
 4262POPC   C1B55471   9.306  27.256   6.236
 4262POPC   C2B55472   9.230  27.063   6.632
 4262POPC   C3B55473   9.484  27.166   6.956
 4262POPC   C4B55474   9.504  27.017   7.326
 4263POPC   NC355475  18.020  44.346   5.068
 4263POPC   PO455476  18.262  44.935   5.431
 4263POPC   GL155477  18.342  44.753   5.826
 4263POPC   GL255478  18.501  44.448   5.743
 4263POPC   C1A55479  18.164  44.529   6.203
 4263POPC   D2A55480  18.280  44.538   6.643
 4263POPC   C3A55481  18.173  44.760   7.018
 4263POPC   C4A55482  18.418  44.782   7.392
 4263POPC   C1B55483  18.692  44.506   6.166
 4263POPC   C2B55484  18.770  44.357   6.597
 4263POPC   C3B55485  18.644  44.435   7.040
 4263POPC   C4B55486  18.524  44.300   7.486
 4264POPC   NC355487  15.868  38.027   5.537
 4264POPC   PO455488  15.938  37.372   5.439
 4264POPC   GL155489  15.971  37.600   5.829
 4264POPC   GL255490  16.190  37.901   5.899
 4264POPC   C1A55491  15.932  37.640   6.264
 4264POPC   D2A55492  16.210  37.782   6.587
 4264POPC   C3A55493  15.993  37.673   6.942
 4264POPC   C4A55494  16.122  37.549   7.322
 4264POPC   C1B55495  15.986  38.134   6.251
 4264POPC   C2B55496  15.807  38.094   6.682
 4264POPC   C3B55497  15.976  38.155   7.111
 4264POPC   C4B55498  16.090  38.115   7.553
 4265POPC   NC355499  41.669   3.239   5.346
 4265POPC   PO455500  41.766   3.930   5.414
 4265POPC   GL155501  41.487   3.690   5.706
 4265POPC   GL255502  41.536   3.341   5.828
 4265POPC   C1A55503  41.320   3.655   6.149
 4265POPC   D2A55504  41.545   3.684   6.514
 4265POPC   C3A55505  41.349   3.702   6.894
 4265POPC   C4A55506  41.658   3.911   7.154
 4265POPC   C1B55507  41.541   3.206   6.256
 4265POPC   C2B55508  41.612   3.211   6.690
 4265POPC   C3B55509  41.766   3.417   7.032
 4265POPC   C4B55510  41.446   3.487   7.355
 4266POPC   NC355511  17.137  14.603   5.491
 4266POPC   PO455512  17.765  14.420   5.228
 4266POPC   GL155513  17.632  14.222   5.711
 4266POPC   GL255514  17.294  14.312   5.847
 4266POPC   C1A55515  17.495  14.009   6.173
 4266POPC   D2A55516  17.304  14.131   6.597
 4266POPC   C3A55517  17.573  14.260   6.932
 4266POPC   C4A55518  17.539  14.429   7.345
 4266POPC   C1B55519  17.153  14.478   6.246
 4266POPC   C2B55520  17.256  14.648   6.664
 4266POPC   C3B55521  17.119  14.455   7.053
 4266POPC   C4B55522  17.087  14.456   7.564
 4267POPC   NC355523   3.913   8.784   5.542
 4267POPC   PO455524   3.291   9.022   5.625
 4267POPC   GL155525   3.606   9.008   5.924
 4267POPC   GL255526   3.609   8.647   5.946
 4267POPC   C1A55527   3.481   8.964   6.378
 4267POPC   D2A55528   3.449   8.690   6.765
 4267POPC   C3A55529   3.563   8.975   7.108
 4267POPC   C4A55530   3.915   9.254   7.032
 4267POPC   C1B55531   3.800   8.542   6.356
 4267POPC   C2B55532   3.942   8.464   6.787
 4267POPC   C3B55533   4.002   8.735   7.143
 4267POPC   C4B55534   3.806   8.754   7.557
 4268POPC   NC355535  10.044  42.654   5.489
 4268POPC   PO455536   9.446  42.449   5.437
 4268POPC   GL155537   9.643  42.272   5.827
 4268POPC   GL255538  10.024  42.278   5.871
 4268POPC   C1A55539   9.690  42.445   6.268
 4268POPC   D2A55540   9.705  42.742   6.620
 4268POPC   C3A55541   9.428  42.638   6.945
 4268POPC   C4A55542   9.523  42.284   7.200
 4268POPC   C1B55543  10.036  42.052   6.285
 4268POPC   C2B55544  10.030  41.999   6.731
 4268POPC   C3B55545  10.012  42.134   7.158
 4268POPC   C4B55546   9.798  41.952   7.510
 4269POPC   NC355547   0.440  17.182   4.986
 4269POPC   PO455548   0.446  16.714   5.356
 4269POPC   GL155549   0.410  16.709   5.771
 4269POPC   GL255550   0.728  16.661   5.818
 4269POPC   C1A55551   0.283  16.741   6.196
 4269POPC   D2A55552   0.504  16.760   6.581
 4269POPC   C3A55553   0.315  16.604   6.960
 4269POPC   C4A55554   0.424  16.798   7.341
 4269POPC   C1B55555   0.642  16.393   6.136
 4269POPC   C2B55556   0.755  16.323   6.525
 4269POPC   C3B55557   0.815  16.467   6.893
 4269POPC   C4B55558   0.632  16.296   7.240
 4270POPC   NC355559  22.765  33.224   5.482
 4270POPC   PO455560  23.323  32.751   5.473
 4270POPC   GL155561  23.078  32.944   5.797
 4270POPC   GL255562  22.729  32.882   5.869
 4270POPC   C1A55563  23.079  33.112   6.198
 4270POPC   D2A55564  22.890  33.030   6.579
 4270POPC   C3A55565  23.178  33.143   6.898
 4270POPC   C4A55566  23.142  33.037   7.313
 4270POPC   C1B55567  22.546  33.194   6.164
 4270POPC   C2B55568  22.311  33.150   6.541
 4270POPC   C3B55569  22.474  32.994   6.903
 4270POPC   C4B55570  22.693  33.256   7.186
 4271POPC   NC355571  35.139  10.331   5.309
 4271POPC   PO455572  35.699  10.800   5.426
 4271POPC   GL155573  35.586  10.536   5.808
 4271POPC   GL255574  35.350  10.235   5.765
 4271POPC   C1A55575  35.475  10.655   6.235
 4271POPC   D2A55576  35.488  10.759   6.665
 4271POPC   C3A55577  35.659  10.612   7.081
 4271POPC   C4A55578  35.608  10.491   7.557
 4271POPC   C1B55579  35.075  10.288   6.118
 4271POPC   C2B55580  35.043  10.472   6.522
 4271POPC   C3B55581  35.132  10.571   6.930
 4271POPC   C4B55582  35.265  10.321   7.226
 4272POPC   NC355583  36.017  37.171   5.477
 4272POPC   PO455584  36.376  36.676   5.567
 4272POPC   GL155585  36.352  36.993   5.876
 4272POPC   GL255586  36.045  37.116   5.975
 4272POPC   C1A55587  36.480  37.132   6.274
 4272POPC   D2A55588  36.270  37.270   6.623
 4272POPC   C3A55589  36.393  37.128   7.012
 4272POPC   C4A55590  36.280  37.039   7.421
 4272POPC   C1B55591  36.048  36.867   6.325
 4272POPC   C2B55592  36.134  36.776   6.736
 4272POPC   C3B55593  35.945  36.841   7.123
 4272POPC   C4B55594  35.915  36.732   7.573
 4273POPC   NC355595  27.151  14.709   5.429
 4273POPC   PO455596  27.767  14.496   5.338
 4273POPC   GL155597  27.499  14.401   5.695
 4273POPC   GL255598  27.426  14.712   5.886
 4273POPC   C1A55599  27.370  14.248   6.111
 4273POPC   D2A55600  27.513  14.159   6.557
 4273POPC   C3A55601  27.476  14.461   6.860
 4273POPC   C4A55602  27.528  14.557   7.290
 4273POPC   C1B55603  27.538  14.675   6.370
 4273POPC   C2B55604  27.696  14.904   6.792
 4273POPC   C3B55605  27.800  14.983   7.272
 4273POPC   C4B55606  27.767  14.848   7.743
 4274POPC   NC355607  39.405  18.091   5.541
 4274POPC   PO455608  39.957  18.515   5.630
 4274POPC   GL155609  39.577  18.436   5.880
 4274POPC   GL255610  39.168  18.395   5.880
 4274POPC   C1A55611  39.416  18.342   6.293
 4274POPC   D2A55612  39.391  18.067   6.616
 4274POPC   C3A55613  39.296  18.257   6.981
 4274POPC   C4A55614  39.563  18.112   7.252
 4274POPC   C1B55615  38.962  18.120   6.217
 4274POPC   C2B55616  38.864  18.116   6.656
 4274POPC   C3B55617  38.910  17.924   7.038
 4274POPC   C4B55618  39.124  17.953   7.449
 4275POPC   NC355619  14.831  11.713   5.565
 4275POPC   PO455620  15.114  12.275   5.313
 4275POPC   GL155621  14.928  12.230   5.707
 4275POPC   GL255622  15.167  12.003   5.863
 4275POPC   C1A55623  15.000  12.410   6.124
 4275POPC   D2A55624  14.893  12.356   6.536
 4275POPC   C3A55625  14.967  12.047   6.872
 4275POPC   C4A55626  15.163  12.231   7.252
 4275POPC   C1B55627  15.445  12.176   6.226
 4275POPC   C2B55628  15.403  12.172   6.663
 4275POPC   C3B55629  15.563  11.985   7.045
 4275POPC   C4B55630  15.499  11.930   7.514
 4276POPC   NC355631  44.289  13.677   5.407
 4276POPC   PO455632   0.000  13.581   5.412
 4276POPC   GL155633  44.828  13.779   5.779
 4276POPC   GL255634  44.485  13.741   5.879
 4276POPC   C1A55635  44.910  13.788   6.231
 4276POPC   D2A55636  44.653  13.890   6.604
 4276POPC   C3A55637  44.778  13.676   6.985
 4276POPC   C4A55638  44.509  13.716   7.342
 4276POPC   C1B55639  44.260  13.408   6.174
 4276POPC   C2B55640  44.123  13.343   6.620
 4276POPC   C3B55641  44.379  13.346   7.013
 4276POPC   C4B55642  44.372  13.269   7.523
 4277POPC   NC355643  25.657  13.098   5.398
 4277POPC   PO455644  25.008  13.221   5.386
 4277POPC   GL155645  25.235  13.009   5.736
 4277POPC   GL255646  25.215  12.659   5.709
 4277POPC   C1A55647  25.340  12.873   6.177
 4277POPC   D2A55648  25.356  13.114   6.552
 4277POPC   C3A55649  25.370  12.954   6.963
 4277POPC   C4A55650  25.147  12.989   7.265
 4277POPC   C1B55651  25.116  12.421   6.109
 4277POPC   C2B55652  24.941  12.577   6.485
 4277POPC   C3B55653  24.894  12.802   6.846
 4277POPC   C4B55654  24.839  12.608   7.244
 4278POPC   NC355655  10.305  21.383   5.427
 4278POPC   PO455656  10.786  21.948   5.278
 4278POPC   GL155657  10.675  21.658   5.642
 4278POPC   GL255658  10.325  21.789   5.721
 4278POPC   C1A55659  10.570  21.492   6.094
 4278POPC   D2A55660  10.769  21.502   6.536
 4278POPC   C3A55661  10.668  21.331   6.978
 4278POPC   C4A55662  10.294  21.188   7.210
 4278POPC   C1B55663  10.235  21.915   6.151
 4278POPC   C2B55664   9.996  21.802   6.542
 4278POPC   C3B55665  10.220  21.588   6.884
 4278POPC   C4B55666  10.336  21.710   7.301
 4279POPC   NC355667   7.238  38.496   5.436
 4279POPC   PO455668   7.838  38.143   5.281
 4279POPC   GL155669   7.697  38.289   5.718
 4279POPC   GL255670   7.563  38.633   5.818
 4279POPC   C1A55671   7.719  38.292   6.180
 4279POPC   D2A55672   7.527  38.559   6.529
 4279POPC   C3A55673   7.417  38.325   6.907
 4279POPC   C4A55674   7.479  38.467   7.324
 4279POPC   C1B55675   7.211  38.445   6.098
 4279POPC   C2B55676   7.034  38.439   6.513
 4279POPC   C3B55677   6.917  38.486   6.956
 4279POPC   C4B55678   6.965  38.332   7.396
 4280POPC   NC355679  38.744  10.995   5.149
 4280POPC   PO455680  38.653  11.613   5.396
 4280POPC   GL155681  38.488  11.477   5.811
 4280POPC   GL255682  38.132  11.618   5.843
 4280POPC   C1A55683  38.648  11.306   6.239
 4280POPC   D2A55684  38.467  11.010   6.543
 4280POPC   C3A55685  38.546  11.105   6.986
 4280POPC   C4A55686  38.608  11.446   7.295
 4280POPC   C1B55687  38.153  11.390   6.239
 4280POPC   C2B55688  38.377  11.519   6.616
 4280POPC   C3B55689  38.222  11.526   6.992
 4280POPC   C4B55690  37.930  11.451   7.294
 4281POPC   NC355691   2.325   9.135   5.330
 4281POPC   PO455692   2.074   8.560   5.437
 4281POPC   GL155693   1.943   8.911   5.717
 4281POPC   GL255694   1.899   8.679   5.989
 4281POPC   C1A55695   1.954   9.176   6.132
 4281POPC   D2A55696   1.712   9.211   6.527
 4281POPC   C3A55697   1.841   9.142   6.948
 4281POPC   C4A55698   2.164   9.332   7.095
 4281POPC   C1B55699   1.654   8.726   6.384
 4281POPC   C2B55700   1.621   8.705   6.836
 4281POPC   C3B55701   1.837   8.679   7.259
 4281POPC   C4B55702   1.813   8.790   7.720
 4282POPC   NC355703  38.280  35.950   5.410
 4282POPC   PO455704  38.687  36.473   5.446
 4282POPC   GL155705  38.424  36.285   5.768
 4282POPC   GL255706  38.553  35.989   5.918
 4282POPC   C1A55707  38.243  36.279   6.208
 4282POPC   D2A55708  38.406  36.183   6.637
 4282POPC   C3A55709  38.171  36.214   7.032
 4282POPC   C4A55710  38.349  36.116   7.450
 4282POPC   C1B55711  38.789  36.148   6.276
 4282POPC   C2B55712  38.898  36.413   6.670
 4282POPC   C3B55713  38.668  36.361   7.052
 4282POPC   C4B55714  38.674  35.963   7.103
 4283POPC   NC355715  12.638  32.525   5.571
 4283POPC   PO455716  13.054  32.020   5.426
 4283POPC   GL155717  12.940  32.190   5.829
 4283POPC   GL255718  13.026  32.544   5.939
 4283POPC   C1A55719  12.754  32.215   6.231
 4283POPC   D2A55720  12.893  32.466   6.554
 4283POPC   C3A55721  13.000  32.220   6.885
 4283POPC   C4A55722  12.738  32.100   7.195
 4283POPC   C1B55723  12.632  32.712   6.170
 4283POPC   C2B55724  12.408  32.661   6.555
 4283POPC   C3B55725  12.595  32.629   6.975
 4283POPC   C4B55726  12.941  32.573   7.257
 4284POPC   NC355727   5.200  32.996   5.278
 4284POPC   PO455728   4.619  32.982   5.088
 4284POPC   GL155729   4.782  33.046   5.598
 4284POPC   GL255730   5.154  32.981   5.770
 4284POPC   C1A55731   4.778  32.903   6.091
 4284POPC   D2A55732   4.708  32.884   6.545
 4284POPC   C3A55733   4.926  33.135   6.863
 4284POPC   C4A55734   4.947  32.821   7.196
 4284POPC   C1B55735   5.281  32.822   6.185
 4284POPC   C2B55736   5.223  32.811   6.626
 4284POPC   C3B55737   5.397  33.011   7.024
 4284POPC   C4B55738   5.203  33.211   7.392
 4285POPC   NC355739   9.051  24.882   5.386
 4285POPC   PO455740   8.842  25.460   5.384
 4285POPC   GL155741   8.922  25.340   5.780
 4285POPC   GL255742   8.896  24.979   5.867
 4285POPC   C1A55743   8.804  25.383   6.205
 4285POPC   D2A55744   9.029  25.479   6.567
 4285POPC   C3A55745   8.836  25.458   6.952
 4285POPC   C4A55746   8.987  25.475   7.360
 4285POPC   C1B55747   8.703  24.882   6.263
 4285POPC   C2B55748   8.662  25.034   6.710
 4285POPC   C3B55749   8.969  24.949   7.083
 4285POPC   C4B55750   8.963  24.979   7.551
 4286POPC   NC355751   1.139  43.157   5.420
 4286POPC   PO455752   1.537  43.650   5.585
 4286POPC   GL155753   1.449  43.232   5.819
 4286POPC   GL255754   1.552  42.900   5.680
 4286POPC   C1A55755   1.102  42.958   6.087
 4286POPC   D2A55756   0.807  43.035   6.489
 4286POPC   C3A55757   0.900  43.163   6.952
 4286POPC   C4A55758   1.350  43.254   7.092
 4286POPC   C1B55759   1.609  42.890   6.154
 4286POPC   C2B55760   1.365  43.052   6.513
 4286POPC   C3B55761   1.236  42.811   6.808
 4286POPC   C4B55762   1.610  42.716   7.043
 4287POPC   NC355763  40.412  23.531   5.492
 4287POPC   PO455764  41.042  23.765   5.344
 4287POPC   GL155765  40.852  23.701   5.767
 4287POPC   GL255766  41.088  23.499   5.860
 4287POPC   C1A55767  40.551  23.643   6.146
 4287POPC   D2A55768  40.404  23.729   6.593
 4287POPC   C3A55769  40.637  23.575   7.018
 4287POPC   C4A55770  40.764  23.601   7.512
 4287POPC   C1B55771  40.942  23.345   6.280
 4287POPC   C2B55772  40.904  23.657   6.575
 4287POPC   C3B55773  41.062  23.862   6.925
 4287POPC   C4B55774  41.178  23.586   7.229
 4288POPC   NC355775   2.873   3.570   5.383
 4288POPC   PO455776   2.277   3.439   5.677
 4288POPC   GL155777   2.698   3.601   5.868
 4288POPC   GL255778   3.045   3.401   5.824
 4288POPC   C1A55779   2.819   3.827   6.278
 4288POPC   D2A55780   2.993   3.620   6.690
 4288POPC   C3A55781   2.801   3.615   7.105
 4288POPC   C4A55782   2.883   3.661   7.540
 4288POPC   C1B55783   2.930   3.327   6.247
 4288POPC   C2B55784   2.894   3.055   6.596
 4288POPC   C3B55785   2.904   3.125   7.018
 4288POPC   C4B55786   2.854   3.146   7.442
 4289POPC   NC355787   4.770  40.293   5.487
 4289POPC   PO455788   5.481  40.333   5.339
 4289POPC   GL155789   5.195  40.363   5.745
 4289POPC   GL255790   4.971  40.051   5.884
 4289POPC   C1A55791   4.997  40.436   6.179
 4289POPC   D2A55792   4.962  40.126   6.476
 4289POPC   C3A55793   5.108  40.174   6.857
 4289POPC   C4A55794   5.264  40.103   7.257
 4289POPC   C1B55795   4.777  39.735   6.197
 4289POPC   C2B55796   4.597  39.564   6.584
 4289POPC   C3B55797   4.751  39.776   6.941
 4289POPC   C4B55798   4.746  40.119   7.209
 4290POPC   NC355799  22.918  36.376   5.478
 4290POPC   PO455800  22.525  35.767   5.498
 4290POPC   GL155801  22.714  36.040   5.815
 4290POPC   GL255802  22.580  36.378   5.870
 4290POPC   C1A55803  22.948  36.166   6.204
 4290POPC   D2A55804  23.004  36.310   6.637
 4290POPC   C3A55805  23.018  36.027   6.989
 4290POPC   C4A55806  23.178  35.585   7.129
 4290POPC   C1B55807  22.441  36.131   6.246
 4290POPC   C2B55808  22.411  36.238   6.681
 4290POPC   C3B55809  22.516  36.212   7.099
 4290POPC   C4B55810  22.802  36.341   7.380
 4291POPC   NC355811  17.194  13.790   5.327
 4291POPC   PO455812  17.845  13.503   5.403
 4291POPC   GL155813  17.689  13.385   5.806
 4291POPC   GL255814  17.375  13.210   5.723
 4291POPC   C1A55815  17.731  13.518   6.273
 4291POPC   D2A55816  17.731  13.854   6.606
 4291POPC   C3A55817  17.551  13.735   6.985
 4291POPC   C4A55818  17.698  13.357   7.178
 4291POPC   C1B55819  17.244  13.547   6.043
 4291POPC   C2B55820  17.253  13.622   6.493
 4291POPC   C3B55821  17.262  13.336   6.857
 4291POPC   C4B55822  17.192  13.461   7.275
 4292POPC   NC355823   5.527  38.949   5.683
 4292POPC   PO455824   5.903  38.396   5.528
 4292POPC   GL155825   5.599  38.353   5.899
 4292POPC   GL255826   5.438  38.661   6.075
 4292POPC   C1A55827   5.657  38.326   6.357
 4292POPC   D2A55828   5.874  38.463   6.705
 4292POPC   C3A55829   5.670  38.389   7.065
 4292POPC   C4A55830   5.960  38.283   7.310
 4292POPC   C1B55831   5.763  38.820   6.328
 4292POPC   C2B55832   5.754  38.970   6.732
 4292POPC   C3B55833   5.957  38.827   7.086
 4292POPC   C4B55834   6.199  38.962   7.458
 4293POPC   NC355835  40.123   5.342   5.639
 4293POPC   PO455836  40.010   4.729   5.451
 4293POPC   GL155837  39.760   4.950   5.792
 4293POPC   GL255838  39.567   5.263   5.778
 4293POPC   C1A55839  39.847   4.895   6.251
 4293POPC   D2A55840  40.270   5.073   6.425
 4293POPC   C3A55841  40.290   5.081   6.889
 4293POPC   C4A55842  39.976   4.993   7.211
 4293POPC   C1B55843  39.760   5.385   6.200
 4293POPC   C2B55844  39.856   5.248   6.639
 4293POPC   C3B55845  39.958   5.448   6.980
 4293POPC   C4B55846  39.902   5.666   7.306
 4294POPC   NC355847   3.588  10.218   5.525
 4294POPC   PO455848   3.193  10.723   5.413
 4294POPC   GL155849   3.380  10.583   5.792
 4294POPC   GL255850   3.172  10.264   5.801
 4294POPC   C1A55851   3.663  10.483   6.174
 4294POPC   D2A55852   3.483  10.479   6.602
 4294POPC   C3A55853   3.738  10.431   6.971
 4294POPC   C4A55854   3.715  10.757   7.282
 4294POPC   C1B55855   3.143  10.422   6.211
 4294POPC   C2B55856   3.009  10.219   6.558
 4294POPC   C3B55857   3.086  10.364   6.924
 4294POPC   C4B55858   3.289  10.478   7.240
 4295POPC   NC355859  43.572   1.880   5.442
 4295POPC   PO455860  43.108   2.333   5.462
 4295POPC   GL155861  43.390   2.160   5.860
 4295POPC   GL255862  43.391   1.782   5.884
 4295POPC   C1A55863  43.403   1.970   6.339
 4295POPC   D2A55864  42.967   1.914   6.558
 4295POPC   C3A55865  42.960   2.033   6.997
 4295POPC   C4A55866  43.315   1.945   7.267
 4295POPC   C1B55867  43.086   1.624   6.134
 4295POPC   C2B55868  43.150   1.430   6.517
 4295POPC   C3B55869  43.155   1.561   6.945
 4295POPC   C4B55870  42.907   1.623   7.336
 4296POPC   NC355871  17.283  43.726   5.436
 4296POPC   PO455872  17.763  44.137   5.408
 4296POPC   GL155873  17.602  43.996   5.795
 4296POPC   GL255874  17.381  43.728   5.931
 4296POPC   C1A55875  17.803  43.889   6.171
 4296POPC   D2A55876  17.689  43.751   6.580
 4296POPC   C3A55877  17.836  43.761   6.970
 4296POPC   C4A55878  17.640  43.935   7.324
 4296POPC   C1B55879  17.276  43.464   6.294
 4296POPC   C2B55880  17.363  43.387   6.737
 4296POPC   C3B55881  17.053  43.431   7.063
 4296POPC   C4B55882  17.049  43.516   7.498
 4297POPC   NC355883  33.693  28.380   5.450
 4297POPC   PO455884  34.218  27.875   5.466
 4297POPC   GL155885  34.186  28.149   5.871
 4297POPC   GL255886  33.972  28.429   5.892
 4297POPC   C1A55887  34.138  28.273   6.359
 4297POPC   D2A55888  34.031  28.451   6.798
 4297POPC   C3A55889  33.838  28.200   7.147
 4297POPC   C4A55890  33.638  27.816   7.290
 4297POPC   C1B55891  33.931  28.762   6.225
 4297POPC   C2B55892  33.678  28.860   6.606
 4297POPC   C3B55893  33.536  28.661   6.993
 4297POPC   C4B55894  33.781  28.654   7.356
 4298POPC   NC355895   3.944  40.855   5.451
 4298POPC   PO455896   4.436  40.455   5.173
 4298POPC   GL155897   4.319  40.614   5.658
 4298POPC   GL255898   4.297  40.980   5.764
 4298POPC   C1A55899   4.313  40.642   6.137
 4298POPC   D2A55900   4.640  40.699   6.450
 4298POPC   C3A55901   4.671  40.457   6.829
 4298POPC   C4A55902   4.479  40.535   7.274
 4298POPC   C1B55903   4.076  41.115   6.104
 4298POPC   C2B55904   4.249  41.049   6.506
 4298POPC   C3B55905   4.355  40.864   6.872
 4298POPC   C4B55906   4.360  41.060   7.232
 4299POPC   NC355907   9.019  15.456   5.384
 4299POPC   PO455908   8.491  14.961   5.317
 4299POPC   GL155909   8.852  15.090   5.742
 4299POPC   GL255910   9.076  15.429   5.863
 4299POPC   C1A55911   9.098  15.088   6.212
 4299POPC   D2A55912   9.028  15.263   6.643
 4299POPC   C3A55913   9.235  15.190   7.050
 4299POPC   C4A55914   8.824  15.062   7.237
 4299POPC   C1B55915   9.081  15.623   6.258
 4299POPC   C2B55916   9.300  15.694   6.646
 4299POPC   C3B55917   9.085  15.670   7.031
 4299POPC   C4B55918   9.025  15.488   7.468
 4300POPC   NC355919  36.520  16.208   5.085
 4300POPC   PO455920  35.961  16.240   5.546
 4300POPC   GL155921  36.203  15.904   5.744
 4300POPC   GL255922  35.999  15.731   5.963
 4300POPC   C1A55923  36.377  15.948   6.179
 4300POPC   D2A55924  36.482  15.757   6.557
 4300POPC   C3A55925  36.371  15.950   6.936
 4300POPC   C4A55926  36.049  15.801   7.218
 4300POPC   C1B55927  35.955  15.747   6.438
 4300POPC   C2B55928  35.813  16.048   6.782
 4300POPC   C3B55929  35.716  16.186   7.219
 4300POPC   C4B55930  35.917  16.175   7.647
 4301POPC   NC355931  20.494  34.828   5.517
 4301POPC   PO455932  20.734  34.156   5.313
 4301POPC   GL155933  20.827  34.277   5.798
 4301POPC   GL255934  20.768  34.635   5.934
 4301POPC   C1A55935  20.569  34.298   6.238
 4301POPC   D2A55936  20.451  34.578   6.609
 4301POPC   C3A55937  20.454  34.352   7.001
 4301POPC   C4A55938  20.662  34.173   7.346
 4301POPC   C1B55939  21.080  34.459   6.263
 4301POPC   C2B55940  21.191  34.662   6.663
 4301POPC   C3B55941  20.900  34.890   6.965
 4301POPC   C4B55942  20.478  34.861   7.127
 4302POPC   NC355943  36.520   9.388   5.475
 4302POPC   PO455944  36.213   9.993   5.391
 4302POPC   GL155945  36.201   9.705   5.735
 4302POPC   GL255946  36.543   9.829   5.762
 4302POPC   C1A55947  36.031   9.615   6.148
 4302POPC   D2A55948  35.963   9.946   6.459
 4302POPC   C3A55949  36.051   9.791   6.850
 4302POPC   C4A55950  36.055   9.745   7.268
 4302POPC   C1B55951  36.397   9.956   6.165
 4302POPC   C2B55952  36.456   9.991   6.585
 4302POPC   C3B55953  36.528   9.984   7.001
 4302POPC   C4B55954  36.461  10.168   7.374
 4303POPC   NC355955   7.860  39.489   5.558
 4303POPC   PO455956   7.492  38.928   5.393
 4303POPC   GL155957   7.388  39.140   5.775
 4303POPC   GL255958   7.375  39.491   5.793
 4303POPC   C1A55959   7.337  38.931   6.164
 4303POPC   D2A55960   7.153  39.000   6.539
 4303POPC   C3A55961   7.305  38.832   6.938
 4303POPC   C4A55962   7.483  38.977   7.342
 4303POPC   C1B55963   7.200  39.441   6.235
 4303POPC   C2B55964   7.120  39.507   6.681
 4303POPC   C3B55965   7.098  39.557   7.110
 4303POPC   C4B55966   7.396  39.469   7.405
 4304POPC   NC355967  19.329  25.663   5.381
 4304POPC   PO455968  19.020  26.237   5.346
 4304POPC   GL155969  19.132  26.134   5.773
 4304POPC   GL255970  19.320  25.813   5.865
 4304POPC   C1A55971  18.968  26.025   6.209
 4304POPC   D2A55972  19.146  25.881   6.609
 4304POPC   C3A55973  18.972  26.052   7.016
 4304POPC   C4A55974  18.684  26.312   7.270
 4304POPC   C1B55975  19.510  26.165   6.101
 4304POPC   C2B55976  19.445  26.303   6.488
 4304POPC   C3B55977  19.455  26.245   6.929
 4304POPC   C4B55978  19.374  26.426   7.348
 4305POPC   NC355979   2.746  10.956   5.450
 4305POPC   PO455980   2.651  11.507   5.110
 4305POPC   GL155981   2.848  11.445   5.617
 4305POPC   GL255982   2.726  11.227   5.874
 4305POPC   C1A55983   3.080  11.504   6.094
 4305POPC   D2A55984   3.240  11.537   6.545
 4305POPC   C3A55985   2.991  11.249   6.827
 4305POPC   C4A55986   2.859  11.247   7.248
 4305POPC   C1B55987   2.483  10.952   6.105
 4305POPC   C2B55988   2.527  11.108   6.504
 4305POPC   C3B55989   2.477  10.955   6.874
 4305POPC   C4B55990   2.314  11.089   7.210
 4306POPC   NC355991  18.223  34.808   5.225
 4306POPC   PO455992  17.828  34.350   5.481
 4306POPC   GL155993  17.983  34.499   5.847
 4306POPC   GL255994  18.208  34.777   5.756
 4306POPC   C1A55995  18.291  34.501   6.207
 4306POPC   D2A55996  18.392  34.687   6.628
 4306POPC   C3A55997  18.356  34.406   6.935
 4306POPC   C4A55998  18.126  34.388   7.289
 4306POPC   C1B55999  18.335  35.004   6.131
 4306POPC   C2B56000  18.222  35.157   6.545
 4306POPC   C3B56001  18.388  35.125   6.952
 4306POPC   C4B56002  18.431  34.791   7.240
 4307POPC   NC356003  13.420  28.893   5.534
 4307POPC   PO456004  13.931  29.330   5.505
 4307POPC   GL156005  13.713  29.218   5.887
 4307POPC   GL256006  13.363  29.281   5.882
 4307POPC   C1A56007  13.693  29.262   6.333
 4307POPC   D2A56008  13.894  28.971   6.614
 4307POPC   C3A56009  13.885  29.174   6.990
 4307POPC   C4A56010  13.606  29.299   7.266
 4307POPC   C1B56011  13.198  29.090   6.250
 4307POPC   C2B56012  13.149  28.853   6.598
 4307POPC   C3B56013  13.419  28.947   6.922
 4307POPC   C4B56014  13.470  28.813   7.350
 4308POPC   NC356015  26.027  12.324   5.662
 4308POPC   PO456016  26.128  12.960   5.315
 4308POPC   GL156017  26.101  12.864   5.753
 4308POPC   GL256018  25.755  12.961   5.883
 4308POPC   C1A56019  26.176  13.110   6.131
 4308POPC   D2A56020  25.846  13.282   6.451
 4308POPC   C3A56021  25.826  13.024   6.794
 4308POPC   C4A56022  25.890  12.997   7.216
 4308POPC   C1B56023  25.825  12.792   6.324
 4308POPC   C2B56024  25.956  12.549   6.686
 4308POPC   C3B56025  25.788  12.507   7.048
 4308POPC   C4B56026  25.539  12.651   7.351
 4309POPC   NC356027  27.967  30.177   5.457
 4309POPC   PO456028  27.459  29.808   5.149
 4309POPC   GL156029  27.538  29.908   5.630
 4309POPC   GL256030  27.512  30.276   5.699
 4309POPC   C1A56031  27.467  29.868   6.111
 4309POPC   D2A56032  27.262  29.744   6.526
 4309POPC   C3A56033  27.453  29.885   6.867
 4309POPC   C4A56034  27.325  30.033   7.248
 4309POPC   C1B56035  27.776  30.264   6.074
 4309POPC   C2B56036  27.751  30.253   6.509
 4309POPC   C3B56037  27.713  30.309   6.949
 4309POPC   C4B56038  27.856  30.025   7.236
 4310POPC   NC356039  27.055  37.180   5.302
 4310POPC   PO456040  26.825  36.644   5.533
 4310POPC   GL156041  27.087  36.886   5.793
 4310POPC   GL256042  26.894  37.150   5.789
 4310POPC   C1A56043  27.065  36.915   6.237
 4310POPC   D2A56044  27.098  37.034   6.658
 4310POPC   C3A56045  26.820  36.909   6.955
 4310POPC   C4A56046  26.924  36.839   7.366
 4310POPC   C1B56047  26.584  37.090   6.062
 4310POPC   C2B56048  26.601  37.046   6.503
 4310POPC   C3B56049  26.391  37.212   6.868
 4310POPC   C4B56050  26.491  37.103   7.288
 4311POPC   NC356051  27.154  11.380   5.329
 4311POPC   PO456052  26.443  11.247   5.222
 4311POPC   GL156053  26.707  11.281   5.621
 4311POPC   GL256054  26.763  10.988   5.841
 4311POPC   C1A56055  26.902  11.423   6.052
 4311POPC   D2A56056  26.762  11.499   6.508
 4311POPC   C3A56057  27.003  11.352   6.882
 4311POPC   C4A56058  27.147  11.479   7.292
 4311POPC   C1B56059  26.673  11.021   6.291
 4311POPC   C2B56060  26.408  11.143   6.642
 4311POPC   C3B56061  26.518  11.249   7.044
 4311POPC   C4B56062  26.832  11.112   7.397
 4312POPC   NC356063  31.454  34.199   5.375
 4312POPC   PO456064  31.876  33.702   5.448
 4312POPC   GL156065  31.638  33.770   5.780
 4312POPC   GL256066  31.824  34.005   5.938
 4312POPC   C1A56067  31.667  33.549   6.174
 4312POPC   D2A56068  31.683  33.636   6.614
 4312POPC   C3A56069  31.557  33.335   6.943
 4312POPC   C4A56070  31.265  33.485   7.237
 4312POPC   C1B56071  31.496  34.019   6.303
 4312POPC   C2B56072  31.283  33.953   6.744
 4312POPC   C3B56073  31.333  34.002   7.207
 4312POPC   C4B56074  31.124  34.230   7.547
 4313POPC   NC356075  13.969  18.631   5.492
 4313POPC   PO456076  13.561  18.154   5.251
 4313POPC   GL156077  13.422  18.086   5.692
 4313POPC   GL256078  13.598  17.809   5.840
 4313POPC   C1A56079  13.468  18.299   6.120
 4313POPC   D2A56080  13.809  18.469   6.437
 4313POPC   C3A56081  13.736  18.449   6.902
 4313POPC   C4A56082  13.345  18.478   7.148
 4313POPC   C1B56083  13.603  17.814   6.274
 4313POPC   C2B56084  13.476  18.101   6.604
 4313POPC   C3B56085  13.465  17.990   7.016
 4313POPC   C4B56086  13.844  17.791   7.129
 4314POPC   NC356087   6.537   0.758   5.420
 4314POPC   PO456088   6.881   0.247   5.356
 4314POPC   GL156089   6.668   0.348   5.726
 4314POPC   GL256090   6.458   0.043   5.683
 4314POPC   C1A56091   6.715   0.546   6.150
 4314POPC   D2A56092   6.845   0.387   6.553
 4314POPC   C3A56093   6.722   0.525   6.995
 4314POPC   C4A56094   6.755   0.514   7.493
 4314POPC   C1B56095   6.651  44.978   6.083
 4314POPC   C2B56096   6.495   0.023   6.479
 4314POPC   C3B56097   6.518   0.060   6.923
 4314POPC   C4B56098   6.873   0.093   7.227
 4315POPC   NC356099  21.648  27.053   5.506
 4315POPC   PO456100  21.079  26.627   5.363
 4315POPC   GL156101  21.307  26.710   5.732
 4315POPC   GL256102  21.200  27.044   5.790
 4315POPC   C1A56103  21.404  26.524   6.145
 4315POPC   D2A56104  21.565  26.667   6.544
 4315POPC   C3A56105  21.478  26.488   6.952
 4315POPC   C4A56106  21.343  26.632   7.341
 4315POPC   C1B56107  21.125  26.932   6.225
 4315POPC   C2B56108  21.246  27.075   6.620
 4315POPC   C3B56109  21.379  27.017   7.034
 4315POPC   C4B56110  21.168  27.054   7.523
 4316POPC   NC356111  32.878   9.278   5.289
 4316POPC   PO456112  32.999   8.551   5.260
 4316POPC   GL156113  32.952   8.874   5.618
 4316POPC   GL256114  33.206   8.811   5.894
 4316POPC   C1A56115  32.781   9.096   6.000
 4316POPC   D2A56116  32.685   9.219   6.443
 4316POPC   C3A56117  32.794   8.975   6.771
 4316POPC   C4A56118  32.881   8.994   7.187
 4316POPC   C1B56119  33.153   8.930   6.342
 4316POPC   C2B56120  33.238   8.722   6.751
 4316POPC   C3B56121  33.418   8.950   7.109
 4316POPC   C4B56122  33.498   8.848   7.553
 4317POPC   NC356123  14.304   4.234   5.621
 4317POPC   PO456124  14.980   4.355   5.553
 4317POPC   GL156125  14.707   4.385   5.894
 4317POPC   GL256126  14.672   4.001   5.903
 4317POPC   C1A56127  14.461   4.500   6.274
 4317POPC   D2A56128  14.337   4.563   6.724
 4317POPC   C3A56129  14.694   4.690   7.001
 4317POPC   C4A56130  14.810   4.661   7.434
 4317POPC   C1B56131  14.445   3.786   6.234
 4317POPC   C2B56132  14.558   3.804   6.642
 4317POPC   C3B56133  14.407   4.034   6.962
 4317POPC   C4B56134  14.178   3.990   7.296
 4318POPC   NC356135  26.278   7.512   5.448
 4318POPC   PO456136  25.751   7.088   5.326
 4318POPC   GL156137  25.792   7.384   5.729
 4318POPC   GL256138  25.803   7.769   5.753
 4318POPC   C1A56139  25.714   7.346   6.220
 4318POPC   D2A56140  25.838   7.234   6.685
 4318POPC   C3A56141  26.270   7.235   6.918
 4318POPC   C4A56142  26.300   7.304   7.390
 4318POPC   C1B56143  26.032   7.740   6.176
 4318POPC   C2B56144  26.157   7.672   6.651
 4318POPC   C3B56145  25.948   7.620   7.095
 4318POPC   C4B56146  25.639   7.676   7.467
 4319POPC   NC356147  31.940  11.371   5.465
 4319POPC   PO456148  32.491  11.525   5.212
 4319POPC   GL156149  32.372  11.529   5.702
 4319POPC   GL256150  32.423  11.157   5.827
 4319POPC   C1A56151  32.173  11.461   6.152
 4319POPC   D2A56152  32.357  11.376   6.580
 4319POPC   C3A56153  32.119  11.481   6.961
 4319POPC   C4A56154  32.129  11.307   7.353
 4319POPC   C1B56155  32.338  10.961   6.259
 4319POPC   C2B56156  32.215  10.843   6.707
 4319POPC   C3B56157  32.259  10.857   7.177
 4319POPC   C4B56158  32.420  10.966   7.604
 4320POPC   NC356159  18.746   6.138   5.577
 4320POPC   PO456160  19.325   5.806   5.411
 4320POPC   GL156161  19.203   5.968   5.809
 4320POPC   GL256162  19.260   6.338   5.794
 4320POPC   C1A56163  18.998   5.766   6.191
 4320POPC   D2A56164  18.767   5.788   6.597
 4320POPC   C3A56165  18.937   5.573   6.981
 4320POPC   C4A56166  19.204   5.631   7.340
 4320POPC   C1B56167  19.061   6.276   6.211
 4320POPC   C2B56168  19.145   6.135   6.630
 4320POPC   C3B56169  19.075   6.089   7.064
 4320POPC   C4B56170  19.325   6.099   7.458
 4321POPC   NC356171  22.665   6.875   5.556
 4321POPC   PO456172  22.210   6.644   5.134
 4321POPC   GL156173  22.210   6.576   5.707
 4321POPC   GL256174  22.255   6.874   5.880
 4321POPC   C1A56175  22.183   6.525   6.220
 4321POPC   D2A56176  22.217   6.668   6.681
 4321POPC   C3A56177  22.255   6.341   7.014
 4321POPC   C4A56178  21.985   6.245   7.356
 4321POPC   C1B56179  22.335   7.072   6.278
 4321POPC   C2B56180  22.518   7.222   6.679
 4321POPC   C3B56181  22.250   7.114   7.013
 4321POPC   C4B56182  22.122   6.765   7.226
 4322POPC   NC356183  16.749  40.696   5.458
 4322POPC   PO456184  17.250  41.056   5.583
 4322POPC   GL156185  16.987  41.036   5.930
 4322POPC   GL256186  16.884  40.724   5.952
 4322POPC   C1A56187  16.733  41.013   6.350
 4322POPC   D2A56188  16.552  41.272   6.710
 4322POPC   C3A56189  16.593  41.164   7.140
 4322POPC   C4A56190  16.861  40.876   7.357
 4322POPC   C1B56191  16.606  40.520   6.198
 4322POPC   C2B56192  16.481  40.601   6.605
 4322POPC   C3B56193  16.600  40.668   6.979
 4322POPC   C4B56194  16.375  40.723   7.342
 4323POPC   NC356195  12.532  26.600   5.222
 4323POPC   PO456196  11.886  26.781   5.410
 4323POPC   GL156197  12.050  26.879   5.808
 4323POPC   GL256198  12.097  26.551   5.887
 4323POPC   C1A56199  12.066  27.082   6.229
 4323POPC   D2A56200  12.086  27.270   6.634
 4323POPC   C3A56201  11.944  27.072   6.999
 4323POPC   C4A56202  11.605  27.083   7.255
 4323POPC   C1B56203  11.856  26.618   6.251
 4323POPC   C2B56204  11.916  26.690   6.659
 4323POPC   C3B56205  11.640  26.647   6.993
 4323POPC   C4B56206  11.686  26.394   7.357
 4324POPC   NC356207  42.810  42.493   5.466
 4324POPC   PO456208  42.168  42.510   5.355
 4324POPC   GL156209  42.270  42.576   5.783
 4324POPC   GL256210  42.625  42.540   5.924
 4324POPC   C1A56211  42.209  42.307   6.142
 4324POPC   D2A56212  42.357  42.289   6.556
 4324POPC   C3A56213  42.232  42.469   6.963
 4324POPC   C4A56214  42.196  42.507   7.432
 4324POPC   C1B56215  42.778  42.204   6.179
 4324POPC   C2B56216  42.784  42.024   6.577
 4324POPC   C3B56217  42.616  42.108   6.967
 4324POPC   C4B56218  42.656  41.772   7.188
 4325POPC   NC356219  26.111   6.820   5.184
 4325POPC   PO456220  26.284   6.267   5.230
 4325POPC   GL156221  26.051   6.595   5.639
 4325POPC   GL256222  25.769   6.546   5.838
 4325POPC   C1A56223  26.124   6.885   6.024
 4325POPC   D2A56224  26.252   6.938   6.469
 4325POPC   C3A56225  26.046   6.729   6.822
 4325POPC   C4A56226  25.933   6.970   7.201
 4325POPC   C1B56227  26.071   6.385   6.157
 4325POPC   C2B56228  26.112   6.205   6.570
 4325POPC   C3B56229  25.876   6.205   6.939
 4325POPC   C4B56230  25.826   6.478   7.234
 4326POPC   NC356231  11.787  32.713   5.573
 4326POPC   PO456232  12.401  32.753   5.238
 4326POPC   GL156233  12.292  32.933   5.663
 4326POPC   GL256234  12.273  33.278   5.768
 4326POPC   C1A56235  12.153  32.908   6.123
 4326POPC   D2A56236  11.906  32.956   6.512
 4326POPC   C3A56237  12.178  32.990   6.879
 4326POPC   C4A56238  12.212  32.812   7.279
 4326POPC   C1B56239  12.030  33.408   6.189
 4326POPC   C2B56240  11.999  33.439   6.670
 4326POPC   C3B56241  12.238  33.481   7.085
 4326POPC   C4B56242  12.214  33.284   7.507
 4327POPC   NC356243  29.159  44.348   5.482
 4327POPC   PO456244  29.449  44.937   5.351
 4327POPC   GL156245  29.206  44.790   5.773
 4327POPC   GL256246  29.360  44.477   5.932
 4327POPC   C1A56247  29.150  44.757   6.290
 4327POPC   D2A56248  29.371  44.683   6.710
 4327POPC   C3A56249  29.224  44.906   7.103
 4327POPC   C4A56250  28.882  44.839   7.402
 4327POPC   C1B56251  29.032  44.251   6.182
 4327POPC   C2B56252  28.913  44.386   6.597
 4327POPC   C3B56253  29.029  44.449   7.031
 4327POPC   C4B56254  28.754  44.354   7.381
 4328POPC   NC356255  10.033  28.191   5.546
 4328POPC   PO456256   9.388  28.401   5.435
 4328POPC   GL156257   9.618  28.390   5.824
 4328POPC   GL256258   9.438  28.701   5.887
 4328POPC   C1A56259   9.823  28.185   6.226
 4328POPC   D2A56260   9.932  27.963   6.663
 4328POPC   C3A56261   9.837  28.231   7.053
 4328POPC   C4A56262   9.861  28.383   7.515
 4328POPC   C1B56263   9.496  28.596   6.299
 4328POPC   C2B56264   9.618  28.553   6.721
 4328POPC   C3B56265   9.559  28.674   7.142
 4328POPC   C4B56266   9.634  28.855   7.551
 4329POPC   NC356267   5.305  14.024   5.476
 4329POPC   PO456268   5.997  14.026   5.497
 4329POPC   GL156269   5.801  13.855   5.863
 4329POPC   GL256270   5.737  13.509   5.903
 4329POPC   C1A56271   5.876  13.777   6.299
 4329POPC   D2A56272   5.968  14.025   6.628
 4329POPC   C3A56273   6.021  13.767   6.971
 4329POPC   C4A56274   6.048  13.684   7.414
 4329POPC   C1B56275   5.578  13.340   6.324
 4329POPC   C2B56276   5.646  13.333   6.794
 4329POPC   C3B56277   5.607  13.570   7.184
 4329POPC   C4B56278   5.600  13.536   7.652
 4330POPC   NC356279  27.974   7.995   5.605
 4330POPC   PO456280  28.618   8.038   5.410
 4330POPC   GL156281  28.398   8.183   5.810
 4330POPC   GL256282  28.244   8.509   5.879
 4330POPC   C1A56283  28.159   8.122   6.211
 4330POPC   D2A56284  28.397   8.097   6.565
 4330POPC   C3A56285  28.328   8.206   6.981
 4330POPC   C4A56286  28.622   8.417   7.192
 4330POPC   C1B56287  28.444   8.550   6.275
 4330POPC   C2B56288  28.185   8.573   6.619
 4330POPC   C3B56289  28.196   8.711   7.018
 4330POPC   C4B56290  28.064   8.557   7.379
 4331POPC   NC356291  18.517  15.253   5.383
 4331POPC   PO456292  17.815  15.042   5.262
 4331POPC   GL156293  18.027  15.044   5.730
 4331POPC   GL256294  18.418  14.982   5.814
 4331POPC   C1A56295  18.135  15.256   6.156
 4331POPC   D2A56296  18.269  15.244   6.599
 4331POPC   C3A56297  17.926  15.189   6.857
 4331POPC   C4A56298  17.883  15.233   7.285
 4331POPC   C1B56299  18.617  15.373   6.085
 4331POPC   C2B56300  18.644  15.591   6.525
 4331POPC   C3B56301  18.668  15.436   6.958
 4331POPC   C4B56302  18.413  15.117   7.164
 4332POPC   NC356303  41.535  10.421   5.299
 4332POPC   PO456304  41.679  11.058   5.377
 4332POPC   GL156305  41.615  10.686   5.726
 4332POPC   GL256306  41.781  10.327   5.739
 4332POPC   C1A56307  41.425  10.689   6.168
 4332POPC   D2A56308  41.307  10.897   6.580
 4332POPC   C3A56309  41.383  10.662   6.974
 4332POPC   C4A56310  41.196  10.427   7.314
 4332POPC   C1B56311  41.897  10.485   6.152
 4332POPC   C2B56312  42.049  10.541   6.575
 4332POPC   C3B56313  41.897  10.497   6.965
 4332POPC   C4B56314  41.725  10.430   7.324
 4333POPC   NC356315   3.288   6.871   5.649
 4333POPC   PO456316   3.698   6.449   5.280
 4333POPC   GL156317   3.596   6.442   5.724
 4333POPC   GL256318   3.749   6.751   5.862
 4333POPC   C1A56319   3.389   6.452   6.147
 4333POPC   D2A56320   3.387   6.707   6.525
 4333POPC   C3A56321   3.425   6.434   6.850
 4333POPC   C4A56322   3.650   6.275   7.194
 4333POPC   C1B56323   3.974   7.067   6.128
 4333POPC   C2B56324   3.894   7.195   6.527
 4333POPC   C3B56325   3.783   6.939   6.860
 4333POPC   C4B56326   3.908   7.054   7.262
 4334POPC   NC356327  40.865  32.865   5.459
 4334POPC   PO456328  40.829  33.537   5.436
 4334POPC   GL156329  40.660  33.271   5.760
 4334POPC   GL256330  40.985  33.135   5.891
 4334POPC   C1A56331  40.546  33.024   6.148
 4334POPC   D2A56332  40.577  33.166   6.560
 4334POPC   C3A56333  40.693  32.873   6.912
 4334POPC   C4A56334  40.577  32.495   7.126
 4334POPC   C1B56335  41.020  33.518   6.158
 4334POPC   C2B56336  40.894  33.612   6.587
 4334POPC   C3B56337  40.899  33.340   6.917
 4334POPC   C4B56338  40.698  33.256   7.292
 4335POPC   NC356339  34.427   4.884   5.333
 4335POPC   PO456340  34.715   4.255   5.284
 4335POPC   GL156341  34.530   4.427   5.643
 4335POPC   GL256342  34.775   4.664   5.658
 4335POPC   C1A56343  34.417   4.358   6.096
 4335POPC   D2A56344  34.604   4.130   6.457
 4335POPC   C3A56345  34.529   4.329   6.855
 4335POPC   C4A56346  34.299   4.340   7.217
 4335POPC   C1B56347  34.734   4.756   6.067
 4335POPC   C2B56348  34.731   4.646   6.489
 4335POPC   C3B56349  34.956   4.697   6.872
 4335POPC   C4B56350  34.854   4.540   7.278
 4336POPC   NC356351   2.467  11.755   5.454
 4336POPC   PO456352   1.807  11.944   5.288
 4336POPC   GL156353   1.888  12.044   5.728
 4336POPC   GL256354   2.177  11.857   5.843
 4336POPC   C1A56355   2.012  12.249   6.124
 4336POPC   D2A56356   2.368  12.190   6.413
 4336POPC   C3A56357   2.240  12.210   6.832
 4336POPC   C4A56358   2.200  11.855   7.076
 4336POPC   C1B56359   1.911  11.713   6.163
 4336POPC   C2B56360   1.959  11.778   6.599
 4336POPC   C3B56361   1.691  11.764   6.950
 4336POPC   C4B56362   1.774  11.873   7.381
 4337POPC   NC356363  33.922  37.100   5.108
 4337POPC   PO456364  33.595  37.079   5.669
 4337POPC   GL156365  33.865  36.820   5.909
 4337POPC   GL256366  33.613  36.890   6.122
 4337POPC   C1A56367  34.081  36.844   6.330
 4337POPC   D2A56368  34.193  37.200   6.596
 4337POPC   C3A56369  34.134  37.155   7.025
 4337POPC   C4A56370  33.998  36.772   7.246
 4337POPC   C1B56371  33.610  36.587   6.360
 4337POPC   C2B56372  33.762  36.621   6.731
 4337POPC   C3B56373  33.567  36.485   7.081
 4337POPC   C4B56374  33.499  36.697   7.416
 4338POPC   NC356375   3.047  11.755   5.196
 4338POPC   PO456376   2.575  12.244   5.463
 4338POPC   GL156377   2.649  12.169   5.895
 4338POPC   GL256378   2.890  11.918   5.802
 4338POPC   C1A56379   2.820  12.440   6.258
 4338POPC   D2A56380   2.959  12.463   6.711
 4338POPC   C3A56381   2.761  12.091   6.913
 4338POPC   C4A56382   2.884  11.739   7.116
 4338POPC   C1B56383   2.610  11.704   6.116
 4338POPC   C2B56384   2.705  11.606   6.554
 4338POPC   C3B56385   2.513  11.467   6.925
 4338POPC   C4B56386   2.457  11.546   7.378
 4339POPC   NC356387  39.500  10.546   5.506
 4339POPC   PO456388  38.787  10.634   5.451
 4339POPC   GL156389  39.006  10.619   5.837
 4339POPC   GL256390  39.309  10.779   5.920
 4339POPC   C1A56391  39.042  10.328   6.167
 4339POPC   D2A56392  39.269  10.232   6.531
 4339POPC   C3A56393  39.095  10.372   6.921
 4339POPC   C4A56394  38.815  10.681   7.113
 4339POPC   C1B56395  39.305  10.741   6.359
 4339POPC   C2B56396  39.550  10.611   6.701
 4339POPC   C3B56397  39.530  10.545   7.122
 4339POPC   C4B56398  39.466  10.862   7.419
 4340POPC   NC356399   8.317  28.331   5.369
 4340POPC   PO456400   7.632  28.341   5.468
 4340POPC   GL156401   7.966  28.244   5.769
 4340POPC   GL256402   8.126  28.559   5.770
 4340POPC   C1A56403   8.188  28.315   6.206
 4340POPC   D2A56404   8.443  28.218   6.582
 4340POPC   C3A56405   8.278  28.166   6.987
 4340POPC   C4A56406   8.154  28.376   7.387
 4340POPC   C1B56407   8.455  28.727   6.032
 4340POPC   C2B56408   8.453  28.725   6.482
 4340POPC   C3B56409   8.566  28.614   6.910
 4340POPC   C4B56410   8.436  28.802   7.308
 4341POPC   NC356411  36.742  21.585   5.347
 4341POPC   PO456412  36.672  20.927   5.362
 4341POPC   GL156413  36.798  21.183   5.724
 4341POPC   GL256414  36.681  21.500   5.832
 4341POPC   C1A56415  36.831  21.147   6.185
 4341POPC   D2A56416  37.050  21.270   6.555
 4341POPC   C3A56417  36.734  21.231   6.868
 4341POPC   C4A56418  36.573  21.192   7.276
 4341POPC   C1B56419  36.925  21.651   6.155
 4341POPC   C2B56420  36.777  21.695   6.565
 4341POPC   C3B56421  36.981  21.673   6.948
 4341POPC   C4B56422  37.087  21.335   7.224
 4342POPC   NC356423  24.550  39.503   5.311
 4342POPC   PO456424  24.153  38.991   5.433
 4342POPC   GL156425  24.308  39.298   5.761
 4342POPC   GL256426  24.630  39.498   5.803
 4342POPC   C1A56427  24.357  39.163   6.196
 4342POPC   D2A56428  24.227  38.948   6.571
 4342POPC   C3A56429  24.261  39.083   7.000
 4342POPC   C4A56430  24.476  39.024   7.374
 4342POPC   C1B56431  24.818  39.377   6.201
 4342POPC   C2B56432  24.749  39.069   6.535
 4342POPC   C3B56433  24.779  39.160   6.965
 4342POPC   C4B56434  24.869  39.566   7.135
 4343POPC   NC356435  17.118  36.616   5.318
 4343POPC   PO456436  16.685  37.082   5.402
 4343POPC   GL156437  16.709  36.924   5.826
 4343POPC   GL256438  16.880  36.609   5.794
 4343POPC   C1A56439  16.652  36.863   6.284
 4343POPC   D2A56440  16.468  36.905   6.702
 4343POPC   C3A56441  16.774  37.025   7.027
 4343POPC   C4A56442  16.745  37.039   7.487
 4343POPC   C1B56443  17.122  36.546   6.162
 4343POPC   C2B56444  17.117  36.677   6.598
 4343POPC   C3B56445  17.110  36.558   7.037
 4343POPC   C4B56446  16.920  36.190   7.235
 4344POPC   NC356447  39.625   9.191   5.465
 4344POPC   PO456448  38.995   9.071   5.294
 4344POPC   GL156449  39.140   8.961   5.751
 4344POPC   GL256450  39.504   8.861   5.846
 4344POPC   C1A56451  39.082   8.719   6.157
 4344POPC   D2A56452  38.922   8.847   6.556
 4344POPC   C3A56453  39.216   8.866   6.877
 4344POPC   C4A56454  39.170   8.862   7.299
 4344POPC   C1B56455  39.661   9.075   6.233
 4344POPC   C2B56456  39.542   9.220   6.640
 4344POPC   C3B56457  39.591   9.179   7.086
 4344POPC   C4B56458  39.441   9.232   7.524
 4345POPC   NC356459  43.593  18.135   5.479
 4345POPC   PO456460  43.923  18.583   5.144
 4345POPC   GL156461  43.990  18.422   5.667
 4345POPC   GL256462  44.052  18.091   5.717
 4345POPC   C1A56463  43.866  18.393   6.114
 4345POPC   D2A56464  43.647  18.120   6.414
 4345POPC   C3A56465  43.526  18.282   6.822
 4345POPC   C4A56466  43.730  18.339   7.220
 4345POPC   C1B56467  44.005  17.886   6.087
 4345POPC   C2B56468  44.047  17.796   6.508
 4345POPC   C3B56469  43.992  18.038   6.864
 4345POPC   C4B56470  43.934  17.875   7.251
 4346POPC   NC356471  14.100  26.499   5.498
 4346POPC   PO456472  14.524  26.938   5.298
 4346POPC   GL156473  14.372  26.834   5.785
 4346POPC   GL256474  14.135  27.052   5.847
 4346POPC   C1A56475  14.324  26.632   6.238
 4346POPC   D2A56476  14.183  26.658   6.681
 4346POPC   C3A56477  14.493  26.498   6.962
 4346POPC   C4A56478  14.642  26.568   7.363
 4346POPC   C1B56479  14.041  27.053   6.282
 4346POPC   C2B56480  14.187  27.198   6.684
 4346POPC   C3B56481  14.310  27.116   7.099
 4346POPC   C4B56482  14.002  27.161   7.404
 4347POPC   NC356483  43.754  37.150   5.436
 4347POPC   PO456484  44.150  36.684   5.153
 4347POPC   GL156485  44.028  36.747   5.622
 4347POPC   GL256486  43.729  36.729   5.807
 4347POPC   C1A56487  44.143  36.674   6.079
 4347POPC   D2A56488  44.208  36.694   6.510
 4347POPC   C3A56489  43.980  36.779   6.883
 4347POPC   C4A56490  44.201  36.837   7.254
 4347POPC   C1B56491  43.839  37.084   6.085
 4347POPC   C2B56492  43.855  37.145   6.512
 4347POPC   C3B56493  43.684  37.192   6.923
 4347POPC   C4B56494  43.997  37.295   7.185
 4348POPC   NC356495  10.583  24.984   5.487
 4348POPC   PO456496  10.122  25.384   5.255
 4348POPC   GL156497  10.263  25.351   5.691
 4348POPC   GL256498  10.652  25.363   5.803
 4348POPC   C1A56499  10.291  25.480   6.126
 4348POPC   D2A56500  10.631  25.486   6.416
 4348POPC   C3A56501  10.367  25.386   6.770
 4348POPC   C4A56502  10.323  25.323   7.179
 4348POPC   C1B56503  10.814  25.008   6.082
 4348POPC   C2B56504  11.003  24.973   6.489
 4348POPC   C3B56505  10.833  25.200   6.810
 4348POPC   C4B56506  10.826  25.285   7.233
 4349POPC   NC356507  34.913   6.729   5.441
 4349POPC   PO456508  35.591   6.675   5.327
 4349POPC   GL156509  35.485   6.688   5.769
 4349POPC   GL256510  35.162   6.560   5.900
 4349POPC   C1A56511  35.538   6.746   6.215
 4349POPC   D2A56512  35.337   6.954   6.565
 4349POPC   C3A56513  35.451   6.735   6.916
 4349POPC   C4A56514  35.693   6.828   7.256
 4349POPC   C1B56515  35.067   6.576   6.355
 4349POPC   C2B56516  34.846   6.836   6.661
 4349POPC   C3B56517  35.005   6.894   7.076
 4349POPC   C4B56518  35.210   6.648   7.403
 4350POPC   NC356519  22.324  13.861   5.414
 4350POPC   PO456520  22.300  14.570   5.313
 4350POPC   GL156521  22.339  14.540   5.745
 4350POPC   GL256522  22.313  14.209   5.798
 4350POPC   C1A56523  22.106  14.624   6.131
 4350POPC   D2A56524  21.921  14.514   6.538
 4350POPC   C3A56525  21.928  14.142   6.796
 4350POPC   C4A56526  22.151  14.148   7.188
 4350POPC   C1B56527  22.178  14.122   6.232
 4350POPC   C2B56528  22.405  14.196   6.623
 4350POPC   C3B56529  22.614  14.016   6.962
 4350POPC   C4B56530  22.647  14.169   7.383
 4351POPC   NC356531  40.269  32.419   5.400
 4351POPC   PO456532  39.848  31.906   5.341
 4351POPC   GL156533  39.735  32.224   5.693
 4351POPC   GL256534  39.875  32.582   5.766
 4351POPC   C1A56535  39.855  32.190   6.129
 4351POPC   D2A56536  39.988  31.916   6.485
 4351POPC   C3A56537  39.950  32.123   6.901
 4351POPC   C4A56538  39.686  32.244   7.255
 4351POPC   C1B56539  40.017  32.750   6.191
 4351POPC   C2B56540  40.254  32.720   6.588
 4351POPC   C3B56541  40.049  32.635   6.986
 4351POPC   C4B56542  39.969  32.639   7.429
 4352POPC   NC356543   7.316  35.689   5.442
 4352POPC   PO456544   7.623  35.025   5.408
 4352POPC   GL156545   7.477  35.169   5.780
 4352POPC   GL256546   7.657  35.450   5.851
 4352POPC   C1A56547   7.306  35.269   6.190
 4352POPC   D2A56548   7.047  35.141   6.504
 4352POPC   C3A56549   7.238  35.162   6.896
 4352POPC   C4A56550   7.331  35.215   7.292
 4352POPC   C1B56551   7.802  35.208   6.202
 4352POPC   C2B56552   7.650  35.076   6.606
 4352POPC   C3B56553   7.693  34.918   7.060
 4352POPC   C4B56554   7.687  35.011   7.575
 4353POPC   NC356555   2.268  10.120   5.461
 4353POPC   PO456556   1.863   9.468   5.412
 4353POPC   GL156557   1.950   9.812   5.731
 4353POPC   GL256558   2.298   9.740   5.807
 4353POPC   C1A56559   1.967   9.825   6.196
 4353POPC   D2A56560   2.073   9.583   6.539
 4353POPC   C3A56561   1.802   9.659   6.869
 4353POPC   C4A56562   1.924   9.748   7.292
 4353POPC   C1B56563   2.469   9.875   6.207
 4353POPC   C2B56564   2.313  10.083   6.552
 4353POPC   C3B56565   2.271   9.905   6.945
 4353POPC   C4B56566   2.419   9.883   7.359
 4354POPC   NC356567  23.220  13.607   5.636
 4354POPC   PO456568  23.628  13.857   5.126
 4354POPC   GL156569  23.736  13.533   5.599
 4354POPC   GL256570  23.594  13.581   5.949
 4354POPC   C1A56571  24.076  13.618   6.005
 4354POPC   D2A56572  23.827  13.756   6.393
 4354POPC   C3A56573  23.920  13.679   6.818
 4354POPC   C4A56574  23.719  13.815   7.204
 4354POPC   C1B56575  23.792  13.261   6.210
 4354POPC   C2B56576  23.758  13.205   6.630
 4354POPC   C3B56577  23.565  13.339   6.999
 4354POPC   C4B56578  23.623  13.365   7.410
 4355POPC   NC356579  15.006  40.735   5.507
 4355POPC   PO456580  15.642  40.497   5.468
 4355POPC   GL156581  15.401  40.641   5.820
 4355POPC   GL256582  15.309  40.956   5.946
 4355POPC   C1A56583  15.120  40.574   6.200
 4355POPC   D2A56584  15.198  40.789   6.606
 4355POPC   C3A56585  15.133  40.492   6.934
 4355POPC   C4A56586  15.127  40.505   7.371
 4355POPC   C1B56587  14.959  41.106   6.200
 4355POPC   C2B56588  14.604  41.165   6.500
 4355POPC   C3B56589  14.818  41.150   6.892
 4355POPC   C4B56590  15.131  40.965   7.140
 4356POPC   NC356591  39.924   7.614   5.456
 4356POPC   PO456592  40.353   7.146   5.507
 4356POPC   GL156593  40.237   7.442   5.831
 4356POPC   GL256594  39.898   7.310   5.878
 4356POPC   C1A56595  40.376   7.669   6.249
 4356POPC   D2A56596  40.331   7.798   6.725
 4356POPC   C3A56597  39.929   7.751   6.942
 4356POPC   C4A56598  39.662   7.617   7.298
 4356POPC   C1B56599  40.154   7.204   6.255
 4356POPC   C2B56600  40.053   7.290   6.679
 4356POPC   C3B56601  39.915   7.220   7.095
 4356POPC   C4B56602  39.813   7.195   7.549
 4357POPC   NC356603   0.463  28.581   5.380
 4357POPC   PO456604   0.627  27.915   5.266
 4357POPC   GL156605   0.463  28.169   5.694
 4357POPC   GL256606   0.652  28.454   5.866
 4357POPC   C1A56607   0.193  28.414   6.071
 4357POPC   D2A56608   0.118  28.612   6.518
 4357POPC   C3A56609   0.239  28.429   6.941
 4357POPC   C4A56610   0.476  28.052   7.156
 4357POPC   C1B56611   0.611  28.720   6.242
 4357POPC   C2B56612   0.623  28.690   6.697
 4357POPC   C3B56613   0.727  28.511   7.117
 4357POPC   C4B56614   0.787  28.776   7.492
 4358POPC   NC356615  40.387  37.173   5.568
 4358POPC   PO456616  40.699  37.781   5.401
 4358POPC   GL156617  40.810  37.916   5.805
 4358POPC   GL256618  40.496  38.092   5.789
 4358POPC   C1A56619  40.895  37.653   6.202
 4358POPC   D2A56620  40.719  37.516   6.599
 4358POPC   C3A56621  40.949  37.430   6.977
 4358POPC   C4A56622  40.784  37.403   7.382
 4358POPC   C1B56623  40.503  38.047   6.227
 4358POPC   C2B56624  40.519  38.175   6.652
 4358POPC   C3B56625  40.636  37.860   6.980
 4358POPC   C4B56626  40.665  37.892   7.428
 4359POPC   NC356627  29.731  25.658   5.473
 4359POPC   PO456628  29.472  25.103   5.429
 4359POPC   GL156629  29.609  25.224   5.850
 4359POPC   GL256630  29.448  25.542   5.885
 4359POPC   C1A56631  29.719  25.051   6.304
 4359POPC   D2A56632  29.731  25.004   6.783
 4359POPC   C3A56633  30.098  24.959   7.043
 4359POPC   C4A56634  30.075  24.729   7.431
 4359POPC   C1B56635  29.792  25.562   6.191
 4359POPC   C2B56636  29.719  25.493   6.631
 4359POPC   C3B56637  29.896  25.457   7.064
 4359POPC   C4B56638  29.734  25.560   7.517
 4360POPC   NC356639  23.130  22.046   5.391
 4360POPC   PO456640  22.627  22.177   5.663
 4360POPC   GL156641  22.958  22.023   5.872
 4360POPC   GL256642  23.208  22.287   5.853
 4360POPC   C1A56643  23.005  22.033   6.273
 4360POPC   D2A56644  22.850  22.187   6.623
 4360POPC   C3A56645  22.913  22.053   7.014
 4360POPC   C4A56646  22.846  22.298   7.372
 4360POPC   C1B56647  23.303  22.459   6.284
 4360POPC   C2B56648  23.309  22.352   6.734
 4360POPC   C3B56649  23.313  22.427   7.171
 4360POPC   C4B56650  23.267  22.552   7.631
 4361POPC   NC356651  41.156  37.678   5.469
 4361POPC   PO456652  41.730  37.313   5.401
 4361POPC   GL156653  41.659  37.568   5.780
 4361POPC   GL256654  41.348  37.739   5.923
 4361POPC   C1A56655  41.688  37.508   6.209
 4361POPC   D2A56656  41.382  37.704   6.471
 4361POPC   C3A56657  41.629  37.777   6.800
 4361POPC   C4A56658  41.722  37.435   7.077
 4361POPC   C1B56659  41.163  38.071   6.153
 4361POPC   C2B56660  40.991  38.010   6.592
 4361POPC   C3B56661  41.171  37.892   7.004
 4361POPC   C4B56662  41.585  37.907   7.291
 4362POPC   NC356663  18.346  41.398   5.386
 4362POPC   PO456664  18.269  41.962   5.713
 4362POPC   GL156665  18.320  41.565   5.866
 4362POPC   GL256666  18.041  41.293   5.835
 4362POPC   C1A56667  18.490  41.521   6.264
 4362POPC   D2A56668  18.282  41.501   6.653
 4362POPC   C3A56669  18.409  41.710   7.025
 4362POPC   C4A56670  18.771  41.791   7.271
 4362POPC   C1B56671  17.949  41.517   6.227
 4362POPC   C2B56672  17.883  41.832   6.568
 4362POPC   C3B56673  17.898  41.603   6.953
 4362POPC   C4B56674  18.034  41.479   7.359
 4363POPC   NC356675  26.106  27.232   4.880
 4363POPC   PO456676  26.228  27.789   5.278
 4363POPC   GL156677  26.075  27.499   5.621
 4363POPC   GL256678  26.074  27.770   5.804
 4363POPC   C1A56679  25.964  27.356   6.073
 4363POPC   D2A56680  26.047  27.540   6.490
 4363POPC   C3A56681  25.988  27.411   6.903
 4363POPC   C4A56682  26.127  27.527   7.297
 4363POPC   C1B56683  25.849  27.889   6.158
 4363POPC   C2B56684  25.730  27.944   6.568
 4363POPC   C3B56685  25.995  27.951   6.931
 4363POPC   C4B56686  25.700  27.785   7.173
 4364POPC   NC356687   0.205   0.918   5.327
 4364POPC   PO456688   0.675   1.448   5.517
 4364POPC   GL156689   0.714   1.205   5.878
 4364POPC   GL256690   0.438   1.006   5.791
 4364POPC   C1A56691   0.704   1.229   6.321
 4364POPC   D2A56692   0.417   1.258   6.646
 4364POPC   C3A56693   0.508   1.396   7.053
 4364POPC   C4A56694   0.189   1.532   7.327
 4364POPC   C1B56695   0.411   0.823   6.184
 4364POPC   C2B56696   0.262   0.784   6.608
 4364POPC   C3B56697   0.456   0.886   7.015
 4364POPC   C4B56698   0.315   1.020   7.408
 4365POPC   NC356699  28.098  18.086   5.600
 4365POPC   PO456700  27.500  18.107   5.242
 4365POPC   GL156701  27.598  18.166   5.708
 4365POPC   GL256702  27.350  18.399   5.861
 4365POPC   C1A56703  27.737  18.233   6.150
 4365POPC   D2A56704  27.753  18.599   6.449
 4365POPC   C3A56705  27.700  18.461   6.872
 4365POPC   C4A56706  27.739  18.053   7.076
 4365POPC   C1B56707  27.235  18.086   6.212
 4365POPC   C2B56708  27.393  18.081   6.656
 4365POPC   C3B56709  27.240  18.265   7.068
 4365POPC   C4B56710  27.143  18.625   7.366
 4366POPC   NC356711   6.794   3.141   5.480
 4366POPC   PO456712   6.553   3.760   5.353
 4366POPC   GL156713   6.682   3.766   5.817
 4366POPC   GL256714   6.696   3.435   5.872
 4366POPC   C1A56715   6.768   3.714   6.287
 4366POPC   D2A56716   6.604   3.967   6.604
 4366POPC   C3A56717   6.594   3.781   6.959
 4366POPC   C4A56718   6.596   3.378   7.210
 4366POPC   C1B56719   6.711   3.213   6.252
 4366POPC   C2B56720   6.735   3.316   6.702
 4366POPC   C3B56721   7.022   3.168   6.969
 4366POPC   C4B56722   7.007   3.128   7.376
 4367POPC   NC356723   2.104   3.815   5.465
 4367POPC   PO456724   1.903   3.166   5.304
 4367POPC   GL156725   1.818   3.287   5.773
 4367POPC   GL256726   1.748   3.655   5.817
 4367POPC   C1A56727   1.776   3.323   6.238
 4367POPC   D2A56728   1.747   3.418   6.677
 4367POPC   C3A56729   2.141   3.238   6.856
 4367POPC   C4A56730   2.393   3.283   7.235
 4367POPC   C1B56731   1.945   3.804   6.197
 4367POPC   C2B56732   1.944   3.911   6.644
 4367POPC   C3B56733   2.189   3.761   7.002
 4367POPC   C4B56734   2.410   3.778   7.386
 4368POPC   NC356735  18.280  11.907   5.370
 4368POPC   PO456736  18.302  11.138   5.434
 4368POPC   GL156737  18.282  11.223   5.848
 4368POPC   GL256738  18.307  11.584   5.883
 4368POPC   C1A56739  18.427  11.246   6.265
 4368POPC   D2A56740  18.269  11.308   6.674
 4368POPC   C3A56741  18.609  11.140   6.881
 4368POPC   C4A56742  18.753  11.124   7.267
 4368POPC   C1B56743  18.299  11.714   6.331
 4368POPC   C2B56744  18.538  11.746   6.727
 4368POPC   C3B56745  18.400  11.553   7.133
 4368POPC   C4B56746  18.063  11.609   7.467
 4369POPC   NC356747  42.728  29.393   5.434
 4369POPC   PO456748  42.417  28.835   5.432
 4369POPC   GL156749  42.469  29.114   5.805
 4369POPC   GL256750  42.183  29.021   6.042
 4369POPC   C1A56751  42.475  29.417   6.165
 4369POPC   D2A56752  42.325  29.258   6.564
 4369POPC   C3A56753  42.527  29.375   6.946
 4369POPC   C4A56754  42.367  29.440   7.330
 4369POPC   C1B56755  42.516  28.697   6.113
 4369POPC   C2B56756  42.795  28.673   6.472
 4369POPC   C3B56757  42.584  28.676   6.884
 4369POPC   C4B56758  42.416  28.920   7.229
 4370POPC   NC356759  38.059   1.000   5.482
 4370POPC   PO456760  38.419   1.668   5.482
 4370POPC   GL156761  38.314   1.518   5.903
 4370POPC   GL256762  38.275   1.185   5.889
 4370POPC   C1A56763  38.554   1.383   6.309
 4370POPC   D2A56764  38.716   1.520   6.754
 4370POPC   C3A56765  38.378   1.391   7.058
 4370POPC   C4A56766  37.982   1.229   7.265
 4370POPC   C1B56767  38.333   0.899   6.180
 4370POPC   C2B56768  38.310   0.983   6.594
 4370POPC   C3B56769  38.345   0.881   7.014
 4370POPC   C4B56770  38.568   0.778   7.405
 4371POPC   NC356771  43.500  13.532   5.031
 4371POPC   PO456772  42.911  13.542   5.203
 4371POPC   GL156773  42.984  13.411   5.666
 4371POPC   GL256774  42.741  13.197   5.826
 4371POPC   C1A56775  43.246  13.517   6.069
 4371POPC   D2A56776  43.425  13.825   6.414
 4371POPC   C3A56777  43.500  13.773   6.891
 4371POPC   C4A56778  43.287  13.928   7.278
 4371POPC   C1B56779  42.738  13.481   6.180
 4371POPC   C2B56780  43.009  13.542   6.537
 4371POPC   C3B56781  42.977  13.788   6.901
 4371POPC   C4B56782  42.951  13.476   7.196
 4372POPC   NC356783  26.166  13.448   5.443
 4372POPC   PO456784  26.206  14.125   5.476
 4372POPC   GL156785  26.109  13.823   5.779
 4372POPC   GL256786  25.773  13.784   5.851
 4372POPC   C1A56787  26.118  13.604   6.178
 4372POPC   D2A56788  26.318  13.436   6.566
 4372POPC   C3A56789  26.131  13.386   6.967
 4372POPC   C4A56790  26.206  13.596   7.364
 4372POPC   C1B56791  25.696  13.923   6.242
 4372POPC   C2B56792  25.888  13.787   6.617
 4372POPC   C3B56793  25.784  13.770   7.041
 4372POPC   C4B56794  25.699  13.446   7.298
 4373POPC   NC356795  41.205  43.311   5.177
 4373POPC   PO456796  41.847  43.094   5.381
 4373POPC   GL156797  41.562  42.986   5.722
 4373POPC   GL256798  41.552  43.307   5.872
 4373POPC   C1A56799  41.408  42.909   6.155
 4373POPC   D2A56800  41.570  43.091   6.532
 4373POPC   C3A56801  41.335  43.113   6.912
 4373POPC   C4A56802  41.417  43.390   7.242
 4373POPC   C1B56803  41.911  43.090   6.116
 4373POPC   C2B56804  42.076  43.148   6.572
 4373POPC   C3B56805  41.854  43.241   7.000
 4373POPC   C4B56806  41.803  43.148   7.470
 4374POPC   NC356807  18.833  34.859   5.493
 4374POPC   PO456808  19.180  34.310   5.391
 4374POPC   GL156809  19.038  34.483   5.784
 4374POPC   GL256810  18.710  34.567   5.887
 4374POPC   C1A56811  19.182  34.400   6.175
 4374POPC   D2A56812  19.098  34.403   6.594
 4374POPC   C3A56813  19.291  34.112   6.836
 4374POPC   C4A56814  19.223  34.246   7.229
 4374POPC   C1B56815  18.760  34.669   6.291
 4374POPC   C2B56816  18.860  34.858   6.669
 4374POPC   C3B56817  18.851  34.609   7.014
 4374POPC   C4B56818  19.014  34.682   7.422
 4375POPC   NC356819  25.614  19.897   5.459
 4375POPC   PO456820  25.058  19.558   5.621
 4375POPC   GL156821  25.386  19.646   5.896
 4375POPC   GL256822  25.399  20.002   5.909
 4375POPC   C1A56823  25.498  19.690   6.339
 4375POPC   D2A56824  25.328  19.724   6.741
 4375POPC   C3A56825  25.566  19.751   7.110
 4375POPC   C4A56826  25.723  19.349   7.320
 4375POPC   C1B56827  25.650  20.166   6.254
 4375POPC   C2B56828  25.680  20.097   6.690
 4375POPC   C3B56829  25.516  20.355   6.971
 4375POPC   C4B56830  25.294  20.230   7.247
 4376POPC   NC356831  35.760  26.261   5.640
 4376POPC   PO456832  35.222  25.976   5.382
 4376POPC   GL156833  35.285  26.144   5.843
 4376POPC   GL256834  35.332  25.800   6.023
 4376POPC   C1A56835  35.320  26.195   6.330
 4376POPC   D2A56836  35.229  25.853   6.668
 4376POPC   C3A56837  35.374  25.919   7.105
 4376POPC   C4A56838  35.296  26.224   7.419
 4376POPC   C1B56839  34.922  25.836   6.254
 4376POPC   C2B56840  34.712  25.916   6.673
 4376POPC   C3B56841  34.852  26.026   7.134
 4376POPC   C4B56842  35.010  25.786   7.509
 4377POPC   NC356843   6.991   7.371   5.322
 4377POPC   PO456844   7.328   7.875   5.270
 4377POPC   GL156845   7.312   7.515   5.695
 4377POPC   GL256846   7.607   7.448   5.900
 4377POPC   C1A56847   7.251   7.593   6.198
 4377POPC   D2A56848   7.264   7.398   6.632
 4377POPC   C3A56849   7.170   7.651   6.990
 4377POPC   C4A56850   7.405   7.594   7.358
 4377POPC   C1B56851   7.512   7.165   6.257
 4377POPC   C2B56852   7.670   7.063   6.670
 4377POPC   C3B56853   7.456   7.176   7.066
 4377POPC   C4B56854   7.345   7.136   7.530
 4378POPC   NC356855   2.444  42.810   5.363
 4378POPC   PO456856   2.813  43.367   5.295
 4378POPC   GL156857   2.742  43.131   5.727
 4378POPC   GL256858   3.045  43.148   5.981
 4378POPC   C1A56859   2.583  43.007   6.159
 4378POPC   D2A56860   2.398  43.115   6.598
 4378POPC   C3A56861   2.556  43.179   7.043
 4378POPC   C4A56862   2.918  42.996   7.277
 4378POPC   C1B56863   2.971  43.187   6.467
 4378POPC   C2B56864   3.063  43.328   6.913
 4378POPC   C3B56865   3.178  43.424   7.358
 4378POPC   C4B56866   3.230  43.559   7.786
 4379POPC   NC356867   9.046  23.254   5.443
 4379POPC   PO456868   8.648  22.634   5.598
 4379POPC   GL156869   8.895  22.908   5.806
 4379POPC   GL256870   9.219  22.798   5.797
 4379POPC   C1A56871   8.970  22.988   6.227
 4379POPC   D2A56872   8.684  23.023   6.562
 4379POPC   C3A56873   8.961  23.117   6.881
 4379POPC   C4A56874   8.799  23.092   7.287
 4379POPC   C1B56875   9.428  22.635   6.137
 4379POPC   C2B56876   9.426  22.866   6.505
 4379POPC   C3B56877   9.481  22.772   6.924
 4379POPC   C4B56878   9.315  22.984   7.255
 4380POPC   NC356879  20.816  27.044   5.393
 4380POPC   PO456880  20.286  26.612   5.416
 4380POPC   GL156881  20.436  26.798   5.777
 4380POPC   GL256882  20.789  26.727   5.797
 4380POPC   C1A56883  20.565  26.857   6.225
 4380POPC   D2A56884  20.739  26.979   6.601
 4380POPC   C3A56885  20.520  26.837   6.951
 4380POPC   C4A56886  20.472  27.066   7.335
 4380POPC   C1B56887  20.909  26.478   6.142
 4380POPC   C2B56888  21.057  26.534   6.554
 4380POPC   C3B56889  21.010  26.678   6.944
 4380POPC   C4B56890  20.830  26.694   7.344
 4381POPC   NC356891  11.056  19.978   5.422
 4381POPC   PO456892  10.468  19.639   5.422
 4381POPC   GL156893  10.583  19.864   5.793
 4381POPC   GL256894  10.297  20.101   5.755
 4381POPC   C1A56895  10.637  19.700   6.245
 4381POPC   D2A56896  10.401  19.602   6.633
 4381POPC   C3A56897  10.585  19.791   7.037
 4381POPC   C4A56898  10.711  19.695   7.497
 4381POPC   C1B56899  10.410  20.168   6.192
 4381POPC   C2B56900  10.280  20.104   6.615
 4381POPC   C3B56901  10.253  20.197   7.051
 4381POPC   C4B56902  10.473  20.148   7.443
 4382POPC   NC356903  33.086   7.509   5.578
 4382POPC   PO456904  33.522   7.046   5.334
 4382POPC   GL156905  33.330   7.057   5.773
 4382POPC   GL256906  32.970   7.155   5.905
 4382POPC   C1A56907  33.367   7.316   6.173
 4382POPC   D2A56908  33.270   7.572   6.531
 4382POPC   C3A56909  33.341   7.384   6.911
 4382POPC   C4A56910  33.132   7.287   7.279
 4382POPC   C1B56911  32.845   7.340   6.287
 4382POPC   C2B56912  32.824   7.378   6.739
 4382POPC   C3B56913  32.664   7.462   7.146
 4382POPC   C4B56914  32.598   7.502   7.556
 4383POPC   NC356915  22.777  44.456   5.382
 4383POPC   PO456916  22.967  43.805   5.368
 4383POPC   GL156917  22.848  43.931   5.752
 4383POPC   GL256918  23.191  43.928   5.832
 4383POPC   C1A56919  22.609  43.847   6.126
 4383POPC   D2A56920  22.573  44.009   6.548
 4383POPC   C3A56921  22.734  43.811   6.919
 4383POPC   C4A56922  22.976  44.051   7.216
 4383POPC   C1B56923  23.149  43.600   6.119
 4383POPC   C2B56924  23.134  43.534   6.596
 4383POPC   C3B56925  23.249  43.665   7.011
 4383POPC   C4B56926  23.216  43.681   7.476
 4384POPC   NC356927   1.921  40.324   5.312
 4384POPC   PO456928   2.150  39.757   5.170
 4384POPC   GL156929   1.945  39.926   5.627
 4384POPC   GL256930   1.678  40.192   5.745
 4384POPC   C1A56931   2.048  40.077   6.084
 4384POPC   D2A56932   1.971  39.834   6.462
 4384POPC   C3A56933   2.204  39.777   6.835
 4384POPC   C4A56934   2.042  39.924   7.207
 4384POPC   C1B56935   1.597  40.310   6.188
 4384POPC   C2B56936   1.747  40.261   6.610
 4384POPC   C3B56937   1.889  40.353   6.998
 4384POPC   C4B56938   1.632  40.168   7.328
 4385POPC   NC356939  28.023   9.771   5.450
 4385POPC   PO456940  27.472   9.322   5.394
 4385POPC   GL156941  27.558   9.412   5.809
 4385POPC   GL256942  27.898   9.378   5.788
 4385POPC   C1A56943  27.396   9.566   6.207
 4385POPC   D2A56944  27.501   9.549   6.645
 4385POPC   C3A56945  27.598   9.872   6.979
 4385POPC   C4A56946  27.509   9.757   7.424
 4385POPC   C1B56947  28.101   9.500   6.204
 4385POPC   C2B56948  28.018   9.532   6.682
 4385POPC   C3B56949  27.765   9.405   7.083
 4385POPC   C4B56950  27.714   9.299   7.552
 4386POPC   NC356951  28.268  26.769   5.322
 4386POPC   PO456952  28.613  27.291   5.587
 4386POPC   GL156953  28.348  26.924   5.822
 4386POPC   GL256954  28.291  26.513   5.854
 4386POPC   C1A56955  27.980  26.854   6.098
 4386POPC   D2A56956  27.945  26.699   6.532
 4386POPC   C3A56957  28.360  26.828   6.720
 4386POPC   C4A56958  28.490  26.907   7.145
 4386POPC   C1B56959  28.117  26.225   6.236
 4386POPC   C2B56960  28.012  26.217   6.704
 4386POPC   C3B56961  28.066  26.582   7.030
 4386POPC   C4B56962  28.262  26.585   7.467
 4387POPC   NC356963  42.569  31.953   5.773
 4387POPC   PO456964  42.197  32.400   5.446
 4387POPC   GL156965  42.314  32.381   5.886
 4387POPC   GL256966  42.206  32.058   6.094
 4387POPC   C1A56967  42.540  32.453   6.267
 4387POPC   D2A56968  42.345  32.610   6.630
 4387POPC   C3A56969  42.568  32.630   6.994
 4387POPC   C4A56970  42.585  32.336   7.277
 4387POPC   C1B56971  41.981  32.395   6.279
 4387POPC   C2B56972  41.844  32.286   6.670
 4387POPC   C3B56973  42.128  32.280   6.977
 4387POPC   C4B56974  42.126  32.565   7.288
 4388POPC   NC356975  36.293   5.605   5.336
 4388POPC   PO456976  35.996   6.202   5.403
 4388POPC   GL156977  36.003   5.903   5.759
 4388POPC   GL256978  36.250   5.642   5.841
 4388POPC   C1A56979  35.891   5.768   6.197
 4388POPC   D2A56980  35.932   6.027   6.544
 4388POPC   C3A56981  35.819   5.825   6.880
 4388POPC   C4A56982  35.911   5.903   7.310
 4388POPC   C1B56983  36.359   5.956   6.151
 4388POPC   C2B56984  36.463   6.069   6.573
 4388POPC   C3B56985  36.330   5.921   6.978
 4388POPC   C4B56986  36.599   5.658   7.202
 4389POPC   NC356987  25.866  35.938   5.226
 4389POPC   PO456988  26.423  35.763   5.620
 4389POPC   GL156989  26.172  36.054   5.863
 4389POPC   GL256990  25.865  36.126   5.699
 4389POPC   C1A56991  26.096  36.229   6.287
 4389POPC   D2A56992  26.338  36.358   6.632
 4389POPC   C3A56993  26.261  36.202   7.040
 4389POPC   C4A56994  26.004  36.397   7.304
 4389POPC   C1B56995  25.650  36.131   6.082
 4389POPC   C2B56996  25.684  35.968   6.490
 4389POPC   C3B56997  25.787  36.226   6.849
 4389POPC   C4B56998  25.566  36.195   7.249
 4390POPC   NC356999  37.287  26.995   5.465
 4390POPC   PO457000  37.851  26.672   5.511
 4390POPC   GL157001  37.751  26.955   5.817
 4390POPC   GL257002  37.436  26.834   5.930
 4390POPC   C1A57003  37.926  26.908   6.224
 4390POPC   D2A57004  38.193  26.871   6.565
 4390POPC   C3A57005  38.047  27.115   6.945
 4390POPC   C4A57006  37.955  26.971   7.385
 4390POPC   C1B57007  37.579  26.535   6.246
 4390POPC   C2B57008  37.729  26.589   6.661
 4390POPC   C3B57009  37.625  26.822   7.021
 4390POPC   C4B57010  37.443  27.114   7.328
 4391POPC   NC357011   0.691  23.471   5.542
 4391POPC   PO457012   0.288  23.984   5.340
 4391POPC   GL157013   0.439  23.858   5.729
 4391POPC   GL257014   0.736  24.009   5.726
 4391POPC   C1A57015   0.478  23.639   6.142
 4391POPC   D2A57016   0.297  23.412   6.476
 4391POPC   C3A57017   0.437  23.593   6.842
 4391POPC   C4A57018   0.449  23.706   7.270
 4391POPC   C1B57019   0.538  24.149   6.124
 4391POPC   C2B57020   0.430  23.994   6.522
 4391POPC   C3B57021   0.575  24.087   6.928
 4391POPC   C4B57022   0.624  24.253   7.329
 4392POPC   NC357023  40.162  19.604   5.493
 4392POPC   PO457024  40.248  20.249   5.507
 4392POPC   GL157025  40.077  20.015   5.829
 4392POPC   GL257026  39.725  19.888   5.718
 4392POPC   C1A57027  40.148  19.809   6.228
 4392POPC   D2A57028  40.349  19.953   6.613
 4392POPC   C3A57029  40.260  19.805   6.991
 4392POPC   C4A57030  40.019  19.541   7.140
 4392POPC   C1B57031  39.681  20.020   6.159
 4392POPC   C2B57032  39.817  19.975   6.591
 4392POPC   C3B57033  39.625  19.828   6.937
 4392POPC   C4B57034  39.522  19.478   7.189
 4393POPC   NC357035  32.081  31.776   5.488
 4393POPC   PO457036  32.660  31.514   5.430
 4393POPC   GL157037  32.393  31.473   5.799
 4393POPC   GL257038  32.425  31.112   5.826
 4393POPC   C1A57039  32.149  31.599   6.172
 4393POPC   D2A57040  31.991  31.706   6.599
 4393POPC   C3A57041  32.315  31.765   6.917
 4393POPC   C4A57042  32.196  31.597   7.301
 4393POPC   C1B57043  32.399  31.156   6.234
 4393POPC   C2B57044  32.397  31.388   6.590
 4393POPC   C3B57045  32.330  31.236   6.962
 4393POPC   C4B57046  32.346  31.108   7.372
 4394POPC   NC357047  16.387  17.736   5.456
 4394POPC   PO457048  16.992  17.587   5.200
 4394POPC   GL157049  16.787  17.423   5.609
 4394POPC   GL257050  16.438  17.237   5.659
 4394POPC   C1A57051  16.680  17.534   6.047
 4394POPC   D2A57052  16.826  17.656   6.479
 4394POPC   C3A57053  16.732  17.381   6.824
 4394POPC   C4A57054  16.614  17.526   7.275
 4394POPC   C1B57055  16.289  17.166   6.096
 4394POPC   C2B57056  16.311  17.469   6.459
 4394POPC   C3B57057  16.245  17.474   6.920
 4394POPC   C4B57058  16.180  17.199   7.274
 4395POPC   NC357059   4.707  15.388   5.152
 4395POPC   PO457060   5.182  15.466   5.661
 4395POPC   GL157061   4.904  15.751   5.989
 4395POPC   GL257062   4.681  16.060   5.887
 4395POPC   C1A57063   4.912  15.776   6.444
 4395POPC   D2A57064   4.844  15.681   6.868
 4395POPC   C3A57065   5.106  15.931   7.118
 4395POPC   C4A57066   5.463  16.023   7.420
 4395POPC   C1B57067   4.792  16.262   6.295
 4395POPC   C2B57068   4.853  16.216   6.752
 4395POPC   C3B57069   4.922  16.398   7.189
 4395POPC   C4B57070   5.239  16.488   7.526
 4396POPC   NC357071   9.869  33.291   5.276
 4396POPC   PO457072   9.731  32.657   5.349
 4396POPC   GL157073   9.880  32.867   5.771
 4396POPC   GL257074   9.873  33.246   5.774
 4396POPC   C1A57075   9.781  32.893   6.236
 4396POPC   D2A57076   9.609  33.172   6.576
 4396POPC   C3A57077   9.587  33.005   7.014
 4396POPC   C4A57078   9.743  32.744   7.366
 4396POPC   C1B57079  10.057  33.323   6.164
 4396POPC   C2B57080   9.971  33.555   6.510
 4396POPC   C3B57081   9.988  33.375   6.892
 4396POPC   C4B57082   9.944  33.526   7.291
 4397POPC   NC357083  20.770  41.404   4.873
 4397POPC   PO457084  20.467  41.708   5.253
 4397POPC   GL157085  20.493  41.768   5.746
 4397POPC   GL257086  20.754  42.029   5.743
 4397POPC   C1A57087  20.390  41.644   6.221
 4397POPC   D2A57088  20.256  41.577   6.697
 4397POPC   C3A57089  20.535  41.388   7.053
 4397POPC   C4A57090  20.765  41.141   7.403
 4397POPC   C1B57091  20.833  41.955   6.200
 4397POPC   C2B57092  20.713  41.791   6.632
 4397POPC   C3B57093  20.581  41.899   7.066
 4397POPC   C4B57094  20.651  42.050   7.529
 4398POPC   NC357095   0.738  27.466   5.328
 4398POPC   PO457096   1.387  27.656   5.335
 4398POPC   GL157097   1.153  27.700   5.766
 4398POPC   GL257098   0.946  28.000   5.845
 4398POPC   C1A57099   1.302  27.567   6.199
 4398POPC   D2A57100   1.614  27.558   6.544
 4398POPC   C3A57101   1.490  27.468   6.958
 4398POPC   C4A57102   1.201  27.556   7.227
 4398POPC   C1B57103   0.913  27.871   6.291
 4398POPC   C2B57104   1.116  27.746   6.701
 4398POPC   C3B57105   1.026  28.002   7.087
 4398POPC   C4B57106   0.967  27.897   7.541
 4399POPC   NC357107  40.913  14.128   5.418
 4399POPC   PO457108  40.579  14.768   5.269
 4399POPC   GL157109  40.550  14.458   5.612
 4399POPC   GL257110  40.603  14.745   5.808
 4399POPC   C1A57111  40.641  14.292   6.046
 4399POPC   D2A57112  40.909  14.393   6.361
 4399POPC   C3A57113  40.849  14.255   6.798
 4399POPC   C4A57114  41.050  14.571   7.040
 4399POPC   C1B57115  40.554  14.764   6.243
 4399POPC   C2B57116  40.445  14.499   6.590
 4399POPC   C3B57117  40.531  14.600   7.036
 4399POPC   C4B57118  40.454  14.649   7.484
 4400POPC   NC357119  30.983  28.334   5.452
 4400POPC   PO457120  30.274  28.178   5.491
 4400POPC   GL157121  30.581  28.401   5.785
 4400POPC   GL257122  30.885  28.646   5.838
 4400POPC   C1A57123  30.794  28.312   6.208
 4400POPC   D2A57124  30.536  28.334   6.578
 4400POPC   C3A57125  30.672  28.230   7.025
 4400POPC   C4A57126  30.803  28.139   7.469
 4400POPC   C1B57127  30.559  28.755   6.148
 4400POPC   C2B57128  30.598  28.862   6.559
 4400POPC   C3B57129  30.541  28.715   6.941
 4400POPC   C4B57130  30.539  28.934   7.289
 4401POPC   NC357131  36.767  33.460   5.267
 4401POPC   PO457132  37.302  33.901   5.415
 4401POPC   GL157133  37.111  34.003   5.807
 4401POPC   GL257134  36.937  33.685   5.721
 4401POPC   C1A57135  37.075  34.091   6.272
 4401POPC   D2A57136  37.285  33.874   6.636
 4401POPC   C3A57137  37.196  33.853   7.077
 4401POPC   C4A57138  36.819  33.990   7.311
 4401POPC   C1B57139  36.852  33.642   6.146
 4401POPC   C2B57140  36.602  33.597   6.518
 4401POPC   C3B57141  36.752  33.643   6.911
 4401POPC   C4B57142  36.929  33.479   7.277
 4402POPC   NC357143  26.279  15.190   5.350
 4402POPC   PO457144  25.682  15.440   5.372
 4402POPC   GL157145  25.895  15.308   5.802
 4402POPC   GL257146  26.138  15.025   5.804
 4402POPC   C1A57147  26.130  15.244   6.247
 4402POPC   D2A57148  26.367  15.344   6.635
 4402POPC   C3A57149  26.067  15.500   6.910
 4402POPC   C4A57150  25.654  15.585   7.074
 4402POPC   C1B57151  25.737  14.876   6.044
 4402POPC   C2B57152  25.662  14.823   6.522
 4402POPC   C3B57153  25.845  15.008   6.915
 4402POPC   C4B57154  26.270  14.970   7.083
 4403POPC   NC357155   1.982  15.352   5.545
 4403POPC   PO457156   2.140  14.693   5.572
 4403POPC   GL157157   2.134  14.970   5.892
 4403POPC   GL257158   1.807  14.992   5.870
 4403POPC   C1A57159   2.028  15.201   6.287
 4403POPC   D2A57160   2.257  15.413   6.614
 4403POPC   C3A57161   2.082  15.199   6.980
 4403POPC   C4A57162   2.178  15.192   7.419
 4403POPC   C1B57163   1.676  14.822   6.259
 4403POPC   C2B57164   1.584  15.069   6.616
 4403POPC   C3B57165   1.574  15.300   6.978
 4403POPC   C4B57166   1.690  15.047   7.313
 4404POPC   NC357167   0.692  16.323   5.432
 4404POPC   PO457168   0.227  15.774   5.291
 4404POPC   GL157169   0.217  16.042   5.676
 4404POPC   GL257170   0.540  16.014   5.825
 4404POPC   C1A57171   0.147  16.213   6.107
 4404POPC   D2A57172   0.237  16.330   6.536
 4404POPC   C3A57173   0.430  16.044   6.828
 4404POPC   C4A57174   0.324  15.892   7.233
 4404POPC   C1B57175   0.800  15.912   6.205
 4404POPC   C2B57176   1.058  15.934   6.591
 4404POPC   C3B57177   0.935  15.946   7.005
 4404POPC   C4B57178   0.789  15.791   7.398
 4405POPC   NC357179  37.537  36.614   5.324
 4405POPC   PO457180  37.977  37.085   5.403
 4405POPC   GL157181  37.875  36.835   5.773
 4405POPC   GL257182  37.535  36.896   5.748
 4405POPC   C1A57183  37.696  36.928   6.210
 4405POPC   D2A57184  37.732  37.089   6.595
 4405POPC   C3A57185  37.673  36.898   6.975
 4405POPC   C4A57186  37.913  37.168   7.266
 4405POPC   C1B57187  37.263  36.692   6.072
 4405POPC   C2B57188  37.282  36.801   6.510
 4405POPC   C3B57189  37.140  36.694   6.928
 4405POPC   C4B57190  37.233  36.829   7.345
 4406POPC   NC357191  20.458  35.819   5.400
 4406POPC   PO457192  20.904  36.347   5.485
 4406POPC   GL157193  20.839  36.392   5.911
 4406POPC   GL257194  20.544  36.172   5.883
 4406POPC   C1A57195  20.861  36.141   6.289
 4406POPC   D2A57196  20.552  36.050   6.570
 4406POPC   C3A57197  20.525  36.215   6.968
 4406POPC   C4A57198  20.784  36.285   7.310
 4406POPC   C1B57199  20.548  35.773   6.117
 4406POPC   C2B57200  20.314  35.593   6.461
 4406POPC   C3B57201  20.217  35.796   6.852
 4406POPC   C4B57202  20.464  35.778   7.224
 4407POPC   NC357203  32.628   6.487   5.404
 4407POPC   PO457204  32.025   6.813   5.406
 4407POPC   GL157205  32.183   6.595   5.785
 4407POPC   GL257206  32.544   6.453   5.905
 4407POPC   C1A57207  32.159   6.593   6.226
 4407POPC   D2A57208  32.439   6.617   6.536
 4407POPC   C3A57209  32.227   6.577   6.888
 4407POPC   C4A57210  32.464   6.553   7.231
 4407POPC   C1B57211  32.559   6.897   6.092
 4407POPC   C2B57212  32.431   7.120   6.500
 4407POPC   C3B57213  32.551   6.994   6.954
 4407POPC   C4B57214  32.578   7.013   7.420
 4408POPC   NC357215  34.051   1.441   5.302
 4408POPC   PO457216  33.473   1.125   5.495
 4408POPC   GL157217  33.862   1.247   5.750
 4408POPC   GL257218  34.053   0.948   5.810
 4408POPC   C1A57219  34.036   1.271   6.200
 4408POPC   D2A57220  33.771   1.275   6.556
 4408POPC   C3A57221  33.959   1.257   6.970
 4408POPC   C4A57222  33.638   1.333   7.346
 4408POPC   C1B57223  33.709   0.879   6.133
 4408POPC   C2B57224  33.557   0.746   6.521
 4408POPC   C3B57225  33.603   0.898   6.931
 4408POPC   C4B57226  33.866   0.881   7.311
 4409POPC   NC357227   3.075   9.418   5.522
 4409POPC   PO457228   2.718   9.985   5.451
 4409POPC   GL157229   2.814   9.886   5.845
 4409POPC   GL257230   2.747   9.509   5.900
 4409POPC   C1A57231   2.992   9.793   6.245
 4409POPC   D2A57232   3.039   9.415   6.489
 4409POPC   C3A57233   3.068   9.597   6.881
 4409POPC   C4A57234   2.816   9.942   6.985
 4409POPC   C1B57235   2.459   9.359   6.237
 4409POPC   C2B57236   2.486   9.312   6.692
 4409POPC   C3B57237   2.623   9.489   7.087
 4409POPC   C4B57238   2.486   9.364   7.504
 4410POPC   NC357239  34.698  42.004   5.468
 4410POPC   PO457240  34.672  41.338   5.380
 4410POPC   GL157241  34.416  41.610   5.716
 4410POPC   GL257242  34.495  41.931   5.913
 4410POPC   C1A57243  34.276  41.554   6.146
 4410POPC   D2A57244  34.570  41.537   6.498
 4410POPC   C3A57245  34.413  41.383   6.895
 4410POPC   C4A57246  34.476  41.564   7.339
 4410POPC   C1B57247  34.862  41.873   6.173
 4410POPC   C2B57248  34.916  41.948   6.602
 4410POPC   C3B57249  34.583  41.883   6.901
 4410POPC   C4B57250  34.863  41.867   7.227
 4411POPC   NC357251  13.657  33.231   5.388
 4411POPC   PO457252  13.756  32.672   5.245
 4411POPC   GL157253  13.587  32.722   5.707
 4411POPC   GL257254  13.607  33.058   5.864
 4411POPC   C1A57255  13.491  32.679   6.167
 4411POPC   D2A57256  13.460  32.986   6.501
 4411POPC   C3A57257  13.595  32.898   6.879
 4411POPC   C4A57258  13.725  32.846   7.278
 4411POPC   C1B57259  13.818  33.267   6.223
 4411POPC   C2B57260  13.876  33.278   6.669
 4411POPC   C3B57261  13.557  33.392   6.985
 4411POPC   C4B57262  13.564  33.324   7.434
 4412POPC   NC357263   4.221   5.500   5.554
 4412POPC   PO457264   4.531   6.149   5.510
 4412POPC   GL157265   4.335   5.952   5.827
 4412POPC   GL257266   4.621   5.719   5.849
 4412POPC   C1A57267   4.120   6.043   6.234
 4412POPC   D2A57268   4.340   6.190   6.610
 4412POPC   C3A57269   4.172   6.087   7.046
 4412POPC   C4A57270   4.070   6.173   7.517
 4412POPC   C1B57271   4.614   5.876   6.262
 4412POPC   C2B57272   4.538   5.702   6.680
 4412POPC   C3B57273   4.591   5.807   7.130
 4412POPC   C4B57274   4.456   5.822   7.568
 4413POPC   NC357275  23.884   4.558   5.471
 4413POPC   PO457276  23.379   4.172   5.374
 4413POPC   GL157277  23.480   4.075   5.821
 4413POPC   GL257278  23.539   4.425   5.843
 4413POPC   C1A57279  23.774   3.883   6.179
 4413POPC   D2A57280  23.958   4.100   6.516
 4413POPC   C3A57281  23.693   4.162   6.847
 4413POPC   C4A57282  23.850   4.093   7.245
 4413POPC   C1B57283  23.568   4.345   6.271
 4413POPC   C2B57284  23.416   4.562   6.616
 4413POPC   C3B57285  23.329   4.487   7.030
 4413POPC   C4B57286  23.549   4.502   7.412
 4414POPC   NC357287  19.107  17.722   5.466
 4414POPC   PO457288  18.644  17.305   5.272
 4414POPC   GL157289  18.970  17.320   5.718
 4414POPC   GL257290  19.296  17.372   5.848
 4414POPC   C1A57291  18.988  17.306   6.224
 4414POPC   D2A57292  19.182  17.031   6.589
 4414POPC   C3A57293  19.043  17.229   6.993
 4414POPC   C4A57294  18.699  17.545   6.955
 4414POPC   C1B57295  19.311  17.722   6.171
 4414POPC   C2B57296  19.136  17.804   6.603
 4414POPC   C3B57297  19.246  17.723   7.032
 4414POPC   C4B57298  19.455  17.789   7.415
 4415POPC   NC357299  19.639  34.301   5.293
 4415POPC   PO457300  20.021  34.849   5.410
 4415POPC   GL157301  19.895  34.525   5.717
 4415POPC   GL257302  19.534  34.605   5.704
 4415POPC   C1A57303  20.076  34.479   6.153
 4415POPC   D2A57304  19.986  34.794   6.477
 4415POPC   C3A57305  20.027  34.748   6.926
 4415POPC   C4A57306  20.002  34.416   7.256
 4415POPC   C1B57307  19.609  34.656   6.139
 4415POPC   C2B57308  19.604  34.411   6.507
 4415POPC   C3B57309  19.586  34.504   6.963
 4415POPC   C4B57310  19.562  34.725   7.391
 4416POPC   NC357311  33.384  21.612   5.070
 4416POPC   PO457312  33.965  21.441   5.400
 4416POPC   GL157313  33.809  21.404   5.796
 4416POPC   GL257314  34.136  21.453   5.909
 4416POPC   C1A57315  33.631  21.546   6.177
 4416POPC   D2A57316  33.842  21.716   6.546
 4416POPC   C3A57317  33.591  21.571   6.877
 4416POPC   C4A57318  33.546  21.410   7.281
 4416POPC   C1B57319  34.011  21.200   6.263
 4416POPC   C2B57320  34.068  21.284   6.681
 4416POPC   C3B57321  34.054  21.371   7.108
 4416POPC   C4B57322  34.289  21.113   7.396
 4417POPC   NC357323  23.543   2.397   5.451
 4417POPC   PO457324  23.890   2.860   5.047
 4417POPC   GL157325  23.913   2.756   5.547
 4417POPC   GL257326  24.005   2.412   5.739
 4417POPC   C1A57327  23.792   2.762   6.028
 4417POPC   D2A57328  23.882   2.769   6.472
 4417POPC   C3A57329  23.550   2.747   6.786
 4417POPC   C4A57330  23.544   2.638   7.231
 4417POPC   C1B57331  24.109   2.369   6.224
 4417POPC   C2B57332  24.114   2.370   6.730
 4417POPC   C3B57333  24.048   2.722   7.029
 4417POPC   C4B57334  24.026   2.751   7.492
 4418POPC   NC357335  12.576  40.933   5.114
 4418POPC   PO457336  13.134  40.766   5.378
 4418POPC   GL157337  12.927  40.894   5.714
 4418POPC   GL257338  12.577  40.825   5.685
 4418POPC   C1A57339  12.835  41.018   6.100
 4418POPC   D2A57340  12.910  40.784   6.438
 4418POPC   C3A57341  12.909  40.771   6.886
 4418POPC   C4A57342  12.770  40.806   7.349
 4418POPC   C1B57343  12.578  40.562   6.107
 4418POPC   C2B57344  12.501  40.553   6.604
 4418POPC   C3B57345  12.623  40.390   7.048
 4418POPC   C4B57346  12.471  40.395   7.503
 4419POPC   NC357347  44.838   3.284   5.355
 4419POPC   PO457348  44.339   3.692   5.283
 4419POPC   GL157349  44.651   3.634   5.692
 4419POPC   GL257350  44.606   3.270   5.818
 4419POPC   C1A57351   0.004   3.616   6.082
 4419POPC   D2A57352   0.191   3.681   6.525
 4419POPC   C3A57353  44.992   3.528   6.924
 4419POPC   C4A57354  44.611   3.651   7.159
 4419POPC   C1B57355  44.523   3.538   6.179
 4419POPC   C2B57356  44.503   3.685   6.614
 4419POPC   C3B57357  44.182   3.539   6.897
 4419POPC   C4B57358  44.167   3.441   7.333
 4420POPC   NC357359  42.083  20.038   5.662
 4420POPC   PO457360  42.505  19.624   5.552
 4420POPC   GL157361  42.462  19.819   5.905
 4420POPC   GL257362  42.653  20.085   5.857
 4420POPC   C1A57363  42.311  19.948   6.283
 4420POPC   D2A57364  42.056  19.724   6.552
 4420POPC   C3A57365  42.261  19.590   6.913
 4420POPC   C4A57366  41.975  19.747   7.233
 4420POPC   C1B57367  42.777  20.189   6.264
 4420POPC   C2B57368  42.587  20.331   6.681
 4420POPC   C3B57369  42.378  20.084   7.031
 4420POPC   C4B57370  42.464  19.770   7.385
 4421POPC   NC357371  41.272  28.205   5.456
 4421POPC   PO457372  41.695  28.750   5.368
 4421POPC   GL157373  41.603  28.556   5.773
 4421POPC   GL257374  41.740  28.234   5.679
 4421POPC   C1A57375  41.487  28.427   6.221
 4421POPC   D2A57376  41.635  28.580   6.644
 4421POPC   C3A57377  41.421  28.397   6.996
 4421POPC   C4A57378  41.153  28.002   7.034
 4421POPC   C1B57379  41.806  28.046   6.067
 4421POPC   C2B57380  41.925  28.119   6.485
 4421POPC   C3B57381  41.851  28.107   6.911
 4421POPC   C4B57382  41.775  28.203   7.333
 4422POPC   NC357383  26.565  12.925   5.472
 4422POPC   PO457384  27.172  12.687   5.370
 4422POPC   GL157385  26.895  12.699   5.787
 4422POPC   GL257386  26.521  12.526   5.796
 4422POPC   C1A57387  26.674  12.918   6.145
 4422POPC   D2A57388  26.774  13.222   6.463
 4422POPC   C3A57389  26.682  13.060   6.857
 4422POPC   C4A57390  26.812  12.812   7.162
 4422POPC   C1B57391  26.287  12.595   6.217
 4422POPC   C2B57392  26.283  12.908   6.587
 4422POPC   C3B57393  26.296  12.734   7.047
 4422POPC   C4B57394  26.490  12.609   7.479
 4423POPC   NC357395  40.138  27.922   5.680
 4423POPC   PO457396  39.969  28.516   5.366
 4423POPC   GL157397  40.156  28.503   5.792
 4423POPC   GL257398  40.199  28.252   6.050
 4423POPC   C1A57399  40.166  28.729   6.182
 4423POPC   D2A57400  39.952  28.562   6.562
 4423POPC   C3A57401  40.136  28.379   6.939
 4423POPC   C4A57402  40.441  28.480   7.255
 4423POPC   C1B57403  40.011  28.031   6.389
 4423POPC   C2B57404  39.710  28.096   6.712
 4423POPC   C3B57405  39.658  27.953   7.123
 4423POPC   C4B57406  39.879  28.090   7.473
 4424POPC   NC357407  14.134  40.508   5.411
 4424POPC   PO457408  14.019  41.097   5.135
 4424POPC   GL157409  14.148  40.985   5.634
 4424POPC   GL257410  14.444  40.733   5.759
 4424POPC   C1A57411  14.142  40.873   6.136
 4424POPC   D2A57412  14.201  40.509   6.456
 4424POPC   C3A57413  14.243  40.609   6.887
 4424POPC   C4A57414  14.282  41.064   7.012
 4424POPC   C1B57415  14.624  40.700   6.208
 4424POPC   C2B57416  14.704  40.682   6.674
 4424POPC   C3B57417  14.685  40.711   7.142
 4424POPC   C4B57418  14.690  40.710   7.592
 4425POPC   NC357419   0.827   2.586   5.502
 4425POPC   PO457420   1.265   3.137   5.488
 4425POPC   GL157421   1.170   2.834   5.809
 4425POPC   GL257422   1.434   2.568   5.898
 4425POPC   C1A57423   1.048   2.643   6.199
 4425POPC   D2A57424   0.996   2.598   6.616
 4425POPC   C3A57425   0.908   2.969   6.756
 4425POPC   C4A57426   1.008   3.024   7.148
 4425POPC   C1B57427   1.529   2.889   6.169
 4425POPC   C2B57428   1.373   3.065   6.527
 4425POPC   C3B57429   1.512   3.028   6.942
 4425POPC   C4B57430   1.434   2.819   7.328
 4426POPC   NC357431  21.088   1.162   5.257
 4426POPC   PO457432  20.416   1.116   5.351
 4426POPC   GL157433  20.522   1.178   5.769
 4426POPC   GL257434  20.662   1.462   5.843
 4426POPC   C1A57435  20.605   1.194   6.265
 4426POPC   D2A57436  20.524   1.064   6.693
 4426POPC   C3A57437  20.751   1.265   7.046
 4426POPC   C4A57438  20.872   1.490   7.402
 4426POPC   C1B57439  20.262   1.494   6.056
 4426POPC   C2B57440  20.229   1.524   6.483
 4426POPC   C3B57441  20.362   1.563   6.900
 4426POPC   C4B57442  20.379   1.764   7.281
 4427POPC   NC357443   8.491  16.809   5.131
 4427POPC   PO457444   8.061  16.415   5.390
 4427POPC   GL157445   8.091  16.507   5.844
 4427POPC   GL257446   8.309  16.791   5.912
 4427POPC   C1A57447   8.060  16.569   6.322
 4427POPC   D2A57448   8.289  16.660   6.715
 4427POPC   C3A57449   8.138  16.651   7.147
 4427POPC   C4A57450   8.038  16.515   7.570
 4427POPC   C1B57451   8.378  17.004   6.334
 4427POPC   C2B57452   8.234  17.174   6.744
 4427POPC   C3B57453   8.463  17.048   7.117
 4427POPC   C4B57454   8.701  17.159   7.485
 4428POPC   NC357455  11.439  30.355   5.484
 4428POPC   PO457456  11.129  30.970   5.459
 4428POPC   GL157457  11.289  30.983   5.853
 4428POPC   GL257458  11.285  30.617   5.929
 4428POPC   C1A57459  11.422  30.973   6.282
 4428POPC   D2A57460  11.684  30.741   6.572
 4428POPC   C3A57461  11.674  30.867   6.997
 4428POPC   C4A57462  11.337  30.795   7.252
 4428POPC   C1B57463  10.987  30.331   6.130
 4428POPC   C2B57464  10.866  30.110   6.506
 4428POPC   C3B57465  10.955  30.291   6.907
 4428POPC   C4B57466  10.875  30.507   7.294
 4429POPC   NC357467  31.872  35.419   5.305
 4429POPC   PO457468  32.365  35.150   5.576
 4429POPC   GL157469  32.443  35.523   5.790
 4429POPC   GL257470  32.083  35.553   5.838
 4429POPC   C1A57471  32.649  35.504   6.189
 4429POPC   D2A57472  32.526  35.265   6.585
 4429POPC   C3A57473  32.369  35.498   6.955
 4429POPC   C4A57474  32.008  35.553   7.244
 4429POPC   C1B57475  32.141  35.511   6.296
 4429POPC   C2B57476  31.919  35.474   6.705
 4429POPC   C3B57477  31.855  35.134   6.997
 4429POPC   C4B57478  31.585  34.954   7.319
 4430POPC   NC357479  16.344  26.362   5.369
 4430POPC   PO457480  16.965  26.186   5.567
 4430POPC   GL157481  16.563  26.181   5.784
 4430POPC   GL257482  16.413  25.836   5.679
 4430POPC   C1A57483  16.404  26.392   6.173
 4430POPC   D2A57484  16.287  26.463   6.608
 4430POPC   C3A57485  16.569  26.257   6.917
 4430POPC   C4A57486  16.918  26.129   7.149
 4430POPC   C1B57487  16.595  25.840   6.134
 4430POPC   C2B57488  16.736  25.809   6.572
 4430POPC   C3B57489  16.876  25.597   6.933
 4430POPC   C4B57490  16.737  25.670   7.344
 4431POPC   NC357491   4.611   4.880   5.411
 4431POPC   PO457492   4.038   5.085   5.493
 4431POPC   GL157493   4.234   4.890   5.811
 4431POPC   GL257494   4.476   5.144   5.832
 4431POPC   C1A57495   4.316   4.914   6.249
 4431POPC   D2A57496   4.216   5.230   6.528
 4431POPC   C3A57497   4.303   5.058   6.891
 4431POPC   C4A57498   4.172   4.894   7.230
 4431POPC   C1B57499   4.598   5.353   6.205
 4431POPC   C2B57500   4.728   5.197   6.604
 4431POPC   C3B57501   4.720   5.337   6.998
 4431POPC   C4B57502   4.411   5.362   7.298
 4432POPC   NC357503   2.673   6.176   5.419
 4432POPC   PO457504   2.866   5.487   5.240
 4432POPC   GL157505   2.942   5.803   5.656
 4432POPC   GL257506   2.615   5.860   5.831
 4432POPC   C1A57507   3.002   6.096   6.069
 4432POPC   D2A57508   3.053   6.264   6.522
 4432POPC   C3A57509   3.167   5.985   6.863
 4432POPC   C4A57510   2.972   5.939   7.278
 4432POPC   C1B57511   2.488   6.242   6.072
 4432POPC   C2B57512   2.483   6.260   6.511
 4432POPC   C3B57513   2.649   6.157   6.912
 4432POPC   C4B57514   2.448   6.147   7.302
 4433POPC   NC357515  21.649  34.822   5.573
 4433POPC   PO457516  20.968  34.906   5.543
 4433POPC   GL157517  21.257  34.711   5.858
 4433POPC   GL257518  21.376  34.371   5.818
 4433POPC   C1A57519  21.465  34.834   6.243
 4433POPC   D2A57520  21.621  34.980   6.635
 4433POPC   C3A57521  21.409  34.951   7.038
 4433POPC   C4A57522  21.177  34.927   7.411
 4433POPC   C1B57523  21.647  34.375   6.188
 4433POPC   C2B57524  21.783  34.502   6.620
 4433POPC   C3B57525  21.560  34.473   7.006
 4433POPC   C4B57526  21.112  34.438   7.131
 4434POPC   NC357527  21.001   7.542   5.627
 4434POPC   PO457528  20.438   7.210   5.496
 4434POPC   GL157529  20.523   7.527   5.849
 4434POPC   GL257530  20.697   7.880   5.818
 4434POPC   C1A57531  20.705   7.338   6.232
 4434POPC   D2A57532  20.808   7.370   6.674
 4434POPC   C3A57533  20.501   7.451   7.028
 4434POPC   C4A57534  20.482   7.386   7.500
 4434POPC   C1B57535  20.846   7.819   6.243
 4434POPC   C2B57536  20.805   7.867   6.664
 4434POPC   C3B57537  20.904   7.788   7.062
 4434POPC   C4B57538  20.722   8.013   7.372
 4435POPC   NC357539  31.618   1.578   5.345
 4435POPC   PO457540  31.617   0.968   5.479
 4435POPC   GL157541  31.537   1.059   5.898
 4435POPC   GL257542  31.552   1.403   5.845
 4435POPC   C1A57543  31.330   1.214   6.286
 4435POPC   D2A57544  31.457   1.444   6.680
 4435POPC   C3A57545  31.446   1.256   7.118
 4435POPC   C4A57546  31.312   1.177   7.561
 4435POPC   C1B57547  31.828   1.377   6.226
 4435POPC   C2B57548  31.935   1.652   6.589
 4435POPC   C3B57549  31.841   1.596   7.016
 4435POPC   C4B57550  31.677   1.739   7.405
 4436POPC   NC357551  20.062   7.504   5.569
 4436POPC   PO457552  19.746   7.068   5.209
 4436POPC   GL157553  19.637   7.173   5.635
 4436POPC   GL257554  19.935   7.057   5.791
 4436POPC   C1A57555  19.616   7.417   6.051
 4436POPC   D2A57556  19.882   7.418   6.430
 4436POPC   C3A57557  19.798   7.413   6.851
 4436POPC   C4A57558  19.594   7.292   7.218
 4436POPC   C1B57559  20.206   7.213   6.120
 4436POPC   C2B57560  20.335   7.192   6.550
 4436POPC   C3B57561  20.213   7.021   6.902
 4436POPC   C4B57562  20.076   7.220   7.269
 4437POPC   NC357563   4.488  44.878   5.429
 4437POPC   PO457564   4.229  44.231   5.514
 4437POPC   GL157565   4.279  44.388   5.932
 4437POPC   GL257566   4.352  44.739   5.880
 4437POPC   C1A57567   4.326  44.349   6.396
 4437POPC   D2A57568   4.462  44.526   6.765
 4437POPC   C3A57569   4.296  44.951   6.739
 4437POPC   C4A57570   4.057   0.179   7.075
 4437POPC   C1B57571   4.656  44.652   6.154
 4437POPC   C2B57572   4.772  44.843   6.490
 4437POPC   C3B57573   4.811  44.882   6.881
 4437POPC   C4B57574   4.525  44.875   7.193
 4438POPC   NC357575  40.999  15.008   5.300
 4438POPC   PO457576  40.446  15.345   5.370
 4438POPC   GL157577  40.665  15.259   5.813
 4438POPC   GL257578  41.049  15.215   5.797
 4438POPC   C1A57579  40.748  15.230   6.296
 4438POPC   D2A57580  40.584  14.996   6.713
 4438POPC   C3A57581  40.775  15.021   7.141
 4438POPC   C4A57582  40.741  15.436   7.215
 4438POPC   C1B57583  41.050  14.845   6.083
 4438POPC   C2B57584  41.032  14.869   6.532
 4438POPC   C3B57585  41.079  15.217   6.809
 4438POPC   C4B57586  41.298  15.016   7.149
 4439POPC   NC357587   4.137  23.615   5.477
 4439POPC   PO457588   4.596  23.460   5.092
 4439POPC   GL157589   4.583  23.768   5.637
 4439POPC   GL257590   4.317  23.665   5.938
 4439POPC   C1A57591   4.717  23.941   6.066
 4439POPC   D2A57592   4.582  23.818   6.490
 4439POPC   C3A57593   4.317  24.053   6.782
 4439POPC   C4A57594   4.419  23.873   7.174
 4439POPC   C1B57595   4.458  23.370   6.264
 4439POPC   C2B57596   4.340  23.281   6.697
 4439POPC   C3B57597   4.295  23.376   7.150
 4439POPC   C4B57598   4.171  23.493   7.570
 4440POPC   NC357599  38.914   3.137   5.528
 4440POPC   PO457600  39.604   3.194   5.356
 4440POPC   GL157601  39.341   3.426   5.716
 4440POPC   GL257602  39.394   3.209   5.959
 4440POPC   C1A57603  39.128   3.579   6.163
 4440POPC   D2A57604  39.195   3.398   6.609
 4440POPC   C3A57605  38.991   3.559   6.981
 4440POPC   C4A57606  39.164   3.893   7.199
 4440POPC   C1B57607  39.599   3.447   6.285
 4440POPC   C2B57608  39.699   3.583   6.676
 4440POPC   C3B57609  39.507   3.536   7.044
 4440POPC   C4B57610  39.307   3.202   7.242
 4441POPC   NC357611  37.229   3.274   5.448
 4441POPC   PO457612  36.760   2.692   5.466
 4441POPC   GL157613  37.045   2.701   5.781
 4441POPC   GL257614  37.132   2.367   5.864
 4441POPC   C1A57615  36.896   2.739   6.187
 4441POPC   D2A57616  36.655   3.022   6.427
 4441POPC   C3A57617  36.762   2.987   6.842
 4441POPC   C4A57618  36.826   2.940   7.261
 4441POPC   C1B57619  37.393   2.572   6.151
 4441POPC   C2B57620  37.226   2.703   6.577
 4441POPC   C3B57621  37.074   2.569   6.969
 4441POPC   C4B57622  37.303   2.804   7.241
 4442POPC   NC357623   9.215  30.817   5.054
 4442POPC   PO457624   8.778  30.510   5.491
 4442POPC   GL157625   8.705  30.786   5.811
 4442POPC   GL257626   9.036  30.943   5.808
 4442POPC   C1A57627   8.561  30.506   6.156
 4442POPC   D2A57628   8.804  30.420   6.538
 4442POPC   C3A57629   8.746  30.690   6.892
 4442POPC   C4A57630   8.789  30.538   7.307
 4442POPC   C1B57631   8.919  30.846   6.271
 4442POPC   C2B57632   9.210  30.731   6.614
 4442POPC   C3B57633   9.254  30.851   7.034
 4442POPC   C4B57634   9.226  30.721   7.463
 4443POPC   NC357635  21.075   3.563   5.506
 4443POPC   PO457636  20.487   3.779   5.525
 4443POPC   GL157637  20.687   3.520   5.859
 4443POPC   GL257638  20.969   3.639   5.998
 4443POPC   C1A57639  20.587   3.361   6.278
 4443POPC   D2A57640  20.397   3.147   6.610
 4443POPC   C3A57641  20.341   3.360   6.968
 4443POPC   C4A57642  20.455   3.226   7.369
 4443POPC   C1B57643  20.802   3.835   6.355
 4443POPC   C2B57644  20.633   3.715   6.735
 4443POPC   C3B57645  20.782   3.586   7.145
 4443POPC   C4B57646  20.753   3.860   7.498
 4444POPC   NC357647  41.910  18.164   5.023
 4444POPC   PO457648  42.319  18.379   5.523
 4444POPC   GL157649  42.356  18.258   5.904
 4444POPC   GL257650  42.683  18.416   5.967
 4444POPC   C1A57651  42.094  18.225   6.267
 4444POPC   D2A57652  42.135  18.139   6.708
 4444POPC   C3A57653  42.075  18.482   7.033
 4444POPC   C4A57654  42.299  18.600   7.409
 4444POPC   C1B57655  42.602  18.140   6.333
 4444POPC   C2B57656  42.647  18.022   6.744
 4444POPC   C3B57657  42.535  18.258   7.096
 4444POPC   C4B57658  42.783  18.466   7.482
 4445POPC   NC357659  27.946   6.117   5.524
 4445POPC   PO457660  27.645   5.533   5.455
 4445POPC   GL157661  27.559   5.823   5.777
 4445POPC   GL257662  27.356   6.116   5.660
 4445POPC   C1A57663  27.407   5.707   6.180
 4445POPC   D2A57664  27.310   5.460   6.544
 4445POPC   C3A57665  27.530   5.697   6.827
 4445POPC   C4A57666  27.518   5.742   7.245
 4445POPC   C1B57667  27.445   6.218   6.104
 4445POPC   C2B57668  27.518   6.233   6.560
 4445POPC   C3B57669  27.399   6.189   7.023
 4445POPC   C4B57670  27.529   6.191   7.517
 4446POPC   NC357671  36.350  12.638   5.487
 4446POPC   PO457672  35.834  13.055   5.340
 4446POPC   GL157673  36.010  13.176   5.737
 4446POPC   GL257674  36.013  12.830   5.820
 4446POPC   C1A57675  36.242  13.216   6.142
 4446POPC   D2A57676  36.350  13.047   6.557
 4446POPC   C3A57677  36.077  13.147   6.895
 4446POPC   C4A57678  36.200  13.065   7.283
 4446POPC   C1B57679  36.130  12.697   6.232
 4446POPC   C2B57680  35.877  12.755   6.598
 4446POPC   C3B57681  35.930  12.673   7.028
 4446POPC   C4B57682  35.749  12.867   7.340
 4447POPC   NC357683  31.035   7.940   5.569
 4447POPC   PO457684  30.821   7.562   5.118
 4447POPC   GL157685  30.688   7.533   5.602
 4447POPC   GL257686  30.987   7.499   5.829
 4447POPC   C1A57687  30.407   7.333   5.969
 4447POPC   D2A57688  30.362   7.162   6.427
 4447POPC   C3A57689  30.464   7.352   6.848
 4447POPC   C4A57690  30.605   7.235   7.270
 4447POPC   C1B57691  30.722   7.689   6.167
 4447POPC   C2B57692  30.744   7.733   6.630
 4447POPC   C3B57693  30.838   7.700   7.101
 4447POPC   C4B57694  30.853   7.823   7.584
 4448POPC   NC357695   8.575  27.521   5.356
 4448POPC   PO457696   7.889  27.741   5.372
 4448POPC   GL157697   8.176  27.553   5.698
 4448POPC   GL257698   8.366  27.847   5.768
 4448POPC   C1A57699   8.098  27.453   6.151
 4448POPC   D2A57700   8.025  27.709   6.542
 4448POPC   C3A57701   8.087  27.482   6.954
 4448POPC   C4A57702   8.280  27.123   7.140
 4448POPC   C1B57703   8.406  27.856   6.229
 4448POPC   C2B57704   8.512  27.702   6.683
 4448POPC   C3B57705   8.539  27.690   7.149
 4448POPC   C4B57706   8.534  28.029   7.463
 4449POPC   NC357707  22.703   2.081   5.242
 4449POPC   PO457708  23.390   1.978   5.256
 4449POPC   GL157709  23.111   1.969   5.611
 4449POPC   GL257710  22.778   1.780   5.670
 4449POPC   C1A57711  23.140   1.905   6.057
 4449POPC   D2A57712  23.015   1.802   6.478
 4449POPC   C3A57713  22.972   2.179   6.733
 4449POPC   C4A57714  23.010   2.180   7.172
 4449POPC   C1B57715  22.588   1.801   6.113
 4449POPC   C2B57716  22.509   1.933   6.565
 4449POPC   C3B57717  22.732   1.787   6.940
 4449POPC   C4B57718  22.615   1.746   7.374
 4450POPC   NC357719  34.418   8.729   5.396
 4450POPC   PO457720  35.092   8.893   5.410
 4450POPC   GL157721  34.794   8.970   5.772
 4450POPC   GL257722  34.453   9.156   5.749
 4450POPC   C1A57723  34.627   8.949   6.200
 4450POPC   D2A57724  34.634   9.185   6.585
 4450POPC   C3A57725  34.701   8.942   6.958
 4450POPC   C4A57726  34.381   8.718   7.158
 4450POPC   C1B57727  34.138   9.111   6.100
 4450POPC   C2B57728  34.115   9.220   6.564
 4450POPC   C3B57729  34.291   9.278   7.013
 4450POPC   C4B57730  34.192   9.514   7.412
 4451POPC   NC357731  13.912  25.005   5.215
 4451POPC   PO457732  13.352  24.840   5.652
 4451POPC   GL157733  13.509  25.195   5.873
 4451POPC   GL257734  13.763  25.328   5.607
 4451POPC   C1A57735  13.311  25.415   6.221
 4451POPC   D2A57736  13.433  25.555   6.624
 4451POPC   C3A57737  13.400  25.289   6.984
 4451POPC   C4A57738  13.684  25.391   7.340
 4451POPC   C1B57739  13.990  25.200   5.990
 4451POPC   C2B57740  13.891  25.286   6.425
 4451POPC   C3B57741  13.897  25.298   6.875
 4451POPC   C4B57742  13.966  24.960   7.178
 4452POPC   NC357743  21.790  15.768   5.196
 4452POPC   PO457744  22.260  16.128   5.537
 4452POPC   GL157745  22.173  15.897   5.866
 4452POPC   GL257746  21.916  16.103   5.996
 4452POPC   C1A57747  22.290  15.848   6.285
 4452POPC   D2A57748  22.102  15.781   6.659
 4452POPC   C3A57749  22.233  15.937   7.034
 4452POPC   C4A57750  22.184  16.007   7.465
 4452POPC   C1B57751  21.695  15.892   6.338
 4452POPC   C2B57752  21.623  15.895   6.794
 4452POPC   C3B57753  21.774  15.775   7.222
 4452POPC   C4B57754  21.670  15.552   7.632
 4453POPC   NC357755  10.198  24.116   5.634
 4453POPC   PO457756  10.652  24.540   5.340
 4453POPC   GL157757  10.513  24.521   5.799
 4453POPC   GL257758  10.213  24.644   5.712
 4453POPC   C1A57759  10.366  24.503   6.285
 4453POPC   D2A57760  10.310  24.260   6.705
 4453POPC   C3A57761  10.473  24.419   7.126
 4453POPC   C4A57762  10.330  24.400   7.601
 4453POPC   C1B57763  10.273  24.954   6.055
 4453POPC   C2B57764  10.458  24.988   6.463
 4453POPC   C3B57765  10.414  24.894   6.901
 4453POPC   C4B57766  10.383  24.850   7.365
 4454POPC   NC357767   8.404   9.750   5.478
 4454POPC   PO457768   7.797  10.095   5.495
 4454POPC   GL157769   7.915   9.638   5.670
 4454POPC   GL257770   8.099   9.808   5.870
 4454POPC   C1A57771   8.006   9.386   6.107
 4454POPC   D2A57772   8.368   9.456   6.423
 4454POPC   C3A57773   8.326   9.577   6.883
 4454POPC   C4A57774   8.461   9.539   7.317
 4454POPC   C1B57775   8.131   9.906   6.264
 4454POPC   C2B57776   7.947   9.725   6.580
 4454POPC   C3B57777   7.928   9.927   6.981
 4454POPC   C4B57778   8.196   9.973   7.338
 4455POPC   NC357779  15.699   4.742   5.076
 4455POPC   PO457780  16.056   5.245   5.347
 4455POPC   GL157781  16.015   5.155   5.764
 4455POPC   GL257782  16.114   4.871   5.834
 4455POPC   C1A57783  15.900   5.309   6.171
 4455POPC   D2A57784  15.672   5.317   6.545
 4455POPC   C3A57785  15.849   5.147   6.912
 4455POPC   C4A57786  15.658   5.065   7.326
 4455POPC   C1B57787  15.876   4.802   6.221
 4455POPC   C2B57788  15.736   4.707   6.634
 4455POPC   C3B57789  15.917   4.653   7.053
 4455POPC   C4B57790  16.192   4.948   7.262
 4456POPC   NC357791   0.043  14.120   5.454
 4456POPC   PO457792  44.359  14.131   5.414
 4456POPC   GL157793  44.629  14.256   5.762
 4456POPC   GL257794  44.806  14.584   5.781
 4456POPC   C1A57795  44.642  14.232   6.200
 4456POPC   D2A57796  44.685  14.447   6.605
 4456POPC   C3A57797  44.754  14.226   7.027
 4456POPC   C4A57798  44.841  14.075   7.471
 4456POPC   C1B57799  44.595  14.761   6.150
 4456POPC   C2B57800  44.322  14.842   6.531
 4456POPC   C3B57801  44.374  14.929   6.998
 4456POPC   C4B57802  44.498  14.643   7.338
 4457POPC   NC357803  28.509  38.897   5.365
 4457POPC   PO457804  28.115  38.320   5.369
 4457POPC   GL157805  28.317  38.517   5.696
 4457POPC   GL257806  28.127  38.772   5.788
 4457POPC   C1A57807  28.434  38.464   6.126
 4457POPC   D2A57808  28.355  38.605   6.537
 4457POPC   C3A57809  28.527  38.408   6.934
 4457POPC   C4A57810  28.787  38.279   7.289
 4457POPC   C1B57811  28.144  38.940   6.187
 4457POPC   C2B57812  27.954  38.902   6.587
 4457POPC   C3B57813  27.954  38.600   6.907
 4457POPC   C4B57814  28.172  38.608   7.298
 4458POPC   NC357815   0.614   4.926   5.433
 4458POPC   PO457816   0.030   5.305   5.305
 4458POPC   GL157817   0.299   5.227   5.714
 4458POPC   GL257818   0.454   4.913   5.894
 4458POPC   C1A57819   0.462   5.334   6.146
 4458POPC   D2A57820   0.401   5.186   6.547
 4458POPC   C3A57821   0.635   5.333   6.881
 4458POPC   C4A57822   0.500   5.452   7.281
 4458POPC   C1B57823   0.222   4.818   6.232
 4458POPC   C2B57824   0.304   4.667   6.629
 4458POPC   C3B57825   0.372   4.623   7.029
 4458POPC   C4B57826   0.540   4.957   7.222
 4459POPC   NC357827  36.574  38.865   5.592
 4459POPC   PO457828  37.043  38.620   5.165
 4459POPC   GL157829  36.985  38.535   5.652
 4459POPC   GL257830  36.820  38.223   5.797
 4459POPC   C1A57831  36.922  38.644   6.099
 4459POPC   D2A57832  37.063  38.598   6.515
 4459POPC   C3A57833  36.807  38.575   6.864
 4459POPC   C4A57834  37.060  38.600   7.222
 4459POPC   C1B57835  36.556  38.245   6.169
 4459POPC   C2B57836  36.378  38.437   6.536
 4459POPC   C3B57837  36.359  38.253   6.947
 4459POPC   C4B57838  36.678  38.199   7.248
 4460POPC   NC357839  16.770  19.067   5.223
 4460POPC   PO457840  16.320  18.776   5.338
 4460POPC   GL157841  16.524  18.984   5.736
 4460POPC   GL257842  16.903  19.030   5.826
 4460POPC   C1A57843  16.553  19.170   6.191
 4460POPC   D2A57844  16.711  19.275   6.619
 4460POPC   C3A57845  16.745  18.903   6.893
 4460POPC   C4A57846  16.753  18.917   7.354
 4460POPC   C1B57847  17.033  18.979   6.303
 4460POPC   C2B57848  17.176  19.123   6.739
 4460POPC   C3B57849  16.958  19.391   7.088
 4460POPC   C4B57850  17.006  19.737   7.423
 4461POPC   NC357851  27.405  27.838   5.678
 4461POPC   PO457852  28.001  28.066   5.430
 4461POPC   GL157853  27.820  28.196   5.862
 4461POPC   GL257854  27.580  28.504   5.891
 4461POPC   C1A57855  27.554  28.094   6.255
 4461POPC   D2A57856  27.388  28.042   6.683
 4461POPC   C3A57857  27.732  28.216   6.954
 4461POPC   C4A57858  27.902  28.578   7.175
 4461POPC   C1B57859  27.290  28.525   6.273
 4461POPC   C2B57860  27.448  28.547   6.669
 4461POPC   C3B57861  27.424  28.700   7.056
 4461POPC   C4B57862  27.423  28.497   7.421
 4462POPC   NC357863  18.397  32.275   5.375
 4462POPC   PO457864  18.453  32.956   5.374
 4462POPC   GL157865  18.200  32.683   5.656
 4462POPC   GL257866  18.449  32.782   5.884
 4462POPC   C1A57867  18.194  32.352   6.025
 4462POPC   D2A57868  18.454  32.218   6.401
 4462POPC   C3A57869  18.369  32.118   6.842
 4462POPC   C4A57870  18.206  32.168   7.265
 4462POPC   C1B57871  18.646  32.674   6.269
 4462POPC   C2B57872  18.544  32.625   6.699
 4462POPC   C3B57873  18.519  32.576   7.101
 4462POPC   C4B57874  18.731  32.369   7.418
 4463POPC   NC357875  38.721  11.023   5.693
 4463POPC   PO457876  39.358  11.055   5.483
 4463POPC   GL157877  39.262  11.283   5.837
 4463POPC   GL257878  39.032  11.490   5.712
 4463POPC   C1A57879  39.182  11.249   6.254
 4463POPC   D2A57880  38.980  11.079   6.585
 4463POPC   C3A57881  39.220  10.961   6.932
 4463POPC   C4A57882  39.050  11.133   7.300
 4463POPC   C1B57883  38.967  11.692   6.090
 4463POPC   C2B57884  38.892  11.636   6.533
 4463POPC   C3B57885  38.948  11.462   6.912
 4463POPC   C4B57886  39.048  11.689   7.266
 4464POPC   NC357887  30.287   9.539   5.513
 4464POPC   PO457888  30.886   9.846   5.394
 4464POPC   GL157889  30.999   9.706   5.808
 4464POPC   GL257890  30.655   9.712   5.858
 4464POPC   C1A57891  31.013   9.781   6.270
 4464POPC   D2A57892  30.896   9.621   6.702
 4464POPC   C3A57893  31.021   9.841   7.110
 4464POPC   C4A57894  31.022  10.142   7.485
 4464POPC   C1B57895  30.526   9.577   6.246
 4464POPC   C2B57896  30.370   9.430   6.615
 4464POPC   C3B57897  30.480   9.549   7.007
 4464POPC   C4B57898  30.322   9.377   7.367
 4465POPC   NC357899   8.707  40.709   5.450
 4465POPC   PO457900   9.437  40.906   5.404
 4465POPC   GL157901   9.128  40.899   5.678
 4465POPC   GL257902   9.228  40.620   5.821
 4465POPC   C1A57903   8.916  40.893   6.086
 4465POPC   D2A57904   9.125  40.765   6.480
 4465POPC   C3A57905   8.955  40.943   6.825
 4465POPC   C4A57906   8.811  40.866   7.237
 4465POPC   C1B57907   8.943  40.410   6.155
 4465POPC   C2B57908   8.829  40.321   6.587
 4465POPC   C3B57909   8.957  40.406   6.997
 4465POPC   C4B57910   8.728  40.389   7.383
 4466POPC   NC357911  25.925  21.151   5.325
 4466POPC   PO457912  26.038  21.783   5.387
 4466POPC   GL157913  25.907  21.482   5.713
 4466POPC   GL257914  26.198  21.259   5.728
 4466POPC   C1A57915  25.824  21.186   6.083
 4466POPC   D2A57916  25.861  21.382   6.497
 4466POPC   C3A57917  26.057  21.277   6.896
 4466POPC   C4A57918  25.899  21.316   7.336
 4466POPC   C1B57919  26.274  21.385   6.133
 4466POPC   C2B57920  26.406  21.263   6.513
 4466POPC   C3B57921  26.601  21.233   6.900
 4466POPC   C4B57922  26.421  21.320   7.286
 4467POPC   NC357923  25.597  22.770   5.189
 4467POPC   PO457924  26.211  22.958   5.267
 4467POPC   GL157925  26.025  22.835   5.731
 4467POPC   GL257926  25.826  22.534   5.814
 4467POPC   C1A57927  26.149  22.691   6.197
 4467POPC   D2A57928  25.984  22.667   6.653
 4467POPC   C3A57929  26.174  22.770   7.101
 4467POPC   C4A57930  26.198  23.088   7.486
 4467POPC   C1B57931  25.611  22.689   6.216
 4467POPC   C2B57932  25.473  22.802   6.645
 4467POPC   C3B57933  25.652  22.825   7.079
 4467POPC   C4B57934  25.700  22.990   7.531
 4468POPC   NC357935  29.081   2.831   5.454
 4468POPC   PO457936  29.315   2.275   5.216
 4468POPC   GL157937  29.223   2.435   5.716
 4468POPC   GL257938  28.924   2.593   5.896
 4468POPC   C1A57939  29.363   2.379   6.164
 4468POPC   D2A57940  29.482   2.610   6.554
 4468POPC   C3A57941  29.234   2.539   6.929
 4468POPC   C4A57942  29.199   2.843   7.262
 4468POPC   C1B57943  29.077   2.855   6.266
 4468POPC   C2B57944  28.900   3.072   6.662
 4468POPC   C3B57945  28.889   3.221   7.108
 4468POPC   C4B57946  28.751   3.009   7.523
 4469POPC   NC357947  17.480  14.749   5.062
 4469POPC   PO457948  17.112  15.132   5.486
 4469POPC   GL157949  17.485  15.030   5.713
 4469POPC   GL257950  17.625  14.724   5.629
 4469POPC   C1A57951  17.640  15.182   6.112
 4469POPC   D2A57952  17.497  15.398   6.480
 4469POPC   C3A57953  17.310  15.167   6.821
 4469POPC   C4A57954  17.062  15.300   7.190
 4469POPC   C1B57955  17.604  14.672   6.094
 4469POPC   C2B57956  17.747  14.794   6.541
 4469POPC   C3B57957  17.631  14.794   7.001
 4469POPC   C4B57958  17.287  14.869   7.284
 4470POPC   NC357959  35.819  24.653   5.528
 4470POPC   PO457960  35.297  24.416   5.194
 4470POPC   GL157961  35.223  24.351   5.675
 4470POPC   GL257962  35.454  24.528   5.899
 4470POPC   C1A57963  35.072  24.234   6.103
 4470POPC   D2A57964  35.207  24.470   6.437
 4470POPC   C3A57965  35.286  24.317   6.827
 4470POPC   C4A57966  35.230  24.361   7.245
 4470POPC   C1B57967  35.699  24.579   6.292
 4470POPC   C2B57968  35.766  24.547   6.699
 4470POPC   C3B57969  35.633  24.640   7.045
 4470POPC   C4B57970  35.537  25.007   7.130
 4471POPC   NC357971  21.928   8.584   5.613
 4471POPC   PO457972  22.546   8.253   5.522
 4471POPC   GL157973  22.343   8.390   5.856
 4471POPC   GL257974  22.214   8.085   6.010
 4471POPC   C1A57975  22.217   8.528   6.259
 4471POPC   D2A57976  22.049   8.310   6.600
 4471POPC   C3A57977  22.331   8.149   6.868
 4471POPC   C4A57978  22.204   8.448   7.189
 4471POPC   C1B57979  21.841   8.022   6.245
 4471POPC   C2B57980  21.817   7.852   6.656
 4471POPC   C3B57981  21.865   8.029   7.057
 4471POPC   C4B57982  22.205   7.971   7.348
 4472POPC   NC357983  30.944  17.890   5.494
 4472POPC   PO457984  30.574  18.377   5.455
 4472POPC   GL157985  30.729  18.223   5.828
 4472POPC   GL257986  30.444  18.002   5.772
 4472POPC   C1A57987  30.795  18.373   6.272
 4472POPC   D2A57988  31.087  18.339   6.614
 4472POPC   C3A57989  30.953  18.175   7.019
 4472POPC   C4A57990  30.740  18.435   7.336
 4472POPC   C1B57991  30.458  18.005   6.191
 4472POPC   C2B57992  30.234  18.016   6.552
 4472POPC   C3B57993  30.471  18.147   6.897
 4472POPC   C4B57994  30.515  17.986   7.296
 4473POPC   NC357995  42.826  15.755   5.504
 4473POPC   PO457996  43.285  16.117   5.117
 4473POPC   GL157997  43.360  16.001   5.600
 4473POPC   GL257998  43.246  15.696   5.797
 4473POPC   C1A57999  43.453  16.064   6.081
 4473POPC   D2A58000  43.295  15.983   6.510
 4473POPC   C3A58001  43.391  16.134   6.932
 4473POPC   C4A58002  43.021  16.080   7.238
 4473POPC   C1B58003  42.958  15.723   6.181
 4473POPC   C2B58004  42.794  15.637   6.628
 4473POPC   C3B58005  42.672  15.746   7.088
 4473POPC   C4B58006  42.716  15.684   7.601
 4474POPC   NC358007  43.922  24.500   5.395
 4474POPC   PO458008  44.243  25.048   5.387
 4474POPC   GL158009  44.239  24.696   5.792
 4474POPC   GL258010  43.956  24.427   5.865
 4474POPC   C1A58011  44.214  24.489   6.258
 4474POPC   D2A58012  44.044  24.250   6.587
 4474POPC   C3A58013  44.115  24.389   7.014
 4474POPC   C4A58014  43.849  24.721   7.149
 4474POPC   C1B58015  43.691  24.118   6.065
 4474POPC   C2B58016  43.530  24.197   6.457
 4474POPC   C3B58017  43.609  24.377   6.832
 4474POPC   C4B58018  43.649  24.118   7.188
 4475POPC   NC358019  25.219  20.597   5.319
 4475POPC   PO458020  25.764  20.286   5.624
 4475POPC   GL158021  25.482  20.518   5.845
 4475POPC   GL258022  25.149  20.467   5.812
 4475POPC   C1A58023  25.375  20.794   6.181
 4475POPC   D2A58024  25.091  20.723   6.541
 4475POPC   C3A58025  25.261  20.785   6.950
 4475POPC   C4A58026  25.467  21.073   7.207
 4475POPC   C1B58027  25.159  20.321   6.213
 4475POPC   C2B58028  25.189  20.188   6.602
 4475POPC   C3B58029  24.962  20.354   6.919
 4475POPC   C4B58030  24.898  20.606   7.271
 4476POPC   NC358031  14.631  24.696   5.604
 4476POPC   PO458032  14.359  25.246   5.296
 4476POPC   GL158033  14.399  25.369   5.751
 4476POPC   GL258034  14.496  25.083   5.913
 4476POPC   C1A58035  14.293  25.545   6.198
 4476POPC   D2A58036  14.128  25.706   6.598
 4476POPC   C3A58037  14.305  25.570   6.987
 4476POPC   C4A58038  14.189  25.393   7.351
 4476POPC   C1B58039  14.368  25.017   6.347
 4476POPC   C2B58040  14.319  24.998   6.796
 4476POPC   C3B58041  14.582  25.121   7.120
 4476POPC   C4B58042  14.848  25.459   7.094
 4477POPC   NC358043  35.800  41.493   5.389
 4477POPC   PO458044  36.471  41.754   5.353
 4477POPC   GL158045  36.191  41.705   5.717
 4477POPC   GL258046  35.831  41.707   5.821
 4477POPC   C1A58047  36.259  41.483   6.114
 4477POPC   D2A58048  36.384  41.305   6.517
 4477POPC   C3A58049  36.189  41.406   6.924
 4477POPC   C4A58050  36.303  41.722   7.190
 4477POPC   C1B58051  35.897  41.840   6.186
 4477POPC   C2B58052  35.999  41.713   6.557
 4477POPC   C3B58053  35.890  41.908   6.919
 4477POPC   C4B58054  35.789  41.687   7.262
 4478POPC   NC358055  43.711   7.092   5.331
 4478POPC   PO458056  44.152   7.614   5.447
 4478POPC   GL158057  44.086   7.555   5.831
 4478POPC   GL258058  44.017   7.217   5.759
 4478POPC   C1A58059  44.074   7.462   6.249
 4478POPC   D2A58060  43.907   7.695   6.581
 4478POPC   C3A58061  43.973   7.488   6.927
 4478POPC   C4A58062  44.070   7.575   7.327
 4478POPC   C1B58063  43.666   7.222   6.028
 4478POPC   C2B58064  43.602   7.298   6.459
 4478POPC   C3B58065  43.524   7.149   6.862
 4478POPC   C4B58066  43.624   7.320   7.257
 4479POPC   NC358067  44.783  13.157   5.409
 4479POPC   PO458068  44.519  12.582   5.398
 4479POPC   GL158069  44.693  12.746   5.822
 4479POPC   GL258070  44.945  13.005   5.860
 4479POPC   C1A58071  44.729  12.876   6.296
 4479POPC   D2A58072  44.379  12.902   6.579
 4479POPC   C3A58073  44.446  12.855   7.015
 4479POPC   C4A58074  44.794  12.660   7.158
 4479POPC   C1B58075  44.745  13.334   6.060
 4479POPC   C2B58076  44.684  13.372   6.505
 4479POPC   C3B58077  44.851  13.123   6.827
 4479POPC   C4B58078  44.799  13.188   7.257
 4480POPC   NC358079  40.034  10.061   5.346
 4480POPC   PO458080  39.607   9.555   5.187
 4480POPC   GL158081  39.934   9.591   5.586
 4480POPC   GL258082  40.048   9.913   5.814
 4480POPC   C1A58083  39.969   9.489   6.058
 4480POPC   D2A58084  40.090   9.670   6.496
 4480POPC   C3A58085  39.808   9.601   6.862
 4480POPC   C4A58086  39.729   9.638   7.317
 4480POPC   C1B58087  39.855  10.047   6.191
 4480POPC   C2B58088  39.789  10.098   6.626
 4480POPC   C3B58089  40.049  10.026   6.986
 4480POPC   C4B58090  39.903  10.176   7.326
 4481POPC   NC358091  32.674  35.981   5.507
 4481POPC   PO458092  33.198  36.369   5.480
 4481POPC   GL158093  33.093  36.333   5.914
 4481POPC   GL258094  32.743  36.316   5.888
 4481POPC   C1A58095  33.090  36.451   6.364
 4481POPC   D2A58096  32.916  36.257   6.723
 4481POPC   C3A58097  33.162  36.151   7.093
 4481POPC   C4A58098  33.339  35.796   7.353
 4481POPC   C1B58099  32.797  36.023   6.241
 4481POPC   C2B58100  32.621  35.801   6.600
 4481POPC   C3B58101  32.744  35.862   7.002
 4481POPC   C4B58102  32.654  36.289   7.173
 4482POPC   NC358103  38.846  21.603   5.441
 4482POPC   PO458104  38.151  21.361   5.433
 4482POPC   GL158105  38.440  21.423   5.708
 4482POPC   GL258106  38.688  21.171   5.693
 4482POPC   C1A58107  38.415  21.405   6.147
 4482POPC   D2A58108  38.181  21.385   6.529
 4482POPC   C3A58109  38.414  21.521   6.880
 4482POPC   C4A58110  38.392  21.334   7.300
 4482POPC   C1B58111  38.845  21.134   6.108
 4482POPC   C2B58112  38.770  21.285   6.536
 4482POPC   C3B58113  38.674  21.078   6.925
 4482POPC   C4B58114  38.851  20.996   7.290
 4483POPC   NC358115  25.835  10.194   5.196
 4483POPC   PO458116  26.055   9.583   5.137
 4483POPC   GL158117  26.131   9.699   5.603
 4483POPC   GL258118  25.822   9.612   5.746
 4483POPC   C1A58119  26.219   9.698   6.102
 4483POPC   D2A58120  26.124   9.817   6.574
 4483POPC   C3A58121  26.241   9.835   7.049
 4483POPC   C4A58122  26.051   9.526   7.352
 4483POPC   C1B58123  25.703   9.817   6.129
 4483POPC   C2B58124  25.614   9.899   6.528
 4483POPC   C3B58125  25.748   9.782   6.923
 4483POPC   C4B58126  25.616   9.813   7.319
 4484POPC   NC358127  20.236  21.726   5.485
 4484POPC   PO458128  19.625  21.683   5.285
 4484POPC   GL158129  19.748  21.581   5.738
 4484POPC   GL258130  20.045  21.436   5.873
 4484POPC   C1A58131  19.535  21.322   6.064
 4484POPC   D2A58132  19.491  21.209   6.520
 4484POPC   C3A58133  19.612  21.545   6.828
 4484POPC   C4A58134  19.554  21.642   7.238
 4484POPC   C1B58135  19.966  21.448   6.298
 4484POPC   C2B58136  19.979  21.258   6.659
 4484POPC   C3B58137  20.160  21.312   7.043
 4484POPC   C4B58138  20.048  21.610   7.341
 4485POPC   NC358139  34.177  29.797   5.257
 4485POPC   PO458140  33.480  29.623   5.396
 4485POPC   GL158141  33.698  29.812   5.744
 4485POPC   GL258142  34.013  30.002   5.695
 4485POPC   C1A58143  33.677  29.703   6.165
 4485POPC   D2A58144  33.480  29.610   6.545
 4485POPC   C3A58145  33.748  29.725   6.871
 4485POPC   C4A58146  34.006  29.632   7.220
 4485POPC   C1B58147  34.030  30.088   6.131
 4485POPC   C2B58148  34.091  29.891   6.536
 4485POPC   C3B58149  34.229  30.012   6.977
 4485POPC   C4B58150  34.103  30.256   7.372
 4486POPC   NC358151  26.508  25.149   5.408
 4486POPC   PO458152  27.072  24.842   5.421
 4486POPC   GL158153  26.910  25.041   5.764
 4486POPC   GL258154  26.911  25.422   5.780
 4486POPC   C1A58155  26.657  25.102   6.133
 4486POPC   D2A58156  26.704  25.436   6.420
 4486POPC   C3A58157  26.677  25.357   6.877
 4486POPC   C4A58158  26.638  25.247   7.307
 4486POPC   C1B58159  27.144  25.292   6.160
 4486POPC   C2B58160  27.054  25.119   6.577
 4486POPC   C3B58161  27.197  25.120   6.999
 4486POPC   C4B58162  27.141  25.281   7.393
 4487POPC   NC358163   3.554  21.583   5.378
 4487POPC   PO458164   3.206  21.048   5.515
 4487POPC   GL158165   3.423  21.222   5.911
 4487POPC   GL258166   3.492  21.555   5.903
 4487POPC   C1A58167   3.471  21.383   6.394
 4487POPC   D2A58168   3.295  21.379   6.825
 4487POPC   C3A58169   3.675  21.323   7.078
 4487POPC   C4A58170   3.982  21.595   7.197
 4487POPC   C1B58171   3.546  21.864   6.225
 4487POPC   C2B58172   3.660  21.833   6.631
 4487POPC   C3B58173   3.506  21.810   7.029
 4487POPC   C4B58174   3.557  21.680   7.440
 4488POPC   NC358175  35.311  36.623   5.028
 4488POPC   PO458176  35.529  36.155   5.516
 4488POPC   GL158177  35.397  35.893   5.807
 4488POPC   GL258178  35.735  35.730   5.944
 4488POPC   C1A58179  35.094  36.037   6.146
 4488POPC   D2A58180  34.957  36.247   6.524
 4488POPC   C3A58181  35.007  36.018   6.892
 4488POPC   C4A58182  35.132  36.200   7.266
 4488POPC   C1B58183  35.612  36.075   6.229
 4488POPC   C2B58184  35.483  36.110   6.667
 4488POPC   C3B58185  35.630  36.080   7.121
 4488POPC   C4B58186  35.608  35.977   7.556
 4489POPC   NC358187  26.051  39.649   5.421
 4489POPC   PO458188  26.300  40.290   5.446
 4489POPC   GL158189  26.220  40.120   5.856
 4489POPC   GL258190  26.200  39.787   5.879
 4489POPC   C1A58191  25.886  40.041   6.191
 4489POPC   D2A58192  25.770  39.863   6.591
 4489POPC   C3A58193  25.805  40.177   6.894
 4489POPC   C4A58194  25.828  40.138   7.333
 4489POPC   C1B58195  26.364  39.892   6.284
 4489POPC   C2B58196  26.241  39.664   6.651
 4489POPC   C3B58197  26.131  39.836   7.052
 4489POPC   C4B58198  26.353  40.216   7.174
 4490POPC   NC358199   3.785  22.341   5.226
 4490POPC   PO458200   3.825  21.837   5.649
 4490POPC   GL158201   3.675  22.235   5.833
 4490POPC   GL258202   3.343  22.430   5.719
 4490POPC   C1A58203   3.759  22.326   6.270
 4490POPC   D2A58204   3.940  22.465   6.641
 4490POPC   C3A58205   3.716  22.267   6.938
 4490POPC   C4A58206   3.856  22.075   7.286
 4490POPC   C1B58207   3.256  22.312   6.153
 4490POPC   C2B58208   3.326  22.220   6.572
 4490POPC   C3B58209   3.200  22.371   6.947
 4490POPC   C4B58210   3.340  22.304   7.326
 4491POPC   NC358211   0.518  44.374   5.425
 4491POPC   PO458212   0.010  44.719   5.526
 4491POPC   GL158213   0.241  44.482   5.848
 4491POPC   GL258214   0.634  44.469   5.925
 4491POPC   C1A58215   0.269  44.630   6.270
 4491POPC   D2A58216   0.041  44.777   6.632
 4491POPC   C3A58217   0.270  44.571   6.957
 4491POPC   C4A58218   0.091  44.758   7.279
 4491POPC   C1B58219   0.740  44.840   6.195
 4491POPC   C2B58220   0.529  44.931   6.605
 4491POPC   C3B58221   0.575  44.968   7.034
 4491POPC   C4B58222   0.591  44.733   7.414
 4492POPC   NC358223  44.283  25.502   5.454
 4492POPC   PO458224  44.924  25.356   5.470
 4492POPC   GL158225  44.784  25.195   5.877
 4492POPC   GL258226  44.441  25.172   5.842
 4492POPC   C1A58227  44.961  25.156   6.275
 4492POPC   D2A58228  44.683  25.169   6.628
 4492POPC   C3A58229  44.764  25.314   7.018
 4492POPC   C4A58230  44.865  25.085   7.379
 4492POPC   C1B58231  44.362  25.261   6.249
 4492POPC   C2B58232  44.174  25.348   6.627
 4492POPC   C3B58233  44.242  25.525   7.028
 4492POPC   C4B58234  44.443  25.408   7.401
 4493POPC   NC358235  42.806  36.963   5.179
 4493POPC   PO458236  43.390  36.714   5.457
 4493POPC   GL158237  43.123  37.031   5.668
 4493POPC   GL258238  43.389  37.145   5.824
 4493POPC   C1A58239  42.934  37.094   6.107
 4493POPC   D2A58240  42.968  36.900   6.510
 4493POPC   C3A58241  42.888  36.664   6.858
 4493POPC   C4A58242  43.024  36.783   7.287
 4493POPC   C1B58243  43.383  36.853   6.181
 4493POPC   C2B58244  43.508  36.749   6.608
 4493POPC   C3B58245  43.467  36.706   7.052
 4493POPC   C4B58246  43.405  36.529   7.495
 4494POPC   NC358247  11.607  26.450   5.570
 4494POPC   PO458248  10.892  26.731   5.512
 4494POPC   GL158249  11.187  26.685   5.816
 4494POPC   GL258250  11.143  26.328   5.803
 4494POPC   C1A58251  11.451  26.915   6.149
 4494POPC   D2A58252  11.561  27.074   6.601
 4494POPC   C3A58253  11.222  26.954   6.916
 4494POPC   C4A58254  11.246  26.714   7.318
 4494POPC   C1B58255  11.375  26.377   6.179
 4494POPC   C2B58256  11.379  26.583   6.554
 4494POPC   C3B58257  11.233  26.368   6.904
 4494POPC   C4B58258  11.228  26.151   7.253
 4495POPC   NC358259  38.080  16.247   5.264
 4495POPC   PO458260  38.659  16.037   5.304
 4495POPC   GL158261  38.472  16.072   5.724
 4495POPC   GL258262  38.179  16.303   5.758
 4495POPC   C1A58263  38.432  16.008   6.188
 4495POPC   D2A58264  38.146  16.182   6.514
 4495POPC   C3A58265  38.220  15.984   6.925
 4495POPC   C4A58266  38.517  15.695   7.134
 4495POPC   C1B58267  38.321  16.501   6.131
 4495POPC   C2B58268  38.655  16.445   6.403
 4495POPC   C3B58269  38.527  16.380   6.802
 4495POPC   C4B58270  38.485  16.461   7.211
 4496POPC   NC358271  42.543  24.694   4.972
 4496POPC   PO458272  43.181  24.558   5.093
 4496POPC   GL158273  43.102  24.414   5.601
 4496POPC   GL258274  43.450  24.384   5.710
 4496POPC   C1A58275  43.003  24.520   6.083
 4496POPC   D2A58276  42.843  24.774   6.507
 4496POPC   C3A58277  42.750  24.585   6.921
 4496POPC   C4A58278  42.867  24.482   7.331
 4496POPC   C1B58279  43.542  24.606   6.110
 4496POPC   C2B58280  43.341  24.671   6.471
 4496POPC   C3B58281  43.238  24.748   6.887
 4496POPC   C4B58282  43.374  24.548   7.252
 4497POPC   NC358283  18.765  34.077   5.453
 4497POPC   PO458284  19.202  33.526   5.376
 4497POPC   GL158285  18.970  33.647   5.735
 4497POPC   GL258286  19.022  33.983   5.873
 4497POPC   C1A58287  19.077  33.590   6.170
 4497POPC   D2A58288  18.985  33.825   6.544
 4497POPC   C3A58289  18.888  33.581   6.927
 4497POPC   C4A58290  19.082  33.548   7.319
 4497POPC   C1B58291  18.745  34.151   6.182
 4497POPC   C2B58292  18.626  34.206   6.566
 4497POPC   C3B58293  18.769  34.089   6.979
 4497POPC   C4B58294  18.649  34.285   7.355
 4498POPC   NC358295  18.612   7.092   5.565
 4498POPC   PO458296  18.100   7.440   5.452
 4498POPC   GL158297  18.231   7.358   5.898
 4498POPC   GL258298  18.307   7.025   5.943
 4498POPC   C1A58299  18.153   7.227   6.355
 4498POPC   D2A58300  18.434   7.342   6.660
 4498POPC   C3A58301  18.382   7.508   7.055
 4498POPC   C4A58302  18.076   7.709   7.265
 4498POPC   C1B58303  18.642   7.093   6.245
 4498POPC   C2B58304  18.819   6.999   6.645
 4498POPC   C3B58305  18.753   7.101   7.065
 4498POPC   C4B58306  18.408   7.060   7.322
 4499POPC   NC358307  21.422  16.591   5.367
 4499POPC   PO458308  21.060  17.194   5.367
 4499POPC   GL158309  21.143  16.857   5.703
 4499POPC   GL258310  21.518  16.751   5.834
 4499POPC   C1A58311  21.097  16.631   6.085
 4499POPC   D2A58312  21.274  16.762   6.449
 4499POPC   C3A58313  21.113  16.601   6.816
 4499POPC   C4A58314  21.267  16.603   7.208
 4499POPC   C1B58315  21.657  16.512   6.199
 4499POPC   C2B58316  21.570  16.376   6.610
 4499POPC   C3B58317  21.623  16.710   6.881
 4499POPC   C4B58318  21.813  16.770   7.243
 4500POPC   NC358319  37.350  32.226   5.544
 4500POPC   PO458320  36.736  32.074   5.303
 4500POPC   GL158321  36.923  32.028   5.727
 4500POPC   GL258322  36.929  32.392   5.808
 4500POPC   C1A58323  36.872  31.984   6.163
 4500POPC   D2A58324  36.908  32.164   6.556
 4500POPC   C3A58325  36.787  32.036   6.938
 4500POPC   C4A58326  36.975  32.057   7.317
 4500POPC   C1B58327  36.723  32.470   6.198
 4500POPC   C2B58328  36.801  32.655   6.617
 4500POPC   C3B58329  36.827  32.553   7.076
 4500POPC   C4B58330  36.754  32.756   7.513
 4501POPC   NC358331  35.717  29.494   5.478
 4501POPC   PO458332  34.991  29.577   5.478
 4501POPC   GL158333  35.297  29.217   5.652
 4501POPC   GL258334  35.162  28.889   5.808
 4501POPC   C1A58335  35.425  29.205   6.110
 4501POPC   D2A58336  35.188  29.284   6.486
 4501POPC   C3A58337  35.466  29.396   6.831
 4501POPC   C4A58338  35.409  29.363   7.269
 4501POPC   C1B58339  35.439  28.722   6.176
 4501POPC   C2B58340  35.529  28.848   6.630
 4501POPC   C3B58341  35.507  28.877   7.096
 4501POPC   C4B58342  35.165  28.863   7.395
 4502POPC   NC358343  42.178  34.008   5.220
 4502POPC   PO458344  42.617  33.527   5.471
 4502POPC   GL158345  42.331  33.685   5.796
 4502POPC   GL258346  42.172  34.034   5.751
 4502POPC   C1A58347  42.408  33.814   6.235
 4502POPC   D2A58348  42.290  34.125   6.524
 4502POPC   C3A58349  42.348  33.954   6.917
 4502POPC   C4A58350  42.291  33.531   7.009
 4502POPC   C1B58351  41.941  33.963   6.149
 4502POPC   C2B58352  41.948  33.739   6.525
 4502POPC   C3B58353  41.840  33.903   6.910
 4502POPC   C4B58354  42.005  34.083   7.279
 4503POPC   NC358355  43.885   3.588   5.335
 4503POPC   PO458356  43.657   3.120   5.740
 4503POPC   GL158357  44.056   3.380   5.909
 4503POPC   GL258358  44.148   3.720   5.770
 4503POPC   C1A58359  44.059   3.496   6.375
 4503POPC   D2A58360  43.723   3.417   6.664
 4503POPC   C3A58361  43.790   3.204   7.051
 4503POPC   C4A58362  43.588   3.311   7.415
 4503POPC   C1B58363  44.213   3.944   6.168
 4503POPC   C2B58364  44.121   4.044   6.606
 4503POPC   C3B58365  43.787   3.903   6.875
 4503POPC   C4B58366  43.777   3.761   7.287
 4504POPC   NC358367  39.683  23.829   5.421
 4504POPC   PO458368  40.049  23.289   5.354
 4504POPC   GL158369  39.982  23.531   5.758
 4504POPC   GL258370  39.657  23.579   5.861
 4504POPC   C1A58371  40.034  23.697   6.197
 4504POPC   D2A58372  39.897  23.818   6.617
 4504POPC   C3A58373  40.106  23.614   6.995
 4504POPC   C4A58374  40.335  23.816   7.366
 4504POPC   C1B58375  39.592  23.956   6.135
 4504POPC   C2B58376  39.434  24.045   6.576
 4504POPC   C3B58377  39.556  23.857   6.996
 4504POPC   C4B58378  39.881  23.993   7.239
 4505POPC   NC358379   1.713  39.589   5.228
 4505POPC   PO458380   2.230  39.094   5.321
 4505POPC   GL158381   2.165  39.132   5.761
 4505POPC   GL258382   2.277  38.877   5.949
 4505POPC   C1A58383   1.897  39.167   6.143
 4505POPC   D2A58384   1.965  39.331   6.551
 4505POPC   C3A58385   1.689  39.261   6.871
 4505POPC   C4A58386   1.950  39.431   7.169
 4505POPC   C1B58387   2.413  39.085   6.318
 4505POPC   C2B58388   2.447  39.233   6.730
 4505POPC   C3B58389   2.215  39.014   7.016
 4505POPC   C4B58390   1.851  38.939   7.233
 4506POPC   NC358391  41.420   5.973   5.297
 4506POPC   PO458392  42.042   5.972   5.187
 4506POPC   GL158393  41.836   6.051   5.654
 4506POPC   GL258394  41.505   5.877   5.793
 4506POPC   C1A58395  41.711   6.169   6.134
 4506POPC   D2A58396  41.506   5.974   6.500
 4506POPC   C3A58397  41.562   5.959   6.955
 4506POPC   C4A58398  41.812   5.633   7.122
 4506POPC   C1B58399  41.267   5.661   6.164
 4506POPC   C2B58400  41.096   5.656   6.615
 4506POPC   C3B58401  41.191   5.595   7.054
 4506POPC   C4B58402  41.209   5.853   7.415
 4507POPC   NC358403  22.270   0.458   5.360
 4507POPC   PO458404  21.645   0.579   5.608
 4507POPC   GL158405  21.968   0.591   5.916
 4507POPC   GL258406  22.266   0.406   5.868
 4507POPC   C1A58407  22.127   0.679   6.334
 4507POPC   D2A58408  21.927   0.516   6.722
 4507POPC   C3A58409  22.157   0.555   7.137
 4507POPC   C4A58410  22.062   0.640   7.590
 4507POPC   C1B58411  22.128   0.174   6.221
 4507POPC   C2B58412  22.316   0.028   6.581
 4507POPC   C3B58413  22.101   0.067   6.928
 4507POPC   C4B58414  22.190   0.089   7.345
 4508POPC   NC358415   6.234   8.956   5.324
 4508POPC   PO458416   6.864   8.718   5.360
 4508POPC   GL158417   6.710   8.938   5.763
 4508POPC   GL258418   6.938   9.179   5.831
 4508POPC   C1A58419   6.578   9.105   6.215
 4508POPC   D2A58420   6.734   9.222   6.634
 4508POPC   C3A58421   6.529   9.112   7.026
 4508POPC   C4A58422   6.666   9.280   7.481
 4508POPC   C1B58423   7.073   9.025   6.220
 4508POPC   C2B58424   7.047   8.765   6.566
 4508POPC   C3B58425   6.859   8.682   6.929
 4508POPC   C4B58426   6.917   8.916   7.236
 4509POPC   NC358427  34.741   3.842   5.464
 4509POPC   PO458428  34.383   3.332   5.476
 4509POPC   GL158429  34.481   3.576   5.823
 4509POPC   GL258430  34.373   3.941   5.812
 4509POPC   C1A58431  34.763   3.725   6.144
 4509POPC   D2A58432  34.637   3.611   6.553
 4509POPC   C3A58433  34.850   3.663   6.929
 4509POPC   C4A58434  34.672   3.554   7.295
 4509POPC   C1B58435  34.241   3.773   6.224
 4509POPC   C2B58436  34.168   3.855   6.652
 4509POPC   C3B58437  34.288   3.828   7.086
 4509POPC   C4B58438  34.306   3.829   7.560
 4510POPC   NC358439  43.238  16.620   5.216
 4510POPC   PO458440  43.564  17.132   5.578
 4510POPC   GL158441  43.279  16.814   5.710
 4510POPC   GL258442  42.931  16.725   5.676
 4510POPC   C1A58443  43.313  16.554   6.061
 4510POPC   D2A58444  43.388  16.499   6.480
 4510POPC   C3A58445  43.358  16.773   6.805
 4510POPC   C4A58446  43.604  16.598   7.110
 4510POPC   C1B58447  42.811  16.636   6.099
 4510POPC   C2B58448  42.915  16.328   6.390
 4510POPC   C3B58449  42.979  16.409   6.827
 4510POPC   C4B58450  43.117  16.566   7.228
 4511POPC   NC358451   9.457  32.298   5.381
 4511POPC   PO458452  10.068  31.972   5.319
 4511POPC   GL158453   9.967  32.157   5.711
 4511POPC   GL258454   9.662  32.054   5.787
 4511POPC   C1A58455   9.961  32.358   6.122
 4511POPC   D2A58456   9.840  32.220   6.540
 4511POPC   C3A58457   9.918  32.459   6.916
 4511POPC   C4A58458   9.780  32.231   7.265
 4511POPC   C1B58459   9.523  31.978   6.198
 4511POPC   C2B58460   9.331  32.104   6.600
 4511POPC   C3B58461   9.349  31.968   7.028
 4511POPC   C4B58462   9.290  32.161   7.412
 4512POPC   NC358463  36.296  34.313   5.109
 4512POPC   PO458464  35.865  34.568   5.475
 4512POPC   GL158465  36.165  34.741   5.712
 4512POPC   GL258466  36.332  34.408   5.672
 4512POPC   C1A58467  36.067  34.669   6.149
 4512POPC   D2A58468  35.839  34.631   6.524
 4512POPC   C3A58469  36.082  34.655   6.898
 4512POPC   C4A58470  35.976  34.735   7.320
 4512POPC   C1B58471  36.295  34.185   6.068
 4512POPC   C2B58472  36.258  34.301   6.511
 4512POPC   C3B58473  36.311  34.138   6.927
 4512POPC   C4B58474  36.365  34.402   7.276
 4513POPC   NC358475  29.007  20.146   5.099
 4513POPC   PO458476  29.374  19.703   5.396
 4513POPC   GL158477  29.162  19.745   5.781
 4513POPC   GL258478  28.890  19.998   5.754
 4513POPC   C1A58479  29.338  19.719   6.188
 4513POPC   D2A58480  29.389  19.925   6.585
 4513POPC   C3A58481  29.474  19.709   6.974
 4513POPC   C4A58482  29.239  19.823   7.351
 4513POPC   C1B58483  28.775  19.739   6.133
 4513POPC   C2B58484  28.755  19.599   6.548
 4513POPC   C3B58485  28.938  19.745   6.913
 4513POPC   C4B58486  28.840  19.531   7.295
 4514POPC   NC358487  39.394  31.974   5.398
 4514POPC   PO458488  39.372  31.329   5.517
 4514POPC   GL158489  39.285  31.665   5.806
 4514POPC   GL258490  38.936  31.753   5.771
 4514POPC   C1A58491  39.163  31.621   6.221
 4514POPC   D2A58492  39.090  31.432   6.600
 4514POPC   C3A58493  39.283  31.637   6.924
 4514POPC   C4A58494  39.674  31.729   7.143
 4514POPC   C1B58495  38.811  31.983   6.149
 4514POPC   C2B58496  39.005  31.968   6.566
 4514POPC   C3B58497  38.840  31.963   6.967
 4514POPC   C4B58498  38.808  31.708   7.362
 4515POPC   NC358499   3.427  14.805   5.646
 4515POPC   PO458500   3.392  15.478   5.431
 4515POPC   GL158501   3.638  15.256   5.785
 4515POPC   GL258502   3.327  15.237   5.921
 4515POPC   C1A58503   3.700  15.002   6.198
 4515POPC   D2A58504   3.447  15.048   6.572
 4515POPC   C3A58505   3.527  14.851   6.971
 4515POPC   C4A58506   3.830  14.945   7.275
 4515POPC   C1B58507   3.500  15.482   6.229
 4515POPC   C2B58508   3.454  15.663   6.589
 4515POPC   C3B58509   3.334  15.429   6.907
 4515POPC   C4B58510   3.465  15.278   7.270
 4516POPC   NC358511  21.169  25.493   5.450
 4516POPC   PO458512  21.829  25.294   5.528
 4516POPC   GL158513  21.494  25.237   5.767
 4516POPC   GL258514  21.213  25.031   5.738
 4516POPC   C1A58515  21.449  25.373   6.163
 4516POPC   D2A58516  21.617  25.201   6.516
 4516POPC   C3A58517  21.671  25.472   6.843
 4516POPC   C4A58518  21.716  25.346   7.227
 4516POPC   C1B58519  21.013  25.093   6.180
 4516POPC   C2B58520  21.058  25.111   6.670
 4516POPC   C3B58521  21.047  25.196   7.163
 4516POPC   C4B58522  21.034  25.004   7.622
 4517POPC   NC358523  37.019  28.249   5.350
 4517POPC   PO458524  36.743  28.805   5.190
 4517POPC   GL158525  37.027  28.645   5.657
 4517POPC   GL258526  36.849  28.317   5.816
 4517POPC   C1A58527  37.084  28.604   6.159
 4517POPC   D2A58528  36.838  28.722   6.551
 4517POPC   C3A58529  36.991  28.560   6.953
 4517POPC   C4A58530  37.238  28.282   7.209
 4517POPC   C1B58531  36.555  28.275   6.195
 4517POPC   C2B58532  36.626  28.251   6.616
 4517POPC   C3B58533  36.767  28.028   6.925
 4517POPC   C4B58534  36.727  28.200   7.268
 4518POPC   NC358535  38.017  17.178   5.565
 4518POPC   PO458536  38.623  17.300   5.473
 4518POPC   GL158537  38.458  17.336   5.843
 4518POPC   GL258538  38.245  17.637   5.725
 4518POPC   C1A58539  38.640  17.332   6.283
 4518POPC   D2A58540  38.637  17.660   6.587
 4518POPC   C3A58541  38.579  17.532   7.000
 4518POPC   C4A58542  38.551  17.306   7.361
 4518POPC   C1B58543  38.278  17.672   6.175
 4518POPC   C2B58544  38.177  17.414   6.554
 4518POPC   C3B58545  38.044  17.560   6.961
 4518POPC   C4B58546  38.165  17.626   7.382
 4519POPC   NC358547   8.230  42.657   5.200
 4519POPC   PO458548   8.200  43.389   5.407
 4519POPC   GL158549   8.247  43.276   5.825
 4519POPC   GL258550   8.545  43.067   5.897
 4519POPC   C1A58551   8.137  43.079   6.205
 4519POPC   D2A58552   7.947  43.048   6.598
 4519POPC   C3A58553   8.209  43.163   6.934
 4519POPC   C4A58554   7.943  43.301   7.257
 4519POPC   C1B58555   8.591  42.836   6.274
 4519POPC   C2B58556   8.389  42.763   6.636
 4519POPC   C3B58557   8.444  42.699   7.042
 4519POPC   C4B58558   8.306  42.925   7.384
 4520POPC   NC358559  20.033  20.099   5.459
 4520POPC   PO458560  19.864  19.465   5.399
 4520POPC   GL158561  19.856  19.511   5.823
 4520POPC   GL258562  19.535  19.670   5.822
 4520POPC   C1A58563  19.947  19.795   6.202
 4520POPC   D2A58564  19.915  20.080   6.577
 4520POPC   C3A58565  20.032  19.933   7.005
 4520POPC   C4A58566  19.917  19.810   7.429
 4520POPC   C1B58567  19.566  19.455   6.246
 4520POPC   C2B58568  19.784  19.569   6.656
 4520POPC   C3B58569  19.655  19.549   7.085
 4520POPC   C4B58570  19.242  19.469   7.260
 4521POPC   NC358571  35.881   9.661   5.307
 4521POPC   PO458572  35.245   9.879   5.346
 4521POPC   GL158573  35.323   9.698   5.764
 4521POPC   GL258574  35.673   9.536   5.769
 4521POPC   C1A58575  35.430   9.649   6.220
 4521POPC   D2A58576  35.541   9.728   6.659
 4521POPC   C3A58577  35.196   9.860   6.923
 4521POPC   C4A58578  35.169   9.679   7.318
 4521POPC   C1B58579  35.737   9.976   5.958
 4521POPC   C2B58580  35.525  10.165   6.328
 4521POPC   C3B58581  35.526  10.229   6.775
 4521POPC   C4B58582  35.626   9.975   7.163
 4522POPC   NC358583  35.117  38.480   5.437
 4522POPC   PO458584  35.805  38.563   5.552
 4522POPC   GL158585  35.456  38.535   5.841
 4522POPC   GL258586  35.233  38.260   5.878
 4522POPC   C1A58587  35.438  38.485   6.274
 4522POPC   D2A58588  35.423  38.265   6.601
 4522POPC   C3A58589  35.406  38.505   6.935
 4522POPC   C4A58590  35.680  38.880   7.076
 4522POPC   C1B58591  35.069  38.092   6.268
 4522POPC   C2B58592  34.937  38.154   6.699
 4522POPC   C3B58593  35.025  38.193   7.142
 4522POPC   C4B58594  35.037  38.276   7.578
 4523POPC   NC358595  41.163  28.897   5.373
 4523POPC   PO458596  40.553  29.318   5.493
 4523POPC   GL158597  40.607  29.137   5.865
 4523POPC   GL258598  40.808  29.425   5.995
 4523POPC   C1A58599  40.659  28.921   6.256
 4523POPC   D2A58600  41.051  28.921   6.497
 4523POPC   C3A58601  40.926  29.094   6.890
 4523POPC   C4A58602  40.763  28.915   7.251
 4523POPC   C1B58603  40.782  29.392   6.431
 4523POPC   C2B58604  40.424  29.505   6.652
 4523POPC   C3B58605  40.332  29.614   7.048
 4523POPC   C4B58606  40.730  29.480   7.200
 4524POPC   NC358607  17.653  35.560   5.554
 4524POPC   PO458608  17.290  35.095   5.653
 4524POPC   GL158609  17.149  35.298   6.009
 4524POPC   GL258610  17.191  35.664   5.918
 4524POPC   C1A58611  17.290  35.130   6.406
 4524POPC   D2A58612  17.673  35.071   6.617
 4524POPC   C3A58613  17.528  35.030   7.023
 4524POPC   C4A58614  17.478  35.115   7.482
 4524POPC   C1B58615  17.506  35.593   6.265
 4524POPC   C2B58616  17.466  35.548   6.715
 4524POPC   C3B58617  17.468  35.516   7.144
 4524POPC   C4B58618  17.792  35.547   7.425
 4525POPC   NC358619   7.366   0.959   5.460
 4525POPC   PO458620   7.516   1.589   5.606
 4525POPC   GL158621   7.304   1.250   5.906
 4525POPC   GL258622   7.451   0.890   5.958
 4525POPC   C1A58623   7.325   1.200   6.381
 4525POPC   D2A58624   7.595   1.249   6.762
 4525POPC   C3A58625   7.345   1.445   7.096
 4525POPC   C4A58626   7.215   1.293   7.514
 4525POPC   C1B58627   7.209   0.690   6.285
 4525POPC   C2B58628   7.103   0.812   6.699
 4525POPC   C3B58629   7.327   0.937   7.062
 4525POPC   C4B58630   7.552   0.925   7.442
 4526POPC   NC358631  11.082  32.531   5.543
 4526POPC   PO458632  11.463  33.117   5.574
 4526POPC   GL158633  11.225  32.920   5.895
 4526POPC   GL258634  10.891  33.015   5.863
 4526POPC   C1A58635  11.317  32.815   6.329
 4526POPC   D2A58636  11.372  33.011   6.720
 4526POPC   C3A58637  11.485  32.898   7.116
 4526POPC   C4A58638  11.826  33.161   7.210
 4526POPC   C1B58639  10.818  32.901   6.266
 4526POPC   C2B58640  10.889  33.119   6.645
 4526POPC   C3B58641  11.026  33.267   7.032
 4526POPC   C4B58642  10.849  33.107   7.405
 4527POPC   NC358643  24.785  11.254   5.332
 4527POPC   PO458644  24.192  11.527   5.421
 4527POPC   GL158645  24.394  11.411   5.763
 4527POPC   GL258646  24.370  11.070   5.666
 4527POPC   C1A58647  24.547  11.471   6.173
 4527POPC   D2A58648  24.771  11.421   6.562
 4527POPC   C3A58649  24.689  11.561   6.981
 4527POPC   C4A58650  24.655  11.306   7.349
 4527POPC   C1B58651  24.139  11.062   6.070
 4527POPC   C2B58652  24.316  11.117   6.455
 4527POPC   C3B58653  24.432  11.055   6.850
 4527POPC   C4B58654  24.252  11.008   7.240
 4528POPC   NC358655  41.800  39.634   5.464
 4528POPC   PO458656  41.578  38.987   5.515
 4528POPC   GL158657  41.423  39.089   5.921
 4528POPC   GL258658  41.181  38.838   5.918
 4528POPC   C1A58659  41.606  39.313   6.274
 4528POPC   D2A58660  41.886  39.138   6.610
 4528POPC   C3A58661  41.752  39.177   7.060
 4528POPC   C4A58662  41.788  39.578   7.300
 4528POPC   C1B58663  41.292  38.770   6.346
 4528POPC   C2B58664  41.377  39.072   6.648
 4528POPC   C3B58665  41.334  39.413   6.895
 4528POPC   C4B58666  41.111  39.227   7.183
 4529POPC   NC358667  41.057  41.838   5.557
 4529POPC   PO458668  40.749  41.286   5.285
 4529POPC   GL158669  40.745  41.459   5.709
 4529POPC   GL258670  41.076  41.304   5.764
 4529POPC   C1A58671  40.708  41.740   6.118
 4529POPC   D2A58672  40.726  41.618   6.553
 4529POPC   C3A58673  40.759  41.809   6.946
 4529POPC   C4A58674  40.499  42.030   7.262
 4529POPC   C1B58675  40.840  41.262   6.171
 4529POPC   C2B58676  40.823  41.119   6.592
 4529POPC   C3B58677  40.688  41.275   6.974
 4529POPC   C4B58678  40.899  41.382   7.352
 4530POPC   NC358679  22.669  10.093   5.443
 4530POPC   PO458680  23.113   9.613   5.477
 4530POPC   GL158681  23.093   9.985   5.760
 4530POPC   GL258682  22.786   9.923   5.932
 4530POPC   C1A58683  23.164  10.128   6.203
 4530POPC   D2A58684  22.852   9.942   6.512
 4530POPC   C3A58685  22.964   9.836   6.935
 4530POPC   C4A58686  22.792   9.949   7.324
 4530POPC   C1B58687  23.147   9.631   6.122
 4530POPC   C2B58688  23.165   9.493   6.525
 4530POPC   C3B58689  22.811   9.381   6.744
 4530POPC   C4B58690  22.880   9.355   7.127
 4531POPC   NC358691  42.559  32.081   5.282
 4531POPC   PO458692  42.269  31.475   5.433
 4531POPC   GL158693  42.249  31.552   5.821
 4531POPC   GL258694  41.913  31.708   5.790
 4531POPC   C1A58695  42.446  31.329   6.160
 4531POPC   D2A58696  42.618  31.154   6.538
 4531POPC   C3A58697  42.635  31.397   6.907
 4531POPC   C4A58698  42.351  31.381   7.213
 4531POPC   C1B58699  41.942  31.581   6.215
 4531POPC   C2B58700  42.241  31.688   6.491
 4531POPC   C3B58701  42.183  31.748   6.898
 4531POPC   C4B58702  42.347  31.901   7.257
 4532POPC   NC358703   4.831   6.564   5.392
 4532POPC   PO458704   5.465   6.498   5.589
 4532POPC   GL158705   5.197   6.700   5.855
 4532POPC   GL258706   4.828   6.671   5.881
 4532POPC   C1A58707   5.189   6.741   6.284
 4532POPC   D2A58708   5.314   7.039   6.565
 4532POPC   C3A58709   5.084   6.856   6.867
 4532POPC   C4A58710   5.091   6.525   7.135
 4532POPC   C1B58711   4.650   6.400   6.188
 4532POPC   C2B58712   4.794   6.482   6.596
 4532POPC   C3B58713   4.694   6.265   6.967
 4532POPC   C4B58714   4.531   6.296   7.369
 4533POPC   NC358715  27.799  38.651   5.382
 4533POPC   PO458716  27.291  38.166   5.243
 4533POPC   GL158717  27.405  38.411   5.655
 4533POPC   GL258718  27.769  38.372   5.803
 4533POPC   C1A58719  27.356  38.616   6.086
 4533POPC   D2A58720  27.507  38.689   6.527
 4533POPC   C3A58721  27.313  38.648   6.939
 4533POPC   C4A58722  27.597  38.644   7.277
 4533POPC   C1B58723  27.895  38.470   6.232
 4533POPC   C2B58724  27.748  38.233   6.583
 4533POPC   C3B58725  27.593  38.207   7.007
 4533POPC   C4B58726  27.868  38.180   7.357
 4534POPC   NC358727  39.486   2.379   5.656
 4534POPC   PO458728  39.136   2.069   5.141
 4534POPC   GL158729  39.154   1.947   5.649
 4534POPC   GL258730  39.119   2.210   5.934
 4534POPC   C1A58731  39.192   1.771   6.149
 4534POPC   D2A58732  39.285   1.962   6.603
 4534POPC   C3A58733  39.424   1.747   7.022
 4534POPC   C4A58734  39.205   1.914   7.431
 4534POPC   C1B58735  39.346   2.398   6.307
 4534POPC   C2B58736  39.191   2.482   6.714
 4534POPC   C3B58737  39.351   2.244   7.054
 4534POPC   C4B58738  39.519   2.305   7.505
 4535POPC   NC358739  19.435  22.204   5.312
 4535POPC   PO458740  20.105  22.177   5.595
 4535POPC   GL158741  19.716  22.360   5.737
 4535POPC   GL258742  19.536  22.054   5.782
 4535POPC   C1A58743  19.570  22.406   6.166
 4535POPC   D2A58744  19.505  22.172   6.546
 4535POPC   C3A58745  19.658  22.282   6.956
 4535POPC   C4A58746  19.813  22.366   7.386
 4535POPC   C1B58747  19.770  21.910   6.167
 4535POPC   C2B58748  19.966  21.877   6.615
 4535POPC   C3B58749  20.124  22.049   7.036
 4535POPC   C4B58750  20.265  22.053   7.473
 4536POPC   NC358751  25.457  22.048   5.197
 4536POPC   PO458752  24.832  21.750   5.370
 4536POPC   GL158753  25.154  21.985   5.738
 4536POPC   GL258754  25.342  21.775   5.940
 4536POPC   C1A58755  25.288  22.226   6.171
 4536POPC   D2A58756  25.089  22.283   6.605
 4536POPC   C3A58757  25.288  22.445   7.002
 4536POPC   C4A58758  25.187  22.278   7.414
 4536POPC   C1B58759  25.586  21.793   6.280
 4536POPC   C2B58760  25.322  21.759   6.599
 4536POPC   C3B58761  25.302  21.932   6.985
 4536POPC   C4B58762  25.591  21.979   7.308
 4537POPC   NC358763   8.469  22.247   5.404
 4537POPC   PO458764   7.962  21.835   5.436
 4537POPC   GL158765   8.067  22.114   5.806
 4537POPC   GL258766   8.376  22.075   5.877
 4537POPC   C1A58767   8.118  22.366   6.199
 4537POPC   D2A58768   8.419  22.596   6.474
 4537POPC   C3A58769   8.453  22.475   6.921
 4537POPC   C4A58770   8.163  22.302   7.247
 4537POPC   C1B58771   8.333  21.879   6.273
 4537POPC   C2B58772   8.370  21.671   6.641
 4537POPC   C3B58773   8.302  21.836   7.043
 4537POPC   C4B58774   8.434  21.929   7.477
 4538POPC   NC358775   8.884  33.121   5.303
 4538POPC   PO458776   9.422  33.424   5.356
 4538POPC   GL158777   9.189  33.244   5.739
 4538POPC   GL258778   8.838  33.071   5.823
 4538POPC   C1A58779   9.264  33.008   6.139
 4538POPC   D2A58780   9.131  32.978   6.569
 4538POPC   C3A58781   9.149  33.295   6.897
 4538POPC   C4A58782   8.994  33.184   7.324
 4538POPC   C1B58783   8.740  32.831   6.240
 4538POPC   C2B58784   8.534  32.731   6.669
 4538POPC   C3B58785   8.540  32.885   7.122
 4538POPC   C4B58786   8.504  33.154   7.498
 4539POPC   NC358787  11.071  10.016   5.174
 4539POPC   PO458788  10.466   9.774   5.370
 4539POPC   GL158789  10.643   9.664   5.763
 4539POPC   GL258790  10.636   9.987   5.880
 4539POPC   C1A58791  10.589   9.596   6.227
 4539POPC   D2A58792  10.406   9.412   6.575
 4539POPC   C3A58793  10.471   9.668   6.915
 4539POPC   C4A58794  10.624   9.583   7.308
 4539POPC   C1B58795  10.250   9.939   6.125
 4539POPC   C2B58796  10.146   9.866   6.548
 4539POPC   C3B58797  10.122  10.073   6.946
 4539POPC   C4B58798  10.382  10.077   7.311
 4540POPC   NC358799   3.699  10.999   5.464
 4540POPC   PO458800   3.326  11.534   5.495
 4540POPC   GL158801   3.476  11.332   5.823
 4540POPC   GL258802   3.221  11.081   5.784
 4540POPC   C1A58803   3.730  11.408   6.218
 4540POPC   D2A58804   3.975  11.336   6.595
 4540POPC   C3A58805   3.694  11.293   6.959
 4540POPC   C4A58806   3.336  11.537   7.084
 4540POPC   C1B58807   3.474  10.951   6.143
 4540POPC   C2B58808   3.390  11.041   6.542
 4540POPC   C3B58809   3.365  10.875   6.925
 4540POPC   C4B58810   3.330  11.068   7.308
 4541POPC   NC358811  22.489  30.881   5.479
 4541POPC   PO458812  21.869  30.711   5.174
 4541POPC   GL158813  22.049  30.623   5.674
 4541POPC   GL258814  22.357  30.747   5.927
 4541POPC   C1A58815  21.997  30.512   6.162
 4541POPC   D2A58816  21.823  30.576   6.609
 4541POPC   C3A58817  22.013  30.790   6.938
 4541POPC   C4A58818  22.103  30.469   7.243
 4541POPC   C1B58819  22.565  30.518   6.225
 4541POPC   C2B58820  22.374  30.504   6.602
 4541POPC   C3B58821  22.422  30.244   6.932
 4541POPC   C4B58822  22.619  30.372   7.308
 4542POPC   NC358823  16.072  25.545   5.183
 4542POPC   PO458824  15.485  25.195   5.146
 4542POPC   GL158825  15.722  25.110   5.595
 4542POPC   GL258826  16.099  25.193   5.612
 4542POPC   C1A58827  15.861  25.127   6.089
 4542POPC   D2A58828  16.142  25.167   6.494
 4542POPC   C3A58829  15.943  25.290   6.888
 4542POPC   C4A58830  15.554  25.209   7.091
 4542POPC   C1B58831  16.246  25.459   6.002
 4542POPC   C2B58832  16.246  25.650   6.447
 4542POPC   C3B58833  16.376  25.543   6.880
 4542POPC   C4B58834  16.301  25.307   7.285
 4543POPC   NC358835  30.697  22.499   5.668
 4543POPC   PO458836  30.937  23.013   5.188
 4543POPC   GL158837  31.040  22.888   5.707
 4543POPC   GL258838  30.791  23.007   5.967
 4543POPC   C1A58839  31.029  22.652   6.211
 4543POPC   D2A58840  30.944  22.404   6.644
 4543POPC   C3A58841  30.837  22.505   7.122
 4543POPC   C4A58842  30.719  22.722   7.540
 4543POPC   C1B58843  30.525  22.755   6.283
 4543POPC   C2B58844  30.565  22.752   6.726
 4543POPC   C3B58845  30.545  22.957   7.116
 4543POPC   C4B58846  30.339  23.214   7.424
 4544POPC   NC358847  21.774  10.091   5.134
 4544POPC   PO458848  21.207   9.961   5.378
 4544POPC   GL158849  21.367   9.941   5.786
 4544POPC   GL258850  21.421   9.593   5.842
 4544POPC   C1A58851  21.214  10.114   6.154
 4544POPC   D2A58852  21.043   9.921   6.520
 4544POPC   C3A58853  21.317   9.854   6.860
 4544POPC   C4A58854  21.126   9.765   7.263
 4544POPC   C1B58855  21.432   9.641   6.302
 4544POPC   C2B58856  21.816   9.532   6.545
 4544POPC   C3B58857  21.959   9.495   6.956
 4544POPC   C4B58858  21.622   9.587   7.189
 4545POPC   NC358859  33.394  40.724   5.397
 4545POPC   PO458860  33.714  41.248   5.368
 4545POPC   GL158861  33.764  40.946   5.719
 4545POPC   GL258862  33.993  40.666   5.635
 4545POPC   C1A58863  33.560  40.794   6.107
 4545POPC   D2A58864  33.405  40.937   6.523
 4545POPC   C3A58865  33.564  40.707   6.868
 4545POPC   C4A58866  33.734  40.856   7.233
 4545POPC   C1B58867  34.083  40.691   6.084
 4545POPC   C2B58868  33.923  40.797   6.493
 4545POPC   C3B58869  34.098  40.914   6.895
 4545POPC   C4B58870  34.199  40.652   7.275
 4546POPC   NC358871  10.534  25.564   5.112
 4546POPC   PO458872  10.452  26.183   5.365
 4546POPC   GL158873  10.650  26.143   5.773
 4546POPC   GL258874  10.468  25.834   5.761
 4546POPC   C1A58875  10.837  26.248   6.211
 4546POPC   D2A58876  10.737  26.084   6.624
 4546POPC   C3A58877  10.757  26.214   7.023
 4546POPC   C4A58878  10.391  26.303   7.253
 4546POPC   C1B58879  10.377  25.994   6.176
 4546POPC   C2B58880  10.290  25.848   6.570
 4546POPC   C3B58881  10.422  25.828   7.004
 4546POPC   C4B58882  10.191  25.809   7.368
 4547POPC   NC358883  15.716  28.699   4.884
 4547POPC   PO458884  15.845  28.516   5.512
 4547POPC   GL158885  15.908  28.489   5.938
 4547POPC   GL258886  16.233  28.419   5.945
 4547POPC   C1A58887  15.935  28.227   6.356
 4547POPC   D2A58888  16.015  27.940   6.742
 4547POPC   C3A58889  15.990  28.100   7.191
 4547POPC   C4A58890  15.702  28.352   7.498
 4547POPC   C1B58891  16.400  28.477   6.369
 4547POPC   C2B58892  16.293  28.366   6.785
 4547POPC   C3B58893  16.465  28.256   7.193
 4547POPC   C4B58894  16.197  28.470   7.494
 4548POPC   NC358895  39.000  24.778   5.489
 4548POPC   PO458896  39.488  24.258   5.476
 4548POPC   GL158897  39.390  24.584   5.762
 4548POPC   GL258898  39.065  24.418   5.869
 4548POPC   C1A58899  39.355  24.733   6.178
 4548POPC   D2A58900  39.241  24.536   6.555
 4548POPC   C3A58901  39.384  24.639   6.938
 4548POPC   C4A58902  39.453  24.315   7.229
 4548POPC   C1B58903  38.757  24.199   6.149
 4548POPC   C2B58904  38.850  24.217   6.585
 4548POPC   C3B58905  38.960  24.334   7.002
 4548POPC   C4B58906  39.014  24.653   7.312
 4549POPC   NC358907  33.341  33.178   5.601
 4549POPC   PO458908  33.883  32.785   5.457
 4549POPC   GL158909  33.811  33.001   5.799
 4549POPC   GL258910  33.830  33.326   5.649
 4549POPC   C1A58911  33.623  32.827   6.166
 4549POPC   D2A58912  33.371  32.890   6.533
 4549POPC   C3A58913  33.649  32.829   6.879
 4549POPC   C4A58914  33.769  33.001   7.264
 4549POPC   C1B58915  33.703  33.412   6.105
 4549POPC   C2B58916  33.822  33.207   6.495
 4549POPC   C3B58917  33.784  33.357   6.907
 4549POPC   C4B58918  33.542  33.470   7.270
 4550POPC   NC358919  32.164   7.263   5.369
 4550POPC   PO458920  32.816   7.077   5.442
 4550POPC   GL158921  32.522   7.412   5.722
 4550POPC   GL258922  32.096   7.419   5.826
 4550POPC   C1A58923  32.416   7.603   6.148
 4550POPC   D2A58924  32.073   7.488   6.448
 4550POPC   C3A58925  32.255   7.522   6.857
 4550POPC   C4A58926  32.161   7.388   7.271
 4550POPC   C1B58927  32.064   7.070   6.073
 4550POPC   C2B58928  31.911   6.973   6.473
 4550POPC   C3B58929  32.056   7.053   6.864
 4550POPC   C4B58930  32.050   6.899   7.259
 4551POPC   NC358931  39.890  40.483   5.463
 4551POPC   PO458932  40.042  41.069   5.418
 4551POPC   GL158933  40.172  40.851   5.808
 4551POPC   GL258934  40.345  40.490   5.763
 4551POPC   C1A58935  40.023  40.990   6.235
 4551POPC   D2A58936  39.795  41.006   6.641
 4551POPC   C3A58937  40.028  41.068   7.042
 4551POPC   C4A58938  39.876  40.810   7.412
 4551POPC   C1B58939  40.088  40.463   6.146
 4551POPC   C2B58940  40.068  40.595   6.574
 4551POPC   C3B58941  39.901  40.587   6.937
 4551POPC   C4B58942  39.935  40.318   7.218
 4552POPC   NC358943   2.799   0.688   5.355
 4552POPC   PO458944   2.707   0.003   5.379
 4552POPC   GL158945   2.844   0.354   5.739
 4552POPC   GL258946   2.713   0.727   5.838
 4552POPC   C1A58947   2.798   0.353   6.195
 4552POPC   D2A58948   2.656   0.085   6.528
 4552POPC   C3A58949   2.768   0.222   6.925
 4552POPC   C4A58950   2.840   0.310   7.322
 4552POPC   C1B58951   2.502   0.779   6.203
 4552POPC   C2B58952   2.657   0.649   6.619
 4552POPC   C3B58953   2.595   0.822   7.040
 4552POPC   C4B58954   2.615   0.793   7.502
 4553POPC   NC358955  24.552   8.353   5.346
 4553POPC   PO458956  24.721   8.830   5.721
 4553POPC   GL158957  24.578   8.486   5.969
 4553POPC   GL258958  24.495   8.159   5.823
 4553POPC   C1A58959  24.587   8.289   6.372
 4553POPC   D2A58960  24.741   8.100   6.751
 4553POPC   C3A58961  24.588   8.330   7.108
 4553POPC   C4A58962  24.573   8.226   7.547
 4553POPC   C1B58963  24.257   7.965   6.128
 4553POPC   C2B58964  24.367   7.797   6.531
 4553POPC   C3B58965  24.280   7.946   6.938
 4553POPC   C4B58966  24.124   7.988   7.371
 4554POPC   NC358967  15.392  39.323   5.315
 4554POPC   PO458968  15.494  38.662   5.270
 4554POPC   GL158969  15.416  38.938   5.693
 4554POPC   GL258970  15.365  39.335   5.814
 4554POPC   C1A58971  15.111  38.992   6.061
 4554POPC   D2A58972  15.053  39.204   6.470
 4554POPC   C3A58973  15.348  39.211   6.825
 4554POPC   C4A58974  15.226  39.016   7.206
 4554POPC   C1B58975  14.985  39.520   6.068
 4554POPC   C2B58976  14.796  39.674   6.464
 4554POPC   C3B58977  14.929  39.518   6.880
 4554POPC   C4B58978  15.131  39.507   7.292
 4555POPC   NC358979  23.901   8.442   5.491
 4555POPC   PO458980  23.444   7.911   5.319
 4555POPC   GL158981  23.509   8.125   5.749
 4555POPC   GL258982  23.342   7.824   5.888
 4555POPC   C1A58983  23.738   8.383   6.128
 4555POPC   D2A58984  24.040   8.248   6.494
 4555POPC   C3A58985  23.936   8.345   6.953
 4555POPC   C4A58986  23.719   8.295   7.356
 4555POPC   C1B58987  23.704   7.889   6.203
 4555POPC   C2B58988  23.864   7.784   6.598
 4555POPC   C3B58989  23.804   7.809   7.026
 4555POPC   C4B58990  23.541   7.761   7.364
 4556POPC   NC358991  43.017   4.071   5.444
 4556POPC   PO458992  43.237   4.729   5.451
 4556POPC   GL158993  43.162   4.377   5.838
 4556POPC   GL258994  42.874   4.082   5.933
 4556POPC   C1A58995  43.260   4.136   6.240
 4556POPC   D2A58996  43.118   4.249   6.624
 4556POPC   C3A58997  43.314   4.105   6.951
 4556POPC   C4A58998  43.330   4.316   7.333
 4556POPC   C1B58999  42.791   4.409   6.238
 4556POPC   C2B59000  42.686   4.534   6.662
 4556POPC   C3B59001  42.900   4.463   7.044
 4556POPC   C4B59002  42.888   4.114   7.259
 4557POPC   NC359003  10.240  37.474   5.689
 4557POPC   PO459004   9.721  37.777   5.376
 4557POPC   GL159005   9.770  37.731   5.791
 4557POPC   GL259006   9.489  37.488   5.870
 4557POPC   C1A59007   9.892  37.645   6.216
 4557POPC   D2A59008   9.847  37.309   6.510
 4557POPC   C3A59009   9.589  37.472   6.829
 4557POPC   C4A59010   9.764  37.666   7.196
 4557POPC   C1B59011   9.380  37.897   6.095
 4557POPC   C2B59012   9.280  38.024   6.536
 4557POPC   C3B59013   9.474  38.040   6.979
 4557POPC   C4B59014   9.731  38.171   7.346
 4558POPC   NC359015  30.328  38.340   5.417
 4558POPC   PO459016  29.661  38.553   5.550
 4558POPC   GL159017  29.944  38.329   5.808
 4558POPC   GL259018  29.772  38.041   5.864
 4558POPC   C1A59019  30.071  38.480   6.205
 4558POPC   D2A59020  29.787  38.601   6.495
 4558POPC   C3A59021  29.914  38.731   6.853
 4558POPC   C4A59022  29.923  38.630   7.261
 4558POPC   C1B59023  29.887  38.016   6.308
 4558POPC   C2B59024  29.960  38.168   6.747
 4558POPC   C3B59025  30.046  38.149   7.206
 4558POPC   C4B59026  30.285  38.403   7.545
 4559POPC   NC359027  31.860  43.366   5.456
 4559POPC   PO459028  32.483  43.395   5.265
 4559POPC   GL159029  32.458  43.261   5.708
 4559POPC   GL259030  32.149  43.077   5.759
 4559POPC   C1A59031  32.500  43.127   6.164
 4559POPC   D2A59032  32.601  43.055   6.602
 4559POPC   C3A59033  32.331  43.092   6.947
 4559POPC   C4A59034  32.410  43.310   7.327
 4559POPC   C1B59035  32.036  42.935   6.165
 4559POPC   C2B59036  31.860  42.875   6.565
 4559POPC   C3B59037  31.925  42.797   7.007
 4559POPC   C4B59038  31.938  43.083   7.306
 4560POPC   NC359039  13.191  14.517   5.452
 4560POPC   PO459040  13.819  14.387   5.405
 4560POPC   GL159041  13.682  14.257   5.786
 4560POPC   GL259042  13.434  14.083   5.644
 4560POPC   C1A59043  13.676  14.235   6.232
 4560POPC   D2A59044  13.868  14.407   6.556
 4560POPC   C3A59045  13.951  14.216   6.926
 4560POPC   C4A59046  13.584  14.315   7.150
 4560POPC   C1B59047  13.324  13.940   6.053
 4560POPC   C2B59048  13.478  13.824   6.470
 4560POPC   C3B59049  13.583  13.866   6.876
 4560POPC   C4B59050  13.482  13.839   7.307
 4561POPC   NC359051  22.941  10.947   5.549
 4561POPC   PO459052  23.249  11.533   5.294
 4561POPC   GL159053  23.223  11.378   5.780
 4561POPC   GL259054  22.967  11.590   5.995
 4561POPC   C1A59055  23.103  11.146   6.161
 4561POPC   D2A59056  22.842  11.096   6.508
 4561POPC   C3A59057  23.077  11.185   6.818
 4561POPC   C4A59058  23.222  11.216   7.186
 4561POPC   C1B59059  22.585  11.358   6.123
 4561POPC   C2B59060  22.389  11.397   6.529
 4561POPC   C3B59061  22.586  11.383   6.900
 4561POPC   C4B59062  22.726  11.249   7.287
 4562POPC   NC359063   4.119   6.385   5.491
 4562POPC   PO459064   4.003   6.998   5.491
 4562POPC   GL159065   4.302   6.811   5.800
 4562POPC   GL259066   4.195   6.500   5.977
 4562POPC   C1A59067   4.457   6.863   6.236
 4562POPC   D2A59068   4.311   6.727   6.627
 4562POPC   C3A59069   4.572   6.752   6.987
 4562POPC   C4A59070   4.419   6.787   7.377
 4562POPC   C1B59071   3.899   6.541   6.322
 4562POPC   C2B59072   3.912   6.430   6.751
 4562POPC   C3B59073   4.046   6.575   7.137
 4562POPC   C4B59074   3.835   6.620   7.553
 4563POPC   NC359075  34.893  16.429   5.125
 4563POPC   PO459076  34.442  15.972   5.500
 4563POPC   GL159077  34.555  15.932   5.902
 4563POPC   GL259078  34.278  16.157   5.955
 4563POPC   C1A59079  34.683  15.951   6.337
 4563POPC   D2A59080  34.514  16.027   6.756
 4563POPC   C3A59081  34.766  16.019   7.116
 4563POPC   C4A59082  35.050  15.672   7.196
 4563POPC   C1B59083  34.189  16.147   6.385
 4563POPC   C2B59084  34.141  16.378   6.792
 4563POPC   C3B59085  34.226  16.137   7.179
 4563POPC   C4B59086  34.301  16.183   7.644
 4564POPC   NC359087   2.607  39.166   5.082
 4564POPC   PO459088   2.946  39.126   5.609
 4564POPC   GL159089   2.750  39.106   5.946
 4564POPC   GL259090   2.815  38.736   5.952
 4564POPC   C1A59091   2.888  39.350   6.317
 4564POPC   D2A59092   3.205  39.417   6.657
 4564POPC   C3A59093   3.027  39.369   7.074
 4564POPC   C4A59094   2.647  39.218   7.221
 4564POPC   C1B59095   3.023  38.837   6.274
 4564POPC   C2B59096   2.885  38.969   6.667
 4564POPC   C3B59097   2.917  38.792   7.039
 4564POPC   C4B59098   2.957  38.900   7.449
 4565POPC   NC359099  14.119  20.786   5.261
 4565POPC   PO459100  14.624  20.603   5.386
 4565POPC   GL159101  14.660  20.465   5.832
 4565POPC   GL259102  14.945  20.308   6.013
 4565POPC   C1A59103  14.508  20.442   6.271
 4565POPC   D2A59104  14.432  20.375   6.718
 4565POPC   C3A59105  14.109  20.660   6.864
 4565POPC   C4A59106  13.894  20.953   7.132
 4565POPC   C1B59107  14.981  20.499   6.458
 4565POPC   C2B59108  14.789  20.729   6.836
 4565POPC   C3B59109  14.462  20.979   7.075
 4565POPC   C4B59110  14.541  21.208   7.449
 4566POPC   NC359111  11.582  19.184   5.404
 4566POPC   PO459112  11.022  18.806   5.418
 4566POPC   GL159113  11.284  18.974   5.767
 4566POPC   GL259114  11.641  18.802   5.767
 4566POPC   C1A59115  11.217  19.183   6.175
 4566POPC   D2A59116  11.354  19.241   6.598
 4566POPC   C3A59117  11.133  19.127   6.956
 4566POPC   C4A59118  11.384  19.180   7.267
 4566POPC   C1B59119  11.472  18.731   6.191
 4566POPC   C2B59120  11.645  18.766   6.601
 4566POPC   C3B59121  11.533  18.767   7.028
 4566POPC   C4B59122  11.596  18.773   7.504
 4567POPC   NC359123   4.855  30.739   5.452
 4567POPC   PO459124   5.517  30.509   5.524
 4567POPC   GL159125   5.326  30.783   5.858
 4567POPC   GL259126   4.948  30.747   5.949
 4567POPC   C1A59127   5.352  30.684   6.277
 4567POPC   D2A59128   5.025  30.663   6.615
 4567POPC   C3A59129   5.189  30.521   6.964
 4567POPC   C4A59130   5.251  30.544   7.392
 4567POPC   C1B59131   4.994  31.038   6.275
 4567POPC   C2B59132   5.009  31.209   6.683
 4567POPC   C3B59133   5.016  30.977   7.080
 4567POPC   C4B59134   4.658  30.842   7.325
 4568POPC   NC359135  25.996  38.654   5.332
 4568POPC   PO459136  26.427  38.239   5.554
 4568POPC   GL159137  26.022  38.418   5.788
 4568POPC   GL259138  26.019  38.820   5.803
 4568POPC   C1A59139  25.915  38.518   6.228
 4568POPC   D2A59140  25.864  38.424   6.708
 4568POPC   C3A59141  25.919  38.568   7.159
 4568POPC   C4A59142  26.156  38.407   7.514
 4568POPC   C1B59143  26.200  38.965   6.179
 4568POPC   C2B59144  26.158  38.810   6.563
 4568POPC   C3B59145  26.202  38.928   6.948
 4568POPC   C4B59146  26.317  38.892   7.366
 4569POPC   NC359147   2.886  32.165   5.659
 4569POPC   PO459148   2.327  32.399   5.868
 4569POPC   GL159149   2.734  32.342   6.137
 4569POPC   GL259150   3.088  32.146   6.113
 4569POPC   C1A59151   2.811  32.247   6.587
 4569POPC   D2A59152   2.521  32.041   6.872
 4569POPC   C3A59153   2.463  32.251   7.260
 4569POPC   C4A59154   2.754  32.266   7.609
 4569POPC   C1B59155   3.167  32.528   6.338
 4569POPC   C2B59156   3.094  32.649   6.780
 4569POPC   C3B59157   2.962  32.396   7.131
 4569POPC   C4B59158   2.885  31.949   7.204
 4570POPC   NC359159  25.910  40.478   5.705
 4570POPC   PO459160  25.313  40.450   5.414
 4570POPC   GL159161  25.386  40.631   5.807
 4570POPC   GL259162  25.234  40.951   5.753
 4570POPC   C1A59163  25.446  40.496   6.252
 4570POPC   D2A59164  25.419  40.702   6.691
 4570POPC   C3A59165  25.157  40.554   7.066
 4570POPC   C4A59166  25.352  40.478   7.503
 4570POPC   C1B59167  25.361  40.987   6.178
 4570POPC   C2B59168  25.352  41.190   6.536
 4570POPC   C3B59169  25.494  41.157   6.922
 4570POPC   C4B59170  25.362  40.961   7.262
 4571POPC   NC359171  10.393  13.807   5.591
 4571POPC   PO459172  10.617  13.136   5.508
 4571POPC   GL159173  10.394  13.332   5.821
 4571POPC   GL259174  10.695  13.528   5.893
 4571POPC   C1A59175  10.301  13.533   6.232
 4571POPC   D2A59176  10.488  13.798   6.542
 4571POPC   C3A59177  10.496  13.672   6.975
 4571POPC   C4A59178  10.795  13.896   7.197
 4571POPC   C1B59179  10.727  13.226   6.213
 4571POPC   C2B59180  10.620  13.263   6.651
 4571POPC   C3B59181  10.895  13.331   7.001
 4571POPC   C4B59182  10.939  13.434   7.419
 4572POPC   NC359183  35.744   7.993   5.493
 4572POPC   PO459184  35.088   7.894   5.363
 4572POPC   GL159185  35.310   7.801   5.744
 4572POPC   GL259186  35.087   7.601   5.937
 4572POPC   C1A59187  35.467   7.949   6.142
 4572POPC   D2A59188  35.302   8.250   6.456
 4572POPC   C3A59189  35.466   8.170   6.865
 4572POPC   C4A59190  35.395   8.357   7.227
 4572POPC   C1B59191  35.016   7.819   6.327
 4572POPC   C2B59192  35.077   7.876   6.745
 4572POPC   C3B59193  35.082   7.958   7.164
 4572POPC   C4B59194  35.411   7.920   7.488
 4573POPC   NC359195  11.898  21.604   5.367
 4573POPC   PO459196  12.338  21.057   5.558
 4573POPC   GL159197  12.050  21.329   5.784
 4573POPC   GL259198  11.834  21.065   5.824
 4573POPC   C1A59199  12.112  21.591   6.169
 4573POPC   D2A59200  12.274  21.762   6.567
 4573POPC   C3A59201  12.069  21.568   6.921
 4573POPC   C4A59202  12.069  21.307   7.279
 4573POPC   C1B59203  12.008  21.078   6.262
 4573POPC   C2B59204  12.045  21.066   6.730
 4573POPC   C3B59205  12.158  20.842   7.104
 4573POPC   C4B59206  12.116  20.843   7.556
 4574POPC   NC359207  43.018   7.767   5.552
 4574POPC   PO459208  43.270   7.206   5.209
 4574POPC   GL159209  43.324   7.315   5.656
 4574POPC   GL259210  43.586   7.587   5.662
 4574POPC   C1A59211  43.198   7.400   6.119
 4574POPC   D2A59212  43.111   7.383   6.593
 4574POPC   C3A59213  42.715   7.242   6.833
 4574POPC   C4A59214  42.735   7.068   7.257
 4574POPC   C1B59215  43.647   7.736   6.112
 4574POPC   C2B59216  43.424   7.844   6.504
 4574POPC   C3B59217  43.438   7.657   6.908
 4574POPC   C4B59218  43.135   7.376   7.115
 4575POPC   NC359219  38.022  27.091   5.381
 4575POPC   PO459220  38.583  26.635   5.392
 4575POPC   GL159221  38.389  26.925   5.688
 4575POPC   GL259222  38.209  26.702   5.866
 4575POPC   C1A59223  38.422  27.095   6.123
 4575POPC   D2A59224  38.702  27.042   6.486
 4575POPC   C3A59225  38.558  27.028   6.916
 4575POPC   C4A59226  38.634  26.786   7.294
 4575POPC   C1B59227  38.090  26.385   6.174
 4575POPC   C2B59228  38.145  26.307   6.619
 4575POPC   C3B59229  38.130  26.600   7.005
 4575POPC   C4B59230  38.169  26.515   7.444
 4576POPC   NC359231  38.192  22.557   5.492
 4576POPC   PO459232  38.560  21.987   5.479
 4576POPC   GL159233  38.476  22.221   5.824
 4576POPC   GL259234  38.375  21.889   5.942
 4576POPC   C1A59235  38.326  22.375   6.245
 4576POPC   D2A59236  38.092  22.334   6.657
 4576POPC   C3A59237  38.256  22.271   7.058
 4576POPC   C4A59238  38.456  22.251   7.462
 4576POPC   C1B59239  38.296  21.875   6.344
 4576POPC   C2B59240  38.512  22.027   6.672
 4576POPC   C3B59241  38.638  21.942   7.072
 4576POPC   C4B59242  38.274  21.811   7.300
 4577POPC   NC359243  39.130  43.780   5.309
 4577POPC   PO459244  39.826  43.771   5.166
 4577POPC   GL159245  39.478  43.904   5.651
 4577POPC   GL259246  39.121  43.813   5.800
 4577POPC   C1A59247  39.453  43.583   6.088
 4577POPC   D2A59248  39.131  43.566   6.445
 4577POPC   C3A59249  39.269  43.799   6.833
 4577POPC   C4A59250  39.359  43.688   7.278
 4577POPC   C1B59251  39.225  44.016   6.205
 4577POPC   C2B59252  38.998  44.160   6.516
 4577POPC   C3B59253  38.809  44.061   6.869
 4577POPC   C4B59254  39.056  44.078   7.233
 4578POPC   NC359255  15.523  13.418   5.022
 4578POPC   PO459256  15.013  13.660   5.304
 4578POPC   GL159257  15.129  13.607   5.733
 4578POPC   GL259258  15.461  13.776   5.709
 4578POPC   C1A59259  15.189  13.429   6.170
 4578POPC   D2A59260  15.301  13.441   6.601
 4578POPC   C3A59261  15.287  13.616   7.029
 4578POPC   C4A59262  15.676  13.481   7.224
 4578POPC   C1B59263  15.300  13.917   6.096
 4578POPC   C2B59264  15.391  13.932   6.488
 4578POPC   C3B59265  15.268  14.154   6.820
 4578POPC   C4B59266  15.287  14.137   7.237
 4579POPC   NC359267  32.421   3.076   5.436
 4579POPC   PO459268  31.956   2.604   5.529
 4579POPC   GL159269  31.993   2.886   5.824
 4579POPC   GL259270  32.333   2.887   5.901
 4579POPC   C1A59271  31.971   2.836   6.257
 4579POPC   D2A59272  32.079   2.856   6.684
 4579POPC   C3A59273  31.924   2.619   7.029
 4579POPC   C4A59274  32.011   2.670   7.469
 4579POPC   C1B59275  32.447   2.993   6.346
 4579POPC   C2B59276  32.555   3.051   6.777
 4579POPC   C3B59277  32.375   2.842   7.152
 4579POPC   C4B59278  32.484   2.918   7.626
 4580POPC   NC359279  22.534  28.340   5.431
 4580POPC   PO459280  23.151  28.596   5.415
 4580POPC   GL159281  22.917  28.467   5.787
 4580POPC   GL259282  23.095  28.199   5.926
 4580POPC   C1A59283  22.742  28.402   6.229
 4580POPC   D2A59284  22.927  28.547   6.619
 4580POPC   C3A59285  22.756  28.517   7.043
 4580POPC   C4A59286  22.858  28.350   7.463
 4580POPC   C1B59287  23.258  28.372   6.235
 4580POPC   C2B59288  23.336  28.230   6.603
 4580POPC   C3B59289  23.236  28.403   6.998
 4580POPC   C4B59290  23.349  28.369   7.394
 4581POPC   NC359291  17.012   6.638   5.480
 4581POPC   PO459292  16.408   6.691   5.685
 4581POPC   GL159293  16.614   6.372   5.945
 4581POPC   GL259294  16.970   6.338   5.892
 4581POPC   C1A59295  16.736   6.415   6.387
 4581POPC   D2A59296  16.818   6.734   6.701
 4581POPC   C3A59297  16.674   6.705   7.140
 4581POPC   C4A59298  16.421   6.874   7.481
 4581POPC   C1B59299  17.223   6.365   6.241
 4581POPC   C2B59300  17.299   6.581   6.623
 4581POPC   C3B59301  17.099   6.448   7.019
 4581POPC   C4B59302  16.865   6.337   7.438
 4582POPC   NC359303  31.960  34.955   5.680
 4582POPC   PO459304  32.250  34.383   5.464
 4582POPC   GL159305  32.217  34.370   5.909
 4582POPC   GL259306  32.343  34.037   6.021
 4582POPC   C1A59307  32.238  34.662   6.315
 4582POPC   D2A59308  32.568  34.727   6.659
 4582POPC   C3A59309  32.393  34.951   7.033
 4582POPC   C4A59310  32.028  34.712   7.214
 4582POPC   C1B59311  32.027  34.196   6.351
 4582POPC   C2B59312  32.077  34.400   6.753
 4582POPC   C3B59313  31.862  34.251   7.108
 4582POPC   C4B59314  31.597  34.429   7.401
 4583POPC   NC359315  33.451  23.502   5.213
 4583POPC   PO459316  34.013  23.441   5.311
 4583POPC   GL159317  33.890  23.443   5.736
 4583POPC   GL259318  33.529  23.495   5.738
 4583POPC   C1A59319  33.987  23.698   6.110
 4583POPC   D2A59320  33.984  23.529   6.541
 4583POPC   C3A59321  33.850  23.671   6.958
 4583POPC   C4A59322  33.538  23.903   7.218
 4583POPC   C1B59323  33.535  23.487   6.218
 4583POPC   C2B59324  33.448  23.421   6.687
 4583POPC   C3B59325  33.410  23.391   7.160
 4583POPC   C4B59326  33.230  23.588   7.537
 4584POPC   NC359327  21.646  28.754   5.400
 4584POPC   PO459328  21.545  28.007   5.421
 4584POPC   GL159329  21.381  28.366   5.728
 4584POPC   GL259330  21.574  28.618   5.871
 4584POPC   C1A59331  21.405  28.267   6.191
 4584POPC   D2A59332  21.636  28.107   6.533
 4584POPC   C3A59333  21.435  28.331   6.854
 4584POPC   C4A59334  21.384  28.377   7.285
 4584POPC   C1B59335  21.162  28.708   6.114
 4584POPC   C2B59336  21.073  28.618   6.568
 4584POPC   C3B59337  21.121  28.721   7.007
 4584POPC   C4B59338  20.973  28.607   7.448
 4585POPC   NC359339  16.054  15.777   5.343
 4585POPC   PO459340  15.628  16.182   5.392
 4585POPC   GL159341  15.735  15.921   5.754
 4585POPC   GL259342  16.098  15.955   5.807
 4585POPC   C1A59343  15.806  15.698   6.141
 4585POPC   D2A59344  15.683  15.858   6.527
 4585POPC   C3A59345  15.814  15.716   6.896
 4585POPC   C4A59346  15.765  15.889   7.276
 4585POPC   C1B59347  16.320  15.805   6.133
 4585POPC   C2B59348  16.174  15.700   6.527
 4585POPC   C3B59349  16.337  15.692   6.933
 4585POPC   C4B59350  16.268  15.928   7.288
 4586POPC   NC359351   9.680  10.609   5.394
 4586POPC   PO459352  10.283  10.713   5.662
 4586POPC   GL159353   9.884  10.614   5.875
 4586POPC   GL259354   9.914  10.262   5.881
 4586POPC   C1A59355   9.582  10.451   6.233
 4586POPC   D2A59356   9.366  10.461   6.670
 4586POPC   C3A59357   9.568  10.267   7.047
 4586POPC   C4A59358   9.889  10.294   7.366
 4586POPC   C1B59359  10.106  10.394   6.280
 4586POPC   C2B59360   9.905  10.459   6.645
 4586POPC   C3B59361   9.912  10.646   6.989
 4586POPC   C4B59362   9.897  10.816   7.334
 4587POPC   NC359363  16.365  32.100   5.589
 4587POPC   PO459364  16.967  32.369   5.422
 4587POPC   GL159365  16.828  32.340   5.838
 4587POPC   GL259366  16.553  32.549   5.777
 4587POPC   C1A59367  16.792  32.361   6.315
 4587POPC   D2A59368  16.526  32.436   6.701
 4587POPC   C3A59369  16.710  32.144   7.021
 4587POPC   C4A59370  16.929  32.180   7.413
 4587POPC   C1B59371  16.441  32.709   6.173
 4587POPC   C2B59372  16.345  32.926   6.561
 4587POPC   C3B59373  16.364  32.884   6.984
 4587POPC   C4B59374  16.520  32.584   7.223
 4588POPC   NC359375   1.918   4.791   5.418
 4588POPC   PO459376   1.669   4.049   5.421
 4588POPC   GL159377   1.725   4.221   5.845
 4588POPC   GL259378   1.827   4.590   5.870
 4588POPC   C1A59379   1.902   4.297   6.266
 4588POPC   D2A59380   2.150   4.421   6.582
 4588POPC   C3A59381   2.120   4.291   7.000
 4588POPC   C4A59382   1.755   4.416   7.212
 4588POPC   C1B59383   2.234   4.665   6.104
 4588POPC   C2B59384   2.319   4.899   6.480
 4588POPC   C3B59385   2.317   4.800   6.912
 4588POPC   C4B59386   2.259   4.703   7.330
 4589POPC   NC359387  24.473  35.914   5.130
 4589POPC   PO459388  25.206  36.035   5.321
 4589POPC   GL159389  25.346  35.971   5.709
 4589POPC   GL259390  25.151  36.241   5.822
 4589POPC   C1A59391  25.226  35.869   6.157
 4589POPC   D2A59392  25.098  36.077   6.516
 4589POPC   C3A59393  25.321  35.926   6.867
 4589POPC   C4A59394  25.092  35.981   7.222
 4589POPC   C1B59395  25.246  36.452   6.173
 4589POPC   C2B59396  25.446  36.427   6.551
 4589POPC   C3B59397  25.247  36.430   6.942
 4589POPC   C4B59398  25.132  36.479   7.389
 4590POPC   NC359399  22.286  15.290   5.257
 4590POPC   PO459400  21.774  14.975   5.524
 4590POPC   GL159401  22.202  15.031   5.723
 4590POPC   GL259402  22.269  15.389   5.791
 4590POPC   C1A59403  22.449  15.020   6.121
 4590POPC   D2A59404  22.462  15.366   6.434
 4590POPC   C3A59405  22.274  15.339   6.836
 4590POPC   C4A59406  22.328  14.999   7.082
 4590POPC   C1B59407  22.036  15.354   6.153
 4590POPC   C2B59408  22.012  15.018   6.466
 4590POPC   C3B59409  21.857  15.018   6.892
 4590POPC   C4B59410  21.924  15.290   7.249
 4591POPC   NC359411  22.304  16.580   5.473
 4591POPC   PO459412  21.724  16.954   5.363
 4591POPC   GL159413  22.003  16.953   5.746
 4591POPC   GL259414  22.032  16.612   5.887
 4591POPC   C1A59415  22.182  16.985   6.192
 4591POPC   D2A59416  22.018  16.834   6.596
 4591POPC   C3A59417  22.226  16.958   7.007
 4591POPC   C4A59418  22.240  16.892   7.477
 4591POPC   C1B59419  22.178  16.431   6.288
 4591POPC   C2B59420  22.075  16.322   6.720
 4591POPC   C3B59421  22.197  16.448   7.133
 4591POPC   C4B59422  22.481  16.414   7.469
 4592POPC   NC359423  26.423  39.108   5.032
 4592POPC   PO459424  25.905  39.112   5.373
 4592POPC   GL159425  25.935  39.328   5.791
 4592POPC   GL259426  26.256  39.296   5.774
 4592POPC   C1A59427  25.930  39.498   6.225
 4592POPC   D2A59428  25.917  39.264   6.621
 4592POPC   C3A59429  25.771  39.487   7.005
 4592POPC   C4A59430  25.819  39.631   7.481
 4592POPC   C1B59431  26.437  39.415   6.206
 4592POPC   C2B59432  26.501  39.205   6.588
 4592POPC   C3B59433  26.541  39.286   7.018
 4592POPC   C4B59434  26.228  39.390   7.284
 4593POPC   NC359435  12.906  26.209   5.540
 4593POPC   PO459436  12.856  26.911   5.319
 4593POPC   GL159437  12.804  26.843   5.730
 4593POPC   GL259438  12.593  26.540   5.765
 4593POPC   C1A59439  13.046  26.729   6.098
 4593POPC   D2A59440  13.076  26.893   6.517
 4593POPC   C3A59441  12.996  26.619   6.849
 4593POPC   C4A59442  12.930  26.782   7.238
 4593POPC   C1B59443  12.499  26.791   6.138
 4593POPC   C2B59444  12.532  27.021   6.512
 4593POPC   C3B59445  12.424  26.903   6.901
 4593POPC   C4B59446  12.481  26.947   7.329
 4594POPC   NC359447  30.051  38.790   5.626
 4594POPC   PO459448  29.779  39.365   5.345
 4594POPC   GL159449  29.912  39.250   5.794
 4594POPC   GL259450  30.302  39.207   5.810
 4594POPC   C1A59451  29.726  39.046   6.188
 4594POPC   D2A59452  29.510  39.267   6.533
 4594POPC   C3A59453  29.793  39.343   6.869
 4594POPC   C4A59454  29.920  39.123   7.210
 4594POPC   C1B59455  30.253  39.002   6.237
 4594POPC   C2B59456  30.229  39.103   6.690
 4594POPC   C3B59457  30.348  38.885   7.068
 4594POPC   C4B59458  30.264  38.925   7.527
 4595POPC   NC359459  17.808   1.082   5.386
 4595POPC   PO459460  17.481   1.551   5.180
 4595POPC   GL159461  17.513   1.354   5.689
 4595POPC   GL259462  17.396   0.988   5.781
 4595POPC   C1A59463  17.737   1.180   6.103
 4595POPC   D2A59464  17.554   1.053   6.517
 4595POPC   C3A59465  17.669   1.284   6.912
 4595POPC   C4A59466  17.785   1.168   7.348
 4595POPC   C1B59467  17.237   1.229   6.130
 4595POPC   C2B59468  17.245   1.469   6.506
 4595POPC   C3B59469  17.151   1.341   6.919
 4595POPC   C4B59470  17.280   1.053   7.229
 4596POPC   NC359471  23.603  23.082   5.395
 4596POPC   PO459472  24.091  22.660   5.497
 4596POPC   GL159473  24.110  22.948   5.874
 4596POPC   GL259474  23.839  23.127   5.849
 4596POPC   C1A59475  24.128  23.211   6.266
 4596POPC   D2A59476  23.876  23.043   6.570
 4596POPC   C3A59477  23.851  23.059   6.983
 4596POPC   C4A59478  24.002  22.705   7.187
 4596POPC   C1B59479  23.558  22.990   6.171
 4596POPC   C2B59480  23.355  23.155   6.551
 4596POPC   C3B59481  23.356  22.875   6.895
 4596POPC   C4B59482  23.478  22.902   7.310
 4597POPC   NC359483  38.919  42.786   5.521
 4597POPC   PO459484  39.226  43.337   5.450
 4597POPC   GL159485  39.072  43.183   5.842
 4597POPC   GL259486  38.685  43.135   5.837
 4597POPC   C1A59487  39.299  43.003   6.209
 4597POPC   D2A59488  39.274  43.108   6.648
 4597POPC   C3A59489  39.542  42.933   6.948
 4597POPC   C4A59490  39.622  43.112   7.359
 4597POPC   C1B59491  38.809  43.140   6.286
 4597POPC   C2B59492  38.799  42.921   6.668
 4597POPC   C3B59493  39.007  42.882   7.042
 4597POPC   C4B59494  39.165  43.241   7.179
 4598POPC   NC359495  40.615   5.378   5.182
 4598POPC   PO459496  40.737   4.742   5.379
 4598POPC   GL159497  40.810   4.880   5.789
 4598POPC   GL259498  40.648   5.216   5.695
 4598POPC   C1A59499  40.750   4.830   6.252
 4598POPC   D2A59500  40.588   4.745   6.667
 4598POPC   C3A59501  40.775   4.912   7.020
 4598POPC   C4A59502  40.982   5.185   7.306
 4598POPC   C1B59503  40.632   5.314   6.135
 4598POPC   C2B59504  40.737   5.262   6.578
 4598POPC   C3B59505  40.665   5.422   6.985
 4598POPC   C4B59506  40.333   5.356   7.338
 4599POPC   NC359507  37.978   1.842   5.579
 4599POPC   PO459508  37.451   2.127   5.452
 4599POPC   GL159509  37.558   2.075   5.866
 4599POPC   GL259510  37.837   2.317   5.819
 4599POPC   C1A59511  37.542   1.734   6.209
 4599POPC   D2A59512  37.371   1.666   6.654
 4599POPC   C3A59513  37.470   1.913   7.043
 4599POPC   C4A59514  37.499   1.814   7.487
 4599POPC   C1B59515  37.926   2.102   6.198
 4599POPC   C2B59516  37.831   1.924   6.573
 4599POPC   C3B59517  37.938   2.036   6.954
 4599POPC   C4B59518  37.877   2.173   7.342
 4600POPC   NC359519   3.175  43.071   5.464
 4600POPC   PO459520   3.804  43.331   5.424
 4600POPC   GL159521   3.571  43.238   5.784
 4600POPC   GL259522   3.748  42.978   5.931
 4600POPC   C1A59523   3.533  43.355   6.221
 4600POPC   D2A59524   3.744  43.551   6.565
 4600POPC   C3A59525   3.642  43.286   6.887
 4600POPC   C4A59526   3.700  43.425   7.275
 4600POPC   C1B59527   3.385  42.753   6.121
 4600POPC   C2B59528   3.307  42.540   6.536
 4600POPC   C3B59529   3.284  42.838   6.885
 4600POPC   C4B59530   3.428  42.977   7.267
 4601POPC   NC359531  26.455  10.822   4.986
 4601POPC   PO459532  26.100  10.473   5.443
 4601POPC   GL159533  26.076  10.468   5.850
 4601POPC   GL259534  25.895  10.156   5.813
 4601POPC   C1A59535  25.852  10.681   6.200
 4601POPC   D2A59536  25.960  10.914   6.543
 4601POPC   C3A59537  26.133  10.735   6.902
 4601POPC   C4A59538  26.094  10.792   7.341
 4601POPC   C1B59539  26.018  10.196   6.262
 4601POPC   C2B59540  25.829  10.359   6.635
 4601POPC   C3B59541  25.701  10.513   7.033
 4601POPC   C4B59542  25.903  10.220   7.271
 4602POPC   NC359543  43.141  30.496   5.416
 4602POPC   PO459544  43.110  31.105   5.473
 4602POPC   GL159545  43.188  30.983   5.855
 4602POPC   GL259546  43.162  30.646   5.900
 4602POPC   C1A59547  43.342  30.905   6.283
 4602POPC   D2A59548  43.076  30.922   6.618
 4602POPC   C3A59549  43.132  30.741   7.015
 4602POPC   C4A59550  43.293  30.801   7.422
 4602POPC   C1B59551  43.040  30.409   6.266
 4602POPC   C2B59552  42.895  30.210   6.666
 4602POPC   C3B59553  42.959  30.294   7.117
 4602POPC   C4B59554  43.073  30.362   7.575
 4603POPC   NC359555  30.853  30.891   5.375
 4603POPC   PO459556  30.498  30.393   5.312
 4603POPC   GL159557  30.609  30.593   5.720
 4603POPC   GL259558  30.986  30.600   5.763
 4603POPC   C1A59559  30.525  30.822   6.117
 4603POPC   D2A59560  30.399  30.957   6.566
 4603POPC   C3A59561  30.498  30.642   6.899
 4603POPC   C4A59562  30.398  30.447   7.302
 4603POPC   C1B59563  31.044  30.834   6.131
 4603POPC   C2B59564  31.160  30.891   6.562
 4603POPC   C3B59565  31.011  30.906   6.983
 4603POPC   C4B59566  30.903  30.594   7.261
 4604POPC   NC359567   2.310  44.743   5.504
 4604POPC   PO459568   1.630  44.410   5.476
 4604POPC   GL159569   1.872  44.506   5.820
 4604POPC   GL259570   2.145  44.308   5.705
 4604POPC   C1A59571   1.846  44.651   6.263
 4604POPC   D2A59572   1.954  44.996   6.561
 4604POPC   C3A59573   2.007  44.868   7.009
 4604POPC   C4A59574   1.758  44.532   7.257
 4604POPC   C1B59575   2.250  44.331   6.132
 4604POPC   C2B59576   2.070  44.220   6.503
 4604POPC   C3B59577   2.099  44.333   6.912
 4604POPC   C4B59578   2.266  44.501   7.276
 4605POPC   NC359579  33.526  38.087   5.451
 4605POPC   PO459580  33.948  38.670   5.478
 4605POPC   GL159581  33.888  38.397   5.788
 4605POPC   GL259582  33.552  38.472   5.806
 4605POPC   C1A59583  33.801  38.397   6.244
 4605POPC   D2A59584  34.038  38.430   6.617
 4605POPC   C3A59585  33.958  38.154   6.946
 4605POPC   C4A59586  33.935  38.312   7.341
 4605POPC   C1B59587  33.508  38.816   6.113
 4605POPC   C2B59588  33.639  38.908   6.552
 4605POPC   C3B59589  33.667  38.714   6.966
 4605POPC   C4B59590  33.417  38.734   7.350
 4606POPC   NC359591  13.832  38.470   5.442
 4606POPC   PO459592  13.240  38.230   5.724
 4606POPC   GL159593  13.508  38.567   5.857
 4606POPC   GL259594  13.880  38.556   5.947
 4606POPC   C1A59595  13.471  38.807   6.239
 4606POPC   D2A59596  13.242  39.023   6.574
 4606POPC   C3A59597  13.272  38.770   6.931
 4606POPC   C4A59598  13.513  38.451   7.147
 4606POPC   C1B59599  13.730  38.373   6.332
 4606POPC   C2B59600  13.813  38.246   6.754
 4606POPC   C3B59601  13.862  38.068   7.165
 4606POPC   C4B59602  14.213  38.165   7.429
 4607POPC   NC359603  23.899  10.817   5.489
 4607POPC   PO459604  23.432  10.355   5.285
 4607POPC   GL159605  23.622  10.453   5.730
 4607POPC   GL259606  23.967  10.326   5.841
 4607POPC   C1A59607  23.670  10.723   6.118
 4607POPC   D2A59608  23.884  10.792   6.521
 4607POPC   C3A59609  23.763  10.605   6.948
 4607POPC   C4A59610  23.880  10.716   7.401
 4607POPC   C1B59611  23.930  10.327   6.291
 4607POPC   C2B59612  23.533  10.364   6.521
 4607POPC   C3B59613  23.335  10.211   6.896
 4607POPC   C4B59614  23.521  10.228   7.294
 4608POPC   NC359615  27.273   4.554   5.504
 4608POPC   PO459616  26.584   4.505   5.362
 4608POPC   GL159617  26.830   4.397   5.741
 4608POPC   GL259618  26.883   4.728   5.865
 4608POPC   C1A59619  27.075   4.330   6.178
 4608POPC   D2A59620  27.207   4.106   6.598
 4608POPC   C3A59621  26.962   4.246   6.961
 4608POPC   C4A59622  26.871   4.535   7.307
 4608POPC   C1B59623  26.562   4.521   6.144
 4608POPC   C2B59624  26.653   4.362   6.543
 4608POPC   C3B59625  26.537   4.540   6.923
 4608POPC   C4B59626  26.346   4.416   7.285
 4609POPC   NC359627  38.802   4.071   5.544
 4609POPC   PO459628  38.205   4.267   5.476
 4609POPC   GL159629  38.407   4.247   5.869
 4609POPC   GL259630  38.603   3.966   5.985
 4609POPC   C1A59631  38.479   4.371   6.279
 4609POPC   D2A59632  38.575   4.537   6.639
 4609POPC   C3A59633  38.419   4.314   6.970
 4609POPC   C4A59634  38.327   4.384   7.356
 4609POPC   C1B59635  38.890   4.025   6.288
 4609POPC   C2B59636  39.053   4.331   6.518
 4609POPC   C3B59637  38.887   4.180   6.876
 4609POPC   C4B59638  38.808   4.219   7.319
 4610POPC   NC359639   7.271  21.667   5.069
 4610POPC   PO459640   7.343  21.063   5.289
 4610POPC   GL159641   7.395  21.386   5.668
 4610POPC   GL259642   7.667  21.326   5.892
 4610POPC   C1A59643   7.318  21.642   6.114
 4610POPC   D2A59644   7.162  21.546   6.543
 4610POPC   C3A59645   7.287  21.642   6.982
 4610POPC   C4A59646   7.052  21.377   7.290
 4610POPC   C1B59647   7.476  21.191   6.288
 4610POPC   C2B59648   7.574  21.280   6.718
 4610POPC   C3B59649   7.503  21.183   7.154
 4610POPC   C4B59650   7.506  21.315   7.577
 4611POPC   NC359651   5.700  32.271   5.428
 4611POPC   PO459652   5.043  32.168   5.486
 4611POPC   GL159653   5.047  32.471   5.830
 4611POPC   GL259654   5.404  32.494   5.802
 4611POPC   C1A59655   4.961  32.441   6.293
 4611POPC   D2A59656   5.207  32.219   6.621
 4611POPC   C3A59657   5.019  32.098   7.016
 4611POPC   C4A59658   5.192  31.825   7.312
 4611POPC   C1B59659   5.522  32.359   6.223
 4611POPC   C2B59660   5.626  32.533   6.656
 4611POPC   C3B59661   5.320  32.501   7.039
 4611POPC   C4B59662   5.429  32.271   7.435
 4612POPC   NC359663  24.864   5.942   5.427
 4612POPC   PO459664  24.327   5.515   5.447
 4612POPC   GL159665  24.314   5.764   5.820
 4612POPC   GL259666  24.648   5.707   5.943
 4612POPC   C1A59667  24.331   6.041   6.187
 4612POPC   D2A59668  24.563   5.987   6.556
 4612POPC   C3A59669  24.322   6.078   6.912
 4612POPC   C4A59670  24.557   5.934   7.222
 4612POPC   C1B59671  24.349   5.531   6.290
 4612POPC   C2B59672  24.338   5.561   6.750
 4612POPC   C3B59673  24.450   5.442   7.167
 4612POPC   C4B59674  24.416   5.652   7.623
 4613POPC   NC359675  22.686   1.280   5.180
 4613POPC   PO459676  23.344   1.252   5.324
 4613POPC   GL159677  23.009   1.325   5.621
 4613POPC   GL259678  22.791   1.049   5.723
 4613POPC   C1A59679  22.962   1.408   6.084
 4613POPC   D2A59680  23.178   1.264   6.478
 4613POPC   C3A59681  23.015   1.185   6.900
 4613POPC   C4A59682  23.003   1.461   7.240
 4613POPC   C1B59683  22.738   0.885   6.179
 4613POPC   C2B59684  22.626   0.946   6.626
 4613POPC   C3B59685  22.628   0.829   7.082
 4613POPC   C4B59686  23.010   0.905   7.371
 4614POPC   NC359687   8.405  16.054   5.487
 4614POPC   PO459688   7.822  15.708   5.411
 4614POPC   GL159689   7.981  15.982   5.750
 4614POPC   GL259690   8.167  15.696   5.826
 4614POPC   C1A59691   8.222  16.116   6.148
 4614POPC   D2A59692   8.406  16.191   6.558
 4614POPC   C3A59693   8.249  16.130   6.943
 4614POPC   C4A59694   7.929  15.852   7.029
 4614POPC   C1B59695   8.368  15.632   6.225
 4614POPC   C2B59696   8.198  15.698   6.611
 4614POPC   C3B59697   8.351  15.576   6.992
 4614POPC   C4B59698   8.634  15.731   7.244
 4615POPC   NC359699  33.420  14.720   5.439
 4615POPC   PO459700  33.065  15.317   5.218
 4615POPC   GL159701  33.046  15.255   5.675
 4615POPC   GL259702  33.287  15.044   5.799
 4615POPC   C1A59703  32.871  15.073   6.130
 4615POPC   D2A59704  32.605  15.130   6.566
 4615POPC   C3A59705  32.553  15.401   6.968
 4615POPC   C4A59706  32.716  15.319   7.389
 4615POPC   C1B59707  33.300  15.348   6.145
 4615POPC   C2B59708  33.087  15.351   6.560
 4615POPC   C3B59709  33.040  15.509   6.976
 4615POPC   C4B59710  33.222  15.404   7.357
 4616POPC   NC359711  38.555  15.600   5.428
 4616POPC   PO459712  38.889  15.052   5.238
 4616POPC   GL159713  38.614  15.100   5.599
 4616POPC   GL259714  38.381  14.876   5.639
 4616POPC   C1A59715  38.444  15.259   6.033
 4616POPC   D2A59716  38.594  15.474   6.426
 4616POPC   C3A59717  38.400  15.331   6.808
 4616POPC   C4A59718  38.193  15.247   7.208
 4616POPC   C1B59719  38.367  14.757   6.069
 4616POPC   C2B59720  38.410  14.945   6.467
 4616POPC   C3B59721  38.223  14.859   6.853
 4616POPC   C4B59722  38.277  14.694   7.237
 4617POPC   NC359723   5.492  15.217   5.437
 4617POPC   PO459724   6.057  15.010   5.450
 4617POPC   GL159725   5.919  15.029   5.878
 4617POPC   GL259726   5.682  15.269   5.965
 4617POPC   C1A59727   5.794  14.886   6.323
 4617POPC   D2A59728   5.691  15.173   6.651
 4617POPC   C3A59729   5.974  15.230   6.972
 4617POPC   C4A59730   5.728  15.261   7.258
 4617POPC   C1B59731   6.024  15.349   6.304
 4617POPC   C2B59732   5.918  15.637   6.666
 4617POPC   C3B59733   5.786  15.734   7.081
 4617POPC   C4B59734   6.065  15.720   7.425
 4618POPC   NC359735  19.546  23.808   5.632
 4618POPC   PO459736  20.037  23.487   5.288
 4618POPC   GL159737  20.014  23.524   5.825
 4618POPC   GL259738  19.907  23.849   5.976
 4618POPC   C1A59739  20.145  23.615   6.329
 4618POPC   D2A59740  19.942  23.971   6.552
 4618POPC   C3A59741  19.817  23.918   6.966
 4618POPC   C4A59742  19.796  23.579   7.264
 4618POPC   C1B59743  19.648  23.581   6.289
 4618POPC   C2B59744  19.607  23.517   6.739
 4618POPC   C3B59745  19.354  23.621   7.056
 4618POPC   C4B59746  19.435  23.979   7.297
 4619POPC   NC359747  31.575  10.442   5.416
 4619POPC   PO459748  30.974  10.552   5.367
 4619POPC   GL159749  31.252  10.536   5.794
 4619POPC   GL259750  31.577  10.681   5.904
 4619POPC   C1A59751  31.291  10.315   6.216
 4619POPC   D2A59752  31.203  10.471   6.657
 4619POPC   C3A59753  31.337  10.295   7.052
 4619POPC   C4A59754  31.433  10.463   7.484
 4619POPC   C1B59755  31.302  10.840   6.222
 4619POPC   C2B59756  31.428  10.934   6.638
 4619POPC   C3B59757  31.347  10.815   7.051
 4619POPC   C4B59758  31.196  11.136   7.255
 4620POPC   NC359759  43.739  26.318   5.259
 4620POPC   PO459760  43.955  25.778   5.602
 4620POPC   GL159761  44.115  25.971   5.905
 4620POPC   GL259762  44.336  25.685   5.963
 4620POPC   C1A59763  43.752  26.067   6.169
 4620POPC   D2A59764  43.491  26.039   6.500
 4620POPC   C3A59765  43.527  26.307   6.839
 4620POPC   C4A59766  43.628  26.219   7.275
 4620POPC   C1B59767  44.170  25.808   6.380
 4620POPC   C2B59768  43.982  26.117   6.633
 4620POPC   C3B59769  44.047  26.069   7.039
 4620POPC   C4B59770  44.262  25.909   7.365
 4621POPC   NC359771  29.848  26.255   5.127
 4621POPC   PO459772  30.142  25.844   5.469
 4621POPC   GL159773  29.981  25.953   5.891
 4621POPC   GL259774  29.655  26.010   5.857
 4621POPC   C1A59775  29.922  26.048   6.363
 4621POPC   D2A59776  29.981  25.892   6.799
 4621POPC   C3A59777  29.940  25.951   7.262
 4621POPC   C4A59778  30.244  26.219   7.520
 4621POPC   C1B59779  29.442  25.914   6.246
 4621POPC   C2B59780  29.482  25.956   6.665
 4621POPC   C3B59781  29.500  25.761   7.055
 4621POPC   C4B59782  29.398  25.960   7.423
 4622POPC   NC359783  14.660   0.933   5.394
 4622POPC   PO459784  14.186   1.459   5.457
 4622POPC   GL159785  14.511   1.282   5.756
 4622POPC   GL259786  14.426   0.954   5.851
 4622POPC   C1A59787  14.663   1.361   6.186
 4622POPC   D2A59788  14.829   1.081   6.519
 4622POPC   C3A59789  14.667   1.088   6.974
 4622POPC   C4A59790  14.416   1.407   7.187
 4622POPC   C1B59791  14.299   1.036   6.278
 4622POPC   C2B59792  14.253   1.086   6.699
 4622POPC   C3B59793  14.062   1.039   7.098
 4622POPC   C4B59794  13.960   1.322   7.417
 4623POPC   NC359795  42.281  40.145   5.328
 4623POPC   PO459796  42.831  39.803   5.276
 4623POPC   GL159797  42.583  39.839   5.703
 4623POPC   GL259798  42.537  40.206   5.756
 4623POPC   C1A59799  42.202  39.854   6.039
 4623POPC   D2A59800  41.899  39.744   6.430
 4623POPC   C3A59801  42.074  39.800   6.858
 4623POPC   C4A59802  42.295  39.737   7.249
 4623POPC   C1B59803  42.298  40.395   6.085
 4623POPC   C2B59804  42.396  40.499   6.520
 4623POPC   C3B59805  42.423  40.241   6.885
 4623POPC   C4B59806  42.418  40.233   7.302
 4624POPC   NC359807  34.346  34.027   5.514
 4624POPC   PO459808  34.793  33.626   5.549
 4624POPC   GL159809  34.630  33.766   5.909
 4624POPC   GL259810  34.713  34.126   5.887
 4624POPC   C1A59811  34.665  33.699   6.352
 4624POPC   D2A59812  34.827  33.884   6.717
 4624POPC   C3A59813  34.706  33.609   7.052
 4624POPC   C4A59814  34.725  33.640   7.507
 4624POPC   C1B59815  34.351  34.086   6.192
 4624POPC   C2B59816  34.302  33.951   6.631
 4624POPC   C3B59817  34.433  34.073   7.052
 4624POPC   C4B59818  34.186  34.206   7.393
 4625POPC   NC359819   6.418  26.342   5.127
 4625POPC   PO459820   6.377  25.761   5.529
 4625POPC   GL159821   6.580  26.020   5.791
 4625POPC   GL259822   6.436  26.309   5.645
 4625POPC   C1A59823   6.852  26.046   6.157
 4625POPC   D2A59824   6.999  26.112   6.591
 4625POPC   C3A59825   6.695  25.984   6.916
 4625POPC   C4A59826   6.633  25.754   7.314
 4625POPC   C1B59827   6.470  26.463   6.047
 4625POPC   C2B59828   6.564  26.376   6.449
 4625POPC   C3B59829   6.592  26.484   6.844
 4625POPC   C4B59830   6.988  26.402   7.036
 4626POPC   NC359831  43.420  29.858   5.402
 4626POPC   PO459832  42.760  30.249   5.335
 4626POPC   GL159833  42.961  30.176   5.789
 4626POPC   GL259834  43.347  30.182   5.797
 4626POPC   C1A59835  42.902  29.910   6.204
 4626POPC   D2A59836  43.036  29.702   6.612
 4626POPC   C3A59837  42.825  29.819   7.023
 4626POPC   C4A59838  43.089  29.860   7.406
 4626POPC   C1B59839  43.457  29.957   6.181
 4626POPC   C2B59840  43.580  29.780   6.586
 4626POPC   C3B59841  43.404  29.839   6.980
 4626POPC   C4B59842  43.439  30.211   7.259
 4627POPC   NC359843  12.739  34.877   5.482
 4627POPC   PO459844  13.201  34.374   5.324
 4627POPC   GL159845  13.040  34.467   5.735
 4627POPC   GL259846  13.183  34.783   5.759
 4627POPC   C1A59847  13.053  34.461   6.208
 4627POPC   D2A59848  12.873  34.579   6.637
 4627POPC   C3A59849  12.937  34.281   6.997
 4627POPC   C4A59850  13.321  34.292   7.259
 4627POPC   C1B59851  13.046  34.994   6.102
 4627POPC   C2B59852  13.124  35.277   6.442
 4627POPC   C3B59853  13.085  35.090   6.838
 4627POPC   C4B59854  12.970  34.778   7.153
 4628POPC   NC359855  34.940  41.072   5.102
 4628POPC   PO459856  35.408  40.548   5.312
 4628POPC   GL159857  35.269  40.632   5.724
 4628POPC   GL259858  35.427  40.973   5.738
 4628POPC   C1A59859  35.219  40.752   6.174
 4628POPC   D2A59860  35.272  40.807   6.617
 4628POPC   C3A59861  35.121  40.512   6.922
 4628POPC   C4A59862  35.229  40.537   7.343
 4628POPC   C1B59863  35.505  41.201   6.120
 4628POPC   C2B59864  35.602  41.213   6.567
 4628POPC   C3B59865  35.389  41.192   6.973
 4628POPC   C4B59866  35.518  41.274   7.392
 4629POPC   NC359867  15.411  42.721   5.498
 4629POPC   PO459868  15.224  43.354   5.312
 4629POPC   GL159869  15.132  43.104   5.725
 4629POPC   GL259870  15.467  43.106   5.909
 4629POPC   C1A59871  14.989  43.074   6.188
 4629POPC   D2A59872  15.088  43.245   6.628
 4629POPC   C3A59873  14.907  43.115   7.030
 4629POPC   C4A59874  14.954  42.736   7.287
 4629POPC   C1B59875  15.332  43.449   6.222
 4629POPC   C2B59876  15.394  43.649   6.662
 4629POPC   C3B59877  15.229  43.549   7.093
 4629POPC   C4B59878  14.966  43.417   7.477
 4630POPC   NC359879  31.744  39.164   5.339
 4630POPC   PO459880  31.088  39.338   5.129
 4630POPC   GL159881  31.305  39.113   5.563
 4630POPC   GL259882  31.285  38.868   5.819
 4630POPC   C1A59883  31.672  39.139   5.969
 4630POPC   D2A59884  31.624  39.166   6.438
 4630POPC   C3A59885  31.837  39.400   6.750
 4630POPC   C4A59886  31.704  39.315   7.192
 4630POPC   C1B59887  31.207  39.180   6.166
 4630POPC   C2B59888  31.140  39.290   6.623
 4630POPC   C3B59889  31.173  39.242   7.079
 4630POPC   C4B59890  31.409  38.889   7.180
 4631POPC   NC359891  24.864  17.476   5.092
 4631POPC   PO459892  24.303  17.603   5.443
 4631POPC   GL159893  24.653  17.611   5.786
 4631POPC   GL259894  24.849  17.278   5.880
 4631POPC   C1A59895  24.572  17.541   6.234
 4631POPC   D2A59896  24.205  17.465   6.515
 4631POPC   C3A59897  24.390  17.389   6.901
 4631POPC   C4A59898  24.656  17.663   7.138
 4631POPC   C1B59899  24.985  17.198   6.300
 4631POPC   C2B59900  24.896  17.454   6.668
 4631POPC   C3B59901  24.941  17.251   7.045
 4631POPC   C4B59902  24.582  17.179   7.317
 4632POPC   NC359903   0.216  41.447   5.329
 4632POPC   PO459904   0.837  41.316   5.405
 4632POPC   GL159905   0.573  41.542   5.708
 4632POPC   GL259906   0.703  41.897   5.765
 4632POPC   C1A59907   0.314  41.427   6.067
 4632POPC   D2A59908   0.473  41.324   6.475
 4632POPC   C3A59909   0.258  41.464   6.847
 4632POPC   C4A59910   0.406  41.414   7.271
 4632POPC   C1B59911   0.556  41.865   6.188
 4632POPC   C2B59912   0.571  41.932   6.608
 4632POPC   C3B59913   0.419  41.899   7.021
 4632POPC   C4B59914   0.420  41.899   7.466
 4633POPC   NC359915  32.756  14.292   5.505
 4633POPC   PO459916  32.364  13.835   5.640
 4633POPC   GL159917  32.407  14.227   5.904
 4633POPC   GL259918  32.591  14.572   5.903
 4633POPC   C1A59919  32.310  14.403   6.338
 4633POPC   D2A59920  32.394  14.483   6.786
 4633POPC   C3A59921  32.027  14.381   7.073
 4633POPC   C4A59922  31.833  14.420   7.496
 4633POPC   C1B59923  32.786  14.311   6.224
 4633POPC   C2B59924  32.655  14.024   6.618
 4633POPC   C3B59925  32.582  14.072   7.086
 4633POPC   C4B59926  32.479  14.458   7.295
 4634POPC   NC359927   7.766  37.699   5.144
 4634POPC   PO459928   7.272  37.324   5.379
 4634POPC   GL159929   7.596  37.530   5.633
 4634POPC   GL259930   7.773  37.313   5.825
 4634POPC   C1A59931   7.613  37.734   6.081
 4634POPC   D2A59932   7.429  37.975   6.474
 4634POPC   C3A59933   7.423  37.788   6.909
 4634POPC   C4A59934   7.574  37.966   7.298
 4634POPC   C1B59935   7.747  37.187   6.227
 4634POPC   C2B59936   7.621  37.347   6.620
 4634POPC   C3B59937   7.632  37.318   7.058
 4634POPC   C4B59938   7.229  37.318   7.247
 4635POPC   NC359939  20.758  28.646   5.299
 4635POPC   PO459940  20.270  29.027   5.442
 4635POPC   GL159941  20.662  29.129   5.751
 4635POPC   GL259942  20.944  29.399   5.783
 4635POPC   C1A59943  20.702  29.218   6.229
 4635POPC   D2A59944  20.514  29.427   6.608
 4635POPC   C3A59945  20.379  29.159   7.021
 4635POPC   C4A59946  20.307  29.164   7.509
 4635POPC   C1B59947  21.186  29.338   6.176
 4635POPC   C2B59948  21.205  29.136   6.549
 4635POPC   C3B59949  20.873  29.112   6.797
 4635POPC   C4B59950  20.839  29.081   7.238
 4636POPC   NC359951  13.412  32.367   5.384
 4636POPC   PO459952  13.719  31.772   5.644
 4636POPC   GL159953  13.787  32.201   5.726
 4636POPC   GL259954  13.453  32.226   5.867
 4636POPC   C1A59955  13.888  32.342   6.134
 4636POPC   D2A59956  13.787  32.164   6.537
 4636POPC   C3A59957  13.855  32.406   6.901
 4636POPC   C4A59958  13.826  32.353   7.313
 4636POPC   C1B59959  13.285  32.219   6.284
 4636POPC   C2B59960  13.396  32.475   6.647
 4636POPC   C3B59961  13.392  32.492   7.090
 4636POPC   C4B59962  13.336  32.365   7.512
 4637POPC   NC359963   6.058   7.021   5.402
 4637POPC   PO459964   5.667   7.536   5.283
 4637POPC   GL159965   5.909   7.454   5.672
 4637POPC   GL259966   6.041   7.769   5.751
 4637POPC   C1A59967   5.952   7.423   6.138
 4637POPC   D2A59968   5.715   7.364   6.486
 4637POPC   C3A59969   5.817   7.143   6.798
 4637POPC   C4A59970   5.649   7.347   7.097
 4637POPC   C1B59971   6.198   7.926   6.136
 4637POPC   C2B59972   6.344   7.852   6.592
 4637POPC   C3B59973   6.111   7.609   6.876
 4637POPC   C4B59974   5.957   7.723   7.243
 4638POPC   NC359975  25.504  30.178   5.295
 4638POPC   PO459976  25.040  29.792   5.357
 4638POPC   GL159977  25.303  29.887   5.683
 4638POPC   GL259978  25.270  29.582   5.836
 4638POPC   C1A59979  25.268  30.118   6.064
 4638POPC   D2A59980  25.347  30.203   6.517
 4638POPC   C3A59981  25.458  30.056   6.956
 4638POPC   C4A59982  25.210  29.992   7.348
 4638POPC   C1B59983  25.063  29.674   6.238
 4638POPC   C2B59984  25.122  29.771   6.688
 4638POPC   C3B59985  25.309  29.569   7.071
 4638POPC   C4B59986  25.112  29.517   7.513
 4639POPC   NC359987  13.766   2.122   5.458
 4639POPC   PO459988  13.462   1.553   5.570
 4639POPC   GL159989  13.656   1.885   5.905
 4639POPC   GL259990  13.513   2.241   5.891
 4639POPC   C1A59991  13.813   2.134   6.317
 4639POPC   D2A59992  13.913   2.164   6.805
 4639POPC   C3A59993  13.817   1.799   7.109
 4639POPC   C4A59994  13.606   1.720   7.494
 4639POPC   C1B59995  13.579   2.592   6.182
 4639POPC   C2B59996  13.378   2.653   6.587
 4639POPC   C3B59997  13.396   2.280   6.838
 4639POPC   C4B59998  13.512   2.195   7.251
 4640POPC   NC359999  20.802  32.923   5.299
 4640POPC   PO460000  20.204  33.135   5.384
 4640POPC   GL160001  20.425  32.952   5.748
 4640POPC   GL260002  20.774  32.965   5.787
 4640POPC   C1A60003  20.426  33.131   6.155
 4640POPC   D2A60004  20.526  33.357   6.519
 4640POPC   C3A60005  20.348  33.137   6.900
 4640POPC   C4A60006  20.504  32.953   7.310
 4640POPC   C1B60007  20.840  32.701   6.099
 4640POPC   C2B60008  20.741  32.879   6.497
 4640POPC   C3B60009  20.750  32.767   6.912
 4640POPC   C4B60010  20.989  32.742   7.283
 4641POPC   NC360011  42.212  21.718   5.191
 4641POPC   PO460012  42.311  22.422   5.368
 4641POPC   GL160013  42.303  22.202   5.764
 4641POPC   GL260014  42.110  21.891   5.693
 4641POPC   C1A60015  42.173  22.324   6.207
 4641POPC   D2A60016  42.098  22.303   6.664
 4641POPC   C3A60017  42.352  22.090   6.993
 4641POPC   C4A60018  42.473  22.133   7.443
 4641POPC   C1B60019  42.230  21.816   6.119
 4641POPC   C2B60020  42.224  21.790   6.575
 4641POPC   C3B60021  41.927  21.833   6.924
 4641POPC   C4B60022  41.994  22.008   7.360
 4642POPC   NC360023  35.528  12.672   5.436
 4642POPC   PO460024  34.960  13.052   5.460
 4642POPC   GL160025  35.175  12.835   5.774
 4642POPC   GL260026  35.506  13.020   5.801
 4642POPC   C1A60027  35.150  12.953   6.191
 4642POPC   D2A60028  35.346  12.993   6.574
 4642POPC   C3A60029  35.186  12.716   6.869
 4642POPC   C4A60030  35.261  12.890   7.220
 4642POPC   C1B60031  35.604  12.706   6.116
 4642POPC   C2B60032  35.422  12.507   6.450
 4642POPC   C3B60033  35.430  12.255   6.808
 4642POPC   C4B60034  35.510  12.424   7.193
 4643POPC   NC360035  15.233  42.299   4.971
 4643POPC   PO460036  14.960  42.658   5.381
 4643POPC   GL160037  15.118  42.407   5.749
 4643POPC   GL260038  15.243  42.650   5.994
 4643POPC   C1A60039  15.246  42.148   6.100
 4643POPC   D2A60040  15.341  42.101   6.527
 4643POPC   C3A60041  15.141  42.376   6.832
 4643POPC   C4A60042  15.179  42.269   7.253
 4643POPC   C1B60043  15.441  42.866   6.369
 4643POPC   C2B60044  15.605  42.698   6.770
 4643POPC   C3B60045  15.455  42.720   7.187
 4643POPC   C4B60046  15.362  42.599   7.608
 4644POPC   NC360047  21.509  31.818   5.431
 4644POPC   PO460048  21.382  31.234   5.120
 4644POPC   GL160049  21.363  31.312   5.636
 4644POPC   GL260050  21.651  31.479   5.799
 4644POPC   C1A60051  21.364  31.269   6.162
 4644POPC   D2A60052  21.439  31.483   6.615
 4644POPC   C3A60053  21.098  31.372   6.916
 4644POPC   C4A60054  21.109  31.131   7.295
 4644POPC   C1B60055  21.492  31.763   6.164
 4644POPC   C2B60056  21.698  31.928   6.522
 4644POPC   C3B60057  21.755  31.824   6.968
 4644POPC   C4B60058  21.506  31.539   7.235
 4645POPC   NC360059  18.119  23.311   5.645
 4645POPC   PO460060  18.543  22.902   5.334
 4645POPC   GL160061  18.585  23.099   5.756
 4645POPC   GL260062  18.545  22.769   5.856
 4645POPC   C1A60063  18.408  23.137   6.235
 4645POPC   D2A60064  18.099  23.201   6.612
 4645POPC   C3A60065  18.165  23.013   7.063
 4645POPC   C4A60066  18.031  22.604   7.290
 4645POPC   C1B60067  18.564  22.628   6.263
 4645POPC   C2B60068  18.393  22.771   6.630
 4645POPC   C3B60069  18.425  22.562   6.975
 4645POPC   C4B60070  18.514  22.699   7.389
 4646POPC   NC360071  30.222  31.234   5.410
 4646POPC   PO460072  29.890  31.746   5.665
 4646POPC   GL160073  29.988  31.342   5.864
 4646POPC   GL260074  29.723  31.101   5.770
 4646POPC   C1A60075  30.203  31.339   6.277
 4646POPC   D2A60076  30.437  31.505   6.634
 4646POPC   C3A60077  30.255  31.525   7.071
 4646POPC   C4A60078  30.153  31.760   7.493
 4646POPC   C1B60079  29.635  31.215   6.227
 4646POPC   C2B60080  29.818  31.395   6.635
 4646POPC   C3B60081  29.790  31.239   7.054
 4646POPC   C4B60082  29.519  30.908   7.051
 4647POPC   NC360083  22.989  35.686   5.503
 4647POPC   PO460084  23.270  35.168   5.203
 4647POPC   GL160085  23.018  35.147   5.658
 4647POPC   GL260086  22.689  35.340   5.725
 4647POPC   C1A60087  22.876  35.124   6.132
 4647POPC   D2A60088  23.032  35.378   6.471
 4647POPC   C3A60089  22.951  35.194   6.855
 4647POPC   C4A60090  23.057  35.077   7.255
 4647POPC   C1B60091  22.689  35.635   6.132
 4647POPC   C2B60092  22.744  35.836   6.552
 4647POPC   C3B60093  22.597  35.722   6.944
 4647POPC   C4B60094  22.664  35.399   7.222
 4648POPC   NC360095  43.655  36.353   5.319
 4648POPC   PO460096  43.726  35.776   5.537
 4648POPC   GL160097  43.680  36.151   5.803
 4648POPC   GL260098  43.997  36.258   5.800
 4648POPC   C1A60099  43.674  36.414   6.217
 4648POPC   D2A60100  43.833  36.337   6.654
 4648POPC   C3A60101  43.653  36.217   7.073
 4648POPC   C4A60102  43.463  36.017   7.427
 4648POPC   C1B60103  44.138  36.174   6.241
 4648POPC   C2B60104  44.344  36.211   6.647
 4648POPC   C3B60105  44.206  36.337   7.056
 4648POPC   C4B60106  44.386  36.331   7.486
 4649POPC   NC360107   3.558  41.356   5.454
 4649POPC   PO460108   3.241  41.907   5.683
 4649POPC   GL160109   3.403  41.596   5.887
 4649POPC   GL260110   3.745  41.741   5.747
 4649POPC   C1A60111   3.384  41.471   6.323
 4649POPC   D2A60112   3.561  41.702   6.683
 4649POPC   C3A60113   3.479  41.502   7.043
 4649POPC   C4A60114   3.155  41.645   7.287
 4649POPC   C1B60115   3.802  41.726   6.183
 4649POPC   C2B60116   3.871  41.375   6.489
 4649POPC   C3B60117   3.986  41.407   6.906
 4649POPC   C4B60118   3.905  41.814   7.099
 4650POPC   NC360119  11.636  22.566   5.445
 4650POPC   PO460120  11.082  22.880   5.462
 4650POPC   GL160121  11.252  23.031   5.857
 4650POPC   GL260122  11.118  23.389   5.879
 4650POPC   C1A60123  11.367  22.777   6.248
 4650POPC   D2A60124  11.329  22.478   6.598
 4650POPC   C3A60125  11.425  22.797   6.933
 4650POPC   C4A60126  11.465  23.247   7.105
 4650POPC   C1B60127  11.032  23.246   6.264
 4650POPC   C2B60128  11.233  23.196   6.642
 4650POPC   C3B60129  10.966  23.192   7.002
 4650POPC   C4B60130  10.863  23.085   7.404
 4651POPC   NC360131  21.202   2.004   5.415
 4651POPC   PO460132  21.733   2.371   5.553
 4651POPC   GL160133  21.506   2.120   5.824
 4651POPC   GL260134  21.546   1.756   5.721
 4651POPC   C1A60135  21.301   2.165   6.213
 4651POPC   D2A60136  21.495   2.057   6.569
 4651POPC   C3A60137  21.228   2.163   6.870
 4651POPC   C4A60138  21.309   1.991   7.228
 4651POPC   C1B60139  21.500   1.707   6.172
 4651POPC   C2B60140  21.338   1.562   6.619
 4651POPC   C3B60141  21.267   1.508   7.087
 4651POPC   C4B60142  21.295   1.661   7.605
 4652POPC   NC360143  42.288  30.266   5.391
 4652POPC   PO460144  42.243  29.471   5.474
 4652POPC   GL160145  42.180  29.782   5.811
 4652POPC   GL260146  42.457  30.057   5.826
 4652POPC   C1A60147  42.232  29.887   6.256
 4652POPC   D2A60148  42.519  29.767   6.589
 4652POPC   C3A60149  42.302  29.844   6.979
 4652POPC   C4A60150  41.855  29.901   7.049
 4652POPC   C1B60151  42.528  30.298   6.216
 4652POPC   C2B60152  42.352  30.257   6.645
 4652POPC   C3B60153  42.443  30.342   7.080
 4652POPC   C4B60154  42.631  30.125   7.454
 4653POPC   NC360155  21.120  44.279   5.438
 4653POPC   PO460156  21.735  44.063   5.473
 4653POPC   GL160157  21.451  43.953   5.792
 4653POPC   GL260158  21.359  44.238   5.871
 4653POPC   C1A60159  21.520  43.865   6.210
 4653POPC   D2A60160  21.800  43.868   6.559
 4653POPC   C3A60161  21.676  43.785   7.007
 4653POPC   C4A60162  21.304  43.831   7.255
 4653POPC   C1B60163  21.164  44.268   6.231
 4653POPC   C2B60164  21.139  44.052   6.645
 4653POPC   C3B60165  21.060  44.231   7.055
 4653POPC   C4B60166  21.014  44.187   7.532
 4654POPC   NC360167  15.608  24.596   5.590
 4654POPC   PO460168  15.049  24.299   5.215
 4654POPC   GL160169  15.175  24.322   5.694
 4654POPC   GL260170  15.062  24.640   5.900
 4654POPC   C1A60171  15.095  24.238   6.185
 4654POPC   D2A60172  15.297  24.284   6.617
 4654POPC   C3A60173  15.099  24.492   6.978
 4654POPC   C4A60174  14.886  24.239   7.266
 4654POPC   C1B60175  15.410  24.725   6.216
 4654POPC   C2B60176  15.611  24.719   6.631
 4654POPC   C3B60177  15.617  24.491   7.000
 4654POPC   C4B60178  15.508  24.744   7.293
 4655POPC   NC360179  27.994  37.170   5.289
 4655POPC   PO460180  28.572  36.786   5.476
 4655POPC   GL160181  28.378  36.919   5.860
 4655POPC   GL260182  28.222  37.178   5.732
 4655POPC   C1A60183  28.415  37.108   6.297
 4655POPC   D2A60184  28.624  37.237   6.716
 4655POPC   C3A60185  28.544  37.002   7.082
 4655POPC   C4A60186  28.565  36.562   7.144
 4655POPC   C1B60187  27.927  37.234   6.070
 4655POPC   C2B60188  27.953  37.256   6.525
 4655POPC   C3B60189  28.113  37.335   6.928
 4655POPC   C4B60190  28.116  37.177   7.348
 4656POPC   NC360191   9.280  36.588   5.028
 4656POPC   PO460192   8.871  36.268   5.601
 4656POPC   GL160193   8.988  36.068   5.973
 4656POPC   GL260194   9.253  35.826   5.842
 4656POPC   C1A60195   8.919  36.165   6.414
 4656POPC   D2A60196   9.053  36.496   6.678
 4656POPC   C3A60197   9.032  36.423   7.139
 4656POPC   C4A60198   9.257  36.477   7.559
 4656POPC   C1B60199   9.424  35.967   6.246
 4656POPC   C2B60200   9.360  35.997   6.689
 4656POPC   C3B60201   9.247  35.944   7.103
 4656POPC   C4B60202   8.839  35.900   7.321
 4657POPC   NC360203  44.601   6.917   5.242
 4657POPC   PO460204   0.015   6.936   5.713
 4657POPC   GL160205  44.820   6.676   5.897
 4657POPC   GL260206  44.548   6.655   5.696
 4657POPC   C1A60207  44.908   6.621   6.291
 4657POPC   D2A60208   0.099   6.708   6.627
 4657POPC   C3A60209  44.866   6.716   6.972
 4657POPC   C4A60210  44.680   6.437   7.295
 4657POPC   C1B60211  44.396   6.647   6.139
 4657POPC   C2B60212  44.506   6.796   6.560
 4657POPC   C3B60213  44.375   6.640   6.938
 4657POPC   C4B60214  44.194   6.558   7.329
 4658POPC   NC360215   1.004  39.578   5.252
 4658POPC   PO460216   1.485  40.062   5.272
 4658POPC   GL160217   1.182  40.021   5.643
 4658POPC   GL260218   1.386  39.782   5.721
 4658POPC   C1A60219   1.123  40.092   6.111
 4658POPC   D2A60220   1.279  40.069   6.563
 4658POPC   C3A60221   1.130  39.962   7.001
 4658POPC   C4A60222   1.171  40.027   7.474
 4658POPC   C1B60223   1.575  39.796   6.119
 4658POPC   C2B60224   1.515  39.613   6.519
 4658POPC   C3B60225   1.628  39.791   6.919
 4658POPC   C4B60226   1.542  39.656   7.349
 4659POPC   NC360227  37.122   8.037   5.393
 4659POPC   PO460228  36.454   8.200   5.251
 4659POPC   GL160229  36.731   8.384   5.608
 4659POPC   GL260230  36.834   8.090   5.787
 4659POPC   C1A60231  36.769   8.475   6.092
 4659POPC   D2A60232  36.641   8.341   6.520
 4659POPC   C3A60233  36.876   8.253   6.879
 4659POPC   C4A60234  36.847   8.541   7.222
 4659POPC   C1B60235  36.980   7.852   6.136
 4659POPC   C2B60236  37.126   7.934   6.523
 4659POPC   C3B60237  37.205   7.785   6.899
 4659POPC   C4B60238  37.102   7.964   7.278
 4660POPC   NC360239  37.241  12.983   5.479
 4660POPC   PO460240  36.598  13.043   5.487
 4660POPC   GL160241  36.730  12.787   5.821
 4660POPC   GL260242  37.073  12.679   5.867
 4660POPC   C1A60243  36.701  12.774   6.259
 4660POPC   D2A60244  36.659  12.524   6.631
 4660POPC   C3A60245  36.473  12.740   6.982
 4660POPC   C4A60246  36.692  13.097   7.180
 4660POPC   C1B60247  37.216  12.451   6.229
 4660POPC   C2B60248  37.391  12.524   6.640
 4660POPC   C3B60249  37.148  12.540   7.004
 4660POPC   C4B60250  37.147  12.279   7.355
 4661POPC   NC360251   6.035  14.507   5.481
 4661POPC   PO460252   5.372  14.490   5.491
 4661POPC   GL160253   5.587  14.318   5.809
 4661POPC   GL260254   5.795  14.548   5.915
 4661POPC   C1A60255   5.614  14.201   6.241
 4661POPC   D2A60256   5.597  14.395   6.614
 4661POPC   C3A60257   5.683  14.222   7.012
 4661POPC   C4A60258   6.046  14.193   7.266
 4661POPC   C1B60259   6.093  14.363   6.156
 4661POPC   C2B60260   6.112  14.507   6.559
 4661POPC   C3B60261   6.061  14.612   6.959
 4661POPC   C4B60262   6.007  14.846   7.320
 4662POPC   NC360263  31.458   5.441   5.449
 4662POPC   PO460264  31.181   4.812   5.419
 4662POPC   GL160265  31.432   5.001   5.794
 4662POPC   GL260266  31.797   4.974   5.852
 4662POPC   C1A60267  31.503   4.923   6.253
 4662POPC   D2A60268  31.504   4.637   6.581
 4662POPC   C3A60269  31.571   4.823   6.979
 4662POPC   C4A60270  31.426   4.798   7.405
 4662POPC   C1B60271  31.713   5.359   6.089
 4662POPC   C2B60272  31.556   5.421   6.511
 4662POPC   C3B60273  31.725   5.338   6.914
 4662POPC   C4B60274  31.819   5.461   7.347
 4663POPC   NC360275  14.198  33.845   5.344
 4663POPC   PO460276  14.120  33.200   5.473
 4663POPC   GL160277  14.247  33.555   5.759
 4663POPC   GL260278  14.617  33.591   5.727
 4663POPC   C1A60279  14.354  33.923   6.081
 4663POPC   D2A60280  14.209  33.886   6.536
 4663POPC   C3A60281  14.487  33.733   6.887
 4663POPC   C4A60282  14.388  33.857   7.313
 4663POPC   C1B60283  14.514  33.441   6.163
 4663POPC   C2B60284  14.762  33.430   6.518
 4663POPC   C3B60285  14.978  33.377   6.882
 4663POPC   C4B60286  14.762  33.444   7.266
 4664POPC   NC360287  17.815  23.551   5.229
 4664POPC   PO460288  18.382  23.675   5.461
 4664POPC   GL160289  18.325  23.903   5.796
 4664POPC   GL260290  18.031  24.103   5.741
 4664POPC   C1A60291  18.219  23.767   6.186
 4664POPC   D2A60292  18.428  23.598   6.525
 4664POPC   C3A60293  18.189  23.626   6.893
 4664POPC   C4A60294  18.073  23.780   7.288
 4664POPC   C1B60295  18.008  24.248   6.182
 4664POPC   C2B60296  18.181  24.100   6.590
 4664POPC   C3B60297  18.028  24.217   6.981
 4664POPC   C4B60298  17.718  24.164   7.307
 4665POPC   NC360299   7.866   5.070   5.394
 4665POPC   PO460300   7.206   5.303   5.527
 4665POPC   GL160301   7.457   5.147   5.864
 4665POPC   GL260302   7.474   4.789   5.818
 4665POPC   C1A60303   7.432   5.287   6.293
 4665POPC   D2A60304   7.156   5.511   6.576
 4665POPC   C3A60305   7.131   5.243   6.912
 4665POPC   C4A60306   7.458   4.957   7.052
 4665POPC   C1B60307   7.669   4.825   6.241
 4665POPC   C2B60308   7.750   5.062   6.628
 4665POPC   C3B60309   7.962   4.926   6.986
 4665POPC   C4B60310   7.815   4.617   7.216
 4666POPC   NC360311  12.937  17.916   5.521
 4666POPC   PO460312  12.631  17.320   5.400
 4666POPC   GL160313  12.690  17.402   5.841
 4666POPC   GL260314  12.631  17.728   5.886
 4666POPC   C1A60315  12.828  17.309   6.272
 4666POPC   D2A60316  13.026  17.143   6.657
 4666POPC   C3A60317  13.020  17.479   6.949
 4666POPC   C4A60318  12.910  17.585   7.342
 4666POPC   C1B60319  12.454  17.642   6.290
 4666POPC   C2B60320  12.587  17.621   6.719
 4666POPC   C3B60321  12.465  17.742   7.157
 4666POPC   C4B60322  12.397  17.667   7.647
 4667POPC   NC360323  14.011   0.250   5.411
 4667POPC   PO460324  14.691   0.466   5.307
 4667POPC   GL160325  14.668   0.360   5.769
 4667POPC   GL260326  14.350   0.437   5.891
 4667POPC   C1A60327  14.687   0.158   6.216
 4667POPC   D2A60328  14.415   0.167   6.605
 4667POPC   C3A60329  14.574   0.213   7.031
 4667POPC   C4A60330  14.600   0.605   7.273
 4667POPC   C1B60331  14.615   0.652   6.227
 4667POPC   C2B60332  14.602   0.656   6.677
 4667POPC   C3B60333  14.239   0.598   6.904
 4667POPC   C4B60334  14.088   0.533   7.303
 4668POPC   NC360335  40.283  29.714   5.487
 4668POPC   PO460336  39.850  30.128   5.440
 4668POPC   GL160337  40.121  30.130   5.831
 4668POPC   GL260338  40.147  29.790   5.988
 4668POPC   C1A60339  40.085  30.180   6.304
 4668POPC   D2A60340  40.210  29.968   6.673
 4668POPC   C3A60341  39.879  29.873   6.978
 4668POPC   C4A60342  39.964  29.752   7.409
 4668POPC   C1B60343  39.894  29.653   6.353
 4668POPC   C2B60344  39.924  29.415   6.751
 4668POPC   C3B60345  39.887  29.310   7.206
 4668POPC   C4B60346  39.615  29.426   7.581
 4669POPC   NC360347  28.976  10.044   5.319
 4669POPC   PO460348  29.175   9.458   5.419
 4669POPC   GL160349  28.937   9.674   5.720
 4669POPC   GL260350  29.214   9.899   5.753
 4669POPC   C1A60351  28.848   9.871   6.118
 4669POPC   D2A60352  28.898   9.972   6.560
 4669POPC   C3A60353  29.112   9.875   6.975
 4669POPC   C4A60354  29.002   9.788   7.402
 4669POPC   C1B60355  29.359   9.865   6.161
 4669POPC   C2B60356  29.427  10.026   6.599
 4669POPC   C3B60357  29.607  10.069   7.025
 4669POPC   C4B60358  29.506   9.787   7.371
 4670POPC   NC360359  20.274  16.369   5.274
 4670POPC   PO460360  20.444  15.660   5.366
 4670POPC   GL160361  20.520  15.914   5.735
 4670POPC   GL260362  20.331  15.690   5.932
 4670POPC   C1A60363  20.775  15.912   6.126
 4670POPC   D2A60364  20.729  15.695   6.510
 4670POPC   C3A60365  20.633  15.923   6.871
 4670POPC   C4A60366  20.818  15.931   7.276
 4670POPC   C1B60367  20.275  15.865   6.348
 4670POPC   C2B60368  20.204  15.637   6.747
 4670POPC   C3B60369  20.273  15.735   7.198
 4670POPC   C4B60370  20.518  15.660   7.577
 4671POPC   NC360371  23.007  34.145   5.540
 4671POPC   PO460372  23.151  33.483   5.406
 4671POPC   GL160373  23.128  33.491   5.846
 4671POPC   GL260374  23.187  33.833   5.917
 4671POPC   C1A60375  22.875  33.589   6.247
 4671POPC   D2A60376  22.676  33.484   6.651
 4671POPC   C3A60377  22.889  33.683   6.972
 4671POPC   C4A60378  22.789  33.832   7.369
 4671POPC   C1B60379  23.120  34.052   6.313
 4671POPC   C2B60380  23.197  34.029   6.762
 4671POPC   C3B60381  23.134  34.160   7.188
 4671POPC   C4B60382  22.976  34.218   7.616
 4672POPC   NC360383  37.230   5.663   4.993
 4672POPC   PO460384  37.778   5.807   5.417
 4672POPC   GL160385  37.659   5.764   5.821
 4672POPC   GL260386  37.504   6.084   5.885
 4672POPC   C1A60387  37.862   5.893   6.182
 4672POPC   D2A60388  37.953   5.773   6.568
 4672POPC   C3A60389  37.769   5.885   6.911
 4672POPC   C4A60390  38.058   5.786   7.175
 4672POPC   C1B60391  37.366   5.876   6.262
 4672POPC   C2B60392  37.329   5.729   6.680
 4672POPC   C3B60393  37.285   5.974   7.034
 4672POPC   C4B60394  37.422   6.219   7.337
 4673POPC   NC360395   7.451  11.714   5.509
 4673POPC   PO460396   7.717  12.311   5.408
 4673POPC   GL160397   7.607  12.182   5.822
 4673POPC   GL260398   7.594  11.858   5.979
 4673POPC   C1A60399   7.402  12.313   6.204
 4673POPC   D2A60400   7.191  12.123   6.535
 4673POPC   C3A60401   7.431  12.072   6.893
 4673POPC   C4A60402   7.377  12.254   7.260
 4673POPC   C1B60403   7.123  11.896   6.064
 4673POPC   C2B60404   6.866  11.736   6.403
 4673POPC   C3B60405   7.097  11.682   6.813
 4673POPC   C4B60406   7.250  11.760   7.241
 4674POPC   NC360407   5.074   1.156   5.406
 4674POPC   PO460408   5.650   0.981   5.677
 4674POPC   GL160409   5.263   1.072   5.893
 4674POPC   GL260410   4.921   0.926   5.856
 4674POPC   C1A60411   5.052   1.299   6.220
 4674POPC   D2A60412   4.935   1.204   6.637
 4674POPC   C3A60413   4.935   1.495   6.972
 4674POPC   C4A60414   5.233   1.560   7.318
 4674POPC   C1B60415   4.842   0.755   6.301
 4674POPC   C2B60416   4.737   0.766   6.769
 4674POPC   C3B60417   4.835   1.024   7.145
 4674POPC   C4B60418   4.726   0.922   7.660
 4675POPC   NC360419   7.449   6.512   5.551
 4675POPC   PO460420   7.713   7.139   5.511
 4675POPC   GL160421   7.671   6.913   5.843
 4675POPC   GL260422   7.317   6.968   5.824
 4675POPC   C1A60423   7.704   6.691   6.236
 4675POPC   D2A60424   7.790   6.552   6.658
 4675POPC   C3A60425   7.535   6.657   7.015
 4675POPC   C4A60426   7.379   6.652   7.441
 4675POPC   C1B60427   7.182   6.768   6.213
 4675POPC   C2B60428   7.198   6.842   6.669
 4675POPC   C3B60429   7.055   6.879   7.130
 4675POPC   C4B60430   6.893   6.902   7.607
 4676POPC   NC360431  24.625  21.525   5.025
 4676POPC   PO460432  24.687  21.015   5.358
 4676POPC   GL160433  24.467  21.363   5.640
 4676POPC   GL260434  24.155  21.443   5.858
 4676POPC   C1A60435  24.562  21.371   6.110
 4676POPC   D2A60436  24.249  21.358   6.453
 4676POPC   C3A60437  24.503  21.409   6.812
 4676POPC   C4A60438  24.480  21.304   7.226
 4676POPC   C1B60439  24.263  21.775   6.161
 4676POPC   C2B60440  24.335  21.872   6.584
 4676POPC   C3B60441  24.217  21.785   7.014
 4676POPC   C4B60442  24.397  21.773   7.424
 4677POPC   NC360443  42.290  12.561   5.415
 4677POPC   PO460444  42.157  11.936   5.367
 4677POPC   GL160445  42.385  12.138   5.727
 4677POPC   GL260446  42.080  12.356   5.825
 4677POPC   C1A60447  42.641  11.979   6.121
 4677POPC   D2A60448  42.611  12.155   6.558
 4677POPC   C3A60449  42.473  11.909   6.920
 4677POPC   C4A60450  42.639  11.922   7.328
 4677POPC   C1B60451  42.235  12.261   6.218
 4677POPC   C2B60452  42.074  12.073   6.610
 4677POPC   C3B60453  41.956  11.986   7.056
 4677POPC   C4B60454  42.203  12.179   7.370
 4678POPC   NC360455  13.927  11.568   5.165
 4678POPC   PO460456  14.557  11.445   5.326
 4678POPC   GL160457  14.424  11.507   5.785
 4678POPC   GL260458  14.283  11.274   5.983
 4678POPC   C1A60459  14.653  11.583   6.220
 4678POPC   D2A60460  14.771  11.574   6.680
 4678POPC   C3A60461  14.575  11.291   7.025
 4678POPC   C4A60462  14.475  11.189   7.503
 4678POPC   C1B60463  14.361  11.225   6.428
 4678POPC   C2B60464  14.224  10.978   6.749
 4678POPC   C3B60465  14.282  10.867   7.172
 4678POPC   C4B60466  14.125  10.803   7.603
 4679POPC   NC360467  44.443   1.037   5.333
 4679POPC   PO460468  44.992   1.341   5.343
 4679POPC   GL160469  44.899   1.101   5.743
 4679POPC   GL260470  44.549   1.045   5.862
 4679POPC   C1A60471   0.015   1.158   6.212
 4679POPC   D2A60472  44.905   1.369   6.630
 4679POPC   C3A60473  44.985   1.124   7.023
 4679POPC   C4A60474  44.856   1.176   7.498
 4679POPC   C1B60475  44.530   1.079   6.336
 4679POPC   C2B60476  44.507   1.068   6.774
 4679POPC   C3B60477  44.494   0.985   7.203
 4679POPC   C4B60478  44.417   1.002   7.664
 4680POPC   NC360479   2.118  18.682   5.511
 4680POPC   PO460480   1.932  18.066   5.437
 4680POPC   GL160481   2.074  18.261   5.799
 4680POPC   GL260482   1.839  18.524   5.907
 4680POPC   C1A60483   2.114  18.222   6.222
 4680POPC   D2A60484   1.769  18.201   6.499
 4680POPC   C3A60485   1.900  18.294   6.893
 4680POPC   C4A60486   2.239  18.255   7.160
 4680POPC   C1B60487   1.651  18.669   6.292
 4680POPC   C2B60488   1.425  18.657   6.680
 4680POPC   C3B60489   1.538  18.579   7.105
 4680POPC   C4B60490   1.845  18.520   7.380
 4681POPC   NC360491  21.596   3.810   5.357
 4681POPC   PO460492  21.298   3.200   5.355
 4681POPC   GL160493  21.490   3.408   5.760
 4681POPC   GL260494  21.426   3.766   5.821
 4681POPC   C1A60495  21.394   3.483   6.231
 4681POPC   D2A60496  21.088   3.483   6.578
 4681POPC   C3A60497  21.228   3.329   6.975
 4681POPC   C4A60498  21.609   3.388   7.227
 4681POPC   C1B60499  21.325   3.983   6.193
 4681POPC   C2B60500  21.488   3.845   6.587
 4681POPC   C3B60501  21.387   3.806   7.018
 4681POPC   C4B60502  21.221   3.701   7.426
 4682POPC   NC360503  23.624  33.498   5.473
 4682POPC   PO460504  23.498  34.113   5.585
 4682POPC   GL160505  23.693  33.892   5.934
 4682POPC   GL260506  23.837  33.567   5.926
 4682POPC   C1A60507  23.632  33.986   6.367
 4682POPC   D2A60508  23.814  34.023   6.765
 4682POPC   C3A60509  23.571  33.899   7.112
 4682POPC   C4A60510  23.269  33.638   7.310
 4682POPC   C1B60511  23.491  33.494   6.226
 4682POPC   C2B60512  23.435  33.575   6.673
 4682POPC   C3B60513  23.634  33.392   7.030
 4682POPC   C4B60514  23.723  33.427   7.442
 4683POPC   NC360515  26.191  34.259   5.689
 4683POPC   PO460516  25.807  33.779   5.357
 4683POPC   GL160517  26.014  33.779   5.757
 4683POPC   GL260518  25.733  33.752   5.973
 4683POPC   C1A60519  26.138  33.892   6.227
 4683POPC   D2A60520  26.048  33.833   6.664
 4683POPC   C3A60521  26.275  33.827   7.066
 4683POPC   C4A60522  26.123  34.098   7.387
 4683POPC   C1B60523  25.785  33.457   6.334
 4683POPC   C2B60524  25.680  33.509   6.757
 4683POPC   C3B60525  25.764  33.803   7.100
 4683POPC   C4B60526  25.755  33.781   7.530
 4684POPC   NC360527  33.297  14.257   5.008
 4684POPC   PO460528  32.933  14.710   5.367
 4684POPC   GL160529  33.091  14.554   5.786
 4684POPC   GL260530  33.199  14.202   5.751
 4684POPC   C1A60531  33.185  14.649   6.216
 4684POPC   D2A60532  32.907  14.709   6.574
 4684POPC   C3A60533  32.874  14.490   6.965
 4684POPC   C4A60534  32.976  14.646   7.372
 4684POPC   C1B60535  33.265  14.139   6.168
 4684POPC   C2B60536  33.114  14.215   6.576
 4684POPC   C3B60537  33.080  14.027   6.956
 4684POPC   C4B60538  33.171  14.178   7.343
 4685POPC   NC360539   8.242  32.646   5.364
 4685POPC   PO460540   7.933  32.105   5.504
 4685POPC   GL160541   8.098  32.123   5.892
 4685POPC   GL260542   8.420  32.319   5.810
 4685POPC   C1A60543   7.920  32.158   6.321
 4685POPC   D2A60544   7.763  31.965   6.715
 4685POPC   C3A60545   8.015  32.105   7.018
 4685POPC   C4A60546   8.258  32.463   7.147
 4685POPC   C1B60547   8.447  32.214   6.264
 4685POPC   C2B60548   8.394  32.240   6.692
 4685POPC   C3B60549   8.506  32.023   7.051
 4685POPC   C4B60550   8.389  32.057   7.456
 4686POPC   NC360551  24.222   3.820   5.544
 4686POPC   PO460552  24.646   3.320   5.345
 4686POPC   GL160553  24.546   3.465   5.751
 4686POPC   GL260554  24.202   3.319   5.702
 4686POPC   C1A60555  24.432   3.654   6.164
 4686POPC   D2A60556  24.173   3.646   6.549
 4686POPC   C3A60557  24.398   3.641   6.943
 4686POPC   C4A60558  24.291   3.817   7.330
 4686POPC   C1B60559  24.346   3.100   6.080
 4686POPC   C2B60560  24.468   3.244   6.486
 4686POPC   C3B60561  24.435   3.125   6.888
 4686POPC   C4B60562  24.170   3.225   7.198
 4687POPC   NC360563  40.488  16.508   5.527
 4687POPC   PO460564  40.993  17.001   5.473
 4687POPC   GL160565  40.896  16.677   5.810
 4687POPC   GL260566  41.199  16.568   5.957
 4687POPC   C1A60567  40.734  16.508   6.246
 4687POPC   D2A60568  40.437  16.615   6.610
 4687POPC   C3A60569  40.581  16.689   7.052
 4687POPC   C4A60570  40.520  16.577   7.513
 4687POPC   C1B60571  41.088  16.916   6.246
 4687POPC   C2B60572  40.901  16.853   6.652
 4687POPC   C3B60573  41.099  16.890   7.049
 4687POPC   C4B60574  41.186  16.556   7.257
 4688POPC   NC360575  29.355  42.866   5.343
 4688POPC   PO460576  29.012  43.504   5.522
 4688POPC   GL160577  29.227  43.311   5.854
 4688POPC   GL260578  29.270  42.959   5.826
 4688POPC   C1A60579  29.068  43.149   6.247
 4688POPC   D2A60580  28.994  43.332   6.622
 4688POPC   C3A60581  29.059  43.217   7.042
 4688POPC   C4A60582  28.933  43.449   7.377
 4688POPC   C1B60583  29.526  42.924   6.188
 4688POPC   C2B60584  29.589  42.578   6.460
 4688POPC   C3B60585  29.590  42.623   6.867
 4688POPC   C4B60586  29.379  42.833   7.182
 4689POPC   NC360587  20.690  26.367   5.453
 4689POPC   PO460588  20.784  25.747   5.342
 4689POPC   GL160589  20.567  25.907   5.730
 4689POPC   GL260590  20.296  26.123   5.670
 4689POPC   C1A60591  20.474  25.864   6.194
 4689POPC   D2A60592  20.194  25.775   6.563
 4689POPC   C3A60593  20.420  25.807   6.964
 4689POPC   C4A60594  20.813  25.794   7.196
 4689POPC   C1B60595  20.444  26.346   6.041
 4689POPC   C2B60596  20.483  26.426   6.491
 4689POPC   C3B60597  20.665  26.312   6.868
 4689POPC   C4B60598  20.573  26.242   7.271
 4690POPC   NC360599  21.695  21.105   5.371
 4690POPC   PO460600  21.168  21.505   5.464
 4690POPC   GL160601  21.510  21.477   5.735
 4690POPC   GL260602  21.491  21.143   5.836
 4690POPC   C1A60603  21.590  21.577   6.168
 4690POPC   D2A60604  21.370  21.544   6.547
 4690POPC   C3A60605  21.590  21.565   6.908
 4690POPC   C4A60606  21.413  21.641   7.291
 4690POPC   C1B60607  21.198  21.227   6.141
 4690POPC   C2B60608  21.266  21.056   6.528
 4690POPC   C3B60609  21.203  21.216   6.931
 4690POPC   C4B60610  21.390  21.136   7.311
 4691POPC   NC360611  18.120  14.703   5.338
 4691POPC   PO460612  18.439  14.168   5.458
 4691POPC   GL160613  18.395  14.295   5.876
 4691POPC   GL260614  18.095  14.526   5.832
 4691POPC   C1A60615  18.417  14.310   6.338
 4691POPC   D2A60616  18.374  14.714   6.582
 4691POPC   C3A60617  18.143  14.721   6.962
 4691POPC   C4A60618  18.157  14.594   7.392
 4691POPC   C1B60619  17.932  14.285   6.183
 4691POPC   C2B60620  17.989  14.325   6.629
 4691POPC   C3B60621  18.081  14.204   7.045
 4691POPC   C4B60622  17.791  14.007   7.344
 4692POPC   NC360623   5.061   2.754   5.054
 4692POPC   PO460624   5.189   2.235   5.365
 4692POPC   GL160625   5.268   2.422   5.786
 4692POPC   GL260626   5.415   2.746   5.868
 4692POPC   C1A60627   5.170   2.468   6.241
 4692POPC   D2A60628   5.234   2.704   6.632
 4692POPC   C3A60629   5.157   2.499   6.993
 4692POPC   C4A60630   5.292   2.542   7.367
 4692POPC   C1B60631   5.197   3.001   6.217
 4692POPC   C2B60632   5.368   3.208   6.600
 4692POPC   C3B60633   5.237   3.101   7.012
 4692POPC   C4B60634   5.033   2.971   7.383
 4693POPC   NC360635  24.699  27.860   5.134
 4693POPC   PO460636  24.263  27.510   5.502
 4693POPC   GL160637  24.545  27.507   5.882
 4693POPC   GL260638  24.645  27.843   6.008
 4693POPC   C1A60639  24.539  27.474   6.335
 4693POPC   D2A60640  24.450  27.623   6.764
 4693POPC   C3A60641  24.563  27.342   7.129
 4693POPC   C4A60642  24.790  27.459   7.528
 4693POPC   C1B60643  24.236  27.889   6.268
 4693POPC   C2B60644  24.099  28.017   6.684
 4693POPC   C3B60645  24.223  27.928   7.119
 4693POPC   C4B60646  24.685  27.832   7.206
 4694POPC   NC360647  44.941  19.116   5.295
 4694POPC   PO460648  44.448  18.741   5.508
 4694POPC   GL160649  44.451  19.077   5.794
 4694POPC   GL260650  44.785  19.219   5.760
 4694POPC   C1A60651  44.333  19.058   6.239
 4694POPC   D2A60652  44.382  18.900   6.670
 4694POPC   C3A60653  44.346  18.780   7.082
 4694POPC   C4A60654  44.741  18.737   7.189
 4694POPC   C1B60655  44.671  19.429   6.138
 4694POPC   C2B60656  44.628  19.361   6.584
 4694POPC   C3B60657  44.744  19.240   6.983
 4694POPC   C4B60658  44.530  19.207   7.351
 4695POPC   NC360659  43.594  19.876   5.446
 4695POPC   PO460660  44.184  20.181   5.471
 4695POPC   GL160661  43.955  19.953   5.801
 4695POPC   GL260662  43.639  20.162   5.890
 4695POPC   C1A60663  43.714  19.744   6.143
 4695POPC   D2A60664  43.618  19.857   6.552
 4695POPC   C3A60665  43.812  19.636   6.890
 4695POPC   C4A60666  43.705  19.542   7.291
 4695POPC   C1B60667  43.950  20.184   6.276
 4695POPC   C2B60668  44.042  20.372   6.708
 4695POPC   C3B60669  43.947  20.108   7.047
 4695POPC   C4B60670  43.956  20.071   7.480
 4696POPC   NC360671  44.509  29.775   5.562
 4696POPC   PO460672  44.366  30.445   5.526
 4696POPC   GL160673  44.565  30.179   5.880
 4696POPC   GL260674  44.803  29.849   5.960
 4696POPC   C1A60675  44.524  30.063   6.313
 4696POPC   D2A60676  44.916  29.925   6.502
 4696POPC   C3A60677  44.903  29.971   6.929
 4696POPC   C4A60678  44.610  30.040   7.251
 4696POPC   C1B60679  44.920  29.475   6.206
 4696POPC   C2B60680  44.865  29.439   6.651
 4696POPC   C3B60681   0.093  29.496   6.996
 4696POPC   C4B60682  44.968  29.669   7.346
 4697POPC   NC360683  44.897  43.569   5.369
 4697POPC   PO460684  44.346  44.000   5.319
 4697POPC   GL160685  44.595  43.874   5.668
 4697POPC   GL260686  44.440  43.581   5.761
 4697POPC   C1A60687  44.780  43.851   6.092
 4697POPC   D2A60688  44.609  44.011   6.484
 4697POPC   C3A60689  44.842  43.910   6.854
 4697POPC   C4A60690  44.730  43.948   7.237
 4697POPC   C1B60691  44.507  43.429   6.150
 4697POPC   C2B60692  44.701  43.518   6.540
 4697POPC   C3B60693  44.493  43.579   6.934
 4697POPC   C4B60694  44.517  43.511   7.371
 4698POPC   NC360695  10.306  32.403   5.417
 4698POPC   PO460696  10.944  32.099   5.368
 4698POPC   GL160697  10.712  32.189   5.736
 4698POPC   GL260698  10.454  31.957   5.666
 4698POPC   C1A60699  10.494  32.327   6.130
 4698POPC   D2A60700  10.531  32.265   6.589
 4698POPC   C3A60701  10.513  32.399   7.015
 4698POPC   C4A60702  10.809  32.134   7.185
 4698POPC   C1B60703  10.283  31.851   6.082
 4698POPC   C2B60704  10.212  31.854   6.529
 4698POPC   C3B60705  10.165  32.003   6.947
 4698POPC   C4B60706  10.274  32.087   7.363
 4699POPC   NC360707  19.605  22.828   5.442
 4699POPC   PO460708  20.250  22.903   5.488
 4699POPC   GL160709  19.978  22.812   5.823
 4699POPC   GL260710  19.735  23.094   5.892
 4699POPC   C1A60711  19.925  22.793   6.266
 4699POPC   D2A60712  19.745  23.096   6.522
 4699POPC   C3A60713  19.891  23.147   6.958
 4699POPC   C4A60714  19.972  22.829   7.263
 4699POPC   C1B60715  19.418  22.894   6.164
 4699POPC   C2B60716  19.408  22.697   6.599
 4699POPC   C3B60717  19.494  22.774   7.049
 4699POPC   C4B60718  19.501  23.161   7.296
 4700POPC   NC360719  37.087  15.910   5.387
 4700POPC   PO460720  37.647  16.209   5.395
 4700POPC   GL160721  37.569  15.962   5.758
 4700POPC   GL260722  37.271  15.767   5.884
 4700POPC   C1A60723  37.758  16.019   6.154
 4700POPC   D2A60724  37.555  16.304   6.452
 4700POPC   C3A60725  37.740  16.260   6.839
 4700POPC   C4A60726  37.769  15.957   7.185
 4700POPC   C1B60727  37.341  15.814   6.357
 4700POPC   C2B60728  37.358  15.925   6.829
 4700POPC   C3B60729  37.261  15.997   7.281
 4700POPC   C4B60730  37.506  15.755   7.603
 4701POPC   NC360731  32.656  21.840   5.505
 4701POPC   PO460732  33.221  22.108   5.352
 4701POPC   GL160733  33.110  22.212   5.783
 4701POPC   GL260734  32.760  22.320   5.832
 4701POPC   C1A60735  33.019  22.063   6.209
 4701POPC   D2A60736  33.088  22.217   6.622
 4701POPC   C3A60737  33.119  21.842   6.888
 4701POPC   C4A60738  33.284  21.834   7.253
 4701POPC   C1B60739  32.761  22.497   6.266
 4701POPC   C2B60740  32.606  22.452   6.703
 4701POPC   C3B60741  32.690  22.644   7.123
 4701POPC   C4B60742  32.946  22.599   7.498
 4702POPC   NC360743  36.445  16.320   5.577
 4702POPC   PO460744  36.686  15.702   5.405
 4702POPC   GL160745  36.741  15.932   5.785
 4702POPC   GL260746  36.968  16.182   5.842
 4702POPC   C1A60747  36.858  15.794   6.197
 4702POPC   D2A60748  36.925  16.020   6.576
 4702POPC   C3A60749  36.878  15.774   6.936
 4702POPC   C4A60750  36.733  15.841   7.330
 4702POPC   C1B60751  36.710  16.320   6.194
 4702POPC   C2B60752  36.586  16.391   6.657
 4702POPC   C3B60753  36.792  16.268   7.064
 4702POPC   C4B60754  36.912  16.280   7.555
 4703POPC   NC360755  24.946   3.671   5.446
 4703POPC   PO460756  25.633   3.895   5.400
 4703POPC   GL160757  25.505   3.575   5.750
 4703POPC   GL260758  25.182   3.361   5.800
 4703POPC   C1A60759  25.558   3.473   6.192
 4703POPC   D2A60760  25.342   3.699   6.542
 4703POPC   C3A60761  25.490   3.647   6.966
 4703POPC   C4A60762  25.095   3.503   7.123
 4703POPC   C1B60763  24.977   3.639   6.135
 4703POPC   C2B60764  24.809   3.664   6.574
 4703POPC   C3B60765  24.862   3.928   6.951
 4703POPC   C4B60766  24.790   3.856   7.337
 4704POPC   NC360767   5.925  41.600   5.375
 4704POPC   PO460768   5.551  42.074   5.635
 4704POPC   GL160769   5.814  41.816   5.885
 4704POPC   GL260770   5.778  41.455   5.843
 4704POPC   C1A60771   6.021  41.834   6.285
 4704POPC   D2A60772   6.137  41.636   6.710
 4704POPC   C3A60773   5.933  41.724   7.122
 4704POPC   C4A60774   6.025  41.533   7.526
 4704POPC   C1B60775   5.856  41.372   6.304
 4704POPC   C2B60776   5.702  41.385   6.762
 4704POPC   C3B60777   5.741  41.237   7.216
 4704POPC   C4B60778   5.569  41.270   7.647
 4705POPC   NC360779   3.352  30.593   5.171
 4705POPC   PO460780   3.709  31.003   5.586
 4705POPC   GL160781   3.390  30.859   5.847
 4705POPC   GL260782   3.383  30.488   5.786
 4705POPC   C1A60783   3.438  30.675   6.276
 4705POPC   D2A60784   3.776  30.592   6.583
 4705POPC   C3A60785   3.737  30.895   6.928
 4705POPC   C4A60786   3.377  31.012   7.184
 4705POPC   C1B60787   3.187  30.221   6.142
 4705POPC   C2B60788   3.155  30.350   6.598
 4705POPC   C3B60789   3.431  30.482   6.959
 4705POPC   C4B60790   3.509  30.283   7.333
 4706POPC   NC360791  41.335   7.588   5.450
 4706POPC   PO460792  41.989   7.653   5.416
 4706POPC   GL160793  41.834   7.428   5.805
 4706POPC   GL260794  41.576   7.148   5.827
 4706POPC   C1A60795  41.566   7.529   6.168
 4706POPC   D2A60796  41.405   7.591   6.590
 4706POPC   C3A60797  41.618   7.573   6.942
 4706POPC   C4A60798  41.467   7.732   7.294
 4706POPC   C1B60799  41.411   7.038   6.276
 4706POPC   C2B60800  41.513   7.095   6.739
 4706POPC   C3B60801  41.280   7.253   7.124
 4706POPC   C4B60802  40.848   7.318   7.318
 4707POPC   NC360803  12.256  24.917   5.597
 4707POPC   PO460804  11.953  25.481   5.338
 4707POPC   GL160805  12.051  25.330   5.809
 4707POPC   GL260806  11.924  25.000   5.974
 4707POPC   C1A60807  12.277  25.290   6.247
 4707POPC   D2A60808  12.195  25.503   6.646
 4707POPC   C3A60809  12.385  25.365   7.006
 4707POPC   C4A60810  12.207  25.318   7.409
 4707POPC   C1B60811  12.248  24.790   6.260
 4707POPC   C2B60812  12.325  24.939   6.710
 4707POPC   C3B60813  12.034  24.941   7.100
 4707POPC   C4B60814  12.085  24.870   7.581
 4708POPC   NC360815  37.448  22.869   5.598
 4708POPC   PO460816  37.387  23.446   5.358
 4708POPC   GL160817  37.632  23.318   5.795
 4708POPC   GL260818  37.903  23.024   5.812
 4708POPC   C1A60819  37.536  23.056   6.205
 4708POPC   D2A60820  37.338  23.057   6.603
 4708POPC   C3A60821  37.527  22.979   6.997
 4708POPC   C4A60822  37.838  23.135   7.248
 4708POPC   C1B60823  37.987  22.801   6.210
 4708POPC   C2B60824  37.763  22.719   6.616
 4708POPC   C3B60825  37.974  22.698   7.050
 4708POPC   C4B60826  37.938  22.425   7.427
 4709POPC   NC360827   6.586  35.146   4.895
 4709POPC   PO460828   6.903  35.506   5.336
 4709POPC   GL160829   6.685  35.317   5.697
 4709POPC   GL260830   6.963  35.151   5.817
 4709POPC   C1A60831   6.592  35.179   6.161
 4709POPC   D2A60832   6.562  35.015   6.596
 4709POPC   C3A60833   6.401  35.288   6.948
 4709POPC   C4A60834   6.401  35.748   7.094
 4709POPC   C1B60835   6.917  35.563   6.092
 4709POPC   C2B60836   6.751  35.587   6.521
 4709POPC   C3B60837   6.864  35.533   6.945
 4709POPC   C4B60838   6.954  35.539   7.354
 4710POPC   NC360839  37.955   8.348   5.205
 4710POPC   PO460840  37.371   8.534   5.470
 4710POPC   GL160841  37.600   8.260   5.794
 4710POPC   GL260842  37.336   8.090   5.859
 4710POPC   C1A60843  37.866   8.431   6.200
 4710POPC   D2A60844  38.029   8.503   6.632
 4710POPC   C3A60845  37.901   8.224   6.968
 4710POPC   C4A60846  37.648   7.914   7.195
 4710POPC   C1B60847  37.326   8.320   6.220
 4710POPC   C2B60848  37.557   8.239   6.564
 4710POPC   C3B60849  37.387   8.263   6.925
 4710POPC   C4B60850  37.331   8.429   7.298
 4711POPC   NC360851   3.623   5.068   5.323
 4711POPC   PO460852   3.100   4.782   5.668
 4711POPC   GL160853   3.342   5.004   5.969
 4711POPC   GL260854   3.655   5.121   5.856
 4711POPC   C1A60855   3.362   5.273   6.301
 4711POPC   D2A60856   3.284   5.052   6.661
 4711POPC   C3A60857   3.426   5.177   7.026
 4711POPC   C4A60858   3.805   5.236   7.207
 4711POPC   C1B60859   3.802   5.008   6.288
 4711POPC   C2B60860   3.808   4.933   6.761
 4711POPC   C3B60861   3.697   4.711   7.177
 4711POPC   C4B60862   3.914   4.746   7.631
 4712POPC   NC360863  20.765  11.487   5.327
 4712POPC   PO460864  20.856  10.867   5.614
 4712POPC   GL160865  20.774  11.144   5.927
 4712POPC   GL260866  20.663  11.478   5.836
 4712POPC   C1A60867  20.684  11.001   6.313
 4712POPC   D2A60868  20.630  10.785   6.666
 4712POPC   C3A60869  20.773  11.030   6.976
 4712POPC   C4A60870  20.517  11.245   7.183
 4712POPC   C1B60871  20.507  11.481   6.255
 4712POPC   C2B60872  20.728  11.446   6.652
 4712POPC   C3B60873  20.665  11.682   7.025
 4712POPC   C4B60874  20.229  11.658   7.227
 4713POPC   NC360875  37.946  28.817   5.408
 4713POPC   PO460876  37.413  28.485   5.299
 4713POPC   GL160877  37.523  28.216   5.658
 4713POPC   GL260878  37.879  28.277   5.746
 4713POPC   C1A60879  37.533  28.244   6.138
 4713POPC   D2A60880  37.650  28.586   6.426
 4713POPC   C3A60881  37.509  28.604   6.843
 4713POPC   C4A60882  37.726  28.506   7.211
 4713POPC   C1B60883  38.051  28.407   6.142
 4713POPC   C2B60884  38.116  28.301   6.549
 4713POPC   C3B60885  38.178  28.464   6.947
 4713POPC   C4B60886  38.205  28.277   7.327
 4714POPC   NC360887  16.639   1.450   5.082
 4714POPC   PO460888  17.076   1.105   5.422
 4714POPC   GL160889  16.881   1.216   5.765
 4714POPC   GL260890  16.727   0.913   5.853
 4714POPC   C1A60891  16.742   1.307   6.183
 4714POPC   D2A60892  16.816   1.151   6.576
 4714POPC   C3A60893  16.661   1.466   6.860
 4714POPC   C4A60894  16.524   1.491   7.278
 4714POPC   C1B60895  16.485   0.853   6.238
 4714POPC   C2B60896  16.324   0.998   6.629
 4714POPC   C3B60897  16.520   0.997   7.024
 4714POPC   C4B60898  16.254   0.821   7.286
 4715POPC   NC360899   2.065  41.887   5.444
 4715POPC   PO460900   2.362  41.334   5.546
 4715POPC   GL160901   2.132  41.552   5.837
 4715POPC   GL260902   2.403  41.803   5.852
 4715POPC   C1A60903   2.084  41.418   6.260
 4715POPC   D2A60904   2.372  41.238   6.577
 4715POPC   C3A60905   2.192  41.334   6.986
 4715POPC   C4A60906   1.738  41.266   7.038
 4715POPC   C1B60907   2.252  41.941   6.260
 4715POPC   C2B60908   2.213  42.127   6.666
 4715POPC   C3B60909   2.200  41.901   7.038
 4715POPC   C4B60910   1.832  41.747   7.197
 4716POPC   NC360911   9.035  22.416   5.507
 4716POPC   PO460912   9.136  21.781   5.412
 4716POPC   GL160913   8.888  22.048   5.796
 4716POPC   GL260914   9.145  22.195   5.982
 4716POPC   C1A60915   8.699  22.255   6.205
 4716POPC   D2A60916   8.677  22.110   6.651
 4716POPC   C3A60917   9.050  22.135   6.950
 4716POPC   C4A60918   9.193  21.975   7.377
 4716POPC   C1B60919   9.151  22.268   6.435
 4716POPC   C2B60920   8.939  22.584   6.653
 4716POPC   C3B60921   8.953  22.640   7.073
 4716POPC   C4B60922   9.299  22.466   7.294
 4717POPC   NC360923  19.078  39.863   5.452
 4717POPC   PO460924  19.138  40.536   5.555
 4717POPC   GL160925  19.176  40.201   5.876
 4717POPC   GL260926  18.806  40.096   5.870
 4717POPC   C1A60927  19.357  40.103   6.327
 4717POPC   D2A60928  19.467  39.767   6.653
 4717POPC   C3A60929  19.205  39.671   7.053
 4717POPC   C4A60930  19.047  40.039   7.342
 4717POPC   C1B60931  18.908  39.889   6.264
 4717POPC   C2B60932  18.892  39.944   6.734
 4717POPC   C3B60933  18.700  39.749   7.120
 4717POPC   C4B60934  18.640  39.832   7.587
 4718POPC   NC360935   3.245  17.524   5.433
 4718POPC   PO460936   3.646  17.964   5.361
 4718POPC   GL160937   3.589  17.758   5.721
 4718POPC   GL260938   3.255  17.882   5.801
 4718POPC   C1A60939   3.527  17.442   6.034
 4718POPC   D2A60940   3.397  17.526   6.445
 4718POPC   C3A60941   3.660  17.663   6.770
 4718POPC   C4A60942   3.486  17.411   7.058
 4718POPC   C1B60943   3.036  17.606   6.085
 4718POPC   C2B60944   2.908  17.662   6.517
 4718POPC   C3B60945   3.028  17.562   6.912
 4718POPC   C4B60946   3.063  17.246   7.267
 4719POPC   NC360947   1.060  38.586   5.138
 4719POPC   PO460948   1.356  38.937   5.589
 4719POPC   GL160949   1.157  38.514   5.657
 4719POPC   GL260950   1.393  38.214   5.669
 4719POPC   C1A60951   1.034  38.460   6.068
 4719POPC   D2A60952   1.169  38.601   6.518
 4719POPC   C3A60953   0.952  38.532   6.952
 4719POPC   C4A60954   1.063  38.762   7.348
 4719POPC   C1B60955   1.528  38.367   6.086
 4719POPC   C2B60956   1.632  38.349   6.548
 4719POPC   C3B60957   1.475  38.528   6.959
 4719POPC   C4B60958   1.290  38.314   7.306
 4720POPC   NC360959   4.002   9.769   5.390
 4720POPC   PO460960   4.645   9.818   5.318
 4720POPC   GL160961   4.311   9.828   5.768
 4720POPC   GL260962   3.878   9.865   5.857
 4720POPC   C1A60963   4.184   9.594   6.145
 4720POPC   D2A60964   4.038   9.456   6.545
 4720POPC   C3A60965   4.330   9.551   6.854
 4720POPC   C4A60966   4.257   9.602   7.263
 4720POPC   C1B60967   3.992  10.073   6.202
 4720POPC   C2B60968   4.160   9.973   6.580
 4720POPC   C3B60969   4.262  10.063   6.991
 4720POPC   C4B60970   4.137  10.084   7.405
 4721POPC   NC360971  37.017  42.717   5.516
 4721POPC   PO460972  36.771  43.297   5.503
 4721POPC   GL160973  36.826  43.073   5.881
 4721POPC   GL260974  37.178  43.080   5.842
 4721POPC   C1A60975  36.912  43.072   6.338
 4721POPC   D2A60976  36.760  42.887   6.730
 4721POPC   C3A60977  36.722  43.207   7.065
 4721POPC   C4A60978  37.080  43.455   7.222
 4721POPC   C1B60979  37.305  42.776   6.161
 4721POPC   C2B60980  37.383  42.914   6.559
 4721POPC   C3B60981  37.247  43.058   6.933
 4721POPC   C4B60982  37.005  42.815   7.180
 4722POPC   NC360983  44.029  14.431   5.311
 4722POPC   PO460984  43.479  14.507   5.703
 4722POPC   GL160985  43.895  14.517   5.798
 4722POPC   GL260986  43.972  14.201   5.772
 4722POPC   C1A60987  44.167  14.493   6.160
 4722POPC   D2A60988  44.226  14.234   6.515
 4722POPC   C3A60989  44.268  14.431   6.908
 4722POPC   C4A60990  44.295  14.158   7.244
 4722POPC   C1B60991  43.740  14.226   6.205
 4722POPC   C2B60992  43.752  14.433   6.561
 4722POPC   C3B60993  43.824  14.196   6.898
 4722POPC   C4B60994  43.790  14.056   7.274
 4723POPC   NC360995   6.845  37.578   5.486
 4723POPC   PO460996   6.135  37.492   5.372
 4723POPC   GL160997   6.304  37.571   5.772
 4723POPC   GL260998   6.494  37.911   5.805
 4723POPC   C1A60999   6.473  37.532   6.183
 4723POPC   D2A61000   6.426  37.865   6.446
 4723POPC   C3A61001   6.452  37.865   6.895
 4723POPC   C4A61002   6.625  37.616   7.266
 4723POPC   C1B61003   6.784  38.089   6.159
 4723POPC   C2B61004   6.914  37.948   6.586
 4723POPC   C3B61005   6.941  37.983   7.020
 4723POPC   C4B61006   7.091  37.847   7.402
 4724POPC   NC361007  18.739   1.959   5.472
 4724POPC   PO461008  19.303   1.531   5.651
 4724POPC   GL161009  19.040   1.815   5.874
 4724POPC   GL261010  19.186   2.152   5.900
 4724POPC   C1A61011  18.895   1.949   6.285
 4724POPC   D2A61012  19.082   2.007   6.688
 4724POPC   C3A61013  18.958   1.757   7.048
 4724POPC   C4A61014  18.936   1.785   7.511
 4724POPC   C1B61015  19.407   2.128   6.310
 4724POPC   C2B61016  19.503   2.316   6.724
 4724POPC   C3B61017  19.317   2.142   7.111
 4724POPC   C4B61018  19.321   2.107   7.526
 4725POPC   NC361019  19.551  42.767   5.115
 4725POPC   PO461020  20.054  42.501   5.495
 4725POPC   GL161021  19.893  42.372   5.852
 4725POPC   GL261022  19.595  42.156   5.784
 4725POPC   C1A61023  19.931  42.383   6.276
 4725POPC   D2A61024  19.788  42.181   6.632
 4725POPC   C3A61025  20.000  42.118   7.020
 4725POPC   C4A61026  19.937  42.502   7.240
 4725POPC   C1B61027  19.382  42.173   6.193
 4725POPC   C2B61028  19.288  42.129   6.643
 4725POPC   C3B61029  19.498  42.142   7.046
 4725POPC   C4B61030  19.672  41.818   7.308
 4726POPC   NC361031  35.796  19.248   5.559
 4726POPC   PO461032  35.150  19.342   5.311
 4726POPC   GL161033  35.326  19.160   5.759
 4726POPC   GL261034  35.625  18.910   5.906
 4726POPC   C1A61035  35.403  19.237   6.199
 4726POPC   D2A61036  35.470  19.043   6.584
 4726POPC   C3A61037  35.384  19.353   6.903
 4726POPC   C4A61038  35.500  19.445   7.321
 4726POPC   C1B61039  35.275  18.700   6.186
 4726POPC   C2B61040  35.048  18.717   6.598
 4726POPC   C3B61041  35.294  18.795   6.982
 4726POPC   C4B61042  35.220  19.013   7.346
 4727POPC   NC361043  21.991  23.355   5.469
 4727POPC   PO461044  22.463  23.765   5.389
 4727POPC   GL161045  22.333  23.577   5.779
 4727POPC   GL261046  22.093  23.823   5.791
 4727POPC   C1A61047  22.365  23.698   6.228
 4727POPC   D2A61048  22.413  23.496   6.631
 4727POPC   C3A61049  22.208  23.658   7.000
 4727POPC   C4A61050  22.265  23.614   7.443
 4727POPC   C1B61051  21.974  24.058   6.179
 4727POPC   C2B61052  22.094  23.977   6.600
 4727POPC   C3B61053  21.866  24.059   6.978
 4727POPC   C4B61054  22.074  24.075   7.355
 4728POPC   NC361055  36.892  41.932   5.330
 4728POPC   PO461056  36.580  42.541   5.391
 4728POPC   GL161057  36.651  42.436   5.790
 4728POPC   GL261058  36.521  42.105   5.757
 4728POPC   C1A61059  36.819  42.576   6.196
 4728POPC   D2A61060  37.105  42.464   6.536
 4728POPC   C3A61061  36.932  42.359   6.937
 4728POPC   C4A61062  36.590  42.549   7.127
 4728POPC   C1B61063  36.517  41.948   6.172
 4728POPC   C2B61064  36.773  42.045   6.536
 4728POPC   C3B61065  36.736  41.876   6.944
 4728POPC   C4B61066  36.647  42.071   7.314
 4729POPC   NC361067  33.519  15.254   5.305
 4729POPC   PO461068  33.891  14.764   5.323
 4729POPC   GL161069  33.797  14.957   5.733
 4729POPC   GL261070  33.745  15.304   5.790
 4729POPC   C1A61071  33.627  14.940   6.173
 4729POPC   D2A61072  33.431  14.956   6.584
 4729POPC   C3A61073  33.737  14.838   6.911
 4729POPC   C4A61074  33.965  14.954   7.262
 4729POPC   C1B61075  33.770  15.530   6.203
 4729POPC   C2B61076  33.579  15.503   6.583
 4729POPC   C3B61077  33.526  15.308   6.946
 4729POPC   C4B61078  33.727  15.399   7.289
 4730POPC   NC361079   3.157  19.810   5.450
 4730POPC   PO461080   2.485  19.934   5.391
 4730POPC   GL161081   2.701  19.796   5.733
 4730POPC   GL261082   2.438  19.674   5.894
 4730POPC   C1A61083   2.939  19.836   6.119
 4730POPC   D2A61084   3.185  19.629   6.450
 4730POPC   C3A61085   3.033  19.717   6.871
 4730POPC   C4A61086   2.680  19.579   7.073
 4730POPC   C1B61087   2.454  19.938   6.249
 4730POPC   C2B61088   2.578  19.906   6.674
 4730POPC   C3B61089   2.492  20.052   7.080
 4730POPC   C4B61090   2.443  19.828   7.454
 4731POPC   NC361091  41.150  15.775   5.371
 4731POPC   PO461092  41.614  16.224   5.369
 4731POPC   GL161093  41.465  16.001   5.749
 4731POPC   GL261094  41.406  15.622   5.821
 4731POPC   C1A61095  41.509  15.960   6.196
 4731POPC   D2A61096  41.526  16.181   6.554
 4731POPC   C3A61097  41.690  15.939   6.867
 4731POPC   C4A61098  41.717  15.810   7.259
 4731POPC   C1B61099  41.168  15.566   6.254
 4731POPC   C2B61100  41.255  15.689   6.709
 4731POPC   C3B61101  41.218  15.624   7.180
 4731POPC   C4B61102  41.304  15.670   7.663
 4732POPC   NC361103  15.156  38.351   5.347
 4732POPC   PO461104  15.683  38.379   5.749
 4732POPC   GL161105  15.281  38.477   5.931
 4732POPC   GL261106  15.013  38.245   5.844
 4732POPC   C1A61107  15.218  38.608   6.360
 4732POPC   D2A61108  15.308  38.702   6.765
 4732POPC   C3A61109  15.470  38.385   7.020
 4732POPC   C4A61110  15.408  38.574   7.395
 4732POPC   C1B61111  15.054  38.140   6.298
 4732POPC   C2B61112  15.064  38.230   6.735
 4732POPC   C3B61113  14.949  38.393   7.161
 4732POPC   C4B61114  15.092  38.262   7.628
 4733POPC   NC361115  37.710  41.361   5.263
 4733POPC   PO461116  37.618  40.718   5.348
 4733POPC   GL161117  37.759  41.117   5.735
 4733POPC   GL261118  37.812  41.522   5.732
 4733POPC   C1A61119  37.681  41.373   6.184
 4733POPC   D2A61120  37.579  41.636   6.549
 4733POPC   C3A61121  37.643  41.456   6.959
 4733POPC   C4A61122  37.412  41.361   7.328
 4733POPC   C1B61123  37.829  41.857   6.093
 4733POPC   C2B61124  37.917  42.020   6.525
 4733POPC   C3B61125  38.040  41.781   6.912
 4733POPC   C4B61126  38.110  41.937   7.331
 4734POPC   NC361127   4.634  25.361   5.415
 4734POPC   PO461128   4.190  24.876   5.395
 4734POPC   GL161129   4.246  25.124   5.747
 4734POPC   GL261130   4.564  25.051   5.835
 4734POPC   C1A61131   4.304  25.376   6.133
 4734POPC   D2A61132   4.082  25.416   6.503
 4734POPC   C3A61133   4.263  25.466   6.892
 4734POPC   C4A61134   4.103  25.542   7.303
 4734POPC   C1B61135   4.735  25.039   6.232
 4734POPC   C2B61136   4.920  24.961   6.624
 4734POPC   C3B61137   4.879  25.106   7.033
 4734POPC   C4B61138   4.551  25.278   7.313
 4735POPC   NC361139  35.712   2.733   5.277
 4735POPC   PO461140  35.092   2.796   5.270
 4735POPC   GL161141  35.297   2.653   5.716
 4735POPC   GL261142  35.602   2.454   5.748
 4735POPC   C1A61143  35.426   2.754   6.194
 4735POPC   D2A61144  35.178   2.818   6.575
 4735POPC   C3A61145  35.355   2.929   6.975
 4735POPC   C4A61146  35.145   2.880   7.381
 4735POPC   C1B61147  35.585   2.223   6.147
 4735POPC   C2B61148  35.482   2.376   6.564
 4735POPC   C3B61149  35.623   2.352   6.981
 4735POPC   C4B61150  35.638   2.635   7.293
 4736POPC   NC361151  23.017   7.684   5.238
 4736POPC   PO461152  23.038   7.000   5.250
 4736POPC   GL161153  23.032   7.174   5.720
 4736POPC   GL261154  22.674   7.203   5.918
 4736POPC   C1A61155  23.100   7.350   6.147
 4736POPC   D2A61156  23.033   7.177   6.563
 4736POPC   C3A61157  23.074   7.305   6.982
 4736POPC   C4A61158  22.728   7.293   7.252
 4736POPC   C1B61159  22.632   7.496   6.247
 4736POPC   C2B61160  22.514   7.785   6.522
 4736POPC   C3B61161  22.745   7.695   6.868
 4736POPC   C4B61162  22.690   7.816   7.257
 4737POPC   NC361163  42.407   7.881   5.476
 4737POPC   PO461164  42.314   8.468   5.115
 4737POPC   GL161165  42.354   8.393   5.599
 4737POPC   GL261166  42.032   8.203   5.721
 4737POPC   C1A61167  42.428   8.203   6.036
 4737POPC   D2A61168  42.251   8.159   6.426
 4737POPC   C3A61169  42.331   8.156   6.852
 4737POPC   C4A61170  42.371   8.155   7.265
 4737POPC   C1B61171  41.989   8.477   6.104
 4737POPC   C2B61172  41.793   8.445   6.491
 4737POPC   C3B61173  41.901   8.444   6.897
 4737POPC   C4B61174  41.975   8.446   7.299
 4738POPC   NC361175  43.050  40.188   5.408
 4738POPC   PO461176  43.285  39.567   5.475
 4738POPC   GL161177  43.272  39.844   5.864
 4738POPC   GL261178  43.000  40.042   5.897
 4738POPC   C1A61179  43.228  39.954   6.348
 4738POPC   D2A61180  43.440  40.068   6.753
 4738POPC   C3A61181  43.213  40.051   7.147
 4738POPC   C4A61182  42.782  39.889   7.170
 4738POPC   C1B61183  42.818  40.282   6.253
 4738POPC   C2B61184  42.926  40.252   6.712
 4738POPC   C3B61185  42.867  40.446   7.109
 4738POPC   C4B61186  42.906  40.276   7.536
 4739POPC   NC361187  26.547  31.232   5.304
 4739POPC   PO461188  25.903  31.581   5.269
 4739POPC   GL161189  26.167  31.467   5.585
 4739POPC   GL261190  26.097  31.786   5.726
 4739POPC   C1A61191  26.131  31.390   6.030
 4739POPC   D2A61192  26.098  31.470   6.465
 4739POPC   C3A61193  26.124  31.181   6.813
 4739POPC   C4A61194  25.931  31.323   7.197
 4739POPC   C1B61195  26.415  31.826   6.094
 4739POPC   C2B61196  26.566  31.647   6.509
 4739POPC   C3B61197  26.432  31.572   6.946
 4739POPC   C4B61198  26.364  31.949   7.209
 4740POPC   NC361199  38.168  44.470   5.526
 4740POPC   PO461200  37.672  44.847   5.479
 4740POPC   GL161201  37.672  44.654   5.849
 4740POPC   GL261202  37.736  44.306   5.772
 4740POPC   C1A61203  37.638  44.866   6.254
 4740POPC   D2A61204  37.772   0.119   6.600
 4740POPC   C3A61205  37.702  44.896   6.984
 4740POPC   C4A61206  37.450  44.970   7.312
 4740POPC   C1B61207  37.621  44.330   6.238
 4740POPC   C2B61208  37.704  44.501   6.656
 4740POPC   C3B61209  37.854  44.353   7.063
 4740POPC   C4B61210  37.779  44.193   7.479
 4741POPC   NC361211  26.242   5.821   5.314
 4741POPC   PO461212  25.740   6.287   5.405
 4741POPC   GL161213  26.000   6.075   5.729
 4741POPC   GL261214  26.367   6.112   5.765
 4741POPC   C1A61215  26.045   5.858   6.145
 4741POPC   D2A61216  26.180   5.676   6.570
 4741POPC   C3A61217  26.153   5.787   7.013
 4741POPC   C4A61218  25.877   5.661   7.354
 4741POPC   C1B61219  26.505   6.056   6.220
 4741POPC   C2B61220  26.573   6.020   6.691
 4741POPC   C3B61221  26.364   6.271   7.053
 4741POPC   C4B61222  26.127   6.113   7.428
 4742POPC   NC361223   2.407   7.453   5.487
 4742POPC   PO461224   3.020   7.157   5.408
 4742POPC   GL161225   2.853   7.287   5.829
 4742POPC   GL261226   2.692   7.629   5.875
 4742POPC   C1A61227   2.974   7.507   6.259
 4742POPC   D2A61228   2.679   7.606   6.599
 4742POPC   C3A61229   2.777   7.461   6.995
 4742POPC   C4A61230   3.144   7.659   7.096
 4742POPC   C1B61231   2.499   7.316   6.199
 4742POPC   C2B61232   2.379   7.161   6.622
 4742POPC   C3B61233   2.373   7.146   7.065
 4742POPC   C4B61234   2.325   7.489   7.373
 4743POPC   NC361235  11.335  15.474   5.254
 4743POPC   PO461236  11.068  14.892   5.405
 4743POPC   GL161237  11.094  15.185   5.754
 4743POPC   GL261238  11.186  15.573   5.730
 4743POPC   C1A61239  11.045  14.957   6.141
 4743POPC   D2A61240  11.190  15.078   6.533
 4743POPC   C3A61241  11.029  14.956   6.908
 4743POPC   C4A61242  11.183  15.092   7.269
 4743POPC   C1B61243  11.346  15.729   6.123
 4743POPC   C2B61244  11.331  15.580   6.534
 4743POPC   C3B61245  11.198  15.450   6.906
 4743POPC   C4B61246  11.398  15.580   7.265
 4744POPC   NC361247   4.781  33.903   5.326
 4744POPC   PO461248   5.281  33.496   5.363
 4744POPC   GL161249   5.163  33.803   5.749
 4744POPC   GL261250   4.859  34.044   5.815
 4744POPC   C1A61251   5.180  33.727   6.230
 4744POPC   D2A61252   5.380  33.611   6.638
 4744POPC   C3A61253   5.177  33.611   7.032
 4744POPC   C4A61254   4.799  33.485   7.207
 4744POPC   C1B61255   5.029  34.204   6.213
 4744POPC   C2B61256   5.014  34.023   6.661
 4744POPC   C3B61257   4.823  33.990   7.068
 4744POPC   C4B61258   4.973  34.122   7.430
 4745POPC   NC361259  18.407   5.242   5.489
 4745POPC   PO461260  18.501   4.670   5.766
 4745POPC   GL161261  18.193   4.924   5.965
 4745POPC   GL261262  18.233   5.293   5.964
 4745POPC   C1A61263  18.282   4.999   6.398
 4745POPC   D2A61264  18.593   4.777   6.675
 4745POPC   C3A61265  18.412   4.818   7.081
 4745POPC   C4A61266  17.992   5.016   7.078
 4745POPC   C1B61267  18.584   5.398   6.241
 4745POPC   C2B61268  18.600   5.303   6.693
 4745POPC   C3B61269  18.419   5.367   7.116
 4745POPC   C4B61270  18.392   5.674   7.499
 4746POPC   NC361271  37.821  13.326   5.542
 4746POPC   PO461272  37.500  12.620   5.569
 4746POPC   GL161273  37.612  12.687   5.973
 4746POPC   GL261274  37.745  12.972   5.889
 4746POPC   C1A61275  37.833  12.651   6.394
 4746POPC   D2A61276  37.924  12.740   6.870
 4746POPC   C3A61277  37.565  12.905   7.127
 4746POPC   C4A61278  37.455  13.099   7.541
 4746POPC   C1B61279  37.938  13.176   6.234
 4746POPC   C2B61280  37.863  13.206   6.680
 4746POPC   C3B61281  38.121  13.250   7.027
 4746POPC   C4B61282  38.029  13.205   7.462
 4747POPC   NC361283  43.120  44.681   4.945
 4747POPC   PO461284  43.164  44.953   5.567
 4747POPC   GL161285  43.313  44.754   5.900
 4747POPC   GL261286  43.011  44.561   5.962
 4747POPC   C1A61287  43.317  44.846   6.309
 4747POPC   D2A61288  43.286  44.620   6.648
 4747POPC   C3A61289  43.452  44.803   6.945
 4747POPC   C4A61290  43.163  44.836   7.244
 4747POPC   C1B61291  42.830  44.304   6.268
 4747POPC   C2B61292  42.990  44.182   6.652
 4747POPC   C3B61293  42.895  44.472   6.956
 4747POPC   C4B61294  42.975  44.399   7.370
 4748POPC   NC361295   2.296   8.146   5.473
 4748POPC   PO461296   2.976   8.130   5.457
 4748POPC   GL161297   2.831   8.141   5.877
 4748POPC   GL261298   2.543   8.356   5.863
 4748POPC   C1A61299   2.586   8.017   6.265
 4748POPC   D2A61300   2.378   8.024   6.683
 4748POPC   C3A61301   2.693   7.974   7.023
 4748POPC   C4A61302   2.918   8.162   7.373
 4748POPC   C1B61303   2.738   8.517   6.226
 4748POPC   C2B61304   2.524   8.514   6.614
 4748POPC   C3B61305   2.707   8.486   6.987
 4748POPC   C4B61306   2.547   8.487   7.378
 4749POPC   NC361307   7.501  27.931   5.603
 4749POPC   PO461308   6.943  27.616   5.459
 4749POPC   GL161309   7.090  27.693   5.861
 4749POPC   GL261310   6.973  28.048   5.774
 4749POPC   C1A61311   7.467  27.594   6.172
 4749POPC   D2A61312   7.590  27.457   6.608
 4749POPC   C3A61313   7.699  27.805   6.928
 4749POPC   C4A61314   7.590  27.593   7.281
 4749POPC   C1B61315   7.192  28.082   6.171
 4749POPC   C2B61316   7.361  27.928   6.542
 4749POPC   C3B61317   7.215  27.722   6.906
 4749POPC   C4B61318   7.151  27.932   7.295
 4750POPC   NC361319  14.330  35.167   5.373
 4750POPC   PO461320  14.407  35.775   5.569
 4750POPC   GL161321  14.553  35.426   5.853
 4750POPC   GL261322  14.577  35.041   5.803
 4750POPC   C1A61323  14.394  35.344   6.277
 4750POPC   D2A61324  14.280  35.549   6.671
 4750POPC   C3A61325  14.381  35.351   7.072
 4750POPC   C4A61326  14.002  35.369   7.335
 4750POPC   C1B61327  14.585  34.873   6.214
 4750POPC   C2B61328  14.314  34.905   6.575
 4750POPC   C3B61329  14.494  34.793   6.936
 4750POPC   C4B61330  14.723  34.954   7.260
 4751POPC   NC361331   3.634  40.292   5.707
 4751POPC   PO461332   3.481  40.887   5.429
 4751POPC   GL161333   3.469  40.736   5.871
 4751POPC   GL261334   3.826  40.703   5.951
 4751POPC   C1A61335   3.489  40.450   6.290
 4751POPC   D2A61336   3.346  40.257   6.664
 4751POPC   C3A61337   3.459  40.576   6.918
 4751POPC   C4A61338   3.223  40.898   7.117
 4751POPC   C1B61339   3.590  40.980   6.286
 4751POPC   C2B61340   3.480  41.101   6.715
 4751POPC   C3B61341   3.742  40.979   7.094
 4751POPC   C4B61342   3.976  40.587   7.185
 4752POPC   NC361343  11.976  42.602   5.576
 4752POPC   PO461344  12.529  42.910   5.590
 4752POPC   GL161345  12.157  42.989   5.855
 4752POPC   GL261346  12.358  43.295   5.931
 4752POPC   C1A61347  11.913  42.826   6.257
 4752POPC   D2A61348  12.108  42.988   6.674
 4752POPC   C3A61349  12.231  42.811   7.021
 4752POPC   C4A61350  12.162  42.859   7.423
 4752POPC   C1B61351  12.443  43.627   6.247
 4752POPC   C2B61352  12.296  43.656   6.661
 4752POPC   C3B61353  11.973  43.405   6.909
 4752POPC   C4B61354  11.916  43.286   7.339
 4753POPC   NC361355  11.768  10.253   5.413
 4753POPC   PO461356  11.432   9.613   5.167
 4753POPC   GL161357  11.429   9.564   5.630
 4753POPC   GL261358  11.134   9.348   5.740
 4753POPC   C1A61359  11.519   9.641   6.066
 4753POPC   D2A61360  11.484   9.460   6.478
 4753POPC   C3A61361  11.433   9.779   6.768
 4753POPC   C4A61362  11.481   9.677   7.164
 4753POPC   C1B61363  11.069   9.437   6.169
 4753POPC   C2B61364  10.942   9.431   6.609
 4753POPC   C3B61365  10.995   9.650   6.982
 4753POPC   C4B61366  10.818  10.048   7.048
 4754POPC   NC361367   9.496  27.150   5.477
 4754POPC   PO461368   9.721  27.815   5.546
 4754POPC   GL161369   9.713  27.478   5.870
 4754POPC   GL261370  10.027  27.284   5.961
 4754POPC   C1A61371   9.662  27.654   6.290
 4754POPC   D2A61372   9.399  27.583   6.661
 4754POPC   C3A61373   9.574  27.673   7.065
 4754POPC   C4A61374   9.730  27.891   7.416
 4754POPC   C1B61375   9.825  27.158   6.352
 4754POPC   C2B61376   9.885  27.424   6.712
 4754POPC   C3B61377  10.089  27.592   7.053
 4754POPC   C4B61378   9.958  27.223   7.263
 4755POPC   NC361379  20.439  18.213   5.053
 4755POPC   PO461380  20.729  18.065   5.665
 4755POPC   GL161381  20.471  18.324   5.865
 4755POPC   GL261382  20.268  18.014   5.842
 4755POPC   C1A61383  20.643  18.487   6.276
 4755POPC   D2A61384  20.928  18.427   6.645
 4755POPC   C3A61385  20.743  18.285   7.042
 4755POPC   C4A61386  20.329  18.311   7.256
 4755POPC   C1B61387  20.441  17.997   6.261
 4755POPC   C2B61388  20.382  18.206   6.641
 4755POPC   C3B61389  20.400  17.905   6.936
 4755POPC   C4B61390  20.534  17.822   7.320
 4756POPC   NC361391  20.874   6.921   5.612
 4756POPC   PO461392  20.811   6.283   5.459
 4756POPC   GL161393  20.655   6.493   5.833
 4756POPC   GL261394  20.362   6.750   5.774
 4756POPC   C1A61395  20.869   6.470   6.247
 4756POPC   D2A61396  20.756   6.277   6.630
 4756POPC   C3A61397  20.623   6.490   6.995
 4756POPC   C4A61398  20.826   6.590   7.387
 4756POPC   C1B61399  20.523   6.837   6.203
 4756POPC   C2B61400  20.737   6.842   6.600
 4756POPC   C3B61401  20.731   6.987   7.013
 4756POPC   C4B61402  20.440   6.881   7.342
 4757POPC   NC361403  40.144  39.583   5.091
 4757POPC   PO461404  39.805  40.022   5.432
 4757POPC   GL161405  40.073  39.994   5.762
 4757POPC   GL261406  40.211  39.702   5.615
 4757POPC   C1A61407  39.954  39.950   6.230
 4757POPC   D2A61408  39.963  40.060   6.677
 4757POPC   C3A61409  39.828  39.813   7.042
 4757POPC   C4A61410  39.858  39.927   7.498
 4757POPC   C1B61411  40.272  39.583   6.046
 4757POPC   C2B61412  40.387  39.733   6.463
 4757POPC   C3B61413  40.321  39.710   6.896
 4757POPC   C4B61414  40.300  39.820   7.333
 4758POPC   NC361415  23.687  14.314   5.105
 4758POPC   PO461416  23.738  14.047   5.698
 4758POPC   GL161417  23.781  14.366   6.032
 4758POPC   GL261418  23.625  14.698   5.951
 4758POPC   C1A61419  23.628  14.318   6.431
 4758POPC   D2A61420  23.530  14.054   6.737
 4758POPC   C3A61421  23.505  14.247   7.093
 4758POPC   C4A61422  23.877  14.452   7.175
 4758POPC   C1B61423  23.425  14.799   6.353
 4758POPC   C2B61424  23.437  14.684   6.803
 4758POPC   C3B61425  23.440  14.711   7.264
 4758POPC   C4B61426  23.347  14.563   7.689
 4759POPC   NC361427   3.129   8.576   5.554
 4759POPC   PO461428   2.794   9.122   5.297
 4759POPC   GL161429   2.772   8.990   5.711
 4759POPC   GL261430   2.452   8.849   5.759
 4759POPC   C1A61431   2.861   9.039   6.146
 4759POPC   D2A61432   2.797   8.936   6.572
 4759POPC   C3A61433   3.092   9.061   6.875
 4759POPC   C4A61434   3.122   8.742   7.187
 4759POPC   C1B61435   2.355   8.848   6.198
 4759POPC   C2B61436   2.123   8.885   6.568
 4759POPC   C3B61437   2.266   8.832   6.970
 4759POPC   C4B61438   2.638   8.979   7.128
 4760POPC   NC361439  44.367  11.436   5.521
 4760POPC   PO461440   0.021  11.238   5.525
 4760POPC   GL161441  44.782  11.408   5.866
 4760POPC   GL261442  44.619  11.102   5.899
 4760POPC   C1A61443  44.486  11.479   6.238
 4760POPC   D2A61444  44.350  11.353   6.680
 4760POPC   C3A61445  44.621  11.539   6.996
 4760POPC   C4A61446  44.737  11.434   7.435
 4760POPC   C1B61447  44.416  10.965   6.283
 4760POPC   C2B61448  44.483  10.830   6.693
 4760POPC   C3B61449  44.582  11.019   7.076
 4760POPC   C4B61450  44.590  10.948   7.511
 4761POPC   NC361451  17.479  38.111   5.299
 4761POPC   PO461452  17.865  37.519   5.177
 4761POPC   GL161453  17.624  37.701   5.654
 4761POPC   GL261454  17.606  37.395   5.917
 4761POPC   C1A61455  17.253  37.726   6.009
 4761POPC   D2A61456  17.041  37.653   6.424
 4761POPC   C3A61457  17.215  37.632   6.843
 4761POPC   C4A61458  17.154  37.781   7.250
 4761POPC   C1B61459  17.820  37.581   6.239
 4761POPC   C2B61460  17.669  37.668   6.619
 4761POPC   C3B61461  17.680  37.468   7.005
 4761POPC   C4B61462  17.615  37.487   7.422
 4762POPC   NC361463   4.499  38.173   4.994
 4762POPC   PO461464   4.261  37.687   5.387
 4762POPC   GL161465   4.349  37.560   5.785
 4762POPC   GL261466   3.985  37.536   5.830
 4762POPC   C1A61467   4.417  37.488   6.234
 4762POPC   D2A61468   4.428  37.846   6.544
 4762POPC   C3A61469   4.369  37.786   6.997
 4762POPC   C4A61470   4.477  37.469   7.310
 4762POPC   C1B61471   4.051  37.819   6.160
 4762POPC   C2B61472   3.959  37.641   6.565
 4762POPC   C3B61473   3.839  37.881   6.900
 4762POPC   C4B61474   3.943  37.758   7.314
 4763POPC   NC361475  38.440   7.080   5.459
 4763POPC   PO461476  38.551   6.438   5.475
 4763POPC   GL161477  38.319   6.706   5.809
 4763POPC   GL261478  38.130   7.031   5.921
 4763POPC   C1A61479  38.333   6.693   6.251
 4763POPC   D2A61480  38.522   6.439   6.542
 4763POPC   C3A61481  38.480   6.616   6.912
 4763POPC   C4A61482  38.590   6.789   7.277
 4763POPC   C1B61483  37.887   6.943   6.318
 4763POPC   C2B61484  38.031   6.749   6.710
 4763POPC   C3B61485  38.057   6.718   7.169
 4763POPC   C4B61486  37.969   6.955   7.548
 4764POPC   NC361487  22.664  24.171   5.479
 4764POPC   PO461488  23.142  24.703   5.431
 4764POPC   GL161489  22.975  24.609   5.846
 4764POPC   GL261490  22.941  24.252   5.922
 4764POPC   C1A61491  22.773  24.632   6.233
 4764POPC   D2A61492  22.789  24.502   6.624
 4764POPC   C3A61493  23.035  24.671   6.954
 4764POPC   C4A61494  22.751  24.456   7.167
 4764POPC   C1B61495  23.194  24.330   6.324
 4764POPC   C2B61496  23.170  24.203   6.768
 4764POPC   C3B61497  23.225  24.238   7.212
 4764POPC   C4B61498  23.320  24.108   7.693
 4765POPC   NC361499   4.664  41.129   5.469
 4765POPC   PO461500   4.821  41.706   5.411
 4765POPC   GL161501   5.151  41.625   5.790
 4765POPC   GL261502   5.027  41.376   6.029
 4765POPC   C1A61503   5.419  41.640   6.198
 4765POPC   D2A61504   5.141  41.554   6.554
 4765POPC   C3A61505   5.222  41.422   6.959
 4765POPC   C4A61506   5.245  41.557   7.377
 4765POPC   C1B61507   4.768  41.685   6.227
 4765POPC   C2B61508   4.740  41.952   6.598
 4765POPC   C3B61509   4.857  41.850   7.061
 4765POPC   C4B61510   4.779  41.745   7.515
 4766POPC   NC361511  32.051  38.625   5.415
 4766POPC   PO461512  32.424  38.088   5.204
 4766POPC   GL161513  32.247  38.223   5.625
 4766POPC   GL261514  32.410  38.567   5.762
 4766POPC   C1A61515  32.076  38.296   6.062
 4766POPC   D2A61516  32.243  38.462   6.453
 4766POPC   C3A61517  32.119  38.235   6.822
 4766POPC   C4A61518  32.161  38.085   7.235
 4766POPC   C1B61519  32.678  38.781   6.087
 4766POPC   C2B61520  32.622  38.834   6.516
 4766POPC   C3B61521  32.697  38.735   6.945
 4766POPC   C4B61522  32.325  38.581   7.163
 4767POPC   NC361523   9.414  40.415   5.365
 4767POPC   PO461524   9.932  40.062   5.588
 4767POPC   GL161525   9.763  39.782   5.907
 4767POPC   GL261526  10.027  39.565   5.942
 4767POPC   C1A61527   9.557  39.947   6.286
 4767POPC   D2A61528   9.858  40.227   6.501
 4767POPC   C3A61529   9.789  40.448   6.858
 4767POPC   C4A61530   9.518  40.254   7.112
 4767POPC   C1B61531   9.943  39.671   6.395
 4767POPC   C2B61532   9.827  39.797   6.814
 4767POPC   C3B61533   9.931  39.567   7.189
 4767POPC   C4B61534  10.030  39.453   7.607
 4768POPC   NC361535  32.976  29.376   5.382
 4768POPC   PO461536  33.349  28.824   5.382
 4768POPC   GL161537  33.148  29.065   5.771
 4768POPC   GL261538  32.892  29.301   5.868
 4768POPC   C1A61539  32.942  28.953   6.215
 4768POPC   D2A61540  32.749  28.743   6.594
 4768POPC   C3A61541  32.949  28.886   6.936
 4768POPC   C4A61542  33.008  29.002   7.321
 4768POPC   C1B61543  33.047  29.484   6.234
 4768POPC   C2B61544  32.971  29.628   6.631
 4768POPC   C3B61545  32.968  29.412   7.027
 4768POPC   C4B61546  32.640  29.342   7.387
 4769POPC   NC361547  15.125  34.967   5.294
 4769POPC   PO461548  15.547  34.442   5.350
 4769POPC   GL161549  15.266  34.605   5.670
 4769POPC   GL261550  15.258  34.275   5.824
 4769POPC   C1A61551  15.132  34.698   6.090
 4769POPC   D2A61552  15.347  34.616   6.480
 4769POPC   C3A61553  15.062  34.769   6.793
 4769POPC   C4A61554  15.239  34.856   7.196
 4769POPC   C1B61555  15.192  34.168   6.236
 4769POPC   C2B61556  15.029  34.239   6.632
 4769POPC   C3B61557  15.204  34.336   7.015
 4769POPC   C4B61558  14.837  34.482   7.151
 4770POPC   NC361559  39.777   8.397   5.424
 4770POPC   PO461560  40.275   7.919   5.478
 4770POPC   GL161561  40.176   8.215   5.836
 4770POPC   GL261562  39.877   8.440   5.905
 4770POPC   C1A61563  40.069   8.124   6.287
 4770POPC   D2A61564  39.848   8.242   6.675
 4770POPC   C3A61565  40.083   8.263   7.066
 4770POPC   C4A61566  39.964   8.325   7.527
 4770POPC   C1B61567  39.581   8.523   6.231
 4770POPC   C2B61568  39.633   8.716   6.608
 4770POPC   C3B61569  39.710   8.650   7.014
 4770POPC   C4B61570  39.699   8.801   7.410
 4771POPC   NC361571  13.301  44.547   5.378
 4771POPC   PO461572  12.625  44.621   5.435
 4771POPC   GL161573  12.919  44.466   5.786
 4771POPC   GL261574  13.237  44.324   5.896
 4771POPC   C1A61575  12.841  44.467   6.257
 4771POPC   D2A61576  12.688  44.526   6.711
 4771POPC   C3A61577  12.786  44.867   7.044
 4771POPC   C4A61578  12.704  44.836   7.502
 4771POPC   C1B61579  13.291  44.284   6.373
 4771POPC   C2B61580  13.212  44.619   6.686
 4771POPC   C3B61581  13.218  44.587   7.130
 4771POPC   C4B61582  13.181  44.241   7.407
 4772POPC   NC361583  22.715  29.910   5.399
 4772POPC   PO461584  23.203  30.299   5.302
 4772POPC   GL161585  23.258  30.066   5.729
 4772POPC   GL261586  23.014  29.781   5.787
 4772POPC   C1A61587  23.268  29.945   6.187
 4772POPC   D2A61588  23.096  30.091   6.580
 4772POPC   C3A61589  23.341  30.193   6.982
 4772POPC   C4A61590  23.046  30.076   7.315
 4772POPC   C1B61591  22.759  30.028   6.087
 4772POPC   C2B61592  22.575  29.986   6.500
 4772POPC   C3B61593  22.773  29.887   6.903
 4772POPC   C4B61594  22.570  29.823   7.265
 4773POPC   NC361595  44.300  10.710   5.406
 4773POPC   PO461596  44.865  10.373   5.329
 4773POPC   GL161597  44.884  10.619   5.744
 4773POPC   GL261598  44.536  10.600   5.851
 4773POPC   C1A61599  44.855  10.689   6.224
 4773POPC   D2A61600  44.834  10.420   6.590
 4773POPC   C3A61601  44.783  10.533   7.004
 4773POPC   C4A61602   0.006  10.754   7.260
 4773POPC   C1B61603  44.503  10.299   6.201
 4773POPC   C2B61604  44.313  10.352   6.622
 4773POPC   C3B61605  44.426  10.171   7.001
 4773POPC   C4B61606  44.552   9.975   7.336
 4774POPC   NC361607  14.595   2.567   5.382
 4774POPC   PO461608  14.164   3.144   5.258
 4774POPC   GL161609  14.221   2.880   5.635
 4774POPC   GL261610  14.522   2.949   5.805
 4774POPC   C1A61611  14.219   2.592   6.044
 4774POPC   D2A61612  14.427   2.399   6.447
 4774POPC   C3A61613  14.270   2.567   6.856
 4774POPC   C4A61614  14.272   2.872   7.192
 4774POPC   C1B61615  14.717   2.737   6.162
 4774POPC   C2B61616  14.810   2.843   6.599
 4774POPC   C3B61617  14.779   2.634   6.985
 4774POPC   C4B61618  14.719   2.669   7.412
 4775POPC   NC361619  34.514  37.933   5.455
 4775POPC   PO461620  34.340  37.272   5.261
 4775POPC   GL161621  34.502  37.422   5.677
 4775POPC   GL261622  34.851  37.491   5.703
 4775POPC   C1A61623  34.355  37.409   6.135
 4775POPC   D2A61624  34.310  37.688   6.488
 4775POPC   C3A61625  34.461  37.557   6.888
 4775POPC   C4A61626  34.334  37.845   7.197
 4775POPC   C1B61627  34.762  37.727   6.080
 4775POPC   C2B61628  34.861  37.655   6.520
 4775POPC   C3B61629  34.971  37.707   6.960
 4775POPC   C4B61630  34.844  37.789   7.408
 4776POPC   NC361631  37.642  41.931   5.442
 4776POPC   PO461632  37.455  42.567   5.520
 4776POPC   GL161633  37.496  42.273   5.857
 4776POPC   GL261634  37.843  42.278   5.807
 4776POPC   C1A61635  37.413  42.093   6.302
 4776POPC   D2A61636  37.360  42.060   6.772
 4776POPC   C3A61637  37.729  42.181   7.011
 4776POPC   C4A61638  37.808  42.325   7.436
 4776POPC   C1B61639  37.795  42.534   6.180
 4776POPC   C2B61640  37.638  42.472   6.585
 4776POPC   C3B61641  37.408  42.572   6.937
 4776POPC   C4B61642  37.338  42.479   7.325
 4777POPC   NC361643  33.102  20.198   5.321
 4777POPC   PO461644  32.978  19.526   5.339
 4777POPC   GL161645  33.159  19.730   5.660
 4777POPC   GL261646  32.862  19.966   5.743
 4777POPC   C1A61647  33.097  19.645   6.077
 4777POPC   D2A61648  32.949  19.863   6.404
 4777POPC   C3A61649  33.129  19.824   6.798
 4777POPC   C4A61650  33.151  19.768   7.220
 4777POPC   C1B61651  33.165  20.169   6.050
 4777POPC   C2B61652  33.347  20.183   6.500
 4777POPC   C3B61653  33.391  20.226   6.959
 4777POPC   C4B61654  33.322  20.219   7.412
 4778POPC   NC361655  33.910  12.334   5.465
 4778POPC   PO461656  33.312  12.037   5.465
 4778POPC   GL161657  33.694  11.896   5.719
 4778POPC   GL261658  33.926  12.137   5.915
 4778POPC   C1A61659  33.752  11.739   6.158
 4778POPC   D2A61660  33.506  11.900   6.528
 4778POPC   C3A61661  33.702  11.860   6.968
 4778POPC   C4A61662  33.630  12.022   7.395
 4778POPC   C1B61663  33.978  12.353   6.290
 4778POPC   C2B61664  33.662  12.393   6.605
 4778POPC   C3B61665  33.741  12.379   7.022
 4778POPC   C4B61666  33.564  12.538   7.362
 4779POPC   NC361667  38.756  44.296   5.417
 4779POPC   PO461668  38.434  44.877   5.467
 4779POPC   GL161669  38.558  44.744   5.832
 4779POPC   GL261670  38.185  44.744   5.936
 4779POPC   C1A61671  38.544  44.876   6.270
 4779POPC   D2A61672  38.130  44.727   6.442
 4779POPC   C3A61673  38.163  44.692   6.845
 4779POPC   C4A61674  38.300  44.903   7.190
 4779POPC   C1B61675  38.405  44.394   6.158
 4779POPC   C2B61676  38.569  44.442   6.579
 4779POPC   C3B61677  38.618  44.525   7.015
 4779POPC   C4B61678  38.599  44.260   7.345
 4780POPC   NC361679   8.650  40.032   5.329
 4780POPC   PO461680   8.037  39.698   5.181
 4780POPC   GL161681   8.200  39.948   5.595
 4780POPC   GL261682   8.470  40.173   5.767
 4780POPC   C1A61683   8.097  39.920   6.047
 4780POPC   D2A61684   8.181  39.684   6.414
 4780POPC   C3A61685   8.052  39.798   6.809
 4780POPC   C4A61686   8.157  39.816   7.212
 4780POPC   C1B61687   8.553  40.082   6.181
 4780POPC   C2B61688   8.341  40.185   6.563
 4780POPC   C3B61689   8.451  40.171   7.007
 4780POPC   C4B61690   8.222  40.334   7.393
 4781POPC   NC361691  43.830  10.716   5.080
 4781POPC   PO461692  44.152  11.054   5.664
 4781POPC   GL161693  43.998  10.631   5.809
 4781POPC   GL261694  44.168  10.274   5.756
 4781POPC   C1A61695  44.090  10.582   6.219
 4781POPC   D2A61696  43.984  10.780   6.585
 4781POPC   C3A61697  43.780  10.551   6.884
 4781POPC   C4A61698  43.946  10.310   7.214
 4781POPC   C1B61699  43.814  10.198   6.063
 4781POPC   C2B61700  43.844  10.162   6.484
 4781POPC   C3B61701  43.990   9.989   6.838
 4781POPC   C4B61702  44.088   9.789   7.269
 4782POPC   NC361703  27.162  44.575   5.278
 4782POPC   PO461704  26.473  44.517   5.335
 4782POPC   GL161705  26.790  44.711   5.603
 4782POPC   GL261706  26.866  44.384   5.669
 4782POPC   C1A61707  26.883  44.818   6.045
 4782POPC   D2A61708  26.559  44.881   6.375
 4782POPC   C3A61709  26.716  44.896   6.777
 4782POPC   C4A61710  26.704  44.910   7.208
 4782POPC   C1B61711  26.979  44.320   6.103
 4782POPC   C2B61712  26.952  44.479   6.537
 4782POPC   C3B61713  26.786  44.394   6.965
 4782POPC   C4B61714  26.871  44.459   7.405
 4783POPC   NC361715  23.053  17.105   5.418
 4783POPC   PO461716  22.752  16.474   5.508
 4783POPC   GL161717  22.866  16.816   5.791
 4783POPC   GL261718  22.538  16.951   5.818
 4783POPC   C1A61719  23.133  16.810   6.172
 4783POPC   D2A61720  23.084  16.560   6.559
 4783POPC   C3A61721  23.137  16.734   6.986
 4783POPC   C4A61722  23.146  16.872   7.436
 4783POPC   C1B61723  22.618  16.712   6.227
 4783POPC   C2B61724  22.509  16.647   6.671
 4783POPC   C3B61725  22.701  16.385   6.975
 4783POPC   C4B61726  22.977  16.386   7.333
 4784POPC   NC361727  16.422  39.358   5.501
 4784POPC   PO461728  17.112  39.494   5.332
 4784POPC   GL161729  16.932  39.356   5.746
 4784POPC   GL261730  16.637  39.391   5.954
 4784POPC   C1A61731  17.020  39.130   6.143
 4784POPC   D2A61732  16.857  39.011   6.550
 4784POPC   C3A61733  16.890  39.227   6.913
 4784POPC   C4A61734  16.939  39.438   7.253
 4784POPC   C1B61735  16.460  39.028   6.176
 4784POPC   C2B61736  16.369  38.815   6.558
 4784POPC   C3B61737  16.256  38.957   6.948
 4784POPC   C4B61738  16.492  39.069   7.260
 4785POPC   NC361739  40.042  34.640   5.189
 4785POPC   PO461740  39.979  34.047   5.567
 4785POPC   GL161741  40.102  34.456   5.704
 4785POPC   GL261742  39.827  34.590   5.889
 4785POPC   C1A61743  40.286  34.539   6.122
 4785POPC   D2A61744  40.323  34.293   6.511
 4785POPC   C3A61745  40.242  34.517   6.882
 4785POPC   C4A61746  40.104  34.371   7.281
 4785POPC   C1B61747  39.836  34.877   6.251
 4785POPC   C2B61748  39.737  34.868   6.715
 4785POPC   C3B61749  39.916  34.841   7.146
 4785POPC   C4B61750  39.836  34.662   7.586
 4786POPC   NC361751  10.151  29.988   5.376
 4786POPC   PO461752  10.589  29.529   5.453
 4786POPC   GL161753  10.373  29.820   5.800
 4786POPC   GL261754  10.197  30.205   5.818
 4786POPC   C1A61755  10.533  29.725   6.204
 4786POPC   D2A61756  10.805  29.590   6.523
 4786POPC   C3A61757  10.607  29.779   6.880
 4786POPC   C4A61758  10.770  29.935   7.245
 4786POPC   C1B61759  10.444  30.268   6.178
 4786POPC   C2B61760  10.322  30.054   6.542
 4786POPC   C3B61761  10.191  30.146   6.925
 4786POPC   C4B61762  10.411  30.277   7.262
 4787POPC   NC361763  28.764   4.815   5.631
 4787POPC   PO461764  29.460   4.760   5.445
 4787POPC   GL161765  29.326   4.384   5.747
 4787POPC   GL261766  29.147   4.606   5.873
 4787POPC   C1A61767  29.144   4.190   6.174
 4787POPC   D2A61768  29.304   4.165   6.623
 4787POPC   C3A61769  29.067   4.220   7.025
 4787POPC   C4A61770  29.149   4.171   7.474
 4787POPC   C1B61771  29.109   4.710   6.260
 4787POPC   C2B61772  28.978   4.573   6.642
 4787POPC   C3B61773  29.028   4.754   7.038
 4787POPC   C4B61774  28.870   4.572   7.399
 4788POPC   NC361775   2.197  13.382   5.394
 4788POPC   PO461776   1.790  13.888   5.556
 4788POPC   GL161777   2.028  13.659   5.818
 4788POPC   GL261778   1.864  13.345   5.774
 4788POPC   C1A61779   2.039  13.584   6.246
 4788POPC   D2A61780   2.214  13.543   6.625
 4788POPC   C3A61781   1.985  13.673   6.950
 4788POPC   C4A61782   1.949  13.523   7.369
 4788POPC   C1B61783   1.689  13.241   6.164
 4788POPC   C2B61784   1.757  13.342   6.598
 4788POPC   C3B61785   1.691  13.219   7.005
 4788POPC   C4B61786   1.542  13.218   7.425
 4789POPC   NC361787  37.427  38.400   5.357
 4789POPC   PO461788  38.035  38.674   5.281
 4789POPC   GL161789  37.730  38.612   5.691
 4789POPC   GL261790  37.820  38.289   5.861
 4789POPC   C1A61791  37.474  38.540   6.123
 4789POPC   D2A61792  37.489  38.289   6.531
 4789POPC   C3A61793  37.738  38.473   6.880
 4789POPC   C4A61794  37.650  38.713   7.259
 4789POPC   C1B61795  37.941  38.194   6.311
 4789POPC   C2B61796  37.970  38.008   6.726
 4789POPC   C3B61797  37.947  38.080   7.179
 4789POPC   C4B61798  38.104  37.992   7.593
 4790POPC   NC361799  19.330   3.611   5.437
 4790POPC   PO461800  18.782   3.195   5.461
 4790POPC   GL161801  18.968   3.429   5.833
 4790POPC   GL261802  18.911   3.791   5.782
 4790POPC   C1A61803  19.194   3.404   6.280
 4790POPC   D2A61804  19.552   3.350   6.600
 4790POPC   C3A61805  19.474   3.316   7.077
 4790POPC   C4A61806  19.191   3.502   7.395
 4790POPC   C1B61807  19.086   3.925   6.208
 4790POPC   C2B61808  18.973   3.815   6.642
 4790POPC   C3B61809  18.872   3.819   7.098
 4790POPC   C4B61810  19.154   4.034   7.370
 4791POPC   NC361811  33.744  24.780   5.478
 4791POPC   PO461812  33.994  25.358   5.441
 4791POPC   GL161813  34.049  25.394   5.877
 4791POPC   GL261814  33.702  25.313   5.937
 4791POPC   C1A61815  34.039  25.283   6.313
 4791POPC   D2A61816  33.861  25.207   6.709
 4791POPC   C3A61817  34.116  25.167   7.038
 4791POPC   C4A61818  34.264  25.405   7.356
 4791POPC   C1B61819  33.512  25.379   6.370
 4791POPC   C2B61820  33.405  25.403   6.852
 4791POPC   C3B61821  33.452  25.408   7.306
 4791POPC   C4B61822  33.523  25.705   7.621
 4792POPC   NC361823  17.207  42.830   5.637
 4792POPC   PO461824  17.604  43.366   5.486
 4792POPC   GL161825  17.804  43.397   5.875
 4792POPC   GL261826  17.772  43.033   5.909
 4792POPC   C1A61827  17.765  43.343   6.317
 4792POPC   D2A61828  17.793  43.047   6.655
 4792POPC   C3A61829  17.784  43.242   7.049
 4792POPC   C4A61830  17.503  43.434   7.295
 4792POPC   C1B61831  17.474  42.916   6.257
 4792POPC   C2B61832  17.402  42.721   6.669
 4792POPC   C3B61833  17.331  42.958   7.038
 4792POPC   C4B61834  17.108  43.026   7.393
 4793POPC   NC361835  30.332  18.759   5.498
 4793POPC   PO461836  29.693  18.861   5.381
 4793POPC   GL161837  29.813  18.954   5.813
 4793POPC   GL261838  30.023  18.659   5.889
 4793POPC   C1A61839  29.820  19.349   6.100
 4793POPC   D2A61840  29.764  19.585   6.506
 4793POPC   C3A61841  30.003  19.384   6.830
 4793POPC   C4A61842  29.822  19.223   7.220
 4793POPC   C1B61843  30.311  18.729   6.218
 4793POPC   C2B61844  30.081  18.979   6.505
 4793POPC   C3B61845  29.859  18.839   6.885
 4793POPC   C4B61846  30.034  18.759   7.306
 4794POPC   NC361847  24.961  21.338   5.533
 4794POPC   PO461848  25.450  21.672   5.469
 4794POPC   GL161849  25.429  21.298   5.765
 4794POPC   GL261850  25.258  20.968   5.715
 4794POPC   C1A61851  25.361  21.326   6.219
 4794POPC   D2A61852  25.414  21.171   6.639
 4794POPC   C3A61853  25.578  21.485   6.944
 4794POPC   C4A61854  25.341  21.537   7.329
 4794POPC   C1B61855  24.947  21.037   6.111
 4794POPC   C2B61856  24.927  21.366   6.483
 4794POPC   C3B61857  25.041  21.430   6.919
 4794POPC   C4B61858  24.957  21.117   7.203
 4795POPC   NC361859  33.947  43.243   5.363
 4795POPC   PO461860  33.351  42.919   5.407
 4795POPC   GL161861  33.660  43.020   5.782
 4795POPC   GL261862  33.920  42.739   5.818
 4795POPC   C1A61863  33.592  43.236   6.220
 4795POPC   D2A61864  33.879  43.403   6.581
 4795POPC   C3A61865  33.899  43.119   6.952
 4795POPC   C4A61866  33.531  43.105   7.203
 4795POPC   C1B61867  33.700  42.709   6.235
 4795POPC   C2B61868  33.602  42.766   6.704
 4795POPC   C3B61869  33.604  42.603   7.144
 4795POPC   C4B61870  33.589  42.710   7.614
 4796POPC   NC361871  21.330   0.207   5.588
 4796POPC   PO461872  20.990   0.732   5.428
 4796POPC   GL161873  21.151   0.577   5.881
 4796POPC   GL261874  21.469   0.710   6.073
 4796POPC   C1A61875  21.093   0.423   6.330
 4796POPC   D2A61876  21.354   0.526   6.716
 4796POPC   C3A61877  21.250   0.490   7.175
 4796POPC   C4A61878  21.563   0.698   7.434
 4796POPC   C1B61879  21.615   0.302   6.292
 4796POPC   C2B61880  21.626   0.079   6.724
 4796POPC   C3B61881  21.713   0.281   7.152
 4796POPC   C4B61882  21.761   0.224   7.602
 4797POPC   NC361883  34.215  44.079   5.353
 4797POPC   PO461884  33.571  43.874   5.209
 4797POPC   GL161885  33.825  43.779   5.624
 4797POPC   GL261886  34.040  44.009   5.819
 4797POPC   C1A61887  33.757  43.727   6.123
 4797POPC   D2A61888  33.552  43.825   6.548
 4797POPC   C3A61889  33.522  43.556   6.921
 4797POPC   C4A61890  33.818  43.555   7.232
 4797POPC   C1B61891  33.994  44.262   6.201
 4797POPC   C2B61892  33.876  44.209   6.635
 4797POPC   C3B61893  33.813  44.063   7.071
 4797POPC   C4B61894  33.984  44.309   7.463
 4798POPC   NC361895   8.891  34.977   5.339
 4798POPC   PO461896   9.195  35.537   5.180
 4798POPC   GL161897   9.213  35.294   5.623
 4798POPC   GL261898   8.905  35.128   5.847
 4798POPC   C1A61899   9.310  35.351   6.086
 4798POPC   D2A61900   9.238  35.198   6.514
 4798POPC   C3A61901   9.253  35.483   6.861
 4798POPC   C4A61902   9.302  35.419   7.292
 4798POPC   C1B61903   8.660  34.958   6.247
 4798POPC   C2B61904   8.590  35.062   6.722
 4798POPC   C3B61905   8.626  34.920   7.183
 4798POPC   C4B61906   8.700  34.895   7.666
 4799POPC   NC361907   7.256  23.152   5.448
 4799POPC   PO461908   7.725  22.753   5.326
 4799POPC   GL161909   7.668  22.897   5.750
 4799POPC   GL261910   7.765  23.234   5.806
 4799POPC   C1A61911   7.638  22.817   6.228
 4799POPC   D2A61912   7.717  22.875   6.705
 4799POPC   C3A61913   7.365  22.897   7.006
 4799POPC   C4A61914   7.131  22.597   7.218
 4799POPC   C1B61915   7.597  23.333   6.256
 4799POPC   C2B61916   7.518  23.350   6.744
 4799POPC   C3B61917   7.647  23.255   7.224
 4799POPC   C4B61918   7.594  23.280   7.703
 4800POPC   NC361919  38.269   5.714   5.350
 4800POPC   PO461920  38.897   5.863   5.235
 4800POPC   GL161921  38.734   5.956   5.677
 4800POPC   GL261922  38.406   5.845   5.822
 4800POPC   C1A61923  38.737   6.092   6.127
 4800POPC   D2A61924  38.443   5.946   6.468
 4800POPC   C3A61925  38.598   5.830   6.898
 4800POPC   C4A61926  38.508   5.603   7.304
 4800POPC   C1B61927  38.231   6.222   6.045
 4800POPC   C2B61928  38.019   6.308   6.444
 4800POPC   C3B61929  38.176   6.197   6.850
 4800POPC   C4B61930  38.418   6.175   7.228
 4801POPC   NC361931  12.401  11.823   5.501
 4801POPC   PO461932  11.754  12.026   5.593
 4801POPC   GL161933  12.079  12.017   5.891
 4801POPC   GL261934  12.154  12.331   5.802
 4801POPC   C1A61935  12.208  12.074   6.315
 4801POPC   D2A61936  12.363  12.234   6.716
 4801POPC   C3A61937  12.273  11.944   7.062
 4801POPC   C4A61938  11.863  11.796   7.163
 4801POPC   C1B61939  11.785  12.390   6.135
 4801POPC   C2B61940  11.490  12.504   6.464
 4801POPC   C3B61941  11.581  12.520   6.910
 4801POPC   C4B61942  11.929  12.315   7.070
 4802POPC   NC361943  15.900  38.726   5.510
 4802POPC   PO461944  16.321  38.125   5.437
 4802POPC   GL161945  16.207  38.408   5.786
 4802POPC   GL261946  16.498  38.588   5.858
 4802POPC   C1A61947  16.069  38.658   6.172
 4802POPC   D2A61948  15.744  38.547   6.461
 4802POPC   C3A61949  15.909  38.589   6.860
 4802POPC   C4A61950  15.705  38.871   7.090
 4802POPC   C1B61951  16.466  38.321   6.220
 4802POPC   C2B61952  16.277  38.310   6.630
 4802POPC   C3B61953  16.431  38.415   7.017
 4802POPC   C4B61954  16.232  38.587   7.327
 4803POPC   NC361955   9.310  11.705   5.335
 4803POPC   PO461956   8.705  11.371   5.470
 4803POPC   GL161957   9.011  11.209   5.789
 4803POPC   GL261958   9.393  11.294   5.686
 4803POPC   C1A61959   8.910  11.237   6.244
 4803POPC   D2A61960   8.971  11.608   6.541
 4803POPC   C3A61961   8.850  11.552   6.975
 4803POPC   C4A61962   8.919  11.560   7.445
 4803POPC   C1B61963   9.384  11.421   6.123
 4803POPC   C2B61964   9.360  11.246   6.540
 4803POPC   C3B61965   9.351  11.498   6.887
 4803POPC   C4B61966   9.412  11.468   7.302
 4804POPC   NC361967   2.583  14.641   5.681
 4804POPC   PO461968   2.426  15.235   5.342
 4804POPC   GL161969   2.552  15.264   5.783
 4804POPC   GL261970   2.853  15.081   5.831
 4804POPC   C1A61971   2.513  15.077   6.232
 4804POPC   D2A61972   2.494  14.973   6.678
 4804POPC   C3A61973   2.571  15.201   7.064
 4804POPC   C4A61974   2.697  15.176   7.520
 4804POPC   C1B61975   3.020  15.019   6.277
 4804POPC   C2B61976   2.993  14.867   6.731
 4804POPC   C3B61977   3.044  15.033   7.135
 4804POPC   C4B61978   2.945  15.487   7.231
 4805POPC   NC361979  28.848   0.926   5.420
 4805POPC   PO461980  28.194   1.105   5.501
 4805POPC   GL161981  28.401   1.206   5.812
 4805POPC   GL261982  28.264   1.516   5.844
 4805POPC   C1A61983  28.369   1.138   6.216
 4805POPC   D2A61984  28.641   1.258   6.500
 4805POPC   C3A61985  28.622   1.013   6.852
 4805POPC   C4A61986  28.506   0.962   7.288
 4805POPC   C1B61987  28.212   1.632   6.264
 4805POPC   C2B61988  28.128   1.392   6.614
 4805POPC   C3B61989  28.141   1.171   6.961
 4805POPC   C4B61990  28.098   1.278   7.360
 4806POPC   NC361991   4.244   7.374   5.413
 4806POPC   PO461992   4.570   7.905   5.454
 4806POPC   GL161993   4.461   7.664   5.805
 4806POPC   GL261994   4.106   7.584   5.845
 4806POPC   C1A61995   4.465   7.360   6.148
 4806POPC   D2A61996   4.354   7.426   6.582
 4806POPC   C3A61997   4.273   7.157   6.919
 4806POPC   C4A61998   4.418   7.275   7.342
 4806POPC   C1B61999   4.139   7.735   6.240
 4806POPC   C2B62000   3.927   7.733   6.642
 4806POPC   C3B62001   4.013   7.565   7.059
 4806POPC   C4B62002   4.009   7.484   7.515
 4807POPC   NC362003  21.851   6.748   5.413
 4807POPC   PO462004  21.274   7.165   5.540
 4807POPC   GL162005  21.461   6.960   5.901
 4807POPC   GL262006  21.743   6.708   5.907
 4807POPC   C1A62007  21.362   6.724   6.290
 4807POPC   D2A62008  21.301   6.327   6.554
 4807POPC   C3A62009  21.167   6.415   6.978
 4807POPC   C4A62010  21.207   6.819   7.145
 4807POPC   C1B62011  21.701   6.347   6.195
 4807POPC   C2B62012  21.862   6.246   6.619
 4807POPC   C3B62013  21.765   6.498   6.947
 4807POPC   C4B62014  21.609   6.557   7.324
 4808POPC   NC362015   0.818  19.318   5.385
 4808POPC   PO462016   0.339  18.890   5.264
 4808POPC   GL162017   0.287  18.962   5.699
 4808POPC   GL262018   0.636  18.986   5.719
 4808POPC   C1A62019   0.165  18.962   6.153
 4808POPC   D2A62020   0.030  19.018   6.602
 4808POPC   C3A62021   0.300  18.977   6.996
 4808POPC   C4A62022   0.090  19.020   7.394
 4808POPC   C1B62023   0.618  19.223   6.061
 4808POPC   C2B62024   0.518  19.199   6.463
 4808POPC   C3B62025   0.712  19.329   6.799
 4808POPC   C4B62026   0.600  19.379   7.195
 4809POPC   NC362027  43.982   8.035   5.525
 4809POPC   PO462028  43.311   8.101   5.654
 4809POPC   GL162029  43.625   8.248   5.987
 4809POPC   GL262030  44.013   8.299   5.968
 4809POPC   C1A62031  43.812   8.172   6.403
 4809POPC   D2A62032  43.994   8.386   6.726
 4809POPC   C3A62033  43.732   8.393   7.050
 4809POPC   C4A62034  43.738   7.958   7.200
 4809POPC   C1B62035  44.220   7.957   6.172
 4809POPC   C2B62036  44.336   7.956   6.596
 4809POPC   C3B62037  44.252   7.965   7.020
 4809POPC   C4B62038  44.176   8.327   7.254
 4810POPC   NC362039  20.236  15.141   5.574
 4810POPC   PO462040  20.579  15.157   4.952
 4810POPC   GL162041  20.740  15.216   5.471
 4810POPC   GL262042  20.731  14.904   5.701
 4810POPC   C1A62043  20.749  15.378   5.976
 4810POPC   D2A62044  20.857  15.215   6.442
 4810POPC   C3A62045  20.650  15.322   6.881
 4810POPC   C4A62046  20.852  15.354   7.309
 4810POPC   C1B62047  20.523  14.933   6.128
 4810POPC   C2B62048  20.450  14.924   6.573
 4810POPC   C3B62049  20.335  14.893   6.993
 4810POPC   C4B62050  20.582  14.883   7.361
 4811POPC   NC362051  18.606  12.797   5.049
 4811POPC   PO462052  18.536  12.836   5.680
 4811POPC   GL162053  18.407  13.051   6.028
 4811POPC   GL262054  18.355  12.801   6.210
 4811POPC   C1A62055  18.216  13.333   6.356
 4811POPC   D2A62056  17.989  13.292   6.716
 4811POPC   C3A62057  18.212  12.951   6.896
 4811POPC   C4A62058  18.300  13.041   7.319
 4811POPC   C1B62059  18.014  12.542   6.236
 4811POPC   C2B62060  18.003  12.559   6.621
 4811POPC   C3B62061  18.001  12.459   7.010
 4811POPC   C4B62062  17.860  12.396   7.361
 4812POPC   NC362063  21.114  27.980   5.582
 4812POPC   PO462064  21.179  27.340   5.335
 4812POPC   GL162065  21.448  27.492   5.717
 4812POPC   GL262066  21.453  27.815   5.908
 4812POPC   C1A62067  21.317  27.398   6.159
 4812POPC   D2A62068  21.425  27.617   6.532
 4812POPC   C3A62069  21.538  27.496   6.918
 4812POPC   C4A62070  21.356  27.440   7.281
 4812POPC   C1B62071  21.106  27.852   6.213
 4812POPC   C2B62072  21.054  27.960   6.652
 4812POPC   C3B62073  21.243  27.897   7.073
 4812POPC   C4B62074  21.593  27.916   7.338
 4813POPC   NC362075  15.491  37.193   5.325
 4813POPC   PO462076  15.043  37.810   5.357
 4813POPC   GL162077  15.264  37.803   5.773
 4813POPC   GL262078  15.019  37.708   6.050
 4813POPC   C1A62079  15.483  37.878   6.172
 4813POPC   D2A62080  15.266  37.734   6.541
 4813POPC   C3A62081  15.422  37.850   6.913
 4813POPC   C4A62082  15.203  37.974   7.224
 4813POPC   C1B62083  15.295  37.359   6.170
 4813POPC   C2B62084  15.246  37.208   6.589
 4813POPC   C3B62085  15.008  37.446   6.914
 4813POPC   C4B62086  14.991  37.548   7.358
 4814POPC   NC362087  21.176  21.960   5.396
 4814POPC   PO462088  21.733  22.243   5.393
 4814POPC   GL162089  21.597  22.339   5.820
 4814POPC   GL262090  21.432  21.999   5.879
 4814POPC   C1A62091  21.543  22.283   6.296
 4814POPC   D2A62092  21.689  21.957   6.578
 4814POPC   C3A62093  21.487  22.056   6.983
 4814POPC   C4A62094  21.585  22.442   7.117
 4814POPC   C1B62095  21.105  22.298   6.033
 4814POPC   C2B62096  20.961  22.450   6.445
 4814POPC   C3B62097  21.129  22.460   6.878
 4814POPC   C4B62098  21.137  22.312   7.316
 4815POPC   NC362099  22.438  20.965   5.328
 4815POPC   PO462100  22.373  20.340   5.485
 4815POPC   GL162101  22.221  20.440   5.867
 4815POPC   GL262102  21.938  20.252   5.864
 4815POPC   C1A62103  22.231  20.654   6.285
 4815POPC   D2A62104  22.211  20.973   6.627
 4815POPC   C3A62105  22.189  20.906   7.075
 4815POPC   C4A62106  22.447  20.850   7.401
 4815POPC   C1B62107  21.800  20.422   6.223
 4815POPC   C2B62108  21.774  20.661   6.601
 4815POPC   C3B62109  21.810  20.566   7.031
 4815POPC   C4B62110  21.873  20.659   7.454
 4816POPC   NC362111  34.637  28.052   5.412
 4816POPC   PO462112  34.894  28.671   5.370
 4816POPC   GL162113  34.574  28.520   5.669
 4816POPC   GL262114  34.690  28.210   5.863
 4816POPC   C1A62115  34.425  28.588   6.073
 4816POPC   D2A62116  34.613  28.570   6.440
 4816POPC   C3A62117  34.541  28.542   6.876
 4816POPC   C4A62118  34.329  28.396   7.247
 4816POPC   C1B62119  34.605  28.094   6.250
 4816POPC   C2B62120  34.759  28.136   6.644
 4816POPC   C3B62121  34.662  28.019   7.051
 4816POPC   C4B62122  34.629  28.026   7.495
 4817POPC   NC362123  42.216   7.116   5.399
 4817POPC   PO462124  42.643   7.498   5.615
 4817POPC   GL162125  42.348   7.280   5.917
 4817POPC   GL262126  42.110   7.003   5.886
 4817POPC   C1A62127  42.377   7.331   6.379
 4817POPC   D2A62128  42.369   7.694   6.649
 4817POPC   C3A62129  42.455   7.669   7.098
 4817POPC   C4A62130  42.342   7.337   7.398
 4817POPC   C1B62131  41.915   7.111   6.240
 4817POPC   C2B62132  41.905   7.418   6.541
 4817POPC   C3B62133  42.082   7.356   6.926
 4817POPC   C4B62134  41.858   7.038   7.118
 4818POPC   NC362135   3.059  25.104   5.429
 4818POPC   PO462136   2.389  25.180   5.514
 4818POPC   GL162137   2.634  25.085   5.873
 4818POPC   GL262138   2.891  25.346   5.870
 4818POPC   C1A62139   2.519  25.118   6.327
 4818POPC   D2A62140   2.327  25.364   6.675
 4818POPC   C3A62141   2.642  25.321   7.009
 4818POPC   C4A62142   2.735  25.316   7.437
 4818POPC   C1B62143   3.082  25.265   6.291
 4818POPC   C2B62144   3.089  25.339   6.758
 4818POPC   C3B62145   3.126  25.127   7.171
 4818POPC   C4B62146   3.190  25.302   7.652
 4819POPC   NC362147  42.087  27.747   5.099
 4819POPC   PO462148  41.429  27.751   5.426
 4819POPC   GL162149  41.600  27.573   5.852
 4819POPC   GL262150  41.319  27.351   5.853
 4819POPC   C1A62151  41.732  27.597   6.340
 4819POPC   D2A62152  41.480  27.736   6.720
 4819POPC   C3A62153  41.607  27.742   7.166
 4819POPC   C4A62154  41.972  27.748   7.446
 4819POPC   C1B62155  41.264  27.449   6.282
 4819POPC   C2B62156  41.345  27.226   6.648
 4819POPC   C3B62157  41.318  27.332   7.075
 4819POPC   C4B62158  41.098  27.613   7.386
 4820POPC   NC362159  12.840  37.237   5.395
 4820POPC   PO462160  13.048  36.614   5.381
 4820POPC   GL162161  12.914  36.722   5.786
 4820POPC   GL262162  12.564  36.645   5.795
 4820POPC   C1A62163  13.108  36.847   6.179
 4820POPC   D2A62164  13.096  37.152   6.509
 4820POPC   C3A62165  13.186  36.994   6.895
 4820POPC   C4A62166  13.057  37.067   7.294
 4820POPC   C1B62167  12.604  36.818   6.212
 4820POPC   C2B62168  12.811  36.712   6.611
 4820POPC   C3B62169  12.800  36.679   7.051
 4820POPC   C4B62170  12.588  36.856   7.398
 4821POPC   NC362171   0.090   6.528   5.492
 4821POPC   PO462172   0.718   6.653   5.450
 4821POPC   GL162173   0.491   6.512   5.835
 4821POPC   GL262174   0.178   6.314   5.936
 4821POPC   C1A62175   0.433   6.706   6.235
 4821POPC   D2A62176   0.609   6.655   6.655
 4821POPC   C3A62177   0.387   6.849   7.008
 4821POPC   C4A62178   0.700   6.705   7.217
 4821POPC   C1B62179   0.388   6.197   6.287
 4821POPC   C2B62180   0.320   6.211   6.687
 4821POPC   C3B62181   0.461   6.284   7.053
 4821POPC   C4B62182   0.183   6.447   7.265
 4822POPC   NC362183  22.853  11.563   5.511
 4822POPC   PO462184  22.804  12.181   5.293
 4822POPC   GL162185  22.812  12.026   5.749
 4822POPC   GL262186  22.513  11.821   5.847
 4822POPC   C1A62187  23.054  12.066   6.176
 4822POPC   D2A62188  23.173  12.032   6.628
 4822POPC   C3A62189  22.815  12.138   6.884
 4822POPC   C4A62190  22.761  12.398   7.244
 4822POPC   C1B62191  22.600  11.833   6.302
 4822POPC   C2B62192  22.916  11.604   6.534
 4822POPC   C3B62193  23.016  11.662   6.977
 4822POPC   C4B62194  22.667  11.780   7.236
 4823POPC   NC362195   6.347  34.285   5.315
 4823POPC   PO462196   5.738  34.233   5.294
 4823POPC   GL162197   5.785  34.526   5.682
 4823POPC   GL262198   6.060  34.778   5.768
 4823POPC   C1A62199   5.933  34.407   6.097
 4823POPC   D2A62200   5.987  34.325   6.526
 4823POPC   C3A62201   5.717  34.441   6.851
 4823POPC   C4A62202   5.741  34.453   7.271
 4823POPC   C1B62203   6.241  34.807   6.226
 4823POPC   C2B62204   6.089  34.823   6.688
 4823POPC   C3B62205   6.205  34.576   7.069
 4823POPC   C4B62206   6.134  34.600   7.553
 4824POPC   NC362207  20.863   2.601   5.335
 4824POPC   PO462208  20.325   2.975   5.410
 4824POPC   GL162209  20.563   2.989   5.803
 4824POPC   GL262210  20.898   3.063   5.712
 4824POPC   C1A62211  20.649   2.760   6.200
 4824POPC   D2A62212  20.489   2.616   6.628
 4824POPC   C3A62213  20.341   2.834   7.027
 4824POPC   C4A62214  20.383   2.743   7.475
 4824POPC   C1B62215  21.027   3.139   6.137
 4824POPC   C2B62216  20.900   3.009   6.564
 4824POPC   C3B62217  20.786   3.076   6.990
 4824POPC   C4B62218  20.895   2.931   7.409
 4825POPC   NC362219  13.511  31.091   5.471
 4825POPC   PO462220  13.563  30.419   5.537
 4825POPC   GL162221  13.833  30.748   5.713
 4825POPC   GL262222  13.548  30.836   5.904
 4825POPC   C1A62223  13.980  30.831   6.141
 4825POPC   D2A62224  13.973  30.604   6.530
 4825POPC   C3A62225  13.809  30.705   6.945
 4825POPC   C4A62226  13.697  30.455   7.280
 4825POPC   C1B62227  13.386  30.514   6.181
 4825POPC   C2B62228  13.495  30.396   6.599
 4825POPC   C3B62229  13.276  30.490   6.969
 4825POPC   C4B62230  13.119  30.431   7.379
 4826POPC   NC362231  36.965  39.092   5.248
 4826POPC   PO462232  36.410  39.352   5.662
 4826POPC   GL162233  36.773  39.279   5.877
 4826POPC   GL262234  36.933  39.582   5.730
 4826POPC   C1A62235  36.793  39.151   6.323
 4826POPC   D2A62236  36.668  39.337   6.758
 4826POPC   C3A62237  36.816  39.072   7.113
 4826POPC   C4A62238  36.766  38.867   7.524
 4826POPC   C1B62239  37.021  39.615   6.180
 4826POPC   C2B62240  37.180  39.388   6.553
 4826POPC   C3B62241  37.150  39.458   6.969
 4826POPC   C4B62242  36.864  39.731   7.131
 4827POPC   NC362243  14.716   5.818   5.573
 4827POPC   PO462244  14.184   5.473   5.573
 4827POPC   GL162245  14.248   5.845   5.798
 4827POPC   GL262246  14.085   5.669   6.016
 4827POPC   C1A62247  14.424   6.000   6.198
 4827POPC   D2A62248  14.371   6.168   6.581
 4827POPC   C3A62249  14.552   5.975   6.911
 4827POPC   C4A62250  14.387   6.010   7.271
 4827POPC   C1B62251  14.314   5.498   6.334
 4827POPC   C2B62252  14.296   5.560   6.747
 4827POPC   C3B62253  14.343   5.508   7.163
 4827POPC   C4B62254  14.061   5.680   7.477
 4828POPC   NC362255   2.641  27.405   5.317
 4828POPC   PO462256   3.155  27.805   5.539
 4828POPC   GL162257   2.873  27.646   5.853
 4828POPC   GL262258   2.822  27.268   5.810
 4828POPC   C1A62259   2.815  27.830   6.279
 4828POPC   D2A62260   2.686  27.700   6.679
 4828POPC   C3A62261   2.974  27.391   6.873
 4828POPC   C4A62262   3.198  27.435   7.255
 4828POPC   C1B62263   2.580  27.374   6.194
 4828POPC   C2B62264   2.422  27.226   6.584
 4828POPC   C3B62265   2.466  27.356   6.969
 4828POPC   C4B62266   2.434  27.723   7.222
 4829POPC   NC362267   3.784  44.220   5.314
 4829POPC   PO462268   3.552  44.926   5.286
 4829POPC   GL162269   3.541  44.663   5.654
 4829POPC   GL262270   3.866  44.626   5.743
 4829POPC   C1A62271   3.476  44.606   6.115
 4829POPC   D2A62272   3.418  44.435   6.551
 4829POPC   C3A62273   3.482  44.649   6.972
 4829POPC   C4A62274   3.369  44.430   7.386
 4829POPC   C1B62275   3.972  44.737   6.202
 4829POPC   C2B62276   3.924  44.584   6.633
 4829POPC   C3B62277   4.031  44.638   7.063
 4829POPC   C4B62278   3.900  44.449   7.410
 4830POPC   NC362279   1.752  42.389   5.571
 4830POPC   PO462280   1.112  42.660   5.343
 4830POPC   GL162281   1.188  42.506   5.766
 4830POPC   GL262282   1.210  42.135   5.785
 4830POPC   C1A62283   1.274  42.452   6.215
 4830POPC   D2A62284   1.481  42.410   6.620
 4830POPC   C3A62285   1.270  42.355   7.062
 4830POPC   C4A62286   1.043  42.373   7.472
 4830POPC   C1B62287   1.070  41.943   6.175
 4830POPC   C2B62288   1.121  42.047   6.608
 4830POPC   C3B62289   0.901  42.024   6.990
 4830POPC   C4B62290   0.956  41.849   7.388
 4831POPC   NC362291  16.004  30.903   5.501
 4831POPC   PO462292  15.709  30.373   5.646
 4831POPC   GL162293  15.975  30.574   5.948
 4831POPC   GL262294  15.908  30.905   5.989
 4831POPC   C1A62295  16.154  30.777   6.384
 4831POPC   D2A62296  16.139  31.085   6.728
 4831POPC   C3A62297  16.258  30.857   7.108
 4831POPC   C4A62298  16.259  30.395   7.111
 4831POPC   C1B62299  15.630  30.654   6.297
 4831POPC   C2B62300  15.504  30.691   6.714
 4831POPC   C3B62301  15.752  30.667   7.074
 4831POPC   C4B62302  15.780  30.262   7.273
 4832POPC   NC362303   7.676  37.025   5.429
 4832POPC   PO462304   7.294  36.426   5.302
 4832POPC   GL162305   7.306  36.678   5.698
 4832POPC   GL262306   7.618  36.638   5.886
 4832POPC   C1A62307   7.279  36.960   6.078
 4832POPC   D2A62308   7.433  36.864   6.511
 4832POPC   C3A62309   7.288  36.827   6.941
 4832POPC   C4A62310   7.606  36.831   7.238
 4832POPC   C1B62311   7.821  36.644   6.282
 4832POPC   C2B62312   7.765  36.492   6.743
 4832POPC   C3B62313   7.885  36.409   7.202
 4832POPC   C4B62314   7.814  36.584   7.644
 4833POPC   NC362315  26.375  10.850   5.523
 4833POPC   PO462316  27.003  10.895   5.367
 4833POPC   GL162317  26.960  10.549   5.705
 4833POPC   GL262318  26.592  10.474   5.807
 4833POPC   C1A62319  26.928  10.567   6.180
 4833POPC   D2A62320  26.977  10.294   6.547
 4833POPC   C3A62321  27.015  10.505   6.939
 4833POPC   C4A62322  26.893  10.414   7.336
 4833POPC   C1B62323  26.397  10.588   6.231
 4833POPC   C2B62324  26.581  10.629   6.655
 4833POPC   C3B62325  26.598  10.759   7.108
 4833POPC   C4B62326  26.544  10.736   7.584
 4834POPC   NC362327  36.602  26.471   5.412
 4834POPC   PO462328  36.857  27.120   5.316
 4834POPC   GL162329  36.649  26.946   5.682
 4834POPC   GL262330  36.906  26.721   5.796
 4834POPC   C1A62331  36.563  26.993   6.147
 4834POPC   D2A62332  36.620  27.184   6.582
 4834POPC   C3A62333  36.795  26.935   6.952
 4834POPC   C4A62334  36.753  26.912   7.410
 4834POPC   C1B62335  36.784  26.507   6.193
 4834POPC   C2B62336  36.817  26.264   6.610
 4834POPC   C3B62337  37.146  26.359   6.919
 4834POPC   C4B62338  37.175  26.672   7.250
 4835POPC   NC362339  43.391  14.104   5.520
 4835POPC   PO462340  42.835  14.519   5.401
 4835POPC   GL162341  42.973  14.719   5.785
 4835POPC   GL262342  43.035  14.376   5.899
 4835POPC   C1A62343  42.815  14.681   6.227
 4835POPC   D2A62344  42.829  14.378   6.560
 4835POPC   C3A62345  42.914  14.488   6.961
 4835POPC   C4A62346  43.101  14.813   7.140
 4835POPC   C1B62347  43.246  14.302   6.298
 4835POPC   C2B62348  43.293  14.210   6.741
 4835POPC   C3B62349  43.416  14.410   7.111
 4835POPC   C4B62350  43.632  14.750   7.289
 4836POPC   NC362351  24.030  19.024   5.545
 4836POPC   PO462352  24.635  19.303   5.135
 4836POPC   GL162353  24.511  19.224   5.597
 4836POPC   GL262354  24.571  19.509   5.815
 4836POPC   C1A62355  24.476  19.014   6.043
 4836POPC   D2A62356  24.220  19.116   6.449
 4836POPC   C3A62357  24.341  19.012   6.898
 4836POPC   C4A62358  24.344  18.645   7.210
 4836POPC   C1B62359  24.628  19.459   6.253
 4836POPC   C2B62360  24.752  19.225   6.587
 4836POPC   C3B62361  24.780  19.320   6.998
 4836POPC   C4B62362  24.595  19.174   7.349
 4837POPC   NC362363   5.864  27.849   5.373
 4837POPC   PO462364   5.583  27.150   5.506
 4837POPC   GL162365   5.884  27.398   5.788
 4837POPC   GL262366   5.644  27.648   5.789
 4837POPC   C1A62367   6.056  27.402   6.231
 4837POPC   D2A62368   6.280  27.574   6.600
 4837POPC   C3A62369   6.140  27.434   7.027
 4837POPC   C4A62370   5.979  27.566   7.466
 4837POPC   C1B62371   5.545  27.545   6.210
 4837POPC   C2B62372   5.733  27.543   6.616
 4837POPC   C3B62373   5.628  27.447   7.021
 4837POPC   C4B62374   5.494  27.689   7.321
 4838POPC   NC362375   1.245  22.015   5.393
 4838POPC   PO462376   1.725  22.483   5.361
 4838POPC   GL162377   1.460  22.370   5.732
 4838POPC   GL262378   1.080  22.366   5.729
 4838POPC   C1A62379   1.339  22.124   6.117
 4838POPC   D2A62380   1.197  22.209   6.544
 4838POPC   C3A62381   1.334  22.011   6.917
 4838POPC   C4A62382   1.314  22.309   7.237
 4838POPC   C1B62383   0.970  22.501   6.170
 4838POPC   C2B62384   0.864  22.606   6.578
 4838POPC   C3B62385   0.986  22.656   6.979
 4838POPC   C4B62386   0.848  22.501   7.368
 4839POPC   NC362387  31.459  22.006   5.250
 4839POPC   PO462388  31.584  22.625   5.401
 4839POPC   GL162389  31.343  22.286   5.686
 4839POPC   GL262390  31.377  21.883   5.752
 4839POPC   C1A62391  31.355  22.267   6.139
 4839POPC   D2A62392  31.431  22.533   6.518
 4839POPC   C3A62393  31.356  22.454   6.961
 4839POPC   C4A62394  31.718  22.375   7.251
 4839POPC   C1B62395  31.242  21.787   6.204
 4839POPC   C2B62396  31.324  22.019   6.597
 4839POPC   C3B62397  31.474  21.961   7.020
 4839POPC   C4B62398  31.257  21.772   7.347
 4840POPC   NC362399   9.646  16.266   5.436
 4840POPC   PO462400   9.791  16.841   5.382
 4840POPC   GL162401   9.813  16.759   5.811
 4840POPC   GL262402  10.108  16.529   5.886
 4840POPC   C1A62403   9.561  16.918   6.196
 4840POPC   D2A62404   9.555  17.169   6.582
 4840POPC   C3A62405   9.535  16.949   6.962
 4840POPC   C4A62406   9.660  16.538   7.063
 4840POPC   C1B62407  10.059  16.813   6.254
 4840POPC   C2B62408   9.910  16.789   6.663
 4840POPC   C3B62409  10.119  16.729   7.054
 4840POPC   C4B62410  10.230  16.335   7.182
 4841POPC   NC362411   6.273  29.564   5.377
 4841POPC   PO462412   5.681  29.914   5.182
 4841POPC   GL162413   5.904  29.917   5.588
 4841POPC   GL262414   5.797  30.203   5.801
 4841POPC   C1A62415   5.880  29.779   6.067
 4841POPC   D2A62416   5.566  29.678   6.431
 4841POPC   C3A62417   5.745  29.668   6.866
 4841POPC   C4A62418   5.951  29.911   7.198
 4841POPC   C1B62419   5.549  30.202   6.209
 4841POPC   C2B62420   5.598  30.407   6.647
 4841POPC   C3B62421   5.555  30.202   7.073
 4841POPC   C4B62422   5.598  30.095   7.532
 4842POPC   NC362423  23.258  10.744   5.106
 4842POPC   PO462424  22.627  10.573   5.439
 4842POPC   GL162425  22.782  10.451   5.805
 4842POPC   GL262426  23.114  10.484   5.685
 4842POPC   C1A62427  22.708  10.361   6.229
 4842POPC   D2A62428  22.986  10.441   6.572
 4842POPC   C3A62429  22.809  10.324   6.943
 4842POPC   C4A62430  23.035  10.405   7.308
 4842POPC   C1B62431  23.160  10.638   6.120
 4842POPC   C2B62432  23.327  10.837   6.508
 4842POPC   C3B62433  23.255  10.717   6.933
 4842POPC   C4B62434  23.396  10.765   7.343
 4843POPC   NC362435  19.509   6.694   5.374
 4843POPC   PO462436  18.796   6.655   5.426
 4843POPC   GL162437  18.915   6.782   5.834
 4843POPC   GL262438  19.257   6.854   5.789
 4843POPC   C1A62439  19.058   6.778   6.254
 4843POPC   D2A62440  19.220   6.643   6.621
 4843POPC   C3A62441  19.001   6.627   6.992
 4843POPC   C4A62442  18.968   6.479   7.398
 4843POPC   C1B62443  19.539   6.927   6.120
 4843POPC   C2B62444  19.511   7.075   6.536
 4843POPC   C3B62445  19.260   7.090   6.896
 4843POPC   C4B62446  19.305   6.884   7.298
 4844POPC   NC362447  28.861  37.165   5.442
 4844POPC   PO462448  29.514  37.085   5.586
 4844POPC   GL162449  29.581  36.941   6.001
 4844POPC   GL262450  29.465  36.620   6.118
 4844POPC   C1A62451  29.504  37.063   6.442
 4844POPC   D2A62452  29.152  37.207   6.674
 4844POPC   C3A62453  29.078  37.088   7.071
 4844POPC   C4A62454  28.964  36.820   7.344
 4844POPC   C1B62455  29.099  36.764   6.385
 4844POPC   C2B62456  28.994  36.674   6.814
 4844POPC   C3B62457  29.010  36.331   7.103
 4844POPC   C4B62458  29.043  36.195   7.541
 4845POPC   NC362459  34.423  21.581   5.374
 4845POPC   PO462460  34.946  21.875   5.748
 4845POPC   GL162461  34.667  21.558   5.907
 4845POPC   GL262462  34.608  21.273   5.743
 4845POPC   C1A62463  34.464  21.447   6.303
 4845POPC   D2A62464  34.446  21.653   6.696
 4845POPC   C3A62465  34.569  21.399   7.067
 4845POPC   C4A62466  34.523  21.559   7.509
 4845POPC   C1B62467  34.423  21.001   6.026
 4845POPC   C2B62468  34.434  20.923   6.464
 4845POPC   C3B62469  34.357  20.924   6.907
 4845POPC   C4B62470  34.685  20.877   7.200
 4846POPC   NC362471  22.340  41.942   5.316
 4846POPC   PO462472  22.040  41.479   5.253
 4846POPC   GL162473  22.087  41.525   5.743
 4846POPC   GL262474  22.430  41.669   5.842
 4846POPC   C1A62475  21.988  41.483   6.232
 4846POPC   D2A62476  22.100  41.419   6.693
 4846POPC   C3A62477  21.895  41.379   7.111
 4846POPC   C4A62478  21.761  41.019   7.375
 4846POPC   C1B62479  22.412  41.775   6.306
 4846POPC   C2B62480  22.168  41.921   6.702
 4846POPC   C3B62481  22.127  41.845   7.176
 4846POPC   C4B62482  22.262  41.791   7.626
 4847POPC   NC362483  31.649  38.026   5.539
 4847POPC   PO462484  31.597  38.687   5.429
 4847POPC   GL162485  31.685  38.526   5.802
 4847POPC   GL262486  31.472  38.261   5.969
 4847POPC   C1A62487  31.647  38.686   6.211
 4847POPC   D2A62488  31.709  38.435   6.544
 4847POPC   C3A62489  31.767  38.608   6.941
 4847POPC   C4A62490  31.688  38.290   7.189
 4847POPC   C1B62491  31.131  38.177   6.286
 4847POPC   C2B62492  30.922  37.901   6.582
 4847POPC   C3B62493  30.890  38.109   6.977
 4847POPC   C4B62494  31.183  38.411   7.164
 4848POPC   NC362495  18.402  17.676   5.430
 4848POPC   PO462496  18.544  17.089   5.753
 4848POPC   GL162497  18.377  17.457   5.899
 4848POPC   GL262498  18.677  17.693   5.873
 4848POPC   C1A62499  18.028  17.578   6.194
 4848POPC   D2A62500  17.842  17.578   6.597
 4848POPC   C3A62501  18.147  17.500   6.899
 4848POPC   C4A62502  18.022  17.464   7.252
 4848POPC   C1B62503  18.474  17.830   6.232
 4848POPC   C2B62504  18.286  17.869   6.577
 4848POPC   C3B62505  18.318  18.004   6.954
 4848POPC   C4B62506  18.423  17.806   7.296
 4849POPC   NC362507  15.482  24.743   5.081
 4849POPC   PO462508  16.046  24.681   5.458
 4849POPC   GL162509  16.065  24.724   5.875
 4849POPC   GL262510  15.944  24.399   5.948
 4849POPC   C1A62511  16.038  24.705   6.342
 4849POPC   D2A62512  16.103  24.544   6.768
 4849POPC   C3A62513  15.968  24.836   7.075
 4849POPC   C4A62514  15.903  25.040   7.469
 4849POPC   C1B62515  15.735  24.287   6.349
 4849POPC   C2B62516  15.761  24.069   6.759
 4849POPC   C3B62517  15.906  24.097   7.199
 4849POPC   C4B62518  16.018  24.032   7.658
 4850POPC   NC362519  13.447  34.804   5.329
 4850POPC   PO462520  13.936  34.259   5.445
 4850POPC   GL162521  13.790  34.592   5.741
 4850POPC   GL262522  13.890  34.328   5.989
 4850POPC   C1A62523  13.526  34.666   6.107
 4850POPC   D2A62524  13.324  34.805   6.482
 4850POPC   C3A62525  13.357  34.589   6.836
 4850POPC   C4A62526  13.612  34.677   7.168
 4850POPC   C1B62527  13.785  34.207   6.420
 4850POPC   C2B62528  13.672  34.178   6.872
 4850POPC   C3B62529  13.868  34.186   7.285
 4850POPC   C4B62530  14.137  34.138   7.679
 4851POPC   NC362531  31.276  40.534   5.414
 4851POPC   PO462532  31.664  40.983   5.240
 4851POPC   GL162533  31.408  40.970   5.689
 4851POPC   GL262534  31.282  40.635   5.904
 4851POPC   C1A62535  31.389  41.047   6.178
 4851POPC   D2A62536  31.369  40.849   6.623
 4851POPC   C3A62537  31.529  40.976   7.048
 4851POPC   C4A62538  31.352  40.930   7.474
 4851POPC   C1B62539  31.662  40.568   6.159
 4851POPC   C2B62540  31.823  40.594   6.596
 4851POPC   C3B62541  31.606  40.486   6.958
 4851POPC   C4B62542  31.235  40.538   7.155
 4852POPC   NC362543  29.500  20.791   5.491
 4852POPC   PO462544  30.145  20.618   5.334
 4852POPC   GL162545  30.171  20.411   5.720
 4852POPC   GL262546  29.822  20.394   5.728
 4852POPC   C1A62547  30.194  20.300   6.164
 4852POPC   D2A62548  30.122  20.598   6.504
 4852POPC   C3A62549  30.099  20.509   6.950
 4852POPC   C4A62550  30.073  20.877   7.212
 4852POPC   C1B62551  29.688  20.593   6.120
 4852POPC   C2B62552  29.477  20.524   6.526
 4852POPC   C3B62553  29.610  20.724   6.922
 4852POPC   C4B62554  29.713  20.537   7.310
 4853POPC   NC362555  12.301   3.851   5.476
 4853POPC   PO462556  12.029   3.275   5.497
 4853POPC   GL162557  11.878   3.585   5.742
 4853POPC   GL262558  12.168   3.605   5.890
 4853POPC   C1A62559  11.780   3.683   6.192
 4853POPC   D2A62560  11.648   3.529   6.608
 4853POPC   C3A62561  11.699   3.779   6.964
 4853POPC   C4A62562  11.870   3.795   7.349
 4853POPC   C1B62563  12.304   3.491   6.255
 4853POPC   C2B62564  12.474   3.672   6.577
 4853POPC   C3B62565  12.450   3.526   6.978
 4853POPC   C4B62566  12.082   3.354   7.158
 4854POPC   NC362567  10.159   5.164   5.248
 4854POPC   PO462568  10.819   5.310   5.345
 4854POPC   GL162569  10.589   5.120   5.694
 4854POPC   GL262570  10.286   4.966   5.777
 4854POPC   C1A62571  10.546   5.233   6.134
 4854POPC   D2A62572  10.737   5.504   6.422
 4854POPC   C3A62573  10.623   5.372   6.812
 4854POPC   C4A62574  10.790   5.278   7.185
 4854POPC   C1B62575  10.371   4.768   6.205
 4854POPC   C2B62576  10.347   4.920   6.640
 4854POPC   C3B62577  10.380   4.996   7.082
 4854POPC   C4B62578  10.521   5.031   7.540
 4855POPC   NC362579  32.748   6.133   4.887
 4855POPC   PO462580  32.756   6.059   5.553
 4855POPC   GL162581  33.087   5.877   5.863
 4855POPC   GL262582  32.896   5.571   5.923
 4855POPC   C1A62583  33.267   5.859   6.285
 4855POPC   D2A62584  33.005   5.969   6.640
 4855POPC   C3A62585  33.050   5.787   7.019
 4855POPC   C4A62586  33.234   5.915   7.367
 4855POPC   C1B62587  32.713   5.351   6.306
 4855POPC   C2B62588  32.705   5.438   6.764
 4855POPC   C3B62589  32.729   5.431   7.191
 4855POPC   C4B62590  32.733   5.333   7.597
 4856POPC   NC362591   6.171  10.696   5.107
 4856POPC   PO462592   5.806  10.258   5.323
 4856POPC   GL162593   5.835  10.487   5.742
 4856POPC   GL262594   5.520  10.705   5.808
 4856POPC   C1A62595   5.939  10.257   6.137
 4856POPC   D2A62596   6.218  10.102   6.484
 4856POPC   C3A62597   6.056  10.371   6.788
 4856POPC   C4A62598   5.857  10.533   7.178
 4856POPC   C1B62599   5.639  10.918   6.186
 4856POPC   C2B62600   5.978  10.896   6.468
 4856POPC   C3B62601   6.037  10.904   6.893
 4856POPC   C4B62602   5.720  11.042   7.194
 4857POPC   NC362603  28.664  30.716   5.106
 4857POPC   PO462604  28.428  30.110   5.259
 4857POPC   GL162605  28.405  30.497   5.578
 4857POPC   GL262606  28.122  30.534   5.813
 4857POPC   C1A62607  28.562  30.696   6.026
 4857POPC   D2A62608  28.613  30.690   6.516
 4857POPC   C3A62609  28.453  30.867   6.944
 4857POPC   C4A62610  28.464  31.221   7.260
 4857POPC   C1B62611  28.199  30.460   6.282
 4857POPC   C2B62612  28.146  30.492   6.726
 4857POPC   C3B62613  28.163  30.454   7.155
 4857POPC   C4B62614  28.194  30.797   7.402
 4858POPC   NC362615  25.072  28.595   5.386
 4858POPC   PO462616  25.592  28.143   5.426
 4858POPC   GL162617  25.215  28.179   5.690
 4858POPC   GL262618  25.253  28.527   5.850
 4858POPC   C1A62619  25.068  28.110   6.116
 4858POPC   D2A62620  25.265  28.263   6.485
 4858POPC   C3A62621  25.101  28.294   6.887
 4858POPC   C4A62622  25.270  28.174   7.257
 4858POPC   C1B62623  24.974  28.610   6.180
 4858POPC   C2B62624  24.796  28.548   6.577
 4858POPC   C3B62625  24.892  28.728   7.027
 4858POPC   C4B62626  25.098  28.645   7.431
 4859POPC   NC362627  17.040  23.189   5.520
 4859POPC   PO462628  17.665  23.288   5.592
 4859POPC   GL162629  17.438  23.141   5.990
 4859POPC   GL262630  17.053  23.103   6.011
 4859POPC   C1A62631  17.610  23.063   6.428
 4859POPC   D2A62632  17.830  22.783   6.743
 4859POPC   C3A62633  17.631  22.857   7.150
 4859POPC   C4A62634  17.375  22.750   7.522
 4859POPC   C1B62635  17.073  23.135   6.449
 4859POPC   C2B62636  17.260  23.025   6.840
 4859POPC   C3B62637  17.231  23.175   7.260
 4859POPC   C4B62638  16.997  23.083   7.677
 4860POPC   NC362639   5.136  39.305   5.392
 4860POPC   PO462640   4.838  39.850   5.434
 4860POPC   GL162641   4.962  39.556   5.777
 4860POPC   GL262642   5.321  39.688   5.747
 4860POPC   C1A62643   5.014  39.226   6.140
 4860POPC   D2A62644   5.290  39.078   6.509
 4860POPC   C3A62645   5.104  39.156   6.959
 4860POPC   C4A62646   4.919  39.427   7.319
 4860POPC   C1B62647   5.340  39.591   6.178
 4860POPC   C2B62648   5.110  39.553   6.590
 4860POPC   C3B62649   5.245  39.652   7.018
 4860POPC   C4B62650   5.380  39.616   7.467
 4861POPC   NC362651   8.112   8.730   5.403
 4861POPC   PO462652   7.810   8.130   5.594
 4861POPC   GL162653   8.126   8.111   5.872
 4861POPC   GL262654   8.253   8.405   5.763
 4861POPC   C1A62655   8.155   8.037   6.293
 4861POPC   D2A62656   8.031   7.715   6.564
 4861POPC   C3A62657   8.043   7.972   6.886
 4861POPC   C4A62658   8.050   8.176   7.265
 4861POPC   C1B62659   8.408   8.483   6.140
 4861POPC   C2B62660   8.540   8.449   6.544
 4861POPC   C3B62661   8.518   8.637   6.933
 4861POPC   C4B62662   8.449   8.491   7.297
 4862POPC   NC362663  13.981  17.036   5.396
 4862POPC   PO462664  13.438  16.814   5.052
 4862POPC   GL162665  13.485  16.881   5.579
 4862POPC   GL262666  13.762  16.678   5.718
 4862POPC   C1A62667  13.468  16.865   6.086
 4862POPC   D2A62668  13.520  16.984   6.541
 4862POPC   C3A62669  13.321  16.768   6.886
 4862POPC   C4A62670  13.456  16.776   7.299
 4862POPC   C1B62671  13.996  16.761   6.106
 4862POPC   C2B62672  14.027  16.908   6.534
 4862POPC   C3B62673  13.843  16.889   6.948
 4862POPC   C4B62674  13.988  16.821   7.385
 4863POPC   NC362675   9.248  24.233   5.431
 4863POPC   PO462676   8.616  24.489   5.463
 4863POPC   GL162677   8.869  24.442   5.825
 4863POPC   GL262678   9.198  24.574   5.809
 4863POPC   C1A62679   9.034  24.405   6.255
 4863POPC   D2A62680   8.957  24.622   6.633
 4863POPC   C3A62681   9.110  24.431   6.977
 4863POPC   C4A62682   8.900  24.501   7.365
 4863POPC   C1B62683   9.353  24.792   6.153
 4863POPC   C2B62684   9.465  24.658   6.546
 4863POPC   C3B62685   9.465  24.816   6.955
 4863POPC   C4B62686   9.382  24.648   7.348
 4864POPC   NC362687  39.591  13.101   5.256
 4864POPC   PO462688  39.944  12.511   5.392
 4864POPC   GL162689  39.897  12.779   5.765
 4864POPC   GL262690  39.670  12.518   5.826
 4864POPC   C1A62691  40.126  12.960   6.164
 4864POPC   D2A62692  40.331  12.852   6.543
 4864POPC   C3A62693  40.160  13.110   6.830
 4864POPC   C4A62694  39.909  12.957   7.151
 4864POPC   C1B62695  39.511  12.354   6.207
 4864POPC   C2B62696  39.508  12.231   6.622
 4864POPC   C3B62697  39.552  12.523   6.958
 4864POPC   C4B62698  39.765  12.500   7.326
 4865POPC   NC362699  41.147  41.801   4.938
 4865POPC   PO462700  41.631  41.504   5.345
 4865POPC   GL162701  41.568  41.628   5.773
 4865POPC   GL262702  41.901  41.761   5.897
 4865POPC   C1A62703  41.270  41.595   6.124
 4865POPC   D2A62704  41.270  41.348   6.463
 4865POPC   C3A62705  41.154  41.484   6.847
 4865POPC   C4A62706  41.374  41.469   7.225
 4865POPC   C1B62707  41.747  41.618   6.296
 4865POPC   C2B62708  41.677  41.616   6.715
 4865POPC   C3B62709  41.834  41.611   7.100
 4865POPC   C4B62710  41.647  41.865   7.421
 4866POPC   NC362711  32.808  35.008   5.614
 4866POPC   PO462712  33.008  35.644   5.572
 4866POPC   GL162713  33.108  35.330   5.863
 4866POPC   GL262714  33.334  35.053   5.808
 4866POPC   C1A62715  33.006  35.120   6.259
 4866POPC   D2A62716  33.029  35.387   6.614
 4866POPC   C3A62717  32.856  35.246   6.988
 4866POPC   C4A62718  32.913  35.512   7.326
 4866POPC   C1B62719  33.485  35.286   6.195
 4866POPC   C2B62720  33.521  35.213   6.642
 4866POPC   C3B62721  33.387  35.377   7.034
 4866POPC   C4B62722  33.344  35.256   7.460
 4867POPC   NC362723  27.292  36.576   5.444
 4867POPC   PO462724  27.508  37.221   5.234
 4867POPC   GL162725  27.542  37.126   5.645
 4867POPC   GL262726  27.313  37.400   5.698
 4867POPC   C1A62727  27.565  36.843   6.023
 4867POPC   D2A62728  27.549  36.968   6.446
 4867POPC   C3A62729  27.708  36.876   6.855
 4867POPC   C4A62730  27.367  36.893   7.147
 4867POPC   C1B62731  27.375  37.320   6.109
 4867POPC   C2B62732  27.361  37.504   6.513
 4867POPC   C3B62733  27.458  37.326   6.861
 4867POPC   C4B62734  27.661  37.319   7.204
 4868POPC   NC362735  32.441   4.838   5.422
 4868POPC   PO462736  31.904   5.237   5.424
 4868POPC   GL162737  32.210   5.272   5.760
 4868POPC   GL262738  32.567   5.185   5.792
 4868POPC   C1A62739  32.190   5.131   6.174
 4868POPC   D2A62740  31.924   5.062   6.515
 4868POPC   C3A62741  32.165   5.088   6.864
 4868POPC   C4A62742  32.317   5.144   7.272
 4868POPC   C1B62743  32.657   4.863   6.113
 4868POPC   C2B62744  32.425   4.808   6.503
 4868POPC   C3B62745  32.570   4.800   6.943
 4868POPC   C4B62746  32.800   4.892   7.347
 4869POPC   NC362747  23.858  18.581   5.212
 4869POPC   PO462748  23.676  19.293   5.418
 4869POPC   GL162749  23.525  19.114   5.802
 4869POPC   GL262750  23.510  18.755   5.919
 4869POPC   C1A62751  23.704  19.120   6.201
 4869POPC   D2A62752  23.633  18.909   6.545
 4869POPC   C3A62753  23.813  19.206   6.791
 4869POPC   C4A62754  23.584  19.142   7.166
 4869POPC   C1B62755  23.932  18.665   6.163
 4869POPC   C2B62756  24.060  18.638   6.612
 4869POPC   C3B62757  23.896  18.771   7.013
 4869POPC   C4B62758  23.710  18.760   7.470
 4870POPC   NC362759  22.078  35.603   5.644
 4870POPC   PO462760  22.328  35.154   5.158
 4870POPC   GL162761  22.240  35.105   5.636
 4870POPC   GL262762  21.955  35.126   5.838
 4870POPC   C1A62763  22.359  35.225   6.119
 4870POPC   D2A62764  22.524  35.350   6.540
 4870POPC   C3A62765  22.267  35.301   6.896
 4870POPC   C4A62766  22.208  35.181   7.310
 4870POPC   C1B62767  21.980  34.862   6.216
 4870POPC   C2B62768  22.135  34.880   6.634
 4870POPC   C3B62769  21.918  34.879   7.037
 4870POPC   C4B62770  21.800  34.895   7.488
 4871POPC   NC362771   6.029  37.934   5.502
 4871POPC   PO462772   5.368  37.679   5.464
 4871POPC   GL162773   5.711  37.602   5.771
 4871POPC   GL262774   5.874  37.259   5.785
 4871POPC   C1A62775   5.782  37.874   6.143
 4871POPC   D2A62776   5.960  37.981   6.557
 4871POPC   C3A62777   5.868  37.905   6.967
 4871POPC   C4A62778   6.134  37.792   7.284
 4871POPC   C1B62779   5.979  37.403   6.227
 4871POPC   C2B62780   6.139  37.491   6.685
 4871POPC   C3B62781   6.177  37.301   7.129
 4871POPC   C4B62782   5.875  37.352   7.492
 4872POPC   NC362783  33.492  30.892   5.438
 4872POPC   PO462784  34.179  31.096   5.438
 4872POPC   GL162785  33.956  30.832   5.737
 4872POPC   GL262786  33.771  30.502   5.683
 4872POPC   C1A62787  33.725  30.839   6.119
 4872POPC   D2A62788  33.672  30.614   6.505
 4872POPC   C3A62789  33.744  30.783   6.900
 4872POPC   C4A62790  33.728  30.569   7.266
 4872POPC   C1B62791  33.571  30.327   6.061
 4872POPC   C2B62792  33.628  30.114   6.475
 4872POPC   C3B62793  33.790  30.235   6.868
 4872POPC   C4B62794  33.654  30.058   7.254
 4873POPC   NC362795   3.942  22.933   5.372
 4873POPC   PO462796   4.459  23.293   5.609
 4873POPC   GL162797   4.192  23.072   5.821
 4873POPC   GL262798   3.948  23.280   5.832
 4873POPC   C1A62799   4.267  22.865   6.180
 4873POPC   D2A62800   4.549  22.728   6.474
 4873POPC   C3A62801   4.372  22.726   6.824
 4873POPC   C4A62802   4.462  22.847   7.199
 4873POPC   C1B62803   3.956  23.275   6.260
 4873POPC   C2B62804   3.953  22.970   6.580
 4873POPC   C3B62805   3.976  23.022   7.000
 4873POPC   C4B62806   4.004  23.035   7.437
 4874POPC   NC362807  34.725  43.233   5.510
 4874POPC   PO462808  34.204  42.811   5.364
 4874POPC   GL162809  34.304  43.078   5.758
 4874POPC   GL262810  34.089  43.376   5.847
 4874POPC   C1A62811  34.591  43.140   6.154
 4874POPC   D2A62812  34.913  43.219   6.486
 4874POPC   C3A62813  34.770  43.248   6.904
 4874POPC   C4A62814  34.484  42.952   7.093
 4874POPC   C1B62815  34.085  43.111   6.219
 4874POPC   C2B62816  34.333  43.145   6.616
 4874POPC   C3B62817  34.295  43.439   6.958
 4874POPC   C4B62818  34.250  43.341   7.379
 4875POPC   NC362819   6.105  43.214   5.231
 4875POPC   PO462820   6.160  42.760   5.655
 4875POPC   GL162821   5.861  43.072   5.736
 4875POPC   GL262822   6.046  43.422   5.710
 4875POPC   C1A62823   5.749  42.964   6.161
 4875POPC   D2A62824   6.102  42.927   6.465
 4875POPC   C3A62825   5.890  42.948   6.853
 4875POPC   C4A62826   5.862  42.767   7.249
 4875POPC   C1B62827   5.812  43.473   6.082
 4875POPC   C2B62828   5.788  43.353   6.508
 4875POPC   C3B62829   5.647  43.418   6.907
 4875POPC   C4B62830   5.910  43.580   7.185
 4876POPC   NC362831  30.762  12.927   5.346
 4876POPC   PO462832  31.047  12.388   5.451
 4876POPC   GL162833  30.797  12.563   5.840
 4876POPC   GL262834  30.544  12.823   5.815
 4876POPC   C1A62835  30.710  12.621   6.312
 4876POPC   D2A62836  30.730  12.539   6.778
 4876POPC   C3A62837  31.069  12.795   7.015
 4876POPC   C4A62838  31.085  13.067   7.405
 4876POPC   C1B62839  30.344  12.960   6.220
 4876POPC   C2B62840  30.527  12.986   6.644
 4876POPC   C3B62841  30.629  13.040   7.087
 4876POPC   C4B62842  30.281  12.891   7.446
 4877POPC   NC362843   7.768  29.400   5.322
 4877POPC   PO462844   8.044  28.703   5.200
 4877POPC   GL162845   7.921  28.981   5.588
 4877POPC   GL262846   8.183  29.219   5.712
 4877POPC   C1A62847   7.961  28.937   6.080
 4877POPC   D2A62848   7.919  28.680   6.457
 4877POPC   C3A62849   8.052  28.754   6.893
 4877POPC   C4A62850   7.971  29.142   7.096
 4877POPC   C1B62851   8.361  29.234   6.150
 4877POPC   C2B62852   8.180  29.144   6.562
 4877POPC   C3B62853   8.453  29.121   6.914
 4877POPC   C4B62854   8.573  29.414   7.265
 4878POPC   NC362855  20.187   6.879   5.269
 4878POPC   PO462856  19.849   6.394   5.423
 4878POPC   GL162857  19.774   6.570   5.814
 4878POPC   GL262858  19.754   6.230   5.909
 4878POPC   C1A62859  20.006   6.713   6.217
 4878POPC   D2A62860  20.287   6.574   6.590
 4878POPC   C3A62861  20.097   6.527   7.004
 4878POPC   C4A62862  19.776   6.832   7.112
 4878POPC   C1B62863  19.551   6.442   6.259
 4878POPC   C2B62864  19.710   6.588   6.656
 4878POPC   C3B62865  19.513   6.411   7.042
 4878POPC   C4B62866  19.809   6.211   7.328
 4879POPC   NC362867   2.098  22.210   5.384
 4879POPC   PO462868   2.315  21.686   5.648
 4879POPC   GL162869   2.142  22.017   5.858
 4879POPC   GL262870   2.299  22.345   5.822
 4879POPC   C1A62871   1.858  22.272   6.103
 4879POPC   D2A62872   1.695  22.151   6.498
 4879POPC   C3A62873   1.771  22.290   6.918
 4879POPC   C4A62874   1.746  22.030   7.241
 4879POPC   C1B62875   2.351  22.197   6.272
 4879POPC   C2B62876   2.216  22.095   6.671
 4879POPC   C3B62877   2.286  22.093   7.111
 4879POPC   C4B62878   2.155  22.215   7.513
 4880POPC   NC362879   5.622  22.529   5.465
 4880POPC   PO462880   6.064  23.016   5.504
 4880POPC   GL162881   5.838  22.961   5.858
 4880POPC   GL262882   5.492  22.920   5.789
 4880POPC   C1A62883   5.849  23.080   6.280
 4880POPC   D2A62884   5.920  22.900   6.703
 4880POPC   C3A62885   5.932  23.174   7.071
 4880POPC   C4A62886   5.934  23.138   7.526
 4880POPC   C1B62887   5.343  23.130   6.186
 4880POPC   C2B62888   5.512  23.222   6.638
 4880POPC   C3B62889   5.451  23.003   7.012
 4880POPC   C4B62890   5.448  23.014   7.459
 4881POPC   NC362891   3.917  30.488   5.589
 4881POPC   PO462892   4.404  30.929   5.449
 4881POPC   GL162893   4.216  30.839   5.815
 4881POPC   GL262894   4.449  30.559   5.888
 4881POPC   C1A62895   4.236  30.952   6.235
 4881POPC   D2A62896   4.553  30.904   6.560
 4881POPC   C3A62897   4.339  30.759   6.915
 4881POPC   C4A62898   4.140  30.961   7.229
 4881POPC   C1B62899   4.177  30.410   6.250
 4881POPC   C2B62900   4.182  30.309   6.714
 4881POPC   C3B62901   3.951  30.434   7.088
 4881POPC   C4B62902   3.981  30.273   7.535
 4882POPC   NC362903   0.770  14.410   5.429
 4882POPC   PO462904   0.146  14.569   5.375
 4882POPC   GL162905   0.306  14.458   5.781
 4882POPC   GL262906   0.167  14.153   5.950
 4882POPC   C1A62907   0.455  14.606   6.169
 4882POPC   D2A62908   0.767  14.605   6.510
 4882POPC   C3A62909   0.561  14.573   6.940
 4882POPC   C4A62910   0.197  14.455   7.242
 4882POPC   C1B62911   0.563  14.103   6.211
 4882POPC   C2B62912   0.666  14.092   6.650
 4882POPC   C3B62913   0.631  14.094   7.118
 4882POPC   C4B62914   0.623  13.957   7.543
 4883POPC   NC362915   1.774  27.879   5.161
 4883POPC   PO462916   1.926  28.482   5.260
 4883POPC   GL162917   1.889  28.536   5.698
 4883POPC   GL262918   1.626  28.792   5.743
 4883POPC   C1A62919   1.954  28.230   6.052
 4883POPC   D2A62920   2.196  28.190   6.447
 4883POPC   C3A62921   1.983  28.362   6.819
 4883POPC   C4A62922   2.076  28.324   7.245
 4883POPC   C1B62923   1.730  28.677   6.173
 4883POPC   C2B62924   1.580  28.582   6.581
 4883POPC   C3B62925   1.646  28.695   7.014
 4883POPC   C4B62926   1.653  28.616   7.459
 4884POPC   NC362927  42.786  19.967   5.376
 4884POPC   PO462928  43.342  19.486   5.348
 4884POPC   GL162929  43.250  19.693   5.758
 4884POPC   GL262930  42.933  19.624   5.816
 4884POPC   C1A62931  43.213  19.820   6.196
 4884POPC   D2A62932  43.143  19.623   6.599
 4884POPC   C3A62933  43.334  19.798   6.996
 4884POPC   C4A62934  43.468  20.065   7.337
 4884POPC   C1B62935  42.756  19.604   6.247
 4884POPC   C2B62936  42.661  19.824   6.632
 4884POPC   C3B62937  42.823  19.787   7.023
 4884POPC   C4B62938  42.721  19.369   7.120
 4885POPC   NC362939  44.322   4.126   5.414
 4885POPC   PO462940  44.874   4.523   5.432
 4885POPC   GL162941  44.693   4.266   5.734
 4885POPC   GL262942  44.440   4.537   5.775
 4885POPC   C1A62943  44.711   4.043   6.140
 4885POPC   D2A62944  44.829   4.110   6.586
 4885POPC   C3A62945  44.555   4.133   6.934
 4885POPC   C4A62946  44.216   3.988   7.141
 4885POPC   C1B62947  44.739   4.556   6.148
 4885POPC   C2B62948  44.819   4.742   6.538
 4885POPC   C3B62949  44.878   4.536   6.938
 4885POPC   C4B62950  44.656   4.553   7.337
 4886POPC   NC362951  25.260  35.509   5.332
 4886POPC   PO462952  24.974  34.869   5.544
 4886POPC   GL162953  25.260  35.205   5.759
 4886POPC   GL262954  25.093  35.534   5.798
 4886POPC   C1A62955  25.462  35.376   6.174
 4886POPC   D2A62956  25.374  35.204   6.622
 4886POPC   C3A62957  25.582  35.327   7.046
 4886POPC   C4A62958  25.494  35.690   7.309
 4886POPC   C1B62959  24.965  35.429   6.206
 4886POPC   C2B62960  25.021  35.591   6.607
 4886POPC   C3B62961  25.077  35.478   7.046
 4886POPC   C4B62962  24.865  35.237   7.362
 4887POPC   NC362963   2.584  30.578   5.208
 4887POPC   PO462964   3.091  30.976   5.196
 4887POPC   GL162965   2.965  30.691   5.576
 4887POPC   GL262966   2.631  30.717   5.690
 4887POPC   C1A62967   2.961  30.669   6.072
 4887POPC   D2A62968   2.847  30.835   6.482
 4887POPC   C3A62969   3.012  30.763   6.895
 4887POPC   C4A62970   2.785  30.754   7.295
 4887POPC   C1B62971   2.455  30.568   6.080
 4887POPC   C2B62972   2.638  30.356   6.429
 4887POPC   C3B62973   2.659  30.399   6.871
 4887POPC   C4B62974   3.003  30.306   7.180
 4888POPC   NC362975  25.145   1.054   5.484
 4888POPC   PO462976  25.185   0.354   5.296
 4888POPC   GL162977  25.197   0.328   5.733
 4888POPC   GL262978  25.545   0.197   5.746
 4888POPC   C1A62979  25.131   0.553   6.134
 4888POPC   D2A62980  25.336   0.561   6.534
 4888POPC   C3A62981  25.074   0.575   6.883
 4888POPC   C4A62982  25.291   0.652   7.262
 4888POPC   C1B62983  25.449   0.143   6.177
 4888POPC   C2B62984  25.560   0.089   6.577
 4888POPC   C3B62985  25.489   0.248   6.969
 4888POPC   C4B62986  25.773   0.373   7.279
 4889POPC   NC362987   7.780  34.216   5.650
 4889POPC   PO462988   8.332  34.464   5.286
 4889POPC   GL162989   8.158  34.581   5.726
 4889POPC   GL262990   8.449  34.577   5.935
 4889POPC   C1A62991   8.064  34.786   6.168
 4889POPC   D2A62992   7.985  34.672   6.617
 4889POPC   C3A62993   8.177  34.868   6.967
 4889POPC   C4A62994   8.166  34.847   7.426
 4889POPC   C1B62995   8.247  34.323   6.248
 4889POPC   C2B62996   8.310  34.268   6.660
 4889POPC   C3B62997   8.242  34.364   7.072
 4889POPC   C4B62998   8.081  34.200   7.436
 4890POPC   NC362999   5.279  25.683   5.596
 4890POPC   PO463000   4.959  25.043   5.514
 4890POPC   GL163001   5.056  25.271   5.872
 4890POPC   GL263002   4.848  25.548   5.839
 4890POPC   C1A63003   5.170  25.308   6.306
 4890POPC   D2A63004   5.472  25.455   6.569
 4890POPC   C3A63005   5.305  25.404   6.970
 4890POPC   C4A63006   5.242  25.177   7.380
 4890POPC   C1B63007   4.752  25.609   6.233
 4890POPC   C2B63008   4.691  25.414   6.604
 4890POPC   C3B63009   4.742  25.606   6.984
 4890POPC   C4B63010   5.013  25.656   7.293
 4891POPC   NC363011  32.597  37.717   5.464
 4891POPC   PO463012  31.881  37.719   5.269
 4891POPC   GL163013  32.039  37.752   5.733
 4891POPC   GL263014  32.364  37.845   5.940
 4891POPC   C1A63015  31.851  37.762   6.168
 4891POPC   D2A63016  31.756  37.532   6.573
 4891POPC   C3A63017  31.852  37.761   6.927
 4891POPC   C4A63018  32.115  37.575   7.211
 4891POPC   C1B63019  32.332  37.945   6.416
 4891POPC   C2B63020  32.409  37.795   6.859
 4891POPC   C3B63021  32.558  37.782   7.327
 4891POPC   C4B63022  32.594  37.835   7.812
 4892POPC   NC363023  15.972  31.631   5.445
 4892POPC   PO463024  15.517  31.196   5.451
 4892POPC   GL163025  15.756  31.373   5.840
 4892POPC   GL263026  16.010  31.680   5.945
 4892POPC   C1A63027  15.889  31.297   6.288
 4892POPC   D2A63028  15.822  31.522   6.627
 4892POPC   C3A63029  15.894  31.442   7.051
 4892POPC   C4A63030  15.930  31.143   7.366
 4892POPC   C1B63031  16.291  31.598   6.279
 4892POPC   C2B63032  16.302  31.581   6.721
 4892POPC   C3B63033  16.404  31.377   7.087
 4892POPC   C4B63034  16.466  31.374   7.513
 4893POPC   NC363035  31.102  39.818   5.456
 4893POPC   PO463036  31.717  40.020   5.503
 4893POPC   GL163037  31.456  39.915   5.811
 4893POPC   GL263038  31.471  39.564   5.755
 4893POPC   C1A63039  31.377  40.095   6.178
 4893POPC   D2A63040  31.374  40.338   6.531
 4893POPC   C3A63041  31.209  40.120   6.868
 4893POPC   C4A63042  31.158  40.017   7.325
 4893POPC   C1B63043  31.617  39.608   6.175
 4893POPC   C2B63044  31.440  39.710   6.537
 4893POPC   C3B63045  31.408  39.666   6.952
 4893POPC   C4B63046  31.623  39.889   7.242
 4894POPC   NC363047   4.799  13.728   5.385
 4894POPC   PO463048   5.356  13.490   5.514
 4894POPC   GL163049   5.039  13.476   5.823
 4894POPC   GL263050   4.937  13.813   5.876
 4894POPC   C1A63051   5.049  13.372   6.278
 4894POPC   D2A63052   5.188  13.128   6.648
 4894POPC   C3A63053   5.157  13.374   7.018
 4894POPC   C4A63054   5.153  13.559   7.422
 4894POPC   C1B63055   5.347  13.776   6.149
 4894POPC   C2B63056   5.471  13.837   6.623
 4894POPC   C3B63057   5.252  13.909   7.038
 4894POPC   C4B63058   4.839  14.066   7.196
 4895POPC   NC363059  40.394  30.488   5.312
 4895POPC   PO463060  40.117  30.871   5.796
 4895POPC   GL163061  39.782  30.920   6.042
 4895POPC   GL263062  39.685  30.574   5.949
 4895POPC   C1A63063  39.910  31.160   6.370
 4895POPC   D2A63064  40.250  31.002   6.584
 4895POPC   C3A63065  40.081  30.833   6.924
 4895POPC   C4A63066  40.208  30.818   7.341
 4895POPC   C1B63067  39.769  30.605   6.425
 4895POPC   C2B63068  39.908  30.372   6.772
 4895POPC   C3B63069  40.196  30.290   7.097
 4895POPC   C4B63070  39.872  30.237   7.357
 4896POPC   NC363071  40.998   9.788   5.352
 4896POPC   PO463072  40.375   9.529   5.306
 4896POPC   GL163073  40.525   9.758   5.685
 4896POPC   GL263074  40.854   9.737   5.832
 4896POPC   C1A63075  40.470   9.881   6.142
 4896POPC   D2A63076  40.714   9.885   6.542
 4896POPC   C3A63077  40.489   9.774   6.891
 4896POPC   C4A63078  40.608   9.942   7.270
 4896POPC   C1B63079  41.069   9.865   6.181
 4896POPC   C2B63080  41.245   9.910   6.587
 4896POPC   C3B63081  41.074   9.841   7.015
 4896POPC   C4B63082  41.152   9.528   7.349
 4897POPC   NC363083  36.710  10.208   5.425
 4897POPC   PO463084  37.046   9.509   5.448
 4897POPC   GL163085  37.080   9.855   5.750
 4897POPC   GL263086  36.934   9.583   5.951
 4897POPC   C1A63087  36.911  10.020   6.170
 4897POPC   D2A63088  36.897   9.714   6.516
 4897POPC   C3A63089  37.028   9.851   6.949
 4897POPC   C4A63090  37.289   9.803   7.314
 4897POPC   C1B63091  36.549   9.470   6.136
 4897POPC   C2B63092  36.417   9.489   6.538
 4897POPC   C3B63093  36.660   9.479   6.913
 4897POPC   C4B63094  36.501   9.556   7.301
 4898POPC   NC363095   1.808   0.617   5.471
 4898POPC   PO463096   1.946  44.991   5.689
 4898POPC   GL163097   1.893   0.379   5.901
 4898POPC   GL263098   2.222   0.528   5.850
 4898POPC   C1A63099   1.905   0.681   6.218
 4898POPC   D2A63100   1.810   0.493   6.617
 4898POPC   C3A63101   1.926   0.676   7.006
 4898POPC   C4A63102   1.749   0.994   7.244
 4898POPC   C1B63103   2.265   0.343   6.309
 4898POPC   C2B63104   2.274   0.340   6.781
 4898POPC   C3B63105   2.351   0.403   7.216
 4898POPC   C4B63106   2.432   0.299   7.673
 4899POPC   NC363107  42.326   6.260   5.609
 4899POPC   PO463108  42.463   6.812   5.152
 4899POPC   GL163109  42.548   6.835   5.676
 4899POPC   GL263110  42.647   6.574   5.848
 4899POPC   C1A63111  42.479   6.858   6.208
 4899POPC   D2A63112  42.326   6.904   6.675
 4899POPC   C3A63113  42.145   6.547   6.956
 4899POPC   C4A63114  41.880   6.564   7.314
 4899POPC   C1B63115  42.568   6.343   6.216
 4899POPC   C2B63116  42.512   6.395   6.627
 4899POPC   C3B63117  42.651   6.627   6.971
 4899POPC   C4B63118  42.641   6.518   7.354
 4900POPC   NC363119  32.369  30.162   5.500
 4900POPC   PO463120  32.305  30.825   5.416
 4900POPC   GL163121  32.125  30.694   5.788
 4900POPC   GL263122  32.410  30.545   5.881
 4900POPC   C1A63123  32.049  30.722   6.231
 4900POPC   D2A63124  32.259  30.810   6.607
 4900POPC   C3A63125  32.018  30.821   6.963
 4900POPC   C4A63126  32.030  30.645   7.350
 4900POPC   C1B63127  32.403  30.317   6.268
 4900POPC   C2B63128  32.579  30.407   6.692
 4900POPC   C3B63129  32.409  30.359   7.114
 4900POPC   C4B63130  32.659  30.195   7.490
 4901POPC   NC363131  14.641   1.642   5.403
 4901POPC   PO463132  14.221   2.260   5.465
 4901POPC   GL163133  14.153   2.051   5.880
 4901POPC   GL263134  14.384   1.772   5.837
 4901POPC   C1A63135  14.282   1.871   6.318
 4901POPC   D2A63136  14.386   1.610   6.690
 4901POPC   C3A63137  14.308   1.892   7.047
 4901POPC   C4A63138  14.416   2.276   7.261
 4901POPC   C1B63139  14.777   1.852   6.103
 4901POPC   C2B63140  14.908   1.707   6.536
 4901POPC   C3B63141  14.839   1.889   6.974
 4901POPC   C4B63142  14.655   1.845   7.414
 4902POPC   NC363143  33.595  18.390   5.201
 4902POPC   PO463144  34.071  17.992   5.426
 4902POPC   GL163145  33.747  18.103   5.712
 4902POPC   GL263146  33.759  18.435   5.670
 4902POPC   C1A63147  33.814  18.265   6.143
 4902POPC   D2A63148  34.140  18.309   6.433
 4902POPC   C3A63149  34.097  18.403   6.874
 4902POPC   C4A63150  33.837  18.212   7.213
 4902POPC   C1B63151  33.504  18.618   5.983
 4902POPC   C2B63152  33.486  18.530   6.428
 4902POPC   C3B63153  33.570  18.515   6.868
 4902POPC   C4B63154  33.328  18.463   7.233
 4903POPC   NC363155  12.502  18.555   5.595
 4903POPC   PO463156  12.020  18.993   5.359
 4903POPC   GL163157  12.013  19.157   5.764
 4903POPC   GL263158  12.236  18.896   5.883
 4903POPC   C1A63159  11.906  19.121   6.210
 4903POPC   D2A63160  12.133  18.939   6.565
 4903POPC   C3A63161  12.104  19.227   6.905
 4903POPC   C4A63162  11.878  19.100   7.248
 4903POPC   C1B63163  12.452  18.634   6.217
 4903POPC   C2B63164  12.554  18.625   6.629
 4903POPC   C3B63165  12.425  18.817   7.001
 4903POPC   C4B63166  12.195  18.704   7.353
 4904POPC   NC363167  37.740  30.326   5.445
 4904POPC   PO463168  37.396  30.884   5.358
 4904POPC   GL163169  37.744  30.850   5.649
 4904POPC   GL263170  37.476  30.778   5.873
 4904POPC   C1A63171  37.929  30.932   6.088
 4904POPC   D2A63172  37.789  31.106   6.509
 4904POPC   C3A63173  37.981  30.938   6.905
 4904POPC   C4A63174  37.856  30.572   7.194
 4904POPC   C1B63175  37.297  30.611   6.236
 4904POPC   C2B63176  37.355  30.751   6.595
 4904POPC   C3B63177  37.494  30.830   6.949
 4904POPC   C4B63178  37.374  30.746   7.325
 4905POPC   NC363179  19.565   0.235   5.570
 4905POPC   PO463180  20.006   0.612   5.291
 4905POPC   GL163181  20.100   0.459   5.744
 4905POPC   GL263182  19.777   0.564   5.861
 4905POPC   C1A63183  20.076   0.511   6.249
 4905POPC   D2A63184  20.072   0.369   6.668
 4905POPC   C3A63185  19.701   0.293   6.903
 4905POPC   C4A63186  19.954   0.451   7.189
 4905POPC   C1B63187  19.665   0.824   6.172
 4905POPC   C2B63188  19.671   0.698   6.569
 4905POPC   C3B63189  19.573   0.767   6.975
 4905POPC   C4B63190  19.454   0.533   7.313
 4906POPC   NC363191  31.871  43.987   5.053
 4906POPC   PO463192  31.262  43.705   5.160
 4906POPC   GL163193  31.254  43.745   5.650
 4906POPC   GL263194  31.160  44.088   5.792
 4906POPC   C1A63195  31.477  43.783   6.093
 4906POPC   D2A63196  31.819  43.922   6.424
 4906POPC   C3A63197  31.661  43.834   6.848
 4906POPC   C4A63198  31.558  43.804   7.281
 4906POPC   C1B63199  31.091  44.112   6.242
 4906POPC   C2B63200  31.186  43.830   6.583
 4906POPC   C3B63201  31.174  43.993   7.004
 4906POPC   C4B63202  31.258  44.165   7.434
 4907POPC   NC363203  14.721  43.058   5.372
 4907POPC   PO463204  14.051  43.340   5.344
 4907POPC   GL163205  14.242  43.353   5.788
 4907POPC   GL263206  14.592  43.182   5.872
 4907POPC   C1A63207  14.305  43.408   6.234
 4907POPC   D2A63208  14.579  43.239   6.554
 4907POPC   C3A63209  14.388  43.217   6.946
 4907POPC   C4A63210  14.510  43.294   7.340
 4907POPC   C1B63211  14.528  42.851   6.203
 4907POPC   C2B63212  14.674  42.581   6.522
 4907POPC   C3B63213  14.612  42.692   6.916
 4907POPC   C4B63214  14.411  42.805   7.285
 4908POPC   NC363215   9.024  31.408   5.521
 4908POPC   PO463216   8.501  31.802   5.740
 4908POPC   GL163217   8.850  31.658   5.920
 4908POPC   GL263218   8.743  31.325   5.961
 4908POPC   C1A63219   9.038  31.825   6.258
 4908POPC   D2A63220   8.811  31.954   6.597
 4908POPC   C3A63221   8.806  31.646   6.906
 4908POPC   C4A63222   8.924  31.839   7.289
 4908POPC   C1B63223   9.091  31.314   6.252
 4908POPC   C2B63224   9.091  31.236   6.705
 4908POPC   C3B63225   9.243  31.441   7.086
 4908POPC   C4B63226   9.330  31.242   7.455
 4909POPC   NC363227  11.193  16.464   5.244
 4909POPC   PO463228  11.016  15.819   5.275
 4909POPC   GL163229  11.028  16.063   5.641
 4909POPC   GL263230  11.380  16.077   5.693
 4909POPC   C1A63231  11.000  16.088   6.101
 4909POPC   D2A63232  10.902  15.879   6.497
 4909POPC   C3A63233  11.131  15.942   6.877
 4909POPC   C4A63234  10.981  15.899   7.267
 4909POPC   C1B63235  11.519  16.235   6.092
 4909POPC   C2B63236  11.476  16.090   6.518
 4909POPC   C3B63237  11.650  15.966   6.935
 4909POPC   C4B63238  11.477  16.129   7.319
 4910POPC   NC363239  29.477  30.766   5.115
 4910POPC   PO463240  28.909  30.610   5.477
 4910POPC   GL163241  29.070  30.557   5.879
 4910POPC   GL263242  29.272  30.872   5.955
 4910POPC   C1A63243  29.120  30.518   6.305
 4910POPC   D2A63244  29.008  30.417   6.668
 4910POPC   C3A63245  29.084  30.643   6.978
 4910POPC   C4A63246  29.078  30.353   7.294
 4910POPC   C1B63247  28.938  30.995   6.253
 4910POPC   C2B63248  28.834  31.114   6.700
 4910POPC   C3B63249  28.952  31.116   7.123
 4910POPC   C4B63250  29.290  31.286   7.367
 4911POPC   NC363251  18.013  37.076   5.180
 4911POPC   PO463252  18.500  36.609   5.309
 4911POPC   GL163253  18.482  36.684   5.768
 4911POPC   GL263254  18.111  36.782   5.900
 4911POPC   C1A63255  18.516  36.746   6.207
 4911POPC   D2A63256  18.219  36.644   6.548
 4911POPC   C3A63257  18.447  36.665   6.935
 4911POPC   C4A63258  18.360  36.830   7.333
 4911POPC   C1B63259  18.083  37.096   6.256
 4911POPC   C2B63260  18.069  37.322   6.651
 4911POPC   C3B63261  18.120  37.211   7.080
 4911POPC   C4B63262  18.052  37.200   7.511
 4912POPC   NC363263  12.103   4.635   5.389
 4912POPC   PO463264  11.868   4.031   5.460
 4912POPC   GL163265  12.029   4.098   5.836
 4912POPC   GL263266  12.315   4.335   5.795
 4912POPC   C1A63267  12.264   3.998   6.209
 4912POPC   D2A63268  12.026   3.926   6.582
 4912POPC   C3A63269  12.214   3.973   6.972
 4912POPC   C4A63270  12.094   4.232   7.275
 4912POPC   C1B63271  12.050   4.453   6.176
 4912POPC   C2B63272  11.866   4.649   6.518
 4912POPC   C3B63273  11.929   4.600   6.961
 4912POPC   C4B63274  11.808   4.642   7.401
 4913POPC   NC363275  23.214  11.990   5.179
 4913POPC   PO463276  23.821  12.158   5.364
 4913POPC   GL163277  23.770  11.928   5.715
 4913POPC   GL263278  23.408  11.845   5.685
 4913POPC   C1A63279  23.779  12.069   6.111
 4913POPC   D2A63280  23.571  12.298   6.451
 4913POPC   C3A63281  23.649  12.130   6.880
 4913POPC   C4A63282  23.574  12.166   7.330
 4913POPC   C1B63283  23.440  11.699   6.117
 4913POPC   C2B63284  23.630  11.755   6.510
 4913POPC   C3B63285  23.656  11.616   6.931
 4913POPC   C4B63286  23.439  11.667   7.278
 4914POPC   NC363287   3.861  33.861   5.439
 4914POPC   PO463288   3.728  33.233   5.439
 4914POPC   GL163289   3.732  33.533   5.803
 4914POPC   GL263290   3.532  33.872   5.834
 4914POPC   C1A63291   3.738  33.626   6.243
 4914POPC   D2A63292   3.680  33.891   6.586
 4914POPC   C3A63293   3.909  33.874   6.941
 4914POPC   C4A63294   3.871  33.627   7.304
 4914POPC   C1B63295   3.299  33.857   6.235
 4914POPC   C2B63296   3.303  33.538   6.564
 4914POPC   C3B63297   3.489  33.526   6.969
 4914POPC   C4B63298   3.353  33.655   7.364
 4915POPC   NC363299  27.457  37.714   5.314
 4915POPC   PO463300  28.106  37.617   5.428
 4915POPC   GL163301  27.764  37.623   5.744
 4915POPC   GL263302  27.509  37.909   5.783
 4915POPC   C1A63303  27.719  37.697   6.197
 4915POPC   D2A63304  27.929  37.753   6.572
 4915POPC   C3A63305  27.764  37.735   6.935
 4915POPC   C4A63306  27.997  37.687   7.317
 4915POPC   C1B63307  27.391  38.114   6.200
 4915POPC   C2B63308  27.271  38.021   6.635
 4915POPC   C3B63309  27.237  37.772   6.993
 4915POPC   C4B63310  27.485  37.803   7.358
 4916POPC   NC363311  39.140  35.703   5.608
 4916POPC   PO463312  39.369  35.016   5.561
 4916POPC   GL163313  39.243  35.059   5.961
 4916POPC   GL263314  39.128  35.401   6.016
 4916POPC   C1A63315  39.392  35.124   6.352
 4916POPC   D2A63316  39.272  35.470   6.541
 4916POPC   C3A63317  39.090  35.267   6.840
 4916POPC   C4A63318  39.150  35.056   7.192
 4916POPC   C1B63319  38.825  35.597   6.300
 4916POPC   C2B63320  38.734  35.611   6.745
 4916POPC   C3B63321  38.850  35.504   7.206
 4916POPC   C4B63322  38.798  35.711   7.634
 4917POPC   NC363323  17.663   3.043   5.727
 4917POPC   PO463324  17.425   2.421   5.631
 4917POPC   GL163325  17.406   2.663   5.990
 4917POPC   GL263326  17.187   2.978   5.923
 4917POPC   C1A63327  17.504   2.877   6.364
 4917POPC   D2A63328  17.425   3.176   6.682
 4917POPC   C3A63329  17.351   2.902   7.008
 4917POPC   C4A63330  17.641   2.633   7.191
 4917POPC   C1B63331  16.927   2.656   6.165
 4917POPC   C2B63332  17.080   2.398   6.498
 4917POPC   C3B63333  17.231   2.380   6.923
 4917POPC   C4B63334  17.145   2.519   7.315
 4918POPC   NC363335  37.769  33.878   5.512
 4918POPC   PO463336  37.869  33.235   5.522
 4918POPC   GL163337  37.773  33.473   5.868
 4918POPC   GL263338  37.454  33.608   5.809
 4918POPC   C1A63339  37.923  33.640   6.254
 4918POPC   D2A63340  38.133  33.636   6.678
 4918POPC   C3A63341  37.830  33.679   6.982
 4918POPC   C4A63342  37.629  33.800   7.345
 4918POPC   C1B63343  37.378  33.551   6.228
 4918POPC   C2B63344  37.579  33.443   6.596
 4918POPC   C3B63345  37.380  33.374   6.998
 4918POPC   C4B63346  37.428  33.330   7.437
 4919POPC   NC363347   6.464  28.853   5.095
 4919POPC   PO463348   5.948  29.205   5.369
 4919POPC   GL163349   5.719  29.162   5.730
 4919POPC   GL263350   5.586  28.832   5.742
 4919POPC   C1A63351   5.838  29.275   6.147
 4919POPC   D2A63352   6.069  29.456   6.498
 4919POPC   C3A63353   6.036  29.243   6.899
 4919POPC   C4A63354   6.130  29.034   7.276
 4919POPC   C1B63355   5.422  28.976   6.167
 4919POPC   C2B63356   5.593  29.174   6.588
 4919POPC   C3B63357   5.511  29.184   7.043
 4919POPC   C4B63358   5.638  28.968   7.417
 4920POPC   NC363359  16.222   0.029   5.443
 4920POPC   PO463360  15.600   0.198   5.467
 4920POPC   GL163361  15.867   0.316   5.800
 4920POPC   GL263362  15.830   0.700   5.818
 4920POPC   C1A63363  16.005   0.192   6.216
 4920POPC   D2A63364  15.866   0.026   6.624
 4920POPC   C3A63365  16.044   0.204   7.028
 4920POPC   C4A63366  16.228   0.283   7.459
 4920POPC   C1B63367  15.974   0.733   6.242
 4920POPC   C2B63368  15.936   0.550   6.651
 4920POPC   C3B63369  15.772   0.636   7.060
 4920POPC   C4B63370  15.808   1.035   7.243
 4921POPC   NC363371  43.772   5.473   5.419
 4921POPC   PO463372  44.121   4.884   5.353
 4921POPC   GL163373  43.947   5.088   5.731
 4921POPC   GL263374  44.118   5.402   5.804
 4921POPC   C1A63375  43.712   4.973   6.127
 4921POPC   D2A63376  43.911   4.782   6.516
 4921POPC   C3A63377  43.885   4.951   6.924
 4921POPC   C4A63378  43.710   5.264   7.229
 4921POPC   C1B63379  44.090   5.285   6.230
 4921POPC   C2B63380  43.982   5.360   6.646
 4921POPC   C3B63381  44.210   5.331   7.063
 4921POPC   C4B63382  44.171   5.319   7.516
 4922POPC   NC363383  42.453  13.465   5.244
 4922POPC   PO463384  42.094  13.969   5.497
 4922POPC   GL163385  42.234  13.700   5.809
 4922POPC   GL263386  42.197  13.364   5.701
 4922POPC   C1A63387  42.281  13.748   6.252
 4922POPC   D2A63388  42.162  13.829   6.684
 4922POPC   C3A63389  42.466  13.636   6.951
 4922POPC   C4A63390  42.458  13.532   7.368
 4922POPC   C1B63391  42.300  13.212   6.134
 4922POPC   C2B63392  42.438  13.231   6.597
 4922POPC   C3B63393  42.569  13.146   7.055
 4922POPC   C4B63394  42.584  13.092   7.550
 4923POPC   NC363395  14.669  12.239   5.166
 4923POPC   PO463396  14.210  11.877   5.476
 4923POPC   GL163397  14.414  12.188   5.754
 4923POPC   GL263398  14.432  11.961   5.988
 4923POPC   C1A63399  14.485  12.385   6.206
 4923POPC   D2A63400  14.473  12.062   6.526
 4923POPC   C3A63401  14.522  12.314   6.897
 4923POPC   C4A63402  14.652  12.137   7.262
 4923POPC   C1B63403  14.154  11.694   6.268
 4923POPC   C2B63404  14.136  11.606   6.699
 4923POPC   C3B63405  14.417  11.784   6.976
 4923POPC   C4B63406  14.543  11.675   7.386
 4924POPC   NC363407  31.178  11.355   5.190
 4924POPC   PO463408  31.515  10.911   5.472
 4924POPC   GL163409  31.394  11.204   5.802
 4924POPC   GL263410  31.680  11.305   5.881
 4924POPC   C1A63411  31.306  11.352   6.220
 4924POPC   D2A63412  31.169  11.380   6.631
 4924POPC   C3A63413  31.481  11.417   6.920
 4924POPC   C4A63414  31.633  11.390   7.334
 4924POPC   C1B63415  31.796  11.054   6.200
 4924POPC   C2B63416  31.862  11.209   6.588
 4924POPC   C3B63417  31.823  11.054   6.994
 4924POPC   C4B63418  31.754  10.851   7.372
 4925POPC   NC363419  14.101  28.255   5.174
 4925POPC   PO463420  13.493  28.462   5.367
 4925POPC   GL163421  13.602  28.395   5.769
 4925POPC   GL263422  13.761  28.696   5.842
 4925POPC   C1A63423  13.503  28.204   6.159
 4925POPC   D2A63424  13.691  28.030   6.508
 4925POPC   C3A63425  13.439  28.057   6.884
 4925POPC   C4A63426  13.555  28.254   7.257
 4925POPC   C1B63427  13.632  28.751   6.230
 4925POPC   C2B63428  13.582  28.543   6.611
 4925POPC   C3B63429  13.796  28.603   6.987
 4925POPC   C4B63430  13.963  28.635   7.395
 4926POPC   NC363431  35.440  30.802   5.311
 4926POPC   PO463432  34.806  31.023   5.240
 4926POPC   GL163433  35.003  30.914   5.680
 4926POPC   GL263434  35.308  31.143   5.717
 4926POPC   C1A63435  35.202  30.821   6.133
 4926POPC   D2A63436  35.438  30.974   6.536
 4926POPC   C3A63437  35.489  30.695   6.918
 4926POPC   C4A63438  35.658  30.360   7.233
 4926POPC   C1B63439  35.043  31.295   6.077
 4926POPC   C2B63440  35.084  31.384   6.504
 4926POPC   C3B63441  35.090  31.148   6.868
 4926POPC   C4B63442  35.160  30.942   7.236
 4927POPC   NC363443   0.038   2.494   5.448
 4927POPC   PO463444   0.535   2.944   5.472
 4927POPC   GL163445   0.632   2.890   5.900
 4927POPC   GL263446   0.417   2.594   5.917
 4927POPC   C1A63447   0.567   2.820   6.364
 4927POPC   D2A63448   0.483   2.525   6.697
 4927POPC   C3A63449   0.617   2.675   7.097
 4927POPC   C4A63450   0.417   2.737   7.494
 4927POPC   C1B63451   0.112   2.886   6.100
 4927POPC   C2B63452   0.075   3.081   6.518
 4927POPC   C3B63453   0.154   2.894   6.925
 4927POPC   C4B63454  44.899   2.820   7.282
 4928POPC   NC363455  12.893  42.884   5.294
 4928POPC   PO463456  13.203  42.418   5.639
 4928POPC   GL163457  13.029  42.831   5.825
 4928POPC   GL263458  12.988  43.173   5.720
 4928POPC   C1A63459  12.904  42.902   6.211
 4928POPC   D2A63460  13.144  43.035   6.522
 4928POPC   C3A63461  12.984  43.140   6.892
 4928POPC   C4A63462  13.138  43.359   7.203
 4928POPC   C1B63463  12.902  43.414   6.117
 4928POPC   C2B63464  12.683  43.290   6.512
 4928POPC   C3B63465  12.483  43.269   6.915
 4928POPC   C4B63466  12.615  43.058   7.244
 4929POPC   NC363467  23.344  26.742   5.414
 4929POPC   PO463468  22.737  27.017   5.345
 4929POPC   GL163469  22.927  26.905   5.716
 4929POPC   GL263470  22.628  26.765   5.877
 4929POPC   C1A63471  23.061  27.166   6.074
 4929POPC   D2A63472  22.975  27.300   6.508
 4929POPC   C3A63473  22.980  27.034   6.863
 4929POPC   C4A63474  22.652  27.070   7.166
 4929POPC   C1B63475  22.783  26.525   6.257
 4929POPC   C2B63476  22.664  26.283   6.652
 4929POPC   C3B63477  22.616  26.297   7.113
 4929POPC   C4B63478  22.385  26.522   7.464
 4930POPC   NC363479  26.285  30.564   5.581
 4930POPC   PO463480  26.811  30.975   5.581
 4930POPC   GL163481  26.607  30.821   5.877
 4930POPC   GL263482  26.784  30.503   5.811
 4930POPC   C1A63483  26.678  30.781   6.292
 4930POPC   D2A63484  27.006  30.694   6.564
 4930POPC   C3A63485  26.908  30.816   6.983
 4930POPC   C4A63486  26.536  30.984   7.157
 4930POPC   C1B63487  26.840  30.306   6.221
 4930POPC   C2B63488  26.587  30.335   6.588
 4930POPC   C3B63489  26.605  30.375   7.024
 4930POPC   C4B63490  26.891  30.340   7.325
 4931POPC   NC363491  23.591  37.877   5.505
 4931POPC   PO463492  23.910  37.266   5.405
 4931POPC   GL163493  23.657  37.381   5.770
 4931POPC   GL263494  23.639  37.701   5.965
 4931POPC   C1A63495  23.575  37.260   6.198
 4931POPC   D2A63496  23.741  37.541   6.491
 4931POPC   C3A63497  23.785  37.407   6.882
 4931POPC   C4A63498  23.479  37.524   7.184
 4931POPC   C1B63499  23.963  37.897   6.141
 4931POPC   C2B63500  23.965  38.002   6.547
 4931POPC   C3B63501  23.750  37.911   6.906
 4931POPC   C4B63502  23.714  38.008   7.273
 4932POPC   NC363503  42.147   4.639   5.474
 4932POPC   PO463504  42.570   4.164   5.535
 4932POPC   GL163505  42.324   4.126   5.900
 4932POPC   GL263506  41.977   4.241   5.786
 4932POPC   C1A63507  42.453   3.953   6.310
 4932POPC   D2A63508  42.682   3.964   6.701
 4932POPC   C3A63509  42.448   4.186   6.997
 4932POPC   C4A63510  42.338   4.605   7.074
 4932POPC   C1B63511  42.074   4.553   6.124
 4932POPC   C2B63512  42.163   4.520   6.569
 4932POPC   C3B63513  41.941   4.303   6.896
 4932POPC   C4B63514  42.023   4.276   7.316
 4933POPC   NC363515  44.900  16.934   5.433
 4933POPC   PO463516  44.554  16.368   5.403
 4933POPC   GL163517  44.615  16.622   5.765
 4933POPC   GL263518  44.922  16.583   5.848
 4933POPC   C1A63519  44.484  16.403   6.116
 4933POPC   D2A63520  44.740  16.320   6.456
 4933POPC   C3A63521  44.794  16.638   6.750
 4933POPC   C4A63522  44.840  16.698   7.164
 4933POPC   C1B63523  44.776  16.818   6.231
 4933POPC   C2B63524   0.037  17.027   6.547
 4933POPC   C3B63525   0.154  17.093   6.980
 4933POPC   C4B63526  44.997  17.093   7.425
 4934POPC   NC363527   9.501  26.598   5.076
 4934POPC   PO463528   9.951  27.047   5.343
 4934POPC   GL163529   9.902  26.817   5.746
 4934POPC   GL263530   9.634  26.951   5.919
 4934POPC   C1A63531   9.933  26.627   6.201
 4934POPC   D2A63532  10.104  26.623   6.659
 4934POPC   C3A63533   9.870  26.744   7.035
 4934POPC   C4A63534   9.841  26.653   7.463
 4934POPC   C1B63535   9.439  26.760   6.260
 4934POPC   C2B63536   9.571  26.589   6.619
 4934POPC   C3B63537   9.378  26.667   6.974
 4934POPC   C4B63538   9.287  26.546   7.417
 4935POPC   NC363539   9.018  28.645   5.192
 4935POPC   PO463540   8.736  28.017   5.424
 4935POPC   GL163541   8.721  28.227   5.830
 4935POPC   GL263542   9.058  28.355   5.829
 4935POPC   C1A63543   8.807  28.401   6.267
 4935POPC   D2A63544   9.114  28.476   6.602
 4935POPC   C3A63545   9.069  28.556   7.021
 4935POPC   C4A63546   8.821  28.444   7.346
 4935POPC   C1B63547   9.305  28.148   6.156
 4935POPC   C2B63548   9.448  28.082   6.562
 4935POPC   C3B63549   9.346  28.135   6.972
 4935POPC   C4B63550   9.356  28.279   7.406
 4936POPC   NC363551  25.530  14.991   5.317
 4936POPC   PO463552  24.880  14.944   5.135
 4936POPC   GL163553  25.084  15.177   5.522
 4936POPC   GL263554  25.244  14.903   5.735
 4936POPC   C1A63555  25.321  15.354   5.942
 4936POPC   D2A63556  25.616  15.309   6.310
 4936POPC   C3A63557  25.417  15.247   6.731
 4936POPC   C4A63558  25.146  15.386   7.065
 4936POPC   C1B63559  25.237  14.887   6.207
 4936POPC   C2B63560  25.147  14.670   6.609
 4936POPC   C3B63561  25.212  14.834   7.042
 4936POPC   C4B63562  25.022  15.024   7.410
 4937POPC   NC363563  18.247   8.129   5.260
 4937POPC   PO463564  18.197   8.608   5.676
 4937POPC   GL163565  18.382   8.240   5.853
 4937POPC   GL263566  18.229   7.883   5.836
 4937POPC   C1A63567  18.382   8.210   6.307
 4937POPC   D2A63568  18.018   8.059   6.573
 4937POPC   C3A63569  17.948   8.126   6.999
 4937POPC   C4A63570  18.103   8.483   7.219
 4937POPC   C1B63571  18.301   7.713   6.284
 4937POPC   C2B63572  18.484   7.880   6.708
 4937POPC   C3B63573  18.438   8.071   7.147
 4937POPC   C4B63574  18.429   7.884   7.575
 4938POPC   NC363575  11.540  38.332   5.763
 4938POPC   PO463576  11.666  37.965   5.227
 4938POPC   GL163577  11.443  37.846   5.709
 4938POPC   GL263578  11.203  37.559   5.746
 4938POPC   C1A63579  11.497  37.850   6.203
 4938POPC   D2A63580  11.312  37.714   6.612
 4938POPC   C3A63581  11.392  37.788   7.054
 4938POPC   C4A63582  11.107  37.636   7.359
 4938POPC   C1B63583  11.342  37.348   6.117
 4938POPC   C2B63584  11.295  37.170   6.537
 4938POPC   C3B63585  11.288  37.302   6.972
 4938POPC   C4B63586  11.567  37.373   7.324
 4939POPC   NC363587  24.073  28.603   5.368
 4939POPC   PO463588  23.675  29.169   5.411
 4939POPC   GL163589  23.839  28.968   5.762
 4939POPC   GL263590  23.573  29.180   5.904
 4939POPC   C1A63591  23.996  29.094   6.174
 4939POPC   D2A63592  24.176  29.186   6.567
 4939POPC   C3A63593  24.011  28.952   6.883
 4939POPC   C4A63594  23.929  29.101   7.301
 4939POPC   C1B63595  23.391  29.190   6.286
 4939POPC   C2B63596  23.648  29.201   6.619
 4939POPC   C3B63597  23.547  29.268   7.024
 4939POPC   C4B63598  23.256  29.274   7.336
 4940POPC   NC363599  24.943  26.189   5.196
 4940POPC   PO463600  24.292  25.956   5.328
 4940POPC   GL163601  24.526  25.945   5.702
 4940POPC   GL263602  24.393  26.275   5.781
 4940POPC   C1A63603  24.687  25.854   6.139
 4940POPC   D2A63604  24.757  26.082   6.531
 4940POPC   C3A63605  24.620  25.884   6.925
 4940POPC   C4A63606  24.637  26.077   7.349
 4940POPC   C1B63607  24.326  26.247   6.242
 4940POPC   C2B63608  24.190  26.069   6.651
 4940POPC   C3B63609  24.178  26.078   7.113
 4940POPC   C4B63610  24.085  26.350   7.450
 4941POPC   NC363611  10.725  17.594   5.393
 4941POPC   PO463612  10.149  17.390   5.429
 4941POPC   GL163613  10.409  17.535   5.820
 4941POPC   GL263614  10.710  17.338   5.857
 4941POPC   C1A63615  10.347  17.680   6.273
 4941POPC   D2A63616  10.496  17.527   6.697
 4941POPC   C3A63617  10.607  17.800   7.054
 4941POPC   C4A63618  10.633  17.750   7.519
 4941POPC   C1B63619  10.851  17.664   6.174
 4941POPC   C2B63620  10.987  17.684   6.631
 4941POPC   C3B63621  10.923  17.401   7.029
 4941POPC   C4B63622  10.809  17.237   7.477
 4942POPC   NC363623  16.094  23.512   5.480
 4942POPC   PO463624  16.598  23.259   5.577
 4942POPC   GL163625  16.302  23.015   5.864
 4942POPC   GL263626  16.104  22.688   5.795
 4942POPC   C1A63627  16.035  23.052   6.237
 4942POPC   D2A63628  15.758  22.886   6.588
 4942POPC   C3A63629  15.920  22.928   7.020
 4942POPC   C4A63630  16.359  23.084   7.111
 4942POPC   C1B63631  15.999  22.553   6.250
 4942POPC   C2B63632  15.889  22.375   6.668
 4942POPC   C3B63633  15.761  22.398   7.103
 4942POPC   C4B63634  16.036  22.410   7.479
 4943POPC   NC363635   0.836   0.377   5.245
 4943POPC   PO463636   1.426   0.355   5.458
 4943POPC   GL163637   1.360   0.249   5.855
 4943POPC   GL263638   1.047   0.078   5.804
 4943POPC   C1A63639   1.483   0.396   6.228
 4943POPC   D2A63640   1.294   0.595   6.575
 4943POPC   C3A63641   1.459   0.461   6.992
 4943POPC   C4A63642   1.370   0.326   7.393
 4943POPC   C1B63643   0.991   0.304   6.195
 4943POPC   C2B63644   0.899   0.265   6.598
 4943POPC   C3B63645   1.036   0.179   6.972
 4943POPC   C4B63646   0.967   0.063   7.360
 4944POPC   NC363647  34.328  36.231   5.393
 4944POPC   PO463648  34.939  36.502   5.282
 4944POPC   GL163649  34.799  36.260   5.685
 4944POPC   GL263650  34.761  35.884   5.765
 4944POPC   C1A63651  34.613  36.253   6.120
 4944POPC   D2A63652  34.458  36.076   6.531
 4944POPC   C3A63653  34.556  36.269   6.922
 4944POPC   C4A63654  34.885  36.563   6.966
 4944POPC   C1B63655  34.365  35.803   6.055
 4944POPC   C2B63656  34.196  35.658   6.469
 4944POPC   C3B63657  34.424  35.679   6.885
 4944POPC   C4B63658  34.657  35.914   7.278
 4945POPC   NC363659  16.057  27.108   5.515
 4945POPC   PO463660  15.427  26.851   5.504
 4945POPC   GL163661  15.829  26.720   5.799
 4945POPC   GL263662  16.190  26.861   5.940
 4945POPC   C1A63663  15.914  26.556   6.231
 4945POPC   D2A63664  15.720  26.527   6.626
 4945POPC   C3A63665  15.677  26.798   7.010
 4945POPC   C4A63666  15.719  27.228   7.213
 4945POPC   C1B63667  15.991  27.081   6.274
 4945POPC   C2B63668  16.053  26.911   6.675
 4945POPC   C3B63669  16.176  26.947   7.098
 4945POPC   C4B63670  16.488  26.753   7.348
 4946POPC   NC363671   7.873  40.188   5.270
 4946POPC   PO463672   7.269  39.812   5.389
 4946POPC   GL163673   7.400  40.105   5.666
 4946POPC   GL263674   7.705  39.976   5.721
 4946POPC   C1A63675   7.501  40.268   6.089
 4946POPC   D2A63676   7.321  40.089   6.484
 4946POPC   C3A63677   7.388  40.329   6.874
 4946POPC   C4A63678   7.240  40.384   7.284
 4946POPC   C1B63679   7.607  39.778   6.140
 4946POPC   C2B63680   7.614  39.639   6.574
 4946POPC   C3B63681   7.547  39.806   7.017
 4946POPC   C4B63682   7.731  39.835   7.458
 4947POPC   NC363683  34.448  23.547   5.281
 4947POPC   PO463684  34.907  23.979   5.383
 4947POPC   GL163685  34.774  23.701   5.722
 4947POPC   GL263686  34.410  23.601   5.802
 4947POPC   C1A63687  34.753  23.819   6.149
 4947POPC   D2A63688  34.674  23.599   6.511
 4947POPC   C3A63689  34.786  23.776   6.885
 4947POPC   C4A63690  34.563  23.826   7.265
 4947POPC   C1B63691  34.259  23.264   6.105
 4947POPC   C2B63692  34.354  23.187   6.553
 4947POPC   C3B63693  34.346  23.466   6.923
 4947POPC   C4B63694  34.167  23.454   7.329
 4948POPC   NC363695  42.534  44.009   5.399
 4948POPC   PO463696  41.859  44.083   5.526
 4948POPC   GL163697  42.188  44.072   5.814
 4948POPC   GL263698  42.369  43.790   5.826
 4948POPC   C1A63699  42.211  44.046   6.265
 4948POPC   D2A63700  42.462  44.091   6.649
 4948POPC   C3A63701  42.225  43.866   6.973
 4948POPC   C4A63702  42.148  43.935   7.422
 4948POPC   C1B63703  42.657  43.826   6.186
 4948POPC   C2B63704  42.822  43.702   6.572
 4948POPC   C3B63705  42.733  43.768   6.975
 4948POPC   C4B63706  42.578  44.143   7.198
 4949POPC   NC363707   4.616  26.403   5.394
 4949POPC   PO463708   4.561  25.801   5.473
 4949POPC   GL163709   4.421  26.140   5.798
 4949POPC   GL263710   4.063  26.147   5.790
 4949POPC   C1A63711   4.324  26.167   6.265
 4949POPC   D2A63712   4.491  25.884   6.596
 4949POPC   C3A63713   4.340  25.953   7.024
 4949POPC   C4A63714   4.533  25.824   7.411
 4949POPC   C1B63715   3.851  26.381   6.115
 4949POPC   C2B63716   3.907  26.476   6.564
 4949POPC   C3B63717   4.086  26.481   6.999
 4949POPC   C4B63718   4.097  26.191   7.399
 4950POPC   NC363719  10.116  27.490   5.510
 4950POPC   PO463720  10.627  28.013   5.476
 4950POPC   GL163721  10.434  27.795   5.847
 4950POPC   GL263722  10.091  27.833   5.935
 4950POPC   C1A63723  10.659  27.763   6.256
 4950POPC   D2A63724  10.875  28.037   6.554
 4950POPC   C3A63725  10.725  28.039   6.965
 4950POPC   C4A63726  10.575  27.721   7.242
 4950POPC   C1B63727  10.187  27.622   6.348
 4950POPC   C2B63728  10.512  27.554   6.730
 4950POPC   C3B63729  10.726  27.267   7.095
 4950POPC   C4B63730  10.451  27.245   7.463
 4951POPC   NC363731  44.586   7.535   5.518
 4951POPC   PO463732   0.100   7.227   5.291
 4951POPC   GL163733  44.940   7.404   5.822
 4951POPC   GL263734  44.599   7.174   5.892
 4951POPC   C1A63735  44.604   7.587   6.191
 4951POPC   D2A63736  44.426   7.466   6.632
 4951POPC   C3A63737  44.684   7.587   7.007
 4951POPC   C4A63738   0.049   7.296   7.137
 4951POPC   C1B63739  44.866   7.150   6.293
 4951POPC   C2B63740  44.838   7.157   6.711
 4951POPC   C3B63741  44.512   7.110   7.029
 4951POPC   C4B63742  44.195   7.087   7.364
 4952POPC   NC363743  22.538  22.602   5.488
 4952POPC   PO463744  23.165  22.872   5.186
 4952POPC   GL163745  23.052  23.068   5.687
 4952POPC   GL263746  22.725  23.230   5.881
 4952POPC   C1A63747  23.040  22.956   6.172
 4952POPC   D2A63748  22.724  23.042   6.511
 4952POPC   C3A63749  22.900  23.112   6.922
 4952POPC   C4A63750  22.960  22.801   7.266
 4952POPC   C1B63751  22.558  22.830   6.083
 4952POPC   C2B63752  22.594  22.551   6.404
 4952POPC   C3B63753  22.707  22.624   6.838
 4952POPC   C4B63754  22.465  22.629   7.199
 4953POPC   NC363755   1.519  44.879   5.562
 4953POPC   PO463756   0.967  44.469   5.521
 4953POPC   GL163757   1.234  44.594   5.871
 4953POPC   GL263758   1.431  44.350   6.058
 4953POPC   C1A63759   1.313  44.878   6.232
 4953POPC   D2A63760   1.427   0.087   6.641
 4953POPC   C3A63761   1.456  44.914   7.093
 4953POPC   C4A63762   1.552  44.897   7.565
 4953POPC   C1B63763   1.040  44.419   6.301
 4953POPC   C2B63764   1.007  44.737   6.634
 4953POPC   C3B63765   0.981  44.658   7.050
 4953POPC   C4B63766   1.116  44.598   7.456
 4954POPC   NC363767   2.393  23.642   5.431
 4954POPC   PO463768   3.054  23.834   5.527
 4954POPC   GL163769   2.827  23.571   5.807
 4954POPC   GL263770   2.533  23.777   5.901
 4954POPC   C1A63771   2.998  23.317   6.161
 4954POPC   D2A63772   2.977  23.226   6.628
 4954POPC   C3A63773   2.856  23.643   6.865
 4954POPC   C4A63774   2.957  23.909   7.220
 4954POPC   C1B63775   2.538  24.108   6.212
 4954POPC   C2B63776   2.492  24.062   6.656
 4954POPC   C3B63777   2.453  23.948   7.097
 4954POPC   C4B63778   2.519  23.993   7.531
 4955POPC   NC363779  35.013  19.759   5.476
 4955POPC   PO463780  34.412  20.100   5.394
 4955POPC   GL163781  34.594  19.953   5.777
 4955POPC   GL263782  34.433  19.630   5.731
 4955POPC   C1A63783  34.449  19.987   6.228
 4955POPC   D2A63784  34.374  20.031   6.679
 4955POPC   C3A63785  34.754  20.031   6.910
 4955POPC   C4A63786  34.750  19.886   7.327
 4955POPC   C1B63787  34.657  19.532   6.129
 4955POPC   C2B63788  34.730  19.657   6.552
 4955POPC   C3B63789  34.584  19.559   6.960
 4955POPC   C4B63790  34.409  19.464   7.358
 4956POPC   NC363791  29.446  18.495   5.248
 4956POPC   PO463792  28.948  18.120   5.476
 4956POPC   GL163793  29.054  18.396   5.855
 4956POPC   GL263794  28.823  18.676   5.931
 4956POPC   C1A63795  29.079  18.430   6.329
 4956POPC   D2A63796  29.026  18.167   6.695
 4956POPC   C3A63797  29.119  18.380   7.089
 4956POPC   C4A63798  29.261  18.260   7.517
 4956POPC   C1B63799  28.613  18.681   6.304
 4956POPC   C2B63800  28.696  18.573   6.721
 4956POPC   C3B63801  28.849  18.804   7.063
 4956POPC   C4B63802  28.853  18.625   7.458
 4957POPC   NC363803   1.074  11.071   5.261
 4957POPC   PO463804   1.062  11.698   5.376
 4957POPC   GL163805   1.170  11.408   5.727
 4957POPC   GL263806   1.244  11.029   5.725
 4957POPC   C1A63807   1.115  11.491   6.177
 4957POPC   D2A63808   0.823  11.572   6.524
 4957POPC   C3A63809   0.994  11.713   6.931
 4957POPC   C4A63810   1.277  11.524   7.259
 4957POPC   C1B63811   1.178  10.972   6.162
 4957POPC   C2B63812   1.146  11.148   6.585
 4957POPC   C3B63813   0.953  11.145   6.990
 4957POPC   C4B63814   0.917  10.972   7.418
 4958POPC   NC363815   3.312   2.188   5.361
 4958POPC   PO463816   3.719   1.606   5.316
 4958POPC   GL163817   3.654   1.896   5.719
 4958POPC   GL263818   3.608   2.260   5.776
 4958POPC   C1A63819   3.728   2.005   6.195
 4958POPC   D2A63820   3.533   1.802   6.550
 4958POPC   C3A63821   3.527   1.858   6.985
 4958POPC   C4A63822   3.514   1.500   7.236
 4958POPC   C1B63823   3.457   2.467   6.149
 4958POPC   C2B63824   3.450   2.341   6.574
 4958POPC   C3B63825   3.478   2.410   6.998
 4958POPC   C4B63826   3.801   2.200   7.244
 4959POPC   NC363827  37.570  10.343   5.478
 4959POPC   PO463828  37.484  10.977   5.365
 4959POPC   GL163829  37.520  10.753   5.818
 4959POPC   GL263830  37.755  10.448   5.935
 4959POPC   C1A63831  37.513  10.719   6.292
 4959POPC   D2A63832  37.694  10.358   6.480
 4959POPC   C3A63833  37.874  10.387   6.835
 4959POPC   C4A63834  37.771  10.619   7.132
 4959POPC   C1B63835  37.395  10.206   6.100
 4959POPC   C2B63836  37.310  10.043   6.544
 4959POPC   C3B63837  37.380  10.246   6.961
 4959POPC   C4B63838  37.545  10.239   7.391
 4960POPC   NC363839  44.119  43.581   5.343
 4960POPC   PO463840  43.596  44.077   5.353
 4960POPC   GL163841  43.874  44.030   5.720
 4960POPC   GL263842  43.929  43.661   5.815
 4960POPC   C1A63843  43.734  43.983   6.169
 4960POPC   D2A63844  43.718  43.599   6.410
 4960POPC   C3A63845  43.771  43.581   6.867
 4960POPC   C4A63846  43.751  43.978   7.089
 4960POPC   C1B63847  44.227  43.886   6.116
 4960POPC   C2B63848  44.130  44.210   6.449
 4960POPC   C3B63849  44.295  44.165   6.869
 4960POPC   C4B63850  44.225  43.895   7.215
 4961POPC   NC363851  32.930  11.702   5.352
 4961POPC   PO463852  32.735  12.380   5.225
 4961POPC   GL163853  32.843  12.264   5.701
 4961POPC   GL263854  32.929  11.954   5.805
 4961POPC   C1A63855  32.951  12.362   6.145
 4961POPC   D2A63856  33.003  12.108   6.554
 4961POPC   C3A63857  33.270  12.155   6.912
 4961POPC   C4A63858  33.147  12.278   7.298
 4961POPC   C1B63859  32.858  11.758   6.198
 4961POPC   C2B63860  33.001  11.591   6.588
 4961POPC   C3B63861  32.932  11.665   6.996
 4961POPC   C4B63862  33.221  11.768   7.271
 4962POPC   NC363863  25.285  23.903   5.372
 4962POPC   PO463864  25.523  23.223   5.330
 4962POPC   GL163865  25.383  23.468   5.702
 4962POPC   GL263866  25.114  23.307   5.892
 4962POPC   C1A63867  25.409  23.727   6.107
 4962POPC   D2A63868  25.243  23.915   6.461
 4962POPC   C3A63869  25.234  23.665   6.836
 4962POPC   C4A63870  25.494  23.809   7.169
 4962POPC   C1B63871  25.104  23.405   6.355
 4962POPC   C2B63872  24.858  23.296   6.718
 4962POPC   C3B63873  24.833  23.427   7.126
 4962POPC   C4B63874  24.986  23.820   7.271
 4963POPC   NC363875  25.066  33.708   5.161
 4963POPC   PO463876  24.416  33.811   5.326
 4963POPC   GL163877  24.499  33.853   5.801
 4963POPC   GL263878  24.212  34.040   5.977
 4963POPC   C1A63879  24.729  33.968   6.211
 4963POPC   D2A63880  24.980  33.937   6.626
 4963POPC   C3A63881  24.730  33.882   7.015
 4963POPC   C4A63882  24.505  33.595   7.289
 4963POPC   C1B63883  24.091  33.723   6.328
 4963POPC   C2B63884  24.042  33.513   6.739
 4963POPC   C3B63885  24.050  33.742   7.134
 4963POPC   C4B63886  23.936  33.858   7.538
 4964POPC   NC363887  22.720  14.396   5.347
 4964POPC   PO463888  23.275  14.784   5.256
 4964POPC   GL163889  23.169  14.546   5.707
 4964POPC   GL263890  22.828  14.404   5.830
 4964POPC   C1A63891  23.178  14.367   6.179
 4964POPC   D2A63892  22.960  14.161   6.563
 4964POPC   C3A63893  23.013  14.370   6.977
 4964POPC   C4A63894  22.944  14.611   7.364
 4964POPC   C1B63895  22.595  14.466   6.214
 4964POPC   C2B63896  22.432  14.706   6.590
 4964POPC   C3B63897  22.512  14.535   7.026
 4964POPC   C4B63898  22.442  14.638   7.477
 4965POPC   NC363899  16.120  44.214   4.873
 4965POPC   PO463900  16.030  44.597   5.452
 4965POPC   GL163901  15.993  44.783   5.844
 4965POPC   GL263902  15.784  44.504   5.946
 4965POPC   C1A63903  16.210  44.718   6.217
 4965POPC   D2A63904  16.234  44.501   6.577
 4965POPC   C3A63905  16.122  44.713   6.946
 4965POPC   C4A63906  15.998  44.807   7.379
 4965POPC   C1B63907  15.709  44.606   6.365
 4965POPC   C2B63908  15.653  44.578   6.803
 4965POPC   C3B63909  15.600  44.506   7.225
 4965POPC   C4B63910  15.546  44.548   7.666
 4966POPC   NC363911  23.700  38.900   5.475
 4966POPC   PO463912  23.896  38.232   5.386
 4966POPC   GL163913  23.807  38.267   5.803
 4966POPC   GL263914  24.006  38.571   5.794
 4966POPC   C1A63915  23.595  38.261   6.200
 4966POPC   D2A63916  23.644  38.415   6.630
 4966POPC   C3A63917  23.467  38.384   7.044
 4966POPC   C4A63918  23.727  38.522   7.401
 4966POPC   C1B63919  24.017  38.582   6.234
 4966POPC   C2B63920  24.160  38.450   6.621
 4966POPC   C3B63921  24.027  38.325   6.991
 4966POPC   C4B63922  24.230  38.603   7.255
 4967POPC   NC363923   4.774  23.878   5.202
 4967POPC   PO463924   5.375  23.640   5.343
 4967POPC   GL163925   5.058  23.586   5.630
 4967POPC   GL263926   5.107  23.912   5.743
 4967POPC   C1A63927   4.962  23.498   6.080
 4967POPC   D2A63928   5.166  23.534   6.474
 4967POPC   C3A63929   5.078  23.650   6.909
 4967POPC   C4A63930   5.225  23.398   7.245
 4967POPC   C1B63931   5.278  23.936   6.157
 4967POPC   C2B63932   5.062  24.010   6.539
 4967POPC   C3B63933   4.803  24.091   6.903
 4967POPC   C4B63934   4.939  24.042   7.338
 4968POPC   NC363935  18.792  36.416   4.987
 4968POPC   PO463936  19.306  36.193   5.384
 4968POPC   GL163937  19.173  36.121   5.797
 4968POPC   GL263938  18.863  35.902   5.790
 4968POPC   C1A63939  19.182  35.936   6.209
 4968POPC   D2A63940  18.920  35.858   6.536
 4968POPC   C3A63941  19.153  35.863   6.909
 4968POPC   C4A63942  18.983  35.912   7.308
 4968POPC   C1B63943  18.771  36.240   6.120
 4968POPC   C2B63944  18.664  36.346   6.534
 4968POPC   C3B63945  18.711  36.172   6.936
 4968POPC   C4B63946  18.750  36.427   7.292
 4969POPC   NC363947  14.417  25.724   5.386
 4969POPC   PO463948  14.548  26.391   5.633
 4969POPC   GL163949  14.324  26.149   5.833
 4969POPC   GL263950  14.537  25.866   5.860
 4969POPC   C1A63951  14.145  26.079   6.216
 4969POPC   D2A63952  14.389  26.150   6.587
 4969POPC   C3A63953  14.187  26.091   6.984
 4969POPC   C4A63954  14.287  26.196   7.430
 4969POPC   C1B63955  14.779  25.672   6.187
 4969POPC   C2B63956  14.652  25.652   6.619
 4969POPC   C3B63957  14.665  25.929   6.988
 4969POPC   C4B63958  14.568  25.777   7.391
 4970POPC   NC363959  21.822  31.135   4.948
 4970POPC   PO463960  22.109  31.411   5.437
 4970POPC   GL163961  22.204  31.222   5.803
 4970POPC   GL263962  22.578  31.225   5.870
 4970POPC   C1A63963  21.942  31.237   6.154
 4970POPC   D2A63964  21.955  31.494   6.519
 4970POPC   C3A63965  21.985  31.340   6.917
 4970POPC   C4A63966  22.049  31.533   7.299
 4970POPC   C1B63967  22.423  31.167   6.297
 4970POPC   C2B63968  22.478  31.342   6.713
 4970POPC   C3B63969  22.436  31.252   7.153
 4970POPC   C4B63970  22.247  30.929   7.390
 4971POPC   NC363971  40.653  44.866   5.525
 4971POPC   PO463972  40.905  44.353   5.395
 4971POPC   GL163973  40.667  44.407   5.782
 4971POPC   GL263974  40.338  44.283   5.692
 4971POPC   C1A63975  40.581  44.619   6.208
 4971POPC   D2A63976  40.604  44.981   6.541
 4971POPC   C3A63977  40.622  44.806   6.971
 4971POPC   C4A63978  40.989  44.751   7.200
 4971POPC   C1B63979  40.367  44.144   6.132
 4971POPC   C2B63980  40.561  44.161   6.529
 4971POPC   C3B63981  40.485  44.289   6.956
 4971POPC   C4B63982  40.589  44.378   7.395
 4972POPC   NC363983  39.703  36.902   5.398
 4972POPC   PO463984  40.345  36.861   5.234
 4972POPC   GL163985  40.136  36.742   5.685
 4972POPC   GL263986  39.952  37.008   5.844
 4972POPC   C1A63987  40.022  36.588   6.149
 4972POPC   D2A63988  40.009  36.412   6.571
 4972POPC   C3A63989  40.117  36.766   6.820
 4972POPC   C4A63990  39.937  36.981   7.181
 4972POPC   C1B63991  40.125  37.087   6.245
 4972POPC   C2B63992  40.023  37.248   6.642
 4972POPC   C3B63993  40.215  37.396   6.988
 4972POPC   C4B63994  40.296  37.295   7.377
 4973POPC   NC363995  25.681  10.610   5.582
 4973POPC   PO463996  25.099  10.908   5.373
 4973POPC   GL163997  25.247  10.826   5.758
 4973POPC   GL263998  25.254  10.474   5.838
 4973POPC   C1A63999  25.305  10.853   6.187
 4973POPC   D2A64000  25.460  10.684   6.557
 4973POPC   C3A64001  25.202  10.602   6.897
 4973POPC   C4A64002  25.266  10.732   7.286
 4973POPC   C1B64003  25.468  10.309   6.188
 4973POPC   C2B64004  25.220  10.209   6.553
 4973POPC   C3B64005  25.386  10.135   6.947
 4973POPC   C4B64006  25.348  10.236   7.353
 4974POPC   NC364007  15.153  39.911   5.333
 4974POPC   PO464008  14.650  40.377   5.424
 4974POPC   GL164009  14.932  40.242   5.769
 4974POPC   GL264010  15.312  40.143   5.769
 4974POPC   C1A64011  14.997  40.066   6.170
 4974POPC   D2A64012  15.290  40.155   6.477
 4974POPC   C3A64013  15.054  40.007   6.805
 4974POPC   C4A64014  15.098  40.004   7.221
 4974POPC   C1B64015  15.408  39.789   6.071
 4974POPC   C2B64016  15.334  39.641   6.512
 4974POPC   C3B64017  15.456  39.720   6.958
 4974POPC   C4B64018  15.587  39.820   7.419
 4975POPC   NC364019   7.586   4.014   5.522
 4975POPC   PO464020   7.158   4.486   5.500
 4975POPC   GL164021   7.325   4.293   5.868
 4975POPC   GL264022   7.717   4.311   5.926
 4975POPC   C1A64023   7.355   4.399   6.275
 4975POPC   D2A64024   7.508   4.283   6.672
 4975POPC   C3A64025   7.281   4.360   7.024
 4975POPC   C4A64026   7.326   4.579   7.354
 4975POPC   C1B64027   7.716   3.956   6.236
 4975POPC   C2B64028   7.757   3.838   6.695
 4975POPC   C3B64029   7.545   3.940   7.105
 4975POPC   C4B64030   7.669   4.221   7.493
 4976POPC   NC364031  26.532  44.061   5.411
 4976POPC   PO464032  27.187  44.105   5.341
 4976POPC   GL164033  26.991  43.896   5.730
 4976POPC   GL264034  27.167  43.651   5.928
 4976POPC   C1A64035  26.727  43.883   6.138
 4976POPC   D2A64036  26.788  43.990   6.603
 4976POPC   C3A64037  26.532  43.921   6.981
 4976POPC   C4A64038  26.512  44.094   7.415
 4976POPC   C1B64039  27.253  43.354   6.247
 4976POPC   C2B64040  27.123  43.300   6.667
 4976POPC   C3B64041  27.050  43.645   6.964
 4976POPC   C4B64042  26.979  43.983   7.245
 4977POPC   NC364043  13.744  17.731   5.357
 4977POPC   PO464044  13.181  17.520   5.628
 4977POPC   GL164045  13.418  17.320   5.879
 4977POPC   GL264046  13.755  17.318   5.762
 4977POPC   C1A64047  13.333  17.383   6.300
 4977POPC   D2A64048  13.451  17.548   6.684
 4977POPC   C3A64049  13.476  17.251   6.999
 4977POPC   C4A64050  13.411  17.541   7.272
 4977POPC   C1B64051  13.840  17.280   6.232
 4977POPC   C2B64052  13.921  17.369   6.714
 4977POPC   C3B64053  13.951  17.318   7.197
 4977POPC   C4B64054  14.111  17.292   7.612
 4978POPC   NC364055  20.160   8.286   5.225
 4978POPC   PO464056  19.635   7.900   5.465
 4978POPC   GL164057  19.965   8.173   5.728
 4978POPC   GL264058  20.216   7.980   5.709
 4978POPC   C1A64059  19.970   8.331   6.175
 4978POPC   D2A64060  20.177   8.284   6.592
 4978POPC   C3A64061  19.981   8.481   6.951
 4978POPC   C4A64062  19.859   8.264   7.310
 4978POPC   C1B64063  19.926   7.826   6.090
 4978POPC   C2B64064  19.829   7.909   6.484
 4978POPC   C3B64065  19.898   7.942   6.894
 4978POPC   C4B64066  19.750   7.754   7.253
 4979POPC   NC364067   0.955  29.007   5.374
 4979POPC   PO464068   1.480  29.342   5.435
 4979POPC   GL164069   1.234  29.146   5.776
 4979POPC   GL264070   0.937  28.911   5.866
 4979POPC   C1A64071   1.092  29.318   6.163
 4979POPC   D2A64072   1.230  29.515   6.514
 4979POPC   C3A64073   1.046  29.464   6.892
 4979POPC   C4A64074   1.251  29.429   7.277
 4979POPC   C1B64075   1.249  28.837   6.179
 4979POPC   C2B64076   1.142  28.857   6.589
 4979POPC   C3B64077   0.964  28.959   6.966
 4979POPC   C4B64078   1.219  28.912   7.276
 4980POPC   NC364079  39.942  16.676   5.137
 4980POPC   PO464080  40.211  16.902   5.633
 4980POPC   GL164081  39.949  16.998   5.925
 4980POPC   GL264082  39.776  16.671   5.853
 4980POPC   C1A64083  40.034  17.138   6.353
 4980POPC   D2A64084  40.009  16.905   6.694
 4980POPC   C3A64085  40.170  16.989   7.101
 4980POPC   C4A64086  40.107  16.565   7.236
 4980POPC   C1B64087  40.025  16.615   6.247
 4980POPC   C2B64088  39.987  16.364   6.598
 4980POPC   C3B64089  39.758  16.332   6.959
 4980POPC   C4B64090  39.673  16.226   7.358
 4981POPC   NC364091  43.471  42.819   5.373
 4981POPC   PO464092  43.144  42.172   5.396
 4981POPC   GL164093  43.165  42.223   5.817
 4981POPC   GL264094  43.240  42.582   5.769
 4981POPC   C1A64095  43.352  42.056   6.221
 4981POPC   D2A64096  43.267  41.854   6.631
 4981POPC   C3A64097  43.117  42.033   7.022
 4981POPC   C4A64098  43.029  41.951   7.485
 4981POPC   C1B64099  43.260  42.552   6.190
 4981POPC   C2B64100  43.113  42.403   6.562
 4981POPC   C3B64101  42.947  42.512   6.937
 4981POPC   C4B64102  43.002  42.428   7.351
 4982POPC   NC364103   8.445  12.207   5.337
 4982POPC   PO464104   9.125  12.219   5.146
 4982POPC   GL164105   8.973  12.080   5.615
 4982POPC   GL264106   8.647  12.172   5.830
 4982POPC   C1A64107   9.070  12.055   6.109
 4982POPC   D2A64108   8.740  12.089   6.419
 4982POPC   C3A64109   8.828  12.049   6.842
 4982POPC   C4A64110   9.139  11.926   7.171
 4982POPC   C1B64111   8.468  12.464   6.161
 4982POPC   C2B64112   8.588  12.621   6.571
 4982POPC   C3B64113   8.473  12.436   6.969
 4982POPC   C4B64114   8.758  12.234   7.305
 4983POPC   NC364115  42.603  35.984   5.148
 4983POPC   PO464116  42.554  36.622   5.374
 4983POPC   GL164117  42.529  36.335   5.745
 4983POPC   GL264118  42.173  36.291   5.720
 4983POPC   C1A64119  42.720  36.145   6.158
 4983POPC   D2A64120  42.722  35.857   6.537
 4983POPC   C3A64121  42.737  36.085   6.894
 4983POPC   C4A64122  42.562  35.999   7.309
 4983POPC   C1B64123  42.211  36.049   6.097
 4983POPC   C2B64124  42.323  36.186   6.514
 4983POPC   C3B64125  42.226  36.077   6.917
 4983POPC   C4B64126  42.124  36.274   7.273
 4984POPC   NC364127  14.338  29.217   5.312
 4984POPC   PO464128  14.853  28.842   5.609
 4984POPC   GL164129  14.494  28.876   5.879
 4984POPC   GL264130  14.185  28.981   5.771
 4984POPC   C1A64131  14.266  28.774   6.259
 4984POPC   D2A64132  14.433  28.941   6.618
 4984POPC   C3A64133  14.251  28.842   6.968
 4984POPC   C4A64134  14.305  29.019   7.331
 4984POPC   C1B64135  14.176  29.269   6.138
 4984POPC   C2B64136  14.186  29.397   6.572
 4984POPC   C3B64137  14.356  29.410   7.000
 4984POPC   C4B64138  14.073  29.462   7.371
 4985POPC   NC364139  24.374  37.801   5.264
 4985POPC   PO464140  24.581  37.162   5.193
 4985POPC   GL164141  24.427  37.443   5.616
 4985POPC   GL264142  24.097  37.640   5.684
 4985POPC   C1A64143  24.482  37.670   6.053
 4985POPC   D2A64144  24.781  37.659   6.439
 4985POPC   C3A64145  24.702  37.547   6.881
 4985POPC   C4A64146  24.637  37.795   7.254
 4985POPC   C1B64147  24.059  37.406   6.098
 4985POPC   C2B64148  24.257  37.569   6.517
 4985POPC   C3B64149  24.226  37.767   6.946
 4985POPC   C4B64150  24.019  37.605   7.313
 4986POPC   NC364151   6.246  11.446   5.273
 4986POPC   PO464152   5.862  10.908   5.409
 4986POPC   GL164153   5.725  11.199   5.768
 4986POPC   GL264154   5.521  11.515   5.731
 4986POPC   C1A64155   5.902  11.448   6.150
 4986POPC   D2A64156   6.099  11.605   6.550
 4986POPC   C3A64157   5.982  11.418   6.940
 4986POPC   C4A64158   6.154  11.250   7.291
 4986POPC   C1B64159   5.401  11.369   6.166
 4986POPC   C2B64160   5.604  11.308   6.596
 4986POPC   C3B64161   5.440  11.449   7.013
 4986POPC   C4B64162   5.497  11.491   7.463
 4987POPC   NC364163  28.203   2.359   5.540
 4987POPC   PO464164  28.040   3.005   5.545
 4987POPC   GL164165  28.401   2.849   5.830
 4987POPC   GL264166  28.405   2.505   5.992
 4987POPC   C1A64167  28.539   2.952   6.267
 4987POPC   D2A64168  28.338   3.107   6.653
 4987POPC   C3A64169  28.396   3.025   7.116
 4987POPC   C4A64170  28.259   3.153   7.531
 4987POPC   C1B64171  28.133   2.638   6.366
 4987POPC   C2B64172  28.077   2.701   6.809
 4987POPC   C3B64173  28.378   2.520   7.095
 4987POPC   C4B64174  28.754   2.517   7.387
 4988POPC   NC364175   7.465  43.877   5.011
 4988POPC   PO464176   7.230  43.604   5.518
 4988POPC   GL164177   7.487  43.715   5.895
 4988POPC   GL264178   7.506  44.036   5.825
 4988POPC   C1A64179   7.538  43.838   6.323
 4988POPC   D2A64180   7.240  43.906   6.666
 4988POPC   C3A64181   7.502  43.896   7.017
 4988POPC   C4A64182   7.551  43.683   7.421
 4988POPC   C1B64183   7.114  44.086   6.146
 4988POPC   C2B64184   7.056  44.358   6.547
 4988POPC   C3B64185   7.035  44.271   7.019
 4988POPC   C4B64186   7.269  44.125   7.411
 4989POPC   NC364187  11.141  14.430   5.364
 4989POPC   PO464188  11.790  14.475   5.517
 4989POPC   GL164189  11.414  14.489   5.808
 4989POPC   GL264190  11.446  14.822   5.826
 4989POPC   C1A64191  11.109  14.415   6.195
 4989POPC   D2A64192  10.898  14.206   6.592
 4989POPC   C3A64193  11.147  14.250   6.992
 4989POPC   C4A64194  11.601  14.180   7.025
 4989POPC   C1B64195  11.498  14.743   6.276
 4989POPC   C2B64196  11.344  14.608   6.676
 4989POPC   C3B64197  11.468  14.682   7.107
 4989POPC   C4B64198  11.792  14.510   7.384
 4990POPC   NC364199  36.357  11.810   5.405
 4990POPC   PO464200  35.876  12.356   5.568
 4990POPC   GL164201  36.063  11.998   5.779
 4990POPC   GL264202  35.806  11.926   6.048
 4990POPC   C1A64203  36.346  11.833   6.089
 4990POPC   D2A64204  36.217  11.901   6.514
 4990POPC   C3A64205  36.366  11.840   6.946
 4990POPC   C4A64206  36.234  11.828   7.396
 4990POPC   C1B64207  35.868  12.257   6.386
 4990POPC   C2B64208  36.189  12.358   6.728
 4990POPC   C3B64209  36.247  12.299   7.188
 4990POPC   C4B64210  35.913  12.222   7.513
 4991POPC   NC364211  36.273   8.618   5.504
 4991POPC   PO464212  36.018   9.257   5.468
 4991POPC   GL164213  36.170   9.044   5.807
 4991POPC   GL264214  35.921   8.766   5.851
 4991POPC   C1A64215  36.153   9.129   6.254
 4991POPC   D2A64216  35.928   9.364   6.594
 4991POPC   C3A64217  36.184   9.306   6.963
 4991POPC   C4A64218  36.098   9.012   7.229
 4991POPC   C1B64219  36.265   8.633   6.164
 4991POPC   C2B64220  36.407   8.796   6.608
 4991POPC   C3B64221  36.370   8.607   7.058
 4991POPC   C4B64222  36.045   8.532   7.413
 4992POPC   NC364223   7.408   8.289   5.466
 4992POPC   PO464224   6.908   7.773   5.545
 4992POPC   GL164225   7.092   8.006   5.849
 4992POPC   GL264226   7.426   7.967   5.865
 4992POPC   C1A64227   7.175   8.082   6.297
 4992POPC   D2A64228   7.351   8.349   6.580
 4992POPC   C3A64229   7.238   8.358   7.004
 4992POPC   C4A64230   7.571   8.443   7.299
 4992POPC   C1B64231   7.663   7.903   6.233
 4992POPC   C2B64232   7.531   7.862   6.662
 4992POPC   C3B64233   7.575   7.985   7.085
 4992POPC   C4B64234   7.672   7.976   7.538
 4993POPC   NC364235   6.512  23.091   5.579
 4993POPC   PO464236   7.037  22.678   5.387
 4993POPC   GL164237   6.735  22.646   5.771
 4993POPC   GL264238   6.335  22.622   5.784
 4993POPC   C1A64239   6.625  22.830   6.192
 4993POPC   D2A64240   6.338  23.108   6.424
 4993POPC   C3A64241   6.401  23.117   6.850
 4993POPC   C4A64242   6.806  23.014   7.094
 4993POPC   C1B64243   6.149  22.659   6.231
 4993POPC   C2B64244   6.347  22.617   6.662
 4993POPC   C3B64245   6.345  22.688   7.132
 4993POPC   C4B64246   6.240  22.644   7.578
 4994POPC   NC364247  33.318  41.528   5.312
 4994POPC   PO464248  32.637  41.543   5.500
 4994POPC   GL164249  33.043  41.531   5.779
 4994POPC   GL264250  33.319  41.236   5.718
 4994POPC   C1A64251  33.053  41.666   6.242
 4994POPC   D2A64252  32.814  41.775   6.635
 4994POPC   C3A64253  32.786  41.448   6.945
 4994POPC   C4A64254  33.016  41.662   7.294
 4994POPC   C1B64255  33.382  41.279   6.126
 4994POPC   C2B64256  33.499  41.480   6.484
 4994POPC   C3B64257  33.267  41.501   6.855
 4994POPC   C4B64258  33.233  41.203   7.230
 4995POPC   NC364259  33.925  33.849   5.144
 4995POPC   PO464260  33.357  33.635   5.475
 4995POPC   GL164261  33.672  33.841   5.776
 4995POPC   GL264262  34.032  33.763   5.790
 4995POPC   C1A64263  33.849  34.005   6.183
 4995POPC   D2A64264  33.821  33.751   6.559
 4995POPC   C3A64265  33.866  33.962   6.963
 4995POPC   C4A64266  33.831  33.847   7.422
 4995POPC   C1B64267  34.175  33.591   6.195
 4995POPC   C2B64268  34.287  33.435   6.622
 4995POPC   C3B64269  34.208  33.586   7.059
 4995POPC   C4B64270  34.070  33.380   7.428
 4996POPC   NC364271  19.954  10.061   5.503
 4996POPC   PO464272  19.458   9.645   5.443
 4996POPC   GL164273  19.729   9.677   5.816
 4996POPC   GL264274  19.558   9.386   5.979
 4996POPC   C1A64275  19.981   9.970   6.137
 4996POPC   D2A64276  20.158  10.038   6.550
 4996POPC   C3A64277  20.069   9.668   6.794
 4996POPC   C4A64278  19.953   9.816   7.183
 4996POPC   C1B64279  19.555   9.715   6.298
 4996POPC   C2B64280  19.347   9.807   6.671
 4996POPC   C3B64281  19.579   9.600   6.948
 4996POPC   C4B64282  19.567   9.601   7.408
 4997POPC   NC364283  32.207  29.880   4.991
 4997POPC   PO464284  31.799  29.517   5.374
 4997POPC   GL164285  32.055  29.815   5.718
 4997POPC   GL264286  32.031  30.180   5.873
 4997POPC   C1A64287  32.148  29.807   6.204
 4997POPC   D2A64288  31.982  29.816   6.654
 4997POPC   C3A64289  32.273  29.875   7.035
 4997POPC   C4A64290  32.389  29.771   7.492
 4997POPC   C1B64291  31.866  30.234   6.284
 4997POPC   C2B64292  32.072  30.323   6.658
 4997POPC   C3B64293  31.910  30.246   7.023
 4997POPC   C4B64294  32.023  30.116   7.408
 4998POPC   NC364295  35.718   0.126   5.420
 4998POPC   PO464296  36.335   0.195   5.477
 4998POPC   GL164297  36.243   0.356   5.840
 4998POPC   GL264298  35.941   0.380   5.838
 4998POPC   C1A64299  36.395   0.313   6.239
 4998POPC   D2A64300  36.211   0.458   6.581
 4998POPC   C3A64301  36.395   0.307   6.910
 4998POPC   C4A64302  36.305   0.337   7.319
 4998POPC   C1B64303  35.853   0.556   6.224
 4998POPC   C2B64304  35.668   0.413   6.607
 4998POPC   C3B64305  35.881   0.429   6.984
 4998POPC   C4B64306  35.888   0.646   7.342
 4999POPC   NC364307  42.076  24.637   5.560
 4999POPC   PO464308  42.572  24.307   5.214
 4999POPC   GL164309  42.567  24.467   5.694
 4999POPC   GL264310  42.296  24.302   5.888
 4999POPC   C1A64311  42.495  24.633   6.170
 4999POPC   D2A64312  42.432  24.375   6.575
 4999POPC   C3A64313  42.242  24.518   6.979
 4999POPC   C4A64314  42.388  24.716   7.378
 4999POPC   C1B64315  42.128  24.081   6.259
 4999POPC   C2B64316  41.962  24.157   6.687
 4999POPC   C3B64317  41.920  24.147   7.144
 4999POPC   C4B64318  41.994  24.408   7.504
 5000POPC   NC364319  32.916  28.645   5.413
 5000POPC   PO464320  33.246  28.081   5.354
 5000POPC   GL164321  33.197  28.220   5.781
 5000POPC   GL264322  33.187  28.568   5.854
 5000POPC   C1A64323  33.329  28.246   6.224
 5000POPC   D2A64324  33.230  28.575   6.543
 5000POPC   C3A64325  33.089  28.401   6.931
 5000POPC   C4A64326  33.217  28.150   7.254
 5000POPC   C1B64327  32.855  28.447   6.177
 5000POPC   C2B64328  32.689  28.247   6.590
 5000POPC   C3B64329  32.591  28.413   7.013
 5000POPC   C4B64330  32.807  28.538   7.359
 5001POPC   NC364331  18.611  42.944   5.394
 5001POPC   PO464332  19.276  43.015   5.409
 5001POPC   GL164333  19.105  43.018   5.842
 5001POPC   GL264334  18.776  43.185   5.828
 5001POPC   C1A64335  19.120  43.119   6.303
 5001POPC   D2A64336  19.083  42.858   6.697
 5001POPC   C3A64337  19.170  42.974   7.143
 5001POPC   C4A64338  19.008  43.152   7.536
 5001POPC   C1B64339  18.677  43.389   6.224
 5001POPC   C2B64340  18.769  43.273   6.645
 5001POPC   C3B64341  18.712  43.252   7.081
 5001POPC   C4B64342  18.550  43.362   7.487
 5002POPC   NC364343  14.054  13.007   5.347
 5002POPC   PO464344  14.582  12.691   5.274
 5002POPC   GL164345  14.330  12.687   5.664
 5002POPC   GL264346  14.641  12.674   5.830
 5002POPC   C1A64347  14.115  12.737   6.093
 5002POPC   D2A64348  14.143  12.995   6.477
 5002POPC   C3A64349  14.172  12.801   6.898
 5002POPC   C4A64350  14.144  13.180   7.105
 5002POPC   C1B64351  14.593  12.911   6.198
 5002POPC   C2B64352  14.577  12.751   6.591
 5002POPC   C3B64353  14.684  12.882   6.975
 5002POPC   C4B64354  14.785  12.615   7.260
 5003POPC   NC364355   3.739  32.157   5.326
 5003POPC   PO464356   3.204  32.505   5.536
 5003POPC   GL164357   3.541  32.333   5.785
 5003POPC   GL264358   3.494  31.980   5.778
 5003POPC   C1A64359   3.648  32.330   6.233
 5003POPC   D2A64360   3.589  32.572   6.621
 5003POPC   C3A64361   3.476  32.356   7.004
 5003POPC   C4A64362   3.815  32.303   7.278
 5003POPC   C1B64363   3.665  31.826   6.170
 5003POPC   C2B64364   3.912  31.948   6.537
 5003POPC   C3B64365   3.868  31.892   6.972
 5003POPC   C4B64366   3.655  31.827   7.369
 5004POPC   NC364367  35.113  35.674   5.102
 5004POPC   PO464368  35.257  35.059   5.403
 5004POPC   GL164369  35.176  35.085   5.801
 5004POPC   GL264370  35.428  35.337   5.820
 5004POPC   C1A64371  35.237  35.097   6.226
 5004POPC   D2A64372  35.190  35.299   6.606
 5004POPC   C3A64373  35.332  35.274   7.028
 5004POPC   C4A64374  35.249  35.696   7.218
 5004POPC   C1B64375  35.306  35.579   6.180
 5004POPC   C2B64376  35.605  35.616   6.464
 5004POPC   C3B64377  35.613  35.647   6.868
 5004POPC   C4B64378  35.731  35.561   7.286
 5005POPC   NC364379   9.046   6.384   5.403
 5005POPC   PO464380   8.670   6.906   5.449
 5005POPC   GL164381   8.689   6.575   5.747
 5005POPC   GL264382   9.029   6.623   5.854
 5005POPC   C1A64383   8.662   6.552   6.213
 5005POPC   D2A64384   8.986   6.494   6.526
 5005POPC   C3A64385   8.907   6.362   6.923
 5005POPC   C4A64386   8.587   6.612   7.098
 5005POPC   C1B64387   9.328   6.582   6.159
 5005POPC   C2B64388   9.430   6.735   6.561
 5005POPC   C3B64389   9.148   6.824   6.910
 5005POPC   C4B64390   9.233   6.681   7.319
 5006POPC   NC364391  38.184  34.479   5.285
 5006POPC   PO464392  37.550  34.663   5.386
 5006POPC   GL164393  37.458  34.564   5.811
 5006POPC   GL264394  37.568  34.252   5.788
 5006POPC   C1A64395  37.662  34.545   6.226
 5006POPC   D2A64396  37.845  34.529   6.645
 5006POPC   C3A64397  37.648  34.783   6.979
 5006POPC   C4A64398  37.271  34.736   7.267
 5006POPC   C1B64399  37.576  34.024   6.164
 5006POPC   C2B64400  37.766  34.019   6.570
 5006POPC   C3B64401  37.608  34.162   6.964
 5006POPC   C4B64402  37.772  34.404   7.288
 5007POPC   NC364403  30.572  33.736   5.451
 5007POPC   PO464404  31.004  34.191   5.424
 5007POPC   GL164405  30.888  33.884   5.830
 5007POPC   GL264406  30.545  33.679   5.958
 5007POPC   C1A64407  30.898  33.864   6.300
 5007POPC   D2A64408  30.631  33.838   6.674
 5007POPC   C3A64409  30.882  33.704   7.002
 5007POPC   C4A64410  30.898  33.763   7.446
 5007POPC   C1B64411  30.258  33.644   6.352
 5007POPC   C2B64412  30.125  33.680   6.810
 5007POPC   C3B64413  30.414  33.599   7.140
 5007POPC   C4B64414  30.693  33.302   7.338
 5008POPC   NC364415  22.092   2.241   5.315
 5008POPC   PO464416  22.439   1.671   5.247
 5008POPC   GL164417  22.250   1.674   5.690
 5008POPC   GL264418  22.028   1.982   5.767
 5008POPC   C1A64419  22.043   1.598   6.113
 5008POPC   D2A64420  21.853   1.645   6.535
 5008POPC   C3A64421  22.140   1.672   6.864
 5008POPC   C4A64422  22.304   2.025   7.056
 5008POPC   C1B64423  21.889   2.076   6.203
 5008POPC   C2B64424  21.999   2.170   6.643
 5008POPC   C3B64425  21.790   2.049   7.023
 5008POPC   C4B64426  21.690   2.216   7.469
 5009POPC   NC364427  20.871   7.625   4.994
 5009POPC   PO464428  20.592   8.188   5.354
 5009POPC   GL164429  20.823   8.361   5.732
 5009POPC   GL264430  20.494   8.376   5.928
 5009POPC   C1A64431  20.955   8.310   6.151
 5009POPC   D2A64432  20.686   8.323   6.493
 5009POPC   C3A64433  20.797   8.316   6.928
 5009POPC   C4A64434  20.456   8.430   7.206
 5009POPC   C1B64435  20.382   8.010   6.194
 5009POPC   C2B64436  20.317   7.754   6.563
 5009POPC   C3B64437  20.396   7.956   6.969
 5009POPC   C4B64438  20.223   7.881   7.377
 5010POPC   NC364439  37.170  19.607   5.281
 5010POPC   PO464440  37.834  19.789   5.411
 5010POPC   GL164441  37.664  19.843   5.830
 5010POPC   GL264442  37.381  20.092   5.863
 5010POPC   C1A64443  37.754  19.624   6.231
 5010POPC   D2A64444  38.023  19.488   6.588
 5010POPC   C3A64445  37.866  19.576   7.018
 5010POPC   C4A64446  37.430  19.574   7.201
 5010POPC   C1B64447  37.628  20.138   6.248
 5010POPC   C2B64448  37.679  19.931   6.651
 5010POPC   C3B64449  37.613  20.064   7.062
 5010POPC   C4B64450  37.381  20.407   7.227
 5011POPC   NC364451   5.746  13.259   5.466
 5011POPC   PO464452   6.301  13.075   5.437
 5011POPC   GL164453   6.013  12.947   5.803
 5011POPC   GL264454   5.639  13.009   5.891
 5011POPC   C1A64455   5.928  12.712   6.184
 5011POPC   D2A64456   6.071  12.600   6.591
 5011POPC   C3A64457   6.037  12.965   6.877
 5011POPC   C4A64458   5.954  13.194   7.279
 5011POPC   C1B64459   5.428  12.847   6.251
 5011POPC   C2B64460   5.581  12.769   6.643
 5011POPC   C3B64461   5.561  12.868   7.058
 5011POPC   C4B64462   5.443  13.123   7.364
 5012POPC   NC364463  13.344  43.647   5.192
 5012POPC   PO464464  13.823  43.993   5.228
 5012POPC   GL164465  13.640  43.833   5.625
 5012POPC   GL264466  13.631  43.460   5.643
 5012POPC   C1A64467  13.776  43.720   6.054
 5012POPC   D2A64468  13.614  43.882   6.449
 5012POPC   C3A64469  13.846  43.799   6.783
 5012POPC   C4A64470  13.777  43.942   7.181
 5012POPC   C1B64471  13.422  43.346   6.083
 5012POPC   C2B64472  13.437  43.435   6.570
 5012POPC   C3B64473  13.346  43.734   6.923
 5012POPC   C4B64474  13.352  43.776   7.391
 5013POPC   NC364475  36.370  42.990   5.416
 5013POPC   PO464476  36.111  43.689   5.419
 5013POPC   GL164477  36.019  43.414   5.797
 5013POPC   GL264478  36.148  43.066   5.857
 5013POPC   C1A64479  36.263  43.452   6.191
 5013POPC   D2A64480  36.503  43.348   6.578
 5013POPC   C3A64481  36.258  43.375   6.951
 5013POPC   C4A64482  36.265  43.218   7.366
 5013POPC   C1B64483  36.408  42.946   6.214
 5013POPC   C2B64484  36.239  42.922   6.627
 5013POPC   C3B64485  36.175  42.824   7.044
 5013POPC   C4B64486  35.938  42.753   7.409
 5014POPC   NC364487  38.729  28.669   5.461
 5014POPC   PO464488  38.242  28.197   5.400
 5014POPC   GL164489  38.423  28.352   5.776
 5014POPC   GL264490  38.285  28.672   5.782
 5014POPC   C1A64491  38.517  28.175   6.193
 5014POPC   D2A64492  38.506  27.949   6.584
 5014POPC   C3A64493  38.577  28.146   6.970
 5014POPC   C4A64494  38.677  27.979   7.368
 5014POPC   C1B64495  38.483  28.706   6.182
 5014POPC   C2B64496  38.579  28.557   6.583
 5014POPC   C3B64497  38.845  28.584   6.925
 5014POPC   C4B64498  38.693  28.493   7.348
 5015POPC   NC364499  14.562  36.845   5.454
 5015POPC   PO464500  13.935  36.584   5.443
 5015POPC   GL164501  14.217  36.613   5.793
 5015POPC   GL264502  14.224  36.986   5.860
 5015POPC   C1A64503  14.437  36.648   6.207
 5015POPC   D2A64504  14.278  36.825   6.619
 5015POPC   C3A64505  14.502  36.787   7.021
 5015POPC   C4A64506  14.720  37.132   7.242
 5015POPC   C1B64507  14.594  37.137   6.129
 5015POPC   C2B64508  14.686  37.234   6.565
 5015POPC   C3B64509  14.388  37.309   6.901
 5015POPC   C4B64510  14.101  37.092   7.194
 5016POPC   NC364511  25.313   7.255   5.393
 5016POPC   PO464512  25.167   7.862   5.531
 5016POPC   GL164513  25.301   7.559   5.810
 5016POPC   GL264514  25.018   7.324   5.865
 5016POPC   C1A64515  25.248   7.630   6.228
 5016POPC   D2A64516  24.920   7.666   6.502
 5016POPC   C3A64517  25.114   7.735   6.893
 5016POPC   C4A64518  25.155   7.658   7.317
 5016POPC   C1B64519  25.240   7.132   6.197
 5016POPC   C2B64520  25.265   7.268   6.609
 5016POPC   C3B64521  25.138   7.215   7.018
 5016POPC   C4B64522  25.543   7.313   7.147
 5017POPC   NC364523  35.782  26.978   5.356
 5017POPC   PO464524  36.115  26.423   5.340
 5017POPC   GL164525  36.155  26.628   5.760
 5017POPC   GL264526  35.817  26.760   5.830
 5017POPC   C1A64527  36.260  26.572   6.225
 5017POPC   D2A64528  36.478  26.654   6.636
 5017POPC   C3A64529  36.382  26.674   7.109
 5017POPC   C4A64530  36.238  26.960   7.483
 5017POPC   C1B64531  35.730  26.567   6.240
 5017POPC   C2B64532  35.938  26.562   6.642
 5017POPC   C3B64533  35.902  26.773   7.034
 5017POPC   C4B64534  35.966  26.570   7.429
 5018POPC   NC364535   7.381  15.403   5.385
 5018POPC   PO464536   7.552  14.772   5.184
 5018POPC   GL164537   7.529  14.995   5.669
 5018POPC   GL264538   7.824  15.245   5.749
 5018POPC   C1A64539   7.251  14.935   6.111
 5018POPC   D2A64540   7.160  14.696   6.539
 5018POPC   C3A64541   7.182  14.906   6.957
 5018POPC   C4A64542   7.279  15.091   7.390
 5018POPC   C1B64543   7.610  15.315   6.185
 5018POPC   C2B64544   7.443  15.178   6.592
 5018POPC   C3B64545   7.377  15.386   6.990
 5018POPC   C4B64546   7.551  15.650   7.278
 5019POPC   NC364547  36.178  11.054   5.371
 5019POPC   PO464548  35.819  11.598   5.447
 5019POPC   GL164549  36.047  11.469   5.793
 5019POPC   GL264550  35.927  11.126   5.806
 5019POPC   C1A64551  35.974  11.481   6.245
 5019POPC   D2A64552  36.188  11.428   6.660
 5019POPC   C3A64553  35.931  11.514   6.971
 5019POPC   C4A64554  36.015  11.379   7.343
 5019POPC   C1B64555  36.114  10.941   6.193
 5019POPC   C2B64556  36.298  10.926   6.608
 5019POPC   C3B64557  36.121  10.939   7.037
 5019POPC   C4B64558  36.272  10.975   7.488
 5020POPC   NC364559  36.072   4.716   5.444
 5020POPC   PO464560  36.476   4.254   5.261
 5020POPC   GL164561  36.299   4.311   5.714
 5020POPC   GL264562  35.938   4.283   5.855
 5020POPC   C1A64563  36.300   4.527   6.154
 5020POPC   D2A64564  36.399   4.335   6.567
 5020POPC   C3A64565  36.181   4.473   6.928
 5020POPC   C4A64566  36.304   4.703   7.293
 5020POPC   C1B64567  36.004   4.054   6.284
 5020POPC   C2B64568  36.002   3.977   6.746
 5020POPC   C3B64569  35.858   4.133   7.130
 5020POPC   C4B64570  36.102   4.109   7.518
 5021POPC   NC364571  15.582  44.734   5.536
 5021POPC   PO464572  15.001  44.927   5.697
 5021POPC   GL164573  15.276  44.713   5.937
 5021POPC   GL264574  15.536  44.963   6.008
 5021POPC   C1A64575  15.202  44.475   6.293
 5021POPC   D2A64576  14.971  44.305   6.620
 5021POPC   C3A64577  15.165  44.363   6.998
 5021POPC   C4A64578  15.130  44.603   7.361
 5021POPC   C1B64579  15.246  44.985   6.364
 5021POPC   C2B64580  15.203  44.824   6.777
 5021POPC   C3B64581  15.064   0.049   7.133
 5021POPC   C4B64582  14.905   0.265   7.500
 5022POPC   NC364583  28.094  44.789   5.502
 5022POPC   PO464584  28.695  44.492   5.421
 5022POPC   GL164585  28.492  44.486   5.820
 5022POPC   GL264586  28.716  44.743   5.982
 5022POPC   C1A64587  28.460  44.424   6.267
 5022POPC   D2A64588  28.514  44.738   6.573
 5022POPC   C3A64589  28.552  44.625   6.989
 5022POPC   C4A64590  28.275  44.368   7.190
 5022POPC   C1B64591  28.275  44.885   6.132
 5022POPC   C2B64592  28.041  44.954   6.509
 5022POPC   C3B64593  28.181  44.974   6.923
 5022POPC   C4B64594  28.079   0.229   7.231
 5023POPC   NC364595  22.667  25.013   5.422
 5023POPC   PO464596  23.162  25.508   5.479
 5023POPC   GL164597  23.035  25.489   5.875
 5023POPC   GL264598  22.952  25.133   5.849
 5023POPC   C1A64599  22.921  25.413   6.278
 5023POPC   D2A64600  22.931  25.033   6.546
 5023POPC   C3A64601  22.961  25.177   6.962
 5023POPC   C4A64602  23.087  25.079   7.372
 5023POPC   C1B64603  22.583  25.079   6.104
 5023POPC   C2B64604  22.420  24.958   6.491
 5023POPC   C3B64605  22.531  24.857   6.906
 5023POPC   C4B64606  22.615  24.930   7.328
 5024POPC   NC364607  38.884  22.370   5.382
 5024POPC   PO464608  39.028  21.855   5.110
 5024POPC   GL164609  39.036  22.004   5.673
 5024POPC   GL264610  39.322  22.204   5.762
 5024POPC   C1A64611  38.908  22.240   6.106
 5024POPC   D2A64612  39.119  22.448   6.507
 5024POPC   C3A64613  39.246  22.244   6.929
 5024POPC   C4A64614  39.051  22.094   7.338
 5024POPC   C1B64615  39.290  21.919   6.146
 5024POPC   C2B64616  39.511  21.968   6.544
 5024POPC   C3B64617  39.627  21.816   6.919
 5024POPC   C4B64618  39.460  21.790   7.296
 5025POPC   NC364619  18.095  26.993   5.569
 5025POPC   PO464620  17.602  26.601   5.517
 5025POPC   GL164621  17.617  26.828   5.896
 5025POPC   GL264622  17.251  26.873   6.022
 5025POPC   C1A64623  17.669  26.829   6.346
 5025POPC   D2A64624  17.326  26.797   6.652
 5025POPC   C3A64625  17.445  26.581   7.023
 5025POPC   C4A64626  17.813  26.492   7.344
 5025POPC   C1B64627  17.036  27.160   6.320
 5025POPC   C2B64628  16.963  27.164   6.754
 5025POPC   C3B64629  17.249  27.077   7.105
 5025POPC   C4B64630  17.522  27.223   7.454
 5026POPC   NC364631   5.086  22.236   5.215
 5026POPC   PO464632   4.731  21.723   5.475
 5026POPC   GL164633   4.834  22.118   5.711
 5026POPC   GL264634   5.216  22.218   5.732
 5026POPC   C1A64635   4.759  22.285   6.143
 5026POPC   D2A64636   4.929  22.413   6.552
 5026POPC   C3A64637   4.753  22.362   6.975
 5026POPC   C4A64638   5.130  22.387   7.180
 5026POPC   C1B64639   5.113  21.919   6.088
 5026POPC   C2B64640   4.962  21.928   6.487
 5026POPC   C3B64641   4.987  21.902   6.904
 5026POPC   C4B64642   5.297  21.732   7.159
 5027POPC   NC364643  20.533   8.665   5.469
 5027POPC   PO464644  20.915   9.195   5.387
 5027POPC   GL164645  20.752   9.025   5.804
 5027POPC   GL264646  20.383   8.887   5.902
 5027POPC   C1A64647  20.584   9.296   6.145
 5027POPC   D2A64648  20.250   9.308   6.442
 5027POPC   C3A64649  20.431   9.275   6.835
 5027POPC   C4A64650  20.392   8.944   7.113
 5027POPC   C1B64651  20.671   8.782   6.259
 5027POPC   C2B64652  20.698   8.820   6.723
 5027POPC   C3B64653  20.889   8.784   7.144
 5027POPC   C4B64654  20.935   8.454   7.433
 5028POPC   NC364655  44.672  40.698   5.377
 5028POPC   PO464656  44.804  40.050   5.354
 5028POPC   GL164657  44.761  40.033   5.808
 5028POPC   GL264658  44.821  40.397   5.789
 5028POPC   C1A64659  44.560  39.889   6.244
 5028POPC   D2A64660  44.435  39.879   6.708
 5028POPC   C3A64661  44.595  39.845   7.149
 5028POPC   C4A64662  44.509  39.749   7.604
 5028POPC   C1B64663  44.844  40.305   6.217
 5028POPC   C2B64664  44.908  40.068   6.603
 5028POPC   C3B64665  44.893  40.224   6.998
 5028POPC   C4B64666  44.575  40.364   7.244
 5029POPC   NC364667   4.994  28.231   5.360
 5029POPC   PO464668   5.206  28.895   5.194
 5029POPC   GL164669   5.127  28.630   5.628
 5029POPC   GL264670   5.378  28.343   5.679
 5029POPC   C1A64671   5.068  28.397   6.068
 5029POPC   D2A64672   4.854  28.344   6.500
 5029POPC   C3A64673   5.110  28.322   6.889
 5029POPC   C4A64674   5.093  28.303   7.337
 5029POPC   C1B64675   5.429  28.035   6.020
 5029POPC   C2B64676   5.410  28.035   6.454
 5029POPC   C3B64677   5.447  27.914   6.864
 5029POPC   C4B64678   5.555  28.194   7.163
 5030POPC   NC364679   0.759   3.353   5.502
 5030POPC   PO464680   0.104   3.684   5.423
 5030POPC   GL164681   0.387   3.608   5.757
 5030POPC   GL264682   0.247   3.263   5.767
 5030POPC   C1A64683   0.548   3.811   6.167
 5030POPC   D2A64684   0.746   3.870   6.606
 5030POPC   C3A64685   0.499   3.727   6.966
 5030POPC   C4A64686   0.491   3.651   7.420
 5030POPC   C1B64687   0.435   3.300   6.181
 5030POPC   C2B64688   0.555   3.317   6.611
 5030POPC   C3B64689   0.526   3.216   7.042
 5030POPC   C4B64690   0.196   3.229   7.350
 5031POPC   NC364691   1.354   5.218   5.424
 5031POPC   PO464692   0.706   5.380   5.384
 5031POPC   GL164693   0.901   5.174   5.791
 5031POPC   GL264694   1.258   5.077   5.889
 5031POPC   C1A64695   0.883   5.083   6.258
 5031POPC   D2A64696   0.803   4.863   6.659
 5031POPC   C3A64697   1.000   5.021   7.037
 5031POPC   C4A64698   1.011   5.434   7.242
 5031POPC   C1B64699   1.403   5.304   6.220
 5031POPC   C2B64700   1.272   5.225   6.621
 5031POPC   C3B64701   1.453   5.232   7.004
 5031POPC   C4B64702   1.500   5.525   7.305
 5032POPC   NC364703  12.964  24.732   5.377
 5032POPC   PO464704  12.931  24.076   5.264
 5032POPC   GL164705  12.912  24.322   5.680
 5032POPC   GL264706  13.225  24.370   5.826
 5032POPC   C1A64707  12.730  24.437   6.088
 5032POPC   D2A64708  12.766  24.321   6.508
 5032POPC   C3A64709  12.759  24.624   6.811
 5032POPC   C4A64710  12.759  24.480   7.216
 5032POPC   C1B64711  13.209  24.575   6.223
 5032POPC   C2B64712  13.272  24.416   6.584
 5032POPC   C3B64713  13.179  24.320   6.949
 5032POPC   C4B64714  13.259  24.490   7.339
 5033POPC   NC364715   2.949  18.875   5.742
 5033POPC   PO464716   2.654  19.329   5.496
 5033POPC   GL164717   2.785  19.317   5.933
 5033POPC   GL264718   3.134  19.392   5.976
 5033POPC   C1A64719   2.531  19.201   6.286
 5033POPC   D2A64720   2.481  18.913   6.622
 5033POPC   C3A64721   2.580  19.079   7.010
 5033POPC   C4A64722   2.365  19.259   7.329
 5033POPC   C1B64723   3.025  19.096   6.352
 5033POPC   C2B64724   2.957  18.722   6.629
 5033POPC   C3B64725   3.013  18.840   7.066
 5033POPC   C4B64726   3.093  19.282   7.177
 5034POPC   NC364727  41.078  12.382   5.415
 5034POPC   PO464728  41.767  12.604   5.475
 5034POPC   GL164729  41.553  12.865   5.825
 5034POPC   GL264730  41.329  13.174   5.708
 5034POPC   C1A64731  41.556  12.818   6.312
 5034POPC   D2A64732  41.838  12.947   6.646
 5034POPC   C3A64733  41.658  13.038   7.045
 5034POPC   C4A64734  41.322  12.757   7.131
 5034POPC   C1B64735  41.458  13.270   6.126
 5034POPC   C2B64736  41.445  13.281   6.596
 5034POPC   C3B64737  41.178  13.230   6.975
 5034POPC   C4B64738  41.287  13.176   7.432
 5035POPC   NC364739  33.927   0.036   5.388
 5035POPC   PO464740  33.868  44.369   5.504
 5035POPC   GL164741  33.770  44.629   5.871
 5035POPC   GL264742  33.469  44.847   5.822
 5035POPC   C1A64743  34.064  44.776   6.212
 5035POPC   D2A64744  34.260  44.562   6.590
 5035POPC   C3A64745  34.042  44.527   6.999
 5035POPC   C4A64746  33.603  44.527   7.099
 5035POPC   C1B64747  33.486  44.833   6.280
 5035POPC   C2B64748  33.750  44.729   6.614
 5035POPC   C3B64749  34.048  44.992   6.836
 5035POPC   C4B64750  33.743   0.024   7.142
 5036POPC   NC364751  39.335  41.891   5.361
 5036POPC   PO464752  38.943  42.382   5.309
 5036POPC   GL164753  39.146  42.218   5.717
 5036POPC   GL264754  38.958  41.922   5.798
 5036POPC   C1A64755  39.305  42.321   6.152
 5036POPC   D2A64756  39.164  42.586   6.524
 5036POPC   C3A64757  39.285  42.457   6.949
 5036POPC   C4A64758  39.413  42.648   7.338
 5036POPC   C1B64759  38.845  42.106   6.218
 5036POPC   C2B64760  39.000  42.107   6.669
 5036POPC   C3B64761  39.004  42.040   7.132
 5036POPC   C4B64762  39.071  42.045   7.628
 5037POPC   NC364763   7.064   3.362   4.971
 5037POPC   PO464764   7.532   3.595   5.338
 5037POPC   GL164765   7.555   3.536   5.745
 5037POPC   GL264766   7.196   3.421   5.748
 5037POPC   C1A64767   7.492   3.465   6.166
 5037POPC   D2A64768   7.195   3.371   6.469
 5037POPC   C3A64769   7.380   3.520   6.831
 5037POPC   C4A64770   7.441   3.395   7.239
 5037POPC   C1B64771   7.173   3.817   6.000
 5037POPC   C2B64772   7.238   3.905   6.442
 5037POPC   C3B64773   7.080   3.922   6.849
 5037POPC   C4B64774   7.019   3.656   7.185
 5038POPC   NC364775  10.494  20.462   5.331
 5038POPC   PO464776  10.699  21.121   5.519
 5038POPC   GL164777  10.498  20.773   5.748
 5038POPC   GL264778  10.677  20.456   5.834
 5038POPC   C1A64779  10.289  20.672   6.160
 5038POPC   D2A64780  10.072  20.578   6.581
 5038POPC   C3A64781  10.275  20.705   7.000
 5038POPC   C4A64782  10.542  20.778   7.390
 5038POPC   C1B64783  10.786  20.519   6.272
 5038POPC   C2B64784  10.659  20.441   6.715
 5038POPC   C3B64785  10.796  20.404   7.146
 5038POPC   C4B64786  10.883  20.434   7.605
 5039POPC   NC364787  29.874  27.961   5.478
 5039POPC   PO464788  29.529  27.440   5.506
 5039POPC   GL164789  29.613  27.692   5.890
 5039POPC   GL264790  29.505  28.045   5.840
 5039POPC   C1A64791  29.770  27.583   6.343
 5039POPC   D2A64792  29.678  27.337   6.754
 5039POPC   C3A64793  29.874  27.369   7.170
 5039POPC   C4A64794  29.940  27.705   7.487
 5039POPC   C1B64795  29.858  28.051   6.153
 5039POPC   C2B64796  30.077  27.955   6.538
 5039POPC   C3B64797  29.902  27.845   6.919
 5039POPC   C4B64798  29.820  28.121   7.230
 5040POPC   NC364799  39.477  12.497   5.205
 5040POPC   PO464800  39.139  13.103   5.427
 5040POPC   GL164801  38.975  12.980   5.823
 5040POPC   GL264802  39.274  12.815   5.911
 5040POPC   C1A64803  38.952  12.930   6.288
 5040POPC   D2A64804  39.236  12.675   6.538
 5040POPC   C3A64805  39.078  12.728   6.933
 5040POPC   C4A64806  38.938  13.094   7.195
 5040POPC   C1B64807  39.627  12.858   6.212
 5040POPC   C2B64808  39.671  13.015   6.623
 5040POPC   C3B64809  39.358  13.153   6.868
 5040POPC   C4B64810  39.429  12.963   7.232
 5041POPC   NC364811  31.301   3.723   5.255
 5041POPC   PO464812  31.862   3.516   5.389
 5041POPC   GL164813  31.588   3.674   5.717
 5041POPC   GL264814  31.258   3.561   5.744
 5041POPC   C1A64815  31.565   3.692   6.167
 5041POPC   D2A64816  31.386   3.775   6.547
 5041POPC   C3A64817  31.516   3.568   6.911
 5041POPC   C4A64818  31.834   3.595   7.205
 5041POPC   C1B64819  31.133   3.410   6.163
 5041POPC   C2B64820  31.289   3.250   6.552
 5041POPC   C3B64821  31.163   3.184   6.975
 5041POPC   C4B64822  31.260   3.093   7.412
 5042POPC   NC364823  11.440   4.216   5.447
 5042POPC   PO464824  10.863   4.356   5.537
 5042POPC   GL164825  11.216   4.399   5.866
 5042POPC   GL264826  11.607   4.402   5.901
 5042POPC   C1A64827  11.279   4.560   6.272
 5042POPC   D2A64828  11.074   4.383   6.608
 5042POPC   C3A64829  11.176   4.473   7.006
 5042POPC   C4A64830  10.901   4.256   7.293
 5042POPC   C1B64831  11.645   4.174   6.297
 5042POPC   C2B64832  11.611   4.253   6.745
 5042POPC   C3B64833  11.595   4.237   7.194
 5042POPC   C4B64834  11.686   4.177   7.627
 5043POPC   NC364835  13.530  16.439   5.317
 5043POPC   PO464836  13.525  15.873   5.381
 5043POPC   GL164837  13.662  15.893   5.811
 5043POPC   GL264838  13.498  16.213   5.813
 5043POPC   C1A64839  13.868  15.802   6.242
 5043POPC   D2A64840  13.935  15.989   6.716
 5043POPC   C3A64841  13.723  15.865   7.143
 5043POPC   C4A64842  13.558  15.540   7.474
 5043POPC   C1B64843  13.768  16.306   6.151
 5043POPC   C2B64844  13.758  16.491   6.555
 5043POPC   C3B64845  13.694  16.397   6.967
 5043POPC   C4B64846  13.295  16.295   7.157
 5044POPC   NC364847   5.553  35.572   5.505
 5044POPC   PO464848   4.979  35.222   5.373
 5044POPC   GL164849   4.944  35.338   5.818
 5044POPC   GL264850   5.287  35.327   5.904
 5044POPC   C1A64851   4.961  35.549   6.249
 5044POPC   D2A64852   4.839  35.382   6.665
 5044POPC   C3A64853   4.889  35.364   7.119
 5044POPC   C4A64854   4.772  35.645   7.455
 5044POPC   C1B64855   5.362  35.237   6.322
 5044POPC   C2B64856   5.325  35.267   6.748
 5044POPC   C3B64857   5.417  35.366   7.142
 5044POPC   C4B64858   5.303  35.030   7.405
 5045POPC   NC364859   0.363  42.792   4.906
 5045POPC   PO464860   0.285  43.263   5.433
 5045POPC   GL164861   0.539  43.150   5.784
 5045POPC   GL264862   0.771  42.853   5.719
 5045POPC   C1A64863   0.340  43.218   6.219
 5045POPC   D2A64864   0.097  43.211   6.612
 5045POPC   C3A64865   0.382  43.392   6.868
 5045POPC   C4A64866   0.495  43.349   7.276
 5045POPC   C1B64867   0.527  42.761   6.129
 5045POPC   C2B64868   0.360  42.778   6.575
 5045POPC   C3B64869   0.441  42.869   7.040
 5045POPC   C4B64870   0.686  42.808   7.447
 5046POPC   NC364871  28.368  38.002   5.570
 5046POPC   PO464872  28.628  37.479   5.198
 5046POPC   GL164873  28.590  37.556   5.679
 5046POPC   GL264874  28.248  37.640   5.916
 5046POPC   C1A64875  28.696  37.713   6.100
 5046POPC   D2A64876  28.392  37.609   6.425
 5046POPC   C3A64877  28.464  37.713   6.845
 5046POPC   C4A64878  28.499  37.505   7.251
 5046POPC   C1B64879  28.138  38.004   6.164
 5046POPC   C2B64880  28.288  38.116   6.538
 5046POPC   C3B64881  28.120  38.102   6.922
 5046POPC   C4B64882  28.366  38.011   7.240
 5047POPC   NC364883  16.527  14.518   5.087
 5047POPC   PO464884  16.936  14.148   5.471
 5047POPC   GL164885  16.776  14.391   5.792
 5047POPC   GL264886  16.475  14.441   5.614
 5047POPC   C1A64887  16.626  14.402   6.201
 5047POPC   D2A64888  16.764  14.532   6.588
 5047POPC   C3A64889  16.619  14.311   6.909
 5047POPC   C4A64890  16.740  14.228   7.274
 5047POPC   C1B64891  16.357  14.768   5.957
 5047POPC   C2B64892  16.272  14.782   6.419
 5047POPC   C3B64893  16.394  14.781   6.863
 5047POPC   C4B64894  16.291  14.587   7.247
 5048POPC   NC364895  36.959  31.664   5.371
 5048POPC   PO464896  36.518  31.281   5.409
 5048POPC   GL164897  36.737  31.423   5.787
 5048POPC   GL264898  37.112  31.377   5.807
 5048POPC   C1A64899  36.647  31.528   6.210
 5048POPC   D2A64900  36.551  31.726   6.599
 5048POPC   C3A64901  36.763  31.514   6.955
 5048POPC   C4A64902  36.619  31.322   7.323
 5048POPC   C1B64903  37.231  31.634   6.172
 5048POPC   C2B64904  37.077  31.690   6.591
 5048POPC   C3B64905  37.249  31.702   7.033
 5048POPC   C4B64906  37.051  31.572   7.428
 5049POPC   NC364907   5.665  33.769   5.338
 5049POPC   PO464908   6.256  33.387   5.169
 5049POPC   GL164909   6.140  33.713   5.607
 5049POPC   GL264910   5.899  34.014   5.711
 5049POPC   C1A64911   6.118  33.881   6.118
 5049POPC   D2A64912   5.845  33.699   6.439
 5049POPC   C3A64913   5.964  33.704   6.865
 5049POPC   C4A64914   6.015  34.009   7.205
 5049POPC   C1B64915   5.594  34.009   6.074
 5049POPC   C2B64916   5.509  34.098   6.513
 5049POPC   C3B64917   5.536  33.979   6.959
 5049POPC   C4B64918   5.484  34.028   7.388
 5050POPC   NC364919  13.110  37.930   5.402
 5050POPC   PO464920  12.526  37.586   5.449
 5050POPC   GL164921  12.719  37.608   5.813
 5050POPC   GL264922  12.874  37.895   5.890
 5050POPC   C1A64923  12.759  37.417   6.212
 5050POPC   D2A64924  12.572  37.472   6.615
 5050POPC   C3A64925  12.659  37.188   6.954
 5050POPC   C4A64926  12.609  37.356   7.376
 5050POPC   C1B64927  12.919  37.887   6.354
 5050POPC   C2B64928  13.046  37.657   6.710
 5050POPC   C3B64929  12.859  37.682   7.086
 5050POPC   C4B64930  12.840  37.974   7.427
 5051POPC   NC364931  11.487  38.503   5.230
 5051POPC   PO464932  11.088  38.356   5.813
 5051POPC   GL164933  11.303  38.682   6.019
 5051POPC   GL264934  11.612  38.821   5.894
 5051POPC   C1A64935  11.414  38.569   6.411
 5051POPC   D2A64936  11.182  38.208   6.470
 5051POPC   C3A64937  11.132  38.170   6.879
 5051POPC   C4A64938  11.124  38.146   7.327
 5051POPC   C1B64939  11.911  38.744   6.212
 5051POPC   C2B64940  11.878  38.618   6.618
 5051POPC   C3B64941  11.676  38.746   6.966
 5051POPC   C4B64942  11.488  38.673   7.365
 5052POPC   NC364943  31.813  42.454   5.430
 5052POPC   PO464944  31.226  42.810   5.516
 5052POPC   GL164945  31.397  42.389   5.752
 5052POPC   GL264946  31.725  42.152   5.817
 5052POPC   C1A64947  31.339  42.239   6.172
 5052POPC   D2A64948  31.187  42.354   6.594
 5052POPC   C3A64949  31.418  42.254   6.939
 5052POPC   C4A64950  31.241  42.216   7.305
 5052POPC   C1B64951  31.926  42.003   6.196
 5052POPC   C2B64952  31.778  41.884   6.603
 5052POPC   C3B64953  31.835  41.879   7.025
 5052POPC   C4B64954  31.696  41.897   7.450
 5053POPC   NC364955  38.312  24.060   5.596
 5053POPC   PO464956  38.776  23.617   5.417
 5053POPC   GL164957  38.608  23.619   5.853
 5053POPC   GL264958  38.222  23.588   5.868
 5053POPC   C1A64959  38.684  23.563   6.309
 5053POPC   D2A64960  38.541  23.837   6.667
 5053POPC   C3A64961  38.625  23.849   7.106
 5053POPC   C4A64962  38.592  23.520   7.362
 5053POPC   C1B64963  38.216  23.789   6.271
 5053POPC   C2B64964  38.038  23.710   6.684
 5053POPC   C3B64965  38.141  23.620   7.108
 5053POPC   C4B64966  38.190  24.022   7.286
 5054POPC   NC364967  32.855  36.683   5.393
 5054POPC   PO464968  33.454  36.978   5.182
 5054POPC   GL164969  33.212  36.802   5.729
 5054POPC   GL264970  33.182  37.140   5.956
 5054POPC   C1A64971  32.854  36.775   6.044
 5054POPC   D2A64972  32.681  36.824   6.467
 5054POPC   C3A64973  32.775  36.726   6.882
 5054POPC   C4A64974  32.618  37.024   7.175
 5054POPC   C1B64975  33.194  36.971   6.372
 5054POPC   C2B64976  33.267  36.795   6.753
 5054POPC   C3B64977  33.136  37.052   7.100
 5054POPC   C4B64978  33.296  37.142   7.513
 5055POPC   NC364979   6.131  12.636   5.394
 5055POPC   PO464980   6.073  11.883   5.338
 5055POPC   GL164981   6.121  12.204   5.665
 5055POPC   GL264982   5.794  12.394   5.745
 5055POPC   C1A64983   6.142  12.265   6.083
 5055POPC   D2A64984   5.947  12.119   6.450
 5055POPC   C3A64985   6.095  12.177   6.875
 5055POPC   C4A64986   6.211  11.845   7.106
 5055POPC   C1B64987   5.710  11.969   5.990
 5055POPC   C2B64988   5.566  11.786   6.398
 5055POPC   C3B64989   5.705  11.828   6.806
 5055POPC   C4B64990   5.702  11.901   7.226
 5056POPC   NC364991   5.473   3.586   5.426
 5056POPC   PO464992   4.846   3.735   5.451
 5056POPC   GL164993   4.952   3.478   5.808
 5056POPC   GL264994   5.268   3.270   5.791
 5056POPC   C1A64995   4.786   3.371   6.229
 5056POPC   D2A64996   4.884   3.315   6.661
 5056POPC   C3A64997   4.806   3.602   6.988
 5056POPC   C4A64998   4.912   3.462   7.387
 5056POPC   C1B64999   5.294   3.516   6.197
 5056POPC   C2B65000   5.252   3.712   6.634
 5056POPC   C3B65001   5.289   3.603   7.096
 5056POPC   C4B65002   5.415   3.313   7.466
 5057POPC   NC365003  36.269  31.686   5.417
 5057POPC   PO465004  35.775  31.162   5.441
 5057POPC   GL165005  36.098  31.340   5.777
 5057POPC   GL265006  36.121  31.725   5.883
 5057POPC   C1A65007  36.132  31.365   6.248
 5057POPC   D2A65008  36.344  31.247   6.627
 5057POPC   C3A65009  36.250  31.479   6.997
 5057POPC   C4A65010  36.002  31.308   7.331
 5057POPC   C1B65011  35.885  31.839   6.232
 5057POPC   C2B65012  36.010  31.821   6.655
 5057POPC   C3B65013  35.776  31.694   7.007
 5057POPC   C4B65014  35.989  31.820   7.333
 5058POPC   NC365015   2.853  12.627   5.407
 5058POPC   PO465016   2.693  13.316   5.431
 5058POPC   GL165017   2.666  13.016   5.779
 5058POPC   GL265018   2.569  12.670   5.824
 5058POPC   C1A65019   2.731  12.983   6.230
 5058POPC   D2A65020   2.616  13.230   6.588
 5058POPC   C3A65021   2.815  13.120   6.948
 5058POPC   C4A65022   2.742  12.924   7.328
 5058POPC   C1B65023   2.336  12.656   6.204
 5058POPC   C2B65024   2.450  12.686   6.655
 5058POPC   C3B65025   2.571  12.533   7.059
 5058POPC   C4B65026   2.945  12.426   7.288
 5059POPC   NC365027  14.720  44.561   5.563
 5059POPC   PO465028  14.140  44.840   5.195
 5059POPC   GL165029  14.105  44.758   5.651
 5059POPC   GL265030  14.407  44.895   5.822
 5059POPC   C1A65031  14.067  44.595   6.096
 5059POPC   D2A65032  14.205  44.702   6.537
 5059POPC   C3A65033  14.222  44.777   6.990
 5059POPC   C4A65034  14.317  44.464   7.295
 5059POPC   C1B65035  14.585  44.645   6.188
 5059POPC   C2B65036  14.741  44.765   6.568
 5059POPC   C3B65037  14.737  44.676   6.980
 5059POPC   C4B65038  14.678  44.813   7.378
 5060POPC   NC365039  23.854  15.610   5.492
 5060POPC   PO465040  24.195  16.214   5.488
 5060POPC   GL165041  23.951  16.081   5.805
 5060POPC   GL265042  23.636  15.911   5.867
 5060POPC   C1A65043  23.909  16.207   6.202
 5060POPC   D2A65044  23.969  16.094   6.613
 5060POPC   C3A65045  23.646  16.122   6.898
 5060POPC   C4A65046  23.905  16.142   7.256
 5060POPC   C1B65047  23.838  15.687   6.210
 5060POPC   C2B65048  23.730  15.640   6.633
 5060POPC   C3B65049  23.879  15.699   7.022
 5060POPC   C4B65050  23.496  15.796   7.277
 5061POPC   NC365051  39.000  20.439   5.380
 5061POPC   PO465052  39.093  21.147   5.375
 5061POPC   GL165053  39.194  20.940   5.771
 5061POPC   GL265054  39.511  20.766   5.687
 5061POPC   C1A65055  39.144  20.717   6.200
 5061POPC   D2A65056  39.016  20.440   6.565
 5061POPC   C3A65057  39.040  20.636   6.959
 5061POPC   C4A65058  39.321  20.810   7.255
 5061POPC   C1B65059  39.596  20.524   6.076
 5061POPC   C2B65060  39.548  20.414   6.485
 5061POPC   C3B65061  39.561  20.525   6.899
 5061POPC   C4B65062  39.547  20.333   7.270
 5062POPC   NC365063  13.746   5.585   5.507
 5062POPC   PO465064  13.467   6.116   5.303
 5062POPC   GL165065  13.455   6.155   5.802
 5062POPC   GL265066  13.624   5.848   5.980
 5062POPC   C1A65067  13.490   6.233   6.281
 5062POPC   D2A65068  13.522   6.032   6.700
 5062POPC   C3A65069  13.313   6.149   7.075
 5062POPC   C4A65070  13.314   6.040   7.502
 5062POPC   C1B65071  13.923   5.926   6.396
 5062POPC   C2B65072  14.013   5.957   6.875
 5062POPC   C3B65073  13.711   5.858   7.170
 5062POPC   C4B65074  13.536   5.520   7.381
 5063POPC   NC365075   7.125  11.091   5.581
 5063POPC   PO465076   6.470  11.026   5.276
 5063POPC   GL165077   6.586  11.222   5.671
 5063POPC   GL265078   6.726  10.949   5.888
 5063POPC   C1A65079   6.410  11.310   6.095
 5063POPC   D2A65080   6.471  11.051   6.468
 5063POPC   C3A65081   6.483  11.155   6.914
 5063POPC   C4A65082   6.574  11.516   7.172
 5063POPC   C1B65083   6.901  11.237   6.215
 5063POPC   C2B65084   6.924  11.227   6.681
 5063POPC   C3B65085   7.014  11.286   7.157
 5063POPC   C4B65086   6.904  11.155   7.601
 5064POPC   NC365087   4.694  24.643   5.546
 5064POPC   PO465088   4.367  24.147   5.247
 5064POPC   GL165089   4.396  24.255   5.733
 5064POPC   GL265090   4.232  24.597   5.827
 5064POPC   C1A65091   4.454  24.347   6.209
 5064POPC   D2A65092   4.545  24.519   6.616
 5064POPC   C3A65093   4.151  24.541   6.865
 5064POPC   C4A65094   4.304  24.357   7.254
 5064POPC   C1B65095   4.243  24.861   6.239
 5064POPC   C2B65096   4.392  25.002   6.680
 5064POPC   C3B65097   4.469  24.828   7.110
 5064POPC   C4B65098   4.344  24.823   7.545
 5065POPC   NC365099  36.159  25.394   5.339
 5065POPC   PO465100  36.288  24.678   5.466
 5065POPC   GL165101  36.171  25.050   5.748
 5065POPC   GL265102  36.330  25.413   5.808
 5065POPC   C1A65103  35.995  25.182   6.174
 5065POPC   D2A65104  35.844  25.046   6.593
 5065POPC   C3A65105  35.962  25.265   6.961
 5065POPC   C4A65106  35.795  25.386   7.350
 5065POPC   C1B65107  36.221  25.660   6.205
 5065POPC   C2B65108  36.003  25.669   6.632
 5065POPC   C3B65109  35.915  25.781   7.072
 5065POPC   C4B65110  36.107  25.737   7.518
 5066POPC   NC365111  24.906  42.040   5.583
 5066POPC   PO465112  24.502  42.435   5.263
 5066POPC   GL165113  24.497  42.376   5.742
 5066POPC   GL265114  24.437  42.035   5.805
 5066POPC   C1A65115  24.287  42.339   6.199
 5066POPC   D2A65116  24.041  42.376   6.594
 5066POPC   C3A65117  24.342  42.402   6.928
 5066POPC   C4A65118  24.542  42.445   7.326
 5066POPC   C1B65119  24.704  42.014   6.210
 5066POPC   C2B65120  24.773  42.166   6.656
 5066POPC   C3B65121  24.677  42.029   7.061
 5066POPC   C4B65122  24.471  41.847   7.414
 5067POPC   NC365123   5.808   1.415   5.614
 5067POPC   PO465124   6.211   1.006   5.185
 5067POPC   GL165125   6.155   0.998   5.737
 5067POPC   GL265126   5.933   0.773   6.032
 5067POPC   C1A65127   6.154   1.149   6.235
 5067POPC   D2A65128   5.988   0.840   6.571
 5067POPC   C3A65129   6.062   0.971   6.964
 5067POPC   C4A65130   5.937   1.371   7.091
 5067POPC   C1B65131   5.620   1.058   6.304
 5067POPC   C2B65132   5.598   1.167   6.748
 5067POPC   C3B65133   5.502   1.125   7.195
 5067POPC   C4B65134   5.591   1.301   7.652
 5068POPC   NC365135  31.166   8.714   5.425
 5068POPC   PO465136  31.663   9.218   5.414
 5068POPC   GL165137  31.598   9.061   5.788
 5068POPC   GL265138  31.292   9.046   5.802
 5068POPC   C1A65139  31.731   8.992   6.174
 5068POPC   D2A65140  31.601   8.805   6.540
 5068POPC   C3A65141  31.661   9.051   6.871
 5068POPC   C4A65142  31.606   8.969   7.256
 5068POPC   C1B65143  31.270   8.738   6.149
 5068POPC   C2B65144  31.068   8.750   6.557
 5068POPC   C3B65145  31.206   8.802   6.939
 5068POPC   C4B65146  31.173   8.491   7.238
 5069POPC   NC365147   6.716  16.769   5.292
 5069POPC   PO465148   6.489  16.418   5.465
 5069POPC   GL165149   6.780  16.553   5.778
 5069POPC   GL265150   6.676  16.887   5.847
 5069POPC   C1A65151   6.789  16.563   6.242
 5069POPC   D2A65152   6.499  16.520   6.592
 5069POPC   C3A65153   6.747  16.542   6.949
 5069POPC   C4A65154   6.666  16.510   7.383
 5069POPC   C1B65155   6.458  16.953   6.274
 5069POPC   C2B65156   6.619  16.998   6.703
 5069POPC   C3B65157   6.790  17.040   7.096
 5069POPC   C4B65158   6.829  17.370   7.363
 5070POPC   NC365159  10.893  26.298   5.355
 5070POPC   PO465160  11.493  26.016   5.401
 5070POPC   GL165161  11.304  25.847   5.748
 5070POPC   GL265162  10.975  25.776   5.587
 5070POPC   C1A65163  11.483  25.841   6.156
 5070POPC   D2A65164  11.547  26.082   6.565
 5070POPC   C3A65165  11.549  25.848   6.956
 5070POPC   C4A65166  11.634  25.888   7.406
 5070POPC   C1B65167  10.898  25.767   6.049
 5070POPC   C2B65168  11.097  25.792   6.471
 5070POPC   C3B65169  11.027  25.695   6.899
 5070POPC   C4B65170  10.859  25.791   7.294
 5071POPC   NC365171  25.918   2.414   5.102
 5071POPC   PO465172  25.613   2.152   5.627
 5071POPC   GL165173  26.001   2.026   5.862
 5071POPC   GL265174  26.344   2.093   5.746
 5071POPC   C1A65175  26.201   2.137   6.232
 5071POPC   D2A65176  26.071   2.047   6.621
 5071POPC   C3A65177  25.834   2.277   6.875
 5071POPC   C4A65178  26.025   2.211   7.259
 5071POPC   C1B65179  26.557   1.817   6.087
 5071POPC   C2B65180  26.425   1.695   6.542
 5071POPC   C3B65181  26.200   1.682   6.975
 5071POPC   C4B65182  26.283   1.797   7.418
 5072POPC   NC365183  29.950   8.552   5.260
 5072POPC   PO465184  29.935   9.201   5.481
 5072POPC   GL165185  29.831   9.032   5.853
 5072POPC   GL265186  29.733   8.715   5.720
 5072POPC   C1A65187  29.900   9.094   6.295
 5072POPC   D2A65188  29.901   9.237   6.711
 5072POPC   C3A65189  30.226   9.057   6.956
 5072POPC   C4A65190  30.095   8.926   7.341
 5072POPC   C1B65191  29.876   8.606   6.148
 5072POPC   C2B65192  29.992   8.690   6.590
 5072POPC   C3B65193  29.806   8.718   6.983
 5072POPC   C4B65194  29.812   8.504   7.383
 5073POPC   NC365195  12.806  40.430   5.432
 5073POPC   PO465196  13.195  39.780   5.448
 5073POPC   GL165197  12.963  40.024   5.726
 5073POPC   GL265198  13.142  40.311   5.783
 5073POPC   C1A65199  12.806  40.102   6.136
 5073POPC   D2A65200  12.852  39.826   6.449
 5073POPC   C3A65201  12.854  39.878   6.889
 5073POPC   C4A65202  13.108  39.648   7.212
 5073POPC   C1B65203  13.189  40.425   6.202
 5073POPC   C2B65204  12.971  40.317   6.595
 5073POPC   C3B65205  13.254  40.329   6.905
 5073POPC   C4B65206  13.162  40.485   7.250
 5074POPC   NC365207   0.521  30.353   5.389
 5074POPC   PO465208  44.963  29.967   5.488
 5074POPC   GL165209   0.230  30.118   5.815
 5074POPC   GL265210   0.602  30.050   5.791
 5074POPC   C1A65211   0.319  29.848   6.167
 5074POPC   D2A65212   0.350  29.610   6.530
 5074POPC   C3A65213   0.422  29.891   6.864
 5074POPC   C4A65214   0.476  29.762   7.258
 5074POPC   C1B65215   0.700  30.242   6.205
 5074POPC   C2B65216   0.847  30.185   6.653
 5074POPC   C3B65217   0.727  30.281   7.111
 5074POPC   C4B65218   0.561  30.200   7.577
 5075POPC   NC365219  37.611  16.671   5.379
 5075POPC   PO465220  37.259  17.267   5.207
 5075POPC   GL165221  37.238  16.881   5.643
 5075POPC   GL265222  37.349  16.512   5.774
 5075POPC   C1A65223  37.458  16.869   6.122
 5075POPC   D2A65224  37.439  16.840   6.572
 5075POPC   C3A65225  37.603  16.752   6.975
 5075POPC   C4A65226  37.833  17.110   7.109
 5075POPC   C1B65227  37.788  16.511   6.016
 5075POPC   C2B65228  37.935  16.662   6.445
 5075POPC   C3B65229  38.091  16.636   6.876
 5075POPC   C4B65230  37.970  16.428   7.250
 5076POPC   NC365231  17.652   7.537   5.512
 5076POPC   PO465232  17.330   6.961   5.405
 5076POPC   GL165233  17.418   7.167   5.789
 5076POPC   GL265234  17.767   7.167   5.870
 5076POPC   C1A65235  17.342   7.329   6.190
 5076POPC   D2A65236  17.427   7.556   6.570
 5076POPC   C3A65237  17.186   7.534   6.952
 5076POPC   C4A65238  17.330   7.435   7.366
 5076POPC   C1B65239  17.809   7.544   6.186
 5076POPC   C2B65240  17.942   7.568   6.651
 5076POPC   C3B65241  17.691   7.558   7.006
 5076POPC   C4B65242  17.564   7.895   7.274
 5077POPC   NC365243   3.325   7.832   5.376
 5077POPC   PO465244   3.569   8.498   5.412
 5077POPC   GL165245   3.430   8.193   5.763
 5077POPC   GL265246   3.651   7.872   5.784
 5077POPC   C1A65247   3.235   8.266   6.196
 5077POPC   D2A65248   2.967   8.195   6.592
 5077POPC   C3A65249   3.204   8.270   6.978
 5077POPC   C4A65250   3.587   8.417   7.203
 5077POPC   C1B65251   3.716   8.041   6.203
 5077POPC   C2B65252   3.561   8.144   6.614
 5077POPC   C3B65253   3.588   7.921   6.998
 5077POPC   C4B65254   3.811   7.915   7.355
 5078POPC   NC365255  41.975   9.796   5.561
 5078POPC   PO465256  41.366   9.503   5.442
 5078POPC   GL165257  41.385   9.692   5.818
 5078POPC   GL265258  41.325  10.024   5.761
 5078POPC   C1A65259  41.546   9.639   6.231
 5078POPC   D2A65260  41.826   9.552   6.576
 5078POPC   C3A65261  41.580   9.643   6.934
 5078POPC   C4A65262  41.671   9.540   7.350
 5078POPC   C1B65263  41.490  10.164   6.155
 5078POPC   C2B65264  41.554  10.362   6.557
 5078POPC   C3B65265  41.493  10.169   6.944
 5078POPC   C4B65266  41.482   9.989   7.315
 5079POPC   NC365267  12.395  11.021   5.539
 5079POPC   PO465268  11.872  11.360   5.375
 5079POPC   GL165269  12.029  11.537   5.739
 5079POPC   GL265270  12.349  11.410   5.864
 5079POPC   C1A65271  11.972  11.576   6.187
 5079POPC   D2A65272  12.096  11.332   6.543
 5079POPC   C3A65273  11.880  11.346   6.927
 5079POPC   C4A65274  11.753  11.320   7.355
 5079POPC   C1B65275  12.493  11.617   6.221
 5079POPC   C2B65276  12.563  11.721   6.641
 5079POPC   C3B65277  12.399  11.457   6.944
 5079POPC   C4B65278  12.247  11.428   7.298
 5080POPC   NC365279  14.107  41.509   5.302
 5080POPC   PO465280  14.651  41.879   5.322
 5080POPC   GL165281  14.563  41.524   5.621
 5080POPC   GL265282  14.221  41.493   5.783
 5080POPC   C1A65283  14.647  41.509   6.090
 5080POPC   D2A65284  14.454  41.702   6.464
 5080POPC   C3A65285  14.544  41.571   6.874
 5080POPC   C4A65286  14.635  41.761   7.255
 5080POPC   C1B65287  14.150  41.373   6.184
 5080POPC   C2B65288  14.101  41.354   6.607
 5080POPC   C3B65289  14.037  41.657   6.895
 5080POPC   C4B65290  14.177  41.550   7.269
 5081POPC   NC365291  35.904  13.522   5.353
 5081POPC   PO465292  36.387  14.003   5.327
 5081POPC   GL165293  36.247  13.809   5.732
 5081POPC   GL265294  35.881  13.878   5.747
 5081POPC   C1A65295  36.380  13.745   6.182
 5081POPC   D2A65296  36.227  13.558   6.609
 5081POPC   C3A65297  36.406  13.524   7.055
 5081POPC   C4A65298  36.418  13.432   7.531
 5081POPC   C1B65299  35.901  13.623   6.125
 5081POPC   C2B65300  35.830  13.862   6.524
 5081POPC   C3B65301  35.770  13.758   6.935
 5081POPC   C4B65302  35.932  13.513   7.280
 5082POPC   NC365303  23.046   4.188   5.071
 5082POPC   PO465304  22.740   4.555   5.592
 5082POPC   GL165305  22.737   4.399   5.989
 5082POPC   GL265306  23.076   4.286   6.090
 5082POPC   C1A65307  22.636   4.243   6.378
 5082POPC   D2A65308  22.970   4.246   6.640
 5082POPC   C3A65309  22.822   4.336   7.042
 5082POPC   C4A65310  22.979   4.601   7.367
 5082POPC   C1B65311  23.273   3.934   6.306
 5082POPC   C2B65312  23.179   3.712   6.661
 5082POPC   C3B65313  23.225   3.981   6.986
 5082POPC   C4B65314  23.350   4.035   7.361
 5083POPC   NC365315  25.549   4.341   5.553
 5083POPC   PO465316  25.143   4.781   5.388
 5083POPC   GL165317  25.129   4.525   5.782
 5083POPC   GL265318  24.818   4.435   5.843
 5083POPC   C1A65319  25.239   4.273   6.176
 5083POPC   D2A65320  25.111   4.213   6.620
 5083POPC   C3A65321  25.360   4.157   7.029
 5083POPC   C4A65322  25.299   3.875   7.399
 5083POPC   C1B65323  24.902   4.676   6.233
 5083POPC   C2B65324  24.749   4.629   6.675
 5083POPC   C3B65325  24.869   4.480   7.092
 5083POPC   C4B65326  25.052   4.303   7.457
 5084POPC   NC365327  13.408  13.287   5.333
 5084POPC   PO465328  13.758  12.713   5.510
 5084POPC   GL165329  13.700  13.067   5.774
 5084POPC   GL265330  13.344  13.080   5.811
 5084POPC   C1A65331  13.652  12.973   6.227
 5084POPC   D2A65332  13.724  12.724   6.592
 5084POPC   C3A65333  13.684  12.852   7.036
 5084POPC   C4A65334  13.779  12.545   7.344
 5084POPC   C1B65335  13.142  13.066   6.241
 5084POPC   C2B65336  13.303  12.991   6.672
 5084POPC   C3B65337  13.206  13.045   7.103
 5084POPC   C4B65338  13.398  12.918   7.489
 5085POPC   NC365339   6.479  14.979   5.294
 5085POPC   PO465340   7.053  15.076   5.504
 5085POPC   GL165341   6.670  15.042   5.828
 5085POPC   GL265342   6.396  14.784   5.767
 5085POPC   C1A65343   6.605  15.204   6.293
 5085POPC   D2A65344   6.781  15.081   6.706
 5085POPC   C3A65345   6.879  15.306   7.101
 5085POPC   C4A65346   7.058  15.526   7.492
 5085POPC   C1B65347   6.274  14.842   6.185
 5085POPC   C2B65348   6.259  14.988   6.634
 5085POPC   C3B65349   6.439  14.994   7.089
 5085POPC   C4B65350   6.443  14.921   7.580
 5086POPC   NC365351  12.564  36.361   5.358
 5086POPC   PO465352  13.077  35.940   5.610
 5086POPC   GL165353  12.836  36.208   5.818
 5086POPC   GL265354  12.571  36.069   5.799
 5086POPC   C1A65355  12.880  36.373   6.219
 5086POPC   D2A65356  12.801  36.149   6.578
 5086POPC   C3A65357  13.140  35.957   6.792
 5086POPC   C4A65358  12.967  36.194   7.116
 5086POPC   C1B65359  12.374  36.290   6.125
 5086POPC   C2B65360  12.317  36.350   6.569
 5086POPC   C3B65361  12.484  36.278   6.976
 5086POPC   C4B65362  12.483  36.361   7.421
 5087POPC   NC365363   6.493  23.906   5.488
 5087POPC   PO465364   6.868  23.392   5.554
 5087POPC   GL165365   6.835  23.624   5.889
 5087POPC   GL265366   6.886  23.965   5.848
 5087POPC   C1A65367   6.681  23.466   6.264
 5087POPC   D2A65368   6.490  23.622   6.616
 5087POPC   C3A65369   6.632  23.522   7.035
 5087POPC   C4A65370   6.414  23.667   7.393
 5087POPC   C1B65371   6.535  23.958   6.153
 5087POPC   C2B65372   6.584  24.154   6.511
 5087POPC   C3B65373   6.740  23.994   6.874
 5087POPC   C4B65374   6.910  23.864   7.295
 5088POPC   NC365375  42.940  25.854   5.466
 5088POPC   PO465376  43.292  26.512   5.481
 5088POPC   GL165377  43.238  26.181   5.804
 5088POPC   GL265378  43.457  25.874   5.752
 5088POPC   C1A65379  43.043  26.024   6.187
 5088POPC   D2A65380  43.001  26.097   6.629
 5088POPC   C3A65381  42.822  25.855   6.939
 5088POPC   C4A65382  42.907  26.009   7.350
 5088POPC   C1B65383  43.392  25.646   6.160
 5088POPC   C2B65384  43.210  25.644   6.614
 5088POPC   C3B65385  43.325  25.874   7.026
 5088POPC   C4B65386  43.360  25.857   7.516
 5089POPC   NC365387  10.628   3.632   5.454
 5089POPC   PO465388  10.167   3.129   5.411
 5089POPC   GL165389  10.377   3.352   5.834
 5089POPC   GL265390  10.678   3.584   5.953
 5089POPC   C1A65391  10.264   3.578   6.242
 5089POPC   D2A65392  10.502   3.526   6.601
 5089POPC   C3A65393  10.372   3.522   6.994
 5089POPC   C4A65394  10.566   3.333   7.383
 5089POPC   C1B65395  10.682   3.893   6.303
 5089POPC   C2B65396  10.782   3.964   6.736
 5089POPC   C3B65397  10.816   3.730   7.136
 5089POPC   C4B65398  10.816   3.778   7.574
 5090POPC   NC365399  31.452  20.856   5.616
 5090POPC   PO465400  31.786  20.434   5.235
 5090POPC   GL165401  31.662  20.412   5.729
 5090POPC   GL265402  31.811  20.629   5.995
 5090POPC   C1A65403  31.347  20.542   6.149
 5090POPC   D2A65404  31.573  20.636   6.522
 5090POPC   C3A65405  31.370  20.644   6.905
 5090POPC   C4A65406  31.457  20.522   7.326
 5090POPC   C1B65407  31.719  21.022   6.227
 5090POPC   C2B65408  31.595  21.122   6.655
 5090POPC   C3B65409  31.745  20.967   7.037
 5090POPC   C4B65410  31.487  21.023   7.358
 5091POPC   NC365411  27.819  41.108   5.566
 5091POPC   PO465412  27.119  41.213   5.661
 5091POPC   GL165413  27.412  40.959   5.892
 5091POPC   GL265414  27.446  40.590   5.804
 5091POPC   C1A65415  27.718  41.064   6.206
 5091POPC   D2A65416  27.847  40.902   6.577
 5091POPC   C3A65417  27.575  40.838   6.842
 5091POPC   C4A65418  27.700  40.966   7.216
 5091POPC   C1B65419  27.642  40.560   6.206
 5091POPC   C2B65420  27.887  40.372   6.511
 5091POPC   C3B65421  27.860  40.408   6.957
 5091POPC   C4B65422  27.731  40.421   7.405
 5092POPC   NC365423   2.408  31.348   5.336
 5092POPC   PO465424   2.957  31.670   5.599
 5092POPC   GL165425   2.797  31.434   5.959
 5092POPC   GL265426   2.919  31.129   5.845
 5092POPC   C1A65427   2.740  31.371   6.419
 5092POPC   D2A65428   2.861  31.644   6.776
 5092POPC   C3A65429   2.546  31.594   7.125
 5092POPC   C4A65430   2.474  31.809   7.534
 5092POPC   C1B65431   3.160  31.139   6.234
 5092POPC   C2B65432   3.175  31.231   6.699
 5092POPC   C3B65433   2.894  31.212   7.087
 5092POPC   C4B65434   3.047  31.157   7.538
 5093POPC   NC365435  12.729  42.494   5.647
 5093POPC   PO465436  12.998  42.177   5.139
 5093POPC   GL165437  12.916  42.018   5.671
 5093POPC   GL265438  12.593  41.887   5.749
 5093POPC   C1A65439  12.907  42.225   6.197
 5093POPC   D2A65440  12.664  42.324   6.623
 5093POPC   C3A65441  12.761  42.593   7.031
 5093POPC   C4A65442  13.076  42.845   7.309
 5093POPC   C1B65443  12.542  41.890   6.219
 5093POPC   C2B65444  12.658  41.817   6.691
 5093POPC   C3B65445  12.679  42.040   7.134
 5093POPC   C4B65446  12.571  42.017   7.644
 5094POPC   NC365447  20.936  17.658   5.528
 5094POPC   PO465448  20.250  17.403   5.406
 5094POPC   GL165449  20.459  17.299   5.794
 5094POPC   GL265450  20.587  17.610   5.909
 5094POPC   C1A65451  20.378  17.286   6.247
 5094POPC   D2A65452  20.558  17.530   6.561
 5094POPC   C3A65453  20.463  17.373   6.956
 5094POPC   C4A65454  20.709  17.333   7.316
 5094POPC   C1B65455  20.926  17.697   6.195
 5094POPC   C2B65456  20.899  17.918   6.573
 5094POPC   C3B65457  20.884  17.709   6.942
 5094POPC   C4B65458  21.015  17.746   7.319
 5095POPC   NC365459   8.334  15.390   5.412
 5095POPC   PO465460   8.000  14.785   5.610
 5095POPC   GL165461   8.362  14.870   5.849
 5095POPC   GL265462   8.377  15.226   5.866
 5095POPC   C1A65463   8.594  14.995   6.240
 5095POPC   D2A65464   8.501  15.265   6.591
 5095POPC   C3A65465   8.308  15.064   6.957
 5095POPC   C4A65466   8.278  14.918   7.367
 5095POPC   C1B65467   8.105  15.186   6.182
 5095POPC   C2B65468   7.975  15.137   6.568
 5095POPC   C3B65469   7.868  15.378   6.864
 5095POPC   C4B65470   7.947  15.320   7.266
 5096POPC   NC365471   0.020  20.868   5.692
 5096POPC   PO465472   0.434  21.397   5.493
 5096POPC   GL165473   0.505  21.370   5.909
 5096POPC   GL265474   0.437  21.726   5.948
 5096POPC   C1A65475   0.352  21.173   6.321
 5096POPC   D2A65476   0.089  21.252   6.684
 5096POPC   C3A65477   0.288  21.256   7.073
 5096POPC   C4A65478   0.427  21.270   7.504
 5096POPC   C1B65479   0.596  21.631   6.331
 5096POPC   C2B65480   0.453  21.666   6.706
 5096POPC   C3B65481   0.620  21.620   7.114
 5096POPC   C4B65482   0.493  21.805   7.517
 5097POPC   NC365483  25.807   3.416   5.367
 5097POPC   PO465484  26.399   3.698   5.300
 5097POPC   GL165485  26.113   3.675   5.712
 5097POPC   GL265486  25.961   3.319   5.845
 5097POPC   C1A65487  26.068   3.685   6.188
 5097POPC   D2A65488  25.844   3.739   6.581
 5097POPC   C3A65489  26.049   3.683   6.968
 5097POPC   C4A65490  26.443   3.540   7.082
 5097POPC   C1B65491  26.108   3.178   6.273
 5097POPC   C2B65492  26.030   3.247   6.711
 5097POPC   C3B65493  25.827   3.194   7.105
 5097POPC   C4B65494  25.807   3.023   7.562
 5098POPC   NC365495   9.732  17.253   5.568
 5098POPC   PO465496   9.407  17.729   5.127
 5098POPC   GL165497   9.634  17.807   5.641
 5098POPC   GL265498   9.926  17.687   5.787
 5098POPC   C1A65499   9.552  17.793   6.106
 5098POPC   D2A65500   9.355  17.636   6.480
 5098POPC   C3A65501   9.588  17.611   6.885
 5098POPC   C4A65502   9.564  17.371   7.264
 5098POPC   C1B65503   9.936  17.371   6.154
 5098POPC   C2B65504  10.006  17.390   6.581
 5098POPC   C3B65505   9.980  17.249   6.996
 5098POPC   C4B65506  10.195  17.516   7.299
 5099POPC   NC365507  10.140  11.928   5.413
 5099POPC   PO465508   9.500  12.025   5.617
 5099POPC   GL165509   9.677  12.186   5.973
 5099POPC   GL265510   9.981  12.030   5.896
 5099POPC   C1A65511   9.572  12.202   6.409
 5099POPC   D2A65512   9.333  12.008   6.708
 5099POPC   C3A65513   9.626  11.895   7.035
 5099POPC   C4A65514   9.984  11.828   7.311
 5099POPC   C1B65515  10.029  11.992   6.331
 5099POPC   C2B65516  10.056  11.968   6.773
 5099POPC   C3B65517  10.167  12.248   7.110
 5099POPC   C4B65518  10.161  12.308   7.574
 5100POPC   NC365519  35.138  14.116   5.430
 5100POPC   PO465520  35.585  14.576   5.408
 5100POPC   GL165521  35.617  14.345   5.813
 5100POPC   GL265522  35.254  14.321   5.893
 5100POPC   C1A65523  35.635  14.419   6.287
 5100POPC   D2A65524  35.289  14.644   6.541
 5100POPC   C3A65525  35.329  14.652   6.975
 5100POPC   C4A65526  35.601  14.368   7.180
 5100POPC   C1B65527  35.153  14.205   6.328
 5100POPC   C2B65528  35.437  14.178   6.711
 5100POPC   C3B65529  35.135  14.180   7.005
 5100POPC   C4B65530  34.801  14.447   7.096
 5101POPC   NC365531  22.361   7.827   5.591
 5101POPC   PO465532  22.129   7.134   5.470
 5101POPC   GL165533  22.180   7.388   5.801
 5101POPC   GL265534  21.890   7.238   5.927
 5101POPC   C1A65535  22.151   7.598   6.189
 5101POPC   D2A65536  22.071   7.419   6.577
 5101POPC   C3A65537  22.243   7.637   6.942
 5101POPC   C4A65538  22.278   7.479   7.360
 5101POPC   C1B65539  21.808   7.033   6.305
 5101POPC   C2B65540  21.793   6.962   6.735
 5101POPC   C3B65541  21.675   7.008   7.146
 5101POPC   C4B65542  21.896   7.144   7.491
 5102POPC   NC365543  35.874  18.480   5.620
 5102POPC   PO465544  36.545  18.465   5.390
 5102POPC   GL165545  36.471  18.484   5.802
 5102POPC   GL265546  36.262  18.180   5.786
 5102POPC   C1A65547  36.363  18.472   6.233
 5102POPC   D2A65548  35.989  18.375   6.454
 5102POPC   C3A65549  35.958  18.329   6.907
 5102POPC   C4A65550  35.871  18.227   7.335
 5102POPC   C1B65551  36.454  17.944   6.101
 5102POPC   C2B65552  36.361  17.986   6.532
 5102POPC   C3B65553  36.344  17.995   6.962
 5102POPC   C4B65554  36.381  18.389   7.195
 5103POPC   NC365555  10.650  22.412   5.376
 5103POPC   PO465556  10.058  22.167   5.419
 5103POPC   GL165557  10.332  22.301   5.762
 5103POPC   GL265558  10.691  22.146   5.794
 5103POPC   C1A65559  10.497  22.414   6.178
 5103POPC   D2A65560  10.797  22.342   6.520
 5103POPC   C3A65561  10.592  22.374   6.910
 5103POPC   C4A65562  10.591  22.179   7.296
 5103POPC   C1B65563  10.744  21.956   6.179
 5103POPC   C2B65564  10.513  21.932   6.565
 5103POPC   C3B65565  10.676  21.855   6.916
 5103POPC   C4B65566  10.863  21.725   7.251
 5104POPC   NC365567  10.276  14.167   5.120
 5104POPC   PO465568  10.828  13.934   5.534
 5104POPC   GL165569  10.746  14.346   5.708
 5104POPC   GL265570  10.415  14.333   5.624
 5104POPC   C1A65571  10.646  14.608   6.089
 5104POPC   D2A65572  10.777  14.727   6.527
 5104POPC   C3A65573  10.716  14.526   6.957
 5104POPC   C4A65574  10.983  14.627   7.318
 5104POPC   C1B65575  10.277  14.252   6.063
 5104POPC   C2B65576  10.385  14.346   6.494
 5104POPC   C3B65577  10.324  14.167   6.878
 5104POPC   C4B65578  10.261  14.056   7.281
 5105POPC   NC365579  15.407   3.148   5.449
 5105POPC   PO465580  15.032   2.655   5.267
 5105POPC   GL165581  15.264   2.708   5.648
 5105POPC   GL265582  15.039   2.925   5.783
 5105POPC   C1A65583  15.428   2.739   6.055
 5105POPC   D2A65584  15.280   2.650   6.472
 5105POPC   C3A65585  15.321   2.819   6.881
 5105POPC   C4A65586  15.133   2.917   7.269
 5105POPC   C1B65587  15.072   3.090   6.190
 5105POPC   C2B65588  15.178   3.242   6.563
 5105POPC   C3B65589  15.212   3.331   6.973
 5105POPC   C4B65590  15.055   3.415   7.356
 5106POPC   NC365591   4.212  16.246   5.519
 5106POPC   PO465592   4.363  15.588   5.425
 5106POPC   GL165593   4.355  15.672   5.891
 5106POPC   GL265594   4.123  15.933   5.930
 5106POPC   C1A65595   4.423  15.910   6.324
 5106POPC   D2A65596   4.345  16.113   6.743
 5106POPC   C3A65597   4.565  16.017   7.138
 5106POPC   C4A65598   4.460  16.237   7.495
 5106POPC   C1B65599   4.007  15.568   6.230
 5106POPC   C2B65600   3.874  15.334   6.606
 5106POPC   C3B65601   3.868  15.502   7.011
 5106POPC   C4B65602   4.077  15.873   7.193
 5107POPC   NC365603  44.266   0.258   5.213
 5107POPC   PO465604  44.766   0.672   5.347
 5107POPC   GL165605  44.541   0.539   5.740
 5107POPC   GL265606  44.450   0.181   5.771
 5107POPC   C1A65607  44.612   0.576   6.222
 5107POPC   D2A65608  44.760   0.621   6.686
 5107POPC   C3A65609  44.489   0.487   7.035
 5107POPC   C4A65610  44.476   0.526   7.479
 5107POPC   C1B65611  44.623   0.044   6.198
 5107POPC   C2B65612  44.634   0.100   6.667
 5107POPC   C3B65613  44.894   0.170   7.039
 5107POPC   C4B65614  44.837   0.189   7.520
 5108POPC   NC365615  32.048   5.679   5.439
 5108POPC   PO465616  32.330   6.206   5.157
 5108POPC   GL165617  32.250   6.107   5.622
 5108POPC   GL265618  32.402   5.786   5.794
 5108POPC   C1A65619  32.040   6.137   6.032
 5108POPC   D2A65620  32.238   6.145   6.463
 5108POPC   C3A65621  32.149   6.077   6.920
 5108POPC   C4A65622  32.543   5.916   7.093
 5108POPC   C1B65623  32.154   5.643   6.144
 5108POPC   C2B65624  32.248   5.476   6.552
 5108POPC   C3B65625  32.186   5.574   7.005
 5108POPC   C4B65626  32.299   5.628   7.471
 5109POPC   NC365627  19.648  11.347   5.284
 5109POPC   PO465628  20.274  11.461   5.504
 5109POPC   GL165629  20.118  11.525   5.928
 5109POPC   GL265630  19.803  11.348   5.914
 5109POPC   C1A65631  19.948  11.526   6.372
 5109POPC   D2A65632  19.541  11.371   6.503
 5109POPC   C3A65633  19.552  11.282   6.939
 5109POPC   C4A65634  19.688  11.527   7.283
 5109POPC   C1B65635  20.118  11.079   6.189
 5109POPC   C2B65636  20.278  11.149   6.592
 5109POPC   C3B65637  20.060  11.306   6.904
 5109POPC   C4B65638  20.044  11.174   7.319
 5110POPC   NC365639  39.365  19.494   5.330
 5110POPC   PO465640  39.403  20.196   5.389
 5110POPC   GL165641  39.166  20.079   5.739
 5110POPC   GL265642  39.089  19.718   5.767
 5110POPC   C1A65643  39.183  20.181   6.156
 5110POPC   D2A65644  39.291  19.966   6.524
 5110POPC   C3A65645  39.210  20.126   6.932
 5110POPC   C4A65646  39.190  19.861   7.282
 5110POPC   C1B65647  39.395  19.607   6.098
 5110POPC   C2B65648  39.486  19.495   6.546
 5110POPC   C3B65649  39.160  19.542   6.841
 5110POPC   C4B65650  38.796  19.597   7.057
 5111POPC   NC365651  18.423  25.422   5.562
 5111POPC   PO465652  17.926  24.971   5.426
 5111POPC   GL165653  18.197  25.012   5.781
 5111POPC   GL265654  18.579  24.936   5.738
 5111POPC   C1A65655  18.168  25.252   6.161
 5111POPC   D2A65656  18.156  25.557   6.511
 5111POPC   C3A65657  18.190  25.409   6.971
 5111POPC   C4A65658  18.132  25.644   7.356
 5111POPC   C1B65659  18.658  25.118   6.158
 5111POPC   C2B65660  18.452  25.128   6.572
 5111POPC   C3B65661  18.637  25.151   6.984
 5111POPC   C4B65662  18.588  25.321   7.406
 5112POPC   NC365663  40.566  43.019   5.514
 5112POPC   PO465664  41.232  42.862   5.334
 5112POPC   GL165665  41.065  43.144   5.654
 5112POPC   GL265666  40.995  42.846   5.826
 5112POPC   C1A65667  40.987  43.286   6.107
 5112POPC   D2A65668  40.908  43.114   6.548
 5112POPC   C3A65669  40.732  43.305   6.933
 5112POPC   C4A65670  40.959  43.201   7.319
 5112POPC   C1B65671  40.954  42.679   6.255
 5112POPC   C2B65672  40.668  42.661   6.631
 5112POPC   C3B65673  40.694  42.812   7.063
 5112POPC   C4B65674  40.487  43.049   7.387
 5113POPC   NC365675   7.705   2.733   5.410
 5113POPC   PO465676   7.078   2.935   5.146
 5113POPC   GL165677   7.246   2.904   5.618
 5113POPC   GL265678   7.559   3.023   5.828
 5113POPC   C1A65679   7.226   2.672   6.029
 5113POPC   D2A65680   7.126   2.705   6.486
 5113POPC   C3A65681   7.357   2.555   6.862
 5113POPC   C4A65682   7.210   2.686   7.250
 5113POPC   C1B65683   7.541   2.973   6.318
 5113POPC   C2B65684   7.478   3.032   6.779
 5113POPC   C3B65685   7.636   2.932   7.208
 5113POPC   C4B65686   7.888   2.797   7.553
 5114POPC   NC365687  25.856  24.911   5.442
 5114POPC   PO465688  26.226  25.514   5.455
 5114POPC   GL165689  26.155  25.202   5.775
 5114POPC   GL265690  25.845  25.249   5.833
 5114POPC   C1A65691  26.119  25.017   6.211
 5114POPC   D2A65692  26.396  25.019   6.593
 5114POPC   C3A65693  26.207  25.171   6.989
 5114POPC   C4A65694  25.912  25.109   7.305
 5114POPC   C1B65695  25.743  25.404   6.198
 5114POPC   C2B65696  25.672  25.249   6.593
 5114POPC   C3B65697  25.813  25.519   6.895
 5114POPC   C4B65698  25.822  25.613   7.301
 5115POPC   NC365699  11.818  31.962   5.476
 5115POPC   PO465700  11.268  31.564   5.202
 5115POPC   GL165701  11.291  31.482   5.691
 5115POPC   GL265702  11.526  31.704   5.879
 5115POPC   C1A65703  11.139  31.396   6.147
 5115POPC   D2A65704  11.180  31.548   6.594
 5115POPC   C3A65705  11.036  31.494   7.038
 5115POPC   C4A65706  11.041  31.688   7.461
 5115POPC   C1B65707  11.620  31.459   6.274
 5115POPC   C2B65708  11.639  31.263   6.663
 5115POPC   C3B65709  11.549  31.359   7.089
 5115POPC   C4B65710  11.710  31.483   7.491
 5116POPC   NC365711  33.412   5.073   5.394
 5116POPC   PO465712  33.981   4.699   5.261
 5116POPC   GL165713  33.815   4.947   5.682
 5116POPC   GL265714  33.877   5.324   5.715
 5116POPC   C1A65715  33.659   5.064   6.141
 5116POPC   D2A65716  33.456   5.001   6.569
 5116POPC   C3A65717  33.765   5.029   6.879
 5116POPC   C4A65718  33.746   5.198   7.290
 5116POPC   C1B65719  34.116   5.296   6.123
 5116POPC   C2B65720  34.182   5.501   6.513
 5116POPC   C3B65721  34.044   5.493   6.944
 5116POPC   C4B65722  34.266   5.246   7.252
 5117POPC   NC365723   4.108  31.326   5.530
 5117POPC   PO465724   4.650  31.810   5.766
 5117POPC   GL165725   4.322  31.581   5.910
 5117POPC   GL265726   4.524  31.258   5.837
 5117POPC   C1A65727   4.086  31.488   6.282
 5117POPC   D2A65728   4.039  31.219   6.651
 5117POPC   C3A65729   4.137  31.452   7.018
 5117POPC   C4A65730   4.136  31.691   7.378
 5117POPC   C1B65731   4.580  31.333   6.258
 5117POPC   C2B65732   4.520  31.415   6.641
 5117POPC   C3B65733   4.568  31.213   7.008
 5117POPC   C4B65734   4.438  31.302   7.442
 5118POPC   NC365735  40.532   4.401   5.112
 5118POPC   PO465736  39.961   4.119   5.480
 5118POPC   GL165737  39.980   4.207   5.919
 5118POPC   GL265738  40.020   4.537   5.938
 5118POPC   C1A65739  39.822   4.320   6.352
 5118POPC   D2A65740  39.781   4.096   6.743
 5118POPC   C3A65741  39.835   4.310   7.135
 5118POPC   C4A65742  40.080   4.129   7.440
 5118POPC   C1B65743  40.265   4.579   6.283
 5118POPC   C2B65744  40.059   4.660   6.682
 5118POPC   C3B65745  40.270   4.562   7.040
 5118POPC   C4B65746  40.422   4.802   7.358
 5119POPC   NC365747  18.730  43.695   5.337
 5119POPC   PO465748  19.190  44.096   5.434
 5119POPC   GL165749  18.888  44.076   5.773
 5119POPC   GL265750  18.818  43.709   5.841
 5119POPC   C1A65751  18.925  44.020   6.219
 5119POPC   D2A65752  18.947  43.754   6.548
 5119POPC   C3A65753  18.867  43.943   6.922
 5119POPC   C4A65754  18.639  43.838   7.270
 5119POPC   C1B65755  19.217  43.576   6.047
 5119POPC   C2B65756  19.410  43.564   6.461
 5119POPC   C3B65757  19.212  43.422   6.857
 5119POPC   C4B65758  19.081  43.580   7.264
 5120POPC   NC365759   5.823  30.355   5.226
 5120POPC   PO465760   6.190  30.904   5.434
 5120POPC   GL165761   5.966  30.718   5.807
 5120POPC   GL265762   5.780  31.013   5.987
 5120POPC   C1A65763   5.876  30.604   6.241
 5120POPC   D2A65764   5.960  30.935   6.540
 5120POPC   C3A65765   6.170  30.789   6.911
 5120POPC   C4A65766   6.023  30.415   7.155
 5120POPC   C1B65767   5.520  31.165   6.353
 5120POPC   C2B65768   5.447  30.929   6.716
 5120POPC   C3B65769   5.653  30.761   7.040
 5120POPC   C4B65770   5.492  30.973   7.338
 5121POPC   NC365771  41.318   4.086   5.390
 5121POPC   PO465772  41.688   4.635   5.512
 5121POPC   GL165773  41.463   4.403   5.769
 5121POPC   GL265774  41.302   4.644   5.931
 5121POPC   C1A65775  41.417   4.149   6.125
 5121POPC   D2A65776  41.153   4.028   6.487
 5121POPC   C3A65777  41.382   4.210   6.822
 5121POPC   C4A65778  41.526   4.395   7.197
 5121POPC   C1B65779  41.591   4.754   6.280
 5121POPC   C2B65780  41.723   4.775   6.726
 5121POPC   C3B65781  41.839   4.780   7.161
 5121POPC   C4B65782  41.610   4.882   7.540
 5122POPC   NC365783   8.656  14.579   5.520
 5122POPC   PO465784   9.205  14.205   5.431
 5122POPC   GL165785   9.046  14.344   5.764
 5122POPC   GL265786   8.791  14.127   5.758
 5122POPC   C1A65787   9.062  14.591   6.119
 5122POPC   D2A65788   8.914  14.699   6.535
 5122POPC   C3A65789   9.131  14.723   6.908
 5122POPC   C4A65790   9.052  14.621   7.335
 5122POPC   C1B65791   8.897  14.102   6.181
 5122POPC   C2B65792   9.029  13.994   6.544
 5122POPC   C3B65793   8.969  14.240   6.871
 5122POPC   C4B65794   8.793  14.162   7.228
 5123POPC   NC365795  26.195  11.662   5.356
 5123POPC   PO465796  25.932  10.995   5.469
 5123POPC   GL165797  26.082  11.305   5.725
 5123POPC   GL265798  25.757  11.493   5.704
 5123POPC   C1A65799  26.268  11.365   6.149
 5123POPC   D2A65800  26.273  11.661   6.505
 5123POPC   C3A65801  25.978  11.573   6.819
 5123POPC   C4A65802  26.020  11.300   7.158
 5123POPC   C1B65803  25.674  11.215   6.075
 5123POPC   C2B65804  25.546  11.206   6.524
 5123POPC   C3B65805  25.614  11.010   6.929
 5123POPC   C4B65806  25.639  11.060   7.357
 5124POPC   NC365807  18.185  13.810   5.321
 5124POPC   PO465808  18.361  13.153   5.228
 5124POPC   GL165809  18.317  13.418   5.685
 5124POPC   GL265810  18.477  13.756   5.729
 5124POPC   C1A65811  18.615  13.506   6.114
 5124POPC   D2A65812  18.712  13.580   6.555
 5124POPC   C3A65813  18.575  13.821   6.958
 5124POPC   C4A65814  18.565  13.705   7.394
 5124POPC   C1B65815  18.219  13.837   6.121
 5124POPC   C2B65816  18.234  13.834   6.581
 5124POPC   C3B65817  18.075  13.697   7.015
 5124POPC   C4B65818  18.071  13.606   7.460
 5125POPC   NC365819  15.719  14.866   5.362
 5125POPC   PO465820  15.723  15.488   5.467
 5125POPC   GL165821  15.929  15.340   5.777
 5125POPC   GL265822  16.277  15.461   5.738
 5125POPC   C1A65823  15.744  15.166   6.150
 5125POPC   D2A65824  15.793  15.336   6.557
 5125POPC   C3A65825  15.609  15.128   6.924
 5125POPC   C4A65826  15.760  15.021   7.334
 5125POPC   C1B65827  16.239  15.292   6.186
 5125POPC   C2B65828  16.382  15.243   6.613
 5125POPC   C3B65829  16.107  15.199   6.949
 5125POPC   C4B65830  16.021  15.460   7.270
 5126POPC   NC365831  24.654  32.239   5.233
 5126POPC   PO465832  24.016  32.261   5.522
 5126POPC   GL165833  24.420  32.232   5.716
 5126POPC   GL265834  24.770  32.339   5.711
 5126POPC   C1A65835  24.461  32.139   6.136
 5126POPC   D2A65836  24.198  32.081   6.493
 5126POPC   C3A65837  24.370  31.954   6.868
 5126POPC   C4A65838  24.279  32.261   7.154
 5126POPC   C1B65839  24.745  32.561   6.067
 5126POPC   C2B65840  24.663  32.470   6.474
 5126POPC   C3B65841  24.759  32.581   6.887
 5126POPC   C4B65842  24.807  32.217   7.121
 5127POPC   NC365843   6.718  32.208   5.255
 5127POPC   PO465844   6.638  32.901   5.437
 5127POPC   GL165845   6.602  33.026   5.861
 5127POPC   GL265846   6.356  33.269   5.777
 5127POPC   C1A65847   6.646  33.217   6.272
 5127POPC   D2A65848   6.730  33.454   6.636
 5127POPC   C3A65849   6.857  33.131   6.948
 5127POPC   C4A65850   6.956  33.170   7.360
 5127POPC   C1B65851   6.134  33.369   6.131
 5127POPC   C2B65852   6.194  33.326   6.561
 5127POPC   C3B65853   6.372  33.265   6.943
 5127POPC   C4B65854   6.447  33.081   7.369
 5128POPC   NC365855  41.962  37.799   5.446
 5128POPC   PO465856  42.620  37.900   5.388
 5128POPC   GL165857  42.416  37.640   5.748
 5128POPC   GL265858  42.128  37.835   5.936
 5128POPC   C1A65859  42.406  37.502   6.214
 5128POPC   D2A65860  42.086  37.668   6.518
 5128POPC   C3A65861  42.219  37.553   6.943
 5128POPC   C4A65862  42.649  37.476   7.083
 5128POPC   C1B65863  42.550  37.973   6.119
 5128POPC   C2B65864  42.666  38.186   6.521
 5128POPC   C3B65865  42.609  37.997   6.941
 5128POPC   C4B65866  42.263  37.974   7.239
 5129POPC   NC365867  40.904   8.287   5.333
 5129POPC   PO465868  41.044   7.802   5.734
 5129POPC   GL165869  40.983   8.215   5.853
 5129POPC   GL265870  40.700   8.440   5.783
 5129POPC   C1A65871  40.983   8.278   6.264
 5129POPC   D2A65872  40.933   8.085   6.632
 5129POPC   C3A65873  41.065   8.345   6.921
 5129POPC   C4A65874  41.072   8.020   7.209
 5129POPC   C1B65875  40.508   8.393   6.179
 5129POPC   C2B65876  40.463   8.272   6.593
 5129POPC   C3B65877  40.570   8.426   6.997
 5129POPC   C4B65878  40.457   8.354   7.416
 5130POPC   NC365879  24.279  41.295   5.417
 5130POPC   PO465880  24.444  40.650   5.535
 5130POPC   GL165881  24.442  40.929   5.879
 5130POPC   GL265882  24.727  41.051   5.794
 5130POPC   C1A65883  24.454  40.956   6.343
 5130POPC   D2A65884  24.362  40.619   6.657
 5130POPC   C3A65885  24.161  40.792   7.023
 5130POPC   C4A65886  24.294  41.020   7.346
 5130POPC   C1B65887  24.898  40.777   6.134
 5130POPC   C2B65888  24.927  40.849   6.559
 5130POPC   C3B65889  24.643  40.995   6.886
 5130POPC   C4B65890  24.842  40.928   7.275
 5131POPC   NC365891  41.082  31.889   5.484
 5131POPC   PO465892  40.694  32.430   5.245
 5131POPC   GL165893  40.689  32.460   5.730
 5131POPC   GL265894  40.375  32.527   5.912
 5131POPC   C1A65895  40.811  32.570   6.184
 5131POPC   D2A65896  40.696  32.452   6.619
 5131POPC   C3A65897  40.968  32.218   6.896
 5131POPC   C4A65898  40.992  32.259   7.356
 5131POPC   C1B65899  40.336  32.271   6.306
 5131POPC   C2B65900  40.441  32.020   6.711
 5131POPC   C3B65901  40.561  32.001   7.148
 5131POPC   C4B65902  40.587  31.998   7.608
 5132POPC   NC365903   8.583   2.702   5.425
 5132POPC   PO465904   8.045   3.041   5.379
 5132POPC   GL165905   8.119   2.788   5.777
 5132POPC   GL265906   8.470   2.821   5.895
 5132POPC   C1A65907   7.981   2.681   6.226
 5132POPC   D2A65908   7.952   2.889   6.664
 5132POPC   C3A65909   8.009   2.632   7.054
 5132POPC   C4A65910   8.294   2.544   7.404
 5132POPC   C1B65911   8.393   2.960   6.286
 5132POPC   C2B65912   8.390   2.658   6.598
 5132POPC   C3B65913   8.505   2.743   6.979
 5132POPC   C4B65914   8.636   2.931   7.322
 5133POPC   NC365915  37.311  17.606   5.540
 5133POPC   PO465916  36.615  17.469   5.451
 5133POPC   GL165917  36.841  17.600   5.782
 5133POPC   GL265918  37.019  17.298   5.812
 5133POPC   C1A65919  36.932  17.764   6.195
 5133POPC   D2A65920  36.860  17.928   6.595
 5133POPC   C3A65921  37.044  17.620   6.829
 5133POPC   C4A65922  37.044  17.509   7.233
 5133POPC   C1B65923  36.755  17.269   6.163
 5133POPC   C2B65924  36.596  17.483   6.513
 5133POPC   C3B65925  36.661  17.301   6.897
 5133POPC   C4B65926  36.826  17.063   7.228
 5134POPC   NC365927  20.756   5.219   5.439
 5134POPC   PO465928  20.663   4.634   5.212
 5134POPC   GL165929  20.575   4.795   5.674
 5134POPC   GL265930  20.346   5.083   5.825
 5134POPC   C1A65931  20.769   4.979   6.105
 5134POPC   D2A65932  20.763   5.264   6.452
 5134POPC   C3A65933  20.856   5.070   6.810
 5134POPC   C4A65934  20.714   4.977   7.198
 5134POPC   C1B65935  20.304   5.025   6.303
 5134POPC   C2B65936  20.330   4.997   6.786
 5134POPC   C3B65937  20.213   4.856   7.206
 5134POPC   C4B65938  20.365   4.711   7.603
 5135POPC   NC365939  42.419  14.289   5.374
 5135POPC   PO465940  42.149  14.931   5.574
 5135POPC   GL165941  42.176  14.543   5.748
 5135POPC   GL265942  42.518  14.490   5.841
 5135POPC   C1A65943  42.141  14.259   6.101
 5135POPC   D2A65944  42.313  14.287   6.485
 5135POPC   C3A65945  42.094  14.491   6.826
 5135POPC   C4A65946  42.014  14.421   7.236
 5135POPC   C1B65947  42.645  14.119   6.114
 5135POPC   C2B65948  42.658  13.912   6.531
 5135POPC   C3B65949  42.539  14.129   6.921
 5135POPC   C4B65950  42.516  14.355   7.276
 5136POPC   NC365951  23.533  41.530   5.234
 5136POPC   PO465952  24.112  41.760   5.507
 5136POPC   GL165953  23.756  41.695   5.790
 5136POPC   GL265954  23.439  41.507   5.763
 5136POPC   C1A65955  23.662  41.682   6.236
 5136POPC   D2A65956  23.887  41.688   6.631
 5136POPC   C3A65957  23.705  41.717   7.063
 5136POPC   C4A65958  23.590  41.527   7.499
 5136POPC   C1B65959  23.338  41.304   6.184
 5136POPC   C2B65960  23.467  41.384   6.631
 5136POPC   C3B65961  23.333  41.368   7.074
 5136POPC   C4B65962  23.085  41.461   7.472
 5137POPC   NC365963  30.845   2.844   5.343
 5137POPC   PO465964  30.167   2.956   5.481
 5137POPC   GL165965  30.428   2.718   5.834
 5137POPC   GL265966  30.830   2.607   5.807
 5137POPC   C1A65967  30.697   2.880   6.202
 5137POPC   D2A65968  31.041   2.767   6.486
 5137POPC   C3A65969  30.959   2.715   6.919
 5137POPC   C4A65970  30.741   2.886   7.251
 5137POPC   C1B65971  30.703   2.376   6.201
 5137POPC   C2B65972  30.552   2.508   6.599
 5137POPC   C3B65973  30.496   2.476   7.044
 5137POPC   C4B65974  30.673   2.350   7.463
 5138POPC   NC365975  22.030  33.964   5.368
 5138POPC   PO465976  22.594  33.906   5.556
 5138POPC   GL165977  22.238  33.905   5.880
 5138POPC   GL265978  21.865  34.055   5.833
 5138POPC   C1A65979  22.327  33.714   6.287
 5138POPC   D2A65980  22.161  33.631   6.682
 5138POPC   C3A65981  22.376  33.771   7.029
 5138POPC   C4A65982  22.185  33.967   7.365
 5138POPC   C1B65983  21.820  33.803   6.178
 5138POPC   C2B65984  21.855  34.017   6.529
 5138POPC   C3B65985  21.893  34.045   6.943
 5138POPC   C4B65986  21.796  33.665   7.157
 5139POPC   NC365987  43.453  19.037   5.300
 5139POPC   PO465988  42.798  18.814   5.405
 5139POPC   GL165989  43.081  19.130   5.667
 5139POPC   GL265990  43.172  18.833   5.777
 5139POPC   C1A65991  43.253  19.290   6.100
 5139POPC   D2A65992  43.471  19.221   6.533
 5139POPC   C3A65993  43.197  19.230   6.901
 5139POPC   C4A65994  43.223  19.338   7.288
 5139POPC   C1B65995  42.903  18.865   6.115
 5139POPC   C2B65996  43.047  18.925   6.509
 5139POPC   C3B65997  43.290  18.739   6.834
 5139POPC   C4B65998  43.148  18.819   7.240
 5140POPC   NC365999  37.407  29.659   5.395
 5140POPC   PO466000  38.045  29.972   5.507
 5140POPC   GL166001  37.656  29.935   5.761
 5140POPC   GL266002  37.485  30.246   5.877
 5140POPC   C1A66003  37.470  29.752   6.110
 5140POPC   D2A66004  37.299  29.620   6.516
 5140POPC   C3A66005  37.422  29.806   6.908
 5140POPC   C4A66006  37.709  29.642   7.229
 5140POPC   C1B66007  37.637  30.216   6.305
 5140POPC   C2B66008  37.644  30.331   6.754
 5140POPC   C3B66009  37.430  30.273   7.142
 5140POPC   C4B66010  37.406  30.317   7.619
 5141POPC   NC366011  20.456   0.645   5.376
 5141POPC   PO466012  20.814   0.046   5.453
 5141POPC   GL166013  20.627   0.313   5.809
 5141POPC   GL266014  20.655   0.687   5.827
 5141POPC   C1A66015  20.424   0.149   6.212
 5141POPC   D2A66016  20.413  44.981   6.654
 5141POPC   C3A66017  20.728   0.164   6.939
 5141POPC   C4A66018  20.903   0.124   7.337
 5141POPC   C1B66019  20.570   0.678   6.225
 5141POPC   C2B66020  20.554   0.530   6.602
 5141POPC   C3B66021  20.470   0.631   7.003
 5141POPC   C4B66022  20.753   0.620   7.315
 5142POPC   NC366023  35.070  44.517   5.074
 5142POPC   PO466024  35.484  44.006   5.365
 5142POPC   GL166025  35.538  44.004   5.820
 5142POPC   GL266026  35.709  44.312   5.889
 5142POPC   C1A66027  35.302  43.837   6.202
 5142POPC   D2A66028  35.072  43.700   6.576
 5142POPC   C3A66029  35.199  43.841   6.985
 5142POPC   C4A66030  35.390  43.596   7.289
 5142POPC   C1B66031  35.660  44.225   6.307
 5142POPC   C2B66032  35.814  44.190   6.721
 5142POPC   C3B66033  35.628  44.101   7.118
 5142POPC   C4B66034  35.649  44.080   7.569
 5143POPC   NC366035  44.780  44.323   5.452
 5143POPC   PO466036  44.506  44.896   5.325
 5143POPC   GL166037  44.354  44.671   5.690
 5143POPC   GL266038  44.665  44.627   5.879
 5143POPC   C1A66039  44.254  44.657   6.163
 5143POPC   D2A66040  44.536  44.548   6.517
 5143POPC   C3A66041  44.353  44.692   6.879
 5143POPC   C4A66042  44.494  44.923   7.218
 5143POPC   C1B66043  44.861  44.344   6.166
 5143POPC   C2B66044   0.027  44.285   6.585
 5143POPC   C3B66045  44.790  44.411   6.979
 5143POPC   C4B66046  44.464  44.390   7.292
 5144POPC   NC366047  27.928  28.552   5.471
 5144POPC   PO466048  28.561  28.809   5.427
 5144POPC   GL166049  28.392  28.514   5.700
 5144POPC   GL266050  28.593  28.245   5.604
 5144POPC   C1A66051  28.194  28.582   6.128
 5144POPC   D2A66052  28.292  28.859   6.517
 5144POPC   C3A66053  28.383  28.743   6.994
 5144POPC   C4A66054  28.513  28.493   7.386
 5144POPC   C1B66055  28.369  28.091   5.989
 5144POPC   C2B66056  28.320  28.147   6.447
 5144POPC   C3B66057  28.396  28.224   6.902
 5144POPC   C4B66058  28.164  28.149   7.279
 5145POPC   NC366059  44.211   1.864   5.279
 5145POPC   PO466060  44.822   2.087   5.430
 5145POPC   GL166061  44.506   1.874   5.700
 5145POPC   GL266062  44.471   1.510   5.617
 5145POPC   C1A66063  44.433   1.987   6.137
 5145POPC   D2A66064  44.766   2.027   6.461
 5145POPC   C3A66065  44.589   2.009   6.857
 5145POPC   C4A66066  44.390   1.938   7.225
 5145POPC   C1B66067  44.619   1.513   6.067
 5145POPC   C2B66068  44.435   1.585   6.496
 5145POPC   C3B66069  44.309   1.523   6.923
 5145POPC   C4B66070  44.707   1.535   7.136
 5146POPC   NC366071  32.262  20.332   5.352
 5146POPC   PO466072  31.916  20.977   5.615
 5146POPC   GL166073  32.249  20.680   5.745
 5146POPC   GL266074  32.181  20.296   5.840
 5146POPC   C1A66075  32.308  20.634   6.201
 5146POPC   D2A66076  32.074  20.819   6.554
 5146POPC   C3A66077  32.190  20.731   6.969
 5146POPC   C4A66078  31.903  20.421   7.110
 5146POPC   C1B66079  32.147  20.121   6.252
 5146POPC   C2B66080  32.256  20.323   6.634
 5146POPC   C3B66081  32.380  20.235   7.044
 5146POPC   C4B66082  32.343  20.511   7.412
 5147POPC   NC366083  43.809  13.202   5.635
 5147POPC   PO466084  43.724  13.821   5.319
 5147POPC   GL166085  43.900  13.706   5.734
 5147POPC   GL266086  43.623  13.832   5.912
 5147POPC   C1A66087  44.087  13.878   6.141
 5147POPC   D2A66088  43.917  13.830   6.546
 5147POPC   C3A66089  44.187  13.810   6.885
 5147POPC   C4A66090  43.999  13.601   7.231
 5147POPC   C1B66091  43.748  13.488   6.196
 5147POPC   C2B66092  43.544  13.295   6.509
 5147POPC   C3B66093  43.679  13.304   6.913
 5147POPC   C4B66094  43.493  13.406   7.322
 5148POPC   NC366095  42.300   8.870   5.368
 5148POPC   PO466096  42.913   8.909   5.519
 5148POPC   GL166097  42.582   8.885   5.826
 5148POPC   GL266098  42.490   9.224   5.834
 5148POPC   C1A66099  42.333   8.911   6.233
 5148POPC   D2A66100  42.275   8.629   6.571
 5148POPC   C3A66101  42.399   8.640   6.981
 5148POPC   C4A66102  42.186   8.910   7.201
 5148POPC   C1B66103  42.572   9.368   6.278
 5148POPC   C2B66104  42.392   9.350   6.730
 5148POPC   C3B66105  42.333   9.395   7.200
 5148POPC   C4B66106  42.492   9.111   7.571
 5149POPC   NC366107   8.336  11.413   5.199
 5149POPC   PO466108   8.365  10.820   5.192
 5149POPC   GL166109   8.272  11.059   5.643
 5149POPC   GL266110   8.079  11.403   5.695
 5149POPC   C1A66111   8.335  11.206   6.117
 5149POPC   D2A66112   8.231  11.513   6.488
 5149POPC   C3A66113   8.369  11.356   6.882
 5149POPC   C4A66114   8.609  11.202   7.245
 5149POPC   C1B66115   7.862  11.449   6.137
 5149POPC   C2B66116   7.766  11.257   6.552
 5149POPC   C3B66117   7.916  11.085   6.947
 5149POPC   C4B66118   8.041  11.409   7.263
 5150POPC   NC366119  31.405  29.776   5.322
 5150POPC   PO466120  31.967  30.173   5.266
 5150POPC   GL166121  31.614  30.105   5.624
 5150POPC   GL266122  31.564  29.759   5.805
 5150POPC   C1A66123  31.402  30.165   6.056
 5150POPC   D2A66124  31.330  30.202   6.524
 5150POPC   C3A66125  31.452  29.968   6.916
 5150POPC   C4A66126  31.783  29.735   7.119
 5150POPC   C1B66127  31.568  29.712   6.274
 5150POPC   C2B66128  31.430  29.518   6.660
 5150POPC   C3B66129  31.393  29.390   7.053
 5150POPC   C4B66130  31.667  29.271   7.385
 5151POPC   NC366131   4.172  24.536   5.089
 5151POPC   PO466132   3.469  24.585   5.274
 5151POPC   GL166133   3.406  24.575   5.747
 5151POPC   GL266134   3.709  24.664   5.938
 5151POPC   C1A66135   3.433  24.258   6.113
 5151POPC   D2A66136   3.566  24.072   6.510
 5151POPC   C3A66137   3.436  24.250   6.891
 5151POPC   C4A66138   3.815  24.229   7.111
 5151POPC   C1B66139   3.367  24.783   6.256
 5151POPC   C2B66140   3.349  24.887   6.709
 5151POPC   C3B66141   3.628  24.730   7.038
 5151POPC   C4B66142   3.903  24.644   7.374
 5152POPC   NC366143  36.458  35.112   5.396
 5152POPC   PO466144  37.120  35.484   5.379
 5152POPC   GL166145  36.821  35.363   5.700
 5152POPC   GL266146  36.758  35.709   5.796
 5152POPC   C1A66147  36.874  35.078   6.083
 5152POPC   D2A66148  36.728  34.974   6.508
 5152POPC   C3A66149  36.879  35.207   6.816
 5152POPC   C4A66150  36.821  35.238   7.213
 5152POPC   C1B66151  36.626  35.533   6.165
 5152POPC   C2B66152  36.533  35.471   6.568
 5152POPC   C3B66153  36.555  35.617   7.001
 5152POPC   C4B66154  36.585  35.597   7.489
 5153POPC   NC366155  33.980   7.089   5.454
 5153POPC   PO466156  33.553   7.735   5.429
 5153POPC   GL166157  33.685   7.433   5.715
 5153POPC   GL266158  33.753   7.710   5.915
 5153POPC   C1A66159  33.864   7.277   6.128
 5153POPC   D2A66160  33.784   7.570   6.485
 5153POPC   C3A66161  33.862   7.444   6.888
 5153POPC   C4A66162  33.711   7.244   7.261
 5153POPC   C1B66163  34.077   7.830   6.166
 5153POPC   C2B66164  34.063   8.045   6.577
 5153POPC   C3B66165  34.166   7.873   6.971
 5153POPC   C4B66166  34.056   7.633   7.313
 5154POPC   NC366167  33.644  36.646   5.455
 5154POPC   PO466168  33.928  35.976   5.366
 5154POPC   GL166169  33.925  36.207   5.770
 5154POPC   GL266170  33.609  36.368   5.872
 5154POPC   C1A66171  34.073  36.326   6.187
 5154POPC   D2A66172  33.939  36.160   6.571
 5154POPC   C3A66173  34.050  36.301   6.977
 5154POPC   C4A66174  34.142  35.965   7.159
 5154POPC   C1B66175  33.499  36.108   6.212
 5154POPC   C2B66176  33.437  36.178   6.655
 5154POPC   C3B66177  33.651  35.975   6.997
 5154POPC   C4B66178  33.741  36.099   7.441
 5155POPC   NC366179  28.021  19.072   5.453
 5155POPC   PO466180  28.726  19.028   5.574
 5155POPC   GL166181  28.379  18.972   5.828
 5155POPC   GL266182  28.338  19.316   5.844
 5155POPC   C1A66183  28.151  18.885   6.237
 5155POPC   D2A66184  28.195  18.741   6.694
 5155POPC   C3A66185  28.111  19.050   7.044
 5155POPC   C4A66186  27.795  19.381   7.154
 5155POPC   C1B66187  28.546  19.236   6.228
 5155POPC   C2B66188  28.361  19.262   6.619
 5155POPC   C3B66189  28.592  19.228   6.973
 5155POPC   C4B66190  28.503  19.037   7.384
 5156POPC   NC366191  39.851  17.814   5.210
 5156POPC   PO466192  40.030  17.146   5.147
 5156POPC   GL166193  40.052  17.464   5.622
 5156POPC   GL266194  40.308  17.381   5.860
 5156POPC   C1A66195  39.737  17.434   6.073
 5156POPC   D2A66196  39.675  17.593   6.534
 5156POPC   C3A66197  39.812  17.357   6.923
 5156POPC   C4A66198  39.787  17.226   7.370
 5156POPC   C1B66199  40.395  17.488   6.268
 5156POPC   C2B66200  40.185  17.602   6.638
 5156POPC   C3B66201  40.355  17.856   6.973
 5156POPC   C4B66202  40.446  17.554   7.258
 5157POPC   NC366203  19.338  16.043   5.148
 5157POPC   PO466204  18.876  15.576   5.367
 5157POPC   GL166205  19.042  15.934   5.671
 5157POPC   GL266206  19.330  15.867   5.915
 5157POPC   C1A66207  18.919  16.060   6.100
 5157POPC   D2A66208  18.775  16.129   6.517
 5157POPC   C3A66209  18.849  15.919   6.875
 5157POPC   C4A66210  18.959  16.109   7.247
 5157POPC   C1B66211  19.430  16.096   6.254
 5157POPC   C2B66212  19.290  16.009   6.635
 5157POPC   C3B66213  19.423  16.122   7.037
 5157POPC   C4B66214  19.410  15.891   7.432
 5158POPC   NC366215  23.952  14.520   5.574
 5158POPC   PO466216  23.699  15.176   5.338
 5158POPC   GL166217  23.702  15.191   5.763
 5158POPC   GL266218  24.015  15.037   5.763
 5158POPC   C1A66219  23.750  15.176   6.199
 5158POPC   D2A66220  23.995  15.219   6.556
 5158POPC   C3A66221  23.724  15.196   6.923
 5158POPC   C4A66222  23.741  15.355   7.342
 5158POPC   C1B66223  24.105  14.810   6.137
 5158POPC   C2B66224  23.924  14.724   6.512
 5158POPC   C3B66225  24.109  14.842   6.892
 5158POPC   C4B66226  23.996  14.933   7.276
 5159POPC   NC366227  23.373  20.779   5.059
 5159POPC   PO466228  23.882  20.460   5.152
 5159POPC   GL166229  23.955  20.641   5.629
 5159POPC   GL266230  24.218  20.479   5.829
 5159POPC   C1A66231  23.774  20.586   6.067
 5159POPC   D2A66232  23.688  20.708   6.499
 5159POPC   C3A66233  23.521  20.478   6.848
 5159POPC   C4A66234  23.444  20.610   7.261
 5159POPC   C1B66235  24.210  20.388   6.291
 5159POPC   C2B66236  24.004  20.356   6.695
 5159POPC   C3B66237  23.979  20.534   7.136
 5159POPC   C4B66238  23.988  20.352   7.578
 5160POPC   NC366239  31.205  31.348   5.262
 5160POPC   PO466240  31.607  31.877   5.372
 5160POPC   GL166241  31.652  31.724   5.793
 5160POPC   GL266242  31.592  31.372   5.720
 5160POPC   C1A66243  31.634  31.625   6.239
 5160POPC   D2A66244  31.385  31.800   6.591
 5160POPC   C3A66245  31.522  31.758   6.970
 5160POPC   C4A66246  31.392  31.424   7.241
 5160POPC   C1B66247  31.911  31.177   6.005
 5160POPC   C2B66248  31.930  31.194   6.484
 5160POPC   C3B66249  31.856  31.363   6.935
 5160POPC   C4B66250  31.849  31.176   7.333
 5161POPC   NC366251   9.935  15.063   5.303
 5161POPC   PO466252   9.329  15.018   5.501
 5161POPC   GL166253   9.672  15.011   5.779
 5161POPC   GL266254   9.845  15.344   5.775
 5161POPC   C1A66255   9.628  14.953   6.220
 5161POPC   D2A66256   9.548  15.241   6.550
 5161POPC   C3A66257   9.771  15.102   6.905
 5161POPC   C4A66258   9.691  15.194   7.319
 5161POPC   C1B66259  10.002  15.344   6.220
 5161POPC   C2B66260  10.219  15.317   6.625
 5161POPC   C3B66261  10.205  15.327   7.072
 5161POPC   C4B66262  10.118  14.955   7.318
 5162POPC   NC366263  35.600  20.112   5.564
 5162POPC   PO466264  35.994  19.722   5.170
 5162POPC   GL166265  36.109  19.645   5.646
 5162POPC   GL266266  36.458  19.522   5.766
 5162POPC   C1A66267  36.073  19.881   6.054
 5162POPC   D2A66268  36.326  20.065   6.411
 5162POPC   C3A66269  36.117  20.062   6.834
 5162POPC   C4A66270  36.270  19.882   7.213
 5162POPC   C1B66271  36.367  19.504   6.243
 5162POPC   C2B66272  36.315  19.606   6.679
 5162POPC   C3B66273  36.386  19.405   7.094
 5162POPC   C4B66274  36.430  19.437   7.561
 5163POPC   NC366275  28.015  11.359   5.582
 5163POPC   PO466276  28.328  10.776   5.538
 5163POPC   GL166277  28.430  11.066   5.865
 5163POPC   GL266278  28.488  11.439   5.835
 5163POPC   C1A66279  28.213  11.067   6.247
 5163POPC   D2A66280  27.956  11.206   6.610
 5163POPC   C3A66281  28.115  11.058   6.997
 5163POPC   C4A66282  28.154  11.288   7.347
 5163POPC   C1B66283  28.629  11.345   6.261
 5163POPC   C2B66284  28.459  11.301   6.672
 5163POPC   C3B66285  28.554  11.475   7.087
 5163POPC   C4B66286  28.705  11.255   7.470
 5164POPC   NC366287  37.989  19.142   5.540
 5164POPC   PO466288  37.333  18.932   5.526
 5164POPC   GL166289  37.523  19.063   5.872
 5164POPC   GL266290  37.787  18.808   5.897
 5164POPC   C1A66291  37.361  19.261   6.255
 5164POPC   D2A66292  37.502  19.439   6.656
 5164POPC   C3A66293  37.574  19.104   6.970
 5164POPC   C4A66294  37.539  18.810   7.369
 5164POPC   C1B66295  37.841  19.045   6.293
 5164POPC   C2B66296  38.033  18.972   6.702
 5164POPC   C3B66297  38.028  18.947   7.155
 5164POPC   C4B66298  38.125  18.975   7.611
 5165POPC   NC366299  22.251  13.367   5.584
 5165POPC   PO466300  21.879  13.943   5.530
 5165POPC   GL166301  22.080  13.740   5.889
 5165POPC   GL266302  22.467  13.724   5.893
 5165POPC   C1A66303  22.171  13.532   6.292
 5165POPC   D2A66304  22.251  13.707   6.702
 5165POPC   C3A66305  21.967  13.642   7.050
 5165POPC   C4A66306  21.632  13.928   7.167
 5165POPC   C1B66307  22.610  13.843   6.312
 5165POPC   C2B66308  22.783  13.619   6.667
 5165POPC   C3B66309  22.548  13.470   7.029
 5165POPC   C4B66310  22.383  13.725   7.355
 5166POPC   NC366311   4.273  14.567   5.524
 5166POPC   PO466312   4.502  14.006   5.587
 5166POPC   GL166313   4.433  14.223   5.899
 5166POPC   GL266314   4.093  14.223   5.863
 5166POPC   C1A66315   4.561  14.354   6.287
 5166POPC   D2A66316   4.399  14.554   6.638
 5166POPC   C3A66317   4.575  14.465   7.004
 5166POPC   C4A66318   4.433  14.400   7.408
 5166POPC   C1B66319   4.088  14.576   6.208
 5166POPC   C2B66320   3.936  14.744   6.646
 5166POPC   C3B66321   4.058  14.540   7.081
 5166POPC   C4B66322   3.977  14.571   7.579
 5167POPC   NC366323  37.414  35.108   5.394
 5167POPC   PO466324  37.947  35.578   5.465
 5167POPC   GL166325  37.787  35.328   5.809
 5167POPC   GL266326  37.790  34.962   5.805
 5167POPC   C1A66327  37.873  35.290   6.260
 5167POPC   D2A66328  37.746  35.396   6.697
 5167POPC   C3A66329  37.976  35.241   7.044
 5167POPC   C4A66330  38.004  35.324   7.472
 5167POPC   C1B66331  37.442  35.006   6.139
 5167POPC   C2B66332  37.297  34.954   6.604
 5167POPC   C3B66333  37.335  35.184   7.023
 5167POPC   C4B66334  37.546  35.510   7.189
 5168POPC   NC366335  27.652  39.404   5.456
 5168POPC   PO466336  27.222  38.818   5.368
 5168POPC   GL166337  27.505  38.970   5.725
 5168POPC   GL266338  27.348  39.318   5.852
 5168POPC   C1A66339  27.639  39.057   6.176
 5168POPC   D2A66340  27.502  39.300   6.546
 5168POPC   C3A66341  27.566  39.080   6.915
 5168POPC   C4A66342  27.343  39.116   7.304
 5168POPC   C1B66343  27.387  39.653   6.179
 5168POPC   C2B66344  27.272  39.792   6.559
 5168POPC   C3B66345  27.327  39.643   6.936
 5168POPC   C4B66346  27.680  39.510   7.157
 5169POPC   NC366347  23.959  42.223   5.608
 5169POPC   PO466348  23.455  41.983   5.265
 5169POPC   GL166349  23.481  42.139   5.730
 5169POPC   GL266350  23.580  42.508   5.797
 5169POPC   C1A66351  23.701  42.188   6.187
 5169POPC   D2A66352  23.545  42.107   6.601
 5169POPC   C3A66353  23.685  42.259   6.999
 5169POPC   C4A66354  24.007  42.240   7.282
 5169POPC   C1B66355  23.619  42.700   6.223
 5169POPC   C2B66356  23.624  42.664   6.687
 5169POPC   C3B66357  23.484  42.727   7.119
 5169POPC   C4B66358  23.615  42.502   7.507
 5170POPC   NC366359  26.771   3.924   5.479
 5170POPC   PO466360  27.088   3.244   5.357
 5170POPC   GL166361  26.856   3.448   5.693
 5170POPC   GL266362  27.156   3.632   5.734
 5170POPC   C1A66363  26.584   3.513   6.097
 5170POPC   D2A66364  26.468   3.482   6.565
 5170POPC   C3A66365  26.797   3.248   6.859
 5170POPC   C4A66366  27.041   3.345   7.236
 5170POPC   C1B66367  27.084   3.813   6.137
 5170POPC   C2B66368  26.788   3.868   6.448
 5170POPC   C3B66369  26.855   3.754   6.848
 5170POPC   C4B66370  26.806   3.857   7.261
 5171POPC   NC366371  26.502  37.800   5.457
 5171POPC   PO466372  26.065  37.307   5.540
 5171POPC   GL166373  26.295  37.498   5.879
 5171POPC   GL266374  26.203  37.869   5.890
 5171POPC   C1A66375  26.310  37.435   6.338
 5171POPC   D2A66376  26.337  37.724   6.671
 5171POPC   C3A66377  26.070  37.599   6.989
 5171POPC   C4A66378  26.077  37.424   7.333
 5171POPC   C1B66379  25.930  37.774   6.270
 5171POPC   C2B66380  25.802  37.919   6.690
 5171POPC   C3B66381  25.999  38.082   7.078
 5171POPC   C4B66382  26.057  37.923   7.470
 5172POPC   NC366383  21.542  18.270   5.230
 5172POPC   PO466384  20.889  18.181   5.109
 5172POPC   GL166385  21.190  18.186   5.573
 5172POPC   GL266386  21.093  18.452   5.840
 5172POPC   C1A66387  21.304  18.044   6.054
 5172POPC   D2A66388  21.414  18.007   6.530
 5172POPC   C3A66389  21.272  18.152   6.991
 5172POPC   C4A66390  21.299  18.100   7.485
 5172POPC   C1B66391  21.383  18.547   6.204
 5172POPC   C2B66392  21.532  18.501   6.629
 5172POPC   C3B66393  21.550  18.684   7.049
 5172POPC   C4B66394  21.661  18.443   7.423
 5173POPC   NC366395  37.256  11.973   5.472
 5173POPC   PO466396  36.590  12.233   5.417
 5173POPC   GL166397  36.845  12.212   5.782
 5173POPC   GL266398  36.916  11.858   5.841
 5173POPC   C1A66399  36.767  12.185   6.225
 5173POPC   D2A66400  37.007  12.141   6.601
 5173POPC   C3A66401  36.776  12.163   7.005
 5173POPC   C4A66402  36.715  11.991   7.425
 5173POPC   C1B66403  37.232  11.878   6.176
 5173POPC   C2B66404  37.303  11.618   6.531
 5173POPC   C3B66405  37.008  11.681   6.856
 5173POPC   C4B66406  37.115  11.772   7.243
 5174POPC   NC366407  16.057  40.288   5.534
 5174POPC   PO466408  15.585  39.754   5.283
 5174POPC   GL166409  15.770  39.903   5.704
 5174POPC   GL266410  16.128  39.829   5.819
 5174POPC   C1A66411  15.785  40.102   6.154
 5174POPC   D2A66412  15.850  39.804   6.535
 5174POPC   C3A66413  15.891  39.983   6.967
 5174POPC   C4A66414  15.559  40.256   7.175
 5174POPC   C1B66415  16.290  40.110   6.163
 5174POPC   C2B66416  16.094  40.261   6.562
 5174POPC   C3B66417  16.091  40.469   6.950
 5174POPC   C4B66418  16.056  40.312   7.337
 5175POPC   NC366419   3.407  24.131   5.456
 5175POPC   PO466420   3.666  23.473   5.459
 5175POPC   GL166421   3.737  23.757   5.789
 5175POPC   GL266422   3.908  24.077   5.684
 5175POPC   C1A66423   3.606  23.666   6.204
 5175POPC   D2A66424   3.265  23.654   6.533
 5175POPC   C3A66425   3.392  23.743   6.973
 5175POPC   C4A66426   3.466  23.972   7.366
 5175POPC   C1B66427   4.013  24.026   6.144
 5175POPC   C2B66428   4.040  23.723   6.503
 5175POPC   C3B66429   3.942  23.727   6.954
 5175POPC   C4B66430   3.759  23.452   7.238
 5176POPC   NC366431  35.093  23.152   5.451
 5176POPC   PO466432  34.493  23.071   5.318
 5176POPC   GL166433  34.581  23.116   5.710
 5176POPC   GL266434  34.377  22.823   5.800
 5176POPC   C1A66435  34.770  23.300   6.088
 5176POPC   D2A66436  34.968  23.164   6.485
 5176POPC   C3A66437  34.810  23.244   6.870
 5176POPC   C4A66438  34.928  23.437   7.251
 5176POPC   C1B66439  34.744  22.793   6.072
 5176POPC   C2B66440  34.652  22.785   6.507
 5176POPC   C3B66441  34.557  22.788   6.939
 5176POPC   C4B66442  34.528  23.105   7.281
 5177POPC   NC366443  39.761   1.676   5.447
 5177POPC   PO466444  40.487   1.747   5.441
 5177POPC   GL166445  40.215   1.928   5.795
 5177POPC   GL266446  39.821   1.954   5.860
 5177POPC   C1A66447  40.166   2.081   6.214
 5177POPC   D2A66448  40.404   2.289   6.548
 5177POPC   C3A66449  40.480   2.039   6.899
 5177POPC   C4A66450  40.287   1.906   7.299
 5177POPC   C1B66451  39.664   2.002   6.266
 5177POPC   C2B66452  39.809   2.104   6.686
 5177POPC   C3B66453  39.842   2.135   7.133
 5177POPC   C4B66454  39.765   1.835   7.467
 5178POPC   NC366455  12.183  37.934   5.108
 5178POPC   PO466456  11.848  37.568   5.598
 5178POPC   GL166457  12.195  37.513   5.851
 5178POPC   GL266458  12.075  37.806   5.999
 5178POPC   C1A66459  12.259  37.267   6.241
 5178POPC   D2A66460  12.077  37.295   6.665
 5178POPC   C3A66461  12.224  37.530   7.024
 5178POPC   C4A66462  11.872  37.759   7.204
 5178POPC   C1B66463  12.413  37.849   6.257
 5178POPC   C2B66464  12.281  37.922   6.667
 5178POPC   C3B66465  12.129  38.140   7.025
 5178POPC   C4B66466  12.125  38.083   7.513
 5179POPC   NC366467  19.535  33.572   5.063
 5179POPC   PO466468  19.983  33.744   5.580
 5179POPC   GL166469  19.843  34.001   5.905
 5179POPC   GL266470  19.515  34.098   5.783
 5179POPC   C1A66471  19.956  34.030   6.352
 5179POPC   D2A66472  20.026  34.253   6.718
 5179POPC   C3A66473  19.844  33.997   7.016
 5179POPC   C4A66474  20.218  33.934   7.242
 5179POPC   C1B66475  19.439  33.961   6.222
 5179POPC   C2B66476  19.561  33.737   6.578
 5179POPC   C3B66477  19.455  33.642   6.980
 5179POPC   C4B66478  19.497  33.839   7.390
 5180POPC   NC366479  38.357  43.489   5.515
 5180POPC   PO466480  38.435  42.761   5.477
 5180POPC   GL166481  38.264  42.813   5.863
 5180POPC   GL266482  38.161  43.171   5.874
 5180POPC   C1A66483  38.369  42.880   6.260
 5180POPC   D2A66484  38.329  43.094   6.605
 5180POPC   C3A66485  38.360  42.845   6.926
 5180POPC   C4A66486  38.141  43.083   7.234
 5180POPC   C1B66487  38.373  43.419   6.222
 5180POPC   C2B66488  38.639  43.492   6.638
 5180POPC   C3B66489  38.655  43.263   7.050
 5180POPC   C4B66490  38.763  43.336   7.502
 5181POPC   NC366491   9.546  24.120   4.994
 5181POPC   PO466492   9.472  24.670   5.407
 5181POPC   GL166493   9.694  24.439   5.693
 5181POPC   GL266494   9.744  24.756   5.840
 5181POPC   C1A66495   9.551  24.283   6.098
 5181POPC   D2A66496   9.690  24.153   6.512
 5181POPC   C3A66497   9.769  24.402   6.872
 5181POPC   C4A66498   9.967  24.353   7.269
 5181POPC   C1B66499   9.879  24.651   6.242
 5181POPC   C2B66500   9.954  24.871   6.627
 5181POPC   C3B66501   9.954  24.835   7.083
 5181POPC   C4B66502   9.828  24.876   7.485
 5182POPC   NC366503  32.567  13.449   5.505
 5182POPC   PO466504  33.032  13.984   5.289
 5182POPC   GL166505  32.946  13.760   5.697
 5182POPC   GL266506  33.265  13.647   5.913
 5182POPC   C1A66507  32.846  13.807   6.151
 5182POPC   D2A66508  33.099  13.697   6.512
 5182POPC   C3A66509  32.963  13.537   6.920
 5182POPC   C4A66510  33.083  13.642   7.328
 5182POPC   C1B66511  33.406  13.339   6.282
 5182POPC   C2B66512  33.439  13.384   6.756
 5182POPC   C3B66513  33.270  13.186   7.146
 5182POPC   C4B66514  33.317  13.251   7.598
 5183POPC   NC366515  32.817  10.891   5.502
 5183POPC   PO466516  33.274  11.365   5.291
 5183POPC   GL166517  33.242  11.550   5.737
 5183POPC   GL266518  32.885  11.427   5.821
 5183POPC   C1A66519  33.312  11.484   6.198
 5183POPC   D2A66520  33.314  11.159   6.532
 5183POPC   C3A66521  33.292  11.305   6.960
 5183POPC   C4A66522  33.195  11.280   7.393
 5183POPC   C1B66523  32.813  11.222   6.255
 5183POPC   C2B66524  32.803  11.136   6.720
 5183POPC   C3B66525  32.581  11.292   7.089
 5183POPC   C4B66526  32.734  11.519   7.460
 5184POPC   NC366527  20.345  42.870   5.429
 5184POPC   PO466528  20.133  43.493   5.604
 5184POPC   GL166529  20.496  43.299   5.815
 5184POPC   GL266530  20.704  42.982   5.796
 5184POPC   C1A66531  20.533  43.198   6.245
 5184POPC   D2A66532  20.236  43.264   6.515
 5184POPC   C3A66533  20.405  43.464   6.861
 5184POPC   C4A66534  20.578  43.250   7.223
 5184POPC   C1B66535  20.972  42.975   6.162
 5184POPC   C2B66536  21.007  43.141   6.559
 5184POPC   C3B66537  20.658  43.019   6.775
 5184POPC   C4B66538  20.685  42.761   7.123
 5185POPC   NC366539  24.569  27.176   5.496
 5185POPC   PO466540  24.776  26.613   5.346
 5185POPC   GL166541  24.626  26.733   5.781
 5185POPC   GL266542  24.338  26.950   5.876
 5185POPC   C1A66543  24.700  26.617   6.219
 5185POPC   D2A66544  24.521  26.577   6.638
 5185POPC   C3A66545  24.765  26.787   6.992
 5185POPC   C4A66546  24.512  26.560   7.266
 5185POPC   C1B66547  24.347  26.976   6.305
 5185POPC   C2B66548  24.525  27.096   6.660
 5185POPC   C3B66549  24.284  26.947   6.933
 5185POPC   C4B66550  24.186  26.975   7.275
 5186POPC   NC366551  36.878  38.203   5.282
 5186POPC   PO466552  37.220  37.733   5.490
 5186POPC   GL166553  37.174  37.815   5.887
 5186POPC   GL266554  37.319  38.156   5.839
 5186POPC   C1A66555  36.857  37.687   6.199
 5186POPC   D2A66556  36.726  37.502   6.573
 5186POPC   C3A66557  36.998  37.633   6.858
 5186POPC   C4A66558  36.991  37.656   7.250
 5186POPC   C1B66559  37.076  38.163   6.236
 5186POPC   C2B66560  36.819  38.091   6.607
 5186POPC   C3B66561  37.090  38.142   6.947
 5186POPC   C4B66562  37.168  38.135   7.378
 5187POPC   NC366563   0.375   5.550   5.121
 5187POPC   PO466564   0.363   6.126   5.488
 5187POPC   GL166565   0.552   5.980   5.858
 5187POPC   GL266566   0.436   5.700   5.814
 5187POPC   C1A66567   0.707   5.773   6.244
 5187POPC   D2A66568   0.503   5.741   6.632
 5187POPC   C3A66569   0.712   5.850   7.044
 5187POPC   C4A66570   0.669   5.874   7.514
 5187POPC   C1B66571   0.159   5.744   6.209
 5187POPC   C2B66572  44.986   5.788   6.638
 5187POPC   C3B66573   0.181   5.782   7.053
 5187POPC   C4B66574   0.034   5.522   7.429
 5188POPC   NC366575  25.044  13.709   5.350
 5188POPC   PO466576  25.721  13.609   5.385
 5188POPC   GL166577  25.396  13.500   5.671
 5188POPC   GL266578  25.258  13.839   5.821
 5188POPC   C1A66579  25.463  13.426   6.120
 5188POPC   D2A66580  25.392  13.638   6.532
 5188POPC   C3A66581  25.350  13.477   6.946
 5188POPC   C4A66582  25.197  13.455   7.413
 5188POPC   C1B66583  24.992  13.772   6.206
 5188POPC   C2B66584  24.924  13.800   6.662
 5188POPC   C3B66585  25.002  13.835   7.108
 5188POPC   C4B66586  24.947  13.864   7.582
 5189POPC   NC366587  29.633   9.970   5.437
 5189POPC   PO466588  30.228   9.963   5.680
 5189POPC   GL166589  29.914   9.690   5.856
 5189POPC   GL266590  29.608   9.545   5.710
 5189POPC   C1A66591  29.992   9.597   6.278
 5189POPC   D2A66592  29.919   9.861   6.624
 5189POPC   C3A66593  30.025   9.747   7.033
 5189POPC   C4A66594  29.987   9.733   7.515
 5189POPC   C1B66595  29.543   9.381   6.094
 5189POPC   C2B66596  29.534   9.538   6.497
 5189POPC   C3B66597  29.544   9.559   6.913
 5189POPC   C4B66598  29.798   9.347   7.221
 5190POPC   NC366599   6.858  27.987   5.188
 5190POPC   PO466600   6.290  27.597   5.408
 5190POPC   GL166601   6.506  27.499   5.780
 5190POPC   GL266602   6.318  27.746   5.980
 5190POPC   C1A66603   6.627  27.367   6.191
 5190POPC   D2A66604   6.583  27.130   6.552
 5190POPC   C3A66605   6.647  27.365   6.936
 5190POPC   C4A66606   6.929  27.491   7.254
 5190POPC   C1B66607   6.703  27.876   6.190
 5190POPC   C2B66608   6.831  27.728   6.572
 5190POPC   C3B66609   6.739  27.890   6.984
 5190POPC   C4B66610   6.422  27.825   7.286
 5191POPC   NC366611  41.098  19.954   5.511
 5191POPC   PO466612  40.610  19.524   5.560
 5191POPC   GL166613  40.539  19.670   5.928
 5191POPC   GL266614  40.894  19.716   5.971
 5191POPC   C1A66615  40.500  19.444   6.318
 5191POPC   D2A66616  40.506  19.403   6.753
 5191POPC   C3A66617  40.763  19.752   6.899
 5191POPC   C4A66618  40.659  19.893   7.298
 5191POPC   C1B66619  41.076  20.079   6.174
 5191POPC   C2B66620  41.050  20.307   6.592
 5191POPC   C3B66621  41.038  20.174   7.030
 5191POPC   C4B66622  41.126  19.993   7.431
 5192POPC   NC366623  25.633  43.037   5.523
 5192POPC   PO466624  25.033  42.827   5.329
 5192POPC   GL166625  25.153  43.069   5.702
 5192POPC   GL266626  25.083  43.425   5.821
 5192POPC   C1A66627  25.121  43.031   6.149
 5192POPC   D2A66628  25.333  43.057   6.527
 5192POPC   C3A66629  25.062  43.131   6.835
 5192POPC   C4A66630  25.301  42.981   7.167
 5192POPC   C1B66631  25.375  43.534   6.176
 5192POPC   C2B66632  25.577  43.512   6.594
 5192POPC   C3B66633  25.372  43.467   7.033
 5192POPC   C4B66634  24.945  43.521   7.172
 5193POPC   NC366635  12.380   9.489   5.601
 5193POPC   PO466636  12.841   9.910   5.645
 5193POPC   GL166637  12.653  10.098   5.990
 5193POPC   GL266638  12.360   9.918   5.936
 5193POPC   C1A66639  12.698   9.973   6.388
 5193POPC   D2A66640  12.876   9.638   6.680
 5193POPC   C3A66641  12.965   9.671   7.121
 5193POPC   C4A66642  13.290   9.636   7.400
 5193POPC   C1B66643  12.336   9.630   6.292
 5193POPC   C2B66644  12.365   9.690   6.732
 5193POPC   C3B66645  12.461   9.630   7.126
 5193POPC   C4B66646  12.645  10.012   7.281
 5194POPC   NC366647  13.191  38.538   5.390
 5194POPC   PO466648  12.659  38.073   5.266
 5194POPC   GL166649  12.725  38.328   5.667
 5194POPC   GL266650  12.831  38.667   5.745
 5194POPC   C1A66651  12.728  38.322   6.137
 5194POPC   D2A66652  12.909  38.379   6.541
 5194POPC   C3A66653  12.667  38.164   6.888
 5194POPC   C4A66654  12.499  38.356   7.295
 5194POPC   C1B66655  12.955  38.805   6.150
 5194POPC   C2B66656  12.751  38.888   6.540
 5194POPC   C3B66657  12.752  38.684   6.916
 5194POPC   C4B66658  13.001  38.399   7.164
 5195POPC   NC366659  40.610  26.616   5.314
 5195POPC   PO466660  41.134  27.094   5.415
 5195POPC   GL166661  40.869  26.847   5.684
 5195POPC   GL266662  40.526  26.955   5.687
 5195POPC   C1A66663  40.700  26.647   6.069
 5195POPC   D2A66664  40.761  26.493   6.482
 5195POPC   C3A66665  40.594  26.739   6.822
 5195POPC   C4A66666  40.841  26.720   7.183
 5195POPC   C1B66667  40.454  27.110   6.110
 5195POPC   C2B66668  40.431  27.195   6.542
 5195POPC   C3B66669  40.351  27.272   6.976
 5195POPC   C4B66670  40.242  27.211   7.409
 5196POPC   NC366671  20.503  13.506   5.364
 5196POPC   PO466672  21.173  13.252   5.371
 5196POPC   GL166673  20.932  13.384   5.746
 5196POPC   GL266674  20.621  13.600   5.841
 5196POPC   C1A66675  20.926  13.456   6.201
 5196POPC   D2A66676  20.664  13.564   6.545
 5196POPC   C3A66677  20.866  13.501   6.952
 5196POPC   C4A66678  20.712  13.707   7.296
 5196POPC   C1B66679  20.391  13.330   6.117
 5196POPC   C2B66680  20.209  13.304   6.547
 5196POPC   C3B66681  20.368  13.435   6.960
 5196POPC   C4B66682  20.345  13.393   7.407
 5197POPC   NC366683   2.320  28.303   5.454
 5197POPC   PO466684   2.924  28.557   5.252
 5197POPC   GL166685   2.858  28.338   5.719
 5197POPC   GL266686   3.070  28.117   5.921
 5197POPC   C1A66687   2.669  28.331   6.176
 5197POPC   D2A66688   2.715  28.218   6.632
 5197POPC   C3A66689   2.813  28.527   6.965
 5197POPC   C4A66690   2.525  28.582   7.313
 5197POPC   C1B66691   3.160  28.243   6.344
 5197POPC   C2B66692   3.217  28.218   6.774
 5197POPC   C3B66693   2.964  28.043   7.103
 5197POPC   C4B66694   2.956  28.292   7.479
 5198POPC   NC366695  27.401  25.516   5.548
 5198POPC   PO466696  27.935  25.315   5.242
 5198POPC   GL166697  27.816  25.310   5.736
 5198POPC   GL266698  27.492  25.080   5.804
 5198POPC   C1A66699  27.656  25.475   6.162
 5198POPC   D2A66700  27.472  25.400   6.552
 5198POPC   C3A66701  27.624  25.437   6.968
 5198POPC   C4A66702  27.671  25.296   7.386
 5198POPC   C1B66703  27.561  24.984   6.247
 5198POPC   C2B66704  27.466  24.824   6.636
 5198POPC   C3B66705  27.628  24.861   7.041
 5198POPC   C4B66706  27.425  24.836   7.398
 5199POPC   NC366707  27.592   3.091   5.467
 5199POPC   PO466708  27.725   2.425   5.501
 5199POPC   GL166709  27.616   2.702   5.793
 5199POPC   GL266710  27.912   2.736   5.942
 5199POPC   C1A66711  27.486   2.940   6.144
 5199POPC   D2A66712  27.305   2.892   6.541
 5199POPC   C3A66713  27.513   2.718   6.902
 5199POPC   C4A66714  27.399   2.951   7.277
 5199POPC   C1B66715  27.971   3.104   6.254
 5199POPC   C2B66716  27.793   3.137   6.668
 5199POPC   C3B66717  27.871   3.075   7.108
 5199POPC   C4B66718  27.869   2.676   7.279
 5200POPC   NC366719  12.395  41.324   5.610
 5200POPC   PO466720  11.841  41.724   5.274
 5200POPC   GL166721  11.897  41.443   5.652
 5200POPC   GL266722  12.111  41.678   5.818
 5200POPC   C1A66723  11.959  41.304   6.124
 5200POPC   D2A66724  12.272  41.477   6.427
 5200POPC   C3A66725  12.159  41.326   6.818
 5200POPC   C4A66726  12.045  41.420   7.223
 5200POPC   C1B66727  12.041  41.874   6.194
 5200POPC   C2B66728  12.177  41.997   6.555
 5200POPC   C3B66729  12.177  41.818   6.889
 5200POPC   C4B66730  12.193  41.929   7.267
 5201POPC   NC366731  42.016  29.039   5.561
 5201POPC   PO466732  41.356  29.328   5.489
 5201POPC   GL166733  41.481  29.066   5.791
 5201POPC   GL266734  41.735  29.275   5.893
 5201POPC   C1A66735  41.572  28.928   6.224
 5201POPC   D2A66736  41.735  29.149   6.574
 5201POPC   C3A66737  41.565  29.019   6.967
 5201POPC   C4A66738  41.901  28.990   7.222
 5201POPC   C1B66739  41.949  29.463   6.200
 5201POPC   C2B66740  41.968  29.628   6.615
 5201POPC   C3B66741  41.994  29.414   6.978
 5201POPC   C4B66742  41.888  29.508   7.419
 5202POPC   NC366743  43.713  21.757   5.394
 5202POPC   PO466744  44.019  22.308   5.092
 5202POPC   GL166745  43.960  22.298   5.605
 5202POPC   GL266746  44.056  21.970   5.768
 5202POPC   C1A66747  43.926  22.334   6.102
 5202POPC   D2A66748  44.128  22.379   6.544
 5202POPC   C3A66749  43.854  22.348   6.915
 5202POPC   C4A66750  43.676  22.578   7.245
 5202POPC   C1B66751  44.279  21.987   6.199
 5202POPC   C2B66752  44.431  21.952   6.637
 5202POPC   C3B66753  44.271  22.065   7.015
 5202POPC   C4B66754  44.195  21.891   7.397
 5203POPC   NC366755  14.178  14.603   5.584
 5203POPC   PO466756  14.414  13.962   5.451
 5203POPC   GL166757  14.199  14.119   5.765
 5203POPC   GL266758  14.542  14.272   5.857
 5203POPC   C1A66759  14.170  14.223   6.182
 5203POPC   D2A66760  14.474  14.058   6.426
 5203POPC   C3A66761  14.415  13.968   6.828
 5203POPC   C4A66762  14.439  14.158   7.213
 5203POPC   C1B66763  14.577  14.537   6.230
 5203POPC   C2B66764  14.343  14.541   6.582
 5203POPC   C3B66765  14.284  14.598   6.961
 5203POPC   C4B66766  14.478  14.686   7.299
 5204POPC   NC366767   1.576  35.375   5.390
 5204POPC   PO466768   1.689  35.959   5.472
 5204POPC   GL166769   1.849  35.642   5.823
 5204POPC   GL266770   2.152  35.774   5.971
 5204POPC   C1A66771   1.965  35.388   6.279
 5204POPC   D2A66772   1.989  35.218   6.736
 5204POPC   C3A66773   2.157  35.131   7.184
 5204POPC   C4A66774   2.089  35.399   7.574
 5204POPC   C1B66775   1.781  35.862   6.285
 5204POPC   C2B66776   1.722  35.643   6.696
 5204POPC   C3B66777   1.813  35.508   7.127
 5204POPC   C4B66778   1.594  35.561   7.512
 5205POPC   NC366779  29.440  11.445   5.270
 5205POPC   PO466780  28.869  11.220   5.565
 5205POPC   GL166781  29.033  11.265   5.940
 5205POPC   GL266782  29.386  11.367   5.934
 5205POPC   C1A66783  29.168  11.106   6.329
 5205POPC   D2A66784  29.282  11.114   6.734
 5205POPC   C3A66785  29.029  11.274   7.031
 5205POPC   C4A66786  29.236  11.472   7.296
 5205POPC   C1B66787  29.523  11.454   6.399
 5205POPC   C2B66788  29.382  11.608   6.812
 5205POPC   C3B66789  29.576  11.818   7.183
 5205POPC   C4B66790  29.682  11.793   7.654
 5206POPC   NC366791   9.549  20.733   5.514
 5206POPC   PO466792  10.065  20.492   5.188
 5206POPC   GL166793  10.026  20.534   5.679
 5206POPC   GL266794   9.968  20.889   5.801
 5206POPC   C1A66795   9.903  20.344   6.114
 5206POPC   D2A66796   9.592  20.381   6.463
 5206POPC   C3A66797   9.738  20.322   6.892
 5206POPC   C4A66798   9.674  20.558   7.254
 5206POPC   C1B66799   9.754  20.828   6.232
 5206POPC   C2B66800   9.573  20.857   6.685
 5206POPC   C3B66801   9.556  21.039   7.137
 5206POPC   C4B66802   9.910  20.976   7.480
 5207POPC   NC366803  30.785   8.037   5.066
 5207POPC   PO466804  30.968   8.375   5.681
 5207POPC   GL166805  30.740   8.166   5.932
 5207POPC   GL266806  30.499   8.000   5.732
 5207POPC   C1A66807  30.902   8.142   6.324
 5207POPC   D2A66808  30.648   8.238   6.633
 5207POPC   C3A66809  30.899   8.175   6.941
 5207POPC   C4A66810  30.672   8.198   7.304
 5207POPC   C1B66811  30.207   7.806   6.064
 5207POPC   C2B66812  30.232   7.685   6.510
 5207POPC   C3B66813  30.352   7.871   6.919
 5207POPC   C4B66814  30.408   7.707   7.341
 5208POPC   NC366815  10.332  29.138   5.432
 5208POPC   PO466816  11.023  28.929   5.409
 5208POPC   GL166817  10.763  29.141   5.798
 5208POPC   GL266818  10.413  29.313   5.878
 5208POPC   C1A66819  10.659  29.156   6.274
 5208POPC   D2A66820  10.392  28.912   6.575
 5208POPC   C3A66821  10.469  29.004   7.024
 5208POPC   C4A66822  10.655  29.381   7.228
 5208POPC   C1B66823  10.168  29.334   6.216
 5208POPC   C2B66824  10.309  29.423   6.609
 5208POPC   C3B66825  10.140  29.533   6.970
 5208POPC   C4B66826  10.261  29.779   7.280
 5209POPC   NC366827   9.730   3.244   5.245
 5209POPC   PO466828   9.779   2.630   5.439
 5209POPC   GL166829   9.732   2.947   5.738
 5209POPC   GL266830  10.053   2.947   5.865
 5209POPC   C1A66831   9.701   2.807   6.193
 5209POPC   D2A66832   9.993   2.645   6.527
 5209POPC   C3A66833   9.840   2.628   6.943
 5209POPC   C4A66834   9.526   2.760   7.253
 5209POPC   C1B66835  10.123   3.094   6.282
 5209POPC   C2B66836  10.184   3.123   6.717
 5209POPC   C3B66837  10.279   2.970   7.123
 5209POPC   C4B66838  10.187   2.585   7.307
 5210POPC   NC366839  10.811  10.966   5.350
 5210POPC   PO466840  10.469  11.595   5.373
 5210POPC   GL166841  10.706  11.386   5.700
 5210POPC   GL266842  10.467  11.170   5.848
 5210POPC   C1A66843  10.814  11.397   6.151
 5210POPC   D2A66844  10.963  11.287   6.563
 5210POPC   C3A66845  10.785  11.393   6.946
 5210POPC   C4A66846  10.837  11.577   7.354
 5210POPC   C1B66847  10.268  11.249   6.244
 5210POPC   C2B66848  10.329  11.272   6.686
 5210POPC   C3B66849  10.277  11.024   7.033
 5210POPC   C4B66850  10.309  11.067   7.481
 5211POPC   NC366851  11.864  13.198   5.285
 5211POPC   PO466852  12.262  13.832   5.155
 5211POPC   GL166853  12.151  13.620   5.617
 5211POPC   GL266854  12.397  13.406   5.784
 5211POPC   C1A66855  12.058  13.619   6.134
 5211POPC   D2A66856  12.268  13.717   6.578
 5211POPC   C3A66857  12.048  13.785   7.012
 5211POPC   C4A66858  12.158  13.758   7.462
 5211POPC   C1B66859  12.262  13.158   6.171
 5211POPC   C2B66860  12.108  13.183   6.585
 5211POPC   C3B66861  12.218  13.282   7.004
 5211POPC   C4B66862  12.111  13.241   7.431
 5212POPC   NC366863  19.627  21.226   5.392
 5212POPC   PO466864  19.756  20.482   5.382
 5212POPC   GL166865  19.853  20.561   5.793
 5212POPC   GL266866  19.838  20.935   5.781
 5212POPC   C1A66867  20.047  20.453   6.210
 5212POPC   D2A66868  20.254  20.465   6.625
 5212POPC   C3A66869  19.950  20.433   6.982
 5212POPC   C4A66870  19.645  20.192   7.236
 5212POPC   C1B66871  19.696  20.846   6.190
 5212POPC   C2B66872  19.852  20.781   6.594
 5212POPC   C3B66873  19.816  20.926   7.021
 5212POPC   C4B66874  19.574  21.119   7.314
 5213POPC   NC366875  17.059   2.333   5.366
 5213POPC   PO466876  16.583   1.804   5.374
 5213POPC   GL166877  16.838   1.970   5.666
 5213POPC   GL266878  16.726   1.692   5.845
 5213POPC   C1A66879  16.897   2.125   6.077
 5213POPC   D2A66880  16.983   1.897   6.448
 5213POPC   C3A66881  16.857   2.042   6.854
 5213POPC   C4A66882  16.948   1.900   7.249
 5213POPC   C1B66883  16.493   1.756   6.178
 5213POPC   C2B66884  16.477   1.856   6.574
 5213POPC   C3B66885  16.351   1.858   6.981
 5213POPC   C4B66886  16.435   2.032   7.353
 5214POPC   NC366887  30.830  32.771   5.502
 5214POPC   PO466888  30.581  33.288   5.499
 5214POPC   GL166889  30.612  33.161   5.933
 5214POPC   GL266890  30.314  33.169   6.149
 5214POPC   C1A66891  30.725  33.378   6.331
 5214POPC   D2A66892  30.599  33.326   6.745
 5214POPC   C3A66893  30.990  33.189   6.938
 5214POPC   C4A66894  31.117  32.965   7.328
 5214POPC   C1B66895  30.600  32.883   6.440
 5214POPC   C2B66896  30.572  32.481   6.699
 5214POPC   C3B66897  30.356  32.429   7.110
 5214POPC   C4B66898  30.336  32.726   7.468
 5215POPC   NC366899  11.930  14.906   5.613
 5215POPC   PO466900  11.803  15.524   5.300
 5215POPC   GL166901  11.936  15.402   5.718
 5215POPC   GL266902  11.615  15.306   5.745
 5215POPC   C1A66903  12.052  15.310   6.199
 5215POPC   D2A66904  12.200  15.148   6.641
 5215POPC   C3A66905  12.355  15.317   7.046
 5215POPC   C4A66906  12.259  15.210   7.481
 5215POPC   C1B66907  11.504  15.246   6.148
 5215POPC   C2B66908  11.688  15.198   6.538
 5215POPC   C3B66909  11.621  15.181   6.953
 5215POPC   C4B66910  11.674  15.116   7.369
 5216POPC   NC366911   9.537  35.761   5.405
 5216POPC   PO466912   9.679  36.411   5.212
 5216POPC   GL166913   9.675  36.227   5.622
 5216POPC   GL266914   9.377  36.335   5.755
 5216POPC   C1A66915   9.785  36.296   6.086
 5216POPC   D2A66916   9.970  36.118   6.503
 5216POPC   C3A66917   9.805  36.088   6.947
 5216POPC   C4A66918   9.622  36.197   7.359
 5216POPC   C1B66919   9.292  36.497   6.163
 5216POPC   C2B66920   9.541  36.438   6.516
 5216POPC   C3B66921   9.511  36.517   6.935
 5216POPC   C4B66922   9.614  36.700   7.289
 5217POPC   NC366923   4.158   2.552   5.433
 5217POPC   PO466924   4.092   3.226   5.345
 5217POPC   GL166925   4.137   3.065   5.760
 5217POPC   GL266926   4.471   2.919   5.713
 5217POPC   C1A66927   4.245   2.846   6.165
 5217POPC   D2A66928   4.262   2.991   6.587
 5217POPC   C3A66929   4.266   2.763   6.990
 5217POPC   C4A66930   4.201   3.021   7.380
 5217POPC   C1B66931   4.742   2.743   6.059
 5217POPC   C2B66932   4.752   2.843   6.494
 5217POPC   C3B66933   4.779   2.849   6.949
 5217POPC   C4B66934   4.591   2.707   7.382
 5218POPC   NC366935  30.599  10.229   5.451
 5218POPC   PO466936  30.572  10.891   5.575
 5218POPC   GL166937  30.751  10.585   5.860
 5218POPC   GL266938  30.863  10.212   5.885
 5218POPC   C1A66939  30.852  10.562   6.289
 5218POPC   D2A66940  30.657  10.480   6.695
 5218POPC   C3A66941  30.888  10.521   7.113
 5218POPC   C4A66942  31.008  10.714   7.504
 5218POPC   C1B66943  30.588  10.099   6.240
 5218POPC   C2B66944  30.462   9.939   6.652
 5218POPC   C3B66945  30.550  10.123   7.045
 5218POPC   C4B66946  30.383  10.590   7.125
 5219POPC   NC366947  39.863   6.839   5.389
 5219POPC   PO466948  40.400   6.447   5.456
 5219POPC   GL166949  40.066   6.451   5.798
 5219POPC   GL266950  39.967   6.794   5.878
 5219POPC   C1A66951  40.041   6.457   6.290
 5219POPC   D2A66952  40.201   6.359   6.707
 5219POPC   C3A66953  39.933   6.465   7.066
 5219POPC   C4A66954  39.977   6.332   7.493
 5219POPC   C1B66955  39.753   6.916   6.239
 5219POPC   C2B66956  39.849   6.806   6.654
 5219POPC   C3B66957  39.606   6.849   6.978
 5219POPC   C4B66958  39.637   6.724   7.408
 5220POPC   NC366959  23.831  16.475   5.414
 5220POPC   PO466960  23.512  17.004   5.321
 5220POPC   GL166961  23.487  16.747   5.732
 5220POPC   GL266962  23.243  16.453   5.744
 5220POPC   C1A66963  23.805  16.729   6.094
 5220POPC   D2A66964  23.867  16.982   6.492
 5220POPC   C3A66965  23.494  17.026   6.738
 5220POPC   C4A66966  23.558  17.019   7.168
 5220POPC   C1B66967  23.435  16.378   6.149
 5220POPC   C2B66968  23.622  16.511   6.530
 5220POPC   C3B66969  23.756  16.612   6.926
 5220POPC   C4B66970  23.492  16.465   7.269
 5221POPC   NC366971  26.837  35.783   5.409
 5221POPC   PO466972  26.559  35.184   5.347
 5221POPC   GL166973  26.770  35.165   5.754
 5221POPC   GL266974  26.811  35.482   5.825
 5221POPC   C1A66975  26.910  35.122   6.209
 5221POPC   D2A66976  26.867  34.967   6.650
 5221POPC   C3A66977  27.018  35.042   7.082
 5221POPC   C4A66978  26.893  34.993   7.536
 5221POPC   C1B66979  26.610  35.531   6.212
 5221POPC   C2B66980  26.818  35.516   6.558
 5221POPC   C3B66981  26.694  35.424   6.914
 5221POPC   C4B66982  26.783  35.440   7.312
 5222POPC   NC366983  15.432   1.488   5.344
 5222POPC   PO466984  14.842   1.298   5.167
 5222POPC   GL166985  15.042   1.405   5.657
 5222POPC   GL266986  15.402   1.195   5.776
 5222POPC   C1A66987  15.160   1.482   6.115
 5222POPC   D2A66988  15.314   1.288   6.492
 5222POPC   C3A66989  15.097   1.344   6.869
 5222POPC   C4A66990  14.946   1.472   7.243
 5222POPC   C1B66991  15.466   0.895   6.179
 5222POPC   C2B66992  15.425   0.787   6.640
 5222POPC   C3B66993  15.328   0.932   7.051
 5222POPC   C4B66994  14.970   0.959   7.362
 5223POPC   NC366995   5.523  26.647   5.488
 5223POPC   PO466996   4.816  26.849   5.412
 5223POPC   GL166997   5.062  26.865   5.764
 5223POPC   GL266998   5.028  26.533   5.826
 5223POPC   C1A66999   5.024  26.910   6.214
 5223POPC   D2A67000   4.807  26.958   6.603
 5223POPC   C3A67001   5.058  26.841   6.937
 5223POPC   C4A67002   5.136  26.975   7.323
 5223POPC   C1B67003   5.295  26.469   6.183
 5223POPC   C2B67004   5.321  26.246   6.563
 5223POPC   C3B67005   5.417  26.464   6.937
 5223POPC   C4B67006   5.416  26.532   7.369
 5224POPC   NC367007  12.099   5.460   5.307
 5224POPC   PO467008  12.304   4.896   5.066
 5224POPC   GL167009  12.044   5.067   5.580
 5224POPC   GL267010  11.941   4.820   5.839
 5224POPC   C1A67011  12.108   5.274   6.023
 5224POPC   D2A67012  12.346   5.202   6.444
 5224POPC   C3A67013  12.198   5.347   6.867
 5224POPC   C4A67014  11.954   5.078   7.128
 5224POPC   C1B67015  12.368   4.819   6.066
 5224POPC   C2B67016  12.404   4.669   6.501
 5224POPC   C3B67017  12.437   4.848   6.912
 5224POPC   C4B67018  12.319   4.689   7.301
 5225POPC   NC367019  17.997  40.295   5.125
 5225POPC   PO467020  18.596  39.938   5.401
 5225POPC   GL167021  18.250  40.193   5.588
 5225POPC   GL267022  18.009  39.964   5.741
 5225POPC   C1A67023  18.281  40.268   6.038
 5225POPC   D2A67024  18.432  40.018   6.385
 5225POPC   C3A67025  18.381  40.063   6.820
 5225POPC   C4A67026  18.371  40.104   7.266
 5225POPC   C1B67027  17.937  39.942   6.209
 5225POPC   C2B67028  17.805  40.096   6.613
 5225POPC   C3B67029  17.905  40.066   7.042
 5225POPC   C4B67030  17.917  40.297   7.419
 5226POPC   NC367031   6.852  41.679   5.350
 5226POPC   PO467032   6.285  41.395   5.597
 5226POPC   GL167033   6.508  41.609   5.910
 5226POPC   GL267034   6.819  41.822   5.862
 5226POPC   C1A67035   6.469  41.570   6.345
 5226POPC   D2A67036   6.594  41.322   6.699
 5226POPC   C3A67037   6.485  41.516   7.070
 5226POPC   C4A67038   6.723  41.483   7.401
 5226POPC   C1B67039   6.878  41.851   6.327
 5226POPC   C2B67040   6.750  41.830   6.745
 5226POPC   C3B67041   6.855  41.938   7.165
 5226POPC   C4B67042   6.852  41.942   7.609
 5227POPC   NC367043  37.861   4.424   5.193
 5227POPC   PO467044  37.316   4.036   5.469
 5227POPC   GL167045  37.371   4.313   5.813
 5227POPC   GL267046  37.701   4.462   5.846
 5227POPC   C1A67047  37.452   4.253   6.267
 5227POPC   D2A67048  37.708   3.945   6.520
 5227POPC   C3A67049  37.579   3.987   6.954
 5227POPC   C4A67050  37.623   4.192   7.346
 5227POPC   C1B67051  37.964   4.392   6.196
 5227POPC   C2B67052  38.068   4.291   6.608
 5227POPC   C3B67053  37.920   4.420   7.010
 5227POPC   C4B67054  37.893   4.646   7.422
 5228POPC   NC367055  11.162  35.163   5.355
 5228POPC   PO467056  11.526  35.693   5.341
 5228POPC   GL167057  11.346  35.473   5.731
 5228POPC   GL267058  11.378  35.115   5.875
 5228POPC   C1A67059  11.196  35.498   6.169
 5228POPC   D2A67060  11.298  35.633   6.575
 5228POPC   C3A67061  11.303  35.367   6.907
 5228POPC   C4A67062  11.172  35.566   7.259
 5228POPC   C1B67063  11.597  34.907   6.281
 5228POPC   C2B67064  11.569  34.938   6.764
 5228POPC   C3B67065  11.163  34.858   6.990
 5228POPC   C4B67066  10.855  35.108   7.217
 5229POPC   NC367067  20.094  37.184   5.368
 5229POPC   PO467068  19.663  37.669   5.402
 5229POPC   GL167069  19.824  37.435   5.760
 5229POPC   GL267070  20.192  37.424   5.832
 5229POPC   C1A67071  19.807  37.495   6.214
 5229POPC   D2A67072  19.819  37.793   6.561
 5229POPC   C3A67073  19.660  37.624   6.965
 5229POPC   C4A67074  19.734  37.770   7.391
 5229POPC   C1B67075  20.323  37.443   6.284
 5229POPC   C2B67076  20.116  37.408   6.712
 5229POPC   C3B67077  20.165  37.567   7.142
 5229POPC   C4B67078  20.488  37.609   7.469
 5230POPC   NC367079  12.625  12.623   5.345
 5230POPC   PO467080  12.966  13.167   5.405
 5230POPC   GL167081  12.909  12.836   5.719
 5230POPC   GL267082  12.567  12.917   5.759
 5230POPC   C1A67083  13.076  12.571   6.089
 5230POPC   D2A67084  12.962  12.658   6.531
 5230POPC   C3A67085  13.086  12.507   6.927
 5230POPC   C4A67086  12.963  12.648   7.308
 5230POPC   C1B67087  12.670  12.871   6.169
 5230POPC   C2B67088  12.480  12.811   6.561
 5230POPC   C3B67089  12.673  12.848   6.928
 5230POPC   C4B67090  12.500  12.952   7.300
 5231POPC   NC367091   9.886  31.513   5.308
 5231POPC   PO467092   9.255  31.856   5.513
 5231POPC   GL167093   9.550  31.545   5.705
 5231POPC   GL267094   9.937  31.620   5.789
 5231POPC   C1A67095   9.591  31.424   6.138
 5231POPC   D2A67096   9.429  31.589   6.542
 5231POPC   C3A67097   9.736  31.746   6.799
 5231POPC   C4A67098   9.761  31.703   7.261
 5231POPC   C1B67099  10.121  31.335   6.103
 5231POPC   C2B67100  10.177  31.337   6.554
 5231POPC   C3B67101  10.125  31.486   6.982
 5231POPC   C4B67102  10.098  31.175   7.296
 5232POPC   NC367103  12.370  34.061   5.389
 5232POPC   PO467104  11.710  33.903   5.253
 5232POPC   GL167105  11.890  33.949   5.690
 5232POPC   GL267106  12.190  33.769   5.760
 5232POPC   C1A67107  11.955  33.991   6.165
 5232POPC   D2A67108  11.722  33.864   6.537
 5232POPC   C3A67109  11.908  33.862   6.954
 5232POPC   C4A67110  11.844  33.650   7.362
 5232POPC   C1B67111  12.422  33.725   6.160
 5232POPC   C2B67112  12.311  33.845   6.582
 5232POPC   C3B67113  12.336  34.150   6.906
 5232POPC   C4B67114  12.098  34.178   7.310
 5233POPC   NC367115  12.265  23.370   5.382
 5233POPC   PO467116  12.069  22.720   5.464
 5233POPC   GL167117  12.226  22.836   5.839
 5233POPC   GL267118  12.265  23.203   5.869
 5233POPC   C1A67119  12.242  22.672   6.253
 5233POPC   D2A67120  12.283  22.845   6.663
 5233POPC   C3A67121  11.897  23.022   6.845
 5233POPC   C4A67122  11.829  22.956   7.272
 5233POPC   C1B67123  12.424  23.202   6.282
 5233POPC   C2B67124  12.242  23.370   6.678
 5233POPC   C3B67125  12.312  23.194   7.104
 5233POPC   C4B67126  12.217  23.123   7.575
 5234POPC   NC367127  31.314   7.082   5.359
 5234POPC   PO467128  31.783   7.549   5.393
 5234POPC   GL167129  31.553   7.440   5.731
 5234POPC   GL267130  31.460   7.772   5.814
 5234POPC   C1A67131  31.653   7.370   6.149
 5234POPC   D2A67132  31.507   7.298   6.544
 5234POPC   C3A67133  31.740   7.434   6.880
 5234POPC   C4A67134  31.676   7.249   7.297
 5234POPC   C1B67135  31.260   7.724   6.231
 5234POPC   C2B67136  31.246   7.723   6.685
 5234POPC   C3B67137  31.312   7.545   7.107
 5234POPC   C4B67138  31.314   7.580   7.563
 5235POPC   NC367139  19.856  14.441   5.521
 5235POPC   PO467140  19.753  15.108   5.480
 5235POPC   GL167141  19.909  14.842   5.872
 5235POPC   GL267142  19.732  14.481   5.997
 5235POPC   C1A67143  20.047  14.717   6.311
 5235POPC   D2A67144  19.928  14.306   6.519
 5235POPC   C3A67145  19.973  14.266   6.977
 5235POPC   C4A67146  19.635  14.358   7.229
 5235POPC   C1B67147  19.459  14.791   6.138
 5235POPC   C2B67148  19.404  14.865   6.565
 5235POPC   C3B67149  19.687  14.755   6.917
 5235POPC   C4B67150  19.532  14.841   7.339
 5236POPC   NC367151  15.724  28.960   5.525
 5236POPC   PO467152  15.556  29.552   5.612
 5236POPC   GL167153  15.723  29.286   5.941
 5236POPC   GL267154  15.977  29.011   5.947
 5236POPC   C1A67155  15.873  29.290   6.384
 5236POPC   D2A67156  15.720  29.074   6.740
 5236POPC   C3A67157  15.632  29.270   7.127
 5236POPC   C4A67158  15.851  29.394   7.491
 5236POPC   C1B67159  15.999  28.789   6.329
 5236POPC   C2B67160  16.187  28.881   6.714
 5236POPC   C3B67161  16.114  29.127   7.111
 5236POPC   C4B67162  16.187  28.972   7.531
 5237POPC   NC367163  43.226  35.470   5.124
 5237POPC   PO467164  43.653  35.175   5.596
 5237POPC   GL167165  43.726  35.468   5.975
 5237POPC   GL267166  43.985  35.743   5.974
 5237POPC   C1A67167  43.925  35.463   6.391
 5237POPC   D2A67168  43.820  35.299   6.794
 5237POPC   C3A67169  44.137  35.179   7.101
 5237POPC   C4A67170  44.095  34.931   7.489
 5237POPC   C1B67171  43.691  35.904   6.280
 5237POPC   C2B67172  43.717  35.825   6.743
 5237POPC   C3B67173  43.703  35.624   7.168
 5237POPC   C4B67174  43.667  35.180   7.337
 5238POPC   NC367175  41.016  27.540   5.394
 5238POPC   PO467176  40.433  27.801   5.348
 5238POPC   GL167177  40.672  27.697   5.789
 5238POPC   GL267178  40.799  27.363   5.807
 5238POPC   C1A67179  40.774  27.554   6.275
 5238POPC   D2A67180  40.956  27.618   6.711
 5238POPC   C3A67181  40.682  27.621   7.094
 5238POPC   C4A67182  40.546  27.614   7.578
 5238POPC   C1B67183  40.969  27.088   6.103
 5238POPC   C2B67184  40.896  27.021   6.500
 5238POPC   C3B67185  40.866  27.161   6.925
 5238POPC   C4B67186  40.743  27.191   7.371
 5239POPC   NC367187  37.014  20.600   5.354
 5239POPC   PO467188  36.534  20.306   5.090
 5239POPC   GL167189  36.709  20.308   5.623
 5239POPC   GL267190  36.805  20.673   5.810
 5239POPC   C1A67191  36.949  20.282   6.075
 5239POPC   D2A67192  36.892  20.502   6.498
 5239POPC   C3A67193  36.927  20.320   6.928
 5239POPC   C4A67194  36.630  20.234   7.287
 5239POPC   C1B67195  37.163  20.760   6.125
 5239POPC   C2B67196  37.297  20.820   6.585
 5239POPC   C3B67197  37.136  20.849   7.029
 5239POPC   C4B67198  36.946  20.613   7.388
 5240POPC   NC367199   2.238  19.525   5.458
 5240POPC   PO467200   1.730  20.053   5.426
 5240POPC   GL167201   2.010  19.918   5.743
 5240POPC   GL267202   1.890  19.600   5.869
 5240POPC   C1A67203   1.933  20.003   6.188
 5240POPC   D2A67204   2.021  19.876   6.602
 5240POPC   C3A67205   1.958  20.155   6.907
 5240POPC   C4A67206   2.020  20.058   7.296
 5240POPC   C1B67207   2.143  19.527   6.258
 5240POPC   C2B67208   2.301  19.439   6.688
 5240POPC   C3B67209   2.173  19.645   7.050
 5240POPC   C4B67210   1.988  19.569   7.478
 5241POPC   NC367211   8.333   6.123   5.329
 5241POPC   PO467212   8.085   5.491   5.388
 5241POPC   GL167213   8.080   5.685   5.826
 5241POPC   GL267214   8.214   6.053   5.829
 5241POPC   C1A67215   8.020   5.872   6.248
 5241POPC   D2A67216   7.951   6.072   6.624
 5241POPC   C3A67217   8.023   5.806   6.984
 5241POPC   C4A67218   8.335   5.652   7.280
 5241POPC   C1B67219   8.496   6.048   6.241
 5241POPC   C2B67220   8.449   5.962   6.704
 5241POPC   C3B67221   8.522   6.094   7.142
 5241POPC   C4B67222   8.544   5.978   7.606
 5242POPC   NC367223  27.001  21.070   4.930
 5242POPC   PO467224  26.571  21.383   5.373
 5242POPC   GL167225  26.687  21.364   5.848
 5242POPC   GL267226  27.062  21.410   5.858
 5242POPC   C1A67227  26.716  21.589   6.270
 5242POPC   D2A67228  26.520  21.753   6.664
 5242POPC   C3A67229  26.819  21.688   7.006
 5242POPC   C4A67230  26.829  21.593   7.459
 5242POPC   C1B67231  26.999  21.143   6.199
 5242POPC   C2B67232  27.046  21.311   6.595
 5242POPC   C3B67233  27.141  21.248   6.996
 5242POPC   C4B67234  26.937  21.114   7.298
 5243POPC   NC367235   3.587  35.644   5.472
 5243POPC   PO467236   3.576  36.321   5.403
 5243POPC   GL167237   3.684  36.110   5.756
 5243POPC   GL267238   3.396  35.929   5.856
 5243POPC   C1A67239   3.640  36.223   6.216
 5243POPC   D2A67240   3.912  36.344   6.561
 5243POPC   C3A67241   3.754  36.277   6.974
 5243POPC   C4A67242   3.359  36.337   7.183
 5243POPC   C1B67243   3.798  35.763   6.097
 5243POPC   C2B67244   3.951  35.810   6.520
 5243POPC   C3B67245   3.855  35.757   6.984
 5243POPC   C4B67246   3.644  35.944   7.363
 5244POPC   NC367247  44.890  12.285   5.356
 5244POPC   PO467248  44.288  11.918   5.521
 5244POPC   GL167249  44.581  11.897   5.845
 5244POPC   GL267250  44.742  12.224   5.884
 5244POPC   C1A67251  44.871  11.824   6.197
 5244POPC   D2A67252  44.729  11.885   6.622
 5244POPC   C3A67253  44.732  12.048   7.052
 5244POPC   C4A67254   0.099  12.263   7.203
 5244POPC   C1B67255  44.548  12.397   6.286
 5244POPC   C2B67256  44.580  12.426   6.736
 5244POPC   C3B67257  44.375  12.379   7.143
 5244POPC   C4B67258  44.562  12.247   7.513
 5245POPC   NC367259   5.900  36.312   5.407
 5245POPC   PO467260   6.042  35.615   5.480
 5245POPC   GL167261   5.861  35.887   5.833
 5245POPC   GL267262   5.736  36.247   5.884
 5245POPC   C1A67263   5.941  36.016   6.286
 5245POPC   D2A67264   5.936  35.882   6.723
 5245POPC   C3A67265   5.568  36.038   6.896
 5245POPC   C4A67266   5.501  36.264   7.251
 5245POPC   C1B67267   5.713  36.508   6.264
 5245POPC   C2B67268   5.691  36.512   6.718
 5245POPC   C3B67269   5.951  36.351   7.032
 5245POPC   C4B67270   6.013  36.360   7.459
 5246POPC   NC367271  14.881  37.475   5.633
 5246POPC   PO467272  14.274  37.523   5.393
 5246POPC   GL167273  14.421  37.632   5.817
 5246POPC   GL267274  14.646  37.918   5.721
 5246POPC   C1A67275  14.315  37.583   6.291
 5246POPC   D2A67276  14.199  37.885   6.648
 5246POPC   C3A67277  14.284  37.775   7.096
 5246POPC   C4A67278  14.467  37.533   7.443
 5246POPC   C1B67279  14.601  37.983   6.150
 5246POPC   C2B67280  14.735  37.781   6.542
 5246POPC   C3B67281  14.759  37.894   6.966
 5246POPC   C4B67282  14.703  37.988   7.386
 5247POPC   NC367283   7.333   0.175   5.257
 5247POPC   PO467284   7.680   0.632   5.374
 5247POPC   GL167285   7.299   0.476   5.667
 5247POPC   GL267286   7.560   0.327   5.840
 5247POPC   C1A67287   7.121   0.227   6.062
 5247POPC   D2A67288   7.337   0.218   6.482
 5247POPC   C3A67289   7.205   0.329   6.896
 5247POPC   C4A67290   7.203   0.509   7.283
 5247POPC   C1B67291   7.694   0.488   6.255
 5247POPC   C2B67292   7.583   0.635   6.695
 5247POPC   C3B67293   7.698   0.517   7.129
 5247POPC   C4B67294   8.003   0.702   7.470
 5248POPC   NC367295  21.249  33.427   5.072
 5248POPC   PO467296  21.238  32.908   5.502
 5248POPC   GL167297  21.272  33.062   5.871
 5248POPC   GL267298  21.131  33.346   5.770
 5248POPC   C1A67299  21.309  32.847   6.232
 5248POPC   D2A67300  21.505  32.947   6.566
 5248POPC   C3A67301  21.321  33.001   6.967
 5248POPC   C4A67302  21.602  33.198   7.262
 5248POPC   C1B67303  20.917  33.338   6.152
 5248POPC   C2B67304  21.084  33.257   6.550
 5248POPC   C3B67305  20.849  33.278   6.913
 5248POPC   C4B67306  20.941  33.240   7.308
 5249POPC   NC367307  28.382   5.546   5.408
 5249POPC   PO467308  28.493   4.936   5.262
 5249POPC   GL167309  28.215   4.925   5.681
 5249POPC   GL267310  27.990   5.209   5.750
 5249POPC   C1A67311  28.294   4.839   6.155
 5249POPC   D2A67312  28.657   4.954   6.420
 5249POPC   C3A67313  28.587   4.948   6.864
 5249POPC   C4A67314  28.644   5.036   7.312
 5249POPC   C1B67315  28.140   5.336   6.187
 5249POPC   C2B67316  28.188   5.155   6.619
 5249POPC   C3B67317  28.197   5.197   7.097
 5249POPC   C4B67318  28.194   5.037   7.555
 5250POPC   NC367319  26.667   1.991   5.348
 5250POPC   PO467320  27.180   1.667   5.141
 5250POPC   GL167321  27.066   1.866   5.657
 5250POPC   GL267322  26.864   2.148   5.793
 5250POPC   C1A67323  27.111   1.965   6.177
 5250POPC   D2A67324  27.230   2.247   6.570
 5250POPC   C3A67325  27.013   2.137   6.984
 5250POPC   C4A67326  26.793   1.827   7.277
 5250POPC   C1B67327  26.658   2.342   6.123
 5250POPC   C2B67328  26.597   2.183   6.548
 5250POPC   C3B67329  26.473   2.110   6.968
 5250POPC   C4B67330  26.604   2.337   7.316
 5251POPC   NC367331  29.032   3.972   5.458
 5251POPC   PO467332  28.932   3.291   5.423
 5251POPC   GL167333  29.102   3.553   5.754
 5251POPC   GL267334  29.336   3.839   5.843
 5251POPC   C1A67335  29.047   3.554   6.182
 5251POPC   D2A67336  29.291   3.380   6.503
 5251POPC   C3A67337  29.197   3.661   6.827
 5251POPC   C4A67338  29.034   3.724   7.227
 5251POPC   C1B67339  29.505   3.801   6.282
 5251POPC   C2B67340  29.688   3.829   6.724
 5251POPC   C3B67341  29.498   3.962   7.130
 5251POPC   C4B67342  29.444   3.750   7.551
 5252POPC   NC367343   6.063  27.087   5.405
 5252POPC   PO467344   5.850  26.491   5.184
 5252POPC   GL167345   6.010  26.582   5.632
 5252POPC   GL267346   5.874  26.869   5.828
 5252POPC   C1A67347   5.968  26.442   6.078
 5252POPC   D2A67348   5.743  26.513   6.463
 5252POPC   C3A67349   5.933  26.553   6.850
 5252POPC   C4A67350   5.932  26.580   7.243
 5252POPC   C1B67351   5.709  27.015   6.238
 5252POPC   C2B67352   5.791  27.031   6.693
 5252POPC   C3B67353   5.606  26.946   7.104
 5252POPC   C4B67354   5.568  27.190   7.499
 5253POPC   NC367355  28.624  37.931   5.137
 5253POPC   PO467356  29.268  37.760   5.406
 5253POPC   GL167357  29.219  37.498   5.751
 5253POPC   GL267358  29.332  37.792   5.928
 5253POPC   C1A67359  29.123  37.428   6.212
 5253POPC   D2A67360  28.907  37.660   6.562
 5253POPC   C3A67361  28.960  37.572   6.991
 5253POPC   C4A67362  29.380  37.480   7.165
 5253POPC   C1B67363  29.075  38.046   6.209
 5253POPC   C2B67364  28.876  38.168   6.618
 5253POPC   C3B67365  29.126  38.056   6.980
 5253POPC   C4B67366  29.100  37.859   7.404
 5254POPC   NC367367  37.145  11.187   5.150
 5254POPC   PO467368  36.553  11.345   5.357
 5254POPC   GL167369  36.604  11.450   5.770
 5254POPC   GL267370  36.446  11.126   5.845
 5254POPC   C1A67371  36.945  11.416   6.131
 5254POPC   D2A67372  37.137  11.096   6.408
 5254POPC   C3A67373  37.097  11.184   6.849
 5254POPC   C4A67374  37.096  11.223   7.258
 5254POPC   C1B67375  36.450  11.343   6.230
 5254POPC   C2B67376  36.680  11.302   6.587
 5254POPC   C3B67377  36.595  11.169   6.999
 5254POPC   C4B67378  36.659  11.522   7.225
 5255POPC   NC367379  10.316  10.245   5.556
 5255POPC   PO467380  10.444  10.751   5.156
 5255POPC   GL167381  10.748  10.546   5.608
 5255POPC   GL267382  10.881  10.854   5.843
 5255POPC   C1A67383  10.701  10.436   6.106
 5255POPC   D2A67384  10.541  10.211   6.513
 5255POPC   C3A67385  10.386  10.493   6.850
 5255POPC   C4A67386  10.364  10.588   7.289
 5255POPC   C1B67387  10.684  10.927   6.276
 5255POPC   C2B67388  10.697  10.890   6.731
 5255POPC   C3B67389  10.877  10.563   6.963
 5255POPC   C4B67390  10.841  10.429   7.383
 5256POPC   NC367391  43.275   3.060   5.461
 5256POPC   PO467392  43.054   3.681   5.226
 5256POPC   GL167393  42.972   3.498   5.663
 5256POPC   GL267394  42.731   3.197   5.650
 5256POPC   C1A67395  43.117   3.608   6.123
 5256POPC   D2A67396  43.140   3.734   6.592
 5256POPC   C3A67397  43.359   3.584   6.978
 5256POPC   C4A67398  43.286   3.808   7.351
 5256POPC   C1B67399  42.814   3.189   6.088
 5256POPC   C2B67400  43.013   3.242   6.501
 5256POPC   C3B67401  42.916   3.306   6.918
 5256POPC   C4B67402  43.066   3.346   7.338
 5257POPC   NC367403  29.208   1.833   5.204
 5257POPC   PO467404  28.712   2.265   5.524
 5257POPC   GL167405  28.913   2.081   5.864
 5257POPC   GL267406  29.140   1.918   5.730
 5257POPC   C1A67407  28.876   2.183   6.280
 5257POPC   D2A67408  29.187   2.102   6.601
 5257POPC   C3A67409  28.998   1.820   6.900
 5257POPC   C4A67410  28.932   2.082   7.213
 5257POPC   C1B67411  29.228   1.806   6.169
 5257POPC   C2B67412  29.440   1.655   6.561
 5257POPC   C3B67413  29.421   1.571   6.997
 5257POPC   C4B67414  29.407   1.906   7.254
 5258POPC   NC367415   4.420  27.099   5.493
 5258POPC   PO467416   4.147  26.467   5.371
 5258POPC   GL167417   4.200  26.642   5.770
 5258POPC   GL267418   4.533  26.701   5.803
 5258POPC   C1A67419   4.165  26.859   6.167
 5258POPC   D2A67420   4.349  27.149   6.468
 5258POPC   C3A67421   4.363  27.032   6.917
 5258POPC   C4A67422   4.619  26.921   7.285
 5258POPC   C1B67423   4.612  26.597   6.185
 5258POPC   C2B67424   4.406  26.616   6.561
 5258POPC   C3B67425   4.607  26.576   6.914
 5258POPC   C4B67426   4.513  26.420   7.274
 5259POPC   NC367427  36.636  29.887   5.443
 5259POPC   PO467428  37.302  30.149   5.400
 5259POPC   GL167429  37.106  29.895   5.744
 5259POPC   GL267430  36.809  30.046   5.889
 5259POPC   C1A67431  36.963  29.626   6.115
 5259POPC   D2A67432  36.818  29.837   6.513
 5259POPC   C3A67433  36.909  29.603   6.888
 5259POPC   C4A67434  36.732  29.567   7.311
 5259POPC   C1B67435  37.137  30.106   6.209
 5259POPC   C2B67436  37.158  30.246   6.609
 5259POPC   C3B67437  36.939  30.110   6.951
 5259POPC   C4B67438  37.107  29.912   7.311
 5260POPC   NC367439  18.250  39.611   5.381
 5260POPC   PO467440  18.283  38.989   5.410
 5260POPC   GL167441  18.060  39.105   5.797
 5260POPC   GL267442  17.939  39.438   5.740
 5260POPC   C1A67443  17.980  39.014   6.243
 5260POPC   D2A67444  17.901  39.188   6.658
 5260POPC   C3A67445  18.211  39.099   7.007
 5260POPC   C4A67446  18.265  38.944   7.463
 5260POPC   C1B67447  18.134  39.489   6.179
 5260POPC   C2B67448  18.118  39.665   6.622
 5260POPC   C3B67449  18.187  39.634   7.074
 5260POPC   C4B67450  17.982  39.368   7.358
 5261POPC   NC367451  12.932   8.670   5.448
 5261POPC   PO467452  12.370   9.058   5.409
 5261POPC   GL167453  12.694   9.021   5.754
 5261POPC   GL267454  13.098   9.032   5.771
 5261POPC   C1A67455  12.826   8.884   6.165
 5261POPC   D2A67456  12.932   9.133   6.488
 5261POPC   C3A67457  12.616   9.203   6.765
 5261POPC   C4A67458  12.760   9.170   7.166
 5261POPC   C1B67459  13.280   8.697   6.074
 5261POPC   C2B67460  13.152   8.579   6.510
 5261POPC   C3B67461  13.098   8.847   6.883
 5261POPC   C4B67462  13.224   9.289   6.938
 5262POPC   NC367463   2.397  18.002   5.476
 5262POPC   PO467464   2.590  18.691   5.472
 5262POPC   GL167465   2.570  18.439   5.824
 5262POPC   GL267466   2.804  18.148   5.794
 5262POPC   C1A67467   2.599  18.465   6.273
 5262POPC   D2A67468   2.362  18.400   6.647
 5262POPC   C3A67469   2.617  18.533   6.961
 5262POPC   C4A67470   2.624  18.535   7.366
 5262POPC   C1B67471   2.963  18.098   6.235
 5262POPC   C2B67472   2.848  18.146   6.709
 5262POPC   C3B67473   2.742  18.041   7.165
 5262POPC   C4B67474   2.995  17.804   7.471
 5263POPC   NC367475  31.986   8.882   5.506
 5263POPC   PO467476  32.424   9.345   5.394
 5263POPC   GL167477  32.341   9.173   5.743
 5263POPC   GL267478  32.036   9.326   5.814
 5263POPC   C1A67479  32.261   9.035   6.167
 5263POPC   D2A67480  32.062   9.116   6.553
 5263POPC   C3A67481  32.104   8.770   6.833
 5263POPC   C4A67482  32.484   8.672   7.070
 5263POPC   C1B67483  31.906   9.487   6.191
 5263POPC   C2B67484  31.719   9.513   6.595
 5263POPC   C3B67485  31.977   9.434   6.947
 5263POPC   C4B67486  32.183   9.111   7.194
 5264POPC   NC367487  18.511   3.596   5.414
 5264POPC   PO467488  18.106   3.117   5.619
 5264POPC   GL167489  18.356   3.403   5.861
 5264POPC   GL267490  18.144   3.720   5.815
 5264POPC   C1A67491  18.314   3.511   6.297
 5264POPC   D2A67492  17.945   3.458   6.574
 5264POPC   C3A67493  18.047   3.349   6.993
 5264POPC   C4A67494  18.458   3.253   7.154
 5264POPC   C1B67495  17.947   3.874   6.223
 5264POPC   C2B67496  18.047   4.030   6.661
 5264POPC   C3B67497  18.006   3.875   7.091
 5264POPC   C4B67498  18.350   3.725   7.314
 5265POPC   NC367499   4.434  39.962   5.227
 5265POPC   PO467500   3.926  40.387   5.374
 5265POPC   GL167501   4.253  40.127   5.676
 5265POPC   GL267502   4.421  39.788   5.741
 5265POPC   C1A67503   4.494  40.169   6.085
 5265POPC   D2A67504   4.476  40.058   6.527
 5265POPC   C3A67505   4.273  40.161   6.908
 5265POPC   C4A67506   4.191  40.084   7.305
 5265POPC   C1B67507   4.258  39.700   6.182
 5265POPC   C2B67508   4.086  39.753   6.627
 5265POPC   C3B67509   4.268  39.642   7.033
 5265POPC   C4B67510   4.520  39.715   7.415
 5266POPC   NC367511  16.085   3.833   5.183
 5266POPC   PO467512  15.597   3.571   5.484
 5266POPC   GL167513  15.845   3.493   5.874
 5266POPC   GL267514  16.197   3.407   5.827
 5266POPC   C1A67515  15.927   3.607   6.340
 5266POPC   D2A67516  16.215   3.828   6.622
 5266POPC   C3A67517  16.158   3.729   7.053
 5266POPC   C4A67518  15.886   3.658   7.447
 5266POPC   C1B67519  16.237   3.213   6.252
 5266POPC   C2B67520  16.151   3.250   6.708
 5266POPC   C3B67521  16.084   3.241   7.173
 5266POPC   C4B67522  16.365   3.456   7.451
 5267POPC   NC367523   2.828  42.030   5.509
 5267POPC   PO467524   2.892  42.689   5.434
 5267POPC   GL167525   2.621  42.458   5.737
 5267POPC   GL267526   2.909  42.291   5.943
 5267POPC   C1A67527   2.470  42.479   6.167
 5267POPC   D2A67528   2.814  42.622   6.409
 5267POPC   C3A67529   2.791  42.789   6.799
 5267POPC   C4A67530   2.938  42.518   7.125
 5267POPC   C1B67531   2.771  42.090   6.332
 5267POPC   C2B67532   2.710  42.210   6.767
 5267POPC   C3B67533   2.833  42.016   7.176
 5267POPC   C4B67534   2.876  41.871   7.639
 5268POPC   NC367535  23.747  27.415   5.029
 5268POPC   PO467536  23.799  26.826   5.335
 5268POPC   GL167537  23.744  26.692   5.763
 5268POPC   GL267538  23.525  26.461   5.872
 5268POPC   C1A67539  23.787  26.884   6.180
 5268POPC   D2A67540  23.923  26.812   6.604
 5268POPC   C3A67541  23.748  27.025   6.975
 5268POPC   C4A67542  23.738  26.762   7.347
 5268POPC   C1B67543  23.289  26.708   6.138
 5268POPC   C2B67544  23.394  26.851   6.551
 5268POPC   C3B67545  23.375  26.659   6.962
 5268POPC   C4B67546  22.989  26.619   7.168
 5269POPC   NC367547  41.692  42.641   5.349
 5269POPC   PO467548  41.242  42.155   5.284
 5269POPC   GL167549  41.484  42.133   5.711
 5269POPC   GL267550  41.841  42.249   5.698
 5269POPC   C1A67551  41.639  42.124   6.173
 5269POPC   D2A67552  41.465  42.458   6.469
 5269POPC   C3A67553  41.363  42.469   6.934
 5269POPC   C4A67554  41.213  42.756   7.274
 5269POPC   C1B67555  41.797  42.591   6.014
 5269POPC   C2B67556  41.951  42.664   6.441
 5269POPC   C3B67557  41.805  42.754   6.862
 5269POPC   C4B67558  41.724  42.671   7.301
 5270POPC   NC367559  29.391  17.002   5.474
 5270POPC   PO467560  29.024  16.499   5.713
 5270POPC   GL167561  29.011  16.959   5.858
 5270POPC   GL267562  29.350  17.105   5.952
 5270POPC   C1A67563  28.930  17.145   6.278
 5270POPC   D2A67564  28.757  16.987   6.683
 5270POPC   C3A67565  28.932  16.662   6.910
 5270POPC   C4A67566  29.052  16.930   7.212
 5270POPC   C1B67567  29.415  16.976   6.338
 5270POPC   C2B67568  29.277  17.014   6.746
 5270POPC   C3B67569  29.554  16.972   7.096
 5270POPC   C4B67570  29.920  16.740   7.255
 5271POPC   NC367571  30.159   1.494   5.322
 5271POPC   PO467572  29.525   1.682   5.513
 5271POPC   GL167573  29.866   1.463   5.766
 5271POPC   GL267574  30.255   1.506   5.805
 5271POPC   C1A67575  29.849   1.189   6.128
 5271POPC   D2A67576  29.981   0.864   6.400
 5271POPC   C3A67577  30.007   1.006   6.809
 5271POPC   C4A67578  29.833   1.313   7.088
 5271POPC   C1B67579  30.122   1.625   6.200
 5271POPC   C2B67580  29.943   1.515   6.586
 5271POPC   C3B67581  30.226   1.602   6.911
 5271POPC   C4B67582  30.382   1.516   7.306
 5272POPC   NC367583  10.722  33.354   5.505
 5272POPC   PO467584  10.646  32.691   5.570
 5272POPC   GL167585  10.389  32.812   5.884
 5272POPC   GL267586  10.380  33.146   5.818
 5272POPC   C1A67587  10.301  32.891   6.307
 5272POPC   D2A67588  10.520  32.769   6.661
 5272POPC   C3A67589  10.516  32.941   7.051
 5272POPC   C4A67590  10.125  33.037   7.232
 5272POPC   C1B67591  10.571  33.342   6.179
 5272POPC   C2B67592  10.426  33.324   6.601
 5272POPC   C3B67593  10.519  33.450   7.025
 5272POPC   C4B67594  10.404  33.397   7.483
 5273POPC   NC367595   1.639   2.881   5.543
 5273POPC   PO467596   2.202   2.587   5.427
 5273POPC   GL167597   2.085   2.811   5.771
 5273POPC   GL267598   1.931   2.516   5.850
 5273POPC   C1A67599   2.105   2.908   6.194
 5273POPC   D2A67600   1.864   2.898   6.560
 5273POPC   C3A67601   1.999   2.683   6.900
 5273POPC   C4A67602   1.945   2.939   7.224
 5273POPC   C1B67603   1.817   2.452   6.259
 5273POPC   C2B67604   1.492   2.540   6.530
 5273POPC   C3B67605   1.505   2.511   6.933
 5273POPC   C4B67606   1.746   2.327   7.249
 5274POPC   NC367607  36.369  15.367   4.964
 5274POPC   PO467608  36.136  14.960   5.476
 5274POPC   GL167609  36.054  15.215   5.810
 5274POPC   GL267610  35.780  15.392   5.668
 5274POPC   C1A67611  36.083  15.157   6.244
 5274POPC   D2A67612  36.220  15.297   6.612
 5274POPC   C3A67613  36.261  14.937   6.839
 5274POPC   C4A67614  36.266  14.983   7.234
 5274POPC   C1B67615  35.669  15.409   6.124
 5274POPC   C2B67616  35.655  15.355   6.583
 5274POPC   C3B67617  35.883  15.331   6.996
 5274POPC   C4B67618  35.793  15.222   7.437
 5275POPC   NC367619  11.503  33.578   5.504
 5275POPC   PO467620  10.935  33.962   5.492
 5275POPC   GL167621  11.145  33.818   5.814
 5275POPC   GL267622  11.096  33.482   5.824
 5275POPC   C1A67623  11.323  33.850   6.198
 5275POPC   D2A67624  11.165  34.027   6.571
 5275POPC   C3A67625  11.416  33.994   6.929
 5275POPC   C4A67626  11.586  34.076   7.319
 5275POPC   C1B67627  11.105  33.350   6.235
 5275POPC   C2B67628  11.350  33.500   6.573
 5275POPC   C3B67629  11.539  33.484   6.938
 5275POPC   C4B67630  11.343  33.604   7.284
 5276POPC   NC367631  38.514  42.426   5.165
 5276POPC   PO467632  38.103  41.948   5.402
 5276POPC   GL167633  38.324  42.288   5.665
 5276POPC   GL267634  38.659  42.377   5.742
 5276POPC   C1A67635  38.305  42.369   6.132
 5276POPC   D2A67636  38.143  42.523   6.548
 5276POPC   C3A67637  38.240  42.269   6.891
 5276POPC   C4A67638  38.305  42.437   7.288
 5276POPC   C1B67639  38.785  42.608   6.137
 5276POPC   C2B67640  38.643  42.465   6.541
 5276POPC   C3B67641  38.723  42.460   6.975
 5276POPC   C4B67642  38.946  42.475   7.356
 5277POPC   NC367643  28.261   4.538   5.354
 5277POPC   PO467644  28.943   4.433   5.413
 5277POPC   GL167645  28.719   4.292   5.789
 5277POPC   GL267646  28.370   4.439   5.837
 5277POPC   C1A67647  28.683   4.431   6.228
 5277POPC   D2A67648  28.455   4.502   6.578
 5277POPC   C3A67649  28.604   4.461   6.973
 5277POPC   C4A67650  28.356   4.594   7.293
 5277POPC   C1B67651  28.195   4.170   6.163
 5277POPC   C2B67652  28.264   4.022   6.576
 5277POPC   C3B67653  28.160   4.227   6.944
 5277POPC   C4B67654  27.920   4.311   7.294
 5278POPC   NC367655  31.669  16.964   5.156
 5278POPC   PO467656  31.195  16.881   5.468
 5278POPC   GL167657  31.508  17.165   5.703
 5278POPC   GL267658  31.267  17.333   5.909
 5278POPC   C1A67659  31.780  17.023   6.088
 5278POPC   D2A67660  31.650  16.758   6.456
 5278POPC   C3A67661  31.684  16.763   6.914
 5278POPC   C4A67662  31.793  16.393   7.192
 5278POPC   C1B67663  31.305  17.074   6.274
 5278POPC   C2B67664  31.219  16.894   6.691
 5278POPC   C3B67665  31.133  16.670   7.060
 5278POPC   C4B67666  30.992  16.779   7.469
 5279POPC   NC367667   3.171  39.537   5.629
 5279POPC   PO467668   3.499  39.142   5.179
 5279POPC   GL167669   3.480  39.112   5.687
 5279POPC   GL267670   3.680  39.404   5.798
 5279POPC   C1A67671   3.381  39.195   6.189
 5279POPC   D2A67672   3.388  38.923   6.608
 5279POPC   C3A67673   3.440  39.061   7.045
 5279POPC   C4A67674   3.825  39.138   7.311
 5279POPC   C1B67675   3.768  39.519   6.246
 5279POPC   C2B67676   3.704  39.314   6.624
 5279POPC   C3B67677   3.776  39.488   6.978
 5279POPC   C4B67678   3.854  39.689   7.327
 5280POPC   NC367679  18.480  19.213   5.297
 5280POPC   PO467680  18.027  18.752   5.324
 5280POPC   GL167681  18.266  18.744   5.768
 5280POPC   GL267682  18.583  18.948   5.851
 5280POPC   C1A67683  18.260  18.820   6.239
 5280POPC   D2A67684  18.502  18.896   6.615
 5280POPC   C3A67685  18.230  18.887   6.974
 5280POPC   C4A67686  18.268  18.725   7.379
 5280POPC   C1B67687  18.418  19.283   6.129
 5280POPC   C2B67688  18.187  19.298   6.514
 5280POPC   C3B67689  18.312  19.388   6.932
 5280POPC   C4B67690  18.342  19.279   7.359
 5281POPC   NC367691  17.891  31.619   5.456
 5281POPC   PO467692  17.348  31.307   5.535
 5281POPC   GL167693  17.499  31.543   5.882
 5281POPC   GL267694  17.858  31.579   5.969
 5281POPC   C1A67695  17.320  31.591   6.295
 5281POPC   D2A67696  17.149  31.328   6.629
 5281POPC   C3A67697  17.279  31.473   7.009
 5281POPC   C4A67698  17.725  31.510   7.004
 5281POPC   C1B67699  17.717  31.252   6.278
 5281POPC   C2B67700  17.869  31.100   6.691
 5281POPC   C3B67701  18.027  31.122   7.133
 5281POPC   C4B67702  17.779  31.109   7.525
 5282POPC   NC367703  20.464  23.257   5.295
 5282POPC   PO467704  20.880  22.746   5.528
 5282POPC   GL167705  20.637  22.920   5.852
 5282POPC   GL267706  20.594  23.274   5.788
 5282POPC   C1A67707  20.715  22.987   6.306
 5282POPC   D2A67708  20.811  23.209   6.700
 5282POPC   C3A67709  20.913  22.914   7.016
 5282POPC   C4A67710  20.789  22.700   7.374
 5282POPC   C1B67711  20.270  23.177   6.111
 5282POPC   C2B67712  20.273  23.182   6.582
 5282POPC   C3B67713  20.408  23.092   7.025
 5282POPC   C4B67714  20.405  23.011   7.470
 5283POPC   NC367715  40.965  34.607   5.537
 5283POPC   PO467716  40.314  34.931   5.444
 5283POPC   GL167717  40.617  34.983   5.817
 5283POPC   GL267718  40.763  34.650   5.984
 5283POPC   C1A67719  40.601  34.995   6.291
 5283POPC   D2A67720  40.714  34.637   6.571
 5283POPC   C3A67721  40.690  34.770   6.994
 5283POPC   C4A67722  40.407  34.771   7.322
 5283POPC   C1B67723  41.144  34.661   6.239
 5283POPC   C2B67724  41.168  34.379   6.599
 5283POPC   C3B67725  41.068  34.415   7.023
 5283POPC   C4B67726  41.168  34.827   7.167
 5284POPC   NC367727   7.934  34.702   5.243
 5284POPC   PO467728   7.364  34.409   5.476
 5284POPC   GL167729   7.474  34.638   5.825
 5284POPC   GL267730   7.347  34.353   6.001
 5284POPC   C1A67731   7.408  34.782   6.255
 5284POPC   D2A67732   7.479  34.596   6.656
 5284POPC   C3A67733   7.226  34.391   6.925
 5284POPC   C4A67734   7.287  34.705   7.233
 5284POPC   C1B67735   7.727  34.367   6.266
 5284POPC   C2B67736   7.798  34.178   6.653
 5284POPC   C3B67737   7.736  34.362   7.044
 5284POPC   C4B67738   7.723  34.539   7.426
 5285POPC   NC367739   2.984  22.663   5.282
 5285POPC   PO467740   2.665  23.246   5.425
 5285POPC   GL167741   2.722  22.951   5.760
 5285POPC   GL267742   3.062  22.890   5.741
 5285POPC   C1A67743   2.646  22.950   6.217
 5285POPC   D2A67744   2.504  22.736   6.576
 5285POPC   C3A67745   2.425  23.022   6.939
 5285POPC   C4A67746   2.365  23.428   7.157
 5285POPC   C1B67747   3.164  22.819   6.164
 5285POPC   C2B67748   3.002  22.668   6.573
 5285POPC   C3B67749   2.852  22.737   7.018
 5285POPC   C4B67750   2.846  22.662   7.492
 5286POPC   NC367751  10.271  41.681   5.446
 5286POPC   PO467752  10.896  41.398   5.247
 5286POPC   GL167753  10.753  41.390   5.732
 5286POPC   GL267754  10.413  41.439   5.876
 5286POPC   C1A67755  10.781  41.412   6.224
 5286POPC   D2A67756  10.831  41.639   6.626
 5286POPC   C3A67757  10.737  41.483   7.042
 5286POPC   C4A67758  10.882  41.200   7.351
 5286POPC   C1B67759  10.283  41.573   6.315
 5286POPC   C2B67760  10.312  41.583   6.774
 5286POPC   C3B67761  10.294  41.712   7.220
 5286POPC   C4B67762  10.254  41.816   7.680
 5287POPC   NC367763  29.506  19.266   5.254
 5287POPC   PO467764  29.099  18.776   5.137
 5287POPC   GL167765  29.223  18.843   5.600
 5287POPC   GL267766  29.208  19.208   5.699
 5287POPC   C1A67767  29.287  18.834   6.066
 5287POPC   D2A67768  29.058  18.910   6.497
 5287POPC   C3A67769  29.326  18.795   6.853
 5287POPC   C4A67770  29.309  18.826   7.305
 5287POPC   C1B67771  29.060  19.297   6.140
 5287POPC   C2B67772  29.225  19.399   6.569
 5287POPC   C3B67773  29.119  19.253   6.962
 5287POPC   C4B67774  29.339  19.337   7.304
 5288POPC   NC367775   3.091  13.291   5.687
 5288POPC   PO467776   2.954  13.880   5.389
 5288POPC   GL167777   2.640  13.715   5.756
 5288POPC   GL267778   2.914  13.647   5.964
 5288POPC   C1A67779   2.548  13.638   6.257
 5288POPC   D2A67780   2.895  13.865   6.543
 5288POPC   C3A67781   2.847  13.769   6.989
 5288POPC   C4A67782   2.493  13.534   7.041
 5288POPC   C1B67783   3.041  13.407   6.344
 5288POPC   C2B67784   3.198  13.487   6.752
 5288POPC   C3B67785   3.225  13.356   7.163
 5288POPC   C4B67786   2.851  13.417   7.387
 5289POPC   NC367787  21.944  44.519   5.515
 5289POPC   PO467788  22.406   0.002   5.311
 5289POPC   GL167789  22.335  44.901   5.752
 5289POPC   GL267790  21.961  44.967   5.784
 5289POPC   C1A67791  22.502  44.796   6.176
 5289POPC   D2A67792  22.504  44.543   6.576
 5289POPC   C3A67793  22.456  44.731   7.022
 5289POPC   C4A67794  22.292  44.530   7.422
 5289POPC   C1B67795  22.015  44.684   6.148
 5289POPC   C2B67796  21.967  44.676   6.580
 5289POPC   C3B67797  21.971  44.575   6.994
 5289POPC   C4B67798  21.830  44.740   7.327
 5290POPC   NC367799   6.298  42.481   5.324
 5290POPC   PO467800   6.958  42.119   5.432
 5290POPC   GL167801   6.859  42.337   5.795
 5290POPC   GL267802   6.507  42.366   5.804
 5290POPC   C1A67803   6.850  42.342   6.208
 5290POPC   D2A67804   6.592  42.509   6.475
 5290POPC   C3A67805   6.775  42.339   6.816
 5290POPC   C4A67806   6.625  42.404   7.182
 5290POPC   C1B67807   6.453  42.056   6.139
 5290POPC   C2B67808   6.329  42.099   6.577
 5290POPC   C3B67809   6.313  42.044   6.983
 5290POPC   C4B67810   6.398  41.924   7.365
 5291POPC   NC367811  23.446  44.138   5.413
 5291POPC   PO467812  23.763  43.550   5.571
 5291POPC   GL167813  23.660  43.750   5.909
 5291POPC   GL267814  23.855  44.055   5.947
 5291POPC   C1A67815  23.486  43.955   6.274
 5291POPC   D2A67816  23.602  43.870   6.671
 5291POPC   C3A67817  23.485  44.137   7.001
 5291POPC   C4A67818  23.657  43.848   7.272
 5291POPC   C1B67819  24.001  43.722   6.279
 5291POPC   C2B67820  24.092  43.666   6.719
 5291POPC   C3B67821  24.028  44.047   6.977
 5291POPC   C4B67822  23.856  44.307   7.342
 5292POPC   NC367823  26.865  38.298   5.418
 5292POPC   PO467824  26.951  37.626   5.387
 5292POPC   GL167825  26.810  37.642   5.826
 5292POPC   GL267826  27.085  37.731   6.029
 5292POPC   C1A67827  26.604  37.838   6.189
 5292POPC   D2A67828  26.772  38.030   6.530
 5292POPC   C3A67829  26.722  37.902   6.971
 5292POPC   C4A67830  26.550  37.593   7.204
 5292POPC   C1B67831  26.895  37.427   6.310
 5292POPC   C2B67832  26.835  37.457   6.756
 5292POPC   C3B67833  27.012  37.331   7.156
 5292POPC   C4B67834  27.278  37.320   7.518
 5293POPC   NC367835  33.869  25.742   5.230
 5293POPC   PO467836  33.859  26.279   5.076
 5293POPC   GL167837  33.753  26.142   5.548
 5293POPC   GL267838  33.746  25.791   5.725
 5293POPC   C1A67839  33.622  26.190   6.017
 5293POPC   D2A67840  33.790  26.209   6.454
 5293POPC   C3A67841  33.656  26.434   6.837
 5293POPC   C4A67842  33.844  26.392   7.279
 5293POPC   C1B67843  33.861  25.754   6.194
 5293POPC   C2B67844  33.750  25.731   6.648
 5293POPC   C3B67845  33.872  25.600   7.057
 5293POPC   C4B67846  34.008  25.873   7.361
 5294POPC   NC367847  29.838   6.296   5.324
 5294POPC   PO467848  30.271   6.733   5.163
 5294POPC   GL167849  30.079   6.814   5.631
 5294POPC   GL267850  29.760   6.632   5.735
 5294POPC   C1A67851  30.069   6.830   6.143
 5294POPC   D2A67852  30.208   6.695   6.619
 5294POPC   C3A67853  30.140   6.964   6.997
 5294POPC   C4A67854  29.758   7.066   7.172
 5294POPC   C1B67855  29.557   6.478   6.118
 5294POPC   C2B67856  29.412   6.563   6.562
 5294POPC   C3B67857  29.737   6.658   6.870
 5294POPC   C4B67858  30.089   6.427   7.096
 5295POPC   NC367859  23.003   8.210   5.405
 5295POPC   PO467860  22.774   7.609   5.626
 5295POPC   GL167861  22.760   7.973   5.902
 5295POPC   GL267862  23.005   8.247   5.906
 5295POPC   C1A67863  22.640   8.220   6.251
 5295POPC   D2A67864  22.859   8.430   6.535
 5295POPC   C3A67865  22.920   8.187   6.825
 5295POPC   C4A67866  22.704   8.307   7.168
 5295POPC   C1B67867  23.189   8.094   6.287
 5295POPC   C2B67868  23.519   8.181   6.565
 5295POPC   C3B67869  23.444   8.170   6.960
 5295POPC   C4B67870  23.155   8.083   7.253
 5296POPC   NC367871   6.884  27.154   5.479
 5296POPC   PO467872   6.414  26.745   5.354
 5296POPC   GL167873   6.486  26.886   5.728
 5296POPC   GL267874   6.814  26.707   5.742
 5296POPC   C1A67875   6.290  26.965   6.111
 5296POPC   D2A67876   6.215  26.754   6.482
 5296POPC   C3A67877   6.282  26.933   6.910
 5296POPC   C4A67878   6.436  26.723   7.260
 5296POPC   C1B67879   6.786  26.843   6.163
 5296POPC   C2B67880   6.945  26.732   6.539
 5296POPC   C3B67881   6.889  26.905   6.923
 5296POPC   C4B67882   6.841  27.004   7.319
 5297POPC   NC367883  35.300  14.934   5.411
 5297POPC   PO467884  35.319  15.535   5.509
 5297POPC   GL167885  35.299  15.225   5.842
 5297POPC   GL267886  35.588  14.940   5.832
 5297POPC   C1A67887  35.203  15.281   6.293
 5297POPC   D2A67888  35.167  15.106   6.711
 5297POPC   C3A67889  35.389  15.197   7.077
 5297POPC   C4A67890  35.269  15.297   7.504
 5297POPC   C1B67891  35.610  14.933   6.274
 5297POPC   C2B67892  35.741  14.871   6.696
 5297POPC   C3B67893  35.775  14.841   7.117
 5297POPC   C4B67894  35.479  14.811   7.488
 5298POPC   NC367895  16.026  33.091   5.194
 5298POPC   PO467896  16.136  32.506   5.454
 5298POPC   GL167897  15.998  32.867   5.739
 5298POPC   GL267898  15.861  33.230   5.664
 5298POPC   C1A67899  15.973  32.935   6.197
 5298POPC   D2A67900  15.782  33.151   6.549
 5298POPC   C3A67901  15.871  33.055   6.954
 5298POPC   C4A67902  15.948  32.645   7.169
 5298POPC   C1B67903  16.216  33.328   5.956
 5298POPC   C2B67904  16.220  33.407   6.410
 5298POPC   C3B67905  16.344  33.382   6.841
 5298POPC   C4B67906  16.180  33.337   7.250
 5299POPC   NC367907  10.578  24.042   5.206
 5299POPC   PO467908  10.257  23.665   5.618
 5299POPC   GL167909  10.641  23.649   5.816
 5299POPC   GL267910  10.689  24.018   5.755
 5299POPC   C1A67911  10.572  23.532   6.247
 5299POPC   D2A67912  10.444  23.753   6.640
 5299POPC   C3A67913  10.535  23.494   7.001
 5299POPC   C4A67914  10.201  23.487   7.305
 5299POPC   C1B67915  10.563  24.048   6.202
 5299POPC   C2B67916  10.832  24.105   6.573
 5299POPC   C3B67917  10.777  23.978   7.007
 5299POPC   C4B67918  10.370  23.944   7.204
 5300POPC   NC367919   4.986  12.877   5.402
 5300POPC   PO467920   5.671  12.794   5.425
 5300POPC   GL167921   5.312  12.645   5.725
 5300POPC   GL267922   5.114  12.955   5.878
 5300POPC   C1A67923   5.080  12.484   6.088
 5300POPC   D2A67924   4.958  12.721   6.448
 5300POPC   C3A67925   5.129  12.605   6.850
 5300POPC   C4A67926   5.105  12.745   7.264
 5300POPC   C1B67927   4.726  13.028   6.103
 5300POPC   C2B67928   4.640  13.116   6.563
 5300POPC   C3B67929   4.776  13.030   7.004
 5300POPC   C4B67930   4.891  13.145   7.474
 5301POPC   NC367931  13.777   1.238   5.521
 5301POPC   PO467932  14.009   0.695   5.575
 5301POPC   GL167933  13.915   1.002   5.950
 5301POPC   GL267934  14.039   1.373   5.965
 5301POPC   C1A67935  13.813   1.117   6.408
 5301POPC   D2A67936  13.847   1.396   6.793
 5301POPC   C3A67937  13.549   1.272   7.135
 5301POPC   C4A67938  13.276   0.945   7.354
 5301POPC   C1B67939  13.829   1.619   6.313
 5301POPC   C2B67940  13.553   1.811   6.656
 5301POPC   C3B67941  13.302   1.765   7.055
 5301POPC   C4B67942  13.143   1.473   7.391
 5302POPC   NC367943  43.706  29.247   5.285
 5302POPC   PO467944  43.951  28.691   5.568
 5302POPC   GL167945  43.996  29.063   5.798
 5302POPC   GL267946  43.730  29.330   5.786
 5302POPC   C1A67947  43.979  29.195   6.233
 5302POPC   D2A67948  43.785  28.980   6.589
 5302POPC   C3A67949  44.031  28.995   6.968
 5302POPC   C4A67950  44.194  29.283   7.233
 5302POPC   C1B67951  43.502  29.420   6.168
 5302POPC   C2B67952  43.379  29.305   6.577
 5302POPC   C3B67953  43.586  29.316   6.944
 5302POPC   C4B67954  43.692  29.287   7.345
 5303POPC   NC367955   8.308  18.295   5.501
 5303POPC   PO467956   7.796  18.149   5.675
 5303POPC   GL167957   8.189  17.993   5.920
 5303POPC   GL267958   8.535  18.130   5.919
 5303POPC   C1A67959   8.285  18.048   6.357
 5303POPC   D2A67960   8.224  18.367   6.697
 5303POPC   C3A67961   8.061  18.198   7.090
 5303POPC   C4A67962   7.893  17.941   7.438
 5303POPC   C1B67963   8.619  18.445   6.263
 5303POPC   C2B67964   8.700  18.620   6.706
 5303POPC   C3B67965   8.511  18.470   7.108
 5303POPC   C4B67966   8.433  18.646   7.485
 5304POPC   NC367967  43.690   4.700   5.368
 5304POPC   PO467968  43.872   4.046   5.429
 5304POPC   GL167969  43.999   4.250   5.819
 5304POPC   GL267970  43.897   4.586   5.816
 5304POPC   C1A67971  44.180   4.452   6.217
 5304POPC   D2A67972  44.379   4.514   6.613
 5304POPC   C3A67973  44.101   4.469   6.956
 5304POPC   C4A67974  43.811   4.287   7.243
 5304POPC   C1B67975  43.644   4.463   6.170
 5304POPC   C2B67976  43.659   4.323   6.590
 5304POPC   C3B67977  43.511   4.566   6.900
 5304POPC   C4B67978  43.556   4.776   7.256
 5305POPC   NC367979  28.957  23.051   5.515
 5305POPC   PO467980  29.464  22.665   5.396
 5305POPC   GL167981  29.297  22.769   5.797
 5305POPC   GL267982  29.343  23.142   5.825
 5305POPC   C1A67983  29.059  22.823   6.186
 5305POPC   D2A67984  28.990  23.043   6.592
 5305POPC   C3A67985  29.134  22.846   7.019
 5305POPC   C4A67986  29.318  22.823   7.467
 5305POPC   C1B67987  29.152  23.351   6.166
 5305POPC   C2B67988  29.376  23.396   6.526
 5305POPC   C3B67989  29.225  23.367   6.936
 5305POPC   C4B67990  29.476  23.301   7.266
 5306POPC   NC367991   3.831  29.145   5.501
 5306POPC   PO467992   3.218  29.358   5.459
 5306POPC   GL167993   3.432  29.119   5.821
 5306POPC   GL267994   3.720  28.847   5.876
 5306POPC   C1A67995   3.609  29.199   6.221
 5306POPC   D2A67996   3.723  29.138   6.650
 5306POPC   C3A67997   3.451  29.141   7.006
 5306POPC   C4A67998   3.375  29.191   7.439
 5306POPC   C1B67999   3.948  28.789   6.243
 5306POPC   C2B68000   3.847  28.612   6.633
 5306POPC   C3B68001   3.855  28.805   7.051
 5306POPC   C4B68002   3.687  28.739   7.457
 5307POPC   NC368003  24.556  17.205   5.486
 5307POPC   PO468004  24.440  16.688   5.064
 5307POPC   GL168005  24.484  16.643   5.548
 5307POPC   GL268006  24.789  16.787   5.663
 5307POPC   C1A68007  24.355  16.591   6.031
 5307POPC   D2A68008  24.149  16.563   6.470
 5307POPC   C3A68009  24.280  16.682   6.890
 5307POPC   C4A68010  24.404  16.362   7.173
 5307POPC   C1B68011  24.875  16.679   6.094
 5307POPC   C2B68012  24.678  16.629   6.509
 5307POPC   C3B68013  24.802  16.590   6.939
 5307POPC   C4B68014  24.951  16.804   7.274
 5308POPC   NC368015  36.790  23.378   5.447
 5308POPC   PO468016  37.041  22.681   5.511
 5308POPC   GL168017  36.998  22.996   5.812
 5308POPC   GL268018  36.658  22.965   5.801
 5308POPC   C1A68019  36.957  23.143   6.247
 5308POPC   D2A68020  36.829  23.001   6.685
 5308POPC   C3A68021  36.697  23.251   7.058
 5308POPC   C4A68022  36.828  23.202   7.492
 5308POPC   C1B68023  36.764  22.660   6.146
 5308POPC   C2B68024  36.690  22.521   6.573
 5308POPC   C3B68025  36.776  22.585   6.998
 5308POPC   C4B68026  37.063  22.877   7.167
 5309POPC   NC368027  34.213  40.158   5.493
 5309POPC   PO468028  34.807  39.857   5.172
 5309POPC   GL168029  34.825  39.970   5.648
 5309POPC   GL268030  34.842  40.318   5.796
 5309POPC   C1A68031  34.800  39.872   6.114
 5309POPC   D2A68032  34.859  39.702   6.564
 5309POPC   C3A68033  34.570  39.737   6.936
 5309POPC   C4A68034  34.703  39.977   7.307
 5309POPC   C1B68035  34.449  40.254   6.091
 5309POPC   C2B68036  34.482  40.065   6.484
 5309POPC   C3B68037  34.675  40.209   6.837
 5309POPC   C4B68038  34.293  40.194   7.096
 5310POPC   NC368039   0.155   1.752   5.471
 5310POPC   PO468040   0.463   2.303   5.491
 5310POPC   GL168041   0.363   2.078   5.855
 5310POPC   GL268042   0.683   1.908   5.806
 5310POPC   C1A68043   0.319   2.041   6.343
 5310POPC   D2A68044   0.286   1.759   6.728
 5310POPC   C3A68045   0.080   1.973   7.066
 5310POPC   C4A68046   0.178   2.401   7.169
 5310POPC   C1B68047   0.762   2.222   6.159
 5310POPC   C2B68048   0.816   2.128   6.617
 5310POPC   C3B68049   0.599   2.119   7.021
 5310POPC   C4B68050   0.651   2.274   7.449
 5311POPC   NC368051   7.607  25.615   5.399
 5311POPC   PO468052   7.159  25.181   5.561
 5311POPC   GL168053   7.446  25.237   5.895
 5311POPC   GL268054   7.666  25.528   5.887
 5311POPC   C1A68055   7.304  25.353   6.327
 5311POPC   D2A68056   7.180  25.603   6.713
 5311POPC   C3A68057   7.335  25.371   7.072
 5311POPC   C4A68058   7.230  25.058   7.415
 5311POPC   C1B68059   7.819  25.393   6.256
 5311POPC   C2B68060   7.707  25.290   6.665
 5311POPC   C3B68061   7.824  25.465   7.023
 5311POPC   C4B68062   7.632  25.776   7.258
 5312POPC   NC368063  37.273  32.521   4.963
 5312POPC   PO468064  36.987  33.041   5.299
 5312POPC   GL168065  37.007  32.925   5.745
 5312POPC   GL268066  37.115  33.227   5.924
 5312POPC   C1A68067  37.145  32.780   6.157
 5312POPC   D2A68068  37.263  33.026   6.530
 5312POPC   C3A68069  37.235  32.835   6.898
 5312POPC   C4A68070  37.082  33.003   7.242
 5312POPC   C1B68071  36.822  33.154   6.304
 5312POPC   C2B68072  36.656  33.129   6.744
 5312POPC   C3B68073  36.553  33.137   7.178
 5312POPC   C4B68074  36.511  33.216   7.625
 5313POPC   NC368075   9.430  35.194   5.010
 5313POPC   PO468076   9.958  35.509   5.382
 5313POPC   GL168077   9.736  35.323   5.689
 5313POPC   GL268078   9.648  34.988   5.541
 5313POPC   C1A68079   9.816  35.450   6.129
 5313POPC   D2A68080   9.648  35.568   6.540
 5313POPC   C3A68081   9.860  35.558   6.947
 5313POPC   C4A68082   9.743  35.706   7.360
 5313POPC   C1B68083   9.619  34.949   6.014
 5313POPC   C2B68084   9.737  35.058   6.439
 5313POPC   C3B68085   9.604  35.114   6.870
 5313POPC   C4B68086   9.765  35.169   7.296
 5314POPC   NC368087  13.044   6.155   5.137
 5314POPC   PO468088  12.622   5.671   5.369
 5314POPC   GL168089  12.846   5.931   5.691
 5314POPC   GL268090  13.183   5.754   5.666
 5314POPC   C1A68091  12.673   6.098   6.125
 5314POPC   D2A68092  12.595   5.905   6.563
 5314POPC   C3A68093  12.825   6.012   6.970
 5314POPC   C4A68094  12.799   6.029   7.440
 5314POPC   C1B68095  13.137   5.882   6.118
 5314POPC   C2B68096  13.118   5.755   6.549
 5314POPC   C3B68097  13.290   5.634   6.940
 5314POPC   C4B68098  13.065   5.647   7.281
 5315POPC   NC368099  24.933  25.295   5.416
 5315POPC   PO468100  25.614  25.295   5.398
 5315POPC   GL168101  25.322  25.262   5.775
 5315POPC   GL268102  25.023  25.024   5.831
 5315POPC   C1A68103  25.220  25.355   6.196
 5315POPC   D2A68104  25.017  25.608   6.511
 5315POPC   C3A68105  25.208  25.407   6.838
 5315POPC   C4A68106  25.441  25.297   7.169
 5315POPC   C1B68107  25.102  24.855   6.238
 5315POPC   C2B68108  25.249  24.926   6.663
 5315POPC   C3B68109  25.056  24.936   7.064
 5315POPC   C4B68110  25.044  25.146   7.452
 5316POPC   NC368111   5.209   7.615   5.312
 5316POPC   PO468112   4.967   7.004   5.279
 5316POPC   GL168113   5.207   7.192   5.645
 5316POPC   GL268114   4.989   7.496   5.773
 5316POPC   C1A68115   5.418   7.346   6.050
 5316POPC   D2A68116   5.282   7.623   6.420
 5316POPC   C3A68117   5.226   7.464   6.846
 5316POPC   C4A68118   4.981   7.650   7.169
 5316POPC   C1B68119   4.938   7.155   6.097
 5316POPC   C2B68120   4.793   7.137   6.526
 5316POPC   C3B68121   4.771   7.236   6.949
 5316POPC   C4B68122   4.874   7.035   7.314
 5317POPC   NC368123  38.947  26.331   5.478
 5317POPC   PO468124  39.409  25.812   5.345
 5317POPC   GL168125  39.172  25.941   5.698
 5317POPC   GL268126  39.443  25.898   5.916
 5317POPC   C1A68127  38.982  26.141   6.092
 5317POPC   D2A68128  38.955  26.240   6.519
 5317POPC   C3A68129  39.204  26.037   6.830
 5317POPC   C4A68130  39.114  25.986   7.250
 5317POPC   C1B68131  39.344  25.805   6.356
 5317POPC   C2B68132  39.348  25.528   6.726
 5317POPC   C3B68133  39.506  25.633   7.117
 5317POPC   C4B68134  39.614  26.066   7.221
 5318POPC   NC368135  44.293  19.805   5.246
 5318POPC   PO468136  44.971  19.577   5.344
 5318POPC   GL168137  44.803  19.731   5.720
 5318POPC   GL268138  44.432  19.704   5.748
 5318POPC   C1A68139  44.917  19.888   6.116
 5318POPC   D2A68140  44.689  19.841   6.463
 5318POPC   C3A68141  44.855  19.794   6.840
 5318POPC   C4A68142  44.965  19.988   7.193
 5318POPC   C1B68143  44.226  19.691   6.181
 5318POPC   C2B68144  44.191  19.853   6.607
 5318POPC   C3B68145  44.366  19.655   6.967
 5318POPC   C4B68146  44.199  19.625   7.374
 5319POPC   NC368147  34.089  19.221   5.481
 5319POPC   PO468148  33.571  18.821   5.345
 5319POPC   GL168149  33.812  18.921   5.757
 5319POPC   GL268150  33.847  19.229   5.924
 5319POPC   C1A68151  33.946  18.798   6.189
 5319POPC   D2A68152  33.925  19.102   6.533
 5319POPC   C3A68153  33.943  18.912   6.916
 5319POPC   C4A68154  33.961  19.198   7.233
 5319POPC   C1B68155  33.582  19.505   6.124
 5319POPC   C2B68156  33.375  19.493   6.501
 5319POPC   C3B68157  33.592  19.483   6.878
 5319POPC   C4B68158  33.505  19.427   7.288
 5320POPC   NC368159  18.057   6.147   5.277
 5320POPC   PO468160  18.537   5.700   5.572
 5320POPC   GL168161  18.158   5.796   5.838
 5320POPC   GL268162  18.016   6.135   5.777
 5320POPC   C1A68163  18.124   5.710   6.297
 5320POPC   D2A68164  17.907   5.900   6.670
 5320POPC   C3A68165  18.115   5.783   7.072
 5320POPC   C4A68166  18.560   5.909   7.060
 5320POPC   C1B68167  18.192   6.218   6.171
 5320POPC   C2B68168  18.219   6.324   6.613
 5320POPC   C3B68169  18.025   6.270   7.011
 5320POPC   C4B68170  17.893   6.320   7.435
 5321POPC   NC368171  19.591  40.484   5.560
 5321POPC   PO468172  19.530  39.855   5.517
 5321POPC   GL168173  19.672  39.981   5.943
 5321POPC   GL268174  19.706  40.326   6.015
 5321POPC   C1A68175  19.892  39.941   6.369
 5321POPC   D2A68176  20.073  39.700   6.737
 5321POPC   C3A68177  19.720  39.575   7.064
 5321POPC   C4A68178  19.527  39.802   7.448
 5321POPC   C1B68179  19.665  40.533   6.389
 5321POPC   C2B68180  19.665  40.252   6.719
 5321POPC   C3B68181  19.453  40.098   7.057
 5321POPC   C4B68182  19.446  40.283   7.541
 5322POPC   NC368183  15.025  29.244   5.463
 5322POPC   PO468184  15.424  28.778   5.221
 5322POPC   GL168185  15.341  28.791   5.773
 5322POPC   GL268186  15.182  29.089   5.918
 5322POPC   C1A68187  15.510  28.950   6.246
 5322POPC   D2A68188  15.360  29.340   6.472
 5322POPC   C3A68189  15.158  29.312   6.884
 5322POPC   C4A68190  15.185  29.093   7.262
 5322POPC   C1B68191  15.039  28.737   6.240
 5322POPC   C2B68192  14.933  28.744   6.695
 5322POPC   C3B68193  14.740  28.981   7.048
 5322POPC   C4B68194  14.783  28.926   7.529
 5323POPC   NC368195  13.896  13.922   5.382
 5323POPC   PO468196  13.239  13.726   5.341
 5323POPC   GL168197  13.324  13.582   5.725
 5323POPC   GL268198  13.664  13.592   5.706
 5323POPC   C1A68199  13.462  13.447   6.141
 5323POPC   D2A68200  13.810  13.409   6.440
 5323POPC   C3A68201  13.657  13.335   6.838
 5323POPC   C4A68202  13.685  13.359   7.276
 5323POPC   C1B68203  13.876  13.788   6.071
 5323POPC   C2B68204  13.985  13.880   6.528
 5323POPC   C3B68205  14.034  13.672   6.956
 5323POPC   C4B68206  14.000  13.906   7.349
 5324POPC   NC368207  31.257  29.257   5.360
 5324POPC   PO468208  31.319  28.653   5.527
 5324POPC   GL168209  31.532  29.058   5.753
 5324POPC   GL268210  31.330  29.312   5.894
 5324POPC   C1A68211  31.845  29.342   6.020
 5324POPC   D2A68212  32.050  29.351   6.447
 5324POPC   C3A68213  31.836  29.230   6.848
 5324POPC   C4A68214  31.948  28.901   7.188
 5324POPC   C1B68215  31.448  29.156   6.303
 5324POPC   C2B68216  31.401  28.970   6.725
 5324POPC   C3B68217  31.399  28.882   7.171
 5324POPC   C4B68218  31.395  28.878   7.626
 5325POPC   NC368219  30.519   7.123   5.308
 5325POPC   PO468220  29.881   7.413   5.423
 5325POPC   GL168221  29.824   7.505   5.835
 5325POPC   GL268222  29.507   7.669   5.808
 5325POPC   C1A68223  29.926   7.361   6.243
 5325POPC   D2A68224  29.900   7.274   6.693
 5325POPC   C3A68225  30.030   7.494   7.078
 5325POPC   C4A68226  30.133   7.279   7.475
 5325POPC   C1B68227  29.648   7.795   6.226
 5325POPC   C2B68228  29.733   7.772   6.669
 5325POPC   C3B68229  29.538   7.536   7.002
 5325POPC   C4B68230  29.620   7.452   7.440
 5326POPC   NC368231   5.704  23.327   5.434
 5326POPC   PO468232   6.027  23.930   5.503
 5326POPC   GL168233   5.926  23.633   5.816
 5326POPC   GL268234   5.550  23.628   5.826
 5326POPC   C1A68235   6.148  23.552   6.211
 5326POPC   D2A68236   5.996  23.443   6.623
 5326POPC   C3A68237   6.115  23.673   6.974
 5326POPC   C4A68238   5.919  23.610   7.352
 5326POPC   C1B68239   5.631  23.560   6.242
 5326POPC   C2B68240   5.600  23.795   6.599
 5326POPC   C3B68241   5.590  23.635   6.973
 5326POPC   C4B68242   5.448  23.835   7.349
 5327POPC   NC368243  35.601  11.981   5.577
 5327POPC   PO468244  35.149  12.343   5.497
 5327POPC   GL168245  35.337  12.257   5.912
 5327POPC   GL268246  35.182  11.939   5.900
 5327POPC   C1A68247  35.371  12.014   6.347
 5327POPC   D2A68248  35.709  11.792   6.570
 5327POPC   C3A68249  35.863  12.013   6.938
 5327POPC   C4A68250  35.595  11.908   7.267
 5327POPC   C1B68251  34.803  11.845   6.155
 5327POPC   C2B68252  34.661  11.891   6.576
 5327POPC   C3B68253  35.032  11.923   6.853
 5327POPC   C4B68254  35.100  12.031   7.276
 5328POPC   NC368255  24.352  23.086   5.467
 5328POPC   PO468256  24.805  22.649   5.395
 5328POPC   GL168257  24.551  22.676   5.762
 5328POPC   GL268258  24.720  22.960   5.842
 5328POPC   C1A68259  24.422  22.757   6.216
 5328POPC   D2A68260  24.430  23.001   6.614
 5328POPC   C3A68261  24.499  22.755   6.986
 5328POPC   C4A68262  24.799  22.516   7.200
 5328POPC   C1B68263  24.678  23.196   6.195
 5328POPC   C2B68264  24.545  23.550   6.400
 5328POPC   C3B68265  24.263  23.509   6.724
 5328POPC   C4B68266  24.327  23.222   7.065
 5329POPC   NC368267  38.113  32.853   5.392
 5329POPC   PO468268  38.738  33.162   5.451
 5329POPC   GL168269  38.670  32.897   5.815
 5329POPC   GL268270  38.330  32.977   5.838
 5329POPC   C1A68271  38.572  32.891   6.275
 5329POPC   D2A68272  38.631  32.698   6.661
 5329POPC   C3A68273  38.623  32.959   7.000
 5329POPC   C4A68274  38.667  32.745   7.368
 5329POPC   C1B68275  38.120  33.156   6.196
 5329POPC   C2B68276  38.223  33.082   6.632
 5329POPC   C3B68277  38.194  33.261   7.038
 5329POPC   C4B68278  37.971  33.407   7.396
 5330POPC   NC368279  43.065  33.645   5.507
 5330POPC   PO468280  43.253  34.298   5.495
 5330POPC   GL168281  43.137  34.022   5.850
 5330POPC   GL268282  42.793  33.860   5.863
 5330POPC   C1A68283  43.128  33.789   6.241
 5330POPC   D2A68284  43.175  33.636   6.645
 5330POPC   C3A68285  43.252  33.957   6.998
 5330POPC   C4A68286  43.467  34.108   7.395
 5330POPC   C1B68287  42.750  33.468   6.122
 5330POPC   C2B68288  42.701  33.445   6.574
 5330POPC   C3B68289  42.804  33.631   7.005
 5330POPC   C4B68290  42.629  33.866   7.352
 5331POPC   NC368291  31.929  19.372   5.581
 5331POPC   PO468292  32.386  19.853   5.461
 5331POPC   GL168293  32.220  19.756   5.837
 5331POPC   GL268294  31.876  19.876   5.766
 5331POPC   C1A68295  32.381  19.624   6.261
 5331POPC   D2A68296  32.490  19.877   6.622
 5331POPC   C3A68297  32.666  19.775   7.010
 5331POPC   C4A68298  32.494  19.928   7.432
 5331POPC   C1B68299  31.854  19.685   6.189
 5331POPC   C2B68300  31.981  19.721   6.610
 5331POPC   C3B68301  32.180  19.665   7.002
 5331POPC   C4B68302  32.178  19.516   7.420
 5332POPC   NC368303  25.122  38.125   5.157
 5332POPC   PO468304  25.558  38.606   5.200
 5332POPC   GL168305  25.310  38.648   5.616
 5332POPC   GL268306  25.545  38.662   5.880
 5332POPC   C1A68307  25.145  38.417   6.034
 5332POPC   D2A68308  25.457  38.316   6.370
 5332POPC   C3A68309  25.376  38.308   6.811
 5332POPC   C4A68310  25.192  38.310   7.215
 5332POPC   C1B68311  25.216  38.893   6.160
 5332POPC   C2B68312  25.099  38.680   6.540
 5332POPC   C3B68313  25.140  38.765   6.959
 5332POPC   C4B68314  25.409  38.776   7.322
 5333POPC   NC368315  17.333   4.637   5.616
 5333POPC   PO468316  17.816   4.180   5.620
 5333POPC   GL168317  17.670   4.337   5.960
 5333POPC   GL268318  17.723   4.680   6.007
 5333POPC   C1A68319  17.744   4.328   6.379
 5333POPC   D2A68320  17.580   4.490   6.727
 5333POPC   C3A68321  17.616   4.190   7.012
 5333POPC   C4A68322  17.764   4.266   7.442
 5333POPC   C1B68323  17.317   4.595   6.261
 5333POPC   C2B68324  17.165   4.771   6.631
 5333POPC   C3B68325  17.130   4.568   7.029
 5333POPC   C4B68326  17.262   4.267   7.368
 5334POPC   NC368327   5.356  40.778   5.326
 5334POPC   PO468328   4.797  40.731   5.631
 5334POPC   GL168329   5.121  40.873   5.842
 5334POPC   GL268330   5.300  41.135   5.681
 5334POPC   C1A68331   5.086  40.922   6.280
 5334POPC   D2A68332   5.122  40.678   6.630
 5334POPC   C3A68333   4.909  40.889   6.950
 5334POPC   C4A68334   5.020  40.564   7.199
 5334POPC   C1B68335   5.489  41.123   6.080
 5334POPC   C2B68336   5.561  40.959   6.508
 5334POPC   C3B68337   5.441  40.948   6.930
 5334POPC   C4B68338   5.251  41.034   7.317
 5335POPC   NC368339  29.079  22.463   5.250
 5335POPC   PO468340  28.884  21.846   5.401
 5335POPC   GL168341  29.118  22.192   5.707
 5335POPC   GL268342  28.878  22.464   5.798
 5335POPC   C1A68343  29.286  22.337   6.155
 5335POPC   D2A68344  29.132  22.486   6.580
 5335POPC   C3A68345  29.179  22.235   6.963
 5335POPC   C4A68346  29.295  21.958   7.303
 5335POPC   C1B68347  28.796  22.193   6.189
 5335POPC   C2B68348  28.706  22.198   6.645
 5335POPC   C3B68349  28.768  21.922   6.988
 5335POPC   C4B68350  28.764  21.975   7.430
 5336POPC   NC368351  38.966  31.102   5.434
 5336POPC   PO468352  38.312  30.706   5.446
 5336POPC   GL168353  38.417  30.920   5.811
 5336POPC   GL268354  38.761  30.821   5.825
 5336POPC   C1A68355  38.458  30.967   6.250
 5336POPC   D2A68356  38.719  31.087   6.578
 5336POPC   C3A68357  38.521  31.007   6.959
 5336POPC   C4A68358  38.352  30.701   7.186
 5336POPC   C1B68359  38.737  30.510   6.183
 5336POPC   C2B68360  38.550  30.365   6.598
 5336POPC   C3B68361  38.741  30.407   7.019
 5336POPC   C4B68362  38.853  30.785   7.297
 5337POPC   NC368363  27.857  12.116   5.426
 5337POPC   PO468364  27.249  11.839   5.245
 5337POPC   GL168365  27.398  11.977   5.653
 5337POPC   GL268366  27.430  12.343   5.669
 5337POPC   C1A68367  27.410  11.934   6.117
 5337POPC   D2A68368  27.721  11.834   6.481
 5337POPC   C3A68369  27.730  12.027   6.905
 5337POPC   C4A68370  27.791  12.071   7.389
 5337POPC   C1B68371  27.291  12.443   6.110
 5337POPC   C2B68372  27.159  12.224   6.498
 5337POPC   C3B68373  27.090  11.968   6.860
 5337POPC   C4B68374  27.335  11.931   7.214
 5338POPC   NC368375  27.409   2.114   5.363
 5338POPC   PO468376  27.402   1.503   5.728
 5338POPC   GL168377  27.612   1.891   5.814
 5338POPC   GL268378  27.420   2.209   5.864
 5338POPC   C1A68379  27.772   1.921   6.245
 5338POPC   D2A68380  27.948   1.867   6.658
 5338POPC   C3A68381  27.555   1.927   6.877
 5338POPC   C4A68382  27.315   1.764   7.203
 5338POPC   C1B68383  27.617   2.414   6.217
 5338POPC   C2B68384  27.788   2.339   6.606
 5338POPC   C3B68385  27.914   2.246   7.023
 5338POPC   C4B68386  27.539   2.285   7.269
 5339POPC   NC368387  20.858  14.362   5.607
 5339POPC   PO468388  20.254  14.686   5.490
 5339POPC   GL168389  20.450  14.456   5.895
 5339POPC   GL268390  20.700  14.111   5.998
 5339POPC   C1A68391  20.574  14.467   6.332
 5339POPC   D2A68392  20.388  14.425   6.717
 5339POPC   C3A68393  20.684  14.515   6.999
 5339POPC   C4A68394  20.912  14.437   7.355
 5339POPC   C1B68395  20.368  13.888   6.209
 5339POPC   C2B68396  20.193  13.830   6.619
 5339POPC   C3B68397  20.474  13.945   6.916
 5339POPC   C4B68398  20.478  14.161   7.278
 5340POPC   NC368399  27.838   1.428   5.539
 5340POPC   PO468400  27.589   0.785   5.374
 5340POPC   GL168401  27.657   0.995   5.778
 5340POPC   GL268402  27.980   0.907   5.937
 5340POPC   C1A68403  27.557   0.899   6.240
 5340POPC   D2A68404  27.746   1.018   6.656
 5340POPC   C3A68405  27.617   0.957   7.095
 5340POPC   C4A68406  27.734   0.940   7.557
 5340POPC   C1B68407  27.858   1.292   6.177
 5340POPC   C2B68408  27.617   1.492   6.522
 5340POPC   C3B68409  27.692   1.446   6.973
 5340POPC   C4B68410  27.588   1.391   7.413
 5341POPC   NC368411  24.124  30.933   5.415
 5341POPC   PO468412  24.430  31.589   5.312
 5341POPC   GL168413  24.562  31.734   5.716
 5341POPC   GL268414  24.914  31.852   5.597
 5341POPC   C1A68415  24.465  31.630   6.195
 5341POPC   D2A68416  24.689  31.450   6.584
 5341POPC   C3A68417  24.465  31.299   6.946
 5341POPC   C4A68418  24.148  31.499   7.102
 5341POPC   C1B68419  24.913  31.874   6.064
 5341POPC   C2B68420  24.827  31.961   6.503
 5341POPC   C3B68421  24.977  31.785   6.901
 5341POPC   C4B68422  24.668  31.700   7.211
 5342POPC   NC368423  13.031   5.163   5.266
 5342POPC   PO468424  12.635   4.673   5.447
 5342POPC   GL168425  13.017   4.874   5.703
 5342POPC   GL268426  13.128   5.248   5.763
 5342POPC   C1A68427  13.033   4.915   6.141
 5342POPC   D2A68428  12.813   4.966   6.515
 5342POPC   C3A68429  12.942   4.681   6.821
 5342POPC   C4A68430  12.850   4.750   7.240
 5342POPC   C1B68431  13.272   5.386   6.185
 5342POPC   C2B68432  13.227   5.244   6.617
 5342POPC   C3B68433  12.958   5.202   6.997
 5342POPC   C4B68434  13.055   5.176   7.451
 5343POPC   NC368435   9.718  18.831   5.493
 5343POPC   PO468436   9.557  19.487   5.422
 5343POPC   GL168437   9.852  19.271   5.745
 5343POPC   GL268438   9.574  19.144   5.920
 5343POPC   C1A68439   9.999  19.005   6.166
 5343POPC   D2A68440  10.064  19.133   6.607
 5343POPC   C3A68441   9.777  18.937   6.917
 5343POPC   C4A68442   9.753  18.863   7.359
 5343POPC   C1B68443   9.711  19.411   6.291
 5343POPC   C2B68444   9.649  19.454   6.732
 5343POPC   C3B68445   9.521  19.339   7.115
 5343POPC   C4B68446   9.315  18.989   7.162
 5344POPC   NC368447  43.950  12.618   5.286
 5344POPC   PO468448  44.243  13.209   5.473
 5344POPC   GL168449  44.176  12.860   5.782
 5344POPC   GL268450  43.872  12.628   5.817
 5344POPC   C1A68451  44.008  12.949   6.210
 5344POPC   D2A68452  43.756  12.822   6.531
 5344POPC   C3A68453  43.957  12.859   6.871
 5344POPC   C4A68454  44.003  13.090   7.238
 5344POPC   C1B68455  43.946  12.433   6.227
 5344POPC   C2B68456  44.090  12.410   6.611
 5344POPC   C3B68457  43.915  12.281   6.972
 5344POPC   C4B68458  43.936  12.582   7.286
 5345POPC   NC368459  28.297   6.495   5.283
 5345POPC   PO468460  28.792   6.170   5.613
 5345POPC   GL168461  28.517   6.393   5.877
 5345POPC   GL268462  28.196   6.515   5.769
 5345POPC   C1A68463  28.269   6.261   6.227
 5345POPC   D2A68464  28.426   6.158   6.657
 5345POPC   C3A68465  28.478   6.539   6.928
 5345POPC   C4A68466  28.212   6.535   7.286
 5345POPC   C1B68467  28.295   6.808   6.092
 5345POPC   C2B68468  28.228   6.709   6.519
 5345POPC   C3B68469  28.107   6.957   6.880
 5345POPC   C4B68470  27.938   6.951   7.287
 5346POPC   NC368471   3.929  35.325   4.978
 5346POPC   PO468472   3.415  35.231   5.406
 5346POPC   GL168473   3.636  35.239   5.815
 5346POPC   GL268474   3.410  35.440   6.019
 5346POPC   C1A68475   3.849  35.269   6.236
 5346POPC   D2A68476   3.619  35.442   6.611
 5346POPC   C3A68477   3.601  35.314   7.044
 5346POPC   C4A68478   3.443  35.454   7.441
 5346POPC   C1B68479   3.352  35.789   6.341
 5346POPC   C2B68480   3.400  35.937   6.777
 5346POPC   C3B68481   3.195  35.826   7.175
 5346POPC   C4B68482   3.208  35.862   7.651
 5347POPC   NC368483  37.326  44.508   5.456
 5347POPC   PO468484  36.934  44.972   5.451
 5347POPC   GL168485  36.930  44.618   5.762
 5347POPC   GL268486  36.645  44.500   5.951
 5347POPC   C1A68487  37.140  44.506   6.134
 5347POPC   D2A68488  37.239  44.660   6.543
 5347POPC   C3A68489  37.024  44.588   6.923
 5347POPC   C4A68490  36.971  44.753   7.324
 5347POPC   C1B68491  36.582  44.816   6.219
 5347POPC   C2B68492  36.746  44.916   6.621
 5347POPC   C3B68493  36.555  44.809   7.016
 5347POPC   C4B68494  36.531  44.504   7.362
 5348POPC   NC368495  29.780   3.210   5.524
 5348POPC   PO468496  29.748   3.864   5.495
 5348POPC   GL168497  29.775   3.574   5.887
 5348POPC   GL268498  29.511   3.326   5.953
 5348POPC   C1A68499  29.914   3.464   6.315
 5348POPC   D2A68500  30.307   3.492   6.575
 5348POPC   C3A68501  30.168   3.463   6.982
 5348POPC   C4A68502  29.850   3.629   7.215
 5348POPC   C1B68503  29.599   3.015   6.251
 5348POPC   C2B68504  29.833   3.044   6.616
 5348POPC   C3B68505  29.668   3.325   6.860
 5348POPC   C4B68506  29.407   3.355   7.205
 5349POPC   NC368507  39.196  21.490   4.909
 5349POPC   PO468508  39.436  21.735   5.527
 5349POPC   GL168509  39.172  21.490   5.830
 5349POPC   GL268510  38.855  21.612   5.937
 5349POPC   C1A68511  39.225  21.427   6.264
 5349POPC   D2A68512  39.429  21.439   6.628
 5349POPC   C3A68513  39.198  21.202   6.916
 5349POPC   C4A68514  39.305  21.313   7.309
 5349POPC   C1B68515  38.788  21.760   6.297
 5349POPC   C2B68516  39.008  21.930   6.597
 5349POPC   C3B68517  39.106  21.724   6.946
 5349POPC   C4B68518  38.855  21.504   7.223
 5350POPC   NC368519  43.167  17.239   5.354
 5350POPC   PO468520  43.185  17.938   5.413
 5350POPC   GL168521  43.041  17.630   5.775
 5350POPC   GL268522  43.025  17.248   5.826
 5350POPC   C1A68523  43.010  17.548   6.245
 5350POPC   D2A68524  42.834  17.542   6.670
 5350POPC   C3A68525  43.124  17.407   6.979
 5350POPC   C4A68526  43.161  17.483   7.443
 5350POPC   C1B68527  43.149  17.024   6.201
 5350POPC   C2B68528  42.915  16.845   6.554
 5350POPC   C3B68529  42.898  16.954   6.994
 5350POPC   C4B68530  43.312  17.034   7.246
 5351POPC   NC368531  12.533  31.272   5.367
 5351POPC   PO468532  13.158  31.253   5.214
 5351POPC   GL168533  12.941  31.445   5.633
 5351POPC   GL268534  12.811  31.232   5.864
 5351POPC   C1A68535  12.947  31.691   6.076
 5351POPC   D2A68536  12.804  31.802   6.539
 5351POPC   C3A68537  12.924  31.664   6.972
 5351POPC   C4A68538  12.764  31.644   7.406
 5351POPC   C1B68539  12.600  31.170   6.274
 5351POPC   C2B68540  12.597  31.322   6.712
 5351POPC   C3B68541  12.583  31.236   7.147
 5351POPC   C4B68542  12.523  31.015   7.536
 5352POPC   NC368543  41.253  17.375   5.595
 5352POPC   PO468544  41.892  17.571   5.568
 5352POPC   GL168545  41.554  17.698   5.876
 5352POPC   GL268546  41.717  17.998   5.980
 5352POPC   C1A68547  41.374  17.446   6.251
 5352POPC   D2A68548  41.103  17.306   6.626
 5352POPC   C3A68549  41.332  17.335   6.971
 5352POPC   C4A68550  41.491  17.349   7.350
 5352POPC   C1B68551  41.867  17.701   6.287
 5352POPC   C2B68552  41.722  17.488   6.654
 5352POPC   C3B68553  41.877  17.552   7.046
 5352POPC   C4B68554  41.928  17.982   7.142
 5353POPC   NC368555  31.237  36.427   5.525
 5353POPC   PO468556  31.643  35.818   5.357
 5353POPC   GL168557  31.573  36.105   5.723
 5353POPC   GL268558  31.879  36.016   5.789
 5353POPC   C1A68559  31.419  36.225   6.153
 5353POPC   D2A68560  31.160  36.116   6.521
 5353POPC   C3A68561  31.339  36.165   6.921
 5353POPC   C4A68562  31.337  36.454   7.281
 5353POPC   C1B68563  31.788  35.865   6.171
 5353POPC   C2B68564  31.616  35.876   6.554
 5353POPC   C3B68565  31.781  35.920   6.954
 5353POPC   C4B68566  31.581  35.965   7.339
 5354POPC   NC368567  36.874  11.054   5.577
 5354POPC   PO468568  37.123  10.409   5.403
 5354POPC   GL168569  36.998  10.417   5.836
 5354POPC   GL268570  36.764  10.668   5.903
 5354POPC   C1A68571  37.037  10.510   6.301
 5354POPC   D2A68572  36.873  10.267   6.622
 5354POPC   C3A68573  36.894  10.374   7.004
 5354POPC   C4A68574  36.989  10.213   7.364
 5354POPC   C1B68575  36.680  10.898   6.257
 5354POPC   C2B68576  36.806  10.796   6.666
 5354POPC   C3B68577  37.232  10.699   6.774
 5354POPC   C4B68578  37.270  10.693   7.220
 5355POPC   NC368579  23.065  18.669   5.411
 5355POPC   PO468580  22.883  19.292   5.565
 5355POPC   GL168581  23.020  18.965   5.835
 5355POPC   GL268582  22.723  18.742   5.776
 5355POPC   C1A68583  23.160  19.031   6.262
 5355POPC   D2A68584  22.873  19.044   6.633
 5355POPC   C3A68585  23.120  19.038   6.990
 5355POPC   C4A68586  23.137  19.267   7.390
 5355POPC   C1B68587  22.625  18.824   6.195
 5355POPC   C2B68588  22.557  18.612   6.578
 5355POPC   C3B68589  22.461  18.824   6.950
 5355POPC   C4B68590  22.681  19.016   7.254
 5356POPC   NC368591  28.844  25.994   5.290
 5356POPC   PO468592  29.493  26.027   5.281
 5356POPC   GL168593  29.193  26.027   5.662
 5356POPC   GL268594  28.999  25.744   5.724
 5356POPC   C1A68595  29.038  26.161   6.090
 5356POPC   D2A68596  28.935  25.991   6.547
 5356POPC   C3A68597  29.066  25.999   6.974
 5356POPC   C4A68598  28.973  26.222   7.320
 5356POPC   C1B68599  29.015  25.644   6.166
 5356POPC   C2B68600  29.180  25.544   6.604
 5356POPC   C3B68601  29.055  25.481   7.049
 5356POPC   C4B68602  29.254  25.400   7.455
 5357POPC   NC368603  38.357  14.044   5.372
 5357POPC   PO468604  38.506  13.396   5.311
 5357POPC   GL168605  38.373  13.623   5.679
 5357POPC   GL268606  38.641  13.860   5.779
 5357POPC   C1A68607  38.364  13.598   6.131
 5357POPC   D2A68608  38.303  13.414   6.525
 5357POPC   C3A68609  38.564  13.550   6.836
 5357POPC   C4A68610  38.566  13.440   7.250
 5357POPC   C1B68611  38.838  13.822   6.215
 5357POPC   C2B68612  38.851  13.976   6.668
 5357POPC   C3B68613  38.724  13.961   7.137
 5357POPC   C4B68614  38.566  13.838   7.572
 5358POPC   NC368615  25.227  44.669   5.218
 5358POPC   PO468616  25.274  44.032   5.148
 5358POPC   GL168617  25.153  44.333   5.584
 5358POPC   GL268618  25.154  44.757   5.706
 5358POPC   C1A68619  25.209  44.401   6.061
 5358POPC   D2A68620  25.496  44.534   6.422
 5358POPC   C3A68621  25.301  44.714   6.788
 5358POPC   C4A68622  25.377  44.807   7.214
 5358POPC   C1B68623  24.959  44.994   6.085
 5358POPC   C2B68624  25.043   0.143   6.539
 5358POPC   C3B68625  24.979   0.087   6.996
 5358POPC   C4B68626  24.829  44.964   7.403
 5359POPC   NC368627  37.517  35.857   5.448
 5359POPC   PO468628  37.942  36.341   5.361
 5359POPC   GL168629  37.889  36.251   5.759
 5359POPC   GL268630  37.570  36.373   5.803
 5359POPC   C1A68631  37.837  35.940   6.080
 5359POPC   D2A68632  37.996  35.881   6.498
 5359POPC   C3A68633  37.757  35.917   6.892
 5359POPC   C4A68634  37.915  35.822   7.296
 5359POPC   C1B68635  37.711  36.420   6.258
 5359POPC   C2B68636  37.553  36.404   6.710
 5359POPC   C3B68637  37.496  36.398   7.172
 5359POPC   C4B68638  37.402  36.410   7.656
 5360POPC   NC368639  32.945   4.521   5.516
 5360POPC   PO468640  32.698   4.039   5.226
 5360POPC   GL168641  32.816   4.086   5.741
 5360POPC   GL268642  33.136   3.881   5.904
 5360POPC   C1A68643  32.900   4.355   6.153
 5360POPC   D2A68644  32.756   4.431   6.594
 5360POPC   C3A68645  33.005   4.545   6.971
 5360POPC   C4A68646  32.791   4.336   7.314
 5360POPC   C1B68647  33.372   4.175   6.192
 5360POPC   C2B68648  33.292   4.472   6.526
 5360POPC   C3B68649  33.534   4.550   6.888
 5360POPC   C4B68650  33.526   4.374   7.282
 5361POPC   NC368651  25.084   2.694   5.291
 5361POPC   PO468652  25.551   3.075   5.534
 5361POPC   GL168653  25.273   2.830   5.816
 5361POPC   GL268654  25.466   2.557   5.957
 5361POPC   C1A68655  25.173   2.763   6.281
 5361POPC   D2A68656  24.962   2.469   6.579
 5361POPC   C3A68657  25.055   2.530   7.001
 5361POPC   C4A68658  24.871   2.537   7.395
 5361POPC   C1B68659  25.703   2.862   6.171
 5361POPC   C2B68660  25.598   3.067   6.519
 5361POPC   C3B68661  25.337   3.172   6.835
 5361POPC   C4B68662  25.350   3.091   7.287
 5362POPC   NC368663  22.929  38.110   4.987
 5362POPC   PO468664  23.148  37.579   5.398
 5362POPC   GL168665  23.166  37.529   5.854
 5362POPC   GL268666  23.122  37.891   5.926
 5362POPC   C1A68667  23.263  37.629   6.315
 5362POPC   D2A68668  23.415  37.948   6.553
 5362POPC   C3A68669  23.234  37.925   6.957
 5362POPC   C4A68670  22.979  37.614   7.152
 5362POPC   C1B68671  22.958  38.031   6.368
 5362POPC   C2B68672  22.771  37.799   6.724
 5362POPC   C3B68673  22.565  37.891   7.152
 5362POPC   C4B68674  22.641  38.058   7.607
 5363POPC   NC368675   3.603   4.101   5.477
 5363POPC   PO468676   3.350   4.635   5.015
 5363POPC   GL168677   3.517   4.585   5.524
 5363POPC   GL268678   3.251   4.317   5.771
 5363POPC   C1A68679   3.631   4.580   6.011
 5363POPC   D2A68680   3.512   4.614   6.473
 5363POPC   C3A68681   3.149   4.559   6.759
 5363POPC   C4A68682   3.248   4.347   7.147
 5363POPC   C1B68683   3.163   4.261   6.248
 5363POPC   C2B68684   3.315   4.083   6.673
 5363POPC   C3B68685   3.270   3.857   7.072
 5363POPC   C4B68686   3.287   3.944   7.521
 5364POPC   NC368687  38.444  30.251   5.447
 5364POPC   PO468688  38.591  29.713   5.118
 5364POPC   GL168689  38.541  29.809   5.658
 5364POPC   GL268690  38.326  29.604   5.875
 5364POPC   C1A68691  38.577  29.988   6.107
 5364POPC   D2A68692  38.408  29.788   6.489
 5364POPC   C3A68693  38.556  29.903   6.900
 5364POPC   C4A68694  38.723  29.952   7.317
 5364POPC   C1B68695  38.002  29.794   6.138
 5364POPC   C2B68696  37.809  29.790   6.552
 5364POPC   C3B68697  37.984  29.972   6.937
 5364POPC   C4B68698  38.285  30.205   7.199
 5365POPC   NC368699  22.386  21.789   5.606
 5365POPC   PO468700  22.319  22.328   5.185
 5365POPC   GL168701  22.137  22.257   5.681
 5365POPC   GL268702  22.332  22.382   6.000
 5365POPC   C1A68703  21.967  22.077   6.113
 5365POPC   D2A68704  22.098  22.317   6.516
 5365POPC   C3A68705  21.986  22.187   6.951
 5365POPC   C4A68706  21.812  22.089   7.400
 5365POPC   C1B68707  22.468  22.018   6.305
 5365POPC   C2B68708  22.427  21.945   6.769
 5365POPC   C3B68709  22.405  22.073   7.199
 5365POPC   C4B68710  22.192  21.770   7.454
 5366POPC   NC368711  37.660  23.688   5.065
 5366POPC   PO468712  37.884  23.956   5.717
 5366POPC   GL168713  37.658  23.807   6.034
 5366POPC   GL268714  37.328  23.960   5.987
 5366POPC   C1A68715  37.814  23.465   6.281
 5366POPC   D2A68716  37.866  23.223   6.670
 5366POPC   C3A68717  37.640  23.501   6.961
 5366POPC   C4A68718  37.710  23.856   7.240
 5366POPC   C1B68719  37.148  24.235   6.220
 5366POPC   C2B68720  37.433  24.079   6.532
 5366POPC   C3B68721  37.357  23.951   6.912
 5366POPC   C4B68722  37.195  23.916   7.306
 5367POPC   NC368723  30.592  37.190   5.473
 5367POPC   PO468724  30.893  36.621   5.294
 5367POPC   GL168725  30.610  36.730   5.656
 5367POPC   GL268726  30.793  36.729   5.867
 5367POPC   C1A68727  30.462  37.006   6.109
 5367POPC   D2A68728  30.648  37.002   6.553
 5367POPC   C3A68729  30.498  37.011   7.024
 5367POPC   C4A68730  30.657  37.081   7.460
 5367POPC   C1B68731  31.003  36.541   6.174
 5367POPC   C2B68732  30.821  36.494   6.545
 5367POPC   C3B68733  30.991  36.544   6.909
 5367POPC   C4B68734  30.824  36.636   7.272
 5368POPC   NC368735  41.768  29.549   5.455
 5368POPC   PO468736  41.581  30.095   5.469
 5368POPC   GL168737  41.668  29.888   5.845
 5368POPC   GL268738  41.391  29.663   5.873
 5368POPC   C1A68739  41.660  29.883   6.288
 5368POPC   D2A68740  41.468  29.863   6.684
 5368POPC   C3A68741  41.403  30.196   6.974
 5368POPC   C4A68742  41.514  30.086   7.378
 5368POPC   C1B68743  41.391  29.411   6.250
 5368POPC   C2B68744  41.293  29.383   6.685
 5368POPC   C3B68745  41.493  29.527   7.077
 5368POPC   C4B68746  41.424  29.615   7.525
 5369POPC   NC368747  17.685  34.843   5.559
 5369POPC   PO468748  17.116  34.590   5.381
 5369POPC   GL168749  17.399  34.503   5.779
 5369POPC   GL268750  17.433  34.798   6.023
 5369POPC   C1A68751  17.605  34.360   6.173
 5369POPC   D2A68752  17.438  34.612   6.527
 5369POPC   C3A68753  17.361  34.517   6.969
 5369POPC   C4A68754  17.127  34.798   7.236
 5369POPC   C1B68755  17.853  34.800   6.226
 5369POPC   C2B68756  17.932  34.516   6.575
 5369POPC   C3B68757  17.944  34.727   6.957
 5369POPC   C4B68758  17.696  34.681   7.349
 5370POPC   NC368759  20.457  22.489   5.568
 5370POPC   PO468760  20.685  21.825   5.348
 5370POPC   GL168761  20.625  22.013   5.734
 5370POPC   GL268762  20.928  21.859   5.828
 5370POPC   C1A68763  20.639  22.128   6.184
 5370POPC   D2A68764  20.685  21.947   6.614
 5370POPC   C3A68765  20.683  22.203   7.010
 5370POPC   C4A68766  20.379  22.534   7.125
 5370POPC   C1B68767  21.060  21.794   6.219
 5370POPC   C2B68768  21.179  22.005   6.578
 5370POPC   C3B68769  21.057  21.753   6.933
 5370POPC   C4B68770  20.925  21.865   7.329
 5371POPC   NC368771  37.575  24.660   5.287
 5371POPC   PO468772  37.801  24.094   5.200
 5371POPC   GL168773  37.566  24.340   5.676
 5371POPC   GL268774  37.569  24.702   5.803
 5371POPC   C1A68775  37.650  24.350   6.163
 5371POPC   D2A68776  38.000  24.228   6.454
 5371POPC   C3A68777  37.913  24.195   6.880
 5371POPC   C4A68778  37.606  24.382   7.117
 5371POPC   C1B68779  37.801  24.834   6.189
 5371POPC   C2B68780  37.769  24.695   6.618
 5371POPC   C3B68781  37.739  24.887   7.019
 5371POPC   C4B68782  37.332  24.828   7.185
 5372POPC   NC368783  34.471  17.790   5.215
 5372POPC   PO468784  35.112  17.637   5.457
 5372POPC   GL168785  34.794  17.472   5.706
 5372POPC   GL268786  34.472  17.625   5.707
 5372POPC   C1A68787  34.806  17.536   6.138
 5372POPC   D2A68788  34.741  17.689   6.526
 5372POPC   C3A68789  34.916  17.561   6.891
 5372POPC   C4A68790  34.723  17.635   7.300
 5372POPC   C1B68791  34.304  17.418   6.082
 5372POPC   C2B68792  34.409  17.301   6.514
 5372POPC   C3B68793  34.434  17.385   6.926
 5372POPC   C4B68794  34.230  17.204   7.251
 5373POPC   NC368795  44.165  38.812   5.103
 5373POPC   PO468796  44.224  38.205   5.438
 5373POPC   GL168797  43.834  38.342   5.710
 5373POPC   GL268798  44.053  38.507   5.905
 5373POPC   C1A68799  43.639  38.616   6.104
 5373POPC   D2A68800  43.829  38.465   6.470
 5373POPC   C3A68801  43.732  38.346   6.895
 5373POPC   C4A68802  43.929  38.495   7.244
 5373POPC   C1B68803  44.052  38.132   6.152
 5373POPC   C2B68804  44.015  38.007   6.609
 5373POPC   C3B68805  44.146  38.080   7.044
 5373POPC   C4B68806  44.276  38.145   7.460
 5374POPC   NC368807  16.845  34.977   5.700
 5374POPC   PO468808  16.399  35.114   5.199
 5374POPC   GL168809  16.487  35.376   5.650
 5374POPC   GL268810  16.676  35.694   5.752
 5374POPC   C1A68811  16.635  35.388   6.150
 5374POPC   D2A68812  16.941  35.506   6.504
 5374POPC   C3A68813  17.061  35.250   6.896
 5374POPC   C4A68814  17.008  35.286   7.372
 5374POPC   C1B68815  16.423  35.860   6.154
 5374POPC   C2B68816  16.370  35.623   6.555
 5374POPC   C3B68817  16.558  35.489   6.959
 5374POPC   C4B68818  16.520  35.834   7.248
 5375POPC   NC368819  35.324  44.418   5.566
 5375POPC   PO468820  35.294  44.977   5.222
 5375POPC   GL168821  35.340  44.914   5.715
 5375POPC   GL268822  35.069  44.698   5.903
 5375POPC   C1A68823  35.555  44.745   6.125
 5375POPC   D2A68824  35.756  44.698   6.562
 5375POPC   C3A68825  35.533  44.972   6.881
 5375POPC   C4A68826  35.365  44.902   7.279
 5375POPC   C1B68827  35.065  44.302   6.170
 5375POPC   C2B68828  35.219  44.203   6.593
 5375POPC   C3B68829  35.312  44.478   6.936
 5375POPC   C4B68830  35.269  44.409   7.369
 5376POPC   NC368831  20.045  11.878   5.567
 5376POPC   PO468832  20.545  12.212   5.278
 5376POPC   GL168833  20.751  11.975   5.594
 5376POPC   GL268834  20.469  11.952   5.839
 5376POPC   C1A68835  20.948  12.016   6.018
 5376POPC   D2A68836  20.729  11.922   6.411
 5376POPC   C3A68837  20.836  12.111   6.794
 5376POPC   C4A68838  20.893  12.095   7.227
 5376POPC   C1B68839  20.228  11.934   6.239
 5376POPC   C2B68840  20.285  11.826   6.688
 5376POPC   C3B68841  20.365  12.102   7.055
 5376POPC   C4B68842  20.343  12.071   7.504
 5377POPC   NC368843  41.277  16.563   5.392
 5377POPC   PO468844  41.953  16.833   5.322
 5377POPC   GL168845  41.902  16.738   5.749
 5377POPC   GL268846  41.661  16.515   5.762
 5377POPC   C1A68847  41.647  16.915   6.122
 5377POPC   D2A68848  41.503  17.021   6.560
 5377POPC   C3A68849  41.755  17.047   6.947
 5377POPC   C4A68850  41.583  16.860   7.317
 5377POPC   C1B68851  41.776  16.407   6.152
 5377POPC   C2B68852  41.808  16.613   6.522
 5377POPC   C3B68853  41.546  16.588   6.872
 5377POPC   C4B68854  41.646  16.369   7.220
 5378POPC   NC368855  15.730  40.962   5.448
 5378POPC   PO468856  16.320  40.676   5.599
 5378POPC   GL168857  15.956  40.641   5.869
 5378POPC   GL268858  15.820  40.947   5.965
 5378POPC   C1A68859  16.111  40.653   6.257
 5378POPC   D2A68860  16.187  41.021   6.458
 5378POPC   C3A68861  16.181  40.965   6.904
 5378POPC   C4A68862  15.951  40.989   7.272
 5378POPC   C1B68863  15.616  40.635   6.275
 5378POPC   C2B68864  15.629  40.482   6.697
 5378POPC   C3B68865  15.576  40.746   7.057
 5378POPC   C4B68866  15.505  40.812   7.518
 5379POPC   NC368867  42.485  10.719   5.398
 5379POPC   PO468868  42.108  10.158   5.297
 5379POPC   GL168869  42.289  10.215   5.770
 5379POPC   GL268870  42.589  10.463   5.828
 5379POPC   C1A68871  42.367  10.287   6.245
 5379POPC   D2A68872  42.593  10.533   6.551
 5379POPC   C3A68873  42.408  10.556   6.962
 5379POPC   C4A68874  42.234  10.314   7.301
 5379POPC   C1B68875  42.760  10.864   6.025
 5379POPC   C2B68876  42.837  10.998   6.454
 5379POPC   C3B68877  42.812  10.895   6.870
 5379POPC   C4B68878  42.614  10.916   7.253
 5380POPC   NC368879  27.904  21.459   5.114
 5380POPC   PO468880  27.368  21.217   5.446
 5380POPC   GL168881  27.570  21.453   5.776
 5380POPC   GL268882  27.897  21.582   5.667
 5380POPC   C1A68883  27.476  21.387   6.227
 5380POPC   D2A68884  27.757  21.174   6.537
 5380POPC   C3A68885  27.682  21.154   6.995
 5380POPC   C4A68886  27.743  21.377   7.394
 5380POPC   C1B68887  27.933  21.602   6.154
 5380POPC   C2B68888  27.824  21.672   6.611
 5380POPC   C3B68889  27.977  21.667   7.057
 5380POPC   C4B68890  28.020  21.828   7.505
 5381POPC   NC368891  11.438  41.745   5.048
 5381POPC   PO468892  11.270  42.149   5.486
 5381POPC   GL168893  11.416  42.375   5.839
 5381POPC   GL268894  11.404  42.076   5.978
 5381POPC   C1A68895  11.338  42.429   6.314
 5381POPC   D2A68896  11.591  42.591   6.637
 5381POPC   C3A68897  11.399  42.479   7.018
 5381POPC   C4A68898  11.116  42.651   7.292
 5381POPC   C1B68899  11.173  41.948   6.328
 5381POPC   C2B68900  11.251  41.929   6.767
 5381POPC   C3B68901  10.954  42.009   7.087
 5381POPC   C4B68902  11.015  42.170   7.490
 5382POPC   NC368903  27.360  27.084   5.601
 5382POPC   PO468904  27.611  26.632   5.172
 5382POPC   GL168905  27.620  26.643   5.706
 5382POPC   GL268906  27.295  26.629   5.913
 5382POPC   C1A68907  27.660  26.457   6.177
 5382POPC   D2A68908  27.496  26.407   6.623
 5382POPC   C3A68909  27.576  26.708   6.973
 5382POPC   C4A68910  27.722  26.552   7.401
 5382POPC   C1B68911  27.196  26.737   6.363
 5382POPC   C2B68912  27.313  27.104   6.611
 5382POPC   C3B68913  27.461  27.245   6.978
 5382POPC   C4B68914  27.456  27.142   7.401
 5383POPC   NC368915   0.634  17.803   5.346
 5383POPC   PO468916   0.083  17.342   5.228
 5383POPC   GL168917   0.282  17.218   5.670
 5383POPC   GL268918   0.672  17.151   5.630
 5383POPC   C1A68919   0.200  17.351   6.153
 5383POPC   D2A68920   0.075  17.520   6.604
 5383POPC   C3A68921   0.394  17.547   6.958
 5383POPC   C4A68922   0.654  17.594   7.337
 5383POPC   C1B68923   0.646  17.097   6.109
 5383POPC   C2B68924   0.539  17.256   6.551
 5383POPC   C3B68925   0.664  17.079   6.982
 5383POPC   C4B68926   0.870  17.105   7.384
 5384POPC   NC368927  44.189  16.620   5.526
 5384POPC   PO468928  43.587  16.470   5.458
 5384POPC   GL168929  43.775  16.719   5.816
 5384POPC   GL268930  44.006  17.027   5.814
 5384POPC   C1A68931  43.701  16.879   6.239
 5384POPC   D2A68932  43.841  16.769   6.654
 5384POPC   C3A68933  43.798  17.048   7.005
 5384POPC   C4A68934  43.937  16.895   7.405
 5384POPC   C1B68935  44.246  16.878   6.165
 5384POPC   C2B68936  44.317  16.648   6.538
 5384POPC   C3B68937  44.294  16.802   6.958
 5384POPC   C4B68938  44.373  16.521   7.292
 5385POPC   NC368939  13.100  30.320   5.507
 5385POPC   PO468940  12.719  30.852   5.222
 5385POPC   GL168941  12.746  30.751   5.705
 5385POPC   GL268942  13.081  30.801   5.738
 5385POPC   C1A68943  12.803  30.550   6.181
 5385POPC   D2A68944  12.623  30.395   6.587
 5385POPC   C3A68945  12.760  30.406   6.991
 5385POPC   C4A68946  12.810  30.777   7.180
 5385POPC   C1B68947  13.103  30.956   6.184
 5385POPC   C2B68948  12.909  30.897   6.612
 5385POPC   C3B68949  13.072  31.143   6.957
 5385POPC   C4B68950  13.324  30.914   7.241
 5386POPC   NC368951  13.628  24.333   5.511
 5386POPC   PO468952  13.457  24.922   5.175
 5386POPC   GL168953  13.829  24.816   5.668
 5386POPC   GL268954  13.926  24.524   5.865
 5386POPC   C1A68955  13.711  24.828   6.196
 5386POPC   D2A68956  13.803  24.839   6.655
 5386POPC   C3A68957  13.592  24.655   6.984
 5386POPC   C4A68958  13.777  24.551   7.417
 5386POPC   C1B68959  13.658  24.314   6.197
 5386POPC   C2B68960  13.757  24.300   6.634
 5386POPC   C3B68961  13.654  24.158   7.060
 5386POPC   C4B68962  13.974  24.067   7.364
 5387POPC   NC368963  30.799  42.785   5.685
 5387POPC   PO468964  30.624  43.388   5.384
 5387POPC   GL168965  30.748  43.280   5.811
 5387POPC   GL268966  31.106  43.217   5.839
 5387POPC   C1A68967  30.601  43.136   6.237
 5387POPC   D2A68968  30.423  43.190   6.655
 5387POPC   C3A68969  30.533  42.942   7.003
 5387POPC   C4A68970  30.645  43.230   7.330
 5387POPC   C1B68971  31.107  43.206   6.277
 5387POPC   C2B68972  31.193  43.320   6.685
 5387POPC   C3B68973  31.002  43.142   6.973
 5387POPC   C4B68974  31.125  43.032   7.351
 5388POPC   NC368975  25.105  39.974   5.392
 5388POPC   PO468976  25.814  40.075   5.463
 5388POPC   GL168977  25.490  40.115   5.819
 5388POPC   GL268978  25.109  40.208   5.849
 5388POPC   C1A68979  25.378  39.967   6.256
 5388POPC   D2A68980  25.330  40.205   6.671
 5388POPC   C3A68981  25.371  40.103   7.111
 5388POPC   C4A68982  25.362  39.715   7.200
 5388POPC   C1B68983  24.975  40.284   6.280
 5388POPC   C2B68984  24.844  40.367   6.705
 5388POPC   C3B68985  24.877  40.095   7.082
 5388POPC   C4B68986  24.964  40.156   7.510
 5389POPC   NC368987  36.773  36.523   5.388
 5389POPC   PO468988  37.286  37.009   5.321
 5389POPC   GL168989  37.070  37.099   5.756
 5389POPC   GL268990  36.834  36.822   5.829
 5389POPC   C1A68991  36.990  37.129   6.238
 5389POPC   D2A68992  36.799  36.996   6.667
 5389POPC   C3A68993  36.883  37.149   7.113
 5389POPC   C4A68994  36.749  36.932   7.501
 5389POPC   C1B68995  36.715  36.649   6.253
 5389POPC   C2B68996  36.583  36.504   6.696
 5389POPC   C3B68997  36.485  36.626   7.155
 5389POPC   C4B68998  36.398  36.573   7.631
 5390POPC   NC368999  30.217  21.064   5.252
 5390POPC   PO469000  29.789  21.547   5.230
 5390POPC   GL169001  29.758  21.244   5.610
 5390POPC   GL269002  29.976  20.937   5.707
 5390POPC   C1A69003  29.685  21.287   6.090
 5390POPC   D2A69004  29.619  21.540   6.502
 5390POPC   C3A69005  29.682  21.323   6.917
 5390POPC   C4A69006  29.491  21.474   7.290
 5390POPC   C1B69007  30.191  21.213   6.021
 5390POPC   C2B69008  30.156  21.167   6.494
 5390POPC   C3B69009  30.227  21.270   6.933
 5390POPC   C4B69010  30.019  21.409   7.304
 5391POPC   NC369011  24.558  16.251   5.186
 5391POPC   PO469012  24.365  15.651   5.457
 5391POPC   GL169013  24.239  15.646   5.860
 5391POPC   GL269014  24.579  15.575   5.928
 5391POPC   C1A69015  24.309  15.868   6.251
 5391POPC   D2A69016  24.260  15.660   6.600
 5391POPC   C3A69017  24.353  15.904   6.928
 5391POPC   C4A69018  24.343  15.887   7.339
 5391POPC   C1B69019  24.755  15.593   6.336
 5391POPC   C2B69020  24.770  15.637   6.784
 5391POPC   C3B69021  24.700  15.560   7.220
 5391POPC   C4B69022  24.815  15.816   7.594
 5392POPC   NC369023  42.671  41.018   4.999
 5392POPC   PO469024  42.263  40.626   5.275
 5392POPC   GL169025  42.435  40.749   5.694
 5392POPC   GL269026  42.328  41.114   5.746
 5392POPC   C1A69027  42.534  40.863   6.158
 5392POPC   D2A69028  42.529  41.061   6.586
 5392POPC   C3A69029  42.520  40.794   6.926
 5392POPC   C4A69030  42.128  40.639   7.058
 5392POPC   C1B69031  42.101  41.289   6.124
 5392POPC   C2B69032  42.121  41.377   6.596
 5392POPC   C3B69033  42.083  41.149   6.995
 5392POPC   C4B69034  42.127  41.026   7.452
 5393POPC   NC369035  30.491  29.376   5.391
 5393POPC   PO469036  30.674  28.722   5.375
 5393POPC   GL169037  30.538  28.992   5.710
 5393POPC   GL269038  30.859  29.155   5.700
 5393POPC   C1A69039  30.521  29.345   6.038
 5393POPC   D2A69040  30.525  29.452   6.490
 5393POPC   C3A69041  30.471  29.260   6.882
 5393POPC   C4A69042  30.510  29.447   7.290
 5393POPC   C1B69043  30.949  29.081   6.140
 5393POPC   C2B69044  30.978  29.210   6.563
 5393POPC   C3B69045  30.944  29.055   6.968
 5393POPC   C4B69046  30.989  29.295   7.315
 5394POPC   NC369047   3.108  13.404   5.182
 5394POPC   PO469048   3.730  13.585   5.407
 5394POPC   GL169049   3.706  13.856   5.762
 5394POPC   GL269050   3.349  13.778   5.743
 5394POPC   C1A69051   3.807  13.654   6.172
 5394POPC   D2A69052   3.581  13.355   6.441
 5394POPC   C3A69053   3.686  13.413   6.900
 5394POPC   C4A69054   3.804  13.842   7.060
 5394POPC   C1B69055   3.333  13.809   6.189
 5394POPC   C2B69056   3.528  13.864   6.584
 5394POPC   C3B69057   3.305  13.984   6.915
 5394POPC   C4B69058   3.301  13.842   7.287
 5395POPC   NC369059  16.284   3.187   5.356
 5395POPC   PO469060  15.771   2.741   5.373
 5395POPC   GL169061  15.845   2.968   5.767
 5395POPC   GL269062  16.205   2.893   5.778
 5395POPC   C1A69063  15.893   2.836   6.229
 5395POPC   D2A69064  15.779   2.626   6.630
 5395POPC   C3A69065  15.820   2.810   7.027
 5395POPC   C4A69066  15.538   2.634   7.354
 5395POPC   C1B69067  16.394   2.734   6.144
 5395POPC   C2B69068  16.263   2.735   6.579
 5395POPC   C3B69069  16.365   2.853   6.986
 5395POPC   C4B69070  16.425   2.941   7.409
 5396POPC   NC369071  23.207   0.804   5.459
 5396POPC   PO469072  22.647   0.582   5.580
 5396POPC   GL169073  22.989   0.466   5.832
 5396POPC   GL269074  22.775   0.188   5.946
 5396POPC   C1A69075  23.185   0.335   6.232
 5396POPC   D2A69076  22.950   0.403   6.618
 5396POPC   C3A69077  23.028   0.514   7.020
 5396POPC   C4A69078  23.136   0.398   7.418
 5396POPC   C1B69079  22.580   0.396   6.271
 5396POPC   C2B69080  22.441   0.493   6.682
 5396POPC   C3B69081  22.560   0.274   6.980
 5396POPC   C4B69082  22.620   0.372   7.360
 5397POPC   NC369083  10.264  37.511   5.112
 5397POPC   PO469084  10.317  37.929   5.615
 5397POPC   GL169085  10.704  37.737   5.817
 5397POPC   GL269086  10.683  37.410   5.920
 5397POPC   C1A69087  10.972  37.722   6.201
 5397POPC   D2A69088  10.871  37.464   6.558
 5397POPC   C3A69089  10.861  37.709   6.930
 5397POPC   C4A69090  10.581  37.716   7.309
 5397POPC   C1B69091  10.461  37.630   6.301
 5397POPC   C2B69092  10.367  37.680   6.781
 5397POPC   C3B69093  10.208  37.393   7.143
 5397POPC   C4B69094  10.308  37.350   7.614
 5398POPC   NC369095  25.980  33.346   5.341
 5398POPC   PO469096  26.253  32.679   5.382
 5398POPC   GL169097  26.119  33.022   5.706
 5398POPC   GL269098  25.882  33.285   5.838
 5398POPC   C1A69099  26.049  32.963   6.167
 5398POPC   D2A69100  25.995  33.012   6.569
 5398POPC   C3A69101  26.385  32.818   6.751
 5398POPC   C4A69102  26.476  32.478   7.096
 5398POPC   C1B69103  26.227  33.418   6.082
 5398POPC   C2B69104  26.322  33.418   6.500
 5398POPC   C3B69105  26.170  33.341   6.900
 5398POPC   C4B69106  26.021  33.376   7.279
 5399POPC   NC369107  37.346  26.002   5.560
 5399POPC   PO469108  37.976  25.841   5.350
 5399POPC   GL169109  37.951  25.986   5.771
 5399POPC   GL269110  37.733  26.276   5.819
 5399POPC   C1A69111  38.048  25.859   6.187
 5399POPC   D2A69112  37.810  25.680   6.528
 5399POPC   C3A69113  37.928  25.912   6.889
 5399POPC   C4A69114  37.826  26.147   7.279
 5399POPC   C1B69115  37.567  26.028   6.190
 5399POPC   C2B69116  37.508  26.093   6.635
 5399POPC   C3B69117  37.406  25.919   7.052
 5399POPC   C4B69118  37.327  26.211   7.401
 5400POPC   NC369119  29.747  10.680   5.348
 5400POPC   PO469120  29.958  10.155   5.183
 5400POPC   GL169121  29.859  10.323   5.701
 5400POPC   GL269122  29.620  10.597   5.845
 5400POPC   C1A69123  29.739  10.207   6.161
 5400POPC   D2A69124  29.740  10.422   6.579
 5400POPC   C3A69125  30.065  10.282   6.867
 5400POPC   C4A69126  30.118  10.163   7.288
 5400POPC   C1B69127  30.023  10.645   6.122
 5400POPC   C2B69128  30.183  10.688   6.564
 5400POPC   C3B69129  29.945  10.791   6.963
 5400POPC   C4B69130  30.041  10.988   7.369
 5401POPC   NC369131   1.407  11.971   5.542
 5401POPC   PO469132   1.088  12.540   5.253
 5401POPC   GL169133   0.984  12.268   5.707
 5401POPC   GL269134   1.252  12.204   5.984
 5401POPC   C1A69135   0.841  12.036   6.162
 5401POPC   D2A69136   1.198  11.925   6.448
 5401POPC   C3A69137   1.300  12.124   6.813
 5401POPC   C4A69138   1.334  12.037   7.212
 5401POPC   C1B69139   1.522  12.369   6.290
 5401POPC   C2B69140   1.769  12.277   6.631
 5401POPC   C3B69141   1.757  12.286   7.073
 5401POPC   C4B69142   1.711  12.328   7.542
 5402POPC   NC369143  35.730  16.660   5.498
 5402POPC   PO469144  36.421  16.745   5.364
 5402POPC   GL169145  36.164  16.705   5.742
 5402POPC   GL269146  36.025  16.994   5.836
 5402POPC   C1A69147  35.978  16.599   6.164
 5402POPC   D2A69148  36.152  16.675   6.573
 5402POPC   C3A69149  36.135  16.424   6.954
 5402POPC   C4A69150  36.046  16.583   7.346
 5402POPC   C1B69151  35.790  17.087   6.182
 5402POPC   C2B69152  35.710  16.920   6.606
 5402POPC   C3B69153  35.869  16.940   7.030
 5402POPC   C4B69154  35.855  17.040   7.493
 5403POPC   NC369155   5.526  25.926   4.917
 5403POPC   PO469156   5.460  26.158   5.550
 5403POPC   GL169157   5.264  26.068   5.899
 5403POPC   GL269158   4.938  26.047   5.718
 5403POPC   C1A69159   5.233  25.819   6.256
 5403POPC   D2A69160   5.061  25.779   6.636
 5403POPC   C3A69161   5.294  25.941   6.984
 5403POPC   C4A69162   5.388  25.996   7.422
 5403POPC   C1B69163   4.824  26.123   6.141
 5403POPC   C2B69164   4.814  26.277   6.541
 5403POPC   C3B69165   4.813  26.113   6.942
 5403POPC   C4B69166   4.946  26.178   7.319
 5404POPC   NC369167   7.737   7.681   5.456
 5404POPC   PO469168   8.304   7.358   5.207
 5404POPC   GL169169   8.422   7.345   5.703
 5404POPC   GL269170   8.091   7.338   5.788
 5404POPC   C1A69171   8.356   7.540   6.172
 5404POPC   D2A69172   8.381   7.334   6.599
 5404POPC   C3A69173   8.262   7.488   7.005
 5404POPC   C4A69174   7.913   7.632   7.244
 5404POPC   C1B69175   8.013   7.152   6.187
 5404POPC   C2B69176   8.154   6.889   6.502
 5404POPC   C3B69177   8.107   6.932   6.949
 5404POPC   C4B69178   7.881   7.137   7.339
 5405POPC   NC369179  38.292  19.908   5.388
 5405POPC   PO469180  38.417  19.320   5.471
 5405POPC   GL169181  38.505  19.623   5.812
 5405POPC   GL269182  38.636  19.976   5.793
 5405POPC   C1A69183  38.256  19.815   6.143
 5405POPC   D2A69184  38.175  19.983   6.539
 5405POPC   C3A69185  38.340  19.800   6.907
 5405POPC   C4A69186  38.427  19.749   7.351
 5405POPC   C1B69187  38.787  19.854   6.220
 5405POPC   C2B69188  38.787  19.954   6.676
 5405POPC   C3B69189  38.730  20.104   7.134
 5405POPC   C4B69190  38.804  19.977   7.595
 5406POPC   NC369191   8.426   4.308   5.068
 5406POPC   PO469192   8.046   4.027   5.544
 5406POPC   GL169193   8.229   4.072   5.949
 5406POPC   GL269194   8.602   3.964   6.004
 5406POPC   C1A69195   8.123   4.301   6.309
 5406POPC   D2A69196   7.953   4.539   6.640
 5406POPC   C3A69197   7.968   4.225   6.956
 5406POPC   C4A69198   8.142   4.256   7.355
 5406POPC   C1B69199   8.669   3.755   6.395
 5406POPC   C2B69200   8.369   3.959   6.656
 5406POPC   C3B69201   8.493   4.218   6.986
 5406POPC   C4B69202   8.519   3.937   7.312
 5407POPC   NC369203  14.435  38.948   5.421
 5407POPC   PO469204  14.945  39.489   5.392
 5407POPC   GL169205  14.645  39.316   5.747
 5407POPC   GL269206  14.630  38.948   5.894
 5407POPC   C1A69207  14.462  39.344   6.177
 5407POPC   D2A69208  14.195  39.253   6.543
 5407POPC   C3A69209  14.404  39.359   6.948
 5407POPC   C4A69210  14.719  39.163   7.211
 5407POPC   C1B69211  14.309  38.822   6.214
 5407POPC   C2B69212  13.958  38.785   6.527
 5407POPC   C3B69213  13.848  39.002   6.923
 5407POPC   C4B69214  14.157  39.018   7.258
 5408POPC   NC369215  28.767  19.478   5.555
 5408POPC   PO469216  28.023  19.547   5.505
 5408POPC   GL169217  28.098  19.764   5.842
 5408POPC   GL269218  28.406  19.855   5.710
 5408POPC   C1A69219  28.251  19.661   6.264
 5408POPC   D2A69220  28.134  19.901   6.627
 5408POPC   C3A69221  28.391  19.725   6.924
 5408POPC   C4A69222  28.317  19.530   7.271
 5408POPC   C1B69223  28.400  20.102   6.082
 5408POPC   C2B69224  28.587  20.072   6.471
 5408POPC   C3B69225  28.553  20.198   6.890
 5408POPC   C4B69226  28.689  20.022   7.270
 5409POPC   NC369227  31.680   4.762   5.405
 5409POPC   PO469228  31.539   4.117   5.293
 5409POPC   GL169229  31.372   4.165   5.694
 5409POPC   GL269230  31.043   4.027   5.633
 5409POPC   C1A69231  31.507   4.352   6.119
 5409POPC   D2A69232  31.723   4.178   6.509
 5409POPC   C3A69233  31.752   4.257   6.995
 5409POPC   C4A69234  31.767   4.441   7.438
 5409POPC   C1B69235  31.101   3.937   6.069
 5409POPC   C2B69236  31.117   4.207   6.411
 5409POPC   C3B69237  31.269   4.196   6.827
 5409POPC   C4B69238  31.306   4.135   7.259
 5410POPC   NC369239  31.096  31.947   5.487
 5410POPC   PO469240  30.758  31.348   5.371
 5410POPC   GL169241  30.758  31.162   5.797
 5410POPC   GL269242  31.092  31.258   5.829
 5410POPC   C1A69243  30.765  31.256   6.265
 5410POPC   D2A69244  30.961  31.456   6.628
 5410POPC   C3A69245  30.750  31.343   7.004
 5410POPC   C4A69246  30.502  31.032   7.215
 5410POPC   C1B69247  31.123  31.623   6.141
 5410POPC   C2B69248  30.919  31.946   6.435
 5410POPC   C3B69249  30.759  31.897   6.860
 5410POPC   C4B69250  30.997  31.737   7.199
 5411POPC   NC369251   2.907  15.452   5.355
 5411POPC   PO469252   2.839  16.132   5.507
 5411POPC   GL169253   2.720  15.878   5.840
 5411POPC   GL269254   2.994  15.628   5.819
 5411POPC   C1A69255   2.547  15.989   6.259
 5411POPC   D2A69256   2.681  16.205   6.652
 5411POPC   C3A69257   2.439  16.159   7.027
 5411POPC   C4A69258   2.767  16.010   7.263
 5411POPC   C1B69259   2.800  15.493   6.185
 5411POPC   C2B69260   2.825  15.405   6.632
 5411POPC   C3B69261   2.595  15.688   6.890
 5411POPC   C4B69262   2.368  15.655   7.273
 5412POPC   NC369263  37.570  18.558   5.374
 5412POPC   PO469264  37.814  17.877   5.358
 5412POPC   GL169265  37.648  18.167   5.734
 5412POPC   GL269266  37.373  18.467   5.818
 5412POPC   C1A69267  37.786  18.359   6.140
 5412POPC   D2A69268  37.604  18.363   6.560
 5412POPC   C3A69269  37.772  18.011   6.818
 5412POPC   C4A69270  37.810  17.974   7.246
 5412POPC   C1B69271  37.353  18.703   6.205
 5412POPC   C2B69272  37.189  18.900   6.584
 5412POPC   C3B69273  37.255  18.686   6.953
 5412POPC   C4B69274  37.625  18.423   7.076
 5413POPC   NC369275   3.380   6.089   5.330
 5413POPC   PO469276   3.542   5.486   5.502
 5413POPC   GL169277   3.334   5.583   5.895
 5413POPC   GL269278   3.492   5.918   5.866
 5413POPC   C1A69279   3.339   5.808   6.328
 5413POPC   D2A69280   3.603   6.103   6.494
 5413POPC   C3A69281   3.709   5.900   6.872
 5413POPC   C4A69282   3.456   5.670   7.181
 5413POPC   C1B69283   3.768   5.593   6.147
 5413POPC   C2B69284   3.761   5.450   6.598
 5413POPC   C3B69285   4.090   5.549   6.919
 5413POPC   C4B69286   4.000   5.693   7.326
 5414POPC   NC369287  26.461  42.479   5.517
 5414POPC   PO469288  27.049  42.146   5.307
 5414POPC   GL169289  26.978  42.382   5.686
 5414POPC   GL269290  26.692  42.328   5.942
 5414POPC   C1A69291  27.180  42.289   6.061
 5414POPC   D2A69292  27.054  42.062   6.427
 5414POPC   C3A69293  26.921  42.286   6.789
 5414POPC   C4A69294  26.831  42.235   7.232
 5414POPC   C1B69295  26.560  42.400   6.378
 5414POPC   C2B69296  26.612  42.694   6.680
 5414POPC   C3B69297  26.712  42.697   7.057
 5414POPC   C4B69298  26.710  42.761   7.474
 5415POPC   NC369299   7.999  21.369   5.496
 5415POPC   PO469300   8.563  21.802   5.501
 5415POPC   GL169301   8.438  21.558   5.843
 5415POPC   GL269302   8.103  21.615   5.917
 5415POPC   C1A69303   8.487  21.367   6.240
 5415POPC   D2A69304   8.608  21.172   6.617
 5415POPC   C3A69305   8.460  21.334   7.011
 5415POPC   C4A69306   8.526  21.170   7.383
 5415POPC   C1B69307   7.966  21.399   6.296
 5415POPC   C2B69308   8.082  21.233   6.670
 5415POPC   C3B69309   7.953  21.413   7.051
 5415POPC   C4B69310   8.018  21.637   7.423
 5416POPC   NC369311  32.307  23.375   5.518
 5416POPC   PO469312  32.356  23.916   5.405
 5416POPC   GL169313  32.299  23.781   5.874
 5416POPC   GL269314  32.177  23.445   5.990
 5416POPC   C1A69315  32.339  23.728   6.362
 5416POPC   D2A69316  32.118  23.672   6.765
 5416POPC   C3A69317  32.174  23.952   7.144
 5416POPC   C4A69318  32.176  24.212   7.546
 5416POPC   C1B69319  32.584  23.292   6.186
 5416POPC   C2B69320  32.702  23.175   6.648
 5416POPC   C3B69321  32.589  23.160   7.110
 5416POPC   C4B69322  32.358  23.345   7.466
 5417POPC   NC369323  19.158   7.930   5.551
 5417POPC   PO469324  18.700   8.231   5.332
 5417POPC   GL169325  18.881   8.351   5.771
 5417POPC   GL269326  19.242   8.357   5.862
 5417POPC   C1A69327  18.916   8.156   6.223
 5417POPC   D2A69328  19.060   8.004   6.652
 5417POPC   C3A69329  18.970   8.294   6.996
 5417POPC   C4A69330  18.625   8.554   7.118
 5417POPC   C1B69331  19.447   8.119   6.199
 5417POPC   C2B69332  19.517   8.259   6.631
 5417POPC   C3B69333  19.435   8.095   7.035
 5417POPC   C4B69334  19.262   7.860   7.399
 5418POPC   NC369335  34.322  25.073   5.588
 5418POPC   PO469336  34.935  25.019   5.434
 5418POPC   GL169337  34.776  25.135   5.830
 5418POPC   GL269338  34.585  25.450   5.847
 5418POPC   C1A69339  34.575  25.068   6.223
 5418POPC   D2A69340  34.416  25.164   6.621
 5418POPC   C3A69341  34.627  25.124   6.985
 5418POPC   C4A69342  34.460  24.942   7.349
 5418POPC   C1B69343  34.455  25.581   6.275
 5418POPC   C2B69344  34.254  25.639   6.687
 5418POPC   C3B69345  34.420  25.782   7.081
 5418POPC   C4B69346  34.495  25.813   7.561
 5419POPC   NC369347  44.109  15.408   5.509
 5419POPC   PO469348  43.778  14.821   5.259
 5419POPC   GL169349  43.846  15.013   5.696
 5419POPC   GL269350  44.220  15.034   5.848
 5419POPC   C1A69351  43.810  14.889   6.129
 5419POPC   D2A69352  43.725  15.040   6.502
 5419POPC   C3A69353  43.892  14.847   6.850
 5419POPC   C4A69354  43.929  15.165   7.166
 5419POPC   C1B69355  44.108  15.303   6.221
 5419POPC   C2B69356  44.150  15.306   6.679
 5419POPC   C3B69357  44.305  15.508   7.043
 5419POPC   C4B69358  44.142  15.535   7.463
 5420POPC   NC369359   1.555   3.491   5.375
 5420POPC   PO469360   0.982   3.784   5.542
 5420POPC   GL169361   1.056   3.435   5.882
 5420POPC   GL269362   1.354   3.317   5.959
 5420POPC   C1A69363   0.944   3.161   6.225
 5420POPC   D2A69364   1.040   3.456   6.515
 5420POPC   C3A69365   0.967   3.475   6.926
 5420POPC   C4A69366   1.312   3.428   7.191
 5420POPC   C1B69367   1.408   3.696   6.221
 5420POPC   C2B69368   1.360   3.843   6.651
 5420POPC   C3B69369   1.600   3.814   7.027
 5420POPC   C4B69370   1.833   3.457   7.199
 5421POPC   NC369371  22.709  15.997   5.518
 5421POPC   PO469372  23.367  15.685   5.497
 5421POPC   GL169373  23.049  15.800   5.854
 5421POPC   GL269374  22.675  15.710   5.937
 5421POPC   C1A69375  22.989  16.154   6.169
 5421POPC   D2A69376  23.246  16.077   6.576
 5421POPC   C3A69377  23.066  15.959   7.005
 5421POPC   C4A69378  22.686  15.960   7.262
 5421POPC   C1B69379  22.800  15.739   6.359
 5421POPC   C2B69380  22.629  15.757   6.745
 5421POPC   C3B69381  22.750  15.479   7.030
 5421POPC   C4B69382  22.978  15.562   7.386
 5422POPC   NC369383  20.917  15.885   5.426
 5422POPC   PO469384  21.578  16.187   5.253
 5422POPC   GL169385  21.472  16.225   5.735
 5422POPC   GL269386  21.485  15.886   5.818
 5422POPC   C1A69387  21.280  16.168   6.197
 5422POPC   D2A69388  21.067  16.079   6.604
 5422POPC   C3A69389  21.246  16.134   7.020
 5422POPC   C4A69390  21.675  16.277   7.186
 5422POPC   C1B69391  21.225  15.654   6.114
 5422POPC   C2B69392  21.242  15.575   6.531
 5422POPC   C3B69393  21.072  15.644   6.924
 5422POPC   C4B69394  21.279  15.667   7.313
 5423POPC   NC369395  26.196   1.109   5.382
 5423POPC   PO469396  26.207   1.788   5.337
 5423POPC   GL169397  26.214   1.572   5.763
 5423POPC   GL269398  26.006   1.258   5.844
 5423POPC   C1A69399  26.032   1.644   6.198
 5423POPC   D2A69400  26.049   1.330   6.507
 5423POPC   C3A69401  25.927   1.241   6.915
 5423POPC   C4A69402  26.114   1.262   7.314
 5423POPC   C1B69403  26.108   0.918   6.171
 5423POPC   C2B69404  26.215   0.862   6.621
 5423POPC   C3B69405  26.303   0.823   7.058
 5423POPC   C4B69406  26.175   0.711   7.451
 5424POPC   NC369407  38.041   0.131   5.493
 5424POPC   PO469408  37.652   0.668   5.431
 5424POPC   GL169409  37.746   0.468   5.804
 5424POPC   GL269410  38.066   0.609   5.853
 5424POPC   C1A69411  37.478   0.417   6.169
 5424POPC   D2A69412  37.464   0.646   6.578
 5424POPC   C3A69413  37.520   0.417   6.979
 5424POPC   C4A69414  37.583   0.445   7.434
 5424POPC   C1B69415  37.928   0.610   6.306
 5424POPC   C2B69416  37.987   0.590   6.746
 5424POPC   C3B69417  38.006   0.297   7.075
 5424POPC   C4B69418  38.017   0.193   7.519
 5425POPC   NC369419  15.871  13.179   5.438
 5425POPC   PO469420  15.998  13.820   5.358
 5425POPC   GL169421  15.962  13.625   5.758
 5425POPC   GL269422  16.266  13.420   5.775
 5425POPC   C1A69423  15.709  13.575   6.157
 5425POPC   D2A69424  15.811  13.483   6.611
 5425POPC   C3A69425  15.715  13.847   6.874
 5425POPC   C4A69426  15.760  14.018   7.281
 5425POPC   C1B69427  16.342  13.158   6.150
 5425POPC   C2B69428  16.281  13.127   6.597
 5425POPC   C3B69429  16.104  13.252   6.997
 5425POPC   C4B69430  16.132  13.682   7.132
 5426POPC   NC369431  19.963   1.095   5.250
 5426POPC   PO469432  19.407   0.677   5.432
 5426POPC   GL169433  19.703   1.022   5.678
 5426POPC   GL269434  20.063   0.963   5.708
 5426POPC   C1A69435  19.781   1.305   6.045
 5426POPC   D2A69436  19.606   1.328   6.469
 5426POPC   C3A69437  19.881   1.377   6.831
 5426POPC   C4A69438  19.925   1.469   7.255
 5426POPC   C1B69439  20.177   0.979   6.086
 5426POPC   C2B69440  20.046   1.030   6.472
 5426POPC   C3B69441  20.052   0.888   6.880
 5426POPC   C4B69442  20.288   1.099   7.169
 5427POPC   NC369443   4.401  41.926   5.426
 5427POPC   PO469444   4.014  41.322   5.438
 5427POPC   GL169445   4.219  41.511   5.801
 5427POPC   GL269446   4.563  41.498   5.805
 5427POPC   C1A69447   4.280  41.566   6.254
 5427POPC   D2A69448   4.118  41.855   6.569
 5427POPC   C3A69449   4.367  41.754   6.878
 5427POPC   C4A69450   4.371  41.568   7.251
 5427POPC   C1B69451   4.592  41.160   6.130
 5427POPC   C2B69452   4.747  41.208   6.519
 5427POPC   C3B69453   4.660  41.344   6.882
 5427POPC   C4B69454   4.817  41.315   7.258
 5428POPC   NC369455  11.371   9.160   5.328
 5428POPC   PO469456  11.581   8.551   5.247
 5428POPC   GL169457  11.379   8.829   5.701
 5428POPC   GL269458  11.064   8.869   5.934
 5428POPC   C1A69459  11.467   9.105   6.089
 5428POPC   D2A69460  11.178   9.010   6.463
 5428POPC   C3A69461  11.334   9.173   6.890
 5428POPC   C4A69462  11.432   8.956   7.305
 5428POPC   C1B69463  10.832   8.619   6.256
 5428POPC   C2B69464  10.856   8.487   6.693
 5428POPC   C3B69465  11.013   8.770   7.021
 5428POPC   C4B69466  10.877   8.810   7.498
 5429POPC   NC369467   4.465  12.327   5.397
 5429POPC   PO469468   4.224  11.699   5.519
 5429POPC   GL169469   4.392  11.768   5.881
 5429POPC   GL269470   4.262  12.141   5.873
 5429POPC   C1A69471   4.241  11.811   6.278
 5429POPC   D2A69472   4.270  12.155   6.513
 5429POPC   C3A69473   4.351  12.066   6.920
 5429POPC   C4A69474   4.196  11.952   7.300
 5429POPC   C1B69475   4.009  12.418   6.135
 5429POPC   C2B69476   3.864  12.444   6.567
 5429POPC   C3B69477   3.896  12.300   6.988
 5429POPC   C4B69478   3.906  12.348   7.449
 5430POPC   NC369479  40.188  42.120   5.498
 5430POPC   PO469480  40.556  42.596   5.694
 5430POPC   GL169481  40.185  42.418   5.910
 5430POPC   GL269482  39.840  42.199   5.852
 5430POPC   C1A69483  40.199  42.141   6.259
 5430POPC   D2A69484  40.424  42.106   6.687
 5430POPC   C3A69485  40.333  42.443   6.983
 5430POPC   C4A69486  40.334  42.560   7.420
 5430POPC   C1B69487  39.772  41.891   6.197
 5430POPC   C2B69488  39.929  41.953   6.643
 5430POPC   C3B69489  40.012  42.030   7.046
 5430POPC   C4B69490  39.835  42.415   7.168
 5431POPC   NC369491  44.290  41.200   5.613
 5431POPC   PO469492  44.783  41.599   5.282
 5431POPC   GL169493  44.773  41.395   5.672
 5431POPC   GL269494  44.572  41.655   5.816
 5431POPC   C1A69495  44.742  41.313   6.147
 5431POPC   D2A69496  44.668  41.438   6.587
 5431POPC   C3A69497  44.839  41.795   6.844
 5431POPC   C4A69498  44.995  41.682   7.253
 5431POPC   C1B69499  44.328  41.711   6.197
 5431POPC   C2B69500  44.333  41.819   6.628
 5431POPC   C3B69501  44.406  41.589   7.034
 5431POPC   C4B69502  44.229  41.632   7.452
 5432POPC   NC369503   8.070  38.522   5.417
 5432POPC   PO469504   8.467  38.963   5.173
 5432POPC   GL169505   8.335  38.878   5.694
 5432POPC   GL269506   8.077  38.610   5.896
 5432POPC   C1A69507   8.411  38.816   6.182
 5432POPC   D2A69508   8.368  38.417   6.442
 5432POPC   C3A69509   8.298  38.451   6.908
 5432POPC   C4A69510   7.977  38.296   7.191
 5432POPC   C1B69511   7.877  38.776   6.230
 5432POPC   C2B69512   8.010  38.761   6.627
 5432POPC   C3B69513   7.810  38.776   6.988
 5432POPC   C4B69514   7.929  38.784   7.395
 5433POPC   NC369515   2.506   5.250   5.442
 5433POPC   PO469516   1.817   5.316   5.407
 5433POPC   GL169517   1.782   5.121   5.795
 5433POPC   GL269518   2.143   5.064   5.803
 5433POPC   C1A69519   1.821   4.981   6.216
 5433POPC   D2A69520   1.814   5.163   6.615
 5433POPC   C3A69521   1.814   4.865   6.954
 5433POPC   C4A69522   1.819   4.928   7.389
 5433POPC   C1B69523   2.333   5.295   6.146
 5433POPC   C2B69524   2.547   5.369   6.530
 5433POPC   C3B69525   2.364   5.296   6.927
 5433POPC   C4B69526   1.932   5.388   7.069
 5434POPC   NC369527  21.860  30.225   5.341
 5434POPC   PO469528  22.347  29.768   5.159
 5434POPC   GL169529  22.253  29.953   5.605
 5434POPC   GL269530  22.448  29.718   5.808
 5434POPC   C1A69531  22.238  30.069   6.092
 5434POPC   D2A69532  22.057  30.145   6.512
 5434POPC   C3A69533  21.931  30.048   6.936
 5434POPC   C4A69534  21.998  29.757   7.267
 5434POPC   C1B69535  22.286  29.547   6.173
 5434POPC   C2B69536  22.115  29.653   6.524
 5434POPC   C3B69537  22.293  29.681   6.869
 5434POPC   C4B69538  22.302  29.353   7.160
 5435POPC   NC369539  42.346  35.078   5.388
 5435POPC   PO469540  42.198  35.761   5.221
 5435POPC   GL169541  42.462  35.545   5.637
 5435POPC   GL269542  42.399  35.206   5.870
 5435POPC   C1A69543  42.536  35.628   6.109
 5435POPC   D2A69544  42.400  35.420   6.515
 5435POPC   C3A69545  42.441  35.613   6.930
 5435POPC   C4A69546  42.417  35.480   7.369
 5435POPC   C1B69547  42.052  35.159   6.181
 5435POPC   C2B69548  41.883  35.219   6.610
 5435POPC   C3B69549  42.093  35.213   7.028
 5435POPC   C4B69550  42.047  35.079   7.483
 5436POPC   NC369551  27.418  24.526   5.424
 5436POPC   PO469552  27.951  24.830   5.680
 5436POPC   GL169553  27.704  24.606   5.944
 5436POPC   GL269554  27.665  24.257   5.861
 5436POPC   C1A69555  27.863  24.562   6.379
 5436POPC   D2A69556  28.200  24.309   6.556
 5436POPC   C3A69557  28.048  24.148   6.945
 5436POPC   C4A69558  27.681  24.352   7.135
 5436POPC   C1B69559  27.406  24.317   6.254
 5436POPC   C2B69560  27.378  24.330   6.704
 5436POPC   C3B69561  27.185  24.467   7.088
 5436POPC   C4B69562  27.266  24.195   7.453
 5437POPC   NC369563  13.490  20.018   5.380
 5437POPC   PO469564  13.759  19.436   5.481
 5437POPC   GL169565  13.552  19.701   5.804
 5437POPC   GL269566  13.232  19.572   5.980
 5437POPC   C1A69567  13.627  19.810   6.236
 5437POPC   D2A69568  13.429  19.774   6.658
 5437POPC   C3A69569  13.691  19.613   6.983
 5437POPC   C4A69570  13.965  19.930   7.212
 5437POPC   C1B69571  13.131  19.926   6.272
 5437POPC   C2B69572  13.099  20.173   6.649
 5437POPC   C3B69573  13.279  20.074   7.061
 5437POPC   C4B69574  13.302  20.244   7.494
 5438POPC   NC369575   4.522  43.879   5.427
 5438POPC   PO469576   3.924  43.786   5.157
 5438POPC   GL169577   4.060  43.732   5.618
 5438POPC   GL269578   4.292  43.881   5.870
 5438POPC   C1A69579   3.912  43.689   6.095
 5438POPC   D2A69580   4.178  43.837   6.435
 5438POPC   C3A69581   4.212  43.791   6.899
 5438POPC   C4A69582   4.206  43.563   7.305
 5438POPC   C1B69583   4.582  43.994   6.148
 5438POPC   C2B69584   4.645  43.980   6.595
 5438POPC   C3B69585   4.626  44.107   7.024
 5438POPC   C4B69586   4.531  43.935   7.425
 5439POPC   NC369587  15.630   5.488   5.454
 5439POPC   PO469588  15.742   6.192   5.408
 5439POPC   GL169589  15.991   5.976   5.769
 5439POPC   GL269590  15.978   5.654   5.795
 5439POPC   C1A69591  16.315   5.945   6.121
 5439POPC   D2A69592  16.487   5.973   6.556
 5439POPC   C3A69593  16.249   5.863   6.974
 5439POPC   C4A69594  15.893   6.057   7.213
 5439POPC   C1B69595  15.810   5.816   6.200
 5439POPC   C2B69596  15.980   5.738   6.546
 5439POPC   C3B69597  15.766   5.674   6.890
 5439POPC   C4B69598  15.917   5.526   7.251
 5440POPC   NC369599  12.799   7.155   5.360
 5440POPC   PO469600  13.011   6.569   5.337
 5440POPC   GL169601  12.759   6.635   5.733
 5440POPC   GL269602  12.493   6.938   5.743
 5440POPC   C1A69603  12.946   6.570   6.161
 5440POPC   D2A69604  13.189   6.700   6.533
 5440POPC   C3A69605  12.999   6.496   6.874
 5440POPC   C4A69606  13.005   6.477   7.313
 5440POPC   C1B69607  12.642   7.019   6.184
 5440POPC   C2B69608  12.646   6.769   6.584
 5440POPC   C3B69609  12.708   6.882   7.038
 5440POPC   C4B69610  12.633   6.856   7.472
 5441POPC   NC369611  15.106  34.264   5.331
 5441POPC   PO469612  15.013  33.659   5.272
 5441POPC   GL169613  15.137  33.750   5.696
 5441POPC   GL269614  15.371  33.477   5.732
 5441POPC   C1A69615  14.955  33.725   6.133
 5441POPC   D2A69616  15.173  33.739   6.553
 5441POPC   C3A69617  15.044  33.855   6.986
 5441POPC   C4A69618  15.208  33.683   7.383
 5441POPC   C1B69619  15.462  33.666   6.116
 5441POPC   C2B69620  15.687  33.639   6.459
 5441POPC   C3B69621  15.523  33.495   6.856
 5441POPC   C4B69622  15.682  33.501   7.251
 5442POPC   NC369623  35.929  44.149   5.429
 5442POPC   PO469624  36.584  44.269   5.507
 5442POPC   GL169625  36.403  44.035   5.858
 5442POPC   GL269626  36.056  43.933   5.871
 5442POPC   C1A69627  36.318  43.985   6.289
 5442POPC   D2A69628  36.128  43.746   6.596
 5442POPC   C3A69629  36.230  43.932   6.935
 5442POPC   C4A69630  36.239  43.736   7.320
 5442POPC   C1B69631  35.802  43.724   6.197
 5442POPC   C2B69632  35.603  43.726   6.635
 5442POPC   C3B69633  35.820  43.644   7.043
 5442POPC   C4B69634  35.827  43.574   7.532
 5443POPC   NC369635  12.033  39.744   5.246
 5443POPC   PO469636  12.356  40.322   5.382
 5443POPC   GL169637  12.211  39.991   5.669
 5443POPC   GL269638  11.839  39.996   5.712
 5443POPC   C1A69639  12.278  40.120   6.079
 5443POPC   D2A69640  12.094  40.301   6.436
 5443POPC   C3A69641  12.310  40.098   6.765
 5443POPC   C4A69642  12.202  40.001   7.165
 5443POPC   C1B69643  11.881  39.808   6.160
 5443POPC   C2B69644  11.856  39.878   6.631
 5443POPC   C3B69645  11.821  39.676   7.033
 5443POPC   C4B69646  12.073  39.503   7.380
 5444POPC   NC369647  39.716  17.142   5.490
 5444POPC   PO469648  39.229  16.665   5.374
 5444POPC   GL169649  39.145  16.816   5.796
 5444POPC   GL269650  39.407  17.030   5.871
 5444POPC   C1A69651  39.158  16.604   6.234
 5444POPC   D2A69652  39.096  16.394   6.673
 5444POPC   C3A69653  39.264  16.514   7.069
 5444POPC   C4A69654  39.200  16.591   7.491
 5444POPC   C1B69655  39.577  16.903   6.267
 5444POPC   C2B69656  39.541  16.679   6.639
 5444POPC   C3B69657  39.667  16.832   7.050
 5444POPC   C4B69658  39.675  16.725   7.460
 5445POPC   NC369659  14.905  16.659   5.440
 5445POPC   PO469660  14.203  16.607   5.427
 5445POPC   GL169661  14.493  16.595   5.767
 5445POPC   GL269662  14.636  16.895   5.818
 5445POPC   C1A69663  14.495  16.545   6.194
 5445POPC   D2A69664  14.484  16.743   6.604
 5445POPC   C3A69665  14.243  16.570   6.960
 5445POPC   C4A69666  14.425  16.493   7.363
 5445POPC   C1B69667  14.395  17.070   6.164
 5445POPC   C2B69668  14.416  17.244   6.580
 5445POPC   C3B69669  14.342  17.067   7.013
 5445POPC   C4B69670  14.480  16.975   7.486
 5446POPC   NC369671   4.610  29.771   5.514
 5446POPC   PO469672   3.951  30.038   5.486
 5446POPC   GL169673   4.282  30.074   5.786
 5446POPC   GL269674   4.271  29.726   5.910
 5446POPC   C1A69675   4.551  30.062   6.164
 5446POPC   D2A69676   4.392  29.875   6.524
 5446POPC   C3A69677   4.558  29.954   6.897
 5446POPC   C4A69678   4.323  30.113   7.190
 5446POPC   C1B69679   4.557  29.517   6.224
 5446POPC   C2B69680   4.495  29.385   6.687
 5446POPC   C3B69681   4.402  29.515   7.143
 5446POPC   C4B69682   4.544  29.413   7.611
 5447POPC   NC369683  39.595   0.981   5.313
 5447POPC   PO469684  39.352   0.295   5.360
 5447POPC   GL169685  39.310   0.484   5.745
 5447POPC   GL269686  39.568   0.725   5.758
 5447POPC   C1A69687  39.062   0.454   6.130
 5447POPC   D2A69688  39.013   0.233   6.522
 5447POPC   C3A69689  39.052   0.414   6.966
 5447POPC   C4A69690  39.290   0.436   7.375
 5447POPC   C1B69691  39.456   0.791   6.173
 5447POPC   C2B69692  39.234   0.742   6.557
 5447POPC   C3B69693  39.447   0.724   6.949
 5447POPC   C4B69694  39.595   0.860   7.303
 5448POPC   NC369695   6.363   2.239   5.507
 5448POPC   PO469696   6.898   1.993   5.065
 5448POPC   GL169697   6.766   1.883   5.566
 5448POPC   GL269698   6.976   1.624   5.719
 5448POPC   C1A69699   6.645   1.968   6.059
 5448POPC   D2A69700   6.687   2.294   6.441
 5448POPC   C3A69701   6.462   2.321   6.858
 5448POPC   C4A69702   6.568   2.078   7.215
 5448POPC   C1B69703   7.022   1.596   6.177
 5448POPC   C2B69704   7.109   1.691   6.618
 5448POPC   C3B69705   6.923   1.754   7.024
 5448POPC   C4B69706   6.996   1.771   7.495
 5449POPC   NC369707  36.542  17.988   5.392
 5449POPC   PO469708  37.155  18.306   5.352
 5449POPC   GL169709  36.895  18.190   5.711
 5449POPC   GL269710  37.139  18.013   5.800
 5449POPC   C1A69711  36.848  18.290   6.161
 5449POPC   D2A69712  37.084  18.390   6.546
 5449POPC   C3A69713  36.824  18.346   6.915
 5449POPC   C4A69714  36.804  17.957   7.158
 5449POPC   C1B69715  37.332  18.115   6.178
 5449POPC   C2B69716  37.362  17.896   6.542
 5449POPC   C3B69717  37.276  18.060   6.952
 5449POPC   C4B69718  37.162  18.329   7.293
 5450POPC   NC369719  22.083  18.551   5.265
 5450POPC   PO469720  22.098  17.877   5.442
 5450POPC   GL169721  22.065  18.248   5.726
 5450POPC   GL269722  22.416  18.326   5.840
 5450POPC   C1A69723  21.820  18.267   6.137
 5450POPC   D2A69724  21.925  18.119   6.565
 5450POPC   C3A69725  21.834  18.266   6.970
 5450POPC   C4A69726  22.095  18.593   7.230
 5450POPC   C1B69727  22.287  17.997   6.162
 5450POPC   C2B69728  22.341  17.814   6.601
 5450POPC   C3B69729  22.115  17.780   6.991
 5450POPC   C4B69730  22.230  18.115   7.239
 5451POPC   NC369731  19.521   1.966   5.569
 5451POPC   PO469732  19.982   1.550   5.317
 5451POPC   GL169733  19.953   1.733   5.739
 5451POPC   GL269734  20.231   1.961   5.807
 5451POPC   C1A69735  19.879   1.810   6.205
 5451POPC   D2A69736  19.696   1.827   6.620
 5451POPC   C3A69737  19.966   1.915   6.954
 5451POPC   C4A69738  19.793   1.970   7.353
 5451POPC   C1B69739  20.284   2.254   6.174
 5451POPC   C2B69740  20.000   2.281   6.510
 5451POPC   C3B69741  20.085   2.418   6.891
 5451POPC   C4B69742  20.221   2.265   7.264
 5452POPC   NC369743  26.555  19.560   5.488
 5452POPC   PO469744  26.007  19.842   5.224
 5452POPC   GL169745  26.145  19.875   5.653
 5452POPC   GL269746  26.452  20.063   5.689
 5452POPC   C1A69747  26.221  19.830   6.098
 5452POPC   D2A69748  26.001  19.790   6.466
 5452POPC   C3A69749  26.186  19.922   6.859
 5452POPC   C4A69750  26.070  19.696   7.232
 5452POPC   C1B69751  26.268  20.329   6.033
 5452POPC   C2B69752  26.108  20.298   6.449
 5452POPC   C3B69753  26.018  20.412   6.878
 5452POPC   C4B69754  25.884  20.169   7.252
 5453POPC   NC369755  23.990  21.536   5.397
 5453POPC   PO469756  23.602  21.046   5.359
 5453POPC   GL169757  23.752  21.146   5.739
 5453POPC   GL269758  23.636  21.472   5.792
 5453POPC   C1A69759  23.851  21.082   6.173
 5453POPC   D2A69760  23.688  21.227   6.566
 5453POPC   C3A69761  23.597  20.991   6.918
 5453POPC   C4A69762  23.632  21.127   7.313
 5453POPC   C1B69763  23.799  21.578   6.212
 5453POPC   C2B69764  23.850  21.719   6.631
 5453POPC   C3B69765  23.764  21.515   7.000
 5453POPC   C4B69766  24.002  21.467   7.352
 5454POPC   NC369767  14.618  27.948   5.486
 5454POPC   PO469768  14.464  28.561   5.151
 5454POPC   GL169769  14.514  28.442   5.584
 5454POPC   GL269770  14.190  28.463   5.728
 5454POPC   C1A69771  14.579  28.397   6.053
 5454POPC   D2A69772  14.622  28.224   6.471
 5454POPC   C3A69773  14.532  28.449   6.802
 5454POPC   C4A69774  14.308  28.379   7.146
 5454POPC   C1B69775  14.009  28.345   6.150
 5454POPC   C2B69776  14.071  28.386   6.605
 5454POPC   C3B69777  13.946  28.095   6.950
 5454POPC   C4B69778  13.976  28.031   7.401
 5455POPC   NC369779   8.572  29.298   5.340
 5455POPC   PO469780   9.249  29.047   5.140
 5455POPC   GL169781   9.095  29.049   5.621
 5455POPC   GL269782   8.822  29.266   5.789
 5455POPC   C1A69783   8.988  28.879   6.091
 5455POPC   D2A69784   8.904  28.948   6.573
 5455POPC   C3A69785   9.284  28.989   6.834
 5455POPC   C4A69786   9.347  29.171   7.258
 5455POPC   C1B69787   8.776  29.538   6.155
 5455POPC   C2B69788   8.688  29.437   6.582
 5455POPC   C3B69789   8.952  29.377   6.935
 5455POPC   C4B69790   8.881  29.003   7.165
 5456POPC   NC369791  17.824  41.967   5.722
 5456POPC   PO469792  17.453  42.482   5.461
 5456POPC   GL169793  17.496  42.341   5.857
 5456POPC   GL269794  17.342  42.018   5.769
 5456POPC   C1A69795  17.611  42.240   6.274
 5456POPC   D2A69796  17.445  42.160   6.654
 5456POPC   C3A69797  17.688  42.247   7.004
 5456POPC   C4A69798  17.760  42.695   7.128
 5456POPC   C1B69799  17.106  42.032   6.115
 5456POPC   C2B69800  17.035  41.901   6.499
 5456POPC   C3B69801  16.996  42.085   6.898
 5456POPC   C4B69802  17.231  42.143   7.246
 5457POPC   NC369803  44.715  24.945   5.445
 5457POPC   PO469804  44.414  24.299   5.486
 5457POPC   GL169805  44.645  24.321   5.861
 5457POPC   GL269806  44.781  24.655   5.865
 5457POPC   C1A69807  44.644  24.197   6.281
 5457POPC   D2A69808  44.528  24.357   6.662
 5457POPC   C3A69809  44.744  24.693   6.805
 5457POPC   C4A69810  44.733  24.628   7.207
 5457POPC   C1B69811  44.604  24.790   6.266
 5457POPC   C2B69812  44.284  24.843   6.622
 5457POPC   C3B69813  44.338  24.982   7.051
 5457POPC   C4B69814  44.269  24.758   7.446
 5458POPC   NC369815  35.824  39.361   5.642
 5458POPC   PO469816  36.305  39.209   5.197
 5458POPC   GL169817  36.124  38.976   5.746
 5458POPC   GL269818  36.073  39.286   6.052
 5458POPC   C1A69819  36.331  38.909   6.212
 5458POPC   D2A69820  35.982  39.087   6.507
 5458POPC   C3A69821  36.114  39.296   6.858
 5458POPC   C4A69822  36.123  39.090   7.243
 5458POPC   C1B69823  35.916  39.609   6.389
 5458POPC   C2B69824  35.855  39.757   6.854
 5458POPC   C3B69825  35.967  39.568   7.278
 5458POPC   C4B69826  35.949  39.663   7.719
 5459POPC   NC369827  35.949  30.229   5.397
 5459POPC   PO469828  36.219  29.621   5.437
 5459POPC   GL169829  36.005  29.819   5.764
 5459POPC   GL269830  36.293  29.999   5.817
 5459POPC   C1A69831  35.918  29.974   6.187
 5459POPC   D2A69832  35.959  30.286   6.561
 5459POPC   C3A69833  36.025  30.100   6.978
 5459POPC   C4A69834  36.005  29.636   7.065
 5459POPC   C1B69835  36.429  30.023   6.223
 5459POPC   C2B69836  36.269  29.867   6.589
 5459POPC   C3B69837  36.476  29.868   6.975
 5459POPC   C4B69838  36.591  30.064   7.361
 5460POPC   NC369839  41.762   2.216   4.946
 5460POPC   PO469840  41.587   2.760   5.299
 5460POPC   GL169841  41.544   2.841   5.721
 5460POPC   GL269842  41.362   2.585   5.814
 5460POPC   C1A69843  41.735   2.752   6.146
 5460POPC   D2A69844  41.998   2.927   6.495
 5460POPC   C3A69845  41.800   2.803   6.909
 5460POPC   C4A69846  41.556   2.997   7.251
 5460POPC   C1B69847  41.209   2.616   6.196
 5460POPC   C2B69848  41.312   2.830   6.536
 5460POPC   C3B69849  41.305   2.693   6.919
 5460POPC   C4B69850  41.097   2.768   7.259
 5461POPC   NC369851  13.597  21.637   5.322
 5461POPC   PO469852  13.688  20.949   5.326
 5461POPC   GL169853  13.678  21.316   5.722
 5461POPC   GL269854  13.446  21.611   5.812
 5461POPC   C1A69855  13.810  21.533   6.174
 5461POPC   D2A69856  13.703  21.337   6.583
 5461POPC   C3A69857  13.742  21.451   7.001
 5461POPC   C4A69858  14.097  21.428   7.248
 5461POPC   C1B69859  13.313  21.478   6.232
 5461POPC   C2B69860  13.212  21.222   6.593
 5461POPC   C3B69861  13.390  21.066   6.980
 5461POPC   C4B69862  13.267  21.447   7.193
 5462POPC   NC369863  43.445  32.451   5.561
 5462POPC   PO469864  42.836  32.282   5.596
 5462POPC   GL169865  43.031  32.209   5.925
 5462POPC   GL269866  43.341  32.041   5.846
 5462POPC   C1A69867  42.953  32.081   6.342
 5462POPC   D2A69868  42.768  32.254   6.700
 5462POPC   C3A69869  42.838  31.962   7.015
 5462POPC   C4A69870  43.030  32.098   7.373
 5462POPC   C1B69871  43.423  32.211   6.223
 5462POPC   C2B69872  43.459  32.258   6.604
 5462POPC   C3B69873  43.366  32.172   6.998
 5462POPC   C4B69874  43.534  32.089   7.379
 5463POPC   NC369875   1.387  19.698   5.481
 5463POPC   PO469876   1.052  20.115   5.158
 5463POPC   GL169877   1.242  20.129   5.683
 5463POPC   GL269878   1.513  19.994   5.879
 5463POPC   C1A69879   1.086  20.072   6.149
 5463POPC   D2A69880   0.801  20.149   6.519
 5463POPC   C3A69881   1.001  20.078   6.935
 5463POPC   C4A69882   1.003  20.020   7.384
 5463POPC   C1B69883   1.484  19.722   6.251
 5463POPC   C2B69884   1.496  19.818   6.691
 5463POPC   C3B69885   1.666  19.695   7.059
 5463POPC   C4B69886   1.517  19.431   7.366
 5464POPC   NC369887  24.114  22.224   5.344
 5464POPC   PO469888  23.548  21.823   5.427
 5464POPC   GL169889  23.706  22.158   5.691
 5464POPC   GL269890  23.899  21.931   5.846
 5464POPC   C1A69891  23.819  22.380   6.120
 5464POPC   D2A69892  23.758  22.537   6.580
 5464POPC   C3A69893  23.861  22.229   6.941
 5464POPC   C4A69894  23.797  21.929   7.294
 5464POPC   C1B69895  23.494  21.959   6.119
 5464POPC   C2B69896  23.362  21.818   6.545
 5464POPC   C3B69897  23.403  21.904   6.981
 5464POPC   C4B69898  23.268  21.985   7.411
 5465POPC   NC369899  11.573   3.225   5.485
 5465POPC   PO469900  11.075   3.545   5.369
 5465POPC   GL169901  11.324   3.599   5.777
 5465POPC   GL269902  11.488   3.910   5.844
 5465POPC   C1A69903  11.274   3.510   6.236
 5465POPC   D2A69904  11.013   3.494   6.643
 5465POPC   C3A69905  11.264   3.475   7.022
 5465POPC   C4A69906  11.588   3.377   7.321
 5465POPC   C1B69907  11.177   4.004   6.165
 5465POPC   C2B69908  11.284   3.910   6.570
 5465POPC   C3B69909  11.225   3.978   6.977
 5465POPC   C4B69910  11.296   3.865   7.393
 5466POPC   NC369911  28.017  20.009   5.362
 5466POPC   PO469912  28.591  20.298   5.215
 5466POPC   GL169913  28.488  20.394   5.673
 5466POPC   GL269914  28.225  20.688   5.732
 5466POPC   C1A69915  28.612  20.553   6.096
 5466POPC   D2A69916  28.360  20.516   6.472
 5466POPC   C3A69917  28.570  20.703   6.830
 5466POPC   C4A69918  28.747  20.556   7.203
 5466POPC   C1B69919  27.992  20.836   6.140
 5466POPC   C2B69920  27.847  20.644   6.530
 5466POPC   C3B69921  28.069  20.428   6.873
 5466POPC   C4B69922  28.248  20.624   7.247
 5467POPC   NC369923  39.929   6.098   5.389
 5467POPC   PO469924  39.790   5.420   5.318
 5467POPC   GL169925  39.781   5.729   5.726
 5467POPC   GL269926  40.119   5.898   5.822
 5467POPC   C1A69927  39.728   5.931   6.156
 5467POPC   D2A69928  39.839   5.757   6.561
 5467POPC   C3A69929  39.861   5.988   6.914
 5467POPC   C4A69930  39.610   6.065   7.273
 5467POPC   C1B69931  40.217   5.659   6.206
 5467POPC   C2B69932  40.318   5.566   6.634
 5467POPC   C3B69933  40.323   5.798   7.036
 5467POPC   C4B69934  40.370   6.219   7.189
 5468POPC   NC369935  14.593  37.817   5.219
 5468POPC   PO469936  14.510  38.493   5.328
 5468POPC   GL169937  14.461  38.421   5.784
 5468POPC   GL269938  14.197  38.158   5.824
 5468POPC   C1A69939  14.718  38.509   6.156
 5468POPC   D2A69940  14.746  38.791   6.504
 5468POPC   C3A69941  14.409  38.804   6.818
 5468POPC   C4A69942  14.521  38.672   7.230
 5468POPC   C1B69943  14.239  38.313   6.260
 5468POPC   C2B69944  14.552  38.279   6.590
 5468POPC   C3B69945  14.366  38.273   6.965
 5468POPC   C4B69946  14.022  38.548   7.121
 5469POPC   NC369947  43.905   9.731   5.231
 5469POPC   PO469948  43.865  10.361   5.353
 5469POPC   GL169949  43.784   9.951   5.655
 5469POPC   GL269950  44.045   9.688   5.724
 5469POPC   C1A69951  43.696   9.687   6.075
 5469POPC   D2A69952  43.943   9.603   6.478
 5469POPC   C3A69953  43.738   9.571   6.881
 5469POPC   C4A69954  43.615   9.911   7.206
 5469POPC   C1B69955  44.214   9.878   6.108
 5469POPC   C2B69956  44.410   9.865   6.521
 5469POPC   C3B69957  44.351   9.606   6.869
 5469POPC   C4B69958  44.130   9.297   7.117
 5470POPC   NC369959   6.095  44.823   5.388
 5470POPC   PO469960   5.719  44.288   5.546
 5470POPC   GL169961   5.795  44.529   5.885
 5470POPC   GL269962   6.131  44.529   5.817
 5470POPC   C1A69963   5.676  44.665   6.325
 5470POPC   D2A69964   5.759  44.737   6.767
 5470POPC   C3A69965   5.615  44.457   7.060
 5470POPC   C4A69966   5.654  44.750   7.380
 5470POPC   C1B69967   6.177  44.722   6.227
 5470POPC   C2B69968   6.257  44.642   6.689
 5470POPC   C3B69969   6.124  44.595   7.125
 5470POPC   C4B69970   6.219  44.702   7.562
 5471POPC   NC369971  32.365   2.437   5.368
 5471POPC   PO469972  31.947   1.890   5.409
 5471POPC   GL169973  31.998   2.101   5.793
 5471POPC   GL269974  32.262   2.355   5.859
 5471POPC   C1A69975  32.145   1.977   6.222
 5471POPC   D2A69976  32.371   2.070   6.597
 5471POPC   C3A69977  32.443   1.824   6.981
 5471POPC   C4A69978  32.224   1.615   7.352
 5471POPC   C1B69979  32.357   2.483   6.268
 5471POPC   C2B69980  32.498   2.556   6.683
 5471POPC   C3B69981  32.393   2.340   7.065
 5471POPC   C4B69982  32.427   2.068   7.435
 5472POPC   NC369983   1.790   6.608   5.444
 5472POPC   PO469984   2.292   7.041   5.252
 5472POPC   GL169985   2.098   6.914   5.698
 5472POPC   GL269986   2.144   6.542   5.815
 5472POPC   C1A69987   1.788   6.777   6.089
 5472POPC   D2A69988   1.670   6.585   6.510
 5472POPC   C3A69989   1.770   6.768   6.900
 5472POPC   C4A69990   2.105   6.719   7.196
 5472POPC   C1B69991   1.967   6.293   6.175
 5472POPC   C2B69992   1.947   6.106   6.577
 5472POPC   C3B69993   2.074   6.283   6.948
 5472POPC   C4B69994   1.938   6.280   7.384
 5473POPC   NC369995  40.522  35.465   5.451
 5473POPC   PO469996  41.104  35.162   5.581
 5473POPC   GL169997  40.920  35.429   5.891
 5473POPC   GL269998  40.615  35.608   5.922
 5473POPC   C1A69999  40.948  35.373   6.320
 5473POPC   D2A70000  41.056  35.048   6.608
 5473POPC   C3A70001  40.964  35.253   6.957
 5473POPC   C4A70002  40.773  35.171   7.340
 5473POPC   C1B70003  40.633  35.783   6.303
 5473POPC   C2B70004  40.587  35.538   6.667
 5473POPC   C3B70005  40.651  35.643   7.067
 5473POPC   C4B70006  40.618  35.963   7.322
 5474POPC   NC370007   6.088   3.840   5.320
 5474POPC   PO470008   5.709   3.231   5.258
 5474POPC   GL170009   5.976   3.437   5.597
 5474POPC   GL270010   5.743   3.485   5.829
 5474POPC   C1A70011   6.222   3.526   6.000
 5474POPC   D2A70012   6.346   3.506   6.457
 5474POPC   C3A70013   6.189   3.507   6.909
 5474POPC   C4A70014   6.263   3.730   7.325
 5474POPC   C1B70015   5.786   3.647   6.208
 5474POPC   C2B70016   5.849   3.401   6.520
 5474POPC   C3B70017   5.704   3.599   6.819
 5474POPC   C4B70018   5.776   3.609   7.213
 5475POPC   NC370019  41.423  26.357   5.285
 5475POPC   PO470020  41.751  25.784   5.476
 5475POPC   GL170021  41.542  25.918   5.846
 5475POPC   GL270022  41.385  26.252   5.791
 5475POPC   C1A70023  41.530  25.896   6.292
 5475POPC   D2A70024  41.560  25.688   6.665
 5475POPC   C3A70025  41.480  25.926   7.003
 5475POPC   C4A70026  41.607  25.840   7.430
 5475POPC   C1B70027  41.630  26.377   6.159
 5475POPC   C2B70028  41.496  26.317   6.598
 5475POPC   C3B70029  41.664  26.429   6.986
 5475POPC   C4B70030  41.637  26.420   7.426
 5476POPC   NC370031  32.821  21.087   5.506
 5476POPC   PO470032  32.709  20.486   5.255
 5476POPC   GL170033  32.950  20.581   5.641
 5476POPC   GL270034  32.700  20.451   5.843
 5476POPC   C1A70035  33.133  20.696   6.081
 5476POPC   D2A70036  33.076  20.909   6.507
 5476POPC   C3A70037  33.153  20.682   6.896
 5476POPC   C4A70038  33.360  20.720   7.284
 5476POPC   C1B70039  32.657  20.247   6.241
 5476POPC   C2B70040  32.839  20.289   6.663
 5476POPC   C3B70041  32.901  20.218   7.092
 5476POPC   C4B70042  32.824  20.386   7.479
 5477POPC   NC370043   3.526   9.144   5.250
 5477POPC   PO470044   3.525   9.802   5.353
 5477POPC   GL170045   3.560   9.502   5.700
 5477POPC   GL270046   3.319   9.737   5.844
 5477POPC   C1A70047   3.635   9.501   6.189
 5477POPC   D2A70048   3.547   9.492   6.676
 5477POPC   C3A70049   3.840   9.748   6.986
 5477POPC   C4A70050   3.757   9.771   7.460
 5477POPC   C1B70051   3.468  10.006   6.159
 5477POPC   C2B70052   3.633   9.990   6.560
 5477POPC   C3B70053   3.414   9.996   6.925
 5477POPC   C4B70054   3.284   9.967   7.324
 5478POPC   NC370055  35.057  29.971   5.716
 5478POPC   PO470056  34.463  30.141   5.360
 5478POPC   GL170057  34.538  29.967   5.756
 5478POPC   GL270058  34.603  29.633   5.833
 5478POPC   C1A70059  34.540  30.059   6.200
 5478POPC   D2A70060  34.591  29.905   6.621
 5478POPC   C3A70061  34.776  30.111   6.968
 5478POPC   C4A70062  34.589  30.129   7.344
 5478POPC   C1B70063  34.669  29.458   6.277
 5478POPC   C2B70064  34.606  29.414   6.735
 5478POPC   C3B70065  34.584  29.653   7.136
 5478POPC   C4B70066  34.767  29.741   7.588
 5479POPC   NC370067  29.833  36.079   4.864
 5479POPC   PO470068  30.048  36.311   5.466
 5479POPC   GL170069  29.829  36.306   5.885
 5479POPC   GL270070  29.504  36.124   5.952
 5479POPC   C1A70071  29.833  36.221   6.363
 5479POPC   D2A70072  30.037  36.222   6.766
 5479POPC   C3A70073  29.928  36.475   7.092
 5479POPC   C4A70074  29.805  36.249   7.411
 5479POPC   C1B70075  29.420  35.917   6.384
 5479POPC   C2B70076  29.726  35.797   6.716
 5479POPC   C3B70077  29.794  35.801   7.180
 5479POPC   C4B70078  29.446  35.873   7.503
 5480POPC   NC370079  20.163  20.723   5.391
 5480POPC   PO470080  20.823  20.836   5.311
 5480POPC   GL170081  20.618  20.632   5.717
 5480POPC   GL270082  20.317  20.736   5.868
 5480POPC   C1A70083  20.561  20.434   6.181
 5480POPC   D2A70084  20.748  20.283   6.600
 5480POPC   C3A70085  20.557  20.340   7.027
 5480POPC   C4A70086  20.610  20.559   7.444
 5480POPC   C1B70087  20.191  20.978   6.216
 5480POPC   C2B70088  20.375  20.970   6.621
 5480POPC   C3B70089  20.318  20.800   7.044
 5480POPC   C4B70090  20.096  20.628   7.437
 5481POPC   NC370091   6.292  40.925   5.646
 5481POPC   PO470092   6.838  40.613   5.310
 5481POPC   GL170093   6.661  40.551   5.747
 5481POPC   GL270094   6.734  40.893   5.919
 5481POPC   C1A70095   6.529  40.548   6.213
 5481POPC   D2A70096   6.534  40.780   6.626
 5481POPC   C3A70097   6.413  40.577   6.961
 5481POPC   C4A70098   6.737  40.438   7.237
 5481POPC   C1B70099   6.399  41.077   6.244
 5481POPC   C2B70100   6.134  41.111   6.618
 5481POPC   C3B70101   6.225  41.071   7.045
 5481POPC   C4B70102   6.655  41.016   7.150
 5482POPC   NC370103   6.722  33.367   5.445
 5482POPC   PO470104   6.714  34.017   5.254
 5482POPC   GL170105   6.633  33.834   5.656
 5482POPC   GL270106   6.935  33.755   5.749
 5482POPC   C1A70107   6.582  33.690   6.112
 5482POPC   D2A70108   6.543  33.972   6.493
 5482POPC   C3A70109   6.469  33.821   6.931
 5482POPC   C4A70110   6.684  33.561   7.219
 5482POPC   C1B70111   6.975  34.009   6.141
 5482POPC   C2B70112   7.066  33.870   6.596
 5482POPC   C3B70113   6.971  33.948   7.037
 5482POPC   C4B70114   6.886  33.987   7.471
 5483POPC   NC370115  39.101  38.409   5.507
 5483POPC   PO470116  39.780  38.249   5.318
 5483POPC   GL170117  39.579  38.411   5.713
 5483POPC   GL270118  39.387  38.126   5.828
 5483POPC   C1A70119  39.422  38.512   6.142
 5483POPC   D2A70120  39.558  38.527   6.563
 5483POPC   C3A70121  39.327  38.560   6.945
 5483POPC   C4A70122  39.514  38.849   7.228
 5483POPC   C1B70123  39.173  38.042   6.233
 5483POPC   C2B70124  39.149  38.135   6.680
 5483POPC   C3B70125  39.091  38.092   7.140
 5483POPC   C4B70126  38.933  38.337   7.508
 5484POPC   NC370127  32.284  33.921   5.515
 5484POPC   PO470128  32.523  33.243   5.356
 5484POPC   GL170129  32.416  33.458   5.724
 5484POPC   GL270130  32.118  33.563   5.887
 5484POPC   C1A70131  32.579  33.541   6.149
 5484POPC   D2A70132  32.650  33.673   6.596
 5484POPC   C3A70133  32.450  33.609   7.019
 5484POPC   C4A70134  32.259  33.968   7.254
 5484POPC   C1B70135  32.139  33.692   6.346
 5484POPC   C2B70136  32.105  33.881   6.762
 5484POPC   C3B70137  31.800  33.757   7.110
 5484POPC   C4B70138  31.802  33.923   7.553
 5485POPC   NC370139   1.570  17.846   5.620
 5485POPC   PO470140   1.071  17.491   5.277
 5485POPC   GL170141   1.105  17.500   5.756
 5485POPC   GL270142   1.432  17.398   5.881
 5485POPC   C1A70143   1.082  17.373   6.243
 5485POPC   D2A70144   1.358  17.318   6.636
 5485POPC   C3A70145   1.102  17.382   7.013
 5485POPC   C4A70146   1.125  17.784   7.258
 5485POPC   C1B70147   1.525  17.645   6.256
 5485POPC   C2B70148   1.458  17.826   6.667
 5485POPC   C3B70149   1.548  17.615   7.043
 5485POPC   C4B70150   1.430  17.415   7.429
 5486POPC   NC370151   3.863   2.012   5.161
 5486POPC   PO470152   4.461   2.213   5.325
 5486POPC   GL170153   4.152   2.089   5.669
 5486POPC   GL270154   4.124   1.720   5.631
 5486POPC   C1A70155   4.159   2.291   6.106
 5486POPC   D2A70156   4.326   2.470   6.513
 5486POPC   C3A70157   4.156   2.267   6.879
 5486POPC   C4A70158   4.294   2.163   7.311
 5486POPC   C1B70159   4.220   1.725   6.080
 5486POPC   C2B70160   4.333   1.940   6.474
 5486POPC   C3B70161   4.521   1.903   6.870
 5486POPC   C4B70162   4.680   1.841   7.246
 5487POPC   NC370163  26.490  21.907   5.424
 5487POPC   PO470164  27.120  22.213   5.465
 5487POPC   GL170165  26.784  22.154   5.793
 5487POPC   GL270166  26.792  21.850   5.829
 5487POPC   C1A70167  26.552  22.113   6.223
 5487POPC   D2A70168  26.279  22.237   6.580
 5487POPC   C3A70169  26.498  22.232   6.976
 5487POPC   C4A70170  26.531  22.427   7.396
 5487POPC   C1B70171  27.039  21.964   6.181
 5487POPC   C2B70172  26.927  22.076   6.598
 5487POPC   C3B70173  27.146  22.096   6.982
 5487POPC   C4B70174  26.895  22.088   7.337
 5488POPC   NC370175  35.672  32.487   5.461
 5488POPC   PO470176  35.246  31.987   5.159
 5488POPC   GL170177  35.337  32.129   5.612
 5488POPC   GL270178  35.060  32.357   5.669
 5488POPC   C1A70179  35.544  32.210   6.067
 5488POPC   D2A70180  35.370  32.328   6.524
 5488POPC   C3A70181  35.529  32.143   6.923
 5488POPC   C4A70182  35.366  31.978   7.317
 5488POPC   C1B70183  35.087  32.442   6.103
 5488POPC   C2B70184  35.079  32.777   6.416
 5488POPC   C3B70185  35.006  32.788   6.852
 5488POPC   C4B70186  35.113  32.418   7.090
 5489POPC   NC370187   6.034   2.899   5.233
 5489POPC   PO470188   5.989   2.260   5.243
 5489POPC   GL170189   5.999   2.598   5.638
 5489POPC   GL270190   5.860   2.958   5.711
 5489POPC   C1A70191   5.960   2.642   6.099
 5489POPC   D2A70192   6.194   2.577   6.498
 5489POPC   C3A70193   6.013   2.647   6.936
 5489POPC   C4A70194   5.751   2.769   7.335
 5489POPC   C1B70195   5.699   3.086   6.137
 5489POPC   C2B70196   5.745   2.880   6.548
 5489POPC   C3B70197   5.760   3.111   6.959
 5489POPC   C4B70198   6.059   3.195   7.300
 5490POPC   NC370199  31.125  38.572   5.437
 5490POPC   PO470200  30.660  38.166   5.143
 5490POPC   GL170201  30.746  38.314   5.679
 5490POPC   GL270202  30.996  38.446   5.891
 5490POPC   C1A70203  30.570  38.397   6.127
 5490POPC   D2A70204  30.732  38.408   6.548
 5490POPC   C3A70205  30.437  38.395   6.887
 5490POPC   C4A70206  30.652  38.512   7.236
 5490POPC   C1B70207  31.099  38.689   6.256
 5490POPC   C2B70208  31.259  38.763   6.665
 5490POPC   C3B70209  30.936  38.814   6.965
 5490POPC   C4B70210  30.756  39.026   7.317
 5491POPC   NC370211  28.718  20.722   5.371
 5491POPC   PO470212  29.363  20.390   5.280
 5491POPC   GL170213  29.118  20.464   5.643
 5491POPC   GL270214  29.341  20.240   5.820
 5491POPC   C1A70215  29.142  20.664   6.076
 5491POPC   D2A70216  28.918  20.808   6.444
 5491POPC   C3A70217  29.087  20.709   6.840
 5491POPC   C4A70218  29.211  20.741   7.245
 5491POPC   C1B70219  29.089  20.170   6.209
 5491POPC   C2B70220  29.016  20.256   6.649
 5491POPC   C3B70221  29.161  20.242   7.074
 5491POPC   C4B70222  29.044  20.294   7.516
 5492POPC   NC370223   6.111  28.808   5.572
 5492POPC   PO470224   6.151  28.221   5.376
 5492POPC   GL170225   5.881  28.364   5.718
 5492POPC   GL270226   5.929  28.070   5.855
 5492POPC   C1A70227   5.636  28.482   6.130
 5492POPC   D2A70228   5.318  28.584   6.488
 5492POPC   C3A70229   5.490  28.676   6.914
 5492POPC   C4A70230   5.896  28.585   7.105
 5492POPC   C1B70231   5.892  27.903   6.253
 5492POPC   C2B70232   5.918  28.026   6.669
 5492POPC   C3B70233   5.951  27.905   7.078
 5492POPC   C4B70234   6.078  28.191   7.398
 5493POPC   NC370235  44.739  15.927   5.386
 5493POPC   PO470236  44.106  15.858   5.401
 5493POPC   GL170237  44.329  15.924   5.820
 5493POPC   GL270238  44.399  15.597   5.916
 5493POPC   C1A70239  44.453  15.919   6.313
 5493POPC   D2A70240  44.597  15.950   6.777
 5493POPC   C3A70241  44.911  16.182   7.005
 5493POPC   C4A70242  44.712  16.181   7.431
 5493POPC   C1B70243  44.835  15.755   6.037
 5493POPC   C2B70244   0.011  15.855   6.459
 5493POPC   C3B70245   0.039  15.685   6.870
 5493POPC   C4B70246  44.749  15.709   7.225
 5494POPC   NC370247   8.080  31.685   5.584
 5494POPC   PO470248   8.581  31.231   5.428
 5494POPC   GL170249   8.274  31.258   5.773
 5494POPC   GL270250   7.922  31.162   5.787
 5494POPC   C1A70251   8.148  31.478   6.184
 5494POPC   D2A70252   8.223  31.774   6.538
 5494POPC   C3A70253   8.196  31.613   6.960
 5494POPC   C4A70254   8.491  31.562   7.316
 5494POPC   C1B70255   7.713  31.215   6.194
 5494POPC   C2B70256   7.884  31.351   6.606
 5494POPC   C3B70257   7.961  31.141   7.011
 5494POPC   C4B70258   8.078  31.245   7.408
 5495POPC   NC370259   1.446   7.623   5.537
 5495POPC   PO470260   1.331   7.198   5.025
 5495POPC   GL170261   1.164   7.225   5.583
 5495POPC   GL270262   1.021   7.534   5.804
 5495POPC   C1A70263   1.393   7.230   6.055
 5495POPC   D2A70264   1.528   7.449   6.465
 5495POPC   C3A70265   1.445   7.232   6.891
 5495POPC   C4A70266   1.434   7.389   7.327
 5495POPC   C1B70267   0.944   7.393   6.251
 5495POPC   C2B70268   0.959   7.274   6.714
 5495POPC   C3B70269   1.001   7.541   7.102
 5495POPC   C4B70270   1.039   7.619   7.562
 5496POPC   NC370271  27.072  13.791   5.505
 5496POPC   PO470272  26.615  13.361   5.576
 5496POPC   GL170273  26.637  13.769   5.820
 5496POPC   GL270274  26.941  13.992   5.946
 5496POPC   C1A70275  26.598  13.764   6.263
 5496POPC   D2A70276  26.734  13.698   6.700
 5496POPC   C3A70277  26.616  13.501   7.084
 5496POPC   C4A70278  26.696  13.504   7.536
 5496POPC   C1B70279  27.089  13.907   6.366
 5496POPC   C2B70280  27.113  13.988   6.818
 5496POPC   C3B70281  27.055  13.742   7.190
 5496POPC   C4B70282  27.029  13.905   7.597
 5497POPC   NC370283  28.031  40.164   5.674
 5497POPC   PO470284  28.630  40.019   5.410
 5497POPC   GL170285  28.533  40.227   5.814
 5497POPC   GL270286  28.815  40.327   5.991
 5497POPC   C1A70287  28.362  40.249   6.260
 5497POPC   D2A70288  28.258  40.050   6.671
 5497POPC   C3A70289  28.351  40.255   7.069
 5497POPC   C4A70290  28.385  39.971   7.432
 5497POPC   C1B70291  28.762  39.899   6.204
 5497POPC   C2B70292  28.674  39.647   6.592
 5497POPC   C3B70293  28.700  39.839   7.009
 5497POPC   C4B70294  28.854  40.229   7.164
 5498POPC   NC370295  11.391  43.263   5.137
 5498POPC   PO470296  11.526  42.663   5.410
 5498POPC   GL170297  11.334  42.902   5.782
 5498POPC   GL270298  11.392  43.296   5.789
 5498POPC   C1A70299  11.374  42.914   6.257
 5498POPC   D2A70300  11.632  43.116   6.603
 5498POPC   C3A70301  11.720  42.926   7.013
 5498POPC   C4A70302  11.591  42.873   7.441
 5498POPC   C1B70303  11.392  43.404   6.251
 5498POPC   C2B70304  11.146  43.254   6.597
 5498POPC   C3B70305  11.234  43.104   7.063
 5498POPC   C4B70306  10.863  43.087   7.382
 5499POPC   NC370307  23.619  23.927   5.314
 5499POPC   PO470308  23.994  23.390   5.396
 5499POPC   GL170309  23.745  23.610   5.747
 5499POPC   GL270310  23.801  23.940   5.844
 5499POPC   C1A70311  23.674  23.489   6.216
 5499POPC   D2A70312  23.745  23.519   6.676
 5499POPC   C3A70313  23.450  23.382   7.039
 5499POPC   C4A70314  23.572  23.363   7.509
 5499POPC   C1B70315  23.414  23.912   6.106
 5499POPC   C2B70316  23.340  23.787   6.535
 5499POPC   C3B70317  23.514  23.883   6.976
 5499POPC   C4B70318  23.647  23.849   7.423
 5500POPC   NC370319  35.685  43.503   5.388
 5500POPC   PO470320  35.166  43.065   5.465
 5500POPC   GL170321  35.473  43.193   5.758
 5500POPC   GL270322  35.655  42.919   5.894
 5500POPC   C1A70323  35.324  43.270   6.169
 5500POPC   D2A70324  35.392  43.020   6.533
 5500POPC   C3A70325  35.309  43.295   6.869
 5500POPC   C4A70326  35.129  43.159   7.249
 5500POPC   C1B70327  35.822  43.183   6.245
 5500POPC   C2B70328  35.832  43.261   6.695
 5500POPC   C3B70329  35.739  43.151   7.153
 5500POPC   C4B70330  35.517  43.185   7.568
 5501POPC   NC370331   4.506  36.918   5.230
 5501POPC   PO470332   3.912  37.064   5.308
 5501POPC   GL170333   4.197  37.073   5.684
 5501POPC   GL270334   4.580  37.062   5.736
 5501POPC   C1A70335   4.265  36.986   6.138
 5501POPC   D2A70336   4.440  36.802   6.533
 5501POPC   C3A70337   4.172  36.899   6.885
 5501POPC   C4A70338   4.060  37.328   7.035
 5501POPC   C1B70339   4.730  36.719   6.043
 5501POPC   C2B70340   4.819  36.474   6.452
 5501POPC   C3B70341   4.607  36.419   6.862
 5501POPC   C4B70342   4.520  36.692   7.215
 5502POPC   NC370343  28.254   3.392   5.428
 5502POPC   PO470344  28.317   4.079   5.475
 5502POPC   GL170345  28.277   3.781   5.790
 5502POPC   GL270346  28.627   3.737   5.764
 5502POPC   C1A70347  28.408   3.456   6.137
 5502POPC   D2A70348  28.654   3.522   6.539
 5502POPC   C3A70349  28.468   3.507   6.960
 5502POPC   C4A70350  28.592   3.515   7.413
 5502POPC   C1B70351  28.660   3.922   6.186
 5502POPC   C2B70352  28.783   4.053   6.619
 5502POPC   C3B70353  28.622   3.971   7.058
 5502POPC   C4B70354  28.275   3.916   7.329
 5503POPC   NC370355  39.515  21.286   5.516
 5503POPC   PO470356  39.982  21.650   5.254
 5503POPC   GL170357  39.869  21.652   5.763
 5503POPC   GL270358  39.890  21.279   5.894
 5503POPC   C1A70359  39.732  21.631   6.212
 5503POPC   D2A70360  39.908  21.294   6.478
 5503POPC   C3A70361  40.099  21.375   6.875
 5503POPC   C4A70362  39.880  21.489   7.251
 5503POPC   C1B70363  39.566  21.055   6.138
 5503POPC   C2B70364  39.514  20.929   6.574
 5503POPC   C3B70365  39.704  21.046   6.994
 5503POPC   C4B70366  39.710  21.065   7.473
 5504POPC   NC370367  23.783  32.652   5.488
 5504POPC   PO470368  24.022  33.263   5.545
 5504POPC   GL170369  23.863  33.038   5.843
 5504POPC   GL270370  23.537  33.143   5.838
 5504POPC   C1A70371  23.901  33.148   6.258
 5504POPC   D2A70372  23.660  33.104   6.602
 5504POPC   C3A70373  23.945  32.981   6.887
 5504POPC   C4A70374  24.140  33.233   7.212
 5504POPC   C1B70375  23.499  32.826   6.158
 5504POPC   C2B70376  23.319  32.741   6.547
 5504POPC   C3B70377  23.478  32.691   6.943
 5504POPC   C4B70378  23.629  32.933   7.278
 5505POPC   NC370379   2.728  24.154   5.550
 5505POPC   PO470380   2.871  24.755   5.185
 5505POPC   GL170381   2.885  24.661   5.654
 5505POPC   GL270382   2.546  24.580   5.749
 5505POPC   C1A70383   2.955  24.469   6.099
 5505POPC   D2A70384   3.004  24.150   6.472
 5505POPC   C3A70385   2.902  24.306   6.900
 5505POPC   C4A70386   3.138  24.624   7.116
 5505POPC   C1B70387   2.465  24.617   6.193
 5505POPC   C2B70388   2.657  24.566   6.536
 5505POPC   C3B70389   2.812  24.869   6.785
 5505POPC   C4B70390   2.663  24.819   7.168
 5506POPC   NC370391  25.927  40.446   5.194
 5506POPC   PO470392  26.188  40.903   5.585
 5506POPC   GL170393  26.138  40.853   5.981
 5506POPC   GL270394  25.785  40.950   5.919
 5506POPC   C1A70395  26.291  40.483   6.228
 5506POPC   D2A70396  26.180  40.261   6.581
 5506POPC   C3A70397  26.147  40.582   6.885
 5506POPC   C4A70398  26.431  40.751   7.195
 5506POPC   C1B70399  25.817  40.871   6.371
 5506POPC   C2B70400  25.953  41.136   6.698
 5506POPC   C3B70401  25.930  40.991   7.121
 5506POPC   C4B70402  25.701  40.599   7.154
 5507POPC   NC370403  26.178  43.192   5.380
 5507POPC   PO470404  25.546  43.504   5.499
 5507POPC   GL170405  25.872  43.352   5.821
 5507POPC   GL270406  26.063  43.007   5.855
 5507POPC   C1A70407  25.712  43.148   6.190
 5507POPC   D2A70408  25.875  43.071   6.560
 5507POPC   C3A70409  25.809  43.222   6.934
 5507POPC   C4A70410  26.110  43.406   7.151
 5507POPC   C1B70411  26.223  42.824   6.259
 5507POPC   C2B70412  26.116  42.640   6.666
 5507POPC   C3B70413  26.125  42.817   7.073
 5507POPC   C4B70414  26.244  42.926   7.486
 5508POPC   NC370415   7.859  10.569   5.442
 5508POPC   PO470416   8.378  10.165   5.250
 5508POPC   GL170417   8.399  10.487   5.603
 5508POPC   GL270418   8.209  10.283   5.768
 5508POPC   C1A70419   8.207  10.709   6.030
 5508POPC   D2A70420   8.093  10.858   6.472
 5508POPC   C3A70421   8.356  10.817   6.867
 5508POPC   C4A70422   8.696  10.706   7.143
 5508POPC   C1B70423   8.467  10.281   6.151
 5508POPC   C2B70424   8.309  10.313   6.588
 5508POPC   C3B70425   8.012  10.438   6.911
 5508POPC   C4B70426   8.018  10.509   7.334
 5509POPC   NC370427  30.595   5.415   5.213
 5509POPC   PO470428  30.628   6.100   5.466
 5509POPC   GL170429  30.766   6.019   5.881
 5509POPC   GL270430  30.984   5.762   5.824
 5509POPC   C1A70431  30.664   6.132   6.299
 5509POPC   D2A70432  30.721   5.951   6.697
 5509POPC   C3A70433  30.458   5.675   6.957
 5509POPC   C4A70434  30.637   5.894   7.252
 5509POPC   C1B70435  30.736   5.624   6.212
 5509POPC   C2B70436  30.750   5.439   6.615
 5509POPC   C3B70437  30.928   5.488   7.023
 5509POPC   C4B70438  31.339   5.547   7.153
 5510POPC   NC370439  24.295  23.801   5.462
 5510POPC   PO470440  24.768  23.331   5.499
 5510POPC   GL170441  24.584  23.543   5.835
 5510POPC   GL270442  24.247  23.461   5.851
 5510POPC   C1A70443  24.607  23.945   6.069
 5510POPC   D2A70444  24.756  24.097   6.469
 5510POPC   C3A70445  24.701  23.831   6.825
 5510POPC   C4A70446  24.415  23.732   7.167
 5510POPC   C1B70447  24.127  23.754   6.193
 5510POPC   C2B70448  24.231  24.021   6.563
 5510POPC   C3B70449  24.015  23.974   6.966
 5510POPC   C4B70450  23.933  23.545   7.149
 5511POPC   NC370451  17.409  32.456   5.360
 5511POPC   PO470452  17.966  32.084   5.412
 5511POPC   GL170453  17.771  32.342   5.730
 5511POPC   GL270454  17.601  32.050   5.867
 5511POPC   C1A70455  17.681  32.439   6.181
 5511POPC   D2A70456  17.307  32.481   6.462
 5511POPC   C3A70457  17.482  32.389   6.854
 5511POPC   C4A70458  17.355  32.422   7.250
 5511POPC   C1B70459  17.213  32.085   6.144
 5511POPC   C2B70460  17.078  32.031   6.605
 5511POPC   C3B70461  17.235  31.971   7.045
 5511POPC   C4B70462  17.707  32.005   7.164
 5512POPC   NC370463  38.635  27.969   5.485
 5512POPC   PO470464  38.256  27.501   5.367
 5512POPC   GL170465  38.362  27.561   5.770
 5512POPC   GL270466  38.216  27.869   5.791
 5512POPC   C1A70467  38.419  27.612   6.210
 5512POPC   D2A70468  38.318  27.376   6.570
 5512POPC   C3A70469  38.472  27.551   6.926
 5512POPC   C4A70470  38.800  27.476   7.221
 5512POPC   C1B70471  37.987  27.916   6.134
 5512POPC   C2B70472  38.026  27.786   6.524
 5512POPC   C3B70473  38.109  27.930   6.932
 5512POPC   C4B70474  38.227  27.771   7.311
 5513POPC   NC370475  12.056  18.535   5.247
 5513POPC   PO470476  12.357  18.087   5.624
 5513POPC   GL170477  12.056  18.404   5.773
 5513POPC   GL270478  12.014  18.135   5.996
 5513POPC   C1A70479  11.947  18.586   6.185
 5513POPC   D2A70480  11.909  18.310   6.542
 5513POPC   C3A70481  11.981  18.507   6.932
 5513POPC   C4A70482  11.831  18.333   7.340
 5513POPC   C1B70483  12.357  18.141   6.316
 5513POPC   C2B70484  12.541  18.125   6.740
 5513POPC   C3B70485  12.393  18.258   7.143
 5513POPC   C4B70486  12.299  18.223   7.566
 5514POPC   NC370487  26.411  14.540   5.458
 5514POPC   PO470488  27.050  14.258   5.496
 5514POPC   GL170489  26.824  14.490   5.789
 5514POPC   GL270490  26.511  14.275   5.866
 5514POPC   C1A70491  26.998  14.652   6.170
 5514POPC   D2A70492  27.077  14.404   6.522
 5514POPC   C3A70493  26.979  14.484   6.954
 5514POPC   C4A70494  27.061  14.392   7.398
 5514POPC   C1B70495  26.650  14.298   6.266
 5514POPC   C2B70496  26.560  14.543   6.642
 5514POPC   C3B70497  26.468  14.355   7.056
 5514POPC   C4B70498  26.610  13.972   7.302
 5515POPC   NC370499  18.686  40.470   5.534
 5515POPC   PO470500  18.016  40.684   5.420
 5515POPC   GL170501  18.040  40.685   5.864
 5515POPC   GL270502  18.383  40.747   5.857
 5515POPC   C1A70503  18.165  40.676   6.335
 5515POPC   D2A70504  18.375  41.005   6.589
 5515POPC   C3A70505  18.159  41.113   6.990
 5515POPC   C4A70506  17.870  40.844   7.221
 5515POPC   C1B70507  18.657  40.571   6.193
 5515POPC   C2B70508  18.577  40.531   6.629
 5515POPC   C3B70509  18.595  40.818   7.017
 5515POPC   C4B70510  18.593  40.627   7.457
 5516POPC   NC370511  38.964  40.291   5.529
 5516POPC   PO470512  39.478  40.728   5.508
 5516POPC   GL170513  39.297  40.923   5.845
 5516POPC   GL270514  38.920  40.994   5.797
 5516POPC   C1A70515  39.484  40.874   6.242
 5516POPC   D2A70516  39.285  40.810   6.630
 5516POPC   C3A70517  39.476  40.877   7.016
 5516POPC   C4A70518  39.425  40.588   7.309
 5516POPC   C1B70519  38.945  40.736   6.184
 5516POPC   C2B70520  38.839  40.585   6.600
 5516POPC   C3B70521  39.006  40.602   7.016
 5516POPC   C4B70522  38.941  40.738   7.464
 5517POPC   NC370523   8.697   9.121   5.492
 5517POPC   PO470524   9.235   8.695   5.494
 5517POPC   GL170525   8.948   8.843   5.805
 5517POPC   GL270526   9.088   9.202   5.871
 5517POPC   C1A70527   8.704   8.902   6.195
 5517POPC   D2A70528   8.569   9.024   6.617
 5517POPC   C3A70529   8.889   9.032   6.936
 5517POPC   C4A70530   8.977   9.338   7.261
 5517POPC   C1B70531   9.251   8.885   6.180
 5517POPC   C2B70532   9.080   8.696   6.547
 5517POPC   C3B70533   9.313   8.688   6.895
 5517POPC   C4B70534   9.338   8.980   7.206
 5518POPC   NC370535  32.180  40.162   5.568
 5518POPC   PO470536  32.802  39.801   5.511
 5518POPC   GL170537  32.424  39.726   5.818
 5518POPC   GL270538  32.020  39.770   5.870
 5518POPC   C1A70539  32.381  39.888   6.230
 5518POPC   D2A70540  32.193  39.779   6.609
 5518POPC   C3A70541  32.425  39.998   6.935
 5518POPC   C4A70542  32.567  39.887   7.316
 5518POPC   C1B70543  31.885  40.052   6.240
 5518POPC   C2B70544  31.779  40.067   6.696
 5518POPC   C3B70545  31.981  40.188   7.075
 5518POPC   C4B70546  32.057  40.031   7.489
 5519POPC   NC370547  13.461   6.542   5.457
 5519POPC   PO470548  14.004   6.863   5.477
 5519POPC   GL170549  13.807   6.604   5.839
 5519POPC   GL270550  13.944   6.253   5.857
 5519POPC   C1A70551  13.655   6.711   6.277
 5519POPC   D2A70552  13.711   6.870   6.720
 5519POPC   C3A70553  13.422   6.740   7.082
 5519POPC   C4A70554  13.496   6.520   7.494
 5519POPC   C1B70555  14.062   6.395   6.242
 5519POPC   C2B70556  13.872   6.391   6.627
 5519POPC   C3B70557  13.773   6.378   7.036
 5519POPC   C4B70558  13.957   6.246   7.398
 5520POPC   NC370559   1.194  40.435   5.349
 5520POPC   PO470560   1.582  40.970   5.394
 5520POPC   GL170561   1.270  40.885   5.739
 5520POPC   GL270562   1.245  40.528   5.857
 5520POPC   C1A70563   1.137  41.031   6.165
 5520POPC   D2A70564   0.939  41.066   6.578
 5520POPC   C3A70565   1.113  40.918   6.986
 5520POPC   C4A70566   1.336  41.074   7.342
 5520POPC   C1B70567   0.920  40.562   6.208
 5520POPC   C2B70568   0.987  40.515   6.665
 5520POPC   C3B70569   1.299  40.428   7.002
 5520POPC   C4B70570   1.317  40.542   7.432
 5521POPC   NC370571  41.765  32.636   5.531
 5521POPC   PO470572  41.261  32.228   5.754
 5521POPC   GL170573  41.556  32.426   5.971
 5521POPC   GL270574  41.813  32.222   5.824
 5521POPC   C1A70575  41.444  32.493   6.414
 5521POPC   D2A70576  41.110  32.737   6.621
 5521POPC   C3A70577  41.158  32.670   7.043
 5521POPC   C4A70578  41.446  32.306   7.130
 5521POPC   C1B70579  41.667  32.001   6.216
 5521POPC   C2B70580  41.452  31.939   6.599
 5521POPC   C3B70581  41.686  31.890   6.956
 5521POPC   C4B70582  41.845  32.062   7.342
 5522POPC   NC370583   9.170  25.875   5.364
 5522POPC   PO470584   8.568  26.114   5.513
 5522POPC   GL170585   8.844  25.892   5.790
 5522POPC   GL270586   9.101  26.163   5.797
 5522POPC   C1A70587   8.955  25.897   6.253
 5522POPC   D2A70588   8.798  25.931   6.703
 5522POPC   C3A70589   9.081  25.890   7.057
 5522POPC   C4A70590   9.271  25.991   7.449
 5522POPC   C1B70591   8.915  26.409   6.150
 5522POPC   C2B70592   9.049  26.547   6.568
 5522POPC   C3B70593   8.963  26.386   6.995
 5522POPC   C4B70594   8.847  26.263   7.418
 5523POPC   NC370595  42.039  25.411   5.452
 5523POPC   PO470596  42.474  24.889   5.388
 5523POPC   GL170597  42.364  25.123   5.768
 5523POPC   GL270598  42.594  25.431   5.726
 5523POPC   C1A70599  42.204  25.081   6.213
 5523POPC   D2A70600  42.257  24.851   6.579
 5523POPC   C3A70601  42.440  25.016   6.922
 5523POPC   C4A70602  42.269  25.187   7.270
 5523POPC   C1B70603  42.365  25.550   6.110
 5523POPC   C2B70604  42.258  25.634   6.549
 5523POPC   C3B70605  42.375  25.569   6.962
 5523POPC   C4B70606  42.614  25.542   7.339
 5524POPC   NC370607   2.341  16.278   5.428
 5524POPC   PO470608   1.871  15.802   5.561
 5524POPC   GL170609   2.161  15.987   5.828
 5524POPC   GL270610   2.261  15.658   5.965
 5524POPC   C1A70611   2.058  16.167   6.214
 5524POPC   D2A70612   2.125  15.980   6.599
 5524POPC   C3A70613   1.909  16.174   6.929
 5524POPC   C4A70614   2.015  16.040   7.322
 5524POPC   C1B70615   1.865  15.681   6.196
 5524POPC   C2B70616   1.783  15.565   6.589
 5524POPC   C3B70617   1.944  15.672   6.975
 5524POPC   C4B70618   1.811  15.546   7.363
 5525POPC   NC370619  44.502  27.853   5.133
 5525POPC   PO470620  44.789  28.374   5.489
 5525POPC   GL170621  44.572  28.331   5.907
 5525POPC   GL270622  44.197  28.436   5.936
 5525POPC   C1A70623  44.647  28.551   6.289
 5525POPC   D2A70624  44.528  28.541   6.740
 5525POPC   C3A70625  44.731  28.189   6.849
 5525POPC   C4A70626  44.957  28.039   7.140
 5525POPC   C1B70627  44.165  28.392   6.390
 5525POPC   C2B70628  44.241  28.093   6.702
 5525POPC   C3B70629  44.290  28.169   7.123
 5525POPC   C4B70630  44.356  28.627   7.238
 5526POPC   NC370631  44.368  40.219   5.530
 5526POPC   PO470632  43.809  39.985   5.280
 5526POPC   GL170633  43.715  40.095   5.731
 5526POPC   GL270634  44.024  40.231   5.906
 5526POPC   C1A70635  43.703  39.917   6.168
 5526POPC   D2A70636  43.960  39.880   6.550
 5526POPC   C3A70637  43.837  39.883   6.990
 5526POPC   C4A70638  43.693  40.261   7.235
 5526POPC   C1B70639  44.339  40.381   6.211
 5526POPC   C2B70640  44.503  40.389   6.638
 5526POPC   C3B70641  44.185  40.254   6.941
 5526POPC   C4B70642  44.169  40.060   7.336
 5527POPC   NC370643  17.817  11.024   5.436
 5527POPC   PO470644  17.366  11.475   5.331
 5527POPC   GL170645  17.472  11.623   5.758
 5527POPC   GL270646  17.810  11.480   5.766
 5527POPC   C1A70647  17.421  11.461   6.209
 5527POPC   D2A70648  17.449  11.211   6.580
 5527POPC   C3A70649  17.329  11.317   7.008
 5527POPC   C4A70650  17.422  10.999   7.303
 5527POPC   C1B70651  17.922  11.358   6.188
 5527POPC   C2B70652  17.831  11.555   6.572
 5527POPC   C3B70653  17.826  11.466   7.028
 5527POPC   C4B70654  17.572  11.549   7.405
 5528POPC   NC370655  32.950  43.318   5.397
 5528POPC   PO470656  32.534  42.743   5.591
 5528POPC   GL170657  32.876  42.960   5.851
 5528POPC   GL270658  33.167  43.225   5.845
 5528POPC   C1A70659  33.020  43.046   6.298
 5528POPC   D2A70660  33.109  43.059   6.748
 5528POPC   C3A70661  32.818  42.926   7.077
 5528POPC   C4A70662  33.143  42.840   7.383
 5528POPC   C1B70663  32.837  43.494   6.069
 5528POPC   C2B70664  32.600  43.569   6.466
 5528POPC   C3B70665  32.711  43.454   6.913
 5528POPC   C4B70666  33.073  43.355   7.190
 5529POPC   NC370667   8.987  42.482   5.449
 5529POPC   PO470668   9.042  41.771   5.442
 5529POPC   GL170669   9.152  42.101   5.725
 5529POPC   GL270670   8.822  42.147   5.807
 5529POPC   C1A70671   9.230  42.186   6.133
 5529POPC   D2A70672   9.016  42.109   6.490
 5529POPC   C3A70673   9.167  42.179   6.861
 5529POPC   C4A70674   9.088  41.981   7.202
 5529POPC   C1B70675   8.659  42.315   6.156
 5529POPC   C2B70676   8.525  42.233   6.528
 5529POPC   C3B70677   8.647  42.080   6.854
 5529POPC   C4B70678   8.633  42.247   7.202
 5530POPC   NC370679  20.854   9.652   5.353
 5530POPC   PO470680  20.367  10.045   5.322
 5530POPC   GL170681  20.514   9.964   5.737
 5530POPC   GL270682  20.859   9.997   5.745
 5530POPC   C1A70683  20.548   9.969   6.197
 5530POPC   D2A70684  20.580   9.691   6.533
 5530POPC   C3A70685  20.533   9.827   6.942
 5530POPC   C4A70686  20.375   9.579   7.235
 5530POPC   C1B70687  20.956   9.662   6.058
 5530POPC   C2B70688  21.001   9.398   6.446
 5530POPC   C3B70689  20.915   9.468   6.891
 5530POPC   C4B70690  20.759   9.267   7.279
 5531POPC   NC370691  11.651   6.124   5.353
 5531POPC   PO470692  11.664   5.444   5.540
 5531POPC   GL170693  11.376   5.640   5.900
 5531POPC   GL270694  11.209   5.985   5.855
 5531POPC   C1A70695  11.228   5.796   6.348
 5531POPC   D2A70696  11.428   6.012   6.720
 5531POPC   C3A70697  11.379   5.946   7.158
 5531POPC   C4A70698  11.180   5.572   7.240
 5531POPC   C1B70699  10.906   6.166   6.185
 5531POPC   C2B70700  10.960   6.268   6.648
 5531POPC   C3B70701  10.864   6.124   7.093
 5531POPC   C4B70702  11.004   5.965   7.525
 5532POPC   NC370703  38.860   0.323   5.480
 5532POPC   PO470704  38.541   0.869   5.529
 5532POPC   GL170705  38.595   0.569   5.862
 5532POPC   GL270706  38.424   0.243   5.833
 5532POPC   C1A70707  38.564   0.440   6.291
 5532POPC   D2A70708  38.661   0.596   6.685
 5532POPC   C3A70709  38.511   0.392   7.050
 5532POPC   C4A70710  38.525   0.274   7.474
 5532POPC   C1B70711  38.127   0.175   6.187
 5532POPC   C2B70712  38.279   0.176   6.628
 5532POPC   C3B70713  38.640  44.976   6.777
 5532POPC   C4B70714  38.838  44.990   7.168
 5533POPC   NC370715  38.686  18.966   5.380
 5533POPC   PO470716  38.067  18.670   5.485
 5533POPC   GL170717  38.331  18.931   5.830
 5533POPC   GL270718  38.673  18.825   5.867
 5533POPC   C1A70719  38.323  19.263   6.171
 5533POPC   D2A70720  38.534  19.498   6.518
 5533POPC   C3A70721  38.414  19.279   6.899
 5533POPC   C4A70722  38.429  19.262   7.323
 5533POPC   C1B70723  38.785  18.611   6.221
 5533POPC   C2B70724  38.631  18.565   6.612
 5533POPC   C3B70725  38.831  18.630   6.977
 5533POPC   C4B70726  38.497  18.781   7.238
 5534POPC   NC370727  21.184  24.740   4.791
 5534POPC   PO470728  21.267  24.380   5.326
 5534POPC   GL170729  21.318  24.495   5.756
 5534POPC   GL270730  21.606  24.697   5.759
 5534POPC   C1A70731  21.485  24.328   6.136
 5534POPC   D2A70732  21.292  24.234   6.505
 5534POPC   C3A70733  21.403  24.332   6.916
 5534POPC   C4A70734  21.150  24.197   7.253
 5534POPC   C1B70735  21.479  24.843   6.151
 5534POPC   C2B70736  21.418  24.738   6.571
 5534POPC   C3B70737  21.469  24.947   6.957
 5534POPC   C4B70738  21.469  24.944   7.380
 5535POPC   NC370739  21.603  33.206   5.474
 5535POPC   PO470740  22.318  32.945   5.533
 5535POPC   GL170741  21.954  33.053   5.832
 5535POPC   GL270742  21.682  32.779   5.756
 5535POPC   C1A70743  21.869  33.237   6.291
 5535POPC   D2A70744  21.832  33.261   6.780
 5535POPC   C3A70745  22.150  33.319   7.111
 5535POPC   C4A70746  22.006  33.277   7.549
 5535POPC   C1B70747  21.818  32.715   6.174
 5535POPC   C2B70748  21.990  32.751   6.574
 5535POPC   C3B70749  21.795  32.773   6.958
 5535POPC   C4B70750  22.044  32.861   7.271
 5536POPC   NC370751   6.827   4.140   5.486
 5536POPC   PO470752   6.436   4.664   5.561
 5536POPC   GL170753   6.611   4.387   5.873
 5536POPC   GL270754   6.888   4.587   5.915
 5536POPC   C1A70755   6.861   4.194   6.207
 5536POPC   D2A70756   6.974   4.363   6.603
 5536POPC   C3A70757   6.753   4.299   6.956
 5536POPC   C4A70758   6.759   4.132   7.290
 5536POPC   C1B70759   6.663   4.661   6.312
 5536POPC   C2B70760   6.509   4.677   6.750
 5536POPC   C3B70761   6.509   4.669   7.243
 5536POPC   C4B70762   6.402   4.715   7.735
 5537POPC   NC370763  16.456  13.764   5.424
 5537POPC   PO470764  16.897  13.389   5.282
 5537POPC   GL170765  16.831  13.625   5.744
 5537POPC   GL270766  16.606  13.926   5.865
 5537POPC   C1A70767  16.716  13.545   6.206
 5537POPC   D2A70768  16.801  13.391   6.630
 5537POPC   C3A70769  16.603  13.473   7.032
 5537POPC   C4A70770  16.750  13.730   7.361
 5537POPC   C1B70771  16.958  13.999   6.142
 5537POPC   C2B70772  16.831  13.954   6.564
 5537POPC   C3B70773  17.020  13.828   6.935
 5537POPC   C4B70774  17.219  13.994   7.291
 5538POPC   NC370775  20.965  44.843   5.067
 5538POPC   PO470776  21.458  44.729   5.477
 5538POPC   GL170777  21.214  44.737   5.835
 5538POPC   GL270778  21.533  44.675   6.040
 5538POPC   C1A70779  21.130  44.849   6.277
 5538POPC   D2A70780  21.155  44.573   6.632
 5538POPC   C3A70781  21.139  44.818   6.959
 5538POPC   C4A70782  21.369  44.933   7.277
 5538POPC   C1B70783  21.631  44.349   6.401
 5538POPC   C2B70784  21.563  44.279   6.883
 5538POPC   C3B70785  21.468  44.361   7.372
 5538POPC   C4B70786  21.363  44.326   7.878
 5539POPC   NC370787  11.036  42.533   5.515
 5539POPC   PO470788  10.402  42.162   5.480
 5539POPC   GL170789  10.591  42.389   5.811
 5539POPC   GL270790  10.918  42.245   5.933
 5539POPC   C1A70791  10.477  42.331   6.230
 5539POPC   D2A70792  10.508  42.015   6.524
 5539POPC   C3A70793  10.481  42.145   6.927
 5539POPC   C4A70794  10.526  42.198   7.356
 5539POPC   C1B70795  10.890  42.631   6.206
 5539POPC   C2B70796  10.611  42.697   6.568
 5539POPC   C3B70797  10.666  42.612   7.039
 5539POPC   C4B70798  10.372  42.731   7.387
 5540POPC   NC370799  25.957   9.227   5.419
 5540POPC   PO470800  25.663   8.605   5.473
 5540POPC   GL170801  25.957   8.796   5.776
 5540POPC   GL270802  26.306   8.680   5.885
 5540POPC   C1A70803  25.988   8.750   6.255
 5540POPC   D2A70804  26.256   8.924   6.567
 5540POPC   C3A70805  25.913   8.905   6.819
 5540POPC   C4A70806  25.790   8.870   7.214
 5540POPC   C1B70807  26.223   9.151   6.053
 5540POPC   C2B70808  25.980   9.342   6.419
 5540POPC   C3B70809  26.105   9.370   6.869
 5540POPC   C4B70810  26.281   9.071   7.194
 5541POPC   NC370811  27.149  28.781   5.629
 5541POPC   PO470812  26.717  29.377   5.498
 5541POPC   GL170813  26.722  29.031   5.832
 5541POPC   GL270814  26.989  29.224   5.924
 5541POPC   C1A70815  26.929  28.880   6.265
 5541POPC   D2A70816  27.208  28.994   6.622
 5541POPC   C3A70817  27.032  29.007   7.025
 5541POPC   C4A70818  26.979  28.767   7.391
 5541POPC   C1B70819  26.555  29.414   6.116
 5541POPC   C2B70820  26.370  29.402   6.521
 5541POPC   C3B70821  26.443  29.501   6.922
 5541POPC   C4B70822  26.646  29.247   7.238
 5542POPC   NC370823  43.929  37.855   5.483
 5542POPC   PO470824  43.431  37.481   5.435
 5542POPC   GL170825  43.645  37.590   5.825
 5542POPC   GL270826  43.990  37.534   5.900
 5542POPC   C1A70827  43.680  37.790   6.229
 5542POPC   D2A70828  43.639  37.621   6.634
 5542POPC   C3A70829  43.767  37.738   7.037
 5542POPC   C4A70830  43.745  38.025   7.376
 5542POPC   C1B70831  44.177  37.642   6.284
 5542POPC   C2B70832  44.167  37.521   6.721
 5542POPC   C3B70833  44.381  37.636   7.093
 5542POPC   C4B70834  44.117  37.680   7.477
 5543POPC   NC370835  42.487  27.636   5.533
 5543POPC   PO470836  42.006  27.329   5.262
 5543POPC   GL170837  42.069  27.359   5.735
 5543POPC   GL270838  42.405  27.292   5.894
 5543POPC   C1A70839  42.172  27.678   6.107
 5543POPC   D2A70840  42.369  27.824   6.509
 5543POPC   C3A70841  42.214  27.700   6.954
 5543POPC   C4A70842  42.461  27.637   7.349
 5543POPC   C1B70843  42.718  27.051   6.120
 5543POPC   C2B70844  42.853  27.219   6.510
 5543POPC   C3B70845  42.688  27.364   6.911
 5543POPC   C4B70846  42.728  27.197   7.325
 5544POPC   NC370847   0.605  15.661   5.061
 5544POPC   PO470848   0.653  15.071   5.411
 5544POPC   GL170849   0.590  15.180   5.821
 5544POPC   GL270850   0.637  15.521   5.753
 5544POPC   C1A70851   0.589  15.091   6.273
 5544POPC   D2A70852   0.347  14.895   6.611
 5544POPC   C3A70853   0.332  15.053   7.030
 5544POPC   C4A70854   0.168  15.390   7.276
 5544POPC   C1B70855   0.945  15.441   6.112
 5544POPC   C2B70856   0.765  15.501   6.541
 5544POPC   C3B70857   0.592  15.521   6.973
 5544POPC   C4B70858   0.731  15.283   7.341
 5545POPC   NC370859  23.371  31.351   5.436
 5545POPC   PO470860  24.048  31.308   5.666
 5545POPC   GL170861  23.675  31.263   5.881
 5545POPC   GL270862  23.522  31.589   5.903
 5545POPC   C1A70863  23.722  31.256   6.311
 5545POPC   D2A70864  23.553  31.487   6.656
 5545POPC   C3A70865  23.710  31.279   7.023
 5545POPC   C4A70866  23.690  31.044   7.435
 5545POPC   C1B70867  23.902  31.714   6.176
 5545POPC   C2B70868  24.076  31.583   6.569
 5545POPC   C3B70869  23.861  31.830   6.849
 5545POPC   C4B70870  23.893  31.944   7.228
 5546POPC   NC370871  41.660  13.918   5.351
 5546POPC   PO470872  41.108  13.690   5.472
 5546POPC   GL170873  41.391  13.699   5.802
 5546POPC   GL270874  41.708  13.545   5.696
 5546POPC   C1A70875  41.345  13.733   6.263
 5546POPC   D2A70876  41.636  13.771   6.630
 5546POPC   C3A70877  41.532  13.589   7.026
 5546POPC   C4A70878  41.324  13.690   7.400
 5546POPC   C1B70879  41.820  13.621   6.108
 5546POPC   C2B70880  41.947  13.398   6.460
 5546POPC   C3B70881  42.017  13.376   6.900
 5546POPC   C4B70882  41.999  13.680   7.232
 5547POPC   NC370883  33.311  10.778   5.358
 5547POPC   PO470884  34.067  10.761   5.371
 5547POPC   GL170885  33.716  10.672   5.675
 5547POPC   GL270886  33.505  10.366   5.675
 5547POPC   C1A70887  33.793  10.717   6.124
 5547POPC   D2A70888  34.095  10.656   6.459
 5547POPC   C3A70889  33.886  10.658   6.853
 5547POPC   C4A70890  34.007  10.566   7.250
 5547POPC   C1B70891  33.710  10.210   6.069
 5547POPC   C2B70892  33.699  10.303   6.510
 5547POPC   C3B70893  33.677  10.168   6.945
 5547POPC   C4B70894  33.537  10.430   7.295
 5548POPC   NC370895  12.554  21.419   5.705
 5548POPC   PO470896  13.154  21.501   5.384
 5548POPC   GL170897  13.028  21.310   5.814
 5548POPC   GL270898  12.831  20.980   5.759
 5548POPC   C1A70899  12.819  21.430   6.275
 5548POPC   D2A70900  12.893  21.643   6.662
 5548POPC   C3A70901  12.567  21.506   6.919
 5548POPC   C4A70902  12.553  21.407   7.358
 5548POPC   C1B70903  12.973  20.961   6.201
 5548POPC   C2B70904  12.746  21.032   6.613
 5548POPC   C3B70905  12.890  21.143   7.032
 5548POPC   C4B70906  13.088  21.011   7.411
 5549POPC   NC370907  40.011  13.801   5.507
 5549POPC   PO470908  40.343  13.198   5.605
 5549POPC   GL170909  39.941  13.335   5.859
 5549POPC   GL270910  39.777  13.677   5.924
 5549POPC   C1A70911  39.848  13.393   6.331
 5549POPC   D2A70912  39.594  13.568   6.685
 5549POPC   C3A70913  39.742  13.443   7.068
 5549POPC   C4A70914  40.145  13.388   7.262
 5549POPC   C1B70915  40.225  13.683   6.138
 5549POPC   C2B70916  40.295  13.913   6.540
 5549POPC   C3B70917  40.087  13.781   6.916
 5549POPC   C4B70918  39.971  13.853   7.370
 5550POPC   NC370919  15.268   6.235   5.234
 5550POPC   PO470920  15.139   5.614   5.494
 5550POPC   GL170921  15.155   5.924   5.817
 5550POPC   GL270922  15.493   5.872   5.802
 5550POPC   C1A70923  14.954   5.936   6.245
 5550POPC   D2A70924  14.769   5.659   6.553
 5550POPC   C3A70925  14.927   5.616   6.974
 5550POPC   C4A70926  14.778   5.637   7.383
 5550POPC   C1B70927  15.384   5.547   6.137
 5550POPC   C2B70928  15.321   5.701   6.557
 5550POPC   C3B70929  15.300   5.958   6.903
 5550POPC   C4B70930  15.450   5.780   7.267
 5551POPC   NC370931  35.363  28.739   5.370
 5551POPC   PO470932  35.778  28.209   5.357
 5551POPC   GL170933  35.521  28.368   5.718
 5551POPC   GL270934  35.154  28.367   5.696
 5551POPC   C1A70935  35.517  28.219   6.144
 5551POPC   D2A70936  35.687  28.323   6.545
 5551POPC   C3A70937  35.671  28.145   6.956
 5551POPC   C4A70938  35.398  28.394   7.258
 5551POPC   C1B70939  35.006  28.483   6.109
 5551POPC   C2B70940  35.146  28.476   6.525
 5551POPC   C3B70941  35.075  28.619   6.926
 5551POPC   C4B70942  34.887  28.416   7.254
 5552POPC   NC370943  27.355  22.657   5.488
 5552POPC   PO470944  27.788  23.176   5.289
 5552POPC   GL170945  27.693  23.029   5.763
 5552POPC   GL270946  27.424  22.824   5.953
 5552POPC   C1A70947  27.668  23.154   6.239
 5552POPC   D2A70948  27.532  22.866   6.601
 5552POPC   C3A70949  27.764  22.856   6.984
 5552POPC   C4A70950  27.650  23.108   7.315
 5552POPC   C1B70951  27.160  23.018   6.280
 5552POPC   C2B70952  26.990  23.071   6.697
 5552POPC   C3B70953  27.244  22.952   7.038
 5552POPC   C4B70954  27.404  22.530   7.203
 5553POPC   NC370955  25.834  42.061   5.444
 5553POPC   PO470956  25.990  42.746   5.415
 5553POPC   GL170957  25.988  42.441   5.785
 5553POPC   GL270958  25.695  42.196   5.916
 5553POPC   C1A70959  26.059  42.341   6.228
 5553POPC   D2A70960  26.112  42.136   6.612
 5553POPC   C3A70961  26.416  42.281   6.906
 5553POPC   C4A70962  26.370  42.427   7.317
 5553POPC   C1B70963  25.515  42.136   6.356
 5553POPC   C2B70964  25.613  42.111   6.812
 5553POPC   C3B70965  25.926  42.330   7.069
 5553POPC   C4B70966  25.894  42.557   7.467
 5554POPC   NC370967   3.688  34.872   5.439
 5554POPC   PO470968   3.824  34.302   5.358
 5554POPC   GL170969   3.864  34.321   5.817
 5554POPC   GL270970   3.724  34.666   5.907
 5554POPC   C1A70971   3.652  34.262   6.239
 5554POPC   D2A70972   3.272  34.285   6.556
 5554POPC   C3A70973   3.309  34.546   6.980
 5554POPC   C4A70974   3.622  34.441   7.288
 5554POPC   C1B70975   3.702  34.775   6.344
 5554POPC   C2B70976   3.879  34.987   6.674
 5554POPC   C3B70977   3.828  34.832   7.063
 5554POPC   C4B70978   3.493  34.932   7.366
 5555POPC   NC370979  36.409  32.499   5.339
 5555POPC   PO470980  35.920  32.013   5.472
 5555POPC   GL170981  36.102  32.269   5.765
 5555POPC   GL270982  36.433  32.163   5.755
 5555POPC   C1A70983  36.052  32.479   6.183
 5555POPC   D2A70984  35.884  32.321   6.570
 5555POPC   C3A70985  35.878  32.524   6.988
 5555POPC   C4A70986  35.962  32.357   7.419
 5555POPC   C1B70987  36.365  32.058   6.201
 5555POPC   C2B70988  36.394  32.224   6.613
 5555POPC   C3B70989  36.277  32.172   7.040
 5555POPC   C4B70990  36.494  32.316   7.439
 5556POPC   NC370991  34.137  10.287   5.357
 5556POPC   PO470992  34.741  10.561   5.265
 5556POPC   GL170993  34.809  10.446   5.707
 5556POPC   GL270994  34.863  10.059   5.677
 5556POPC   C1A70995  34.696  10.644   6.153
 5556POPC   D2A70996  34.569  10.876   6.545
 5556POPC   C3A70997  34.625  10.688   6.953
 5556POPC   C4A70998  34.846  10.583   7.335
 5556POPC   C1B70999  34.557  10.132   6.035
 5556POPC   C2B71000  34.367  10.183   6.456
 5556POPC   C3B71001  34.237  10.235   6.882
 5556POPC   C4B71002  34.432  10.307   7.286
 5557POPC   NC371003   3.232  26.998   5.524
 5557POPC   PO471004   2.564  26.969   5.462
 5557POPC   GL171005   2.764  26.748   5.758
 5557POPC   GL271006   2.929  26.435   5.668
 5557POPC   C1A71007   2.645  26.857   6.173
 5557POPC   D2A71008   2.871  27.043   6.490
 5557POPC   C3A71009   2.732  26.912   6.891
 5557POPC   C4A71010   2.783  27.140   7.278
 5557POPC   C1B71011   2.822  26.364   6.089
 5557POPC   C2B71012   2.810  26.506   6.515
 5557POPC   C3B71013   3.042  26.493   6.894
 5557POPC   C4B71014   2.922  26.655   7.304
 5558POPC   NC371015  42.879   1.296   5.220
 5558POPC   PO471016  43.485   1.437   5.509
 5558POPC   GL171017  43.240   1.253   5.809
 5558POPC   GL271018  42.909   1.131   5.715
 5558POPC   C1A71019  43.348   1.023   6.177
 5558POPC   D2A71020  43.112   0.866   6.508
 5558POPC   C3A71021  43.173   1.049   6.876
 5558POPC   C4A71022  43.120   1.163   7.269
 5558POPC   C1B71023  42.858   1.177   6.178
 5558POPC   C2B71024  42.661   1.355   6.597
 5558POPC   C3B71025  42.685   1.264   7.039
 5558POPC   C4B71026  42.676   1.141   7.490
 5559POPC   NC371027  40.725   6.128   5.496
 5559POPC   PO471028  40.357   5.666   5.424
 5559POPC   GL171029  40.641   5.747   5.832
 5559POPC   GL271030  40.981   5.976   5.886
 5559POPC   C1A71031  40.719   5.789   6.294
 5559POPC   D2A71032  40.622   6.006   6.673
 5559POPC   C3A71033  40.809   5.933   7.081
 5559POPC   C4A71034  40.751   5.631   7.435
 5559POPC   C1B71035  41.068   6.176   6.287
 5559POPC   C2B71036  41.124   6.184   6.746
 5559POPC   C3B71037  41.134   6.332   7.175
 5559POPC   C4B71038  41.114   6.398   7.645
 5560POPC   NC371039   3.119  29.810   5.459
 5560POPC   PO471040   2.585  30.117   5.271
 5560POPC   GL171041   2.647  29.936   5.678
 5560POPC   GL271042   2.754  30.232   5.850
 5560POPC   C1A71043   2.842  29.796   6.088
 5560POPC   D2A71044   3.085  29.815   6.460
 5560POPC   C3A71045   2.845  29.697   6.807
 5560POPC   C4A71046   2.835  29.815   7.243
 5560POPC   C1B71047   2.363  30.047   6.104
 5560POPC   C2B71048   2.225  29.926   6.536
 5560POPC   C3B71049   2.403  29.915   6.963
 5560POPC   C4B71050   2.514  30.192   7.312
 5561POPC   NC371051  27.536  18.547   5.376
 5561POPC   PO471052  27.559  19.193   5.303
 5561POPC   GL171053  27.425  19.006   5.673
 5561POPC   GL271054  27.265  19.276   5.816
 5561POPC   C1A71055  27.685  19.071   6.054
 5561POPC   D2A71056  27.874  19.295   6.406
 5561POPC   C3A71057  27.689  19.076   6.746
 5561POPC   C4A71058  27.626  18.875   7.142
 5561POPC   C1B71059  27.168  19.011   6.165
 5561POPC   C2B71060  27.273  18.814   6.561
 5561POPC   C3B71061  27.146  18.930   6.967
 5561POPC   C4B71062  27.273  19.159   7.348
 5562POPC   NC371063  33.308  16.872   5.442
 5562POPC   PO471064  32.634  17.082   5.474
 5562POPC   GL171065  32.739  16.878   5.873
 5562POPC   GL271066  32.990  16.631   5.769
 5562POPC   C1A71067  32.852  16.659   6.252
 5562POPC   D2A71068  33.095  16.854   6.521
 5562POPC   C3A71069  32.838  16.973   6.856
 5562POPC   C4A71070  32.962  17.072   7.254
 5562POPC   C1B71071  33.310  16.447   6.061
 5562POPC   C2B71072  33.327  16.352   6.485
 5562POPC   C3B71073  33.089  16.483   6.863
 5562POPC   C4B71074  32.775  16.568   7.189
 5563POPC   NC371075  29.086  24.859   5.451
 5563POPC   PO471076  29.113  24.171   5.383
 5563POPC   GL171077  29.042  24.308   5.794
 5563POPC   GL271078  29.396  24.250   5.830
 5563POPC   C1A71079  29.103  24.365   6.254
 5563POPC   D2A71080  29.181  24.151   6.662
 5563POPC   C3A71081  29.036  24.385   7.029
 5563POPC   C4A71082  29.144  24.650   7.392
 5563POPC   C1B71083  29.577  24.527   6.144
 5563POPC   C2B71084  29.466  24.607   6.578
 5563POPC   C3B71085  29.540  24.545   7.019
 5563POPC   C4B71086  29.811  24.211   7.157
 5564POPC   NC371087  24.989   2.019   5.273
 5564POPC   PO471088  25.457   2.432   5.186
 5564POPC   GL171089  25.153   2.320   5.640
 5564POPC   GL271090  25.162   1.936   5.753
 5564POPC   C1A71091  25.155   2.245   6.149
 5564POPC   D2A71092  25.028   1.939   6.464
 5564POPC   C3A71093  25.215   2.040   6.863
 5564POPC   C4A71094  25.033   2.088   7.255
 5564POPC   C1B71095  25.422   1.794   6.125
 5564POPC   C2B71096  25.577   1.942   6.506
 5564POPC   C3B71097  25.690   1.794   6.908
 5564POPC   C4B71098  25.768   1.625   7.291
 5565POPC   NC371099  43.346  35.528   5.637
 5565POPC   PO471100  43.181  35.001   5.215
 5565POPC   GL171101  43.193  35.084   5.781
 5565POPC   GL271102  42.929  35.353   5.870
 5565POPC   C1A71103  43.272  35.234   6.249
 5565POPC   D2A71104  43.062  35.427   6.639
 5565POPC   C3A71105  43.281  35.348   7.039
 5565POPC   C4A71106  43.301  35.527   7.476
 5565POPC   C1B71107  42.766  35.163   6.229
 5565POPC   C2B71108  42.752  35.011   6.633
 5565POPC   C3B71109  42.759  35.199   7.033
 5565POPC   C4B71110  42.887  35.248   7.465
 5566POPC   NC371111   1.687  43.986   5.307
 5566POPC   PO471112   2.237  43.625   5.353
 5566POPC   GL171113   2.045  43.795   5.741
 5566POPC   GL271114   1.762  44.010   5.844
 5566POPC   C1A71115   2.175  43.816   6.173
 5566POPC   D2A71116   2.117  43.586   6.566
 5566POPC   C3A71117   2.216  43.775   6.975
 5566POPC   C4A71118   2.010  44.031   7.301
 5566POPC   C1B71119   1.707  43.946   6.292
 5566POPC   C2B71120   1.680  44.006   6.778
 5566POPC   C3B71121   1.493  44.083   7.216
 5566POPC   C4B71122   1.481  43.893   7.646
 5567POPC   NC371123  21.465  13.587   5.528
 5567POPC   PO471124  20.880  13.908   5.541
 5567POPC   GL171125  21.159  13.829   5.917
 5567POPC   GL271126  21.548  13.820   5.961
 5567POPC   C1A71127  21.268  13.798   6.378
 5567POPC   D2A71128  21.585  13.726   6.691
 5567POPC   C3A71129  21.369  13.509   7.038
 5567POPC   C4A71130  21.150  13.528   7.470
 5567POPC   C1B71131  21.645  13.430   6.218
 5567POPC   C2B71132  21.735  13.217   6.643
 5567POPC   C3B71133  21.760  13.158   7.113
 5567POPC   C4B71134  21.650  13.468   7.443
 5568POPC   NC371135  20.417  33.833   5.451
 5568POPC   PO471136  21.049  33.669   5.400
 5568POPC   GL171137  20.807  33.742   5.752
 5568POPC   GL271138  20.578  33.457   5.772
 5568POPC   C1A71139  20.852  33.875   6.154
 5568POPC   D2A71140  20.975  33.751   6.554
 5568POPC   C3A71141  20.892  34.007   6.896
 5568POPC   C4A71142  20.896  33.741   7.246
 5568POPC   C1B71143  20.374  33.691   6.136
 5568POPC   C2B71144  20.448  33.896   6.544
 5568POPC   C3B71145  20.502  33.674   6.917
 5568POPC   C4B71146  20.452  33.461   7.289
 5569POPC   NC371147  36.508  22.547   5.486
 5569POPC   PO471148  36.179  23.092   5.219
 5569POPC   GL171149  36.145  23.052   5.717
 5569POPC   GL271150  35.835  23.214   5.821
 5569POPC   C1A71151  36.288  22.871   6.143
 5569POPC   D2A71152  36.233  22.725   6.570
 5569POPC   C3A71153  36.311  22.875   6.987
 5569POPC   C4A71154  36.092  22.762   7.369
 5569POPC   C1B71155  36.009  23.279   6.256
 5569POPC   C2B71156  36.012  23.230   6.707
 5569POPC   C3B71157  35.854  23.153   7.123
 5569POPC   C4B71158  35.808  23.229   7.578
 5570POPC   NC371159  19.182  20.512   5.373
 5570POPC   PO471160  19.149  21.171   5.424
 5570POPC   GL171161  19.314  20.899   5.809
 5570POPC   GL271162  19.352  20.526   5.845
 5570POPC   C1A71163  19.199  20.778   6.278
 5570POPC   D2A71164  19.141  20.880   6.739
 5570POPC   C3A71165  18.894  20.606   7.019
 5570POPC   C4A71166  18.712  20.569   7.446
 5570POPC   C1B71167  19.543  20.351   6.224
 5570POPC   C2B71168  19.510  20.423   6.674
 5570POPC   C3B71169  19.416  20.601   7.069
 5570POPC   C4B71170  19.183  20.380   7.416
 5571POPC   NC371171   3.571  27.617   5.392
 5571POPC   PO471172   3.087  27.316   5.234
 5571POPC   GL171173   3.312  27.403   5.770
 5571POPC   GL271174   3.615  27.614   5.891
 5571POPC   C1A71175   3.334  27.253   6.182
 5571POPC   D2A71176   3.645  27.414   6.447
 5571POPC   C3A71177   3.536  27.347   6.856
 5571POPC   C4A71178   3.715  27.467   7.237
 5571POPC   C1B71179   3.324  27.762   6.193
 5571POPC   C2B71180   3.246  27.737   6.620
 5571POPC   C3B71181   3.430  27.832   7.031
 5571POPC   C4B71182   3.305  27.907   7.478
 5572POPC   NC371183  38.166   9.357   5.286
 5572POPC   PO471184  38.656   9.824   5.335
 5572POPC   GL171185  38.367   9.727   5.718
 5572POPC   GL271186  38.142   9.919   5.967
 5572POPC   C1A71187  38.445   9.552   6.150
 5572POPC   D2A71188  38.244   9.569   6.551
 5572POPC   C3A71189  38.487   9.648   6.914
 5572POPC   C4A71190  38.289   9.559   7.290
 5572POPC   C1B71191  38.547  10.068   6.175
 5572POPC   C2B71192  38.744  10.107   6.599
 5572POPC   C3B71193  38.641  10.155   7.052
 5572POPC   C4B71194  38.829   9.906   7.362
 5573POPC   NC371195  42.766  28.394   5.414
 5573POPC   PO471196  42.916  27.766   5.447
 5573POPC   GL171197  43.061  28.046   5.819
 5573POPC   GL271198  42.883  28.374   5.905
 5573POPC   C1A71199  43.291  28.249   6.184
 5573POPC   D2A71200  43.292  28.089   6.576
 5573POPC   C3A71201  43.305  28.325   6.947
 5573POPC   C4A71202  43.281  28.095   7.281
 5573POPC   C1B71203  42.802  28.153   6.298
 5573POPC   C2B71204  42.833  28.225   6.744
 5573POPC   C3B71205  42.770  28.286   7.186
 5573POPC   C4B71206  42.962  28.629   7.238
 5574POPC   NC371207  22.818  20.305   5.311
 5574POPC   PO471208  22.291  19.837   5.266
 5574POPC   GL171209  22.076  19.765   5.675
 5574POPC   GL271210  22.356  19.915   5.821
 5574POPC   C1A71211  21.967  19.746   6.136
 5574POPC   D2A71212  22.267  19.651   6.503
 5574POPC   C3A71213  22.221  19.860   6.908
 5574POPC   C4A71214  21.919  20.088   7.140
 5574POPC   C1B71215  22.305  20.111   6.234
 5574POPC   C2B71216  22.100  20.238   6.591
 5574POPC   C3B71217  22.293  20.435   6.897
 5574POPC   C4B71218  22.281  20.395   7.314
 5575POPC   NC371219  19.700  18.400   5.263
 5575POPC   PO471220  20.317  18.575   5.368
 5575POPC   GL171221  19.966  18.432   5.686
 5575POPC   GL271222  19.814  18.173   5.808
 5575POPC   C1A71223  19.686  18.583   6.048
 5575POPC   D2A71224  19.670  18.556   6.508
 5575POPC   C3A71225  19.939  18.410   6.870
 5575POPC   C4A71226  19.869  18.545   7.306
 5575POPC   C1B71227  19.894  18.142   6.255
 5575POPC   C2B71228  19.612  18.050   6.614
 5575POPC   C3B71229  19.545  18.164   7.080
 5575POPC   C4B71230  19.891  18.042   7.403
 5576POPC   NC371231  27.828  17.123   5.574
 5576POPC   PO471232  27.530  16.570   5.320
 5576POPC   GL171233  27.594  16.696   5.782
 5576POPC   GL271234  27.424  16.409   5.903
 5576POPC   C1A71235  27.521  16.958   6.201
 5576POPC   D2A71236  27.390  16.771   6.581
 5576POPC   C3A71237  27.473  16.929   6.961
 5576POPC   C4A71238  27.365  16.634   7.257
 5576POPC   C1B71239  27.678  16.479   6.262
 5576POPC   C2B71240  27.809  16.374   6.694
 5576POPC   C3B71241  27.807  16.381   7.162
 5576POPC   C4B71242  28.150  16.519   7.447
 5577POPC   NC371243  19.732  43.480   5.363
 5577POPC   PO471244  20.070  44.037   5.118
 5577POPC   GL171245  19.910  44.067   5.614
 5577POPC   GL271246  20.114  43.919   5.898
 5577POPC   C1A71247  19.651  44.059   6.073
 5577POPC   D2A71248  19.722  43.972   6.551
 5577POPC   C3A71249  19.419  43.908   6.878
 5577POPC   C4A71250  19.584  43.631   7.150
 5577POPC   C1B71251  19.930  43.607   6.246
 5577POPC   C2B71252  19.870  43.531   6.725
 5577POPC   C3B71253  20.060  43.819   7.037
 5577POPC   C4B71254  20.391  43.705   7.326
 5578POPC   NC371255   2.859  37.321   5.522
 5578POPC   PO471256   3.047  36.779   5.264
 5578POPC   GL171257   2.791  36.795   5.638
 5578POPC   GL271258   2.496  37.028   5.718
 5578POPC   C1A71259   2.733  36.744   6.088
 5578POPC   D2A71260   2.622  36.903   6.494
 5578POPC   C3A71261   2.783  36.753   6.886
 5578POPC   C4A71262   2.543  36.800   7.245
 5578POPC   C1B71263   2.570  37.274   6.130
 5578POPC   C2B71264   2.527  37.401   6.595
 5578POPC   C3B71265   2.659  37.264   7.022
 5578POPC   C4B71266   2.753  37.194   7.475
 5579POPC   NC371267  34.285  33.023   5.311
 5579POPC   PO471268  34.327  33.653   5.234
 5579POPC   GL171269  34.359  33.368   5.699
 5579POPC   GL271270  34.328  32.974   5.801
 5579POPC   C1A71271  34.542  33.249   6.146
 5579POPC   D2A71272  34.599  32.951   6.493
 5579POPC   C3A71273  34.578  33.100   6.921
 5579POPC   C4A71274  34.692  32.915   7.320
 5579POPC   C1B71275  34.150  32.896   6.214
 5579POPC   C2B71276  34.111  32.733   6.640
 5579POPC   C3B71277  34.196  32.796   7.091
 5579POPC   C4B71278  34.217  32.873   7.524
 5580POPC   NC371279   9.940  38.202   5.461
 5580POPC   PO471280   9.382  38.650   5.429
 5580POPC   GL171281   9.543  38.341   5.790
 5580POPC   GL271282   9.883  38.219   5.953
 5580POPC   C1A71283   9.526  38.400   6.255
 5580POPC   D2A71284   9.612  38.755   6.537
 5580POPC   C3A71285   9.647  38.686   6.990
 5580POPC   C4A71286   9.575  38.650   7.456
 5580POPC   C1B71287   9.981  38.634   6.143
 5580POPC   C2B71288  10.155  38.744   6.537
 5580POPC   C3B71289  10.267  38.518   6.899
 5580POPC   C4B71290  10.053  38.615   7.295
 5581POPC   NC371291  27.179   5.549   5.534
 5581POPC   PO471292  26.858   6.149   5.505
 5581POPC   GL171293  26.855   5.861   5.825
 5581POPC   GL271294  26.627   5.667   5.634
 5581POPC   C1A71295  26.914   5.749   6.265
 5581POPC   D2A71296  27.099   5.937   6.613
 5581POPC   C3A71297  27.052   5.755   7.010
 5581POPC   C4A71298  27.068   5.995   7.381
 5581POPC   C1B71299  26.490   5.555   6.064
 5581POPC   C2B71300  26.603   5.402   6.501
 5581POPC   C3B71301  26.588   5.547   6.923
 5581POPC   C4B71302  26.606   5.877   7.235
 5582POPC   NC371303  12.058   7.034   5.430
 5582POPC   PO471304  12.043   6.367   5.485
 5582POPC   GL171305  12.038   6.670   5.788
 5582POPC   GL271306  11.673   6.673   5.742
 5582POPC   C1A71307  12.176   6.802   6.218
 5582POPC   D2A71308  12.160   6.638   6.655
 5582POPC   C3A71309  12.232   6.697   7.091
 5582POPC   C4A71310  12.491   6.395   7.275
 5582POPC   C1B71311  11.794   6.457   6.161
 5582POPC   C2B71312  11.745   6.374   6.610
 5582POPC   C3B71313  11.798   6.260   7.062
 5582POPC   C4B71314  11.807   6.471   7.463
 5583POPC   NC371315  11.440  34.244   5.071
 5583POPC   PO471316  11.469  34.824   5.468
 5583POPC   GL171317  11.587  34.589   5.849
 5583POPC   GL271318  11.247  34.619   5.939
 5583POPC   C1A71319  11.531  34.333   6.255
 5583POPC   D2A71320  11.397  34.475   6.650
 5583POPC   C3A71321  11.549  34.519   7.076
 5583POPC   C4A71322  11.560  34.904   7.341
 5583POPC   C1B71323  11.080  34.778   6.321
 5583POPC   C2B71324  10.889  34.511   6.614
 5583POPC   C3B71325  11.046  34.330   6.987
 5583POPC   C4B71326  11.133  34.496   7.382
 5584POPC   NC371327  26.243  41.354   5.475
 5584POPC   PO471328  25.713  41.626   5.335
 5584POPC   GL171329  25.921  41.681   5.785
 5584POPC   GL271330  26.105  41.388   5.966
 5584POPC   C1A71331  25.930  41.830   6.235
 5584POPC   D2A71332  26.141  41.638   6.626
 5584POPC   C3A71333  26.165  41.866   7.068
 5584POPC   C4A71334  26.109  41.609   7.484
 5584POPC   C1B71335  25.722  41.374   6.229
 5584POPC   C2B71336  25.627  41.607   6.623
 5584POPC   C3B71337  25.823  41.515   7.028
 5584POPC   C4B71338  25.660  41.366   7.402
 5585POPC   NC371339  24.911  26.299   5.690
 5585POPC   PO471340  24.902  25.748   5.393
 5585POPC   GL171341  25.124  25.779   5.838
 5585POPC   GL271342  25.361  26.082   5.845
 5585POPC   C1A71343  25.423  25.819   6.254
 5585POPC   D2A71344  25.523  26.058   6.639
 5585POPC   C3A71345  25.416  25.825   7.013
 5585POPC   C4A71346  25.047  25.784   7.178
 5585POPC   C1B71347  25.242  26.324   6.251
 5585POPC   C2B71348  25.022  26.522   6.604
 5585POPC   C3B71349  24.941  26.311   6.986
 5585POPC   C4B71350  25.325  26.299   7.164
 5586POPC   NC371351  15.621  43.367   5.052
 5586POPC   PO471352  16.080  42.954   5.333
 5586POPC   GL171353  15.973  43.211   5.671
 5586POPC   GL271354  15.726  43.397   5.578
 5586POPC   C1A71355  16.045  43.143   6.096
 5586POPC   D2A71356  15.950  42.901   6.453
 5586POPC   C3A71357  16.060  43.070   6.845
 5586POPC   C4A71358  15.926  42.888   7.241
 5586POPC   C1B71359  15.782  43.572   6.021
 5586POPC   C2B71360  15.794  43.395   6.466
 5586POPC   C3B71361  15.578  43.212   6.845
 5586POPC   C4B71362  15.673  43.342   7.263
 5587POPC   NC371363  12.417   6.100   5.439
 5587POPC   PO471364  11.889   5.806   5.106
 5587POPC   GL171365  11.988   5.849   5.615
 5587POPC   GL271366  11.738   6.039   5.835
 5587POPC   C1A71367  12.177   5.871   6.056
 5587POPC   D2A71368  12.199   6.213   6.378
 5587POPC   C3A71369  12.256   6.172   6.849
 5587POPC   C4A71370  12.366   5.874   7.176
 5587POPC   C1B71371  11.708   5.967   6.271
 5587POPC   C2B71372  11.935   5.827   6.632
 5587POPC   C3B71373  11.859   5.724   7.056
 5587POPC   C4B71374  11.790   5.851   7.480
 5588POPC   NC371375  15.689  32.484   5.593
 5588POPC   PO471376  15.260  32.028   5.358
 5588POPC   GL171377  15.291  32.193   5.757
 5588POPC   GL271378  15.158  32.514   5.794
 5588POPC   C1A71379  15.311  32.176   6.199
 5588POPC   D2A71380  15.074  31.988   6.539
 5588POPC   C3A71381  15.223  32.039   6.968
 5588POPC   C4A71382  15.389  32.162   7.360
 5588POPC   C1B71383  15.198  32.681   6.220
 5588POPC   C2B71384  15.294  32.487   6.617
 5588POPC   C3B71385  15.156  32.517   7.019
 5588POPC   C4B71386  15.409  32.693   7.272
 5589POPC   NC371387  31.891  30.651   5.327
 5589POPC   PO471388  31.311  30.922   5.361
 5589POPC   GL171389  31.443  30.880   5.797
 5589POPC   GL271390  31.632  30.579   5.821
 5589POPC   C1A71391  31.441  31.150   6.196
 5589POPC   D2A71392  31.451  31.304   6.627
 5589POPC   C3A71393  31.513  31.000   6.951
 5589POPC   C4A71394  31.403  30.941   7.371
 5589POPC   C1B71395  31.528  30.640   6.260
 5589POPC   C2B71396  31.637  30.583   6.691
 5589POPC   C3B71397  31.497  30.506   7.138
 5589POPC   C4B71398  31.614  30.547   7.613
 5590POPC   NC371399  36.467  15.292   5.483
 5590POPC   PO471400  37.136  15.351   5.445
 5590POPC   GL171401  36.884  15.421   5.836
 5590POPC   GL271402  36.498  15.512   5.924
 5590POPC   C1A71403  37.100  15.324   6.254
 5590POPC   D2A71404  37.120  14.978   6.616
 5590POPC   C3A71405  37.232  15.098   7.055
 5590POPC   C4A71406  37.142  15.500   7.286
 5590POPC   C1B71407  36.595  15.274   6.264
 5590POPC   C2B71408  36.786  15.368   6.652
 5590POPC   C3B71409  36.723  15.244   7.049
 5590POPC   C4B71410  36.748  14.813   7.077
 5591POPC   NC371411  26.483  28.128   5.483
 5591POPC   PO471412  27.137  28.314   5.687
 5591POPC   GL171413  26.779  28.508   5.894
 5591POPC   GL271414  26.694  28.177   5.937
 5591POPC   C1A71415  26.618  28.465   6.335
 5591POPC   D2A71416  26.902  28.192   6.555
 5591POPC   C3A71417  27.026  28.389   6.937
 5591POPC   C4A71418  26.764  28.316   7.262
 5591POPC   C1B71419  26.343  28.062   6.131
 5591POPC   C2B71420  26.419  27.918   6.515
 5591POPC   C3B71421  26.497  28.087   6.885
 5591POPC   C4B71422  26.500  27.869   7.272
 5592POPC   NC371423  15.051  33.222   5.372
 5592POPC   PO471424  15.615  32.861   5.305
 5592POPC   GL171425  15.435  32.945   5.706
 5592POPC   GL271426  15.101  33.037   5.839
 5592POPC   C1A71427  15.511  33.139   6.107
 5592POPC   D2A71428  15.256  33.226   6.460
 5592POPC   C3A71429  15.351  32.997   6.845
 5592POPC   C4A71430  15.274  33.182   7.268
 5592POPC   C1B71431  14.832  33.041   6.174
 5592POPC   C2B71432  14.825  32.920   6.593
 5592POPC   C3B71433  14.870  32.915   7.020
 5592POPC   C4B71434  14.922  32.852   7.449
 5593POPC   NC371435   8.851  13.912   5.294
 5593POPC   PO471436   9.035  13.276   5.476
 5593POPC   GL171437   8.906  13.326   5.885
 5593POPC   GL271438   8.999  13.681   5.897
 5593POPC   C1A71439   9.194  13.381   6.263
 5593POPC   D2A71440   9.302  13.583   6.673
 5593POPC   C3A71441   9.176  13.340   7.017
 5593POPC   C4A71442   8.815  13.308   7.303
 5593POPC   C1B71443   8.747  13.606   6.282
 5593POPC   C2B71444   8.806  13.427   6.660
 5593POPC   C3B71445   8.815  13.714   6.975
 5593POPC   C4B71446   8.486  13.720   7.261
 5594POPC   NC371447  44.377  38.727   5.588
 5594POPC   PO471448  44.927  38.361   5.393
 5594POPC   GL171449  44.825  38.239   5.832
 5594POPC   GL271450  44.524  38.365   5.909
 5594POPC   C1A71451  44.865  38.417   6.272
 5594POPC   D2A71452  44.719  38.548   6.675
 5594POPC   C3A71453  44.959  38.541   7.021
 5594POPC   C4A71454  44.977  38.508   7.458
 5594POPC   C1B71455  44.343  38.521   6.326
 5594POPC   C2B71456  44.225  38.531   6.782
 5594POPC   C3B71457  44.432  38.541   7.183
 5594POPC   C4B71458  44.238  38.684   7.592
 5595POPC   NC371459  10.047   9.657   5.194
 5595POPC   PO471460   9.700  10.134   5.415
 5595POPC   GL171461   9.773   9.800   5.733
 5595POPC   GL271462  10.113   9.646   5.731
 5595POPC   C1A71463   9.747   9.835   6.195
 5595POPC   D2A71464   9.668  10.011   6.610
 5595POPC   C3A71465   9.718   9.780   6.994
 5595POPC   C4A71466   9.697   9.829   7.516
 5595POPC   C1B71467  10.066   9.436   6.149
 5595POPC   C2B71468   9.868   9.430   6.562
 5595POPC   C3B71469  10.036   9.357   6.965
 5595POPC   C4B71470  10.115   9.650   7.285
 5596POPC   NC371471  21.107  10.424   5.375
 5596POPC   PO471472  21.771  10.557   5.152
 5596POPC   GL171473  21.617  10.345   5.604
 5596POPC   GL271474  21.313  10.537   5.809
 5596POPC   C1A71475  21.669  10.383   6.113
 5596POPC   D2A71476  21.402  10.458   6.497
 5596POPC   C3A71477  21.499  10.370   6.933
 5596POPC   C4A71478  21.265  10.262   7.301
 5596POPC   C1B71479  21.124  10.743   6.173
 5596POPC   C2B71480  21.118  10.865   6.594
 5596POPC   C3B71481  21.069  10.626   6.960
 5596POPC   C4B71482  21.045  10.827   7.380
 5597POPC   NC371483  37.939  43.769   5.180
 5597POPC   PO471484  38.636  43.851   5.372
 5597POPC   GL171485  38.626  43.996   5.847
 5597POPC   GL271486  38.343  43.815   5.919
 5597POPC   C1A71487  38.534  43.936   6.362
 5597POPC   D2A71488  38.168  43.715   6.596
 5597POPC   C3A71489  38.253  43.579   7.002
 5597POPC   C4A71490  38.638  43.745   7.229
 5597POPC   C1B71491  38.046  44.046   6.179
 5597POPC   C2B71492  38.109  44.225   6.566
 5597POPC   C3B71493  38.300  44.114   6.931
 5597POPC   C4B71494  38.189  43.967   7.327
 5598POPC   NC371495   6.517  11.985   5.406
 5598POPC   PO471496   6.997  11.544   5.514
 5598POPC   GL171497   6.676  11.721   5.836
 5598POPC   GL271498   6.621  12.123   5.872
 5598POPC   C1A71499   6.369  11.820   6.170
 5598POPC   D2A71500   6.468  12.162   6.454
 5598POPC   C3A71501   6.612  11.976   6.797
 5598POPC   C4A71502   6.817  11.967   7.145
 5598POPC   C1B71503   6.877  12.365   6.126
 5598POPC   C2B71504   6.845  12.525   6.518
 5598POPC   C3B71505   6.973  12.408   6.918
 5598POPC   C4B71506   6.717  12.445   7.281
 5599POPC   NC371507  30.413  18.109   5.124
 5599POPC   PO471508  29.751  18.036   5.301
 5599POPC   GL171509  29.895  18.199   5.681
 5599POPC   GL271510  29.584  18.377   5.816
 5599POPC   C1A71511  30.006  18.204   6.115
 5599POPC   D2A71512  29.937  18.470   6.482
 5599POPC   C3A71513  30.011  18.337   6.909
 5599POPC   C4A71514  30.051  18.241   7.367
 5599POPC   C1B71515  29.523  18.197   6.275
 5599POPC   C2B71516  29.510  18.323   6.740
 5599POPC   C3B71517  29.614  18.459   7.177
 5599POPC   C4B71518  29.686  18.560   7.616
 5600POPC   NC371519  44.899  23.189   5.671
 5600POPC   PO471520  44.935  22.532   5.426
 5600POPC   GL171521  44.802  22.682   5.816
 5600POPC   GL271522  44.479  22.873   5.829
 5600POPC   C1A71523  44.915  22.759   6.236
 5600POPC   D2A71524   0.026  22.733   6.668
 5600POPC   C3A71525  44.796  23.019   6.934
 5600POPC   C4A71526  44.455  22.959   7.198
 5600POPC   C1B71527  44.485  23.117   6.240
 5600POPC   C2B71528  44.322  23.169   6.685
 5600POPC   C3B71529  44.219  23.390   7.087
 5600POPC   C4B71530  44.550  23.400   7.385
 5601POPC   NC371531  10.806  11.966   5.341
 5601POPC   PO471532  10.203  12.377   5.342
 5601POPC   GL171533  10.374  12.292   5.735
 5601POPC   GL271534  10.499  11.943   5.756
 5601POPC   C1A71535  10.556  12.266   6.127
 5601POPC   D2A71536  10.463  12.166   6.512
 5601POPC   C3A71537  10.591  12.344   6.837
 5601POPC   C4A71538  10.661  12.286   7.232
 5601POPC   C1B71539  10.416  11.731   6.123
 5601POPC   C2B71540  10.593  11.681   6.543
 5601POPC   C3B71541  10.514  11.832   6.962
 5601POPC   C4B71542  10.359  11.501   7.213
 5602POPC   NC371543   5.989   4.686   5.470
 5602POPC   PO471544   5.653   4.020   5.417
 5602POPC   GL171545   5.895   3.983   5.819
 5602POPC   GL271546   6.250   4.040   5.752
 5602POPC   C1A71547   5.854   4.222   6.247
 5602POPC   D2A71548   6.068   4.411   6.648
 5602POPC   C3A71549   5.788   4.433   7.022
 5602POPC   C4A71550   5.513   4.053   7.081
 5602POPC   C1B71551   6.321   3.996   6.187
 5602POPC   C2B71552   6.065   3.893   6.565
 5602POPC   C3B71553   6.018   3.985   6.955
 5602POPC   C4B71554   6.267   4.244   7.138
 5603POPC   NC371555  40.382  18.298   5.616
 5603POPC   PO471556  39.749  18.292   5.233
 5603POPC   GL171557  39.931  18.025   5.683
 5603POPC   GL271558  40.105  18.278   6.023
 5603POPC   C1A71559  40.049  17.814   6.105
 5603POPC   D2A71560  40.121  18.081   6.494
 5603POPC   C3A71561  39.873  18.011   6.858
 5603POPC   C4A71562  40.067  18.218   7.217
 5603POPC   C1B71563  39.893  18.521   6.307
 5603POPC   C2B71564  39.693  18.486   6.683
 5603POPC   C3B71565  39.754  18.585   7.046
 5603POPC   C4B71566  39.765  18.553   7.470
 5604POPC   NC371567   7.189  40.915   5.204
 5604POPC   PO471568   7.809  40.657   5.259
 5604POPC   GL171569   7.586  40.586   5.646
 5604POPC   GL271570   7.200  40.582   5.677
 5604POPC   C1A71571   7.503  40.776   6.059
 5604POPC   D2A71572   7.346  40.659   6.474
 5604POPC   C3A71573   7.488  40.896   6.848
 5604POPC   C4A71574   7.642  40.766   7.247
 5604POPC   C1B71575   7.026  40.446   6.105
 5604POPC   C2B71576   6.906  40.407   6.567
 5604POPC   C3B71577   7.007  40.706   6.911
 5604POPC   C4B71578   7.162  41.002   7.256
 5605POPC   NC371579  34.581  29.026   5.348
 5605POPC   PO471580  33.967  28.757   5.508
 5605POPC   GL171581  34.272  28.994   5.807
 5605POPC   GL271582  34.651  29.106   5.840
 5605POPC   C1A71583  34.355  29.061   6.262
 5605POPC   D2A71584  34.228  28.898   6.642
 5605POPC   C3A71585  34.395  29.048   7.022
 5605POPC   C4A71586  34.685  28.869   7.252
 5605POPC   C1B71587  34.867  28.970   6.213
 5605POPC   C2B71588  34.818  28.963   6.654
 5605POPC   C3B71589  35.023  29.157   6.978
 5605POPC   C4B71590  34.909  29.318   7.368
 5606POPC   NC371591  31.965  21.476   5.579
 5606POPC   PO471592  32.462  21.171   5.224
 5606POPC   GL171593  32.373  21.198   5.703
 5606POPC   GL271594  32.413  21.529   5.825
 5606POPC   C1A71595  32.276  21.155   6.164
 5606POPC   D2A71596  32.037  21.317   6.515
 5606POPC   C3A71597  32.114  21.338   6.948
 5606POPC   C4A71598  32.379  21.373   7.319
 5606POPC   C1B71599  32.202  21.673   6.197
 5606POPC   C2B71600  32.183  21.792   6.628
 5606POPC   C3B71601  32.359  21.798   7.031
 5606POPC   C4B71602  32.205  21.866   7.426
 5607POPC   NC371603  19.406  10.708   5.496
 5607POPC   PO471604  18.806  10.276   5.401
 5607POPC   GL171605  18.936  10.576   5.736
 5607POPC   GL271606  18.804  10.911   5.670
 5607POPC   C1A71607  19.172  10.618   6.155
 5607POPC   D2A71608  19.351  10.721   6.580
 5607POPC   C3A71609  19.338  10.456   6.937
 5607POPC   C4A71610  19.369  10.504   7.378
 5607POPC   C1B71611  18.705  10.858   6.111
 5607POPC   C2B71612  18.852  10.780   6.535
 5607POPC   C3B71613  18.835  10.586   6.914
 5607POPC   C4B71614  18.797  10.630   7.334
 5608POPC   NC371615  28.788  11.654   5.431
 5608POPC   PO471616  28.188  11.781   5.496
 5608POPC   GL171617  28.213  11.870   5.911
 5608POPC   GL271618  27.866  11.739   5.929
 5608POPC   C1A71619  28.534  11.851   6.292
 5608POPC   D2A71620  28.675  12.073   6.685
 5608POPC   C3A71621  28.492  12.001   7.104
 5608POPC   C4A71622  28.287  12.210   7.476
 5608POPC   C1B71623  28.114  11.563   6.291
 5608POPC   C2B71624  28.205  11.733   6.722
 5608POPC   C3B71625  28.063  11.729   7.158
 5608POPC   C4B71626  27.934  11.645   7.653
 5609POPC   NC371627   7.428  28.714   5.321
 5609POPC   PO471628   7.351  29.299   5.532
 5609POPC   GL171629   7.543  29.169   5.897
 5609POPC   GL271630   7.266  29.004   5.980
 5609POPC   C1A71631   7.585  29.151   6.365
 5609POPC   D2A71632   7.751  29.426   6.687
 5609POPC   C3A71633   7.495  29.315   7.019
 5609POPC   C4A71634   7.523  28.866   7.181
 5609POPC   C1B71635   7.121  29.367   6.186
 5609POPC   C2B71636   7.098  29.329   6.616
 5609POPC   C3B71637   6.963  29.432   6.994
 5609POPC   C4B71638   7.129  29.238   7.359
 5610POPC   NC371639  10.700  38.851   5.456
 5610POPC   PO471640  10.683  39.533   5.406
 5610POPC   GL171641  10.519  39.444   5.818
 5610POPC   GL271642  10.326  39.145   5.736
 5610POPC   C1A71643  10.416  39.550   6.266
 5610POPC   D2A71644  10.291  39.478   6.713
 5610POPC   C3A71645  10.697  39.488   6.856
 5610POPC   C4A71646  10.851  39.501   7.240
 5610POPC   C1B71647  10.412  39.041   6.185
 5610POPC   C2B71648  10.568  39.050   6.609
 5610POPC   C3B71649  10.732  38.998   7.016
 5610POPC   C4B71650  10.545  38.698   7.282
 5611POPC   NC371651  42.051  15.202   5.198
 5611POPC   PO471652  41.357  15.321   5.353
 5611POPC   GL171653  41.605  15.158   5.727
 5611POPC   GL271654  41.924  15.363   5.745
 5611POPC   C1A71655  41.491  15.119   6.188
 5611POPC   D2A71656  41.528  15.050   6.654
 5611POPC   C3A71657  41.626  15.382   6.965
 5611POPC   C4A71658  41.575  15.329   7.425
 5611POPC   C1B71659  42.023  15.199   6.201
 5611POPC   C2B71660  42.034  14.990   6.650
 5611POPC   C3B71661  41.820  14.917   7.079
 5611POPC   C4B71662  41.897  14.825   7.530
 5612POPC   NC371663  27.010   9.149   5.341
 5612POPC   PO471664  26.368   8.821   5.403
 5612POPC   GL171665  26.709   8.932   5.703
 5612POPC   GL271666  26.834   8.604   5.787
 5612POPC   C1A71667  26.729   9.071   6.162
 5612POPC   D2A71668  26.977   9.193   6.554
 5612POPC   C3A71669  26.764   9.089   6.951
 5612POPC   C4A71670  26.816   9.059   7.403
 5612POPC   C1B71671  27.003   8.639   6.218
 5612POPC   C2B71672  26.924   8.663   6.661
 5612POPC   C3B71673  27.130   8.718   7.053
 5612POPC   C4B71674  27.114   8.625   7.484
 5613POPC   NC371675  21.949  22.615   5.249
 5613POPC   PO471676  22.427  23.081   5.474
 5613POPC   GL171677  22.227  23.056   5.794
 5613POPC   GL271678  22.095  22.761   5.739
 5613POPC   C1A71679  22.215  23.193   6.192
 5613POPC   D2A71680  22.221  22.888   6.513
 5613POPC   C3A71681  22.362  23.047   6.892
 5613POPC   C4A71682  22.078  23.191   7.199
 5613POPC   C1B71683  21.909  22.640   6.129
 5613POPC   C2B71684  21.740  22.690   6.555
 5613POPC   C3B71685  21.966  22.729   6.960
 5613POPC   C4B71686  21.859  22.761   7.405
 5614POPC   NC371687  30.405  11.305   5.491
 5614POPC   PO471688  29.792  11.139   5.249
 5614POPC   GL171689  29.888  11.075   5.686
 5614POPC   GL271690  29.996  11.394   5.800
 5614POPC   C1A71691  29.734  11.065   6.112
 5614POPC   D2A71692  29.719  10.943   6.515
 5614POPC   C3A71693  29.758  11.259   6.836
 5614POPC   C4A71694  29.555  11.109   7.157
 5614POPC   C1B71695  30.234  11.170   6.147
 5614POPC   C2B71696  30.178  11.194   6.568
 5614POPC   C3B71697  30.260  11.243   6.981
 5614POPC   C4B71698  30.378  11.655   7.096
 5615POPC   NC371699   9.923   7.780   5.588
 5615POPC   PO471700   9.562   8.273   5.186
 5615POPC   GL171701   9.503   8.235   5.658
 5615POPC   GL271702   9.435   7.892   5.757
 5615POPC   C1A71703   9.572   8.481   6.065
 5615POPC   D2A71704   9.875   8.557   6.417
 5615POPC   C3A71705   9.896   8.376   6.834
 5615POPC   C4A71706  10.046   8.513   7.243
 5615POPC   C1B71707   9.296   8.058   6.148
 5615POPC   C2B71708   9.427   8.298   6.544
 5615POPC   C3B71709   9.421   8.193   6.990
 5615POPC   C4B71710   9.756   8.044   7.213
 5616POPC   NC371711  23.649  17.448   5.282
 5616POPC   PO471712  23.757  18.116   5.199
 5616POPC   GL171713  23.829  17.837   5.630
 5616POPC   GL271714  23.546  17.726   5.766
 5616POPC   C1A71715  23.934  17.646   6.096
 5616POPC   D2A71716  23.674  17.464   6.495
 5616POPC   C3A71717  23.871  17.377   6.946
 5616POPC   C4A71718  23.726  17.454   7.416
 5616POPC   C1B71719  23.480  17.878   6.179
 5616POPC   C2B71720  23.344  17.896   6.591
 5616POPC   C3B71721  23.481  17.690   6.952
 5616POPC   C4B71722  23.426  17.849   7.369
 5617POPC   NC371723  11.740  28.979   5.737
 5617POPC   PO471724  12.249  29.419   5.427
 5617POPC   GL171725  12.101  29.330   5.847
 5617POPC   GL271726  11.804  29.499   5.872
 5617POPC   C1A71727  12.194  29.128   6.254
 5617POPC   D2A71728  12.347  28.936   6.647
 5617POPC   C3A71729  12.184  29.136   7.037
 5617POPC   C4A71730  12.040  28.927   7.461
 5617POPC   C1B71731  11.696  29.397   6.277
 5617POPC   C2B71732  11.856  29.210   6.651
 5617POPC   C3B71733  11.698  29.051   7.054
 5617POPC   C4B71734  11.798  29.369   7.365
 5618POPC   NC371735  10.876  36.701   5.425
 5618POPC   PO471736  10.350  37.136   5.368
 5618POPC   GL171737  10.392  36.988   5.772
 5618POPC   GL271738  10.613  36.763   5.857
 5618POPC   C1A71739  10.407  37.091   6.214
 5618POPC   D2A71740  10.357  37.209   6.607
 5618POPC   C3A71741  10.332  36.912   6.880
 5618POPC   C4A71742  10.461  36.964   7.280
 5618POPC   C1B71743  10.830  36.562   6.177
 5618POPC   C2B71744  10.813  36.411   6.586
 5618POPC   C3B71745  10.736  36.604   6.985
 5618POPC   C4B71746  10.794  36.601   7.404
 5619POPC   NC371747  39.107  36.376   5.250
 5619POPC   PO471748  39.528  35.864   5.436
 5619POPC   GL171749  39.363  36.096   5.808
 5619POPC   GL271750  39.010  36.215   5.772
 5619POPC   C1A71751  39.261  35.918   6.221
 5619POPC   D2A71752  39.107  35.945   6.630
 5619POPC   C3A71753  39.303  35.743   6.974
 5619POPC   C4A71754  39.139  35.924   7.313
 5619POPC   C1B71755  39.201  36.433   6.156
 5619POPC   C2B71756  39.455  36.359   6.526
 5619POPC   C3B71757  39.341  36.275   6.952
 5619POPC   C4B71758  39.113  36.564   7.185
 5620POPC   NC371759  41.880  36.093   5.316
 5620POPC   PO471760  41.247  35.779   5.099
 5620POPC   GL171761  41.436  35.959   5.532
 5620POPC   GL271762  41.351  36.310   5.636
 5620POPC   C1A71763  41.609  36.024   5.992
 5620POPC   D2A71764  41.821  36.241   6.370
 5620POPC   C3A71765  41.779  36.280   6.833
 5620POPC   C4A71766  41.627  36.175   7.270
 5620POPC   C1B71767  41.355  36.455   6.081
 5620POPC   C2B71768  41.307  36.235   6.477
 5620POPC   C3B71769  41.292  36.380   6.889
 5620POPC   C4B71770  41.271  36.572   7.265
 5621POPC   NC371771  10.607  14.758   5.368
 5621POPC   PO471772  10.249  15.400   5.416
 5621POPC   GL171773  10.506  15.242   5.741
 5621POPC   GL271774  10.709  15.496   5.855
 5621POPC   C1A71775  10.534  15.114   6.182
 5621POPC   D2A71776  10.280  14.846   6.419
 5621POPC   C3A71777  10.356  14.870   6.868
 5621POPC   C4A71778  10.632  15.007   7.242
 5621POPC   C1B71779  10.938  15.440   6.225
 5621POPC   C2B71780  10.755  15.347   6.632
 5621POPC   C3B71781  10.716  15.484   7.062
 5621POPC   C4B71782  10.919  15.453   7.488
 5622POPC   NC371783  32.915  33.504   5.346
 5622POPC   PO471784  33.041  32.824   5.585
 5622POPC   GL171785  32.754  33.061   5.810
 5622POPC   GL271786  32.922  33.355   5.840
 5622POPC   C1A71787  32.764  32.982   6.252
 5622POPC   D2A71788  32.903  33.219   6.591
 5622POPC   C3A71789  32.733  33.167   6.989
 5622POPC   C4A71790  32.912  32.838   7.303
 5622POPC   C1B71791  33.119  33.527   6.221
 5622POPC   C2B71792  33.364  33.450   6.605
 5622POPC   C3B71793  33.256  33.186   6.979
 5622POPC   C4B71794  33.033  33.358   7.360
 5623POPC   NC371795   2.200  29.839   5.278
 5623POPC   PO471796   1.604  30.194   5.285
 5623POPC   GL171797   1.661  30.051   5.753
 5623POPC   GL271798   1.850  29.731   5.699
 5623POPC   C1A71799   1.812  30.094   6.244
 5623POPC   D2A71800   1.786  30.119   6.752
 5623POPC   C3A71801   1.985  30.121   7.160
 5623POPC   C4A71802   2.184  29.849   7.477
 5623POPC   C1B71803   2.056  29.577   6.122
 5623POPC   C2B71804   2.173  29.417   6.569
 5623POPC   C3B71805   2.024  29.563   6.991
 5623POPC   C4B71806   2.066  29.367   7.424
 5624POPC   NC371807  28.449  35.538   5.355
 5624POPC   PO471808  28.678  35.064   5.522
 5624POPC   GL171809  28.392  35.322   5.835
 5624POPC   GL271810  28.590  35.608   5.870
 5624POPC   C1A71811  28.104  35.439   6.249
 5624POPC   D2A71812  27.911  35.574   6.639
 5624POPC   C3A71813  27.969  35.331   7.052
 5624POPC   C4A71814  28.328  35.090   7.155
 5624POPC   C1B71815  28.589  35.422   6.306
 5624POPC   C2B71816  28.420  35.346   6.717
 5624POPC   C3B71817  28.641  35.514   7.096
 5624POPC   C4B71818  28.922  35.704   7.430
 5625POPC   NC371819  38.522  24.717   4.974
 5625POPC   PO471820  38.722  24.368   5.477
 5625POPC   GL171821  38.506  24.498   5.823
 5625POPC   GL271822  38.673  24.763   5.880
 5625POPC   C1A71823  38.301  24.594   6.226
 5625POPC   D2A71824  38.271  24.645   6.683
 5625POPC   C3A71825  38.439  24.297   6.923
 5625POPC   C4A71826  38.582  24.313   7.383
 5625POPC   C1B71827  38.833  24.684   6.286
 5625POPC   C2B71828  38.787  24.734   6.727
 5625POPC   C3B71829  38.565  24.752   7.100
 5625POPC   C4B71830  38.547  24.812   7.534
 5626POPC   NC371831  13.959  12.298   5.551
 5626POPC   PO471832  13.607  11.725   5.466
 5626POPC   GL171833  13.612  12.025   5.773
 5626POPC   GL271834  13.924  11.907   5.876
 5626POPC   C1A71835  13.529  12.307   6.119
 5626POPC   D2A71836  13.356  12.337   6.520
 5626POPC   C3A71837  13.576  12.344   6.914
 5626POPC   C4A71838  13.606  12.052   7.261
 5626POPC   C1B71839  14.015  12.196   6.217
 5626POPC   C2B71840  14.072  12.360   6.625
 5626POPC   C3B71841  14.048  12.154   7.015
 5626POPC   C4B71842  14.069  11.851   7.328
 5627POPC   NC371843  36.566   1.248   5.244
 5627POPC   PO471844  36.967   0.946   5.668
 5627POPC   GL171845  36.609   1.145   5.869
 5627POPC   GL271846  36.491   1.470   5.743
 5627POPC   C1A71847  36.670   1.172   6.325
 5627POPC   D2A71848  37.045   0.981   6.539
 5627POPC   C3A71849  37.111   1.121   6.961
 5627POPC   C4A71850  36.791   1.014   7.275
 5627POPC   C1B71851  36.609   1.697   6.125
 5627POPC   C2B71852  36.854   1.661   6.542
 5627POPC   C3B71853  36.876   1.625   7.026
 5627POPC   C4B71854  36.795   1.721   7.487
 5628POPC   NC371855   2.320  22.903   5.390
 5628POPC   PO471856   1.775  23.368   5.339
 5628POPC   GL171857   1.683  23.089   5.711
 5628POPC   GL271858   1.919  22.773   5.736
 5628POPC   C1A71859   1.787  23.029   6.158
 5628POPC   D2A71860   2.094  23.076   6.470
 5628POPC   C3A71861   1.916  22.933   6.816
 5628POPC   C4A71862   2.015  22.905   7.233
 5628POPC   C1B71863   2.175  22.702   6.127
 5628POPC   C2B71864   2.032  22.546   6.510
 5628POPC   C3B71865   2.201  22.542   6.921
 5628POPC   C4B71866   2.424  22.576   7.257
 5629POPC   NC371867  29.704  20.049   5.321
 5629POPC   PO471868  30.339  19.920   5.539
 5629POPC   GL171869  30.027  19.920   5.812
 5629POPC   GL271870  29.684  19.817   5.794
 5629POPC   C1A71871  30.115  19.781   6.204
 5629POPC   D2A71872  30.354  19.902   6.540
 5629POPC   C3A71873  30.168  19.990   6.940
 5629POPC   C4A71874  30.042  19.697   7.222
 5629POPC   C1B71875  29.690  20.086   6.161
 5629POPC   C2B71876  29.865  20.143   6.546
 5629POPC   C3B71877  29.671  20.195   6.932
 5629POPC   C4B71878  29.687  20.045   7.351
 5630POPC   NC371879  20.322  23.765   5.513
 5630POPC   PO471880  20.880  23.542   5.376
 5630POPC   GL171881  20.808  23.768   5.800
 5630POPC   GL271882  20.484  23.743   5.977
 5630POPC   C1A71883  20.858  23.997   6.233
 5630POPC   D2A71884  21.016  23.840   6.644
 5630POPC   C3A71885  20.857  23.790   7.042
 5630POPC   C4A71886  20.514  23.936   7.268
 5630POPC   C1B71887  20.673  23.509   6.284
 5630POPC   C2B71888  20.533  23.644   6.670
 5630POPC   C3B71889  20.218  23.584   6.954
 5630POPC   C4B71890  20.264  23.486   7.381
 5631POPC   NC371891  32.281  10.081   5.282
 5631POPC   PO471892  32.386  10.715   5.519
 5631POPC   GL171893  32.129  10.626   5.868
 5631POPC   GL271894  32.017  10.308   5.706
 5631POPC   C1A71895  32.222  10.453   6.290
 5631POPC   D2A71896  32.409  10.187   6.598
 5631POPC   C3A71897  32.291  10.388   6.981
 5631POPC   C4A71898  32.525  10.458   7.352
 5631POPC   C1B71899  31.791  10.271   6.083
 5631POPC   C2B71900  31.713  10.555   6.422
 5631POPC   C3B71901  31.767  10.565   6.859
 5631POPC   C4B71902  31.829  10.319   7.211
 5632POPC   NC371903  40.590  10.691   5.484
 5632POPC   PO471904  41.113  10.236   5.359
 5632POPC   GL171905  40.820  10.237   5.751
 5632POPC   GL271906  40.445  10.271   5.763
 5632POPC   C1A71907  40.774  10.306   6.227
 5632POPC   D2A71908  41.023  10.387   6.626
 5632POPC   C3A71909  40.893  10.737   6.896
 5632POPC   C4A71910  40.760  10.691   7.313
 5632POPC   C1B71911  40.258  10.357   6.159
 5632POPC   C2B71912  40.298  10.192   6.556
 5632POPC   C3B71913  40.530  10.308   6.919
 5632POPC   C4B71914  40.356  10.388   7.309
 5633POPC   NC371915  39.526  44.854   5.377
 5633POPC   PO471916  39.203  44.255   5.316
 5633POPC   GL171917  39.156  44.586   5.633
 5633POPC   GL271918  39.180  44.328   5.831
 5633POPC   C1A71919  39.329  44.790   6.044
 5633POPC   D2A71920  39.515  44.827   6.479
 5633POPC   C3A71921  39.270  44.960   6.863
 5633POPC   C4A71922  39.332  44.932   7.304
 5633POPC   C1B71923  38.909  44.496   6.129
 5633POPC   C2B71924  39.011  44.686   6.516
 5633POPC   C3B71925  39.114  44.487   6.913
 5633POPC   C4B71926  39.027  44.556   7.343
 5634POPC   NC371927  14.812   4.479   5.145
 5634POPC   PO471928  15.473   4.395   5.301
 5634POPC   GL171929  15.455   4.295   5.811
 5634POPC   GL271930  15.160   4.182   6.004
 5634POPC   C1A71931  15.491   4.461   6.237
 5634POPC   D2A71932  15.339   4.232   6.584
 5634POPC   C3A71933  15.472   4.411   6.953
 5634POPC   C4A71934  15.500   4.492   7.366
 5634POPC   C1B71935  14.860   4.160   6.371
 5634POPC   C2B71936  14.867   4.240   6.825
 5634POPC   C3B71937  15.113   4.182   7.213
 5634POPC   C4B71938  15.065   3.870   7.554
 5635POPC   NC371939  19.755   5.949   5.385
 5635POPC   PO471940  20.273   5.489   5.400
 5635POPC   GL171941  20.058   5.728   5.748
 5635POPC   GL271942  19.666   5.714   5.830
 5635POPC   C1A71943  20.041   5.894   6.167
 5635POPC   D2A71944  20.266   6.058   6.509
 5635POPC   C3A71945  20.064   6.019   6.893
 5635POPC   C4A71946  20.160   5.843   7.265
 5635POPC   C1B71947  19.506   5.923   6.218
 5635POPC   C2B71948  19.644   6.075   6.613
 5635POPC   C3B71949  19.547   5.892   7.005
 5635POPC   C4B71950  19.687   5.724   7.396
 5636POPC   NC371951  16.514   5.175   5.308
 5636POPC   PO471952  17.039   5.428   5.362
 5636POPC   GL171953  16.917   5.094   5.679
 5636POPC   GL271954  16.558   5.160   5.828
 5636POPC   C1A71955  16.966   5.137   6.131
 5636POPC   D2A71956  16.789   5.143   6.539
 5636POPC   C3A71957  17.045   5.206   6.866
 5636POPC   C4A71958  17.001   5.019   7.222
 5636POPC   C1B71959  16.358   5.035   6.246
 5636POPC   C2B71960  16.322   4.962   6.700
 5636POPC   C3B71961  16.553   5.191   7.025
 5636POPC   C4B71962  16.438   5.433   7.384
 5637POPC   NC371963   1.416  31.329   5.210
 5637POPC   PO471964   2.037  31.584   5.217
 5637POPC   GL171965   2.030  31.470   5.689
 5637POPC   GL271966   1.785  31.201   5.623
 5637POPC   C1A71967   2.225  31.511   6.169
 5637POPC   D2A71968   2.170  31.357   6.653
 5637POPC   C3A71969   2.040  31.637   7.050
 5637POPC   C4A71970   1.978  31.917   7.434
 5637POPC   C1B71971   1.885  31.129   6.085
 5637POPC   C2B71972   1.898  30.926   6.504
 5637POPC   C3B71973   1.811  31.031   6.921
 5637POPC   C4B71974   1.928  31.191   7.279
 5638POPC   NC371975   6.697  35.900   5.502
 5638POPC   PO471976   6.386  36.527   5.409
 5638POPC   GL171977   6.369  36.298   5.776
 5638POPC   GL271978   6.696  36.160   5.967
 5638POPC   C1A71979   6.292  36.410   6.177
 5638POPC   D2A71980   6.586  36.330   6.484
 5638POPC   C3A71981   6.420  36.226   6.866
 5638POPC   C4A71982   6.479  36.220   7.293
 5638POPC   C1B71983   6.982  36.032   6.342
 5638POPC   C2B71984   6.915  36.039   6.800
 5638POPC   C3B71985   6.945  36.021   7.237
 5638POPC   C4B71986   7.164  35.892   7.636
 5639POPC   NC371987   1.851  21.242   5.381
 5639POPC   PO471988   2.444  21.487   5.155
 5639POPC   GL171989   2.256  21.200   5.671
 5639POPC   GL271990   2.013  21.399   5.930
 5639POPC   C1A71991   2.426  21.188   6.126
 5639POPC   D2A71992   2.287  21.364   6.535
 5639POPC   C3A71993   2.146  21.326   6.983
 5639POPC   C4A71994   2.094  21.669   7.261
 5639POPC   C1B71995   2.025  21.748   6.309
 5639POPC   C2B71996   1.864  21.757   6.785
 5639POPC   C3B71997   1.639  21.513   7.099
 5639POPC   C4B71998   1.629  21.067   7.159
 5640POPC   NC371999  19.495   4.479   5.508
 5640POPC   PO472000  20.131   4.565   5.501
 5640POPC   GL172001  19.874   4.419   5.845
 5640POPC   GL272002  19.713   4.093   5.802
 5640POPC   C1A72003  19.838   4.364   6.280
 5640POPC   D2A72004  20.084   4.600   6.561
 5640POPC   C3A72005  19.907   4.524   6.950
 5640POPC   C4A72006  19.598   4.249   7.115
 5640POPC   C1B72007  20.131   4.013   6.040
 5640POPC   C2B72008  20.365   4.136   6.418
 5640POPC   C3B72009  20.165   4.093   6.811
 5640POPC   C4B72010  20.058   3.956   7.214
 5641POPC   NC372011  33.226  10.156   4.962
 5641POPC   PO472012  32.984  10.428   5.484
 5641POPC   GL172013  33.065  10.580   5.855
 5641POPC   GL272014  32.767  10.771   5.977
 5641POPC   C1A72015  33.307  10.536   6.207
 5641POPC   D2A72016  33.178  10.448   6.616
 5641POPC   C3A72017  33.212  10.701   6.976
 5641POPC   C4A72018  33.024  10.419   7.266
 5641POPC   C1B72019  32.759  10.423   6.232
 5641POPC   C2B72020  32.665  10.633   6.568
 5641POPC   C3B72021  32.697  10.700   6.953
 5641POPC   C4B72022  32.831  10.909   7.287
 5642POPC   NC372023  12.797  13.595   5.419
 5642POPC   PO472024  12.504  13.956   5.810
 5642POPC   GL172025  12.861  13.732   5.930
 5642POPC   GL272026  12.900  13.353   5.875
 5642POPC   C1A72027  12.969  13.784   6.374
 5642POPC   D2A72028  13.139  13.457   6.604
 5642POPC   C3A72029  13.211  13.544   7.017
 5642POPC   C4A72030  12.974  13.755   7.337
 5642POPC   C1B72031  12.702  13.376   6.251
 5642POPC   C2B72032  12.620  13.299   6.651
 5642POPC   C3B72033  12.757  13.336   7.055
 5642POPC   C4B72034  12.556  13.469   7.388
 5643POPC   NC372035  35.013   1.375   5.570
 5643POPC   PO472036  34.360   1.131   5.428
 5643POPC   GL172037  34.579   1.129   5.792
 5643POPC   GL272038  34.441   1.443   5.886
 5643POPC   C1A72039  34.509   1.060   6.228
 5643POPC   D2A72040  34.417   1.272   6.606
 5643POPC   C3A72041  34.715   1.054   6.870
 5643POPC   C4A72042  34.766   0.670   7.135
 5643POPC   C1B72043  34.784   1.538   6.208
 5643POPC   C2B72044  34.899   1.525   6.660
 5643POPC   C3B72045  34.610   1.541   6.996
 5643POPC   C4B72046  34.354   1.333   7.285
 5644POPC   NC372047  34.361  14.705   5.326
 5644POPC   PO472048  34.526  13.992   5.290
 5644POPC   GL172049  34.504  14.321   5.657
 5644POPC   GL272050  34.778  14.535   5.754
 5644POPC   C1A72051  34.446  14.305   6.125
 5644POPC   D2A72052  34.445  14.446   6.567
 5644POPC   C3A72053  34.413  14.130   6.926
 5644POPC   C4A72054  34.502  14.130   7.380
 5644POPC   C1B72055  34.544  14.820   6.073
 5644POPC   C2B72056  34.445  14.991   6.496
 5644POPC   C3B72057  34.273  14.834   6.863
 5644POPC   C4B72058  34.493  14.840   7.219
 5645POPC   NC372059  37.404  33.196   5.476
 5645POPC   PO472060  37.597  32.530   5.304
 5645POPC   GL172061  37.512  32.770   5.727
 5645POPC   GL272062  37.849  32.810   5.818
 5645POPC   C1A72063  37.577  33.066   6.130
 5645POPC   D2A72064  37.757  32.874   6.495
 5645POPC   C3A72065  37.757  33.050   6.874
 5645POPC   C4A72066  37.611  32.918   7.230
 5645POPC   C1B72067  38.058  32.636   6.165
 5645POPC   C2B72068  38.163  32.545   6.582
 5645POPC   C3B72069  38.138  32.712   6.999
 5645POPC   C4B72070  38.142  32.896   7.384
 5646POPC   NC372071  22.139   1.260   5.329
 5646POPC   PO472072  21.515   1.313   5.372
 5646POPC   GL172073  21.849   1.093   5.716
 5646POPC   GL272074  22.256   0.986   5.751
 5646POPC   C1A72075  21.931   1.102   6.141
 5646POPC   D2A72076  22.181   1.235   6.497
 5646POPC   C3A72077  22.147   0.980   6.845
 5646POPC   C4A72078  21.983   1.020   7.257
 5646POPC   C1B72079  22.458   1.297   6.062
 5646POPC   C2B72080  22.645   1.436   6.510
 5646POPC   C3B72081  22.519   1.332   6.971
 5646POPC   C4B72082  22.604   1.224   7.416
 5647POPC   NC372083  33.127   7.169   5.116
 5647POPC   PO472084  33.034   6.461   5.148
 5647POPC   GL172085  33.026   6.645   5.659
 5647POPC   GL272086  33.177   6.382   5.792
 5647POPC   C1A72087  33.107   6.762   6.148
 5647POPC   D2A72088  33.157   7.019   6.546
 5647POPC   C3A72089  33.280   6.857   6.966
 5647POPC   C4A72090  32.988   6.741   7.311
 5647POPC   C1B72091  33.003   6.281   6.198
 5647POPC   C2B72092  33.152   6.471   6.601
 5647POPC   C3B72093  33.177   6.313   7.023
 5647POPC   C4B72094  32.864   6.243   7.302
 5648POPC   NC372095   5.598   2.004   5.328
 5648POPC   PO472096   6.225   1.791   5.564
 5648POPC   GL172097   5.856   1.866   5.825
 5648POPC   GL272098   5.738   2.197   5.809
 5648POPC   C1A72099   5.844   1.651   6.253
 5648POPC   D2A72100   6.172   1.688   6.604
 5648POPC   C3A72101   6.052   1.979   6.946
 5648POPC   C4A72102   5.735   1.822   7.227
 5648POPC   C1B72103   5.959   2.157   6.235
 5648POPC   C2B72104   5.774   2.302   6.633
 5648POPC   C3B72105   5.661   2.316   7.079
 5648POPC   C4B72106   5.713   2.288   7.537
 5649POPC   NC372107  39.786  15.622   5.592
 5649POPC   PO472108  40.153  16.200   5.305
 5649POPC   GL172109  40.148  16.060   5.739
 5649POPC   GL272110  39.817  16.091   5.854
 5649POPC   C1A72111  40.283  16.168   6.178
 5649POPC   D2A72112  40.501  16.103   6.578
 5649POPC   C3A72113  40.308  16.177   6.973
 5649POPC   C4A72114  40.384  16.099   7.408
 5649POPC   C1B72115  39.892  15.833   6.238
 5649POPC   C2B72116  40.049  15.852   6.655
 5649POPC   C3B72117  39.830  15.816   7.042
 5649POPC   C4B72118  39.539  15.691   7.372
 5650POPC   NC372119  11.643  31.243   5.360
 5650POPC   PO472120  12.219  31.771   5.297
 5650POPC   GL172121  12.022  31.584   5.741
 5650POPC   GL272122  11.782  31.274   5.841
 5650POPC   C1A72123  12.135  31.534   6.181
 5650POPC   D2A72124  12.171  31.715   6.609
 5650POPC   C3A72125  12.408  31.718   7.006
 5650POPC   C4A72126  12.240  31.538   7.383
 5650POPC   C1B72127  11.921  31.040   6.196
 5650POPC   C2B72128  12.134  31.168   6.542
 5650POPC   C3B72129  12.093  31.288   6.940
 5650POPC   C4B72130  12.085  31.025   7.265
 5651POPC   NC372131  40.676  11.649   5.398
 5651POPC   PO472132  40.537  12.293   5.439
 5651POPC   GL172133  40.701  12.016   5.765
 5651POPC   GL272134  40.450  11.774   5.857
 5651POPC   C1A72135  40.882  11.909   6.200
 5651POPC   D2A72136  40.717  11.891   6.656
 5651POPC   C3A72137  40.960  11.965   7.066
 5651POPC   C4A72138  40.965  11.950   7.527
 5651POPC   C1B72139  40.413  12.105   6.203
 5651POPC   C2B72140  40.264  12.165   6.639
 5651POPC   C3B72141  40.411  12.093   7.096
 5651POPC   C4B72142  40.466  12.066   7.584
 5652POPC   NC372143  26.418   9.900   5.050
 5652POPC   PO472144  26.939   9.621   5.298
 5652POPC   GL172145  26.804   9.635   5.728
 5652POPC   GL272146  26.575   9.935   5.743
 5652POPC   C1A72147  26.734   9.590   6.190
 5652POPC   D2A72148  26.505   9.425   6.560
 5652POPC   C3A72149  26.691   9.604   6.963
 5652POPC   C4A72150  27.053   9.926   6.979
 5652POPC   C1B72151  26.554  10.093   6.172
 5652POPC   C2B72152  26.613   9.946   6.585
 5652POPC   C3B72153  26.612  10.184   6.948
 5652POPC   C4B72154  26.389  10.333   7.279
 5653POPC   NC372155   7.805  30.049   5.416
 5653POPC   PO472156   8.210  29.585   5.347
 5653POPC   GL172157   8.047  29.734   5.739
 5653POPC   GL272158   7.681  29.654   5.766
 5653POPC   C1A72159   8.262  29.983   6.079
 5653POPC   D2A72160   8.377  30.149   6.487
 5653POPC   C3A72161   8.225  30.088   6.896
 5653POPC   C4A72162   8.413  29.905   7.251
 5653POPC   C1B72163   7.904  29.502   6.164
 5653POPC   C2B72164   8.229  29.637   6.468
 5653POPC   C3B72165   8.219  29.569   6.917
 5653POPC   C4B72166   8.078  29.531   7.394
 5654POPC   NC372167  34.028  37.217   5.605
 5654POPC   PO472168  34.054  37.914   5.383
 5654POPC   GL172169  33.872  37.872   5.786
 5654POPC   GL272170  33.682  37.562   5.837
 5654POPC   C1A72171  33.878  37.880   6.232
 5654POPC   D2A72172  33.682  37.698   6.597
 5654POPC   C3A72173  33.919  37.611   6.937
 5654POPC   C4A72174  33.831  37.813   7.321
 5654POPC   C1B72175  33.835  37.355   6.239
 5654POPC   C2B72176  33.684  37.108   6.587
 5654POPC   C3B72177  33.631  37.055   7.020
 5654POPC   C4B72178  33.764  37.312   7.341
 5655POPC   NC372179  35.215   0.426   5.256
 5655POPC   PO472180  35.830   0.612   5.396
 5655POPC   GL172181  35.455   0.447   5.726
 5655POPC   GL272182  35.104   0.421   5.764
 5655POPC   C1A72183  35.346   0.619   6.175
 5655POPC   D2A72184  35.091   0.627   6.565
 5655POPC   C3A72185  35.280   0.692   6.971
 5655POPC   C4A72186  35.445   0.400   7.240
 5655POPC   C1B72187  35.159   0.138   6.151
 5655POPC   C2B72188  34.943   0.091   6.574
 5655POPC   C3B72189  35.008   0.220   7.016
 5655POPC   C4B72190  35.032   0.200   7.496
 5656POPC   NC372191  41.857  34.558   5.436
 5656POPC   PO472192  41.256  34.331   5.275
 5656POPC   GL172193  41.424  34.360   5.689
 5656POPC   GL272194  41.459  34.712   5.757
 5656POPC   C1A72195  41.526  34.292   6.127
 5656POPC   D2A72196  41.590  34.114   6.539
 5656POPC   C3A72197  41.579  34.354   6.976
 5656POPC   C4A72198  41.367  34.425   7.440
 5656POPC   C1B72199  41.672  34.775   6.160
 5656POPC   C2B72200  41.528  34.800   6.596
 5656POPC   C3B72201  41.733  34.838   6.986
 5656POPC   C4B72202  41.603  34.880   7.424
 5657POPC   NC372203  18.966  23.086   5.267
 5657POPC   PO472204  19.234  22.553   5.584
 5657POPC   GL172205  19.046  22.868   5.765
 5657POPC   GL272206  19.256  23.121   5.697
 5657POPC   C1A72207  18.901  23.012   6.169
 5657POPC   D2A72208  18.907  22.850   6.598
 5657POPC   C3A72209  18.750  22.963   7.002
 5657POPC   C4A72210  19.020  22.836   7.361
 5657POPC   C1B72211  19.239  23.375   6.058
 5657POPC   C2B72212  19.243  23.256   6.487
 5657POPC   C3B72213  19.202  23.162   6.898
 5657POPC   C4B72214  19.010  23.346   7.300
 5658POPC   NC372215   3.202  28.216   5.360
 5658POPC   PO472216   3.852  28.066   5.251
 5658POPC   GL172217   3.587  28.121   5.686
 5658POPC   GL272218   3.398  28.470   5.802
 5658POPC   C1A72219   3.625  28.170   6.146
 5658POPC   D2A72220   3.734  27.945   6.540
 5658POPC   C3A72221   3.789  28.189   6.917
 5658POPC   C4A72222   3.485  28.321   7.217
 5658POPC   C1B72223   3.434  28.683   6.274
 5658POPC   C2B72224   3.352  28.710   6.759
 5658POPC   C3B72225   3.211  28.740   7.230
 5658POPC   C4B72226   3.217  28.798   7.721
 5659POPC   NC372227  29.469   9.111   5.485
 5659POPC   PO472228  28.847   8.765   5.412
 5659POPC   GL172229  29.127   8.845   5.745
 5659POPC   GL272230  29.106   9.192   5.850
 5659POPC   C1A72231  29.397   8.840   6.123
 5659POPC   D2A72232  29.421   9.054   6.524
 5659POPC   C3A72233  29.319   8.892   6.930
 5659POPC   C4A72234  29.088   8.818   7.321
 5659POPC   C1B72235  29.068   9.423   6.238
 5659POPC   C2B72236  29.061   9.461   6.675
 5659POPC   C3B72237  29.109   9.347   7.109
 5659POPC   C4B72238  29.005   9.280   7.539
 5660POPC   NC372239   1.180   4.217   5.504
 5660POPC   PO472240   1.477   4.792   5.520
 5660POPC   GL172241   1.308   4.550   5.873
 5660POPC   GL272242   0.975   4.661   5.953
 5660POPC   C1A72243   1.392   4.269   6.258
 5660POPC   D2A72244   1.611   4.309   6.686
 5660POPC   C3A72245   1.308   4.233   6.976
 5660POPC   C4A72246   1.002   3.948   7.111
 5660POPC   C1B72247   1.279   4.772   6.330
 5660POPC   C2B72248   1.339   4.736   6.780
 5660POPC   C3B72249   1.315   4.661   7.223
 5660POPC   C4B72250   1.397   4.571   7.668
 5661POPC   NC372251  42.170  17.253   5.356
 5661POPC   PO472252  42.223  17.866   5.149
 5661POPC   GL172253  42.426  17.742   5.636
 5661POPC   GL272254  42.541  17.406   5.736
 5661POPC   C1A72255  42.404  17.693   6.151
 5661POPC   D2A72256  42.257  17.609   6.627
 5661POPC   C3A72257  42.371  17.739   7.074
 5661POPC   C4A72258  42.260  17.592   7.507
 5661POPC   C1B72259  42.640  17.178   6.154
 5661POPC   C2B72260  42.503  17.144   6.595
 5661POPC   C3B72261  42.344  17.229   7.024
 5661POPC   C4B72262  42.683  17.334   7.281
 5662POPC   NC372263  42.977  41.761   5.258
 5662POPC   PO472264  43.524  41.498   5.454
 5662POPC   GL172265  43.195  41.684   5.760
 5662POPC   GL272266  43.164  41.348   5.921
 5662POPC   C1A72267  42.980  41.711   6.201
 5662POPC   D2A72268  43.019  41.346   6.524
 5662POPC   C3A72269  43.031  41.486   6.980
 5662POPC   C4A72270  43.036  41.455   7.461
 5662POPC   C1B72271  43.442  41.502   6.295
 5662POPC   C2B72272  43.488  41.420   6.765
 5662POPC   C3B72273  43.421  41.193   7.158
 5662POPC   C4B72274  43.363  41.087   7.585
 5663POPC   NC372275   8.170   6.973   5.422
 5663POPC   PO472276   7.888   6.286   5.454
 5663POPC   GL172277   8.041   6.549   5.818
 5663POPC   GL272278   8.275   6.839   5.895
 5663POPC   C1A72279   8.149   6.430   6.252
 5663POPC   D2A72280   8.386   6.457   6.648
 5663POPC   C3A72281   8.121   6.392   7.016
 5663POPC   C4A72282   7.928   6.635   7.335
 5663POPC   C1B72283   8.571   7.056   6.184
 5663POPC   C2B72284   8.694   6.918   6.618
 5663POPC   C3B72285   8.622   7.107   7.033
 5663POPC   C4B72286   8.352   6.945   7.399
 5664POPC   NC372287   8.541  20.532   5.413
 5664POPC   PO472288   9.028  21.011   5.341
 5664POPC   GL172289   9.069  20.782   5.731
 5664POPC   GL272290   9.036  20.427   5.620
 5664POPC   C1A72291   9.229  20.800   6.182
 5664POPC   D2A72292   9.042  20.869   6.585
 5664POPC   C3A72293   9.155  20.762   6.959
 5664POPC   C4A72294   8.783  20.703   7.162
 5664POPC   C1B72295   8.893  20.424   6.064
 5664POPC   C2B72296   9.055  20.387   6.473
 5664POPC   C3B72297   8.950  20.305   6.882
 5664POPC   C4B72298   9.268  20.294   7.121
 5665POPC   NC372299   9.883  41.062   5.350
 5665POPC   PO472300   9.815  40.422   5.141
 5665POPC   GL172301   9.835  40.573   5.616
 5665POPC   GL272302   9.739  40.879   5.811
 5665POPC   C1A72303   9.960  40.522   6.082
 5665POPC   D2A72304   9.801  40.783   6.431
 5665POPC   C3A72305   9.986  40.926   6.821
 5665POPC   C4A72306   9.795  40.971   7.254
 5665POPC   C1B72307   9.429  41.001   6.118
 5665POPC   C2B72308   9.440  41.187   6.535
 5665POPC   C3B72309   9.415  41.146   6.971
 5665POPC   C4B72310   9.307  40.745   7.186
 5666POPC   NC372311  26.531   0.416   5.368
 5666POPC   PO472312  27.099   0.082   5.317
 5666POPC   GL172313  26.908   0.253   5.707
 5666POPC   GL272314  26.844   0.627   5.768
 5666POPC   C1A72315  26.709   0.297   6.117
 5666POPC   D2A72316  26.895   0.304   6.532
 5666POPC   C3A72317  26.748   0.391   6.969
 5666POPC   C4A72318  27.064   0.277   7.304
 5666POPC   C1B72319  26.636   0.808   6.151
 5666POPC   C2B72320  26.731   0.777   6.595
 5666POPC   C3B72321  26.816   0.917   6.999
 5666POPC   C4B72322  26.717   0.819   7.408
 5667POPC   NC372323   7.830  12.805   5.539
 5667POPC   PO472324   7.226  13.165   5.577
 5667POPC   GL172325   7.435  12.908   5.867
 5667POPC   GL272326   7.662  13.154   5.940
 5667POPC   C1A72327   7.559  12.800   6.292
 5667POPC   D2A72328   7.299  12.704   6.617
 5667POPC   C3A72329   7.523  12.604   6.923
 5667POPC   C4A72330   7.651  12.701   7.308
 5667POPC   C1B72331   7.312  13.270   6.231
 5667POPC   C2B72332   7.403  13.213   6.650
 5667POPC   C3B72333   7.436  13.117   7.063
 5667POPC   C4B72334   7.541  13.461   7.299
 5668POPC   NC372335  34.478  42.441   5.226
 5668POPC   PO472336  35.064  42.281   5.568
 5668POPC   GL172337  34.767  42.369   5.885
 5668POPC   GL272338  34.432  42.454   5.747
 5668POPC   C1A72339  34.619  42.298   6.312
 5668POPC   D2A72340  34.475  42.382   6.728
 5668POPC   C3A72341  34.798  42.325   7.033
 5668POPC   C4A72342  34.775  42.249   7.542
 5668POPC   C1B72343  34.325  42.675   6.137
 5668POPC   C2B72344  34.099  42.706   6.552
 5668POPC   C3B72345  34.092  42.630   6.983
 5668POPC   C4B72346  34.397  42.481   7.293
 5669POPC   NC372347   9.869  17.687   5.207
 5669POPC   PO472348   9.730  18.345   5.461
 5669POPC   GL172349   9.866  18.238   5.869
 5669POPC   GL272350   9.545  18.303   5.984
 5669POPC   C1A72351   9.999  18.455   6.268
 5669POPC   D2A72352   9.763  18.469   6.669
 5669POPC   C3A72353   9.829  18.159   6.972
 5669POPC   C4A72354  10.180  18.033   7.219
 5669POPC   C1B72355   9.523  18.690   6.267
 5669POPC   C2B72356   9.305  18.696   6.703
 5669POPC   C3B72357   9.450  18.512   7.099
 5669POPC   C4B72358   9.343  18.638   7.557
 5670POPC   NC372359  28.710   1.804   5.471
 5670POPC   PO472360  28.083   1.884   5.512
 5670POPC   GL172361  28.113   2.027   5.905
 5670POPC   GL272362  28.435   1.992   5.874
 5670POPC   C1A72363  28.245   2.132   6.312
 5670POPC   D2A72364  28.353   2.283   6.656
 5670POPC   C3A72365  28.372   2.015   6.951
 5670POPC   C4A72366  28.078   1.735   7.140
 5670POPC   C1B72367  28.692   1.702   6.124
 5670POPC   C2B72368  28.626   1.769   6.547
 5670POPC   C3B72369  28.526   1.535   6.910
 5670POPC   C4B72370  28.584   1.706   7.285
 5671POPC   NC372371  35.864   7.034   5.487
 5671POPC   PO472372  36.192   7.445   5.113
 5671POPC   GL172373  36.192   7.640   5.595
 5671POPC   GL272374  36.183   7.293   5.796
 5671POPC   C1A72375  36.160   7.670   6.108
 5671POPC   D2A72376  36.239   7.355   6.484
 5671POPC   C3A72377  36.338   7.387   6.902
 5671POPC   C4A72378  36.239   7.692   7.228
 5671POPC   C1B72379  35.871   7.251   6.152
 5671POPC   C2B72380  35.842   7.036   6.521
 5671POPC   C3B72381  35.698   7.192   6.881
 5671POPC   C4B72382  35.935   7.292   7.215
 5672POPC   NC372383  19.404   9.166   5.504
 5672POPC   PO472384  19.994   8.658   5.434
 5672POPC   GL172385  19.877   8.700   5.842
 5672POPC   GL272386  19.551   8.808   5.845
 5672POPC   C1A72387  19.863   9.006   6.192
 5672POPC   D2A72388  19.737   9.276   6.521
 5672POPC   C3A72389  19.935   9.107   6.867
 5672POPC   C4A72390  19.939   9.292   7.236
 5672POPC   C1B72391  19.506   8.626   6.229
 5672POPC   C2B72392  19.571   8.780   6.636
 5672POPC   C3B72393  19.477   8.598   7.004
 5672POPC   C4B72394  19.623   8.746   7.311
 5673POPC   NC372395  39.690  26.229   5.380
 5673POPC   PO472396  40.235  25.838   5.334
 5673POPC   GL172397  39.953  25.862   5.752
 5673POPC   GL272398  39.882  26.212   5.865
 5673POPC   C1A72399  39.858  25.873   6.249
 5673POPC   D2A72400  39.760  25.896   6.726
 5673POPC   C3A72401  40.128  26.003   7.011
 5673POPC   C4A72402  40.465  25.962   7.318
 5673POPC   C1B72403  40.188  26.322   6.216
 5673POPC   C2B72404  40.197  26.448   6.666
 5673POPC   C3B72405  39.838  26.429   6.939
 5673POPC   C4B72406  39.663  26.570   7.325
 5674POPC   NC372407  35.195  25.415   5.354
 5674POPC   PO472408  35.794  25.104   5.354
 5674POPC   GL172409  35.465  25.016   5.693
 5674POPC   GL272410  35.269  25.310   5.833
 5674POPC   C1A72411  35.498  25.042   6.180
 5674POPC   D2A72412  35.550  25.461   6.425
 5674POPC   C3A72413  35.495  25.466   6.888
 5674POPC   C4A72414  35.279  25.392   7.297
 5674POPC   C1B72415  35.051  25.326   6.223
 5674POPC   C2B72416  34.861  25.436   6.600
 5674POPC   C3B72417  34.894  25.548   7.021
 5674POPC   C4B72418  34.773  25.341   7.426
 5675POPC   NC372419  33.234  39.920   5.636
 5675POPC   PO472420  33.212  39.336   5.351
 5675POPC   GL172421  33.186  39.410   5.793
 5675POPC   GL272422  32.870  39.472   5.879
 5675POPC   C1A72423  33.110  39.162   6.189
 5675POPC   D2A72424  32.958  39.201   6.596
 5675POPC   C3A72425  33.211  39.030   6.901
 5675POPC   C4A72426  33.013  39.030   7.265
 5675POPC   C1B72427  32.655  39.458   6.244
 5675POPC   C2B72428  32.702  39.637   6.645
 5675POPC   C3B72429  32.857  39.477   7.050
 5675POPC   C4B72430  32.834  39.452   7.515
 5676POPC   NC372431  18.575  15.975   5.452
 5676POPC   PO472432  18.123  15.490   5.507
 5676POPC   GL172433  18.260  15.767   5.828
 5676POPC   GL272434  18.163  16.129   5.820
 5676POPC   C1A72435  18.422  15.910   6.210
 5676POPC   D2A72436  18.280  16.022   6.629
 5676POPC   C3A72437  18.409  16.055   7.055
 5676POPC   C4A72438  18.543  15.799   7.365
 5676POPC   C1B72439  18.022  16.239   6.226
 5676POPC   C2B72440  17.810  16.211   6.650
 5676POPC   C3B72441  17.901  15.990   7.025
 5676POPC   C4B72442  18.165  15.602   7.080
 5677POPC   NC372443  32.485  43.966   5.438
 5677POPC   PO472444  31.774  43.817   5.471
 5677POPC   GL172445  32.101  43.961   5.797
 5677POPC   GL272446  32.423  43.763   5.899
 5677POPC   C1A72447  32.239  44.144   6.203
 5677POPC   D2A72448  32.363  44.010   6.624
 5677POPC   C3A72449  32.100  44.062   6.966
 5677POPC   C4A72450  32.019  44.024   7.394
 5677POPC   C1B72451  32.108  43.482   6.089
 5677POPC   C2B72452  32.135  43.317   6.496
 5677POPC   C3B72453  32.191  43.566   6.827
 5677POPC   C4B72454  31.997  43.573   7.186
 5678POPC   NC372455   4.533   0.776   5.485
 5678POPC   PO472456   4.180   0.218   5.491
 5678POPC   GL172457   4.103   0.279   5.885
 5678POPC   GL272458   4.103   0.654   5.796
 5678POPC   C1A72459   4.363   0.114   6.241
 5678POPC   D2A72460   4.649   0.322   6.533
 5678POPC   C3A72461   4.551   0.329   6.961
 5678POPC   C4A72462   4.612   0.592   7.283
 5678POPC   C1B72463   4.331   0.628   6.179
 5678POPC   C2B72464   4.173   0.490   6.569
 5678POPC   C3B72465   4.239   0.730   6.905
 5678POPC   C4B72466   4.071   0.667   7.250
 5679POPC   NC372467   7.756   5.827   5.456
 5679POPC   PO472468   7.189   6.127   5.524
 5679POPC   GL172469   7.481   6.068   5.844
 5679POPC   GL272470   7.475   5.677   5.851
 5679POPC   C1A72471   7.377   6.260   6.257
 5679POPC   D2A72472   7.288   6.026   6.642
 5679POPC   C3A72473   7.572   6.121   6.970
 5679POPC   C4A72474   7.370   6.162   7.339
 5679POPC   C1B72475   7.533   5.774   6.271
 5679POPC   C2B72476   7.743   5.592   6.603
 5679POPC   C3B72477   7.593   5.470   6.940
 5679POPC   C4B72478   7.269   5.713   7.064
 5680POPC   NC372479   5.128   4.182   5.395
 5680POPC   PO472480   4.968   4.747   5.665
 5680POPC   GL172481   4.945   4.395   5.948
 5680POPC   GL272482   4.828   4.103   5.799
 5680POPC   C1A72483   5.019   4.327   6.402
 5680POPC   D2A72484   5.409   4.340   6.655
 5680POPC   C3A72485   5.274   4.514   7.037
 5680POPC   C4A72486   4.937   4.479   7.340
 5680POPC   C1B72487   4.920   3.877   6.163
 5680POPC   C2B72488   4.787   3.880   6.569
 5680POPC   C3B72489   4.984   4.087   6.927
 5680POPC   C4B72490   5.010   3.961   7.360
 5681POPC   NC372491  27.534   5.133   5.261
 5681POPC   PO472492  27.762   4.529   5.427
 5681POPC   GL172493  27.612   4.856   5.752
 5681POPC   GL272494  27.442   5.174   5.777
 5681POPC   C1A72495  27.367   4.792   6.158
 5681POPC   D2A72496  27.443   4.563   6.564
 5681POPC   C3A72497  27.390   4.792   6.974
 5681POPC   C4A72498  27.307   4.804   7.424
 5681POPC   C1B72499  27.633   5.235   6.170
 5681POPC   C2B72500  27.667   5.050   6.584
 5681POPC   C3B72501  27.682   5.233   6.995
 5681POPC   C4B72502  27.801   5.324   7.410
 5682POPC   NC372503  21.173  32.472   5.357
 5682POPC   PO472504  21.046  31.768   5.441
 5682POPC   GL172505  21.218  32.082   5.762
 5682POPC   GL272506  21.252  32.465   5.846
 5682POPC   C1A72507  21.051  32.093   6.169
 5682POPC   D2A72508  21.225  32.094   6.556
 5682POPC   C3A72509  21.249  31.866   6.914
 5682POPC   C4A72510  21.328  32.040   7.310
 5682POPC   C1B72511  21.507  32.305   6.163
 5682POPC   C2B72512  21.589  32.442   6.550
 5682POPC   C3B72513  21.543  32.312   6.940
 5682POPC   C4B72514  21.806  32.365   7.282
 5683POPC   NC372515  32.932  44.985   5.328
 5683POPC   PO472516  33.368   0.462   5.309
 5683POPC   GL172517  33.062   0.517   5.636
 5683POPC   GL272518  32.999   0.216   5.799
 5683POPC   C1A72519  33.007   0.706   6.049
 5683POPC   D2A72520  33.032   0.674   6.525
 5683POPC   C3A72521  32.872   0.644   6.976
 5683POPC   C4A72522  33.007   0.483   7.406
 5683POPC   C1B72523  32.772   0.272   6.208
 5683POPC   C2B72524  32.679   0.026   6.604
 5683POPC   C3B72525  32.774   0.108   7.082
 5683POPC   C4B72526  32.736   0.078   7.581
 5684POPC   NC372527   9.779  38.879   5.466
 5684POPC   PO472528   9.833  39.542   5.451
 5684POPC   GL172529   9.601  39.288   5.783
 5684POPC   GL272530   9.854  39.074   5.924
 5684POPC   C1A72531   9.446  39.146   6.228
 5684POPC   D2A72532   9.517  39.443   6.585
 5684POPC   C3A72533   9.496  39.295   7.025
 5684POPC   C4A72534   9.800  39.081   7.300
 5684POPC   C1B72535   9.942  39.174   6.336
 5684POPC   C2B72536   9.895  39.130   6.760
 5684POPC   C3B72537  10.206  39.016   7.001
 5684POPC   C4B72538  10.381  39.282   7.238
 5685POPC   NC372539  15.115   0.340   5.507
 5685POPC   PO472540  14.969   0.926   5.736
 5685POPC   GL172541  15.076   0.595   5.972
 5685POPC   GL272542  15.382   0.444   5.920
 5685POPC   C1A72543  15.074   0.488   6.375
 5685POPC   D2A72544  14.927   0.256   6.674
 5685POPC   C3A72545  15.014   0.531   6.993
 5685POPC   C4A72546  15.330   0.479   7.297
 5685POPC   C1B72547  15.563   0.394   6.325
 5685POPC   C2B72548  15.442   0.286   6.763
 5685POPC   C3B72549  15.574   0.025   7.101
 5685POPC   C4B72550  15.745   0.237   7.450
 5686POPC   NC372551  27.134  16.638   5.526
 5686POPC   PO472552  26.586  16.925   5.518
 5686POPC   GL172553  26.738  16.738   5.880
 5686POPC   GL272554  27.079  16.785   6.002
 5686POPC   C1A72555  26.633  16.724   6.302
 5686POPC   D2A72556  26.916  16.937   6.554
 5686POPC   C3A72557  26.844  16.916   6.979
 5686POPC   C4A72558  27.047  17.039   7.331
 5686POPC   C1B72559  27.079  16.472   6.316
 5686POPC   C2B72560  26.864  16.415   6.713
 5686POPC   C3B72561  26.851  16.440   7.166
 5686POPC   C4B72562  26.474  16.355   7.323
 5687POPC   NC372563  39.559  34.158   5.675
 5687POPC   PO472564  40.070  33.746   5.180
 5687POPC   GL172565  40.026  33.592   5.729
 5687POPC   GL272566  39.675  33.647   5.787
 5687POPC   C1A72567  40.054  33.772   6.164
 5687POPC   D2A72568  39.865  34.075   6.432
 5687POPC   C3A72569  40.002  34.045   6.874
 5687POPC   C4A72570  39.710  34.052   7.228
 5687POPC   C1B72571  39.582  33.610   6.214
 5687POPC   C2B72572  39.794  33.608   6.631
 5687POPC   C3B72573  39.961  33.560   7.052
 5687POPC   C4B72574  40.215  33.387   7.408
 5688POPC   NC372575  44.047  35.455   5.561
 5688POPC   PO472576  44.584  35.296   5.352
 5688POPC   GL172577  44.479  35.378   5.831
 5688POPC   GL272578  44.172  35.201   5.984
 5688POPC   C1A72579  44.473  35.478   6.288
 5688POPC   D2A72580  44.331  35.486   6.723
 5688POPC   C3A72581  44.665  35.421   7.036
 5688POPC   C4A72582  44.999  35.581   7.327
 5688POPC   C1B72583  44.221  35.046   6.428
 5688POPC   C2B72584  44.505  34.995   6.773
 5688POPC   C3B72585  44.750  34.880   7.126
 5688POPC   C4B72586  44.676  34.620   7.492
 5689POPC   NC372587   9.119  17.105   5.305
 5689POPC   PO472588   8.853  16.519   5.255
 5689POPC   GL172589   8.895  16.463   5.757
 5689POPC   GL272590   8.583  16.343   5.859
 5689POPC   C1A72591   9.116  16.586   6.206
 5689POPC   D2A72592   9.415  16.572   6.591
 5689POPC   C3A72593   9.162  16.560   6.990
 5689POPC   C4A72594   9.027  16.782   7.350
 5689POPC   C1B72595   8.599  16.535   6.246
 5689POPC   C2B72596   8.786  16.548   6.642
 5689POPC   C3B72597   8.643  16.547   7.068
 5689POPC   C4B72598   8.534  16.676   7.471
 5690POPC   NC372599  20.498   5.939   5.412
 5690POPC   PO472600  21.083   5.567   5.373
 5690POPC   GL172601  20.857   5.770   5.728
 5690POPC   GL272602  20.588   5.566   5.794
 5690POPC   C1A72603  20.701   5.957   6.141
 5690POPC   D2A72604  20.684   5.765   6.557
 5690POPC   C3A72605  20.570   5.935   6.963
 5690POPC   C4A72606  20.841   6.097   7.258
 5690POPC   C1B72607  20.405   5.522   6.180
 5690POPC   C2B72608  20.285   5.472   6.612
 5690POPC   C3B72609  20.437   5.429   7.065
 5690POPC   C4B72610  20.431   5.259   7.508
 5691POPC   NC372611  18.703  25.922   5.260
 5691POPC   PO472612  18.118  25.770   5.478
 5691POPC   GL172613  18.414  25.925   5.776
 5691POPC   GL272614  18.742  25.806   5.782
 5691POPC   C1A72615  18.397  26.091   6.199
 5691POPC   D2A72616  18.084  26.068   6.489
 5691POPC   C3A72617  18.168  25.911   6.886
 5691POPC   C4A72618  18.205  26.152   7.245
 5691POPC   C1B72619  18.571  25.625   6.192
 5691POPC   C2B72620  18.613  25.799   6.620
 5691POPC   C3B72621  18.599  25.710   7.070
 5691POPC   C4B72622  18.562  25.862   7.503
 5692POPC   NC372623  15.206  31.567   5.440
 5692POPC   PO472624  14.868  31.139   5.834
 5692POPC   GL172625  15.217  31.458   5.918
 5692POPC   GL272626  15.083  31.778   5.998
 5692POPC   C1A72627  15.550  31.710   6.175
 5692POPC   D2A72628  15.574  31.944   6.570
 5692POPC   C3A72629  15.379  31.605   6.842
 5692POPC   C4A72630  15.432  31.608   7.263
 5692POPC   C1B72631  15.063  31.502   6.394
 5692POPC   C2B72632  14.893  31.394   6.811
 5692POPC   C3B72633  14.919  31.667   7.159
 5692POPC   C4B72634  15.068  31.795   7.569
 5693POPC   NC372635  29.533   1.143   5.538
 5693POPC   PO472636  28.965   1.445   5.316
 5693POPC   GL172637  28.877   1.396   5.737
 5693POPC   GL272638  29.198   1.418   5.820
 5693POPC   C1A72639  28.885   1.088   6.081
 5693POPC   D2A72640  29.092   0.965   6.500
 5693POPC   C3A72641  29.065   1.282   6.797
 5693POPC   C4A72642  28.877   1.307   7.195
 5693POPC   C1B72643  29.355   1.297   6.206
 5693POPC   C2B72644  29.569   1.144   6.574
 5693POPC   C3B72645  29.449   0.939   6.926
 5693POPC   C4B72646  29.338   1.128   7.241
 5694POPC   NC372647  32.316   1.593   5.481
 5694POPC   PO472648  32.530   1.004   5.377
 5694POPC   GL172649  32.362   1.040   5.781
 5694POPC   GL272650  32.026   1.165   5.752
 5694POPC   C1A72651  32.342   1.278   6.175
 5694POPC   D2A72652  32.433   1.557   6.517
 5694POPC   C3A72653  32.296   1.347   6.899
 5694POPC   C4A72654  32.480   0.976   7.075
 5694POPC   C1B72655  32.007   0.889   6.140
 5694POPC   C2B72656  32.168   0.945   6.589
 5694POPC   C3B72657  31.933   1.008   7.007
 5694POPC   C4B72658  31.880   1.241   7.421
 5695POPC   NC372659   6.339   9.854   5.618
 5695POPC   PO472660   6.934   9.592   5.526
 5695POPC   GL172661   6.757   9.710   5.886
 5695POPC   GL272662   6.511   9.456   5.866
 5695POPC   C1A72663   6.734  10.024   6.235
 5695POPC   D2A72664   6.844  10.228   6.623
 5695POPC   C3A72665   6.553  10.118   6.944
 5695POPC   C4A72666   6.615  10.007   7.399
 5695POPC   C1B72667   6.427   9.611   6.271
 5695POPC   C2B72668   6.471   9.690   6.666
 5695POPC   C3B72669   6.558   9.609   7.077
 5695POPC   C4B72670   6.257   9.593   7.399
 5696POPC   NC372671  35.717  34.995   5.521
 5696POPC   PO472672  36.177  35.517   5.448
 5696POPC   GL172673  36.298  35.341   5.815
 5696POPC   GL272674  35.973  35.253   5.873
 5696POPC   C1A72675  36.360  35.092   6.160
 5696POPC   D2A72676  36.181  35.016   6.538
 5696POPC   C3A72677  36.367  35.123   6.915
 5696POPC   C4A72678  36.203  35.361   7.272
 5696POPC   C1B72679  35.755  35.150   6.230
 5696POPC   C2B72680  35.681  35.136   6.650
 5696POPC   C3B72681  35.828  35.125   7.040
 5696POPC   C4B72682  35.667  35.100   7.491
 5697POPC   NC372683  41.870  22.293   5.501
 5697POPC   PO472684  41.525  22.899   5.216
 5697POPC   GL172685  41.641  22.977   5.642
 5697POPC   GL272686  41.325  23.052   5.822
 5697POPC   C1A72687  41.729  22.947   6.094
 5697POPC   D2A72688  41.510  22.948   6.488
 5697POPC   C3A72689  41.659  22.799   6.860
 5697POPC   C4A72690  41.390  22.672   7.188
 5697POPC   C1B72691  41.439  23.354   6.189
 5697POPC   C2B72692  41.351  23.415   6.622
 5697POPC   C3B72693  41.310  23.155   6.968
 5697POPC   C4B72694  41.532  23.225   7.339
 5698POPC   NC372695  16.386  43.319   5.344
 5698POPC   PO472696  16.815  42.757   5.400
 5698POPC   GL172697  16.697  42.808   5.809
 5698POPC   GL272698  16.408  42.946   5.721
 5698POPC   C1A72699  16.784  42.846   6.253
 5698POPC   D2A72700  17.013  43.062   6.560
 5698POPC   C3A72701  16.807  43.005   6.933
 5698POPC   C4A72702  16.434  42.868   7.121
 5698POPC   C1B72703  16.545  43.237   6.053
 5698POPC   C2B72704  16.488  43.220   6.525
 5698POPC   C3B72705  16.460  43.376   6.981
 5698POPC   C4B72706  16.185  43.320   7.329
 5699POPC   NC372707  13.915  11.419   5.654
 5699POPC   PO472708  13.513  11.266   5.103
 5699POPC   GL172709  13.360  11.370   5.707
 5699POPC   GL272710  13.410  11.606   5.941
 5699POPC   C1A72711  13.353  11.166   6.158
 5699POPC   D2A72712  13.492  11.390   6.568
 5699POPC   C3A72713  13.771  11.174   6.856
 5699POPC   C4A72714  14.089  11.350   7.168
 5699POPC   C1B72715  13.647  11.803   6.255
 5699POPC   C2B72716  13.742  11.938   6.647
 5699POPC   C3B72717  13.694  11.656   6.983
 5699POPC   C4B72718  13.359  11.365   7.126
 5700POPC   NC372719   9.297  37.443   5.357
 5700POPC   PO472720   8.819  37.956   5.237
 5700POPC   GL172721   8.893  37.850   5.713
 5700POPC   GL272722   8.657  37.581   5.822
 5700POPC   C1A72723   8.859  38.032   6.179
 5700POPC   D2A72724   8.786  38.186   6.651
 5700POPC   C3A72725   8.985  37.916   6.951
 5700POPC   C4A72726   9.225  37.580   7.177
 5700POPC   C1B72727   9.017  37.522   6.119
 5700POPC   C2B72728   9.084  37.522   6.576
 5700POPC   C3B72729   8.808  37.444   6.914
 5700POPC   C4B72730   8.798  37.238   7.290
 5701POPC   NC372731  26.932   7.434   5.339
 5701POPC   PO472732  26.400   7.036   5.458
 5701POPC   GL172733  26.567   7.281   5.817
 5701POPC   GL272734  26.809   7.570   5.826
 5701POPC   C1A72735  26.556   7.335   6.269
 5701POPC   D2A72736  26.755   7.077   6.582
 5701POPC   C3A72737  26.802   7.283   6.954
 5701POPC   C4A72738  26.807   7.372   7.358
 5701POPC   C1B72739  26.967   7.674   6.262
 5701POPC   C2B72740  26.747   7.718   6.680
 5701POPC   C3B72741  26.953   7.769   7.080
 5701POPC   C4B72742  27.120   7.760   7.513
 5702POPC   NC372743  37.197  34.355   5.386
 5702POPC   PO472744  36.557  34.665   5.267
 5702POPC   GL172745  36.689  34.769   5.720
 5702POPC   GL272746  36.932  34.509   5.814
 5702POPC   C1A72747  36.586  34.620   6.173
 5702POPC   D2A72748  36.767  34.465   6.596
 5702POPC   C3A72749  36.756  34.709   7.010
 5702POPC   C4A72750  36.841  34.490   7.428
 5702POPC   C1B72751  37.121  34.611   6.223
 5702POPC   C2B72752  37.312  34.427   6.602
 5702POPC   C3B72753  37.122  34.339   6.997
 5702POPC   C4B72754  37.295  34.230   7.419
 5703POPC   NC372755   9.228  27.949   5.523
 5703POPC   PO472756   8.984  27.283   5.437
 5703POPC   GL172757   8.691  27.357   5.805
 5703POPC   GL272758   8.848  27.667   5.792
 5703POPC   C1A72759   8.624  27.399   6.217
 5703POPC   D2A72760   8.933  27.479   6.512
 5703POPC   C3A72761   8.924  27.372   6.945
 5703POPC   C4A72762   9.181  27.431   7.312
 5703POPC   C1B72763   8.900  27.859   6.161
 5703POPC   C2B72764   8.934  27.998   6.565
 5703POPC   C3B72765   8.800  28.112   6.948
 5703POPC   C4B72766   8.998  27.922   7.273
 5704POPC   NC372767  28.447  42.499   5.366
 5704POPC   PO472768  28.731  41.866   5.463
 5704POPC   GL172769  28.405  42.118   5.762
 5704POPC   GL272770  28.335  42.498   5.859
 5704POPC   C1A72771  28.198  42.063   6.174
 5704POPC   D2A72772  28.422  41.946   6.567
 5704POPC   C3A72773  28.376  42.101   6.994
 5704POPC   C4A72774  28.707  42.195   7.340
 5704POPC   C1B72775  28.533  42.438   6.273
 5704POPC   C2B72776  28.647  42.439   6.704
 5704POPC   C3B72777  28.459  42.583   7.088
 5704POPC   C4B72778  28.168  42.792   7.260
 5705POPC   NC372779  32.298  12.317   5.085
 5705POPC   PO472780  32.342  12.132   5.691
 5705POPC   GL172781  32.097  11.933   5.952
 5705POPC   GL272782  31.877  11.766   5.785
 5705POPC   C1A72783  32.056  12.069   6.354
 5705POPC   D2A72784  32.159  12.389   6.627
 5705POPC   C3A72785  32.246  12.152   7.002
 5705POPC   C4A72786  32.721  12.124   7.070
 5705POPC   C1B72787  31.705  11.690   6.212
 5705POPC   C2B72788  31.804  11.725   6.635
 5705POPC   C3B72789  31.763  11.844   7.065
 5705POPC   C4B72790  31.972  11.783   7.427
 5706POPC   NC372791   8.918  17.660   5.084
 5706POPC   PO472792   9.310  17.431   5.576
 5706POPC   GL172793   9.070  17.490   5.956
 5706POPC   GL272794   8.728  17.651   5.864
 5706POPC   C1A72795   9.101  17.200   6.315
 5706POPC   D2A72796   9.102  16.957   6.690
 5706POPC   C3A72797   9.107  17.229   7.072
 5706POPC   C4A72798   9.165  17.687   7.200
 5706POPC   C1B72799   8.651  17.449   6.280
 5706POPC   C2B72800   8.723  17.268   6.705
 5706POPC   C3B72801   8.679  17.504   7.121
 5706POPC   C4B72802   8.404  17.627   7.450
 5707POPC   NC372803  43.738  16.085   5.257
 5707POPC   PO472804  43.581  15.471   5.483
 5707POPC   GL172805  43.796  15.766   5.799
 5707POPC   GL272806  43.859  16.152   5.766
 5707POPC   C1A72807  43.938  15.859   6.236
 5707POPC   D2A72808  44.115  15.838   6.684
 5707POPC   C3A72809  43.907  15.856   7.095
 5707POPC   C4A72810  43.604  15.571   7.179
 5707POPC   C1B72811  43.862  16.377   6.183
 5707POPC   C2B72812  43.813  16.251   6.611
 5707POPC   C3B72813  44.015  16.342   6.995
 5707POPC   C4B72814  43.910  16.393   7.470
 5708POPC   NC372815   7.899   1.836   5.635
 5708POPC   PO472816   8.484   1.576   5.563
 5708POPC   GL172817   8.328   1.919   5.898
 5708POPC   GL272818   8.386   2.289   5.763
 5708POPC   C1A72819   8.165   1.861   6.387
 5708POPC   D2A72820   8.134   1.651   6.852
 5708POPC   C3A72821   7.888   1.896   7.122
 5708POPC   C4A72822   7.783   2.245   6.814
 5708POPC   C1B72823   8.457   2.302   6.218
 5708POPC   C2B72824   8.512   2.151   6.638
 5708POPC   C3B72825   8.284   2.193   7.007
 5708POPC   C4B72826   8.347   2.023   7.416
 5709POPC   NC372827   4.224  38.139   5.539
 5709POPC   PO472828   4.316  38.590   5.011
 5709POPC   GL172829   4.567  38.606   5.509
 5709POPC   GL272830   4.672  38.317   5.684
 5709POPC   C1A72831   4.458  38.602   6.047
 5709POPC   D2A72832   4.088  38.394   6.286
 5709POPC   C3A72833   4.082  38.335   6.738
 5709POPC   C4A72834   4.138  38.231   7.179
 5709POPC   C1B72835   4.638  38.143   6.145
 5709POPC   C2B72836   4.605  38.318   6.581
 5709POPC   C3B72837   4.671  38.219   7.028
 5709POPC   C4B72838   4.754  37.907   7.365
 5710POPC   NC372839  41.763  13.110   5.401
 5710POPC   PO472840  42.451  13.009   5.429
 5710POPC   GL172841  42.426  12.798   5.831
 5710POPC   GL272842  42.073  12.876   5.790
 5710POPC   C1A72843  42.612  12.693   6.239
 5710POPC   D2A72844  42.702  12.759   6.698
 5710POPC   C3A72845  42.532  12.425   7.012
 5710POPC   C4A72846  42.371  12.654   7.407
 5710POPC   C1B72847  42.061  12.747   6.204
 5710POPC   C2B72848  42.230  12.606   6.584
 5710POPC   C3B72849  42.216  12.809   6.938
 5710POPC   C4B72850  41.931  12.608   7.169
 5711POPC   NC372851  36.072  28.572   5.349
 5711POPC   PO472852  36.549  28.724   5.733
 5711POPC   GL172853  36.123  28.671   5.839
 5711POPC   GL272854  36.034  28.312   5.806
 5711POPC   C1A72855  35.935  28.616   6.200
 5711POPC   D2A72856  36.183  28.510   6.519
 5711POPC   C3A72857  35.967  28.613   6.862
 5711POPC   C4A72858  35.880  28.513   7.247
 5711POPC   C1B72859  36.033  28.086   6.212
 5711POPC   C2B72860  36.154  28.021   6.636
 5711POPC   C3B72861  36.245  28.147   7.036
 5711POPC   C4B72862  36.225  28.106   7.491
 5712POPC   NC372863  24.046  31.755   5.533
 5712POPC   PO472864  23.361  31.854   5.441
 5712POPC   GL172865  23.596  32.092   5.776
 5712POPC   GL272866  23.505  32.436   5.844
 5712POPC   C1A72867  23.854  32.246   6.152
 5712POPC   D2A72868  23.782  32.529   6.496
 5712POPC   C3A72869  23.846  32.338   6.880
 5712POPC   C4A72870  23.808  32.458   7.298
 5712POPC   C1B72871  23.344  32.307   6.240
 5712POPC   C2B72872  23.455  32.093   6.620
 5712POPC   C3B72873  23.426  32.133   7.066
 5712POPC   C4B72874  23.507  32.088   7.512
 5713POPC   NC372875  14.185  34.646   5.412
 5713POPC   PO472876  14.796  34.610   5.313
 5713POPC   GL172877  14.744  34.539   5.775
 5713POPC   GL272878  14.361  34.550   5.883
 5713POPC   C1A72879  14.709  34.367   6.207
 5713POPC   D2A72880  14.325  34.397   6.460
 5713POPC   C3A72881  14.433  34.251   6.879
 5713POPC   C4A72882  14.346  34.392   7.283
 5713POPC   C1B72883  14.051  34.806   6.133
 5713POPC   C2B72884  13.834  34.699   6.523
 5713POPC   C3B72885  14.022  34.569   6.895
 5713POPC   C4B72886  14.089  34.856   7.242
 5714POPC   NC372887  42.575  19.173   5.568
 5714POPC   PO472888  41.927  19.299   5.542
 5714POPC   GL172889  42.157  19.121   5.870
 5714POPC   GL272890  42.332  18.799   5.816
 5714POPC   C1A72891  42.390  19.236   6.237
 5714POPC   D2A72892  42.592  19.164   6.644
 5714POPC   C3A72893  42.314  19.053   6.991
 5714POPC   C4A72894  42.236  19.308   7.343
 5714POPC   C1B72895  42.337  18.704   6.250
 5714POPC   C2B72896  42.434  18.576   6.666
 5714POPC   C3B72897  42.709  18.735   6.993
 5714POPC   C4B72898  42.665  18.956   7.394
 5715POPC   NC372899  40.909  19.145   5.548
 5715POPC   PO472900  40.554  18.603   5.315
 5715POPC   GL172901  40.594  18.815   5.784
 5715POPC   GL272902  40.480  19.118   5.919
 5715POPC   C1A72903  40.919  19.008   6.177
 5715POPC   D2A72904  41.154  18.951   6.589
 5715POPC   C3A72905  40.963  19.210   6.930
 5715POPC   C4A72906  40.693  19.391   7.244
 5715POPC   C1B72907  40.512  18.745   6.281
 5715POPC   C2B72908  40.670  18.805   6.741
 5715POPC   C3B72909  40.704  18.855   7.217
 5715POPC   C4B72910  40.601  18.786   7.701
 5716POPC   NC372911  37.797   4.063   5.562
 5716POPC   PO472912  37.783   3.362   5.527
 5716POPC   GL172913  37.525   3.641   5.777
 5716POPC   GL272914  37.707   3.889   6.010
 5716POPC   C1A72915  37.329   3.596   6.192
 5716POPC   D2A72916  37.259   3.727   6.623
 5716POPC   C3A72917  37.294   3.467   6.987
 5716POPC   C4A72918  37.422   3.690   7.352
 5716POPC   C1B72919  37.813   3.503   6.217
 5716POPC   C2B72920  37.678   3.431   6.633
 5716POPC   C3B72921  37.839   3.547   7.017
 5716POPC   C4B72922  37.979   3.495   7.430
 5717POPC   NC372923   0.817  12.778   5.536
 5717POPC   PO472924   0.220  13.001   5.439
 5717POPC   GL172925   0.455  13.008   5.835
 5717POPC   GL272926   0.704  13.241   5.897
 5717POPC   C1A72927   0.426  12.727   6.196
 5717POPC   D2A72928   0.556  12.574   6.605
 5717POPC   C3A72929   0.259  12.675   6.928
 5717POPC   C4A72930   0.212  12.858   7.329
 5717POPC   C1B72931   0.745  13.108   6.325
 5717POPC   C2B72932   0.898  12.943   6.720
 5717POPC   C3B72933   0.686  12.925   7.098
 5717POPC   C4B72934   0.647  13.079   7.502
 5718POPC   NC372935  14.671  30.078   5.303
 5718POPC   PO472936  14.457  29.554   5.029
 5718POPC   GL172937  14.357  29.692   5.561
 5718POPC   GL272938  14.164  29.976   5.744
 5718POPC   C1A72939  14.414  29.738   6.093
 5718POPC   D2A72940  14.562  29.764   6.563
 5718POPC   C3A72941  14.416  29.938   6.939
 5718POPC   C4A72942  14.419  29.825   7.347
 5718POPC   C1B72943  14.204  30.235   6.137
 5718POPC   C2B72944  14.380  30.287   6.549
 5718POPC   C3B72945  14.236  30.413   6.950
 5718POPC   C4B72946  14.196  30.315   7.367
 5719POPC   NC372947   8.058  23.154   5.321
 5719POPC   PO472948   8.229  22.533   5.133
 5719POPC   GL172949   8.161  22.737   5.599
 5719POPC   GL272950   8.391  23.081   5.690
 5719POPC   C1A72951   8.114  22.875   6.049
 5719POPC   D2A72952   8.069  23.123   6.427
 5719POPC   C3A72953   8.217  22.939   6.826
 5719POPC   C4A72954   7.998  22.789   7.205
 5719POPC   C1B72955   8.508  23.265   6.110
 5719POPC   C2B72956   8.402  23.494   6.510
 5719POPC   C3B72957   8.506  23.350   6.925
 5719POPC   C4B72958   8.305  23.182   7.288
 5720POPC   NC372959   1.655  26.270   5.539
 5720POPC   PO472960   0.965  26.379   5.645
 5720POPC   GL172961   1.352  26.527   5.850
 5720POPC   GL272962   1.468  26.893   5.859
 5720POPC   C1A72963   1.417  26.560   6.264
 5720POPC   D2A72964   1.181  26.741   6.572
 5720POPC   C3A72965   1.125  26.553   6.940
 5720POPC   C4A72966   1.407  26.616   7.246
 5720POPC   C1B72967   1.497  27.083   6.282
 5720POPC   C2B72968   1.210  27.239   6.595
 5720POPC   C3B72969   1.158  27.076   6.999
 5720POPC   C4B72970   1.288  27.081   7.401
 5721POPC   NC372971  24.430   1.278   5.313
 5721POPC   PO472972  24.777   0.779   5.479
 5721POPC   GL172973  24.645   1.094   5.788
 5721POPC   GL272974  24.543   1.436   5.789
 5721POPC   C1A72975  24.711   1.075   6.228
 5721POPC   D2A72976  24.690   0.733   6.535
 5721POPC   C3A72977  24.485   0.889   6.911
 5721POPC   C4A72978  24.548   0.957   7.328
 5721POPC   C1B72979  24.668   1.603   6.218
 5721POPC   C2B72980  24.805   1.475   6.663
 5721POPC   C3B72981  24.605   1.402   7.063
 5721POPC   C4B72982  24.298   1.425   7.438
 5722POPC   NC372983  16.928   3.337   5.392
 5722POPC   PO472984  16.546   2.803   5.344
 5722POPC   GL172985  16.717   2.838   5.721
 5722POPC   GL272986  16.642   2.472   5.741
 5722POPC   C1A72987  16.720   3.137   6.072
 5722POPC   D2A72988  16.684   2.988   6.504
 5722POPC   C3A72989  16.842   2.724   6.809
 5722POPC   C4A72990  16.871   2.949   7.178
 5722POPC   C1B72991  16.401   2.241   6.033
 5722POPC   C2B72992  16.564   2.329   6.440
 5722POPC   C3B72993  16.455   2.347   6.854
 5722POPC   C4B72994  16.641   2.481   7.230
 5723POPC   NC372995  26.718  41.957   4.988
 5723POPC   PO472996  26.682  41.378   5.323
 5723POPC   GL172997  26.657  41.406   5.795
 5723POPC   GL272998  26.489  41.714   5.803
 5723POPC   C1A72999  26.824  41.614   6.207
 5723POPC   D2A73000  27.045  41.580   6.631
 5723POPC   C3A73001  27.022  41.811   7.010
 5723POPC   C4A73002  27.016  41.505   7.352
 5723POPC   C1B73003  26.422  41.945   6.183
 5723POPC   C2B73004  26.592  41.903   6.597
 5723POPC   C3B73005  26.576  41.605   6.925
 5723POPC   C4B73006  26.582  41.752   7.348
 5724POPC   NC373007  37.495   9.591   5.375
 5724POPC   PO473008  37.949  10.089   5.492
 5724POPC   GL173009  37.668   9.856   5.771
 5724POPC   GL273010  37.880   9.540   5.715
 5724POPC   C1A73011  37.520   9.731   6.193
 5724POPC   D2A73012  37.796   9.834   6.538
 5724POPC   C3A73013  37.674   9.847   6.963
 5724POPC   C4A73014  37.810   9.754   7.383
 5724POPC   C1B73015  37.933   9.456   6.151
 5724POPC   C2B73016  37.808   9.294   6.574
 5724POPC   C3B73017  37.856   9.377   7.023
 5724POPC   C4B73018  37.922   9.254   7.476
 5725POPC   NC373019  22.560  17.806   5.443
 5725POPC   PO473020  23.220  17.564   5.417
 5725POPC   GL173021  22.964  17.421   5.804
 5725POPC   GL273022  22.715  17.646   5.903
 5725POPC   C1A73023  22.785  17.204   6.192
 5725POPC   D2A73024  22.863  17.025   6.620
 5725POPC   C3A73025  22.946  17.221   7.031
 5725POPC   C4A73026  23.238  17.381   7.305
 5725POPC   C1B73027  23.007  17.654   6.257
 5725POPC   C2B73028  22.869  17.586   6.659
 5725POPC   C3B73029  23.001  17.745   7.033
 5725POPC   C4B73030  23.192  18.143   7.026
 5726POPC   NC373031   9.091  12.950   5.164
 5726POPC   PO473032   8.673  12.579   5.529
 5726POPC   GL173033   8.981  12.819   5.751
 5726POPC   GL273034   9.323  12.885   5.789
 5726POPC   C1A73035   8.989  12.912   6.207
 5726POPC   D2A73036   9.135  12.993   6.627
 5726POPC   C3A73037   8.803  12.960   6.918
 5726POPC   C4A73038   8.669  12.766   7.291
 5726POPC   C1B73039   9.298  12.532   6.124
 5726POPC   C2B73040   9.091  12.454   6.524
 5726POPC   C3B73041   9.067  12.496   6.973
 5726POPC   C4B73042   9.351  12.376   7.313
 5727POPC   NC373043  24.839  29.406   5.568
 5727POPC   PO473044  24.293  29.005   5.430
 5727POPC   GL173045  24.393  28.905   5.842
 5727POPC   GL273046  24.782  28.926   5.832
 5727POPC   C1A73047  24.512  28.884   6.278
 5727POPC   D2A73048  24.637  29.005   6.695
 5727POPC   C3A73049  24.453  28.972   7.102
 5727POPC   C4A73050  24.299  29.367   7.098
 5727POPC   C1B73051  24.989  29.124   6.233
 5727POPC   C2B73052  25.057  29.273   6.678
 5727POPC   C3B73053  24.824  29.349   7.080
 5727POPC   C4B73054  24.795  29.102   7.488
 5728POPC   NC373055  15.426  17.948   5.276
 5728POPC   PO473056  15.964  17.553   5.432
 5728POPC   GL173057  15.931  17.412   5.832
 5728POPC   GL273058  16.168  17.643   5.963
 5728POPC   C1A73059  15.798  17.262   6.234
 5728POPC   D2A73060  15.961  17.140   6.616
 5728POPC   C3A73061  15.780  17.275   6.949
 5728POPC   C4A73062  15.814  17.615   7.256
 5728POPC   C1B73063  15.853  17.768   6.292
 5728POPC   C2B73064  15.856  17.750   6.744
 5728POPC   C3B73065  16.057  18.012   7.063
 5728POPC   C4B73066  15.894  18.191   7.460
 5729POPC   NC373067  10.682  30.967   5.359
 5729POPC   PO473068  10.293  30.432   5.351
 5729POPC   GL173069  10.369  30.738   5.708
 5729POPC   GL273070  10.743  30.715   5.797
 5729POPC   C1A73071  10.393  30.846   6.166
 5729POPC   D2A73072  10.248  30.630   6.549
 5729POPC   C3A73073  10.533  30.627   6.903
 5729POPC   C4A73074  10.439  30.790   7.322
 5729POPC   C1B73075  10.906  30.863   6.171
 5729POPC   C2B73076  11.071  30.702   6.536
 5729POPC   C3B73077  11.200  31.013   6.803
 5729POPC   C4B73078  10.910  31.002   7.120
 5730POPC   NC373079  19.961  24.693   5.430
 5730POPC   PO473080  19.949  24.014   5.476
 5730POPC   GL173081  19.839  24.321   5.794
 5730POPC   GL273082  19.634  24.618   5.811
 5730POPC   C1A73083  20.038  24.331   6.185
 5730POPC   D2A73084  20.157  24.618   6.540
 5730POPC   C3A73085  20.093  24.367   6.900
 5730POPC   C4A73086  19.774  24.348   7.235
 5730POPC   C1B73087  19.755  24.735   6.209
 5730POPC   C2B73088  19.678  24.455   6.570
 5730POPC   C3B73089  19.675  24.702   6.908
 5730POPC   C4B73090  19.402  24.709   7.281
 5731POPC   NC373091  42.317   9.890   4.971
 5731POPC   PO473092  42.550   9.403   5.330
 5731POPC   GL173093  42.484   9.726   5.697
 5731POPC   GL273094  42.219   9.658   5.986
 5731POPC   C1A73095  42.640   9.880   6.126
 5731POPC   D2A73096  42.386   9.834   6.506
 5731POPC   C3A73097  42.521  10.045   6.878
 5731POPC   C4A73098  42.526   9.898   7.290
 5731POPC   C1B73099  41.962   9.964   6.246
 5731POPC   C2B73100  41.946  10.044   6.707
 5731POPC   C3B73101  42.004   9.888   7.136
 5731POPC   C4B73102  41.923   9.934   7.591
 5732POPC   NC373103  32.298  42.956   5.273
 5732POPC   PO473104  32.439  42.307   5.205
 5732POPC   GL173105  32.273  42.300   5.695
 5732POPC   GL273106  32.100  42.574   5.813
 5732POPC   C1A73107  32.275  42.388   6.232
 5732POPC   D2A73108  32.299  42.627   6.671
 5732POPC   C3A73109  32.341  42.396   7.109
 5732POPC   C4A73110  32.202  42.027   7.380
 5732POPC   C1B73111  31.789  42.499   6.161
 5732POPC   C2B73112  31.688  42.396   6.518
 5732POPC   C3B73113  31.922  42.327   6.825
 5732POPC   C4B73114  31.841  42.336   7.241
 5733POPC   NC373115  33.858   4.242   5.218
 5733POPC   PO473116  33.273   4.206   5.549
 5733POPC   GL173117  33.718   4.149   5.748
 5733POPC   GL273118  33.993   4.414   5.708
 5733POPC   C1A73119  33.900   4.150   6.194
 5733POPC   D2A73120  33.677   4.099   6.609
 5733POPC   C3A73121  33.876   4.133   7.011
 5733POPC   C4A73122  33.840   3.892   7.410
 5733POPC   C1B73123  33.677   4.575   6.017
 5733POPC   C2B73124  33.792   4.620   6.446
 5733POPC   C3B73125  34.066   4.602   6.811
 5733POPC   C4B73126  33.975   4.731   7.239
 5734POPC   NC373127  33.859   2.450   5.493
 5734POPC   PO473128  34.060   1.891   5.233
 5734POPC   GL173129  33.894   1.838   5.676
 5734POPC   GL273130  33.606   2.064   5.751
 5734POPC   C1A73131  33.721   1.656   6.064
 5734POPC   D2A73132  33.627   1.785   6.485
 5734POPC   C3A73133  33.637   1.627   6.921
 5734POPC   C4A73134  33.985   1.696   7.248
 5734POPC   C1B73135  33.879   2.165   6.118
 5734POPC   C2B73136  33.982   2.218   6.562
 5734POPC   C3B73137  33.763   2.107   6.939
 5734POPC   C4B73138  33.449   2.022   7.239
 5735POPC   NC373139  42.732  38.362   5.506
 5735POPC   PO473140  42.070  38.241   5.551
 5735POPC   GL173141  42.303  38.348   5.891
 5735POPC   GL273142  42.472  38.658   5.852
 5735POPC   C1A73143  42.184  38.270   6.316
 5735POPC   D2A73144  41.928  38.175   6.676
 5735POPC   C3A73145  42.009  38.368   7.038
 5735POPC   C4A73146  42.427  38.463   7.146
 5735POPC   C1B73147  42.234  38.799   6.192
 5735POPC   C2B73148  42.226  38.685   6.621
 5735POPC   C3B73149  42.145  38.856   6.987
 5735POPC   C4B73150  41.951  38.783   7.359
 5736POPC   NC373151  29.603  40.554   5.531
 5736POPC   PO473152  29.059  40.921   5.469
 5736POPC   GL173153  29.027  40.789   5.860
 5736POPC   GL273154  29.362  40.752   5.924
 5736POPC   C1A73155  29.029  40.680   6.292
 5736POPC   D2A73156  29.267  40.586   6.631
 5736POPC   C3A73157  29.168  40.778   7.000
 5736POPC   C4A73158  29.032  40.665   7.370
 5736POPC   C1B73159  29.528  40.921   6.278
 5736POPC   C2B73160  29.661  40.912   6.703
 5736POPC   C3B73161  29.560  41.090   7.103
 5736POPC   C4B73162  29.252  41.108   7.469
 5737POPC   NC373163  19.525  44.410   5.421
 5737POPC   PO473164  19.910  44.928   5.518
 5737POPC   GL173165  19.656  44.813   5.831
 5737POPC   GL273166  19.855   0.081   6.006
 5737POPC   C1A73167  19.600  44.712   6.239
 5737POPC   D2A73168  19.761  44.444   6.453
 5737POPC   C3A73169  19.672  44.425   6.899
 5737POPC   C4A73170  19.720  44.139   7.267
 5737POPC   C1B73171  19.671   0.191   6.387
 5737POPC   C2B73172  19.863  44.883   6.677
 5737POPC   C3B73173  20.062  44.936   7.066
 5737POPC   C4B73174  20.038  44.962   7.524
 5738POPC   NC373175  22.340  26.611   5.429
 5738POPC   PO473176  22.137  27.220   5.595
 5738POPC   GL173177  22.104  26.862   5.844
 5738POPC   GL273178  21.793  26.723   5.909
 5738POPC   C1A73179  22.146  26.848   6.295
 5738POPC   D2A73180  22.489  26.787   6.604
 5738POPC   C3A73181  22.328  26.714   7.002
 5738POPC   C4A73182  22.164  26.983   7.339
 5738POPC   C1B73183  21.655  27.028   6.183
 5738POPC   C2B73184  21.749  27.134   6.600
 5738POPC   C3B73185  21.845  26.856   6.945
 5738POPC   C4B73186  21.872  26.565   7.284
 5739POPC   NC373187  35.821  22.838   5.407
 5739POPC   PO473188  35.078  22.681   5.460
 5739POPC   GL173189  35.403  22.876   5.721
 5739POPC   GL273190  35.662  22.719   5.879
 5739POPC   C1A73191  35.296  23.069   6.100
 5739POPC   D2A73192  35.479  23.127   6.504
 5739POPC   C3A73193  35.286  22.933   6.860
 5739POPC   C4A73194  34.985  22.864   7.172
 5739POPC   C1B73195  35.560  22.665   6.297
 5739POPC   C2B73196  35.754  22.750   6.706
 5739POPC   C3B73197  35.664  22.666   7.096
 5739POPC   C4B73198  35.331  22.462   7.201
 5740POPC   NC373199  40.689   6.825   5.461
 5740POPC   PO473200  41.148   6.316   5.475
 5740POPC   GL173201  40.979   6.574   5.798
 5740POPC   GL273202  40.664   6.429   5.907
 5740POPC   C1A73203  40.959   6.730   6.208
 5740POPC   D2A73204  40.689   6.480   6.472
 5740POPC   C3A73205  40.719   6.452   6.903
 5740POPC   C4A73206  40.712   6.571   7.341
 5740POPC   C1B73207  40.420   6.748   6.111
 5740POPC   C2B73208  40.350   6.852   6.565
 5740POPC   C3B73209  40.343   6.777   6.997
 5740POPC   C4B73210  40.146   6.846   7.367
 5741POPC   NC373211  20.153   5.002   5.358
 5741POPC   PO473212  19.441   4.935   5.452
 5741POPC   GL173213  19.766   4.909   5.718
 5741POPC   GL273214  19.859   5.244   5.707
 5741POPC   C1A73215  19.836   4.870   6.160
 5741POPC   D2A73216  19.874   5.108   6.562
 5741POPC   C3A73217  19.763   5.007   6.954
 5741POPC   C4A73218  19.713   4.848   7.370
 5741POPC   C1B73219  19.917   5.384   6.130
 5741POPC   C2B73220  19.800   5.603   6.516
 5741POPC   C3B73221  19.904   5.526   6.941
 5741POPC   C4B73222  19.973   5.306   7.298
 5742POPC   NC373223  24.664  14.528   5.129
 5742POPC   PO473224  25.210  14.199   5.440
 5742POPC   GL173225  25.421  14.403   5.774
 5742POPC   GL273226  25.121  14.456   5.956
 5742POPC   C1A73227  25.529  14.415   6.230
 5742POPC   D2A73228  25.288  14.156   6.515
 5742POPC   C3A73229  25.441  14.141   6.918
 5742POPC   C4A73230  25.334  14.389   7.261
 5742POPC   C1B73231  24.857  14.275   6.242
 5742POPC   C2B73232  24.740  14.308   6.615
 5742POPC   C3B73233  24.925  14.332   6.967
 5742POPC   C4B73234  24.851  14.548   7.335
 5743POPC   NC373235  14.572  17.833   5.521
 5743POPC   PO473236  14.444  18.564   5.479
 5743POPC   GL173237  14.380  18.212   5.810
 5743POPC   GL273238  14.102  17.939   5.705
 5743POPC   C1A73239  14.425  18.204   6.290
 5743POPC   D2A73240  14.369  18.496   6.663
 5743POPC   C3A73241  14.597  18.374   7.059
 5743POPC   C4A73242  14.593  17.960   7.211
 5743POPC   C1B73243  13.960  18.115   6.091
 5743POPC   C2B73244  13.997  18.000   6.551
 5743POPC   C3B73245  14.172  18.112   6.933
 5743POPC   C4B73246  14.157  18.305   7.327
 5744POPC   NC373247   3.276  15.928   5.479
 5744POPC   PO473248   3.795  16.391   5.375
 5744POPC   GL173249   3.671  16.157   5.794
 5744POPC   GL273250   3.627  15.776   5.827
 5744POPC   C1A73251   3.751  16.047   6.259
 5744POPC   D2A73252   3.907  15.878   6.640
 5744POPC   C3A73253   3.628  15.998   6.970
 5744POPC   C4A73254   3.632  16.173   7.398
 5744POPC   C1B73255   3.274  15.932   6.121
 5744POPC   C2B73256   3.008  15.867   6.458
 5744POPC   C3B73257   3.076  15.874   6.885
 5744POPC   C4B73258   3.274  15.840   7.291
 5745POPC   NC373259  34.037  22.961   5.395
 5745POPC   PO473260  33.367  23.077   5.348
 5745POPC   GL173261  33.569  22.989   5.740
 5745POPC   GL273262  33.809  22.727   5.803
 5745POPC   C1A73263  33.525  22.968   6.191
 5745POPC   D2A73264  33.775  23.055   6.549
 5745POPC   C3A73265  33.608  22.952   6.951
 5745POPC   C4A73266  33.781  23.106   7.366
 5745POPC   C1B73267  34.047  22.795   6.190
 5745POPC   C2B73268  34.136  22.711   6.632
 5745POPC   C3B73269  34.107  22.988   6.984
 5745POPC   C4B73270  34.151  22.748   7.349
 5746POPC   NC373271   8.659  43.396   5.530
 5746POPC   PO473272   8.572  42.725   5.522
 5746POPC   GL173273   8.897  42.672   5.902
 5746POPC   GL273274   9.258  42.665   5.899
 5746POPC   C1A73275   9.052  42.604   6.362
 5746POPC   D2A73276   8.851  42.550   6.736
 5746POPC   C3A73277   8.935  42.793   7.041
 5746POPC   C4A73278   8.695  43.144   7.154
 5746POPC   C1B73279   9.054  43.063   6.180
 5746POPC   C2B73280   8.882  43.104   6.629
 5746POPC   C3B73281   8.971  43.471   6.917
 5746POPC   C4B73282   9.247  43.603   7.231
 5747POPC   NC373283  35.664   1.143   5.441
 5747POPC   PO473284  35.051   0.828   5.412
 5747POPC   GL173285  35.302   0.961   5.785
 5747POPC   GL273286  35.672   0.872   5.853
 5747POPC   C1A73287  35.228   1.140   6.208
 5747POPC   D2A73288  35.378   1.397   6.547
 5747POPC   C3A73289  35.206   1.202   6.922
 5747POPC   C4A73290  34.968   1.123   7.302
 5747POPC   C1B73291  35.747   1.082   6.207
 5747POPC   C2B73292  35.588   0.919   6.568
 5747POPC   C3B73293  35.683   1.033   6.951
 5747POPC   C4B73294  35.578   1.458   7.157
 5748POPC   NC373295  25.448  17.372   5.472
 5748POPC   PO473296  24.949  17.821   5.385
 5748POPC   GL173297  25.164  17.713   5.801
 5748POPC   GL273298  25.329  17.402   5.936
 5748POPC   C1A73299  25.083  17.704   6.254
 5748POPC   D2A73300  25.326  17.856   6.598
 5748POPC   C3A73301  25.212  17.690   7.007
 5748POPC   C4A73302  25.061  17.583   7.415
 5748POPC   C1B73303  25.498  17.341   6.290
 5748POPC   C2B73304  25.400  17.339   6.688
 5748POPC   C3B73305  25.581  17.249   7.063
 5748POPC   C4B73306  25.344  17.141   7.392
 5749POPC   NC373307   7.852  23.949   5.351
 5749POPC   PO473308   8.344  23.540   5.301
 5749POPC   GL173309   8.133  23.583   5.659
 5749POPC   GL273310   8.449  23.699   5.799
 5749POPC   C1A73311   8.052  23.526   6.103
 5749POPC   D2A73312   7.899  23.670   6.503
 5749POPC   C3A73313   8.004  23.423   6.862
 5749POPC   C4A73314   8.022  23.584   7.264
 5749POPC   C1B73315   8.241  23.993   6.060
 5749POPC   C2B73316   8.291  24.006   6.498
 5749POPC   C3B73317   8.326  23.830   6.923
 5749POPC   C4B73318   8.571  23.675   7.310
 5750POPC   NC373319  24.306   2.145   5.397
 5750POPC   PO473320  24.800   1.609   5.361
 5750POPC   GL173321  24.656   1.924   5.688
 5750POPC   GL273322  24.298   1.909   5.843
 5750POPC   C1A73323  24.680   2.120   6.087
 5750POPC   D2A73324  24.534   2.224   6.482
 5750POPC   C3A73325  24.684   2.120   6.885
 5750POPC   C4A73326  24.486   2.236   7.280
 5750POPC   C1B73327  24.227   1.856   6.281
 5750POPC   C2B73328  24.374   1.754   6.691
 5750POPC   C3B73329  24.241   1.812   7.106
 5750POPC   C4B73330  23.849   1.712   7.328
 5751POPC   NC373331   3.145   5.225   5.566
 5751POPC   PO473332   2.476   4.804   5.470
 5751POPC   GL173333   2.678   4.997   5.865
 5751POPC   GL273334   2.759   5.356   5.863
 5751POPC   C1A73335   2.886   5.073   6.272
 5751POPC   D2A73336   2.791   4.945   6.682
 5751POPC   C3A73337   2.872   5.172   6.998
 5751POPC   C4A73338   2.684   5.033   7.349
 5751POPC   C1B73339   2.905   5.583   6.196
 5751POPC   C2B73340   3.034   5.515   6.624
 5751POPC   C3B73341   2.754   5.657   6.912
 5751POPC   C4B73342   2.605   5.564   7.291
 5752POPC   NC373343  13.268  27.086   5.470
 5752POPC   PO473344  13.618  26.543   5.490
 5752POPC   GL173345  13.705  26.745   5.883
 5752POPC   GL273346  13.939  26.511   5.962
 5752POPC   C1A73347  13.540  26.917   6.291
 5752POPC   D2A73348  13.485  27.186   6.692
 5752POPC   C3A73349  13.662  26.989   7.064
 5752POPC   C4A73350  13.401  26.645   7.182
 5752POPC   C1B73351  13.815  26.476   6.354
 5752POPC   C2B73352  13.653  26.616   6.714
 5752POPC   C3B73353  13.864  26.478   7.069
 5752POPC   C4B73354  14.145  26.674   7.300
 5753POPC   NC373355  42.028  11.360   5.425
 5753POPC   PO473356  41.500  11.727   5.600
 5753POPC   GL173357  41.639  11.414   5.791
 5753POPC   GL273358  41.405  11.156   5.841
 5753POPC   C1A73359  41.702  11.476   6.210
 5753POPC   D2A73360  41.554  11.382   6.585
 5753POPC   C3A73361  41.860  11.458   6.880
 5753POPC   C4A73362  41.726  11.508   7.262
 5753POPC   C1B73363  41.815  11.012   6.041
 5753POPC   C2B73364  41.893  11.018   6.434
 5753POPC   C3B73365  41.764  10.954   6.810
 5753POPC   C4B73366  41.661  11.016   7.218
 5754POPC   NC373367   9.706  21.880   5.347
 5754POPC   PO473368   9.481  22.511   5.460
 5754POPC   GL173369   9.600  22.196   5.774
 5754POPC   GL273370   9.869  22.021   5.843
 5754POPC   C1A73371   9.588  22.100   6.247
 5754POPC   D2A73372   9.663  22.418   6.565
 5754POPC   C3A73373   9.649  22.264   6.969
 5754POPC   C4A73374   9.704  21.887   7.144
 5754POPC   C1B73375   9.989  22.358   6.132
 5754POPC   C2B73376  10.162  22.306   6.549
 5754POPC   C3B73377  10.171  22.084   6.941
 5754POPC   C4B73378  10.089  22.184   7.342
 5755POPC   NC373379  31.242  43.271   5.355
 5755POPC   PO473380  31.828  42.914   5.356
 5755POPC   GL173381  31.599  43.063   5.728
 5755POPC   GL273382  31.647  42.812   5.827
 5755POPC   C1A73383  31.603  43.209   6.146
 5755POPC   D2A73384  31.635  43.460   6.479
 5755POPC   C3A73385  31.734  43.285   6.854
 5755POPC   C4A73386  31.504  43.308   7.214
 5755POPC   C1B73387  31.337  42.750   6.146
 5755POPC   C2B73388  31.356  42.843   6.541
 5755POPC   C3B73389  31.427  42.866   6.931
 5755POPC   C4B73390  31.493  42.680   7.291
 5756POPC   NC373391  21.449  30.826   5.344
 5756POPC   PO473392  21.535  30.304   5.660
 5756POPC   GL173393  21.355  30.661   5.825
 5756POPC   GL273394  21.646  30.921   5.801
 5756POPC   C1A73395  21.146  30.707   6.218
 5756POPC   D2A73396  21.322  30.752   6.616
 5756POPC   C3A73397  21.216  30.705   7.019
 5756POPC   C4A73398  21.595  30.627   7.215
 5756POPC   C1B73399  21.631  30.840   6.216
 5756POPC   C2B73400  21.709  31.061   6.576
 5756POPC   C3B73401  21.540  31.093   6.966
 5756POPC   C4B73402  21.765  31.104   7.326
 5757POPC   NC373403  44.170   2.514   4.951
 5757POPC   PO473404  44.611   2.815   5.384
 5757POPC   GL173405  44.687   2.725   5.805
 5757POPC   GL273406  44.586   2.383   5.799
 5757POPC   C1A73407  44.614   2.801   6.261
 5757POPC   D2A73408  44.484   3.162   6.539
 5757POPC   C3A73409  44.593   3.153   6.974
 5757POPC   C4A73410  44.321   2.958   7.266
 5757POPC   C1B73411  44.940   2.373   6.100
 5757POPC   C2B73412   0.001   2.547   6.508
 5757POPC   C3B73413  44.724   2.629   6.844
 5757POPC   C4B73414  44.648   2.385   7.215
 5758POPC   NC373415  33.322   2.836   5.219
 5758POPC   PO473416  32.728   2.710   5.546
 5758POPC   GL173417  32.739   2.581   5.958
 5758POPC   GL273418  32.820   2.850   6.075
 5758POPC   C1A73419  32.939   2.446   6.363
 5758POPC   D2A73420  33.158   2.586   6.761
 5758POPC   C3A73421  32.878   2.725   7.029
 5758POPC   C4A73422  32.783   3.106   7.247
 5758POPC   C1B73423  32.986   2.968   6.467
 5758POPC   C2B73424  33.381   3.055   6.677
 5758POPC   C3B73425  33.425   2.945   7.102
 5758POPC   C4B73426  33.529   2.532   7.279
 5759POPC   NC373427  33.427   8.856   5.432
 5759POPC   PO473428  34.112   9.087   5.362
 5759POPC   GL173429  33.764   9.121   5.709
 5759POPC   GL273430  33.732   8.786   5.864
 5759POPC   C1A73431  33.615   9.166   6.156
 5759POPC   D2A73432  33.648   8.961   6.577
 5759POPC   C3A73433  33.917   8.884   6.942
 5759POPC   C4A73434  33.894   9.104   7.345
 5759POPC   C1B73435  33.532   8.585   6.251
 5759POPC   C2B73436  33.689   8.435   6.647
 5759POPC   C3B73437  33.553   8.447   7.074
 5759POPC   C4B73438  33.641   8.375   7.531
 5760POPC   NC373439  27.554  19.585   5.536
 5760POPC   PO473440  27.617  20.248   5.437
 5760POPC   GL173441  27.631  19.995   5.831
 5760POPC   GL273442  27.328  19.803   5.945
 5760POPC   C1A73443  27.765  19.814   6.241
 5760POPC   D2A73444  27.629  19.672   6.677
 5760POPC   C3A73445  27.772  19.915   7.012
 5760POPC   C4A73446  27.661  20.171   7.351
 5760POPC   C1B73447  27.394  19.468   6.263
 5760POPC   C2B73448  27.232  19.331   6.653
 5760POPC   C3B73449  27.073  19.518   7.043
 5760POPC   C4B73450  27.396  19.686   7.327
 5761POPC   NC373451   9.323  12.444   5.498
 5761POPC   PO473452   9.541  13.027   5.314
 5761POPC   GL173453   9.827  12.947   5.710
 5761POPC   GL273454   9.925  12.579   5.743
 5761POPC   C1A73455   9.724  12.830   6.148
 5761POPC   D2A73456   9.560  12.701   6.540
 5761POPC   C3A73457   9.766  12.901   6.876
 5761POPC   C4A73458   9.621  13.149   7.207
 5761POPC   C1B73459  10.100  12.483   6.160
 5761POPC   C2B73460  10.020  12.453   6.598
 5761POPC   C3B73461   9.711  12.386   6.921
 5761POPC   C4B73462   9.824  12.609   7.304
 5762POPC   NC373463  22.807  35.063   5.196
 5762POPC   PO473464  23.161  34.589   5.455
 5762POPC   GL173465  22.931  34.628   5.828
 5762POPC   GL273466  22.640  34.820   5.767
 5762POPC   C1A73467  22.986  34.634   6.262
 5762POPC   D2A73468  22.905  34.428   6.608
 5762POPC   C3A73469  23.049  34.651   6.930
 5762POPC   C4A73470  22.906  34.605   7.316
 5762POPC   C1B73471  22.494  34.737   6.193
 5762POPC   C2B73472  22.648  34.863   6.608
 5762POPC   C3B73473  22.563  34.886   7.060
 5762POPC   C4B73474  22.631  34.984   7.518
 5763POPC   NC373475  35.035  18.904   5.417
 5763POPC   PO473476  34.354  18.844   5.580
 5763POPC   GL173477  34.463  19.129   5.847
 5763POPC   GL273478  34.796  19.256   5.715
 5763POPC   C1A73479  34.355  19.127   6.253
 5763POPC   D2A73480  34.524  19.172   6.637
 5763POPC   C3A73481  34.421  19.051   7.043
 5763POPC   C4A73482  34.319  18.693   7.255
 5763POPC   C1B73483  34.902  19.066   6.124
 5763POPC   C2B73484  35.007  19.224   6.528
 5763POPC   C3B73485  34.918  19.141   6.957
 5763POPC   C4B73486  34.958  19.428   7.282
 5764POPC   NC373487  35.177   4.228   5.236
 5764POPC   PO473488  35.598   4.694   5.448
 5764POPC   GL173489  35.380   4.381   5.765
 5764POPC   GL273490  35.031   4.198   5.725
 5764POPC   C1A73491  35.533   4.293   6.205
 5764POPC   D2A73492  35.780   4.406   6.584
 5764POPC   C3A73493  35.560   4.539   6.942
 5764POPC   C4A73494  35.352   4.337   7.266
 5764POPC   C1B73495  35.009   4.328   6.152
 5764POPC   C2B73496  35.168   4.325   6.575
 5764POPC   C3B73497  35.004   4.158   6.942
 5764POPC   C4B73498  34.716   4.051   7.269
 5765POPC   NC373499  12.783  15.069   5.675
 5765POPC   PO473500  12.851  14.640   5.170
 5765POPC   GL173501  12.725  14.493   5.655
 5765POPC   GL273502  12.951  14.218   5.781
 5765POPC   C1A73503  12.701  14.472   6.155
 5765POPC   D2A73504  12.658  14.193   6.552
 5765POPC   C3A73505  12.729  14.390   6.961
 5765POPC   C4A73506  12.708  14.472   7.406
 5765POPC   C1B73507  13.213  14.430   6.121
 5765POPC   C2B73508  13.283  14.291   6.571
 5765POPC   C3B73509  13.144  14.099   6.982
 5765POPC   C4B73510  13.160  14.231   7.443
 5766POPC   NC373511   0.908  18.460   5.311
 5766POPC   PO473512   1.581  18.334   5.111
 5766POPC   GL173513   1.458  18.347   5.600
 5766POPC   GL273514   1.167  18.528   5.743
 5766POPC   C1A73515   1.412  18.249   6.106
 5766POPC   D2A73516   1.119  18.269   6.497
 5766POPC   C3A73517   1.243  18.203   6.945
 5766POPC   C4A73518   1.583  18.072   7.230
 5766POPC   C1B73519   1.139  18.685   6.182
 5766POPC   C2B73520   0.951  18.914   6.537
 5766POPC   C3B73521   0.917  18.917   6.982
 5766POPC   C4B73522   1.045  18.615   7.248
 5767POPC   NC373523  21.010  27.719   5.120
 5767POPC   PO473524  20.421  27.411   5.418
 5767POPC   GL173525  20.668  27.694   5.685
 5767POPC   GL273526  20.943  27.516   5.750
 5767POPC   C1A73527  20.610  27.732   6.165
 5767POPC   D2A73528  20.402  27.382   6.463
 5767POPC   C3A73529  20.514  27.413   6.916
 5767POPC   C4A73530  20.739  27.781   7.137
 5767POPC   C1B73531  20.804  27.286   6.086
 5767POPC   C2B73532  20.910  27.463   6.488
 5767POPC   C3B73533  21.032  27.465   6.872
 5767POPC   C4B73534  20.908  27.150   7.103
 5768POPC   NC373535  30.384  40.423   5.603
 5768POPC   PO473536  30.664  39.771   5.575
 5768POPC   GL173537  30.909  40.084   5.859
 5768POPC   GL273538  30.610  40.168   5.965
 5768POPC   C1A73539  30.919  40.235   6.332
 5768POPC   D2A73540  30.686  40.159   6.709
 5768POPC   C3A73541  30.762  40.266   7.144
 5768POPC   C4A73542  30.793  40.158   7.632
 5768POPC   C1B73543  30.545  39.796   6.242
 5768POPC   C2B73544  30.408  39.705   6.688
 5768POPC   C3B73545  30.387  39.906   7.100
 5768POPC   C4B73546  30.422  39.807   7.550
 5769POPC   NC373547  35.392  37.529   5.302
 5769POPC   PO473548  34.964  38.036   5.430
 5769POPC   GL173549  35.265  37.779   5.736
 5769POPC   GL273550  35.592  37.940   5.683
 5769POPC   C1A73551  35.241  37.518   6.138
 5769POPC   D2A73552  35.214  37.274   6.554
 5769POPC   C3A73553  35.408  37.410   6.949
 5769POPC   C4A73554  35.312  37.598   7.331
 5769POPC   C1B73555  35.553  37.933   6.164
 5769POPC   C2B73556  35.415  37.761   6.566
 5769POPC   C3B73557  35.462  37.932   6.983
 5769POPC   C4B73558  35.473  38.120   7.380
 5770POPC   NC373559  13.227  20.983   5.389
 5770POPC   PO473560  12.756  20.585   5.334
 5770POPC   GL173561  12.885  20.470   5.767
 5770POPC   GL273562  12.567  20.403   5.828
 5770POPC   C1A73563  13.065  20.457   6.214
 5770POPC   D2A73564  13.204  20.709   6.610
 5770POPC   C3A73565  13.118  20.560   7.023
 5770POPC   C4A73566  12.784  20.220   7.059
 5770POPC   C1B73567  12.581  20.644   6.215
 5770POPC   C2B73568  12.711  20.519   6.627
 5770POPC   C3B73569  12.639  20.709   7.020
 5770POPC   C4B73570  12.586  20.923   7.411
 5771POPC   NC373571  37.052   4.678   5.547
 5771POPC   PO473572  37.218   5.360   5.376
 5771POPC   GL173573  37.059   5.106   5.827
 5771POPC   GL273574  37.218   4.774   6.005
 5771POPC   C1A73575  36.767   4.933   6.178
 5771POPC   D2A73576  36.449   4.907   6.496
 5771POPC   C3A73577  36.528   5.191   6.836
 5771POPC   C4A73578  36.769   5.099   7.196
 5771POPC   C1B73579  37.244   5.048   6.341
 5771POPC   C2B73580  37.148   5.203   6.734
 5771POPC   C3B73581  37.260   5.027   7.112
 5771POPC   C4B73582  37.176   5.097   7.562
 5772POPC   NC373583  41.422  20.740   5.519
 5772POPC   PO473584  41.621  20.072   5.532
 5772POPC   GL173585  41.548  20.341   5.829
 5772POPC   GL273586  41.834  20.549   5.768
 5772POPC   C1A73587  41.389  20.464   6.208
 5772POPC   D2A73588  41.576  20.428   6.598
 5772POPC   C3A73589  41.368  20.542   6.946
 5772POPC   C4A73590  41.246  20.576   7.365
 5772POPC   C1B73591  41.871  20.642   6.208
 5772POPC   C2B73592  41.778  20.896   6.584
 5772POPC   C3B73593  41.751  20.857   7.022
 5772POPC   C4B73594  41.934  21.007   7.381
 5773POPC   NC373595  20.801  12.574   5.414
 5773POPC   PO473596  20.385  13.057   5.365
 5773POPC   GL173597  20.626  12.959   5.741
 5773POPC   GL273598  20.523  12.621   5.824
 5773POPC   C1A73599  20.783  12.970   6.179
 5773POPC   D2A73600  20.629  13.006   6.616
 5773POPC   C3A73601  20.815  12.977   7.021
 5773POPC   C4A73602  20.793  13.173   7.391
 5773POPC   C1B73603  20.531  12.351   6.164
 5773POPC   C2B73604  20.417  12.334   6.582
 5773POPC   C3B73605  20.557  12.552   6.938
 5773POPC   C4B73606  20.613  12.478   7.375
 5774POPC   NC373607  26.314   4.807   5.589
 5774POPC   PO473608  26.101   5.367   5.294
 5774POPC   GL173609  26.115   5.291   5.747
 5774POPC   GL273610  25.918   4.995   5.852
 5774POPC   C1A73611  26.058   5.326   6.204
 5774POPC   D2A73612  26.085   5.087   6.565
 5774POPC   C3A73613  25.961   5.295   6.940
 5774POPC   C4A73614  26.243   5.318   7.255
 5774POPC   C1B73615  26.063   4.715   6.188
 5774POPC   C2B73616  26.136   4.548   6.596
 5774POPC   C3B73617  26.072   4.774   6.996
 5774POPC   C4B73618  26.122   4.854   7.434
 5775POPC   NC373619  20.511  31.825   5.477
 5775POPC   PO473620  20.621  32.512   5.425
 5775POPC   GL173621  20.453  32.424   5.811
 5775POPC   GL273622  20.696  32.161   5.814
 5775POPC   C1A73623  20.360  32.619   6.228
 5775POPC   D2A73624  20.291  32.649   6.679
 5775POPC   C3A73625  20.446  32.325   6.959
 5775POPC   C4A73626  20.272  32.284   7.364
 5775POPC   C1B73627  20.547  32.135   6.246
 5775POPC   C2B73628  20.778  32.370   6.555
 5775POPC   C3B73629  20.990  32.312   6.963
 5775POPC   C4B73630  20.786  32.208   7.338
 5776POPC   NC373631  27.380  10.628   5.331
 5776POPC   PO473632  27.588  11.259   5.442
 5776POPC   GL173633  27.536  11.193   5.831
 5776POPC   GL273634  27.320  10.911   5.793
 5776POPC   C1A73635  27.556  11.427   6.197
 5776POPC   D2A73636  27.260  11.614   6.497
 5776POPC   C3A73637  27.484  11.569   6.889
 5776POPC   C4A73638  27.654  11.441   7.282
 5776POPC   C1B73639  27.210  11.033   6.218
 5776POPC   C2B73640  27.450  11.143   6.603
 5776POPC   C3B73641  27.600  11.013   6.994
 5776POPC   C4B73642  27.277  10.878   7.260
 5777POPC   NC373643  41.897   8.262   5.221
 5777POPC   PO473644  41.229   7.979   5.184
 5777POPC   GL173645  41.446   8.139   5.594
 5777POPC   GL273646  41.611   7.890   5.782
 5777POPC   C1A73647  41.478   8.293   6.072
 5777POPC   D2A73648  41.425   8.079   6.475
 5777POPC   C3A73649  41.511   8.110   6.929
 5777POPC   C4A73650  41.463   8.395   7.272
 5777POPC   C1B73651  41.854   7.955   6.184
 5777POPC   C2B73652  41.887   7.914   6.659
 5777POPC   C3B73653  41.964   7.899   7.112
 5777POPC   C4B73654  41.821   8.016   7.522
 5778POPC   NC373655  40.794  21.839   5.551
 5778POPC   PO473656  40.691  22.352   5.178
 5778POPC   GL173657  40.706  22.327   5.677
 5778POPC   GL273658  41.084  22.269   5.795
 5778POPC   C1A73659  40.719  22.336   6.164
 5778POPC   D2A73660  40.592  22.019   6.497
 5778POPC   C3A73661  40.586  22.249   6.878
 5778POPC   C4A73662  40.660  22.300   7.312
 5778POPC   C1B73663  41.225  22.268   6.252
 5778POPC   C2B73664  41.061  22.154   6.676
 5778POPC   C3B73665  41.133  22.227   7.129
 5778POPC   C4B73666  41.209  22.194   7.605
 5779POPC   NC373667  39.655   4.460   5.587
 5779POPC   PO473668  39.028   4.479   5.489
 5779POPC   GL173669  39.173   4.267   5.863
 5779POPC   GL273670  38.897   4.421   5.987
 5779POPC   C1A73671  39.401   4.041   6.224
 5779POPC   D2A73672  39.304   3.917   6.675
 5779POPC   C3A73673  39.357   4.303   6.961
 5779POPC   C4A73674  39.244   4.477   7.369
 5779POPC   C1B73675  38.890   4.749   6.267
 5779POPC   C2B73676  39.022   4.812   6.694
 5779POPC   C3B73677  38.839   4.662   7.066
 5779POPC   C4B73678  38.725   4.701   7.498
 5780POPC   NC373679  30.073  30.245   5.426
 5780POPC   PO473680  29.908  30.900   5.279
 5780POPC   GL173681  30.114  30.776   5.698
 5780POPC   GL273682  29.993  30.462   5.891
 5780POPC   C1A73683  30.029  30.889   6.149
 5780POPC   D2A73684  29.844  30.886   6.565
 5780POPC   C3A73685  29.978  30.603   6.848
 5780POPC   C4A73686  30.023  30.782   7.209
 5780POPC   C1B73687  29.621  30.590   6.204
 5780POPC   C2B73688  29.508  30.491   6.670
 5780POPC   C3B73689  29.559  30.418   7.125
 5780POPC   C4B73690  29.711  30.459   7.548
 5781POPC   NC373691   7.697  41.814   5.278
 5781POPC   PO473692   7.203  41.383   5.251
 5781POPC   GL173693   7.274  41.653   5.652
 5781POPC   GL273694   7.611  41.693   5.786
 5781POPC   C1A73695   7.232  41.545   6.117
 5781POPC   D2A73696   7.283  41.658   6.579
 5781POPC   C3A73697   7.079  41.500   6.998
 5781POPC   C4A73698   7.203  41.497   7.465
 5781POPC   C1B73699   7.717  41.722   6.238
 5781POPC   C2B73700   7.773  41.546   6.668
 5781POPC   C3B73701   7.594  41.481   7.105
 5781POPC   C4B73702   7.681  41.602   7.564
 5782POPC   NC373703  20.114  12.215   5.112
 5782POPC   PO473704  19.630  11.814   5.344
 5782POPC   GL173705  19.642  12.110   5.739
 5782POPC   GL273706  19.676  11.851   5.977
 5782POPC   C1A73707  19.826  12.311   6.145
 5782POPC   D2A73708  19.921  12.193   6.575
 5782POPC   C3A73709  19.981  12.419   6.925
 5782POPC   C4A73710  20.137  12.521   7.295
 5782POPC   C1B73711  19.562  11.880   6.415
 5782POPC   C2B73712  19.775  11.767   6.817
 5782POPC   C3B73713  19.835  12.009   7.205
 5782POPC   C4B73714  19.532  11.944   7.559
 5783POPC   NC373715   1.704  27.231   5.444
 5783POPC   PO473716   2.183  27.736   5.315
 5783POPC   GL173717   2.056  27.505   5.714
 5783POPC   GL273718   2.132  27.120   5.718
 5783POPC   C1A73719   1.895  27.665   6.126
 5783POPC   D2A73720   2.150  27.642   6.500
 5783POPC   C3A73721   2.086  27.872   6.858
 5783POPC   C4A73722   1.904  27.818   7.254
 5783POPC   C1B73723   2.100  27.176   6.168
 5783POPC   C2B73724   1.920  27.161   6.587
 5783POPC   C3B73725   1.976  27.387   6.960
 5783POPC   C4B73726   2.152  27.272   7.349
 5784POPC   NC373727  16.296  42.540   5.344
 5784POPC   PO473728  15.586  42.306   5.275
 5784POPC   GL173729  15.687  42.399   5.761
 5784POPC   GL273730  15.925  42.706   5.819
 5784POPC   C1A73731  15.703  42.414   6.229
 5784POPC   D2A73732  15.857  42.137   6.562
 5784POPC   C3A73733  15.641  42.208   6.935
 5784POPC   C4A73734  15.735  42.312   7.310
 5784POPC   C1B73735  16.296  42.692   6.144
 5784POPC   C2B73736  16.401  42.722   6.609
 5784POPC   C3B73737  16.090  42.525   6.923
 5784POPC   C4B73738  16.229  42.462   7.377
 5785POPC   NC373739  31.224  35.591   5.447
 5785POPC   PO473740  31.587  35.081   5.437
 5785POPC   GL173741  31.621  35.316   5.818
 5785POPC   GL273742  31.551  35.613   5.821
 5785POPC   C1A73743  31.625  35.378   6.280
 5785POPC   D2A73744  31.523  35.064   6.589
 5785POPC   C3A73745  31.322  35.189   6.943
 5785POPC   C4A73746  31.517  35.512   7.114
 5785POPC   C1B73747  31.267  35.734   6.165
 5785POPC   C2B73748  31.202  35.588   6.604
 5785POPC   C3B73749  31.060  35.684   7.029
 5785POPC   C4B73750  31.169  35.718   7.479
 5786POPC   NC373751  24.102   9.148   5.522
 5786POPC   PO473752  23.507   8.762   5.478
 5786POPC   GL173753  23.747   8.851   5.789
 5786POPC   GL273754  23.620   9.169   5.792
 5786POPC   C1A73755  23.793   8.914   6.208
 5786POPC   D2A73756  23.796   8.684   6.579
 5786POPC   C3A73757  23.722   8.889   6.950
 5786POPC   C4A73758  23.810   8.827   7.353
 5786POPC   C1B73759  23.313   9.112   6.131
 5786POPC   C2B73760  23.433   9.066   6.547
 5786POPC   C3B73761  23.251   9.081   6.939
 5786POPC   C4B73762  23.416   9.164   7.329
 5787POPC   NC373763  42.768   8.591   5.237
 5787POPC   PO473764  43.467   9.005   5.324
 5787POPC   GL173765  43.302   9.056   5.797
 5787POPC   GL273766  43.000   9.224   5.903
 5787POPC   C1A73767  43.411   9.240   6.216
 5787POPC   D2A73768  43.210   9.276   6.649
 5787POPC   C3A73769  43.192   8.891   6.915
 5787POPC   C4A73770  43.409   8.717   7.282
 5787POPC   C1B73771  42.947   9.009   6.274
 5787POPC   C2B73772  42.708   8.939   6.649
 5787POPC   C3B73773  42.711   9.029   7.097
 5787POPC   C4B73774  42.953   8.900   7.449
 5788POPC   NC373775   9.947   6.090   5.397
 5788POPC   PO473776   9.770   5.459   5.187
 5788POPC   GL173777   9.714   5.745   5.705
 5788POPC   GL273778   9.774   6.089   5.873
 5788POPC   C1A73779   9.844   5.710   6.189
 5788POPC   D2A73780   9.987   5.909   6.597
 5788POPC   C3A73781   9.723   5.846   6.981
 5788POPC   C4A73782   9.844   5.595   7.344
 5788POPC   C1B73783   9.513   6.106   6.267
 5788POPC   C2B73784   9.438   6.248   6.699
 5788POPC   C3B73785   9.699   6.389   7.047
 5788POPC   C4B73786  10.030   6.148   7.266
 5789POPC   NC373787  27.159  38.537   5.014
 5789POPC   PO473788  26.569  38.716   5.246
 5789POPC   GL173789  26.701  38.618   5.747
 5789POPC   GL273790  26.457  38.598   5.935
 5789POPC   C1A73791  26.884  38.353   6.099
 5789POPC   D2A73792  27.050  38.476   6.496
 5789POPC   C3A73793  26.914  38.349   6.894
 5789POPC   C4A73794  27.107  38.209   7.242
 5789POPC   C1B73795  26.409  38.376   6.319
 5789POPC   C2B73796  26.361  38.261   6.739
 5789POPC   C3B73797  26.442  38.452   7.110
 5789POPC   C4B73798  26.656  38.556   7.514
 5790POPC   NC373799  23.091  42.602   5.289
 5790POPC   PO473800  22.516  42.350   5.372
 5790POPC   GL173801  22.886  42.313   5.672
 5790POPC   GL273802  22.740  42.104   5.935
 5790POPC   C1A73803  23.170  42.363   6.057
 5790POPC   D2A73804  23.171  42.602   6.434
 5790POPC   C3A73805  23.183  42.425   6.825
 5790POPC   C4A73806  23.161  42.333   7.238
 5790POPC   C1B73807  22.703  42.501   6.225
 5790POPC   C2B73808  22.726  42.642   6.695
 5790POPC   C3B73809  22.657  42.409   7.092
 5790POPC   C4B73810  22.344  42.339   7.442
 5791POPC   NC373811  12.343  37.991   5.601
 5791POPC   PO473812  11.877  38.555   5.522
 5791POPC   GL173813  12.270  38.592   5.756
 5791POPC   GL273814  12.246  38.307   5.983
 5791POPC   C1A73815  12.435  38.736   6.152
 5791POPC   D2A73816  12.394  38.469   6.542
 5791POPC   C3A73817  12.243  38.628   6.952
 5791POPC   C4A73818  11.982  38.538   7.329
 5791POPC   C1B73819  11.967  38.203   6.319
 5791POPC   C2B73820  11.667  38.129   6.654
 5791POPC   C3B73821  11.611  38.254   7.063
 5791POPC   C4B73822  11.617  38.130   7.461
 5792POPC   NC373823  39.831  34.983   5.548
 5792POPC   PO473824  40.153  35.508   5.185
 5792POPC   GL173825  40.006  35.483   5.630
 5792POPC   GL273826  39.622  35.444   5.730
 5792POPC   C1A73827  40.135  35.425   6.068
 5792POPC   D2A73828  40.102  35.721   6.419
 5792POPC   C3A73829  40.124  35.612   6.897
 5792POPC   C4A73830  40.303  35.231   7.096
 5792POPC   C1B73831  39.641  35.550   6.172
 5792POPC   C2B73832  39.768  35.376   6.599
 5792POPC   C3B73833  39.591  35.281   7.020
 5792POPC   C4B73834  39.600  35.084   7.451
 5793POPC   NC373835  22.005  27.964   5.300
 5793POPC   PO473836  22.150  28.629   5.412
 5793POPC   GL173837  22.104  28.293   5.716
 5793POPC   GL273838  21.828  28.166   5.880
 5793POPC   C1A73839  22.303  28.163   6.101
 5793POPC   D2A73840  22.214  28.020   6.530
 5793POPC   C3A73841  22.372  28.216   6.903
 5793POPC   C4A73842  22.359  28.347   7.325
 5793POPC   C1B73843  21.904  28.478   6.230
 5793POPC   C2B73844  22.014  28.510   6.671
 5793POPC   C3B73845  21.894  28.371   7.097
 5793POPC   C4B73846  21.823  28.363   7.541
 5794POPC   NC373847  29.583   2.141   5.558
 5794POPC   PO473848  30.243   1.961   5.413
 5794POPC   GL173849  30.017   1.962   5.792
 5794POPC   GL273850  30.038   2.286   5.888
 5794POPC   C1A73851  29.732   1.956   6.173
 5794POPC   D2A73852  29.724   2.163   6.561
 5794POPC   C3A73853  29.790   1.898   6.901
 5794POPC   C4A73854  29.925   1.769   7.303
 5794POPC   C1B73855  30.216   2.161   6.291
 5794POPC   C2B73856  30.228   2.116   6.746
 5794POPC   C3B73857  29.993   2.312   7.122
 5794POPC   C4B73858  30.052   2.251   7.544
 5795POPC   NC373859   8.067  41.042   5.298
 5795POPC   PO473860   8.353  40.411   5.333
 5795POPC   GL173861   8.144  40.660   5.671
 5795POPC   GL273862   8.016  40.399   5.879
 5795POPC   C1A73863   8.029  40.867   6.111
 5795POPC   D2A73864   8.084  40.796   6.588
 5795POPC   C3A73865   7.959  41.126   6.899
 5795POPC   C4A73866   7.953  41.213   7.351
 5795POPC   C1B73867   8.443  40.578   6.083
 5795POPC   C2B73868   8.597  40.764   6.466
 5795POPC   C3B73869   8.511  40.656   6.877
 5795POPC   C4B73870   8.206  40.787   7.171
 5796POPC   NC373871  30.732  19.453   5.303
 5796POPC   PO473872  30.863  20.067   5.122
 5796POPC   GL173873  30.857  19.916   5.640
 5796POPC   GL273874  30.657  20.141   5.876
 5796POPC   C1A73875  30.714  19.728   6.133
 5796POPC   D2A73876  30.862  19.821   6.603
 5796POPC   C3A73877  30.561  19.646   6.950
 5796POPC   C4A73878  30.510  19.690   7.430
 5796POPC   C1B73879  31.065  20.086   6.171
 5796POPC   C2B73880  31.230  20.250   6.564
 5796POPC   C3B73881  31.246  20.153   7.008
 5796POPC   C4B73882  30.885  19.977   7.189
 5797POPC   NC373883  21.441  11.993   5.219
 5797POPC   PO473884  21.264  12.585   5.300
 5797POPC   GL173885  21.437  12.404   5.750
 5797POPC   GL273886  21.468  12.020   5.766
 5797POPC   C1A73887  21.388  12.329   6.259
 5797POPC   D2A73888  21.538  12.284   6.715
 5797POPC   C3A73889  21.350  12.064   7.014
 5797POPC   C4A73890  21.404  12.215   7.400
 5797POPC   C1B73891  21.714  11.954   6.166
 5797POPC   C2B73892  21.570  11.800   6.582
 5797POPC   C3B73893  21.758  11.752   6.998
 5797POPC   C4B73894  21.733  11.840   7.451
 5798POPC   NC373895  17.674  18.673   5.056
 5798POPC   PO473896  17.708  18.133   5.372
 5798POPC   GL173897  17.695  18.166   5.822
 5798POPC   GL273898  17.679  17.838   5.870
 5798POPC   C1A73899  17.497  18.270   6.262
 5798POPC   D2A73900  17.139  18.496   6.510
 5798POPC   C3A73901  17.159  18.454   6.960
 5798POPC   C4A73902  17.500  18.245   7.181
 5798POPC   C1B73903  17.503  17.746   6.253
 5798POPC   C2B73904  17.400  17.909   6.661
 5798POPC   C3B73905  17.605  17.761   7.042
 5798POPC   C4B73906  17.923  17.950   7.284
 5799POPC   NC373907  25.720  22.012   5.644
 5799POPC   PO473908  26.342  22.324   5.620
 5799POPC   GL173909  26.142  22.129   5.918
 5799POPC   GL273910  26.272  21.811   5.877
 5799POPC   C1A73911  25.859  22.246   6.259
 5799POPC   D2A73912  25.595  22.280   6.603
 5799POPC   C3A73913  25.805  22.319   6.980
 5799POPC   C4A73914  26.062  22.211   7.297
 5799POPC   C1B73915  26.115  21.815   6.321
 5799POPC   C2B73916  25.881  21.861   6.705
 5799POPC   C3B73917  26.035  21.752   7.086
 5799POPC   C4B73918  26.419  21.844   7.308
 5800POPC   NC373919  28.267  25.074   5.459
 5800POPC   PO473920  28.611  25.611   5.413
 5800POPC   GL173921  28.619  25.400   5.821
 5800POPC   GL273922  28.295  25.295   5.907
 5800POPC   C1A73923  28.560  25.456   6.300
 5800POPC   D2A73924  28.345  25.354   6.693
 5800POPC   C3A73925  28.536  25.415   7.116
 5800POPC   C4A73926  28.713  25.253   7.523
 5800POPC   C1B73927  28.062  25.159   6.264
 5800POPC   C2B73928  27.885  25.118   6.658
 5800POPC   C3B73929  28.047  25.165   7.064
 5800POPC   C4B73930  28.331  24.957   7.278
 5801POPC   NC373931   0.816  20.292   5.505
 5801POPC   PO473932   0.161  20.389   5.519
 5801POPC   GL173933   0.474  20.535   5.806
 5801POPC   GL273934   0.630  20.242   5.985
 5801POPC   C1A73935   0.558  20.705   6.198
 5801POPC   D2A73936   0.454  20.518   6.563
 5801POPC   C3A73937   0.410  20.814   6.860
 5801POPC   C4A73938   0.420  20.785   7.297
 5801POPC   C1B73939   0.203  20.295   6.185
 5801POPC   C2B73940  44.950  20.299   6.584
 5801POPC   C3B73941   0.194  20.349   6.956
 5801POPC   C4B73942   0.619  20.366   7.080
 5802POPC   NC373943  39.051  24.033   5.476
 5802POPC   PO473944  39.335  23.424   5.485
 5802POPC   GL173945  39.148  23.654   5.818
 5802POPC   GL273946  39.198  23.371   6.062
 5802POPC   C1A73947  39.107  23.841   6.212
 5802POPC   D2A73948  39.131  23.605   6.572
 5802POPC   C3A73949  39.067  23.844   6.885
 5802POPC   C4A73950  39.111  23.712   7.277
 5802POPC   C1B73951  39.566  23.476   6.338
 5802POPC   C2B73952  39.709  23.337   6.723
 5802POPC   C3B73953  39.411  23.350   7.056
 5802POPC   C4B73954  39.482  23.427   7.497
 5803POPC   NC373955  25.515  11.130   5.341
 5803POPC   PO473956  25.066  11.624   5.355
 5803POPC   GL173957  25.177  11.348   5.714
 5803POPC   GL273958  24.868  11.196   5.832
 5803POPC   C1A73959  25.173  11.384   6.192
 5803POPC   D2A73960  25.247  11.616   6.581
 5803POPC   C3A73961  25.242  11.373   6.976
 5803POPC   C4A73962  25.150  11.210   7.410
 5803POPC   C1B73963  24.803  11.007   6.240
 5803POPC   C2B73964  25.058  11.012   6.615
 5803POPC   C3B73965  24.902  10.996   7.019
 5803POPC   C4B73966  24.781  10.788   7.398
 5804POPC   NC373967   5.397  11.967   5.368
 5804POPC   PO473968   4.908  12.416   5.387
 5804POPC   GL173969   4.962  12.030   5.658
 5804POPC   GL273970   4.768  12.112   5.912
 5804POPC   C1A73971   5.172  11.860   6.073
 5804POPC   D2A73972   5.170  12.129   6.484
 5804POPC   C3A73973   5.263  12.075   6.943
 5804POPC   C4A73974   5.470  12.374   7.234
 5804POPC   C1B73975   4.730  11.905   6.340
 5804POPC   C2B73976   4.817  11.852   6.800
 5804POPC   C3B73977   4.779  12.025   7.217
 5804POPC   C4B73978   4.758  11.933   7.655
 5805POPC   NC373979  37.188   0.504   5.489
 5805POPC   PO473980  36.714   0.832   5.125
 5805POPC   GL173981  36.700   0.530   5.652
 5805POPC   GL273982  36.709   0.162   5.846
 5805POPC   C1A73983  36.838   0.547   6.146
 5805POPC   D2A73984  36.788   0.426   6.587
 5805POPC   C3A73985  37.043   0.609   6.911
 5805POPC   C4A73986  37.106   0.596   7.342
 5805POPC   C1B73987  37.053   0.043   6.153
 5805POPC   C2B73988  37.249   0.165   6.551
 5805POPC   C3B73989  37.119   0.094   6.948
 5805POPC   C4B73990  36.800   0.227   7.198
 5806POPC   NC373991  33.036  22.751   5.345
 5806POPC   PO473992  32.393  22.922   5.515
 5806POPC   GL173993  32.757  22.870   5.868
 5806POPC   GL273994  33.113  22.743   5.843
 5806POPC   C1A73995  32.987  22.941   6.292
 5806POPC   D2A73996  33.034  22.735   6.666
 5806POPC   C3A73997  33.087  22.990   7.017
 5806POPC   C4A73998  32.994  23.116   7.431
 5806POPC   C1B73999  33.293  22.508   6.200
 5806POPC   C2B74000  33.517  22.545   6.601
 5806POPC   C3B74001  33.320  22.508   7.023
 5806POPC   C4B74002  33.399  22.772   7.379
 5807POPC   NC374003  12.293  20.627   5.411
 5807POPC   PO474004  11.581  20.543   5.367
 5807POPC   GL174005  11.915  20.542   5.751
 5807POPC   GL274006  12.182  20.716   5.900
 5807POPC   C1A74007  11.788  20.612   6.216
 5807POPC   D2A74008  11.674  20.350   6.572
 5807POPC   C3A74009  11.758  20.577   6.916
 5807POPC   C4A74010  11.866  20.471   7.305
 5807POPC   C1B74011  12.188  20.325   6.146
 5807POPC   C2B74012  12.188  20.487   6.569
 5807POPC   C3B74013  12.277  20.344   6.960
 5807POPC   C4B74014  12.399  20.439   7.377
 5808POPC   NC374015  21.075   4.479   5.383
 5808POPC   PO474016  21.784   4.235   5.360
 5808POPC   GL174017  21.700   4.177   5.752
 5808POPC   GL274018  21.371   4.328   5.794
 5808POPC   C1A74019  21.747   4.270   6.169
 5808POPC   D2A74020  21.565   4.384   6.526
 5808POPC   C3A74021  21.739   4.205   6.866
 5808POPC   C4A74022  21.457   4.280   7.148
 5808POPC   C1B74023  21.361   4.649   6.131
 5808POPC   C2B74024  21.160   4.706   6.536
 5808POPC   C3B74025  21.021   4.592   6.920
 5808POPC   C4B74026  21.135   4.700   7.298
 5809POPC   NC374027   8.464  37.065   5.355
 5809POPC   PO474028   7.954  36.657   5.514
 5809POPC   GL174029   8.078  36.907   5.864
 5809POPC   GL274030   8.354  37.114   5.834
 5809POPC   C1A74031   8.202  36.968   6.299
 5809POPC   D2A74032   7.977  36.967   6.667
 5809POPC   C3A74033   8.192  36.719   6.964
 5809POPC   C4A74034   8.111  36.869   7.360
 5809POPC   C1B74035   8.620  37.206   6.170
 5809POPC   C2B74036   8.476  37.345   6.537
 5809POPC   C3B74037   8.393  37.166   6.898
 5809POPC   C4B74038   8.298  37.324   7.246
 5810POPC   NC374039  31.047  21.591   5.438
 5810POPC   PO474040  30.484  21.417   5.359
 5810POPC   GL174041  30.721  21.310   5.736
 5810POPC   GL274042  30.976  21.077   5.582
 5810POPC   C1A74043  30.801  21.465   6.195
 5810POPC   D2A74044  30.684  21.341   6.636
 5810POPC   C3A74045  30.559  21.644   6.979
 5810POPC   C4A74046  30.568  21.472   7.410
 5810POPC   C1B74047  30.943  20.979   6.054
 5810POPC   C2B74048  31.082  20.848   6.491
 5810POPC   C3B74049  30.991  20.995   6.903
 5810POPC   C4B74050  31.019  20.767   7.279
 5811POPC   NC374051   7.778  28.351   5.043
 5811POPC   PO474052   7.111  28.367   5.333
 5811POPC   GL174053   7.290  28.448   5.813
 5811POPC   GL274054   7.609  28.638   5.871
 5811POPC   C1A74055   7.261  28.586   6.252
 5811POPC   D2A74056   7.450  28.563   6.655
 5811POPC   C3A74057   7.311  28.256   6.935
 5811POPC   C4A74058   7.248  28.436   7.328
 5811POPC   C1B74059   7.671  28.293   6.198
 5811POPC   C2B74060   7.844  28.200   6.620
 5811POPC   C3B74061   7.785  28.322   7.053
 5811POPC   C4B74062   7.618  28.083   7.401
 5812POPC   NC374063  23.527   6.806   5.312
 5812POPC   PO474064  24.139   6.473   5.230
 5812POPC   GL174065  23.941   6.648   5.661
 5812POPC   GL274066  23.594   6.553   5.768
 5812POPC   C1A74067  23.788   6.939   6.043
 5812POPC   D2A74068  23.520   7.031   6.440
 5812POPC   C3A74069  23.772   6.927   6.818
 5812POPC   C4A74070  24.008   7.038   7.212
 5812POPC   C1B74071  23.402   6.601   6.184
 5812POPC   C2B74072  23.193   6.629   6.616
 5812POPC   C3B74073  23.273   6.514   7.056
 5812POPC   C4B74074  23.652   6.670   7.240
 5813POPC   NC374075  15.865  28.081   5.644
 5813POPC   PO474076  15.825  27.510   5.458
 5813POPC   GL174077  15.741  27.621   5.879
 5813POPC   GL274078  15.443  27.785   5.820
 5813POPC   C1A74079  15.873  27.649   6.335
 5813POPC   D2A74080  15.919  27.401   6.733
 5813POPC   C3A74081  16.141  27.515   7.127
 5813POPC   C4A74082  16.038  27.539   7.587
 5813POPC   C1B74083  15.484  27.960   6.215
 5813POPC   C2B74084  15.501  27.877   6.644
 5813POPC   C3B74085  15.657  27.735   7.044
 5813POPC   C4B74086  15.657  27.856   7.481
 5814POPC   NC374087  37.556  17.613   5.047
 5814POPC   PO474088  37.573  17.237   5.623
 5814POPC   GL174089  37.727  17.616   5.861
 5814POPC   GL274090  37.414  17.649   6.027
 5814POPC   C1A74091  37.797  17.718   6.336
 5814POPC   D2A74092  37.610  17.429   6.648
 5814POPC   C3A74093  37.523  17.589   7.036
 5814POPC   C4A74094  37.662  17.470   7.425
 5814POPC   C1B74095  37.257  17.333   6.263
 5814POPC   C2B74096  37.045  17.165   6.579
 5814POPC   C3B74097  37.255  17.142   6.950
 5814POPC   C4B74098  37.370  17.050   7.349
 5815POPC   NC374099  24.953  24.524   5.256
 5815POPC   PO474100  25.516  24.316   5.222
 5815POPC   GL174101  25.365  24.380   5.641
 5815POPC   GL274102  25.429  24.742   5.686
 5815POPC   C1A74103  25.189  24.302   6.077
 5815POPC   D2A74104  25.142  24.432   6.521
 5815POPC   C3A74105  25.107  24.176   6.887
 5815POPC   C4A74106  25.142  24.446   7.214
 5815POPC   C1B74107  25.592  24.885   6.085
 5815POPC   C2B74108  25.637  24.670   6.465
 5815POPC   C3B74109  25.734  24.803   6.881
 5815POPC   C4B74110  25.512  24.796   7.264
 5816POPC   NC374111   4.611  20.561   5.268
 5816POPC   PO474112   4.114  21.003   5.346
 5816POPC   GL174113   4.059  20.771   5.737
 5816POPC   GL274114   4.293  21.005   5.852
 5816POPC   C1A74115   4.218  20.426   6.057
 5816POPC   D2A74116   4.431  20.474   6.498
 5816POPC   C3A74117   4.280  20.490   6.956
 5816POPC   C4A74118   4.024  20.460   7.335
 5816POPC   C1B74119   4.121  20.873   6.247
 5816POPC   C2B74120   3.967  20.709   6.619
 5816POPC   C3B74121   3.937  20.883   7.026
 5816POPC   C4B74122   4.161  21.042   7.362
 5817POPC   NC374123  15.201  25.478   5.352
 5817POPC   PO474124  15.169  24.761   5.422
 5817POPC   GL174125  15.188  25.108   5.701
 5817POPC   GL274126  14.920  25.382   5.766
 5817POPC   C1A74127  15.390  25.296   6.031
 5817POPC   D2A74128  15.418  25.222   6.489
 5817POPC   C3A74129  15.256  25.547   6.784
 5817POPC   C4A74130  15.309  25.628   7.236
 5817POPC   C1B74131  14.918  25.162   6.175
 5817POPC   C2B74132  14.846  25.181   6.610
 5817POPC   C3B74133  15.092  25.010   6.914
 5817POPC   C4B74134  15.098  25.055   7.329
 5818POPC   NC374135  44.937  27.014   5.436
 5818POPC   PO474136  44.229  26.851   5.584
 5818POPC   GL174137  44.552  26.846   5.947
 5818POPC   GL274138  44.861  26.994   5.915
 5818POPC   C1A74139  44.836  26.668   6.290
 5818POPC   D2A74140  44.723  26.614   6.709
 5818POPC   C3A74141  44.842  26.657   7.152
 5818POPC   C4A74142  44.474  26.805   7.303
 5818POPC   C1B74143  44.879  27.201   6.243
 5818POPC   C2B74144  44.876  27.100   6.605
 5818POPC   C3B74145  44.705  27.083   6.927
 5818POPC   C4B74146  44.820  27.243   7.221
 5819POPC   NC374147   9.083  36.648   5.492
 5819POPC   PO474148   8.870  37.259   5.466
 5819POPC   GL174149   8.891  36.996   5.811
 5819POPC   GL274150   8.649  36.714   5.750
 5819POPC   C1A74151   9.108  36.997   6.224
 5819POPC   D2A74152   9.357  36.919   6.602
 5819POPC   C3A74153   9.216  37.117   6.931
 5819POPC   C4A74154   9.160  36.902   7.297
 5819POPC   C1B74155   8.766  36.621   6.183
 5819POPC   C2B74156   8.655  36.836   6.543
 5819POPC   C3B74157   8.785  36.852   6.934
 5819POPC   C4B74158   8.613  36.748   7.288
 5820POPC   NC374159   4.527  35.277   5.403
 5820POPC   PO474160   4.002  35.693   5.262
 5820POPC   GL174161   4.054  35.558   5.707
 5820POPC   GL274162   4.142  35.213   5.768
 5820POPC   C1A74163   4.269  35.560   6.136
 5820POPC   D2A74164   4.451  35.672   6.526
 5820POPC   C3A74165   4.390  35.484   6.900
 5820POPC   C4A74166   4.103  35.252   7.048
 5820POPC   C1B74167   4.420  35.051   6.085
 5820POPC   C2B74168   4.391  35.129   6.520
 5820POPC   C3B74169   4.563  34.999   6.905
 5820POPC   C4B74170   4.352  34.824   7.203
 5821POPC   NC374171   6.251  10.793   5.645
 5821POPC   PO474172   6.645  10.295   5.516
 5821POPC   GL174173   6.592  10.438   5.923
 5821POPC   GL274174   6.945  10.451   5.973
 5821POPC   C1A74175   6.394  10.551   6.327
 5821POPC   D2A74176   6.541  10.639   6.753
 5821POPC   C3A74177   6.361  10.544   7.140
 5821POPC   C4A74178   6.387  10.419   7.545
 5821POPC   C1B74179   6.889  10.716   6.345
 5821POPC   C2B74180   7.076  10.684   6.762
 5821POPC   C3B74181   6.886  10.485   7.109
 5821POPC   C4B74182   6.874  10.530   7.546
 5822POPC   NC374183  23.893   0.707   5.372
 5822POPC   PO474184  23.334   0.356   5.425
 5822POPC   GL174185  23.537   0.554   5.791
 5822POPC   GL274186  23.885   0.482   5.839
 5822POPC   C1A74187  23.641   0.613   6.244
 5822POPC   D2A74188  23.762   0.338   6.547
 5822POPC   C3A74189  23.514   0.369   6.883
 5822POPC   C4A74190  23.482   0.719   7.163
 5822POPC   C1B74191  24.119   0.258   6.163
 5822POPC   C2B74192  24.094  44.965   6.529
 5822POPC   C3B74193  24.055   0.114   6.965
 5822POPC   C4B74194  23.808   0.312   7.301
 5823POPC   NC374195  17.472  12.248   5.409
 5823POPC   PO474196  18.080  12.026   5.763
 5823POPC   GL174197  17.664  12.082   5.953
 5823POPC   GL274198  17.305  12.276   5.881
 5823POPC   C1A74199  17.555  12.255   6.361
 5823POPC   D2A74200  17.575  12.317   6.803
 5823POPC   C3A74201  17.658  11.982   7.139
 5823POPC   C4A74202  17.788  11.987   7.611
 5823POPC   C1B74203  17.249  11.915   6.142
 5823POPC   C2B74204  17.402  11.850   6.602
 5823POPC   C3B74205  17.180  12.056   6.963
 5823POPC   C4B74206  17.087  11.852   7.279
 5824POPC   NC374207  13.213  11.002   5.437
 5824POPC   PO474208  12.659  11.430   5.447
 5824POPC   GL174209  12.855  11.241   5.761
 5824POPC   GL274210  12.897  11.580   5.871
 5824POPC   C1A74211  12.742  11.057   6.149
 5824POPC   D2A74212  12.588  11.194   6.547
 5824POPC   C3A74213  12.724  11.060   6.993
 5824POPC   C4A74214  12.540  11.029   7.419
 5824POPC   C1B74215  12.985  11.486   6.280
 5824POPC   C2B74216  13.018  11.392   6.700
 5824POPC   C3B74217  12.883  11.556   7.035
 5824POPC   C4B74218  12.898  11.368   7.443
 5825POPC   NC374219   5.508   9.395   5.389
 5825POPC   PO474220   5.022   8.895   5.389
 5825POPC   GL174221   5.067   8.928   5.818
 5825POPC   GL274222   5.401   8.858   5.778
 5825POPC   C1A74223   4.846   9.025   6.235
 5825POPC   D2A74224   4.727   8.894   6.662
 5825POPC   C3A74225   4.942   9.050   7.023
 5825POPC   C4A74226   5.199   9.323   7.273
 5825POPC   C1B74227   5.343   8.957   6.237
 5825POPC   C2B74228   5.263   8.822   6.667
 5825POPC   C3B74229   5.419   8.831   7.098
 5825POPC   C4B74230   5.502   8.981   7.511
 5826POPC   NC374231  15.048  28.515   5.366
 5826POPC   PO474232  15.078  27.876   5.475
 5826POPC   GL174233  15.085  28.183   5.759
 5826POPC   GL274234  15.416  28.295   5.754
 5826POPC   C1A74235  15.038  28.203   6.182
 5826POPC   D2A74236  15.207  28.300   6.574
 5826POPC   C3A74237  14.992  28.228   6.927
 5826POPC   C4A74238  14.837  28.512   7.205
 5826POPC   C1B74239  15.480  28.460   6.170
 5826POPC   C2B74240  15.627  28.580   6.594
 5826POPC   C3B74241  15.393  28.748   6.930
 5826POPC   C4B74242  15.316  28.604   7.308
 5827POPC   NC374243  17.822  16.314   5.434
 5827POPC   PO474244  17.562  16.936   5.548
 5827POPC   GL174245  17.738  16.816   5.912
 5827POPC   GL274246  17.548  16.508   5.903
 5827POPC   C1A74247  17.759  16.652   6.335
 5827POPC   D2A74248  17.451  16.564   6.639
 5827POPC   C3A74249  17.713  16.673   6.965
 5827POPC   C4A74250  17.770  16.408   7.280
 5827POPC   C1B74251  17.291  16.828   6.185
 5827POPC   C2B74252  17.098  16.934   6.590
 5827POPC   C3B74253  17.273  16.927   6.977
 5827POPC   C4B74254  17.299  16.618   7.267
 5828POPC   NC374255   6.240  37.014   5.459
 5828POPC   PO474256   5.572  36.778   5.395
 5828POPC   GL174257   5.669  36.787   5.818
 5828POPC   GL274258   6.009  36.692   5.801
 5828POPC   C1A74259   5.601  37.036   6.214
 5828POPC   D2A74260   5.830  37.078   6.619
 5828POPC   C3A74261   5.805  36.906   7.039
 5828POPC   C4A74262   5.636  36.709   7.414
 5828POPC   C1B74263   6.089  36.874   6.218
 5828POPC   C2B74264   6.175  36.653   6.634
 5828POPC   C3B74265   6.295  36.717   7.078
 5828POPC   C4B74266   6.105  36.886   7.464
 5829POPC   NC374267  26.932  33.634   5.443
 5829POPC   PO474268  26.442  33.957   5.449
 5829POPC   GL174269  26.537  33.739   5.839
 5829POPC   GL274270  26.578  33.386   5.746
 5829POPC   C1A74271  26.637  33.788   6.311
 5829POPC   D2A74272  26.926  33.745   6.693
 5829POPC   C3A74273  26.787  33.977   7.058
 5829POPC   C4A74274  26.459  34.310   7.078
 5829POPC   C1B74275  26.749  33.315   6.187
 5829POPC   C2B74276  26.774  33.243   6.670
 5829POPC   C3B74277  26.649  33.461   7.037
 5829POPC   C4B74278  26.714  33.553   7.460
 5830POPC   NC374279  10.251  39.744   5.478
 5830POPC   PO474280  10.696  40.224   5.323
 5830POPC   GL174281  10.662  39.970   5.702
 5830POPC   GL274282  10.386  40.130   5.791
 5830POPC   C1A74283  10.702  40.008   6.179
 5830POPC   D2A74284  10.742  40.275   6.572
 5830POPC   C3A74285  10.706  40.000   6.921
 5830POPC   C4A74286  10.412  39.774   7.180
 5830POPC   C1B74287  10.196  40.046   6.165
 5830POPC   C2B74288  10.325  39.974   6.559
 5830POPC   C3B74289  10.215  40.156   6.895
 5830POPC   C4B74290   9.994  40.080   7.217
 5831POPC   NC374291  13.880  22.573   5.112
 5831POPC   PO474292  13.374  22.985   5.350
 5831POPC   GL174293  13.567  22.925   5.813
 5831POPC   GL274294  13.459  23.192   5.913
 5831POPC   C1A74295  13.488  22.763   6.240
 5831POPC   D2A74296  13.542  22.931   6.648
 5831POPC   C3A74297  13.675  22.753   7.016
 5831POPC   C4A74298  13.918  22.925   7.363
 5831POPC   C1B74299  13.734  23.227   6.268
 5831POPC   C2B74300  13.709  23.438   6.628
 5831POPC   C3B74301  13.726  23.283   7.043
 5831POPC   C4B74302  13.565  23.258   7.484
 5832POPC   NC374303  22.360  21.892   5.079
 5832POPC   PO474304  22.152  21.337   5.399
 5832POPC   GL174305  21.997  21.241   5.785
 5832POPC   GL274306  21.935  20.864   5.771
 5832POPC   C1A74307  22.090  21.447   6.186
 5832POPC   D2A74308  22.378  21.486   6.527
 5832POPC   C3A74309  22.187  21.436   6.922
 5832POPC   C4A74310  22.355  21.328   7.318
 5832POPC   C1B74311  21.841  20.986   6.194
 5832POPC   C2B74312  21.762  21.212   6.543
 5832POPC   C3B74313  21.733  21.079   6.944
 5832POPC   C4B74314  21.847  21.346   7.298
 5833POPC   NC374315   2.997  16.586   5.581
 5833POPC   PO474316   2.441  16.857   5.325
 5833POPC   GL174317   2.466  16.748   5.800
 5833POPC   GL274318   2.575  16.387   5.897
 5833POPC   C1A74319   2.607  16.728   6.270
 5833POPC   D2A74320   2.904  16.692   6.628
 5833POPC   C3A74321   2.756  16.576   7.032
 5833POPC   C4A74322   2.647  16.475   7.460
 5833POPC   C1B74323   2.957  16.342   6.219
 5833POPC   C2B74324   3.260  16.295   6.604
 5833POPC   C3B74325   3.216  16.331   7.070
 5833POPC   C4B74326   3.122  16.276   7.501
 5834POPC   NC374327  26.451  26.678   5.506
 5834POPC   PO474328  27.101  26.716   5.471
 5834POPC   GL174329  26.849  26.857   5.822
 5834POPC   GL274330  26.886  27.212   5.760
 5834POPC   C1A74331  26.701  26.673   6.247
 5834POPC   D2A74332  26.549  26.590   6.693
 5834POPC   C3A74333  26.897  26.634   7.016
 5834POPC   C4A74334  27.223  26.585   7.341
 5834POPC   C1B74335  26.852  27.193   6.226
 5834POPC   C2B74336  26.818  27.021   6.655
 5834POPC   C3B74337  26.972  27.134   7.067
 5834POPC   C4B74338  27.103  27.494   7.280
 5835POPC   NC374339  19.640  35.449   5.529
 5835POPC   PO474340  20.282  35.405   5.515
 5835POPC   GL174341  20.019  35.341   5.889
 5835POPC   GL274342  19.785  35.050   5.845
 5835POPC   C1A74343  19.840  35.622   6.223
 5835POPC   D2A74344  19.499  35.645   6.537
 5835POPC   C3A74345  19.712  35.642   6.906
 5835POPC   C4A74346  19.951  35.645   7.255
 5835POPC   C1B74347  19.630  35.165   6.266
 5835POPC   C2B74348  19.761  35.192   6.698
 5835POPC   C3B74349  19.729  35.164   7.139
 5835POPC   C4B74350  19.764  35.296   7.567
 5836POPC   NC374351  37.922  42.711   5.508
 5836POPC   PO474352  37.881  43.388   5.426
 5836POPC   GL174353  37.660  43.274   5.844
 5836POPC   GL274354  37.687  42.940   5.886
 5836POPC   C1A74355  37.413  43.304   6.246
 5836POPC   D2A74356  37.594  43.415   6.695
 5836POPC   C3A74357  37.579  43.355   7.190
 5836POPC   C4A74358  37.363  43.494   7.640
 5836POPC   C1B74359  37.870  43.055   6.291
 5836POPC   C2B74360  37.865  42.939   6.716
 5836POPC   C3B74361  37.909  42.653   7.010
 5836POPC   C4B74362  37.716  42.817   7.299
 5837POPC   NC374363  34.272  16.985   5.201
 5837POPC   PO474364  33.783  16.571   5.468
 5837POPC   GL174365  33.940  16.551   5.908
 5837POPC   GL274366  34.118  16.858   5.848
 5837POPC   C1A74367  33.836  16.528   6.386
 5837POPC   D2A74368  33.580  16.741   6.705
 5837POPC   C3A74369  33.478  16.648   7.130
 5837POPC   C4A74370  33.508  17.012   7.350
 5837POPC   C1B74371  34.122  16.948   6.282
 5837POPC   C2B74372  34.071  16.937   6.711
 5837POPC   C3B74373  33.942  16.816   7.099
 5837POPC   C4B74374  34.080  16.577   7.401
 5838POPC   NC374375   4.240  21.847   5.449
 5838POPC   PO474376   4.200  22.549   5.283
 5838POPC   GL174377   4.296  22.399   5.766
 5838POPC   GL274378   4.326  22.036   5.897
 5838POPC   C1A74379   4.269  22.359   6.257
 5838POPC   D2A74380   4.473  22.144   6.599
 5838POPC   C3A74381   4.246  22.259   6.988
 5838POPC   C4A74382   4.034  22.562   7.224
 5838POPC   C1B74383   4.107  21.843   6.282
 5838POPC   C2B74384   4.154  21.767   6.737
 5838POPC   C3B74385   4.476  21.831   7.062
 5838POPC   C4B74386   4.394  22.046   7.437
 5839POPC   NC374387  12.625  33.156   5.254
 5839POPC   PO474388  13.067  32.710   5.447
 5839POPC   GL174389  13.100  33.028   5.745
 5839POPC   GL274390  12.761  33.106   5.794
 5839POPC   C1A74391  13.059  32.993   6.196
 5839POPC   D2A74392  12.833  32.979   6.570
 5839POPC   C3A74393  13.078  32.847   6.861
 5839POPC   C4A74394  13.226  32.988   7.238
 5839POPC   C1B74395  12.553  33.230   6.210
 5839POPC   C2B74396  12.515  33.360   6.660
 5839POPC   C3B74397  12.644  33.159   7.065
 5839POPC   C4B74398  12.662  32.971   7.463
 5840POPC   NC374399  19.496  42.632   5.618
 5840POPC   PO474400  19.885  43.067   5.200
 5840POPC   GL174401  19.899  42.984   5.657
 5840POPC   GL274402  19.622  43.149   5.762
 5840POPC   C1A74403  20.068  42.895   6.107
 5840POPC   D2A74404  19.957  42.798   6.573
 5840POPC   C3A74405  20.140  42.983   6.940
 5840POPC   C4A74406  20.059  43.338   7.204
 5840POPC   C1B74407  19.635  43.169   6.196
 5840POPC   C2B74408  19.539  43.095   6.609
 5840POPC   C3B74409  19.632  43.151   6.996
 5840POPC   C4B74410  19.749  42.965   7.336
 5841POPC   NC374411  10.244  34.109   5.310
 5841POPC   PO474412  10.289  33.466   5.410
 5841POPC   GL174413  10.266  33.659   5.775
 5841POPC   GL274414  10.614  33.735   5.824
 5841POPC   C1A74415  10.269  33.787   6.187
 5841POPC   D2A74416  10.411  33.848   6.596
 5841POPC   C3A74417  10.153  33.856   6.919
 5841POPC   C4A74418  10.349  33.855   7.277
 5841POPC   C1B74419  10.800  33.804   6.225
 5841POPC   C2B74420  10.860  33.624   6.628
 5841POPC   C3B74421  10.929  33.802   7.026
 5841POPC   C4B74422  10.853  33.616   7.413
 5842POPC   NC374423  36.104  40.541   5.408
 5842POPC   PO474424  36.142  41.201   5.499
 5842POPC   GL174425  36.033  40.876   5.816
 5842POPC   GL274426  35.787  40.614   5.840
 5842POPC   C1A74427  36.223  40.577   6.111
 5842POPC   D2A74428  36.470  40.711   6.463
 5842POPC   C3A74429  36.272  40.683   6.853
 5842POPC   C4A74430  36.125  40.963   7.177
 5842POPC   C1B74431  35.745  40.735   6.315
 5842POPC   C2B74432  35.755  40.742   6.802
 5842POPC   C3B74433  35.666  40.792   7.254
 5842POPC   C4B74434  35.950  40.845   7.669
 5843POPC   NC374435  27.877  14.056   5.465
 5843POPC   PO474436  27.501  13.538   5.449
 5843POPC   GL174437  27.485  13.816   5.815
 5843POPC   GL274438  27.271  13.566   6.007
 5843POPC   C1A74439  27.652  13.808   6.240
 5843POPC   D2A74440  27.436  13.612   6.628
 5843POPC   C3A74441  27.539  13.556   7.087
 5843POPC   C4A74442  27.483  13.687   7.526
 5843POPC   C1B74443  27.618  13.302   6.242
 5843POPC   C2B74444  27.878  13.242   6.652
 5843POPC   C3B74445  27.981  13.297   7.130
 5843POPC   C4B74446  28.013  13.591   7.508
 5844POPC   NC374447   1.632  18.792   5.134
 5844POPC   PO474448   1.044  18.925   5.370
 5844POPC   GL174449   1.142  19.042   5.811
 5844POPC   GL274450   1.069  19.361   5.844
 5844POPC   C1A74451   1.325  19.165   6.252
 5844POPC   D2A74452   1.279  19.291   6.698
 5844POPC   C3A74453   1.403  19.055   7.058
 5844POPC   C4A74454   1.406  18.878   7.506
 5844POPC   C1B74455   0.965  19.563   6.224
 5844POPC   C2B74456   1.001  19.698   6.623
 5844POPC   C3B74457   1.082  19.579   7.092
 5844POPC   C4B74458   1.052  19.238   7.434
 5845POPC   NC374459  41.443  44.264   5.364
 5845POPC   PO474460  41.780  44.821   5.216
 5845POPC   GL174461  41.561  44.709   5.650
 5845POPC   GL274462  41.235  44.508   5.767
 5845POPC   C1A74463  41.524  44.749   6.119
 5845POPC   D2A74464  41.552  44.539   6.529
 5845POPC   C3A74465  41.736  44.790   6.870
 5845POPC   C4A74466  41.433   0.021   7.144
 5845POPC   C1B74467  41.477  44.216   6.049
 5845POPC   C2B74468  41.697  44.057   6.416
 5845POPC   C3B74469  41.575  44.138   6.859
 5845POPC   C4B74470  41.418  44.473   7.130
 5846POPC   NC374471  16.150  16.765   5.470
 5846POPC   PO474472  15.575  16.894   5.607
 5846POPC   GL174473  15.798  16.683   5.894
 5846POPC   GL274474  16.063  16.453   5.872
 5846POPC   C1A74475  15.988  16.763   6.270
 5846POPC   D2A74476  15.823  16.635   6.635
 5846POPC   C3A74477  16.056  16.761   6.958
 5846POPC   C4A74478  15.782  16.866   7.266
 5846POPC   C1B74479  15.921  16.240   6.291
 5846POPC   C2B74480  16.008  16.184   6.791
 5846POPC   C3B74481  15.951  16.351   7.248
 5846POPC   C4B74482  16.122  16.285   7.684
 5847POPC   NC374483  26.700  32.655   5.283
 5847POPC   PO474484  26.756  32.017   5.412
 5847POPC   GL174485  26.709  32.250   5.810
 5847POPC   GL274486  26.833  32.584   5.786
 5847POPC   C1A74487  26.525  32.396   6.186
 5847POPC   D2A74488  26.414  32.321   6.590
 5847POPC   C3A74489  26.671  32.041   6.821
 5847POPC   C4A74490  26.950  32.197   7.104
 5847POPC   C1B74491  27.042  32.484   6.204
 5847POPC   C2B74492  26.895  32.463   6.641
 5847POPC   C3B74493  26.906  32.710   6.988
 5847POPC   C4B74494  27.137  32.624   7.375
 5848POPC   NC374495  38.120  38.222   5.462
 5848POPC   PO474496  38.680  38.684   5.454
 5848POPC   GL174497  38.485  38.435   5.765
 5848POPC   GL274498  38.223  38.658   5.771
 5848POPC   C1A74499  38.445  38.302   6.222
 5848POPC   D2A74500  38.602  38.115   6.637
 5848POPC   C3A74501  38.791  38.435   6.914
 5848POPC   C4A74502  38.665  38.682   7.252
 5848POPC   C1B74503  37.979  38.682   6.153
 5848POPC   C2B74504  38.139  38.608   6.559
 5848POPC   C3B74505  38.268  38.405   6.917
 5848POPC   C4B74506  38.152  38.592   7.264
 5849POPC   NC374507  38.877  17.685   5.520
 5849POPC   PO474508  39.533  17.621   5.482
 5849POPC   GL174509  39.284  17.541   5.825
 5849POPC   GL274510  38.975  17.313   5.870
 5849POPC   C1A74511  39.310  17.748   6.207
 5849POPC   D2A74512  39.139  17.638   6.611
 5849POPC   C3A74513  39.362  17.664   6.995
 5849POPC   C4A74514  39.043  17.484   7.259
 5849POPC   C1B74515  39.190  17.251   6.265
 5849POPC   C2B74516  39.373  17.173   6.680
 5849POPC   C3B74517  39.215  17.043   7.082
 5849POPC   C4B74518  39.311  17.095   7.519
 5850POPC   NC374519   9.478  39.833   5.466
 5850POPC   PO474520   8.969  40.321   5.504
 5850POPC   GL174521   9.181  40.083   5.849
 5850POPC   GL274522   9.520  40.218   5.841
 5850POPC   C1A74523   9.049  39.944   6.309
 5850POPC   D2A74524   8.686  39.791   6.568
 5850POPC   C3A74525   8.733  39.734   6.997
 5850POPC   C4A74526   8.996  39.973   7.281
 5850POPC   C1B74527   9.459  40.447   6.229
 5850POPC   C2B74528   9.334  40.288   6.624
 5850POPC   C3B74529   9.256  39.878   6.822
 5850POPC   C4B74530   9.452  39.760   7.216
 5851POPC   NC374531  40.318  28.217   5.163
 5851POPC   PO474532  40.939  28.482   5.307
 5851POPC   GL174533  40.728  28.515   5.695
 5851POPC   GL274534  40.579  28.195   5.674
 5851POPC   C1A74535  40.961  28.534   6.088
 5851POPC   D2A74536  40.989  28.372   6.504
 5851POPC   C3A74537  40.757  28.589   6.819
 5851POPC   C4A74538  40.946  28.463   7.191
 5851POPC   C1B74539  40.667  28.090   6.131
 5851POPC   C2B74540  40.480  28.209   6.541
 5851POPC   C3B74541  40.610  28.103   6.958
 5851POPC   C4B74542  40.773  28.026   7.384
 5852POPC   NC374543  41.874  43.612   5.430
 5852POPC   PO474544  41.331  43.843   5.167
 5852POPC   GL174545  41.445  43.775   5.654
 5852POPC   GL274546  41.762  43.780   5.905
 5852POPC   C1A74547  41.295  43.724   6.104
 5852POPC   D2A74548  41.197  43.925   6.502
 5852POPC   C3A74549  41.258  43.727   6.896
 5852POPC   C4A74550  41.314  43.921   7.297
 5852POPC   C1B74551  41.848  43.572   6.280
 5852POPC   C2B74552  41.742  43.627   6.701
 5852POPC   C3B74553  41.765  43.744   7.129
 5852POPC   C4B74554  41.714  43.677   7.555
 5853POPC   NC374555  25.260  41.535   5.354
 5853POPC   PO474556  24.834  41.954   5.148
 5853POPC   GL174557  25.017  41.627   5.765
 5853POPC   GL274558  25.349  41.449   5.854
 5853POPC   C1A74559  25.183  41.749   6.232
 5853POPC   D2A74560  25.132  41.806   6.699
 5853POPC   C3A74561  25.349  41.681   7.086
 5853POPC   C4A74562  25.307  41.774   7.541
 5853POPC   C1B74563  24.981  41.298   6.143
 5853POPC   C2B74564  24.881  41.357   6.574
 5853POPC   C3B74565  25.032  41.309   6.995
 5853POPC   C4B74566  25.110  41.327   7.476
 5854POPC   NC374567   1.407  22.815   5.313
 5854POPC   PO474568   0.991  23.286   5.205
 5854POPC   GL174569   1.121  23.166   5.702
 5854POPC   GL274570   1.226  22.838   5.811
 5854POPC   C1A74571   1.293  23.163   6.193
 5854POPC   D2A74572   1.195  23.006   6.624
 5854POPC   C3A74573   1.229  23.226   7.029
 5854POPC   C4A74574   1.062  22.969   7.377
 5854POPC   C1B74575   1.465  22.635   6.177
 5854POPC   C2B74576   1.526  22.628   6.628
 5854POPC   C3B74577   1.492  22.777   7.072
 5854POPC   C4B74578   1.571  22.992   7.482
 5855POPC   NC374579   6.057  21.659   5.694
 5855POPC   PO474580   5.587  22.084   5.326
 5855POPC   GL174581   5.841  22.124   5.706
 5855POPC   GL274582   5.614  21.899   5.875
 5855POPC   C1A74583   6.017  22.167   6.161
 5855POPC   D2A74584   5.878  22.358   6.592
 5855POPC   C3A74585   6.065  22.265   7.012
 5855POPC   C4A74586   6.265  21.949   7.276
 5855POPC   C1B74587   5.512  22.177   6.240
 5855POPC   C2B74588   5.389  22.147   6.670
 5855POPC   C3B74589   5.568  22.179   7.057
 5855POPC   C4B74590   5.644  22.575   7.221
 5856POPC   NC374591  21.544  19.237   5.383
 5856POPC   PO474592  21.460  18.645   5.505
 5856POPC   GL174593  21.280  18.967   5.766
 5856POPC   GL274594  21.085  19.263   5.646
 5856POPC   C1A74595  21.454  19.086   6.151
 5856POPC   D2A74596  21.682  18.985   6.518
 5856POPC   C3A74597  21.490  19.167   6.864
 5856POPC   C4A74598  21.584  19.307   7.261
 5856POPC   C1B74599  20.991  19.364   6.096
 5856POPC   C2B74600  21.055  19.357   6.578
 5856POPC   C3B74601  21.059  19.346   7.059
 5856POPC   C4B74602  21.080  19.078   7.434
 5857POPC   NC374603  35.700  26.259   5.136
 5857POPC   PO474604  36.152  25.864   5.482
 5857POPC   GL174605  36.345  26.139   5.776
 5857POPC   GL274606  36.076  26.160   6.004
 5857POPC   C1A74607  36.508  26.091   6.217
 5857POPC   D2A74608  36.211  26.137   6.526
 5857POPC   C3A74609  36.375  26.185   6.902
 5857POPC   C4A74610  36.262  26.165   7.302
 5857POPC   C1B74611  35.781  25.973   6.274
 5857POPC   C2B74612  35.686  26.094   6.689
 5857POPC   C3B74613  35.812  26.268   7.055
 5857POPC   C4B74614  35.777  26.110   7.460
 5858POPC   NC374615  25.013  32.778   5.292
 5858POPC   PO474616  25.576  33.170   5.474
 5858POPC   GL174617  25.265  33.151   5.736
 5858POPC   GL274618  25.391  33.353   6.007
 5858POPC   C1A74619  25.049  32.970   6.054
 5858POPC   D2A74620  24.978  32.859   6.490
 5858POPC   C3A74621  25.130  32.992   6.910
 5858POPC   C4A74622  25.357  32.895   7.326
 5858POPC   C1B74623  25.545  32.980   6.186
 5858POPC   C2B74624  25.510  32.796   6.592
 5858POPC   C3B74625  25.638  33.048   6.947
 5858POPC   C4B74626  25.512  33.388   7.246
 5859POPC   NC374627  15.442   2.382   5.307
 5859POPC   PO474628  15.082   1.823   5.380
 5859POPC   GL174629  15.373   1.872   5.713
 5859POPC   GL274630  15.437   2.233   5.788
 5859POPC   C1A74631  15.506   1.863   6.142
 5859POPC   D2A74632  15.636   1.698   6.521
 5859POPC   C3A74633  15.343   1.778   6.831
 5859POPC   C4A74634  15.385   1.899   7.221
 5859POPC   C1B74635  15.143   2.276   6.129
 5859POPC   C2B74636  14.990   2.228   6.560
 5859POPC   C3B74637  15.173   2.307   6.964
 5859POPC   C4B74638  15.004   2.244   7.355
 5860POPC   NC374639  18.775  22.508   5.431
 5860POPC   PO474640  18.705  21.915   5.365
 5860POPC   GL174641  19.012  22.097   5.680
 5860POPC   GL274642  18.864  22.358   5.898
 5860POPC   C1A74643  19.187  22.020   6.135
 5860POPC   D2A74644  19.265  21.728   6.500
 5860POPC   C3A74645  19.239  21.935   6.936
 5860POPC   C4A74646  18.917  21.985   7.261
 5860POPC   C1B74647  19.070  22.515   6.237
 5860POPC   C2B74648  19.012  22.338   6.629
 5860POPC   C3B74649  18.936  22.452   7.035
 5860POPC   C4B74650  19.277  22.373   7.297
 5861POPC   NC374651  26.329  32.194   5.466
 5861POPC   PO474652  25.772  32.207   5.658
 5861POPC   GL174653  26.082  32.232   5.945
 5861POPC   GL274654  26.146  32.543   5.881
 5861POPC   C1A74655  26.028  32.062   6.354
 5861POPC   D2A74656  26.147  31.919   6.726
 5861POPC   C3A74657  25.900  31.804   7.049
 5861POPC   C4A74658  25.925  31.984   7.468
 5861POPC   C1B74659  25.826  32.529   6.259
 5861POPC   C2B74660  25.959  32.518   6.683
 5861POPC   C3B74661  25.998  32.317   7.061
 5861POPC   C4B74662  25.718  32.491   7.314
 5862POPC   NC374663  23.583  25.396   5.369
 5862POPC   PO474664  24.117  25.129   5.418
 5862POPC   GL174665  23.856  25.279   5.776
 5862POPC   GL274666  23.475  25.179   5.808
 5862POPC   C1A74667  23.804  25.420   6.180
 5862POPC   D2A74668  23.778  25.176   6.525
 5862POPC   C3A74669  23.847  25.346   6.904
 5862POPC   C4A74670  23.964  25.068   7.261
 5862POPC   C1B74671  23.348  25.156   6.226
 5862POPC   C2B74672  23.308  25.391   6.600
 5862POPC   C3B74673  23.342  25.543   6.959
 5862POPC   C4B74674  23.512  25.312   7.274
 5863POPC   NC374675  24.954  42.417   5.132
 5863POPC   PO474676  25.353  41.993   5.579
 5863POPC   GL174677  25.171  42.211   5.956
 5863POPC   GL274678  25.012  42.533   5.800
 5863POPC   C1A74679  25.060  42.434   6.325
 5863POPC   D2A74680  25.204  42.479   6.757
 5863POPC   C3A74681  25.155  42.156   7.111
 5863POPC   C4A74682  24.916  42.083   7.519
 5863POPC   C1B74683  25.433  42.640   6.015
 5863POPC   C2B74684  25.650  42.637   6.412
 5863POPC   C3B74685  25.644  42.728   6.860
 5863POPC   C4B74686  25.478  42.520   7.197
 5864POPC   NC374687  22.200  36.536   5.304
 5864POPC   PO474688  21.696  36.658   5.641
 5864POPC   GL174689  22.124  36.619   5.834
 5864POPC   GL274690  22.400  36.883   5.826
 5864POPC   C1A74691  22.312  36.617   6.261
 5864POPC   D2A74692  22.515  36.764   6.642
 5864POPC   C3A74693  22.322  36.704   7.073
 5864POPC   C4A74694  21.945  36.794   7.360
 5864POPC   C1B74695  22.556  37.090   6.243
 5864POPC   C2B74696  22.759  37.245   6.657
 5864POPC   C3B74697  22.597  37.275   7.094
 5864POPC   C4B74698  22.320  37.123   7.454
 5865POPC   NC374699   8.212  13.756   5.270
 5865POPC   PO474700   8.056  13.224   5.637
 5865POPC   GL174701   8.355  13.428   5.903
 5865POPC   GL274702   8.528  13.677   5.688
 5865POPC   C1A74703   8.233  13.547   6.330
 5865POPC   D2A74704   8.327  13.614   6.760
 5865POPC   C3A74705   7.969  13.459   6.998
 5865POPC   C4A74706   8.013  13.617   7.423
 5865POPC   C1B74707   8.440  13.931   6.071
 5865POPC   C2B74708   8.492  14.052   6.517
 5865POPC   C3B74709   8.365  14.126   6.939
 5865POPC   C4B74710   8.183  14.143   7.329
 5866POPC   NC374711  44.236  31.807   5.582
 5866POPC   PO474712  43.801  31.265   5.621
 5866POPC   GL174713  43.614  31.260   6.015
 5866POPC   GL274714  43.913  31.471   6.098
 5866POPC   C1A74715  43.609  31.296   6.473
 5866POPC   D2A74716  43.879  31.586   6.642
 5866POPC   C3A74717  43.790  31.579   7.025
 5866POPC   C4A74718  43.727  31.181   7.182
 5866POPC   C1B74719  44.277  31.646   6.331
 5866POPC   C2B74720  44.301  31.831   6.773
 5866POPC   C3B74721  44.263  31.699   7.229
 5866POPC   C4B74722  44.267  31.766   7.707
 5867POPC   NC374723  42.653  31.205   5.410
 5867POPC   PO474724  42.300  30.648   5.113
 5867POPC   GL174725  42.403  30.761   5.536
 5867POPC   GL274726  42.719  30.685   5.668
 5867POPC   C1A74727  42.264  30.682   5.971
 5867POPC   D2A74728  42.180  30.696   6.422
 5867POPC   C3A74729  42.138  30.731   6.869
 5867POPC   C4A74730  42.255  30.882   7.278
 5867POPC   C1B74731  42.738  30.817   6.133
 5867POPC   C2B74732  42.663  30.653   6.562
 5867POPC   C3B74733  42.642  30.823   6.967
 5867POPC   C4B74734  42.718  30.690   7.422
 5868POPC   NC374735  44.571  41.204   5.147
 5868POPC   PO474736  44.285  40.675   5.614
 5868POPC   GL174737  44.513  40.823   5.909
 5868POPC   GL274738  44.832  40.907   5.833
 5868POPC   C1A74739  44.636  40.790   6.307
 5868POPC   D2A74740  44.537  40.949   6.659
 5868POPC   C3A74741  44.741  40.732   6.943
 5868POPC   C4A74742  44.608  40.869   7.304
 5868POPC   C1B74743   0.105  40.966   6.221
 5868POPC   C2B74744   0.054  41.047   6.676
 5868POPC   C3B74745   0.087  41.040   7.161
 5868POPC   C4B74746  44.945  41.083   7.620
 5869POPC   NC374747   5.253   5.056   5.459
 5869POPC   PO474748   4.678   5.418   5.446
 5869POPC   GL174749   4.960   5.296   5.817
 5869POPC   GL274750   5.334   5.317   5.889
 5869POPC   C1A74751   5.013   5.047   6.218
 5869POPC   D2A74752   5.229   4.844   6.584
 5869POPC   C3A74753   5.116   5.012   6.976
 5869POPC   C4A74754   4.865   4.997   7.345
 5869POPC   C1B74755   5.456   5.253   6.342
 5869POPC   C2B74756   5.548   5.242   6.790
 5869POPC   C3B74757   5.608   4.918   7.091
 5869POPC   C4B74758   5.346   4.813   7.439
 5870POPC   NC374759   9.027  38.363   5.317
 5870POPC   PO474760   8.447  38.369   5.646
 5870POPC   GL174761   8.795  38.708   5.858
 5870POPC   GL274762   9.167  38.677   5.940
 5870POPC   C1A74763   8.885  38.983   6.272
 5870POPC   D2A74764   8.649  38.809   6.646
 5870POPC   C3A74765   8.775  38.620   7.032
 5870POPC   C4A74766   8.668  38.230   7.183
 5870POPC   C1B74767   9.049  38.518   6.374
 5870POPC   C2B74768   9.207  38.466   6.809
 5870POPC   C3B74769   9.184  38.369   7.267
 5870POPC   C4B74770   9.343  38.266   7.701
 5871POPC   NC374771  41.137  33.897   5.463
 5871POPC   PO474772  41.776  33.849   5.353
 5871POPC   GL174773  41.628  33.871   5.745
 5871POPC   GL274774  41.840  33.610   5.817
 5871POPC   C1A74775  41.473  33.768   6.163
 5871POPC   D2A74776  41.416  33.611   6.575
 5871POPC   C3A74777  41.251  33.905   6.881
 5871POPC   C4A74778  41.453  33.952   7.271
 5871POPC   C1B74779  42.002  33.360   6.113
 5871POPC   C2B74780  41.785  33.268   6.457
 5871POPC   C3B74781  41.836  33.350   6.868
 5871POPC   C4B74782  41.812  33.553   7.250
 5872POPC   NC374783  38.783  16.866   5.383
 5872POPC   PO474784  38.080  16.720   5.374
 5872POPC   GL174785  38.366  16.820   5.730
 5872POPC   GL274786  38.663  16.561   5.767
 5872POPC   C1A74787  38.244  17.003   6.161
 5872POPC   D2A74788  38.412  16.874   6.546
 5872POPC   C3A74789  38.354  17.077   6.929
 5872POPC   C4A74790  38.244  16.899   7.312
 5872POPC   C1B74791  38.739  16.869   6.103
 5872POPC   C2B74792  38.915  16.921   6.540
 5872POPC   C3B74793  38.808  16.772   6.931
 5872POPC   C4B74794  38.794  16.866   7.356
 5873POPC   NC374795   4.061  42.931   5.478
 5873POPC   PO474796   4.026  42.205   5.437
 5873POPC   GL174797   4.356  42.291   5.777
 5873POPC   GL274798   4.631  42.567   5.739
 5873POPC   C1A74799   4.401  42.066   6.161
 5873POPC   D2A74800   4.356  42.353   6.485
 5873POPC   C3A74801   4.363  42.257   6.886
 5873POPC   C4A74802   4.310  42.060   7.278
 5873POPC   C1B74803   4.760  42.429   6.168
 5873POPC   C2B74804   4.859  42.470   6.622
 5873POPC   C3B74805   4.739  42.532   7.076
 5873POPC   C4B74806   4.744  42.254   7.412
 5874POPC   NC374807  39.104  32.871   5.418
 5874POPC   PO474808  39.544  33.398   5.369
 5874POPC   GL174809  39.325  33.200   5.747
 5874POPC   GL274810  39.388  32.793   5.822
 5874POPC   C1A74811  39.064  33.100   6.097
 5874POPC   D2A74812  39.022  32.979   6.514
 5874POPC   C3A74813  39.048  33.243   6.868
 5874POPC   C4A74814  39.131  32.990   7.208
 5874POPC   C1B74815  39.512  32.588   6.208
 5874POPC   C2B74816  39.577  32.731   6.640
 5874POPC   C3B74817  39.514  32.684   7.087
 5874POPC   C4B74818  39.514  32.792   7.550
 5875POPC   NC374819  33.025  27.676   5.323
 5875POPC   PO474820  32.702  27.294   5.576
 5875POPC   GL174821  32.873  27.666   5.823
 5875POPC   GL274822  33.242  27.713   5.798
 5875POPC   C1A74823  32.894  27.942   6.201
 5875POPC   D2A74824  33.122  27.988   6.627
 5875POPC   C3A74825  32.906  27.822   7.006
 5875POPC   C4A74826  32.801  27.552   7.396
 5875POPC   C1B74827  33.295  27.653   6.266
 5875POPC   C2B74828  33.200  27.473   6.695
 5875POPC   C3B74829  33.268  27.490   7.165
 5875POPC   C4B74830  33.513  27.372   7.554
 5876POPC   NC374831  33.582  42.332   5.442
 5876POPC   PO474832  34.240  42.053   5.426
 5876POPC   GL174833  34.035  42.140   5.842
 5876POPC   GL274834  33.717  42.266   5.916
 5876POPC   C1A74835  34.043  42.268   6.296
 5876POPC   D2A74836  33.826  42.273   6.717
 5876POPC   C3A74837  34.110  42.116   7.048
 5876POPC   C4A74838  34.037  41.819   7.401
 5876POPC   C1B74839  33.511  42.222   6.304
 5876POPC   C2B74840  33.327  41.959   6.594
 5876POPC   C3B74841  33.269  42.000   7.002
 5876POPC   C4B74842  33.616  42.058   7.247
 5877POPC   NC374843  14.651  23.084   5.490
 5877POPC   PO474844  14.006  22.866   5.435
 5877POPC   GL174845  14.068  23.028   5.832
 5877POPC   GL274846  14.296  23.298   5.813
 5877POPC   C1A74847  13.993  22.793   6.186
 5877POPC   D2A74848  14.074  22.913   6.604
 5877POPC   C3A74849  14.167  22.649   6.941
 5877POPC   C4A74850  14.463  22.746   7.287
 5877POPC   C1B74851  14.439  23.072   6.212
 5877POPC   C2B74852  14.611  23.120   6.650
 5877POPC   C3B74853  14.732  23.267   7.090
 5877POPC   C4B74854  14.880  23.113   7.511
 5878POPC   NC374855  18.080   4.559   5.597
 5878POPC   PO474856  18.282   3.973   5.270
 5878POPC   GL174857  18.453   4.120   5.705
 5878POPC   GL274858  18.196   4.235   5.955
 5878POPC   C1A74859  18.566   3.990   6.168
 5878POPC   D2A74860  18.635   4.214   6.593
 5878POPC   C3A74861  18.445   4.124   6.989
 5878POPC   C4A74862  18.262   4.229   7.396
 5878POPC   C1B74863  18.260   4.460   6.329
 5878POPC   C2B74864  18.083   4.617   6.680
 5878POPC   C3B74865  18.025   4.488   7.050
 5878POPC   C4B74866  18.051   4.696   7.469
 5879POPC   NC374867  44.521  41.975   5.391
 5879POPC   PO474868  44.590  42.567   5.613
 5879POPC   GL174869  44.768  42.294   5.905
 5879POPC   GL274870  44.978  42.578   6.001
 5879POPC   C1A74871  44.701  42.101   6.336
 5879POPC   D2A74872  44.463  42.315   6.665
 5879POPC   C3A74873  44.619  42.268   7.015
 5879POPC   C4A74874  44.597  41.968   7.317
 5879POPC   C1B74875  44.653  42.611   6.311
 5879POPC   C2B74876  44.835  42.689   6.731
 5879POPC   C3B74877  44.923  42.690   7.172
 5879POPC   C4B74878  44.715  42.447   7.484
 5880POPC   NC374879  17.129   1.577   5.454
 5880POPC   PO474880  17.383   2.133   5.121
 5880POPC   GL174881  17.401   1.936   5.674
 5880POPC   GL274882  17.219   1.713   5.931
 5880POPC   C1A74883  17.395   2.125   6.186
 5880POPC   D2A74884  17.596   2.376   6.555
 5880POPC   C3A74885  17.701   2.185   6.978
 5880POPC   C4A74886  17.465   2.113   7.346
 5880POPC   C1B74887  17.597   1.667   6.147
 5880POPC   C2B74888  17.635   1.841   6.568
 5880POPC   C3B74889  17.339   1.838   6.891
 5880POPC   C4B74890  17.416   1.604   7.249
 5881POPC   NC374891  17.954  43.694   5.469
 5881POPC   PO474892  18.421  44.167   5.261
 5881POPC   GL174893  18.385  43.954   5.681
 5881POPC   GL274894  18.300  43.639   5.854
 5881POPC   C1A74895  18.415  44.065   6.137
 5881POPC   D2A74896  18.138  44.071   6.518
 5881POPC   C3A74897  18.273  44.111   6.931
 5881POPC   C4A74898  18.151  44.002   7.303
 5881POPC   C1B74899  18.227  43.619   6.312
 5881POPC   C2B74900  18.442  43.681   6.725
 5881POPC   C3B74901  18.254  43.511   7.109
 5881POPC   C4B74902  17.977  43.556   7.487
 5882POPC   NC374903  25.105   8.730   5.480
 5882POPC   PO474904  25.496   9.307   5.336
 5882POPC   GL174905  25.486   9.044   5.687
 5882POPC   GL274906  25.148   9.092   5.842
 5882POPC   C1A74907  25.516   8.838   6.090
 5882POPC   D2A74908  25.301   8.945   6.468
 5882POPC   C3A74909  25.366   8.841   6.891
 5882POPC   C4A74910  25.066   8.782   7.209
 5882POPC   C1B74911  25.011   9.316   6.216
 5882POPC   C2B74912  24.957   9.258   6.664
 5882POPC   C3B74913  25.113   9.279   7.097
 5882POPC   C4B74914  25.152   9.395   7.538
 5883POPC   NC374915  12.359  22.390   5.566
 5883POPC   PO474916  12.363  21.739   5.435
 5883POPC   GL174917  12.082  21.922   5.765
 5883POPC   GL274918  11.915  22.265   5.790
 5883POPC   C1A74919  12.177  22.116   6.195
 5883POPC   D2A74920  12.266  22.297   6.601
 5883POPC   C3A74921  12.098  22.074   6.946
 5883POPC   C4A74922  12.333  21.838   7.240
 5883POPC   C1B74923  11.754  22.425   6.185
 5883POPC   C2B74924  11.830  22.562   6.616
 5883POPC   C3B74925  12.029  22.560   7.023
 5883POPC   C4B74926  11.901  22.482   7.438
 5884POPC   NC374927  17.131  26.624   5.579
 5884POPC   PO474928  16.425  26.802   5.498
 5884POPC   GL174929  16.695  26.683   5.867
 5884POPC   GL274930  16.720  27.001   5.962
 5884POPC   C1A74931  16.833  26.664   6.346
 5884POPC   D2A74932  16.652  26.767   6.791
 5884POPC   C3A74933  16.939  26.658   7.123
 5884POPC   C4A74934  16.908  26.515   7.547
 5884POPC   C1B74935  16.497  27.035   6.362
 5884POPC   C2B74936  16.427  27.243   6.753
 5884POPC   C3B74937  16.618  27.217   7.142
 5884POPC   C4B74938  16.463  27.241   7.566
 5885POPC   NC374939  43.409  10.258   5.448
 5885POPC   PO474940  42.949  10.694   5.372
 5885POPC   GL174941  43.105  10.517   5.775
 5885POPC   GL274942  43.465  10.577   5.839
 5885POPC   C1A74943  42.990  10.439   6.202
 5885POPC   D2A74944  42.936  10.133   6.538
 5885POPC   C3A74945  42.931  10.390   6.918
 5885POPC   C4A74946  42.751  10.377   7.332
 5885POPC   C1B74947  43.586  10.594   6.261
 5885POPC   C2B74948  43.387  10.371   6.527
 5885POPC   C3B74949  43.405  10.194   6.855
 5885POPC   C4B74950  43.404  10.370   7.231
 5886POPC   NC374951  17.751  26.155   5.459
 5886POPC   PO474952  17.418  25.653   5.253
 5886POPC   GL174953  17.480  25.645   5.732
 5886POPC   GL274954  17.824  25.685   5.895
 5886POPC   C1A74955  17.379  25.666   6.177
 5886POPC   D2A74956  17.639  25.809   6.554
 5886POPC   C3A74957  17.343  25.983   6.856
 5886POPC   C4A74958  17.249  25.753   7.231
 5886POPC   C1B74959  17.706  26.089   6.118
 5886POPC   C2B74960  17.636  26.342   6.507
 5886POPC   C3B74961  17.808  26.259   6.895
 5886POPC   C4B74962  17.734  25.904   7.162
 5887POPC   NC374963  28.711   7.486   5.311
 5887POPC   PO474964  28.303   6.935   5.411
 5887POPC   GL174965  28.538   7.220   5.698
 5887POPC   GL274966  28.401   7.605   5.704
 5887POPC   C1A74967  28.530   7.278   6.117
 5887POPC   D2A74968  28.543   7.103   6.513
 5887POPC   C3A74969  28.500   7.302   6.903
 5887POPC   C4A74970  28.429   7.085   7.273
 5887POPC   C1B74971  28.571   7.795   6.089
 5887POPC   C2B74972  28.590   7.639   6.494
 5887POPC   C3B74973  28.625   7.790   6.909
 5887POPC   C4B74974  28.338   7.699   7.247
 5888POPC   NC374975  36.199  30.952   5.419
 5888POPC   PO474976  35.796  30.573   5.134
 5888POPC   GL174977  35.835  30.672   5.636
 5888POPC   GL274978  36.044  30.444   5.858
 5888POPC   C1A74979  35.929  30.905   6.059
 5888POPC   D2A74980  35.942  30.815   6.512
 5888POPC   C3A74981  36.174  30.811   6.900
 5888POPC   C4A74982  35.872  30.831   7.222
 5888POPC   C1B74983  36.288  30.519   6.243
 5888POPC   C2B74984  36.482  30.332   6.651
 5888POPC   C3B74985  36.533  30.479   7.075
 5888POPC   C4B74986  36.172  30.433   7.346
 5889POPC   NC374987  33.062  31.751   5.338
 5889POPC   PO474988  33.211  31.157   5.679
 5889POPC   GL174989  32.886  31.370   5.902
 5889POPC   GL274990  32.971  31.718   5.844
 5889POPC   C1A74991  32.681  31.638   6.248
 5889POPC   D2A74992  32.816  31.759   6.691
 5889POPC   C3A74993  32.769  31.478   7.069
 5889POPC   C4A74994  32.648  31.483   7.511
 5889POPC   C1B74995  33.274  31.799   6.224
 5889POPC   C2B74996  33.574  31.800   6.615
 5889POPC   C3B74997  33.589  31.594   7.058
 5889POPC   C4B74998  33.265  31.326   7.294
 5890POPC   NC374999  33.357  34.176   5.538
 5890POPC   PO475000  32.717  33.947   5.339
 5890POPC   GL175001  32.758  33.838   5.768
 5890POPC   GL275002  33.087  33.858   5.822
 5890POPC   C1A75003  32.840  33.972   6.222
 5890POPC   D2A75004  33.077  33.973   6.622
 5890POPC   C3A75005  32.963  33.725   7.003
 5890POPC   C4A75006  32.746  33.787   7.415
 5890POPC   C1B75007  33.349  34.010   6.177
 5890POPC   C2B75008  33.549  34.261   6.524
 5890POPC   C3B75009  33.344  34.292   6.919
 5890POPC   C4B75010  33.386  33.955   7.185
 5891POPC   NC375011  30.747  23.335   5.449
 5891POPC   PO475012  31.392  23.481   5.511
 5891POPC   GL175013  31.019  23.585   5.839
 5891POPC   GL275014  30.651  23.489   5.914
 5891POPC   C1A75015  30.844  23.825   6.236
 5891POPC   D2A75016  30.661  23.779   6.665
 5891POPC   C3A75017  30.773  24.014   7.070
 5891POPC   C4A75018  30.993  24.048   7.499
 5891POPC   C1B75019  30.420  23.486   6.303
 5891POPC   C2B75020  30.383  23.327   6.732
 5891POPC   C3B75021  30.590  23.489   7.083
 5891POPC   C4B75022  30.545  23.716   7.439
 5892POPC   NC375023  13.235  25.251   5.460
 5892POPC   PO475024  12.553  25.130   5.317
 5892POPC   GL175025  12.734  25.122   5.731
 5892POPC   GL275026  12.555  25.440   5.793
 5892POPC   C1A75027  12.853  24.952   6.178
 5892POPC   D2A75028  13.132  24.999   6.586
 5892POPC   C3A75029  12.902  25.094   7.002
 5892POPC   C4A75030  12.521  24.923   7.217
 5892POPC   C1B75031  12.762  25.450   6.152
 5892POPC   C2B75032  12.715  25.327   6.551
 5892POPC   C3B75033  12.932  25.592   6.789
 5892POPC   C4B75034  12.812  25.588   7.169
 5893POPC   NC375035  42.976  27.334   5.296
 5893POPC   PO475036  43.634  27.449   5.548
 5893POPC   GL175037  43.246  27.547   5.816
 5893POPC   GL275038  42.898  27.421   5.809
 5893POPC   C1A75039  43.256  27.717   6.209
 5893POPC   D2A75040  43.532  27.612   6.546
 5893POPC   C3A75041  43.357  27.712   6.937
 5893POPC   C4A75042  43.169  27.419   7.164
 5893POPC   C1B75043  42.740  27.631   6.179
 5893POPC   C2B75044  42.899  27.735   6.606
 5893POPC   C3B75045  42.859  27.815   7.057
 5893POPC   C4B75046  42.955  27.766   7.502
 5894POPC   NC375047  15.478  17.337   5.574
 5894POPC   PO475048  14.993  17.757   5.331
 5894POPC   GL175049  15.072  17.657   5.765
 5894POPC   GL275050  15.070  17.342   5.897
 5894POPC   C1A75051  15.345  17.681   6.151
 5894POPC   D2A75052  15.446  17.524   6.559
 5894POPC   C3A75053  15.175  17.678   6.880
 5894POPC   C4A75054  15.002  17.678   7.272
 5894POPC   C1B75055  15.298  17.167   6.219
 5894POPC   C2B75056  15.462  17.016   6.591
 5894POPC   C3B75057  15.278  17.179   6.926
 5894POPC   C4B75058  15.390  17.343   7.246
 5895POPC   NC375059  31.969   3.963   5.529
 5895POPC   PO475060  32.415   3.529   5.332
 5895POPC   GL175061  32.231   3.553   5.740
 5895POPC   GL275062  32.338   3.896   5.870
 5895POPC   C1A75063  32.124   3.334   6.110
 5895POPC   D2A75064  32.306   3.450   6.518
 5895POPC   C3A75065  32.128   3.300   6.913
 5895POPC   C4A75066  32.269   3.305   7.330
 5895POPC   C1B75067  32.046   3.837   6.226
 5895POPC   C2B75068  31.928   3.748   6.670
 5895POPC   C3B75069  32.240   3.792   6.987
 5895POPC   C4B75070  32.575   3.869   7.254
 5896POPC   NC375071   3.914  15.367   5.377
 5896POPC   PO475072   4.511  14.996   5.446
 5896POPC   GL175073   4.308  15.135   5.835
 5896POPC   GL275074   4.616  15.076   6.037
 5896POPC   C1A75075   4.191  15.075   6.289
 5896POPC   D2A75076   4.436  15.078   6.658
 5896POPC   C3A75077   4.209  15.072   6.978
 5896POPC   C4A75078   4.331  14.888   7.348
 5896POPC   C1B75079   4.555  15.430   6.315
 5896POPC   C2B75080   4.324  15.583   6.698
 5896POPC   C3B75081   4.428  15.514   7.103
 5896POPC   C4B75082   4.722  15.206   7.142
 5897POPC   NC375083  40.012   9.377   5.054
 5897POPC   PO475084  39.930   8.846   5.534
 5897POPC   GL175085  40.042   8.985   5.909
 5897POPC   GL275086  40.293   8.754   5.902
 5897POPC   C1A75087  40.213   9.128   6.326
 5897POPC   D2A75088  40.016   9.121   6.727
 5897POPC   C3A75089  40.132   9.265   7.115
 5897POPC   C4A75090  39.953   9.219   7.532
 5897POPC   C1B75091  40.082   8.644   6.312
 5897POPC   C2B75092  40.164   8.647   6.727
 5897POPC   C3B75093  40.184   8.764   7.135
 5897POPC   C4B75094  40.193   8.774   7.534
 5898POPC   NC375095   0.863  31.251   5.516
 5898POPC   PO475096   0.274  30.852   5.426
 5898POPC   GL175097   0.338  30.621   5.797
 5898POPC   GL275098   0.460  30.921   5.921
 5898POPC   C1A75099   0.303  30.547   6.250
 5898POPC   D2A75100   0.587  30.629   6.612
 5898POPC   C3A75101   0.404  30.682   6.995
 5898POPC   C4A75102   0.016  30.479   7.015
 5898POPC   C1B75103   0.446  31.048   6.359
 5898POPC   C2B75104   0.582  31.144   6.795
 5898POPC   C3B75105   0.431  31.158   7.203
 5898POPC   C4B75106   0.428  31.113   7.636
 5899POPC   NC375107   5.431  43.468   5.186
 5899POPC   PO475108   4.969  43.925   5.329
 5899POPC   GL175109   4.884  43.759   5.769
 5899POPC   GL275110   4.618  43.505   5.801
 5899POPC   C1A75111   4.962  43.666   6.201
 5899POPC   D2A75112   5.165  43.912   6.491
 5899POPC   C3A75113   5.055  43.836   6.879
 5899POPC   C4A75114   5.055  43.965   7.277
 5899POPC   C1B75115   4.495  43.469   6.241
 5899POPC   C2B75116   4.706  43.482   6.665
 5899POPC   C3B75117   4.694  43.570   7.123
 5899POPC   C4B75118   4.861  43.589   7.574
 5900POPC   NC375119  11.559  23.986   5.392
 5900POPC   PO475120  10.920  23.749   5.340
 5900POPC   GL175121  11.175  23.879   5.733
 5900POPC   GL275122  11.515  23.716   5.831
 5900POPC   C1A75123  11.013  23.828   6.165
 5900POPC   D2A75124  10.940  23.618   6.592
 5900POPC   C3A75125  11.190  23.661   6.936
 5900POPC   C4A75126  11.127  23.540   7.351
 5900POPC   C1B75127  11.442  23.613   6.279
 5900POPC   C2B75128  11.355  23.968   6.557
 5900POPC   C3B75129  11.554  24.036   6.941
 5900POPC   C4B75130  11.569  23.770   7.278
 5901POPC   NC375131   7.021   9.193   5.305
 5901POPC   PO475132   7.580   8.787   5.403
 5901POPC   GL175133   7.263   8.785   5.702
 5901POPC   GL275134   7.447   9.054   5.889
 5901POPC   C1A75135   7.280   8.577   6.106
 5901POPC   D2A75136   7.559   8.803   6.406
 5901POPC   C3A75137   7.530   8.760   6.844
 5901POPC   C4A75138   7.411   8.925   7.222
 5901POPC   C1B75139   7.511   9.298   6.281
 5901POPC   C2B75140   7.250   9.240   6.657
 5901POPC   C3B75141   7.131   9.364   7.079
 5901POPC   C4B75142   7.435   9.380   7.436
 5902POPC   NC375143  11.342   6.975   5.462
 5902POPC   PO475144  11.244   6.372   5.483
 5902POPC   GL175145  11.184   6.503   5.882
 5902POPC   GL275146  11.159   6.828   5.901
 5902POPC   C1A75147  11.309   6.436   6.294
 5902POPC   D2A75148  11.323   6.682   6.628
 5902POPC   C3A75149  11.334   6.457   6.976
 5902POPC   C4A75150  11.203   6.402   7.366
 5902POPC   C1B75151  11.526   6.884   6.164
 5902POPC   C2B75152  11.775   6.932   6.514
 5902POPC   C3B75153  11.746   6.793   6.937
 5902POPC   C4B75154  11.504   6.849   7.294
 5903POPC   NC375155  40.965  29.578   5.528
 5903POPC   PO475156  40.582  30.071   5.418
 5903POPC   GL175157  40.626  29.897   5.828
 5903POPC   GL275158  40.961  29.968   5.908
 5903POPC   C1A75159  40.579  29.908   6.287
 5903POPC   D2A75160  40.827  30.215   6.551
 5903POPC   C3A75161  40.751  30.198   6.984
 5903POPC   C4A75162  40.599  29.967   7.310
 5903POPC   C1B75163  41.085  29.810   6.329
 5903POPC   C2B75164  40.946  29.755   6.777
 5903POPC   C3B75165  41.090  29.824   7.203
 5903POPC   C4B75166  40.941  29.677   7.636
 5904POPC   NC375167  38.254  36.704   5.417
 5904POPC   PO475168  38.812  37.140   5.512
 5904POPC   GL175169  38.737  36.812   5.808
 5904POPC   GL275170  38.398  36.767   5.888
 5904POPC   C1A75171  38.740  36.659   6.246
 5904POPC   D2A75172  38.516  36.757   6.627
 5904POPC   C3A75173  38.735  36.848   6.988
 5904POPC   C4A75174  38.688  36.726   7.462
 5904POPC   C1B75175  38.172  36.789   6.252
 5904POPC   C2B75176  38.024  36.616   6.652
 5904POPC   C3B75177  38.196  36.758   7.051
 5904POPC   C4B75178  38.412  37.118   7.263
 5905POPC   NC375179  30.838  11.949   5.428
 5905POPC   PO475180  30.465  11.651   5.782
 5905POPC   GL175181  30.642  12.023   6.003
 5905POPC   GL275182  30.964  12.091   5.893
 5905POPC   C1A75183  30.738  12.106   6.450
 5905POPC   D2A75184  30.817  11.922   6.859
 5905POPC   C3A75185  30.590  12.103   7.242
 5905POPC   C4A75186  30.233  12.345   7.455
 5905POPC   C1B75187  31.122  12.357   6.206
 5905POPC   C2B75188  31.185  12.352   6.670
 5905POPC   C3B75189  31.067  12.304   7.122
 5905POPC   C4B75190  31.140  12.565   7.504
 5906POPC   NC375191   2.015  37.296   5.356
 5906POPC   PO475192   2.027  36.692   5.339
 5906POPC   GL175193   2.000  36.908   5.749
 5906POPC   GL275194   1.740  37.181   5.795
 5906POPC   C1A75195   2.206  36.893   6.170
 5906POPC   D2A75196   2.176  36.658   6.585
 5906POPC   C3A75197   2.057  36.784   7.008
 5906POPC   C4A75198   1.655  36.658   7.213
 5906POPC   C1B75199   1.583  37.360   6.209
 5906POPC   C2B75200   1.589  37.247   6.677
 5906POPC   C3B75201   1.779  37.214   7.100
 5906POPC   C4B75202   2.212  37.198   7.295
 5907POPC   NC375203  32.991   9.952   5.461
 5907POPC   PO475204  33.359   9.329   5.344
 5907POPC   GL175205  33.235   9.320   5.770
 5907POPC   GL275206  33.278   9.670   5.765
 5907POPC   C1A75207  33.048   9.503   6.177
 5907POPC   D2A75208  32.844   9.704   6.534
 5907POPC   C3A75209  32.994   9.494   6.900
 5907POPC   C4A75210  32.948   9.653   7.307
 5907POPC   C1B75211  33.230  10.010   6.086
 5907POPC   C2B75212  33.310   9.959   6.523
 5907POPC   C3B75213  33.119  10.017   6.922
 5907POPC   C4B75214  33.322   9.988   7.300
 5908POPC   NC375215  14.364  27.418   5.193
 5908POPC   PO475216  14.169  27.987   5.562
 5908POPC   GL175217  14.352  27.582   5.755
 5908POPC   GL275218  14.550  27.298   5.663
 5908POPC   C1A75219  14.242  27.537   6.171
 5908POPC   D2A75220  14.194  27.907   6.440
 5908POPC   C3A75221  14.403  27.898   6.833
 5908POPC   C4A75222  14.153  27.621   7.113
 5908POPC   C1B75223  14.600  27.191   6.112
 5908POPC   C2B75224  14.606  27.446   6.525
 5908POPC   C3B75225  14.671  27.482   6.991
 5908POPC   C4B75226  14.846  27.646   7.407
 5909POPC   NC375227  42.861  26.709   5.512
 5909POPC   PO475228  43.343  27.087   5.196
 5909POPC   GL175229  43.214  27.047   5.677
 5909POPC   GL275230  43.193  26.743   5.907
 5909POPC   C1A75231  43.221  27.178   6.145
 5909POPC   D2A75232  43.333  26.988   6.540
 5909POPC   C3A75233  43.047  26.979   6.917
 5909POPC   C4A75234  43.170  26.905   7.312
 5909POPC   C1B75235  43.273  26.503   6.271
 5909POPC   C2B75236  43.011  26.584   6.608
 5909POPC   C3B75237  43.065  26.439   7.022
 5909POPC   C4B75238  42.787  26.559   7.283
 5910POPC   NC375239  14.121  19.247   5.295
 5910POPC   PO475240  13.601  18.867   5.314
 5910POPC   GL175241  13.546  18.904   5.770
 5910POPC   GL275242  13.642  19.220   5.946
 5910POPC   C1A75243  13.468  18.820   6.218
 5910POPC   D2A75244  13.675  18.932   6.628
 5910POPC   C3A75245  13.621  18.998   7.071
 5910POPC   C4A75246  14.048  19.048   7.299
 5910POPC   C1B75247  13.480  19.335   6.373
 5910POPC   C2B75248  13.219  19.334   6.771
 5910POPC   C3B75249  13.286  19.358   7.230
 5910POPC   C4B75250  13.370  19.337   7.680
 5911POPC   NC375251  21.560   5.353   5.399
 5911POPC   PO475252  21.069   4.905   5.561
 5911POPC   GL175253  21.515   4.964   5.737
 5911POPC   GL275254  21.761   4.682   5.738
 5911POPC   C1A75255  21.590   5.204   6.087
 5911POPC   D2A75256  21.275   5.162   6.372
 5911POPC   C3A75257  21.358   5.180   6.792
 5911POPC   C4A75258  21.229   5.190   7.175
 5911POPC   C1B75259  21.874   4.777   6.148
 5911POPC   C2B75260  21.711   4.899   6.542
 5911POPC   C3B75261  21.555   4.729   6.944
 5911POPC   C4B75262  21.625   4.663   7.418
 5912POPC   NC375263  25.079  43.695   5.389
 5912POPC   PO475264  24.595  44.082   5.634
 5912POPC   GL175265  24.961  43.957   5.892
 5912POPC   GL275266  25.331  43.899   5.798
 5912POPC   C1A75267  25.116  43.956   6.317
 5912POPC   D2A75268  25.107  43.667   6.645
 5912POPC   C3A75269  25.191  43.936   6.961
 5912POPC   C4A75270  24.841  44.086   7.112
 5912POPC   C1B75271  25.582  44.056   6.163
 5912POPC   C2B75272  25.540  44.037   6.598
 5912POPC   C3B75273  25.578  44.293   6.956
 5912POPC   C4B75274  25.679  44.119   7.350
 5913POPC   NC375275  13.229  33.940   5.114
 5913POPC   PO475276  12.615  33.631   5.294
 5913POPC   GL175277  12.730  33.761   5.711
 5913POPC   GL275278  13.025  33.560   5.659
 5913POPC   C1A75279  12.865  33.975   6.138
 5913POPC   D2A75280  12.843  33.755   6.558
 5913POPC   C3A75281  12.706  33.762   7.008
 5913POPC   C4A75282  12.579  34.048   7.347
 5913POPC   C1B75283  12.991  33.484   6.090
 5913POPC   C2B75284  13.226  33.434   6.466
 5913POPC   C3B75285  13.058  33.367   6.851
 5913POPC   C4B75286  13.108  33.479   7.252
 5914POPC   NC375287  24.109   6.054   5.424
 5914POPC   PO475288  23.592   5.643   5.341
 5914POPC   GL175289  23.808   5.710   5.718
 5914POPC   GL275290  23.788   6.074   5.819
 5914POPC   C1A75291  23.899   5.708   6.153
 5914POPC   D2A75292  23.997   5.907   6.537
 5914POPC   C3A75293  23.850   5.757   6.880
 5914POPC   C4A75294  24.067   5.767   7.234
 5914POPC   C1B75295  23.685   6.191   6.255
 5914POPC   C2B75296  23.566   6.208   6.708
 5914POPC   C3B75297  23.814   6.207   7.122
 5914POPC   C4B75298  23.724   6.287   7.579
 5915POPC   NC375299  43.149  44.491   5.478
 5915POPC   PO475300  42.946  43.838   5.598
 5915POPC   GL175301  43.106  44.028   5.924
 5915POPC   GL275302  43.393  44.209   5.823
 5915POPC   C1A75303  43.245  43.809   6.290
 5915POPC   D2A75304  43.274  43.467   6.610
 5915POPC   C3A75305  43.281  43.778   6.928
 5915POPC   C4A75306  43.084  43.923   7.303
 5915POPC   C1B75307  43.364  44.323   6.250
 5915POPC   C2B75308  43.518  44.157   6.637
 5915POPC   C3B75309  43.368  44.296   7.045
 5915POPC   C4B75310  43.462  44.219   7.477
 5916POPC   NC375311  22.773  12.880   5.287
 5916POPC   PO475312  22.768  13.487   5.476
 5916POPC   GL175313  22.899  13.149   5.771
 5916POPC   GL275314  22.775  12.799   5.789
 5916POPC   C1A75315  22.856  13.058   6.230
 5916POPC   D2A75316  22.684  13.103   6.641
 5916POPC   C3A75317  22.847  12.809   6.932
 5916POPC   C4A75318  22.882  12.877   7.362
 5916POPC   C1B75319  23.067  12.602   6.106
 5916POPC   C2B75320  23.118  12.553   6.568
 5916POPC   C3B75321  23.233  12.423   7.002
 5916POPC   C4B75322  23.237  12.513   7.459
 5917POPC   NC375323  26.904  21.071   5.509
 5917POPC   PO475324  26.624  20.446   5.377
 5917POPC   GL175325  26.664  20.545   5.801
 5917POPC   GL275326  26.942  20.707   5.888
 5917POPC   C1A75327  26.648  20.567   6.265
 5917POPC   D2A75328  26.739  20.872   6.546
 5917POPC   C3A75329  26.792  20.747   6.933
 5917POPC   C4A75330  26.915  20.421   7.211
 5917POPC   C1B75331  27.135  20.459   6.259
 5917POPC   C2B75332  27.063  20.334   6.707
 5917POPC   C3B75333  27.241  20.083   7.077
 5917POPC   C4B75334  27.210  20.226   7.577
 5918POPC   NC375335  25.993   8.702   5.177
 5918POPC   PO475336  26.149   8.002   5.403
 5918POPC   GL175337  26.025   8.265   5.752
 5918POPC   GL275338  25.721   8.367   5.944
 5918POPC   C1A75339  26.151   8.261   6.187
 5918POPC   D2A75340  25.926   8.118   6.555
 5918POPC   C3A75341  26.098   8.109   6.957
 5918POPC   C4A75342  26.201   8.535   7.073
 5918POPC   C1B75343  25.594   7.997   6.180
 5918POPC   C2B75344  25.597   7.733   6.614
 5918POPC   C3B75345  25.553   7.962   7.041
 5918POPC   C4B75346  25.819   8.147   7.390
 5919POPC   NC375347   8.348  43.833   5.312
 5919POPC   PO475348   7.740  43.820   5.371
 5919POPC   GL175349   7.983  43.744   5.720
 5919POPC   GL275350   8.094  44.020   5.724
 5919POPC   C1A75351   7.991  43.594   6.139
 5919POPC   D2A75352   8.201  43.485   6.510
 5919POPC   C3A75353   8.106  43.659   6.902
 5919POPC   C4A75354   8.541  43.750   6.865
 5919POPC   C1B75355   7.928  44.090   6.104
 5919POPC   C2B75356   8.064  44.002   6.504
 5919POPC   C3B75357   8.038  44.157   6.917
 5919POPC   C4B75358   7.842  44.118   7.329
 5920POPC   NC375359  39.831   0.300   5.264
 5920POPC   PO475360  40.164   0.878   5.384
 5920POPC   GL175361  40.032   0.523   5.722
 5920POPC   GL275362  39.771   0.216   5.762
 5920POPC   C1A75363  39.965   0.552   6.193
 5920POPC   D2A75364  39.811   0.784   6.579
 5920POPC   C3A75365  39.969   0.631   7.012
 5920POPC   C4A75366  40.181   0.206   7.126
 5920POPC   C1B75367  39.536   0.264   6.167
 5920POPC   C2B75368  39.538   0.335   6.621
 5920POPC   C3B75369  39.663   0.220   7.049
 5920POPC   C4B75370  39.823  44.934   7.397
 5921POPC   NC375371   6.160  44.063   5.523
 5921POPC   PO475372   5.859  43.604   5.140
 5921POPC   GL175373   5.672  43.768   5.597
 5921POPC   GL275374   5.875  43.951   5.906
 5921POPC   C1A75375   5.414  43.817   6.016
 5921POPC   D2A75376   5.662  43.847   6.420
 5921POPC   C3A75377   5.557  43.932   6.872
 5921POPC   C4A75378   5.584  43.947   7.324
 5921POPC   C1B75379   5.964  44.240   6.262
 5921POPC   C2B75380   5.920  44.259   6.697
 5921POPC   C3B75381   6.026  44.094   7.105
 5921POPC   C4B75382   6.343  44.194   7.405
 5922POPC   NC375383  24.936  10.459   5.437
 5922POPC   PO475384  24.270  10.510   5.475
 5922POPC   GL175385  24.405  10.614   5.887
 5922POPC   GL275386  24.739  10.703   5.833
 5922POPC   C1A75387  24.374  10.633   6.330
 5922POPC   D2A75388  24.217  10.442   6.712
 5922POPC   C3A75389  24.461  10.521   7.076
 5922POPC   C4A75390  24.341  10.546   7.503
 5922POPC   C1B75391  24.876  10.479   6.200
 5922POPC   C2B75392  24.769  10.462   6.639
 5922POPC   C3B75393  24.858  10.177   6.986
 5922POPC   C4B75394  24.810  10.253   7.444
 5923POPC   NC375395  10.066  36.639   5.333
 5923POPC   PO475396   9.369  36.960   5.293
 5923POPC   GL175397   9.430  36.921   5.762
 5923POPC   GL275398   9.741  36.723   5.746
 5923POPC   C1A75399   9.641  36.937   6.191
 5923POPC   D2A75400   9.901  36.794   6.573
 5923POPC   C3A75401   9.827  37.025   6.956
 5923POPC   C4A75402   9.565  37.209   7.280
 5923POPC   C1B75403  10.094  36.707   6.070
 5923POPC   C2B75404  10.371  36.624   6.434
 5923POPC   C3B75405  10.315  36.367   6.811
 5923POPC   C4B75406  10.063  36.554   7.131
 5924POPC   NC375407   7.486  31.980   5.524
 5924POPC   PO475408   7.030  32.528   5.427
 5924POPC   GL175409   7.413  32.477   5.709
 5924POPC   GL275410   7.501  32.189   5.973
 5924POPC   C1A75411   7.501  32.645   6.165
 5924POPC   D2A75412   7.538  32.447   6.583
 5924POPC   C3A75413   7.566  32.380   7.037
 5924POPC   C4A75414   7.565  31.959   7.205
 5924POPC   C1B75415   7.250  32.073   6.335
 5924POPC   C2B75416   7.254  32.064   6.791
 5924POPC   C3B75417   7.059  31.885   7.138
 5924POPC   C4B75418   7.131  31.747   7.569
 5925POPC   NC375419  27.104  18.120   5.497
 5925POPC   PO475420  26.503  18.098   5.581
 5925POPC   GL175421  26.753  18.050   5.903
 5925POPC   GL275422  26.840  18.367   5.896
 5925POPC   C1A75423  26.639  18.123   6.315
 5925POPC   D2A75424  26.872  18.139   6.659
 5925POPC   C3A75425  26.692  17.886   6.956
 5925POPC   C4A75426  26.869  17.973   7.331
 5925POPC   C1B75427  26.979  18.528   6.244
 5925POPC   C2B75428  26.778  18.646   6.599
 5925POPC   C3B75429  26.779  18.519   7.004
 5925POPC   C4B75430  26.581  18.724   7.298
 5926POPC   NC375431  24.402  44.431   5.424
 5926POPC   PO475432  24.791  44.857   5.192
 5926POPC   GL175433  24.626  44.855   5.663
 5926POPC   GL275434  24.720  44.521   5.852
 5926POPC   C1A75435  24.455  44.849   6.119
 5926POPC   D2A75436  24.717  44.751   6.495
 5926POPC   C3A75437  24.510  44.866   6.847
 5926POPC   C4A75438  24.425  44.734   7.221
 5926POPC   C1B75439  24.741  44.294   6.265
 5926POPC   C2B75440  24.976  44.329   6.667
 5926POPC   C3B75441  24.895  44.580   7.058
 5926POPC   C4B75442  24.774  44.459   7.491
 5927POPC   NC375443  22.980   4.152   5.605
 5927POPC   PO475444  22.834   3.440   5.440
 5927POPC   GL175445  22.883   3.474   5.854
 5927POPC   GL275446  23.081   3.737   5.889
 5927POPC   C1A75447  22.914   3.229   6.241
 5927POPC   D2A75448  22.774   3.296   6.653
 5927POPC   C3A75449  23.031   3.255   7.005
 5927POPC   C4A75450  23.349   3.513   7.135
 5927POPC   C1B75451  22.801   3.744   6.279
 5927POPC   C2B75452  22.679   3.815   6.697
 5927POPC   C3B75453  22.815   3.718   7.098
 5927POPC   C4B75454  22.840   3.998   7.439
 5928POPC   NC375455  33.325  19.226   5.392
 5928POPC   PO475456  32.659  18.908   5.447
 5928POPC   GL175457  32.942  19.143   5.775
 5928POPC   GL275458  33.317  19.085   5.869
 5928POPC   C1A75459  32.997  19.181   6.255
 5928POPC   D2A75460  32.849  19.418   6.600
 5928POPC   C3A75461  33.094  19.330   6.954
 5928POPC   C4A75462  33.057  19.075   7.291
 5928POPC   C1B75463  33.480  19.025   6.288
 5928POPC   C2B75464  33.439  19.002   6.741
 5928POPC   C3B75465  33.514  18.931   7.190
 5928POPC   C4B75466  33.352  18.793   7.630
 5929POPC   NC375467   2.276  24.888   5.153
 5929POPC   PO475468   1.716  24.893   5.542
 5929POPC   GL175469   1.830  24.463   5.770
 5929POPC   GL275470   1.514  24.308   5.835
 5929POPC   C1A75471   2.046  24.332   6.196
 5929POPC   D2A75472   2.013  24.298   6.673
 5929POPC   C3A75473   2.369  24.441   6.978
 5929POPC   C4A75474   2.345  24.490   7.441
 5929POPC   C1B75475   1.615  24.600   6.209
 5929POPC   C2B75476   1.691  24.731   6.663
 5929POPC   C3B75477   1.904  24.641   7.072
 5929POPC   C4B75478   1.959  24.232   7.220
 5930POPC   NC375479  17.053  42.388   5.244
 5930POPC   PO475480  16.482  42.039   5.303
 5930POPC   GL175481  16.652  42.317   5.667
 5930POPC   GL275482  16.994  42.389   5.765
 5930POPC   C1A75483  16.671  42.343   6.148
 5930POPC   D2A75484  16.371  42.239   6.480
 5930POPC   C3A75485  16.538  42.308   6.904
 5930POPC   C4A75486  16.654  42.168   7.291
 5930POPC   C1B75487  17.157  42.509   6.230
 5930POPC   C2B75488  16.929  42.534   6.647
 5930POPC   C3B75489  16.956  42.565   7.123
 5930POPC   C4B75490  16.699  42.671   7.495
 5931POPC   NC375491  19.217   5.348   5.413
 5931POPC   PO475492  18.701   4.918   5.298
 5931POPC   GL175493  18.839   5.085   5.759
 5931POPC   GL275494  19.227   5.129   5.880
 5931POPC   C1A75495  18.893   4.963   6.236
 5931POPC   D2A75496  19.094   5.114   6.637
 5931POPC   C3A75497  18.875   5.035   7.048
 5931POPC   C4A75498  18.894   4.870   7.499
 5931POPC   C1B75499  19.390   5.415   6.201
 5931POPC   C2B75500  19.298   5.623   6.605
 5931POPC   C3B75501  19.417   5.382   6.961
 5931POPC   C4B75502  19.291   5.127   7.310
 5932POPC   NC375503  40.940  40.875   5.329
 5932POPC   PO475504  40.673  40.294   5.385
 5932POPC   GL175505  40.881  40.514   5.743
 5932POPC   GL275506  40.766  40.876   5.814
 5932POPC   C1A75507  40.722  40.501   6.156
 5932POPC   D2A75508  40.486  40.807   6.377
 5932POPC   C3A75509  40.482  40.797   6.848
 5932POPC   C4A75510  40.343  40.652   7.253
 5932POPC   C1B75511  41.100  40.842   6.159
 5932POPC   C2B75512  41.266  40.856   6.593
 5932POPC   C3B75513  41.124  41.011   7.012
 5932POPC   C4B75514  40.827  40.862   7.328
 5933POPC   NC375515   0.282  21.831   5.475
 5933POPC   PO475516   0.760  22.296   5.178
 5933POPC   GL175517   0.635  22.165   5.604
 5933POPC   GL275518   0.810  21.835   5.621
 5933POPC   C1A75519   0.362  22.241   5.985
 5933POPC   D2A75520   0.239  22.049   6.379
 5933POPC   C3A75521   0.287  22.253   6.794
 5933POPC   C4A75522   0.413  22.257   7.249
 5933POPC   C1B75523   0.836  22.018   6.054
 5933POPC   C2B75524   0.713  22.121   6.477
 5933POPC   C3B75525   0.799  22.171   6.910
 5933POPC   C4B75526   0.938  21.968   7.266
 5934POPC   NC375527  20.104  27.047   5.392
 5934POPC   PO475528  19.539  26.753   5.393
 5934POPC   GL175529  19.808  26.780   5.761
 5934POPC   GL275530  19.968  26.476   5.836
 5934POPC   C1A75531  19.600  26.726   6.179
 5934POPC   D2A75532  19.643  26.743   6.636
 5934POPC   C3A75533  19.685  27.102   6.919
 5934POPC   C4A75534  19.966  27.161   7.302
 5934POPC   C1B75535  20.092  26.650   6.213
 5934POPC   C2B75536  20.152  26.871   6.583
 5934POPC   C3B75537  20.017  26.730   6.995
 5934POPC   C4B75538  20.234  26.614   7.334
 5935POPC   NC375539  40.650  24.007   5.402
 5935POPC   PO475540  41.039  24.453   5.496
 5935POPC   GL175541  40.873  24.470   5.873
 5935POPC   GL275542  40.696  24.190   5.856
 5935POPC   C1A75543  40.652  24.533   6.255
 5935POPC   D2A75544  40.717  24.637   6.695
 5935POPC   C3A75545  40.988  24.369   6.950
 5935POPC   C4A75546  41.121  24.429   7.380
 5935POPC   C1B75547  40.892  24.029   6.182
 5935POPC   C2B75548  40.733  24.132   6.566
 5935POPC   C3B75549  40.557  24.074   6.946
 5935POPC   C4B75550  40.759  24.077   7.315
 5936POPC   NC375551  38.687   8.782   5.507
 5936POPC   PO475552  38.045   9.051   5.595
 5936POPC   GL175553  38.263   9.176   5.873
 5936POPC   GL275554  38.578   9.247   5.698
 5936POPC   C1A75555  38.209   9.048   6.310
 5936POPC   D2A75556  38.390   8.857   6.666
 5936POPC   C3A75557  38.242   9.060   7.020
 5936POPC   C4A75558  38.125   8.766   7.272
 5936POPC   C1B75559  38.696   9.085   6.130
 5936POPC   C2B75560  38.649   9.265   6.548
 5936POPC   C3B75561  38.734   9.091   6.980
 5936POPC   C4B75562  38.775   9.373   7.277
 5937POPC   NC375563   2.187  25.589   5.354
 5937POPC   PO475564   2.085  26.182   5.680
 5937POPC   GL175565   2.089  25.861   5.940
 5937POPC   GL275566   1.738  25.849   5.966
 5937POPC   C1A75567   2.089  25.829   6.403
 5937POPC   D2A75568   1.754  25.821   6.676
 5937POPC   C3A75569   1.885  25.956   7.091
 5937POPC   C4A75570   2.274  26.108   7.331
 5937POPC   C1B75571   1.811  26.222   6.270
 5937POPC   C2B75572   2.003  26.318   6.690
 5937POPC   C3B75573   1.912  26.478   7.123
 5937POPC   C4B75574   1.704  26.294   7.502
 5938POPC   NC375575   3.304  31.272   5.492
 5938POPC   PO475576   3.780  31.699   5.400
 5938POPC   GL175577   3.676  31.468   5.808
 5938POPC   GL275578   3.321  31.514   5.929
 5938POPC   C1A75579   3.638  31.284   6.244
 5938POPC   D2A75580   3.582  31.559   6.599
 5938POPC   C3A75581   3.638  31.410   6.972
 5938POPC   C4A75582   3.765  31.307   7.368
 5938POPC   C1B75583   3.162  31.680   6.307
 5938POPC   C2B75584   3.313  32.027   6.567
 5938POPC   C3B75585   3.340  31.876   6.967
 5938POPC   C4B75586   3.230  31.550   7.221
 5939POPC   NC375587  38.665  12.802   5.424
 5939POPC   PO475588  37.988  12.948   5.320
 5939POPC   GL175589  38.225  12.908   5.710
 5939POPC   GL275590  38.126  12.625   5.970
 5939POPC   C1A75591  38.431  13.016   6.103
 5939POPC   D2A75592  38.296  12.882   6.511
 5939POPC   C3A75593  38.549  13.010   6.849
 5939POPC   C4A75594  38.436  12.926   7.277
 5939POPC   C1B75595  38.473  12.471   6.224
 5939POPC   C2B75596  38.713  12.536   6.575
 5939POPC   C3B75597  38.610  12.517   6.988
 5939POPC   C4B75598  38.848  12.595   7.353
 5940POPC   NC375599  44.773  39.627   5.111
 5940POPC   PO475600  44.458  39.113   5.321
 5940POPC   GL175601  44.676  39.115   5.742
 5940POPC   GL275602  44.830  38.779   5.833
 5940POPC   C1A75603  44.583  39.372   6.128
 5940POPC   D2A75604  44.745  39.495   6.542
 5940POPC   C3A75605  44.475  39.412   6.904
 5940POPC   C4A75606  44.542  39.350   7.303
 5940POPC   C1B75607  44.710  38.898   6.261
 5940POPC   C2B75608  44.457  38.986   6.617
 5940POPC   C3B75609  44.677  38.957   7.018
 5940POPC   C4B75610  44.659  38.898   7.474
 5941POPC   NC375611  42.963  37.597   5.469
 5941POPC   PO475612  43.201  38.260   5.534
 5941POPC   GL175613  43.175  37.856   5.858
 5941POPC   GL275614  42.897  37.583   5.956
 5941POPC   C1A75615  43.029  37.887   6.323
 5941POPC   D2A75616  42.957  37.594   6.642
 5941POPC   C3A75617  43.228  37.659   6.987
 5941POPC   C4A75618  43.026  37.707   7.380
 5941POPC   C1B75619  43.283  37.465   6.196
 5941POPC   C2B75620  43.331  37.233   6.550
 5941POPC   C3B75621  43.108  37.153   6.933
 5941POPC   C4B75622  43.317  37.249   7.282
 5942POPC   NC375623   9.560   4.207   5.453
 5942POPC   PO475624  10.007   4.755   5.397
 5942POPC   GL175625   9.874   4.492   5.780
 5942POPC   GL275626   9.885   4.137   5.849
 5942POPC   C1A75627   9.903   4.533   6.260
 5942POPC   D2A75628  10.065   4.468   6.711
 5942POPC   C3A75629   9.772   4.520   7.080
 5942POPC   C4A75630   9.345   4.398   7.245
 5942POPC   C1B75631   9.513   4.225   6.116
 5942POPC   C2B75632   9.425   4.076   6.528
 5942POPC   C3B75633   9.561   4.053   6.934
 5942POPC   C4B75634   9.950   3.881   7.091
 5943POPC   NC375635  19.481   7.461   5.125
 5943POPC   PO475636  18.908   7.256   5.253
 5943POPC   GL175637  19.032   7.316   5.737
 5943POPC   GL275638  18.737   7.478   5.911
 5943POPC   C1A75639  19.144   7.283   6.208
 5943POPC   D2A75640  19.377   7.594   6.502
 5943POPC   C3A75641  19.324   7.612   6.954
 5943POPC   C4A75642  19.120   7.371   7.321
 5943POPC   C1B75643  18.802   7.631   6.347
 5943POPC   C2B75644  18.878   7.531   6.771
 5943POPC   C3B75645  18.820   7.739   7.169
 5943POPC   C4B75646  18.662   7.449   7.496
 5944POPC   NC375647  10.806   6.554   5.494
 5944POPC   PO475648  10.141   6.441   5.610
 5944POPC   GL175649  10.199   6.799   5.886
 5944POPC   GL275650  10.564   6.791   5.884
 5944POPC   C1A75651  10.272   6.822   6.338
 5944POPC   D2A75652  10.509   6.513   6.560
 5944POPC   C3A75653  10.392   6.350   6.902
 5944POPC   C4A75654  10.464   6.424   7.282
 5944POPC   C1B75655  10.824   6.738   6.239
 5944POPC   C2B75656  10.862   6.895   6.634
 5944POPC   C3B75657  10.846   6.645   6.991
 5944POPC   C4B75658  10.854   6.753   7.417
 5945POPC   NC375659  33.235  30.023   5.368
 5945POPC   PO475660  32.553  29.772   5.305
 5945POPC   GL175661  32.801  29.800   5.705
 5945POPC   GL275662  33.162  29.718   5.785
 5945POPC   C1A75663  32.713  29.898   6.157
 5945POPC   D2A75664  32.516  29.890   6.583
 5945POPC   C3A75665  32.770  29.997   6.974
 5945POPC   C4A75666  32.901  29.780   7.349
 5945POPC   C1B75667  33.224  29.962   6.172
 5945POPC   C2B75668  33.126  30.102   6.595
 5945POPC   C3B75669  33.270  29.864   6.966
 5945POPC   C4B75670  33.459  29.580   7.279
 5946POPC   NC375671  25.105  23.002   5.444
 5946POPC   PO475672  25.430  22.388   5.523
 5946POPC   GL175673  25.273  22.695   5.819
 5946POPC   GL275674  25.508  22.958   5.774
 5946POPC   C1A75675  25.125  22.894   6.217
 5946POPC   D2A75676  24.923  22.790   6.631
 5946POPC   C3A75677  25.126  22.950   7.008
 5946POPC   C4A75678  25.255  22.792   7.408
 5946POPC   C1B75679  25.572  23.226   6.133
 5946POPC   C2B75680  25.583  23.366   6.568
 5946POPC   C3B75681  25.632  23.336   7.021
 5946POPC   C4B75682  25.313  23.323   7.331
 5947POPC   NC375683  35.651  15.870   5.446
 5947POPC   PO475684  34.992  15.991   5.278
 5947POPC   GL175685  35.103  15.892   5.785
 5947POPC   GL275686  35.458  15.822   5.913
 5947POPC   C1A75687  35.142  16.165   6.168
 5947POPC   D2A75688  35.406  16.293   6.512
 5947POPC   C3A75689  35.254  16.124   6.879
 5947POPC   C4A75690  35.208  16.208   7.285
 5947POPC   C1B75691  35.406  15.776   6.355
 5947POPC   C2B75692  35.173  15.638   6.680
 5947POPC   C3B75693  35.494  15.682   6.934
 5947POPC   C4B75694  35.570  15.647   7.289
 5948POPC   NC375695  15.002  27.030   5.392
 5948POPC   PO475696  15.156  26.496   5.029
 5948POPC   GL175697  15.085  26.510   5.625
 5948POPC   GL275698  14.885  26.771   5.792
 5948POPC   C1A75699  15.283  26.567   6.077
 5948POPC   D2A75700  15.269  26.779   6.504
 5948POPC   C3A75701  15.233  26.550   6.887
 5948POPC   C4A75702  15.133  26.673   7.297
 5948POPC   C1B75703  14.816  26.730   6.219
 5948POPC   C2B75704  14.634  26.920   6.574
 5948POPC   C3B75705  14.776  26.926   6.979
 5948POPC   C4B75706  14.794  27.136   7.347
 5949POPC   NC375707  22.114   4.590   5.364
 5949POPC   PO475708  22.645   4.102   5.272
 5949POPC   GL175709  22.398   4.160   5.662
 5949POPC   GL275710  22.569   3.913   5.857
 5949POPC   C1A75711  22.233   4.371   6.076
 5949POPC   D2A75712  22.071   4.510   6.537
 5949POPC   C3A75713  22.162   4.460   7.007
 5949POPC   C4A75714  21.960   4.242   7.374
 5949POPC   C1B75715  22.286   3.881   6.238
 5949POPC   C2B75716  22.211   4.024   6.680
 5949POPC   C3B75717  22.387   4.003   7.119
 5949POPC   C4B75718  22.341   3.961   7.594
 5950POPC   NC375719  41.071   1.816   5.427
 5950POPC   PO475720  40.839   1.221   5.249
 5950POPC   GL175721  40.676   1.262   5.722
 5950POPC   GL275722  40.763   1.594   5.849
 5950POPC   C1A75723  40.798   1.166   6.208
 5950POPC   D2A75724  40.653   1.089   6.675
 5950POPC   C3A75725  40.902   0.892   7.048
 5950POPC   C4A75726  41.065   1.064   7.443
 5950POPC   C1B75727  40.420   1.515   6.155
 5950POPC   C2B75728  40.273   1.703   6.544
 5950POPC   C3B75729  40.445   1.526   6.909
 5950POPC   C4B75730  40.741   1.360   7.169
 5951POPC   NC375731  40.896  43.951   5.204
 5951POPC   PO475732  40.737  43.370   5.259
 5951POPC   GL175733  40.882  43.654   5.657
 5951POPC   GL275734  41.019  44.019   5.753
 5951POPC   C1A75735  40.757  43.781   6.104
 5951POPC   D2A75736  40.785  43.613   6.501
 5951POPC   C3A75737  40.763  43.834   6.867
 5951POPC   C4A75738  40.853  43.694   7.261
 5951POPC   C1B75739  40.970  44.258   6.178
 5951POPC   C2B75740  41.019  44.385   6.651
 5951POPC   C3B75741  40.978  44.235   7.087
 5951POPC   C4B75742  41.074  44.351   7.530
 5952POPC   NC375743  29.672  29.532   5.377
 5952POPC   PO475744  30.272  29.811   5.348
 5952POPC   GL175745  30.137  29.619   5.734
 5952POPC   GL275746  29.820  29.768   5.795
 5952POPC   C1A75747  30.005  29.536   6.200
 5952POPC   D2A75748  29.663  29.752   6.459
 5952POPC   C3A75749  29.673  29.633   6.861
 5952POPC   C4A75750  30.079  29.609   7.066
 5952POPC   C1B75751  29.675  30.088   6.066
 5952POPC   C2B75752  29.884  30.236   6.445
 5952POPC   C3B75753  29.854  30.100   6.855
 5952POPC   C4B75754  29.995  30.134   7.250
 5953POPC   NC375755  43.736  39.462   5.367
 5953POPC   PO475756  43.921  38.793   5.488
 5953POPC   GL175757  43.944  39.021   5.844
 5953POPC   GL275758  44.270  38.966   6.019
 5953POPC   C1A75759  43.969  39.393   6.110
 5953POPC   D2A75760  44.196  39.427   6.479
 5953POPC   C3A75761  43.960  39.394   6.862
 5953POPC   C4A75762  44.072  39.532   7.295
 5953POPC   C1B75763  44.002  38.931   6.348
 5953POPC   C2B75764  43.660  39.062   6.570
 5953POPC   C3B75765  43.743  38.886   6.967
 5953POPC   C4B75766  44.162  39.000   7.177
 5954POPC   NC375767  39.550  11.494   5.468
 5954POPC   PO475768  40.208  11.546   5.281
 5954POPC   GL175769  40.212  11.287   5.691
 5954POPC   GL275770  39.850  11.135   5.714
 5954POPC   C1A75771  40.152  11.283   6.186
 5954POPC   D2A75772  40.124  11.226   6.677
 5954POPC   C3A75773  40.065  11.553   7.033
 5954POPC   C4A75774  40.155  11.598   7.496
 5954POPC   C1B75775  39.671  11.077   6.133
 5954POPC   C2B75776  39.596  11.123   6.576
 5954POPC   C3B75777  39.758  11.024   6.987
 5954POPC   C4B75778  39.773  11.270   7.373
 5955POPC   NC375779   9.057   0.172   5.142
 5955POPC   PO475780   9.290   0.516   5.522
 5955POPC   GL175781   9.224   0.624   5.996
 5955POPC   GL275782   8.896   0.739   6.118
 5955POPC   C1A75783   9.242   0.520   6.469
 5955POPC   D2A75784   9.132   0.175   6.788
 5955POPC   C3A75785   9.024   0.258   7.230
 5955POPC   C4A75786   9.236   0.227   7.632
 5955POPC   C1B75787   8.716   0.500   6.475
 5955POPC   C2B75788   8.652   0.348   6.891
 5955POPC   C3B75789   8.669   0.611   7.277
 5955POPC   C4B75790   9.087   0.757   7.359
 5956POPC   NC375791  29.450  43.660   5.489
 5956POPC   PO475792  29.054  44.036   5.168
 5956POPC   GL175793  29.079  43.940   5.735
 5956POPC   GL275794  29.389  43.960   5.913
 5956POPC   C1A75795  29.060  43.688   6.166
 5956POPC   D2A75796  28.981  43.849   6.565
 5956POPC   C3A75797  29.156  43.714   6.948
 5956POPC   C4A75798  29.165  44.006   7.262
 5956POPC   C1B75799  29.474  43.960   6.375
 5956POPC   C2B75800  29.389  44.154   6.790
 5956POPC   C3B75801  29.597  44.282   7.192
 5956POPC   C4B75802  29.541  44.109   7.639
 5957POPC   NC375803   8.001  35.316   5.513
 5957POPC   PO475804   8.507  34.932   5.580
 5957POPC   GL175805   8.301  35.183   5.910
 5957POPC   GL275806   8.204  35.576   5.898
 5957POPC   C1A75807   8.289  35.317   6.330
 5957POPC   D2A75808   8.098  35.305   6.700
 5957POPC   C3A75809   8.380  35.467   6.986
 5957POPC   C4A75810   8.810  35.400   7.118
 5957POPC   C1B75811   7.926  35.698   6.229
 5957POPC   C2B75812   7.770  35.717   6.646
 5957POPC   C3B75813   7.693  35.429   6.973
 5957POPC   C4B75814   7.981  35.296   7.250
 5958POPC   NC375815  42.656   2.278   5.390
 5958POPC   PO475816  42.510   1.566   5.332
 5958POPC   GL175817  42.713   1.632   5.766
 5958POPC   GL275818  42.871   1.977   5.816
 5958POPC   C1A75819  42.561   1.684   6.223
 5958POPC   D2A75820  42.284   1.986   6.506
 5958POPC   C3A75821  42.265   2.087   6.967
 5958POPC   C4A75822  42.018   2.061   7.358
 5958POPC   C1B75823  42.636   2.191   6.187
 5958POPC   C2B75824  42.680   2.368   6.634
 5958POPC   C3B75825  42.652   2.434   7.090
 5958POPC   C4B75826  42.474   2.302   7.496
 5959POPC   NC375827  17.379  41.250   5.182
 5959POPC   PO475828  17.907  41.592   5.424
 5959POPC   GL175829  17.551  41.537   5.761
 5959POPC   GL275830  17.473  41.274   5.976
 5959POPC   C1A75831  17.483  41.713   6.216
 5959POPC   D2A75832  17.512  41.482   6.582
 5959POPC   C3A75833  17.402  41.726   6.922
 5959POPC   C4A75834  17.621  41.820   7.306
 5959POPC   C1B75835  17.306  41.014   6.338
 5959POPC   C2B75836  17.098  40.878   6.728
 5959POPC   C3B75837  17.115  41.182   7.062
 5959POPC   C4B75838  17.163  41.561   7.335
 5960POPC   NC375839  24.329  20.601   5.290
 5960POPC   PO475840  24.937  20.268   5.083
 5960POPC   GL175841  24.722  20.447   5.556
 5960POPC   GL275842  24.620  20.789   5.777
 5960POPC   C1A75843  24.677  20.406   6.061
 5960POPC   D2A75844  24.703  20.288   6.498
 5960POPC   C3A75845  24.461  20.378   6.911
 5960POPC   C4A75846  24.467  20.796   7.094
 5960POPC   C1B75847  24.335  20.888   6.141
 5960POPC   C2B75848  24.163  20.867   6.584
 5960POPC   C3B75849  24.081  21.102   6.972
 5960POPC   C4B75850  24.117  20.958   7.422
 5961POPC   NC375851  27.056   6.513   5.300
 5961POPC   PO475852  27.828   6.543   5.399
 5961POPC   GL175853  27.672   6.525   5.767
 5961POPC   GL275854  27.444   6.790   5.757
 5961POPC   C1A75855  27.826   6.592   6.170
 5961POPC   D2A75856  27.757   6.895   6.498
 5961POPC   C3A75857  27.663   6.642   6.861
 5961POPC   C4A75858  27.460   6.635   7.263
 5961POPC   C1B75859  27.316   6.720   6.203
 5961POPC   C2B75860  27.258   6.933   6.604
 5961POPC   C3B75861  27.065   6.834   6.976
 5961POPC   C4B75862  27.080   6.968   7.382
 5962POPC   NC375863  42.963  11.146   5.333
 5962POPC   PO475864  43.337  11.654   5.358
 5962POPC   GL175865  43.224  11.394   5.729
 5962POPC   GL275866  43.165  11.028   5.767
 5962POPC   C1A75867  42.975  11.371   6.112
 5962POPC   D2A75868  43.247  11.409   6.470
 5962POPC   C3A75869  43.122  11.293   6.865
 5962POPC   C4A75870  43.096  11.256   7.294
 5962POPC   C1B75871  43.265  10.960   6.184
 5962POPC   C2B75872  43.316  10.863   6.630
 5962POPC   C3B75873  43.433  10.908   7.065
 5962POPC   C4B75874  43.088  10.752   7.270
 5963POPC   NC375875  22.293   9.316   5.495
 5963POPC   PO475876  22.206   9.993   5.346
 5963POPC   GL175877  22.238   9.798   5.779
 5963POPC   GL275878  21.964   9.507   5.858
 5963POPC   C1A75879  22.333   9.975   6.217
 5963POPC   D2A75880  22.359  10.232   6.611
 5963POPC   C3A75881  22.390  10.008   6.997
 5963POPC   C4A75882  22.438   9.594   7.127
 5963POPC   C1B75883  21.816   9.889   6.081
 5963POPC   C2B75884  21.688  10.033   6.510
 5963POPC   C3B75885  21.865  10.002   6.931
 5963POPC   C4B75886  22.033   9.843   7.352
 5964POPC   NC375887   9.258  10.082   5.560
 5964POPC   PO475888   8.828   9.599   5.582
 5964POPC   GL175889   8.926   9.881   5.914
 5964POPC   GL275890   9.272   9.741   5.944
 5964POPC   C1A75891   8.803   9.841   6.352
 5964POPC   D2A75892   8.862   9.504   6.665
 5964POPC   C3A75893   8.805   9.741   7.007
 5964POPC   C4A75894   8.593  10.124   7.068
 5964POPC   C1B75895   9.277  10.026   6.292
 5964POPC   C2B75896   9.170   9.984   6.748
 5964POPC   C3B75897   9.263   9.864   7.198
 5964POPC   C4B75898   9.314  10.151   7.553
 5965POPC   NC375899   0.319  39.936   5.408
 5965POPC   PO475900   0.747  40.421   5.443
 5965POPC   GL175901   0.655  40.118   5.791
 5965POPC   GL275902   0.275  40.117   5.871
 5965POPC   C1A75903   0.623  39.968   6.229
 5965POPC   D2A75904   0.416  40.192   6.565
 5965POPC   C3A75905   0.655  40.180   6.914
 5965POPC   C4A75906   0.695  39.900   7.266
 5965POPC   C1B75907   0.116  39.836   6.195
 5965POPC   C2B75908   0.268  39.696   6.613
 5965POPC   C3B75909   0.206  39.807   7.061
 5965POPC   C4B75910  44.983  39.576   7.378
 5966POPC   NC375911  36.596  25.870   5.407
 5966POPC   PO475912  37.035  26.334   5.472
 5966POPC   GL175913  36.861  26.109   5.826
 5966POPC   GL275914  36.694  25.758   5.895
 5966POPC   C1A75915  37.030  25.989   6.233
 5966POPC   D2A75916  37.099  25.775   6.633
 5966POPC   C3A75917  36.870  25.923   7.011
 5966POPC   C4A75918  36.757  26.296   7.246
 5966POPC   C1B75919  36.733  25.560   6.284
 5966POPC   C2B75920  36.560  25.761   6.623
 5966POPC   C3B75921  36.400  25.661   7.006
 5966POPC   C4B75922  36.591  25.689   7.384
 5967POPC   NC375923   6.844  43.335   5.578
 5967POPC   PO475924   6.501  42.894   5.160
 5967POPC   GL175925   6.667  42.831   5.611
 5967POPC   GL275926   6.465  43.113   5.815
 5967POPC   C1A75927   6.768  42.815   6.085
 5967POPC   D2A75928   6.672  43.022   6.486
 5967POPC   C3A75929   6.636  42.838   6.880
 5967POPC   C4A75930   6.949  42.823   7.195
 5967POPC   C1B75931   6.472  43.376   6.177
 5967POPC   C2B75932   6.316  43.369   6.599
 5967POPC   C3B75933   6.294  43.222   7.010
 5967POPC   C4B75934   6.700  43.262   7.175
 5968POPC   NC375935  26.511  27.398   5.386
 5968POPC   PO475936  27.177  27.501   5.408
 5968POPC   GL175937  26.922  27.721   5.780
 5968POPC   GL275938  26.578  27.699   5.778
 5968POPC   C1A75939  26.906  27.722   6.264
 5968POPC   D2A75940  27.018  27.545   6.713
 5968POPC   C3A75941  26.961  27.880   6.998
 5968POPC   C4A75942  27.201  28.060   7.332
 5968POPC   C1B75943  26.437  27.545   6.148
 5968POPC   C2B75944  26.547  27.443   6.569
 5968POPC   C3B75945  26.564  27.440   7.006
 5968POPC   C4B75946  26.626  27.374   7.462
 5969POPC   NC375947  33.594  17.700   5.370
 5969POPC   PO475948  34.186  17.427   5.144
 5969POPC   GL175949  34.071  17.312   5.594
 5969POPC   GL275950  33.953  17.617   5.736
 5969POPC   C1A75951  33.810  17.241   6.017
 5969POPC   D2A75952  33.900  17.379   6.477
 5969POPC   C3A75953  33.769  17.283   6.939
 5969POPC   C4A75954  33.790  17.434   7.380
 5969POPC   C1B75955  34.008  17.807   6.148
 5969POPC   C2B75956  34.208  17.783   6.558
 5969POPC   C3B75957  34.059  17.737   7.014
 5969POPC   C4B75958  34.214  17.721   7.437
 5970POPC   NC375959  40.383   1.313   5.276
 5970POPC   PO475960  39.759   1.366   5.104
 5970POPC   GL175961  39.879   1.229   5.628
 5970POPC   GL275962  40.152   1.417   5.744
 5970POPC   C1A75963  39.932   1.061   6.089
 5970POPC   D2A75964  40.113   1.212   6.544
 5970POPC   C3A75965  39.879   1.148   6.947
 5970POPC   C4A75966  39.676   1.359   7.286
 5970POPC   C1B75967  39.917   1.562   6.157
 5970POPC   C2B75968  39.744   1.590   6.598
 5970POPC   C3B75969  39.958   1.659   6.989
 5970POPC   C4B75970  40.187   1.420   7.339
 5971POPC   NC375971  43.427  33.131   4.800
 5971POPC   PO475972  43.128  33.205   5.362
 5971POPC   GL175973  43.015  33.123   5.819
 5971POPC   GL275974  43.074  32.743   5.899
 5971POPC   C1A75975  43.124  33.158   6.287
 5971POPC   D2A75976  43.280  33.103   6.705
 5971POPC   C3A75977  43.084  33.006   7.097
 5971POPC   C4A75978  43.097  33.207   7.478
 5971POPC   C1B75979  43.084  32.597   6.349
 5971POPC   C2B75980  43.148  32.599   6.813
 5971POPC   C3B75981  43.247  32.568   7.283
 5971POPC   C4B75982  42.922  32.566   7.565
 5972POPC   NC375983  24.682   4.691   5.373
 5972POPC   PO475984  24.650   4.015   5.540
 5972POPC   GL175985  24.373   4.196   5.866
 5972POPC   GL275986  23.999   4.186   5.828
 5972POPC   C1A75987  24.538   4.300   6.277
 5972POPC   D2A75988  24.478   4.063   6.643
 5972POPC   C3A75989  24.414   4.232   7.057
 5972POPC   C4A75990  24.547   4.274   7.496
 5972POPC   C1B75991  24.068   4.476   6.181
 5972POPC   C2B75992  24.229   4.520   6.629
 5972POPC   C3B75993  23.996   4.537   7.042
 5972POPC   C4B75994  24.053   4.444   7.529
 5973POPC   NC375995  23.340  24.340   5.608
 5973POPC   PO475996  23.992  24.177   5.441
 5973POPC   GL175997  23.832  24.454   5.756
 5973POPC   GL275998  23.771  24.781   5.634
 5973POPC   C1A75999  23.702  24.351   6.173
 5973POPC   D2A76000  23.694  24.159   6.567
 5973POPC   C3A76001  23.640  24.419   6.928
 5973POPC   C4A76002  23.687  24.335   7.366
 5973POPC   C1B76003  23.750  24.861   6.096
 5973POPC   C2B76004  23.518  24.734   6.491
 5973POPC   C3B76005  23.456  24.963   6.881
 5973POPC   C4B76006  23.501  24.789   7.281
 5974POPC   NC376007  10.595  15.729   5.430
 5974POPC   PO476008  10.116  16.208   5.472
 5974POPC   GL176009  10.344  16.006   5.815
 5974POPC   GL276010  10.238  15.674   5.889
 5974POPC   C1A76011  10.499  16.135   6.229
 5974POPC   D2A76012  10.391  16.315   6.635
 5974POPC   C3A76013  10.648  16.140   6.956
 5974POPC   C4A76014  10.655  16.250   7.420
 5974POPC   C1B76015  10.458  15.618   6.268
 5974POPC   C2B76016  10.419  15.786   6.647
 5974POPC   C3B76017  10.196  15.834   6.980
 5974POPC   C4B76018  10.424  15.827   7.288
 5975POPC   NC376019  22.436   3.697   5.372
 5975POPC   PO476020  21.852   3.305   5.310
 5975POPC   GL176021  21.997   3.558   5.663
 5975POPC   GL276022  22.338   3.440   5.805
 5975POPC   C1A76023  21.904   3.522   6.109
 5975POPC   D2A76024  21.816   3.373   6.531
 5975POPC   C3A76025  21.874   3.666   6.881
 5975POPC   C4A76026  22.073   3.628   7.273
 5975POPC   C1B76027  22.410   3.382   6.255
 5975POPC   C2B76028  22.302   3.461   6.696
 5975POPC   C3B76029  22.481   3.324   7.101
 5975POPC   C4B76030  22.558   3.526   7.504
 5976POPC   NC376031  15.091  30.968   5.480
 5976POPC   PO476032  15.078  30.307   5.319
 5976POPC   GL176033  15.233  30.528   5.719
 5976POPC   GL276034  15.458  30.807   5.791
 5976POPC   C1A76035  15.133  30.676   6.172
 5976POPC   D2A76036  14.948  30.997   6.447
 5976POPC   C3A76037  15.049  30.895   6.885
 5976POPC   C4A76038  15.242  30.569   7.140
 5976POPC   C1B76039  15.439  31.096   6.164
 5976POPC   C2B76040  15.426  31.172   6.600
 5976POPC   C3B76041  15.475  31.124   7.071
 5976POPC   C4B76042  15.470  30.878   7.465
 5977POPC   NC376043  10.238   2.651   5.442
 5977POPC   PO476044  10.560   2.073   5.155
 5977POPC   GL176045  10.539   2.106   5.672
 5977POPC   GL276046  10.411   1.819   5.886
 5977POPC   C1A76047  10.496   2.225   6.165
 5977POPC   D2A76048  10.176   2.157   6.513
 5977POPC   C3A76049  10.215   2.209   6.963
 5977POPC   C4A76050  10.594   2.294   7.234
 5977POPC   C1B76051  10.418   1.736   6.344
 5977POPC   C2B76052  10.282   1.535   6.729
 5977POPC   C3B76053  10.226   1.600   7.192
 5977POPC   C4B76054  10.248   1.539   7.644
 5978POPC   NC376055   8.729  34.506   5.523
 5978POPC   PO476056   9.290  34.788   5.193
 5978POPC   GL176057   9.210  34.730   5.701
 5978POPC   GL276058   9.024  34.447   5.915
 5978POPC   C1A76059   9.156  34.820   6.193
 5978POPC   D2A76060   8.947  34.712   6.619
 5978POPC   C3A76061   9.092  34.964   6.957
 5978POPC   C4A76062   9.377  34.874   7.263
 5978POPC   C1B76063   8.778  34.399   6.257
 5978POPC   C2B76064   8.809  34.186   6.620
 5978POPC   C3B76065   8.756  34.353   7.015
 5978POPC   C4B76066   8.967  34.586   7.314
 5979POPC   NC376067   8.494  24.053   5.355
 5979POPC   PO476068   9.165  23.757   5.344
 5979POPC   GL176069   8.974  23.760   5.726
 5979POPC   GL276070   9.149  24.015   5.909
 5979POPC   C1A76071   9.071  23.510   6.085
 5979POPC   D2A76072   8.898  23.467   6.475
 5979POPC   C3A76073   8.899  23.678   6.862
 5979POPC   C4A76074   9.077  23.490   7.231
 5979POPC   C1B76075   8.779  23.946   6.190
 5979POPC   C2B76076   8.766  24.126   6.611
 5979POPC   C3B76077   8.679  24.165   7.040
 5979POPC   C4B76078   9.023  23.986   7.255
 5980POPC   NC376079   6.642  32.493   5.679
 5980POPC   PO476080   7.023  31.980   5.523
 5980POPC   GL176081   6.967  32.144   5.903
 5980POPC   GL276082   7.029  32.482   6.030
 5980POPC   C1A76083   6.717  32.179   6.279
 5980POPC   D2A76084   6.851  32.344   6.643
 5980POPC   C3A76085   6.630  32.130   6.920
 5980POPC   C4A76086   6.400  32.097   7.252
 5980POPC   C1B76087   6.706  32.690   6.290
 5980POPC   C2B76088   6.554  32.853   6.661
 5980POPC   C3B76089   6.660  32.655   7.037
 5980POPC   C4B76090   7.021  32.402   7.133
 5981POPC   NC376091  28.367  27.686   5.425
 5981POPC   PO476092  27.974  27.143   5.120
 5981POPC   GL176093  28.079  27.320   5.613
 5981POPC   GL276094  28.030  27.702   5.784
 5981POPC   C1A76095  28.205  27.346   6.095
 5981POPC   D2A76096  28.523  27.238   6.408
 5981POPC   C3A76097  28.470  27.335   6.841
 5981POPC   C4A76098  28.338  27.368   7.256
 5981POPC   C1B76099  27.967  27.791   6.210
 5981POPC   C2B76100  28.183  27.661   6.545
 5981POPC   C3B76101  28.179  27.749   6.967
 5981POPC   C4B76102  28.566  27.841   7.229
 5982POPC   NC376103  16.361  44.110   5.474
 5982POPC   PO476104  15.851  43.739   5.200
 5982POPC   GL176105  15.945  43.865   5.632
 5982POPC   GL276106  16.241  43.660   5.730
 5982POPC   C1A76107  16.057  44.076   6.049
 5982POPC   D2A76108  15.899  44.009   6.460
 5982POPC   C3A76109  16.049  44.127   6.863
 5982POPC   C4A76110  16.056  44.321   7.244
 5982POPC   C1B76111  16.267  43.630   6.188
 5982POPC   C2B76112  16.231  43.653   6.613
 5982POPC   C3B76113  15.946  43.612   6.924
 5982POPC   C4B76114  16.105  43.815   7.261
 5983POPC   NC376115  17.798  25.439   5.390
 5983POPC   PO476116  17.180  25.213   5.628
 5983POPC   GL176117  17.384  25.127   5.955
 5983POPC   GL276118  17.705  25.184   5.852
 5983POPC   C1A76119  17.197  25.154   6.364
 5983POPC   D2A76120  17.315  25.438   6.709
 5983POPC   C3A76121  17.322  25.245   7.120
 5983POPC   C4A76122  17.179  24.838   7.242
 5983POPC   C1B76123  17.699  25.311   6.319
 5983POPC   C2B76124  17.937  25.118   6.642
 5983POPC   C3B76125  17.816  25.048   7.066
 5983POPC   C4B76126  17.941  25.048   7.492
 5984POPC   NC376127  35.991  23.480   5.369
 5984POPC   PO476128  36.466  23.445   5.760
 5984POPC   GL176129  36.119  23.745   5.789
 5984POPC   GL276130  35.752  23.771   5.712
 5984POPC   C1A76131  36.023  23.915   6.158
 5984POPC   D2A76132  36.096  23.734   6.526
 5984POPC   C3A76133  36.344  23.683   6.892
 5984POPC   C4A76134  36.258  23.859   7.292
 5984POPC   C1B76135  35.648  23.586   6.113
 5984POPC   C2B76136  35.608  23.591   6.564
 5984POPC   C3B76137  35.832  23.669   6.948
 5984POPC   C4B76138  35.788  23.676   7.354
 5985POPC   NC376139   4.061  13.253   5.446
 5985POPC   PO476140   4.110  12.626   5.316
 5985POPC   GL176141   4.288  12.682   5.760
 5985POPC   GL276142   4.659  12.623   5.793
 5985POPC   C1A76143   4.259  12.856   6.208
 5985POPC   D2A76144   4.326  12.694   6.639
 5985POPC   C3A76145   4.261  13.039   6.918
 5985POPC   C4A76146   4.409  13.120   7.347
 5985POPC   C1B76147   4.571  12.451   6.224
 5985POPC   C2B76148   4.722  12.336   6.661
 5985POPC   C3B76149   4.654  12.510   7.068
 5985POPC   C4B76150   4.255  12.621   7.203
 5986POPC   NC376151  30.322  44.138   5.599
 5986POPC   PO476152  29.649  44.233   5.576
 5986POPC   GL176153  29.913  43.994   5.876
 5986POPC   GL276154  30.173  43.700   5.832
 5986POPC   C1A76155  30.037  44.004   6.302
 5986POPC   D2A76156  29.909  44.056   6.727
 5986POPC   C3A76157  29.682  43.707   6.846
 5986POPC   C4A76158  29.609  43.763   7.261
 5986POPC   C1B76159  30.315  43.574   6.256
 5986POPC   C2B76160  30.290  43.709   6.707
 5986POPC   C3B76161  30.132  43.653   7.154
 5986POPC   C4B76162  30.283  43.468   7.595
 5987POPC   NC376163  19.294  12.523   5.425
 5987POPC   PO476164  19.250  13.228   5.474
 5987POPC   GL176165  19.321  12.972   5.848
 5987POPC   GL276166  19.026  12.758   5.849
 5987POPC   C1A76167  19.291  12.825   6.295
 5987POPC   D2A76168  19.062  12.736   6.671
 5987POPC   C3A76169  19.234  12.718   7.034
 5987POPC   C4A76170  19.235  13.113   7.171
 5987POPC   C1B76171  18.881  13.075   6.185
 5987POPC   C2B76172  18.653  13.066   6.575
 5987POPC   C3B76173  18.727  12.919   7.023
 5987POPC   C4B76174  18.763  13.214   7.363
 5988POPC   NC376175  38.641  34.244   5.769
 5988POPC   PO476176  38.542  34.782   5.365
 5988POPC   GL176177  38.379  34.709   5.786
 5988POPC   GL276178  38.047  34.505   5.796
 5988POPC   C1A76179  38.284  34.694   6.244
 5988POPC   D2A76180  38.139  34.956   6.595
 5988POPC   C3A76181  38.180  34.760   6.985
 5988POPC   C4A76182  38.373  34.494   7.261
 5988POPC   C1B76183  38.061  34.220   6.161
 5988POPC   C2B76184  38.271  34.219   6.547
 5988POPC   C3B76185  38.116  34.190   6.930
 5988POPC   C4B76186  38.085  34.014   7.300
 5989POPC   NC376187   5.842   7.983   5.284
 5989POPC   PO476188   5.868   8.688   5.282
 5989POPC   GL176189   5.720   8.457   5.690
 5989POPC   GL276190   5.617   8.103   5.728
 5989POPC   C1A76191   5.832   8.321   6.151
 5989POPC   D2A76192   6.163   8.321   6.496
 5989POPC   C3A76193   5.974   8.171   6.876
 5989POPC   C4A76194   5.552   8.313   7.015
 5989POPC   C1B76195   5.649   7.830   6.076
 5989POPC   C2B76196   5.831   7.858   6.471
 5989POPC   C3B76197   5.629   7.784   6.815
 5989POPC   C4B76198   5.469   7.829   7.184
 5990POPC   NC376199  36.337   0.633   5.326
 5990POPC   PO476200  36.109   1.325   5.322
 5990POPC   GL176201  36.072   1.187   5.755
 5990POPC   GL276202  36.176   0.862   5.741
 5990POPC   C1A76203  36.199   1.331   6.167
 5990POPC   D2A76204  36.353   1.539   6.538
 5990POPC   C3A76205  36.481   1.299   6.882
 5990POPC   C4A76206  36.439   1.401   7.310
 5990POPC   C1B76207  36.299   0.817   6.157
 5990POPC   C2B76208  36.138   0.967   6.555
 5990POPC   C3B76209  36.181   0.886   6.996
 5990POPC   C4B76210  35.994   1.162   7.317
 5991POPC   NC376211  37.193  28.913   5.257
 5991POPC   PO476212  36.952  29.533   5.400
 5991POPC   GL176213  36.995  29.182   5.683
 5991POPC   GL276214  36.706  29.192   5.926
 5991POPC   C1A76215  37.184  29.133   6.098
 5991POPC   D2A76216  36.966  29.226   6.489
 5991POPC   C3A76217  37.071  29.107   6.921
 5991POPC   C4A76218  37.230  29.421   7.235
 5991POPC   C1B76219  36.460  29.499   6.163
 5991POPC   C2B76220  36.518  29.439   6.592
 5991POPC   C3B76221  36.422  29.346   6.991
 5991POPC   C4B76222  36.651  29.051   7.243
 5992POPC   NC376223  43.787   6.419   5.270
 5992POPC   PO476224  44.145   6.941   5.220
 5992POPC   GL176225  44.037   6.731   5.612
 5992POPC   GL276226  44.111   6.390   5.682
 5992POPC   C1A76227  43.913   6.785   6.060
 5992POPC   D2A76228  43.991   6.681   6.500
 5992POPC   C3A76229  43.997   6.964   6.855
 5992POPC   C4A76230  43.777   6.829   7.222
 5992POPC   C1B76231  43.828   6.281   6.046
 5992POPC   C2B76232  43.746   6.213   6.488
 5992POPC   C3B76233  43.625   6.138   6.919
 5992POPC   C4B76234  43.806   6.249   7.336
 5993POPC   NC376235  35.217  18.088   5.428
 5993POPC   PO476236  35.423  18.664   5.537
 5993POPC   GL176237  35.446  18.272   5.848
 5993POPC   GL276238  35.238  17.937   5.893
 5993POPC   C1A76239  35.513  18.206   6.285
 5993POPC   D2A76240  35.522  18.502   6.615
 5993POPC   C3A76241  35.458  18.307   6.997
 5993POPC   C4A76242  35.335  18.129   7.354
 5993POPC   C1B76243  35.008  18.109   6.205
 5993POPC   C2B76244  35.101  18.208   6.622
 5993POPC   C3B76245  34.987  18.071   6.995
 5993POPC   C4B76246  34.833  18.116   7.387
 5994POPC   NC376247  31.278   0.170   5.310
 5994POPC   PO476248  31.881   0.259   5.527
 5994POPC   GL176249  31.519   0.399   5.770
 5994POPC   GL276250  31.311   0.087   5.852
 5994POPC   C1A76251  31.518   0.634   6.176
 5994POPC   D2A76252  31.657   0.901   6.535
 5994POPC   C3A76253  31.438   0.766   6.897
 5994POPC   C4A76254  31.093   0.841   7.198
 5994POPC   C1B76255  31.644   0.123   6.194
 5994POPC   C2B76256  31.598   0.290   6.643
 5994POPC   C3B76257  31.363   0.263   7.065
 5994POPC   C4B76258  31.390   0.136   7.524
 5995POPC   NC376259  23.342  18.063   5.399
 5995POPC   PO476260  22.722  18.323   5.380
 5995POPC   GL176261  23.015  18.305   5.752
 5995POPC   GL276262  23.096  17.969   5.834
 5995POPC   C1A76263  23.056  18.538   6.153
 5995POPC   D2A76264  23.187  18.629   6.603
 5995POPC   C3A76265  22.913  18.568   6.959
 5995POPC   C4A76266  22.614  18.463   7.270
 5995POPC   C1B76267  22.796  18.102   6.160
 5995POPC   C2B76268  22.881  18.176   6.588
 5995POPC   C3B76269  22.640  18.078   6.941
 5995POPC   C4B76270  22.599  17.801   7.313
 5996POPC   NC376271  15.084  41.702   5.263
 5996POPC   PO476272  15.282  41.107   5.475
 5996POPC   GL176273  15.343  41.460   5.736
 5996POPC   GL276274  15.580  41.388   5.976
 5996POPC   C1A76275  15.182  41.633   6.155
 5996POPC   D2A76276  14.961  41.538   6.524
 5996POPC   C3A76277  15.056  41.730   6.896
 5996POPC   C4A76278  15.053  41.462   7.257
 5996POPC   C1B76279  15.460  41.183   6.378
 5996POPC   C2B76280  15.365  41.294   6.828
 5996POPC   C3B76281  15.547  41.292   7.273
 5996POPC   C4B76282  15.772  41.215   7.711
 5997POPC   NC376283  44.501  28.734   5.607
 5997POPC   PO476284  44.663  29.362   5.484
 5997POPC   GL176285  44.485  29.289   5.851
 5997POPC   GL276286  44.217  29.518   5.869
 5997POPC   C1A76287  44.482  29.045   6.220
 5997POPC   D2A76288  44.732  28.968   6.562
 5997POPC   C3A76289  44.586  29.028   6.974
 5997POPC   C4A76290  44.828  29.173   7.297
 5997POPC   C1B76291  44.414  29.549   6.281
 5997POPC   C2B76292  44.349  29.386   6.696
 5997POPC   C3B76293  44.560  29.564   7.063
 5997POPC   C4B76294  44.527  29.535   7.548
 5998POPC   NC376295  10.834  28.463   5.526
 5998POPC   PO476296  10.146  28.652   5.537
 5998POPC   GL176297  10.413  28.323   5.856
 5998POPC   GL276298  10.775  28.169   5.941
 5998POPC   C1A76299  10.330  28.167   6.294
 5998POPC   D2A76300  10.127  28.445   6.630
 5998POPC   C3A76301  10.322  28.368   7.037
 5998POPC   C4A76302  10.220  28.056   7.354
 5998POPC   C1B76303  10.732  28.477   6.246
 5998POPC   C2B76304  10.640  28.470   6.651
 5998POPC   C3B76305  10.799  28.559   7.016
 5998POPC   C4B76306  10.804  28.719   7.366
 5999POPC   NC376307  20.759  18.483   5.454
 5999POPC   PO476308  20.637  19.194   5.362
 5999POPC   GL176309  20.611  19.110   5.793
 5999POPC   GL276310  20.708  18.796   5.834
 5999POPC   C1A76311  20.473  19.003   6.217
 5999POPC   D2A76312  20.671  18.916   6.576
 5999POPC   C3A76313  20.606  19.209   6.868
 5999POPC   C4A76314  20.603  19.227   7.296
 5999POPC   C1B76315  20.985  18.862   6.172
 5999POPC   C2B76316  21.178  18.865   6.585
 5999POPC   C3B76317  20.973  18.825   6.995
 5999POPC   C4B76318  20.701  18.715   7.353
 6000POPC   NC376319  40.249  21.420   5.542
 6000POPC   PO476320  40.943  21.421   5.441
 6000POPC   GL176321  40.669  21.325   5.811
 6000POPC   GL276322  40.649  20.973   5.918
 6000POPC   C1A76323  40.414  21.313   6.228
 6000POPC   D2A76324  40.582  21.360   6.649
 6000POPC   C3A76325  40.596  21.689   6.945
 6000POPC   C4A76326  40.406  21.491   7.294
 6000POPC   C1B76327  40.948  21.216   6.255
 6000POPC   C2B76328  41.035  21.581   6.597
 6000POPC   C3B76329  41.075  21.514   7.045
 6000POPC   C4B76330  40.782  21.203   7.113
 6001POPC   NC376331  25.614  37.349   5.552
 6001POPC   PO476332  25.202  37.672   5.191
 6001POPC   GL176333  25.043  37.629   5.619
 6001POPC   GL276334  24.753  37.843   5.639
 6001POPC   C1A76335  25.170  37.605   6.092
 6001POPC   D2A76336  25.319  37.820   6.497
 6001POPC   C3A76337  25.412  37.638   6.913
 6001POPC   C4A76338  25.627  37.682   7.326
 6001POPC   C1B76339  24.841  38.022   6.062
 6001POPC   C2B76340  24.959  38.178   6.484
 6001POPC   C3B76341  24.977  37.975   6.892
 6001POPC   C4B76342  25.133  37.820   7.317
 6002POPC   NC376343  15.437  30.030   5.507
 6002POPC   PO476344  14.870  29.671   5.449
 6002POPC   GL176345  15.057  29.801   5.784
 6002POPC   GL276346  14.926  30.117   5.763
 6002POPC   C1A76347  14.916  29.838   6.214
 6002POPC   D2A76348  15.095  29.793   6.625
 6002POPC   C3A76349  14.952  29.799   7.040
 6002POPC   C4A76350  15.262  29.599   7.331
 6002POPC   C1B76351  15.246  30.193   6.103
 6002POPC   C2B76352  15.263  30.276   6.529
 6002POPC   C3B76353  15.368  30.129   6.935
 6002POPC   C4B76354  15.249  30.113   7.351
 6003POPC   NC376355  39.865  24.613   5.530
 6003POPC   PO476356  40.178  23.960   5.453
 6003POPC   GL176357  39.954  24.142   5.784
 6003POPC   GL276358  40.230  24.405   5.822
 6003POPC   C1A76359  39.817  24.412   6.140
 6003POPC   D2A76360  39.757  24.581   6.526
 6003POPC   C3A76361  39.792  24.326   6.855
 6003POPC   C4A76362  39.858  24.647   7.168
 6003POPC   C1B76363  40.311  24.128   6.175
 6003POPC   C2B76364  40.216  24.234   6.569
 6003POPC   C3B76365  40.270  24.496   6.912
 6003POPC   C4B76366  40.279  24.310   7.309
 6004POPC   NC376367   8.831  21.429   5.518
 6004POPC   PO476368   9.513  21.166   5.680
 6004POPC   GL176369   9.141  21.266   5.894
 6004POPC   GL276370   9.019  21.596   5.932
 6004POPC   C1A76371   9.022  21.285   6.319
 6004POPC   D2A76372   9.257  21.295   6.706
 6004POPC   C3A76373   8.955  21.220   7.009
 6004POPC   C4A76374   9.023  21.140   7.403
 6004POPC   C1B76375   8.841  21.765   6.285
 6004POPC   C2B76376   8.874  21.636   6.708
 6004POPC   C3B76377   8.799  21.715   7.135
 6004POPC   C4B76378   8.861  21.609   7.555
 6005POPC   NC376379  10.354  35.752   5.337
 6005POPC   PO476380  10.490  36.414   5.430
 6005POPC   GL176381  10.557  36.254   5.840
 6005POPC   GL276382  10.896  36.253   5.751
 6005POPC   C1A76383  10.470  36.138   6.302
 6005POPC   D2A76384  10.396  35.796   6.635
 6005POPC   C3A76385  10.262  35.861   7.078
 6005POPC   C4A76386  10.119  36.145   7.419
 6005POPC   C1B76387  10.885  35.913   6.058
 6005POPC   C2B76388  10.886  35.901   6.501
 6005POPC   C3B76389  10.835  35.871   6.944
 6005POPC   C4B76390  10.637  36.145   7.257
 6006POPC   NC376391   6.060  31.732   5.393
 6006POPC   PO476392   6.163  32.436   5.481
 6006POPC   GL176393   5.935  32.338   5.868
 6006POPC   GL276394   5.912  32.000   5.829
 6006POPC   C1A76395   6.017  32.453   6.273
 6006POPC   D2A76396   6.331  32.392   6.562
 6006POPC   C3A76397   6.102  32.328   6.902
 6006POPC   C4A76398   5.792  32.494   7.145
 6006POPC   C1B76399   5.931  31.950   6.264
 6006POPC   C2B76400   5.717  32.047   6.610
 6006POPC   C3B76401   5.570  32.027   6.999
 6006POPC   C4B76402   5.688  31.676   7.213
 6007POPC   NC376403   5.076  27.289   5.447
 6007POPC   PO476404   5.357  27.922   5.365
 6007POPC   GL176405   5.116  27.731   5.736
 6007POPC   GL276406   4.785  27.893   5.772
 6007POPC   C1A76407   5.069  27.412   6.107
 6007POPC   D2A76408   5.259  27.261   6.549
 6007POPC   C3A76409   5.093  27.371   6.983
 6007POPC   C4A76410   5.096  27.445   7.479
 6007POPC   C1B76411   4.961  27.899   6.218
 6007POPC   C2B76412   4.965  27.875   6.693
 6007POPC   C3B76413   5.007  27.836   7.159
 6007POPC   C4B76414   4.708  27.844   7.527
 6008POPC   NC376415  20.402  10.946   5.626
 6008POPC   PO476416  19.910  10.536   5.396
 6008POPC   GL176417  19.796  10.507   5.805
 6008POPC   GL276418  19.841  10.850   5.809
 6008POPC   C1A76419  19.810  10.472   6.253
 6008POPC   D2A76420  19.615  10.235   6.565
 6008POPC   C3A76421  19.823  10.264   6.959
 6008POPC   C4A76422  20.236  10.249   7.153
 6008POPC   C1B76423  19.615  10.943   6.181
 6008POPC   C2B76424  19.805  10.941   6.596
 6008POPC   C3B76425  19.744  10.790   7.001
 6008POPC   C4B76426  19.955  10.664   7.368
 6009POPC   NC376427  37.980  14.928   5.360
 6009POPC   PO476428  37.413  14.727   5.494
 6009POPC   GL176429  37.606  14.533   5.845
 6009POPC   GL276430  37.929  14.635   5.802
 6009POPC   C1A76431  37.646  14.539   6.293
 6009POPC   D2A76432  37.707  14.166   6.527
 6009POPC   C3A76433  37.493  14.196   6.901
 6009POPC   C4A76434  37.404  14.582   7.121
 6009POPC   C1B76435  38.061  14.351   6.090
 6009POPC   C2B76436  38.132  14.488   6.507
 6009POPC   C3B76437  37.916  14.466   6.929
 6009POPC   C4B76438  37.830  14.485   7.379
 6010POPC   NC376439  27.332   9.770   5.497
 6010POPC   PO476440  27.683  10.286   5.232
 6010POPC   GL176441  27.684  10.492   5.701
 6010POPC   GL276442  27.871  10.794   5.783
 6010POPC   C1A76443  27.444  10.515   6.109
 6010POPC   D2A76444  27.334  10.658   6.551
 6010POPC   C3A76445  27.518  10.495   6.961
 6010POPC   C4A76446  27.352  10.218   7.273
 6010POPC   C1B76447  27.734  10.914   6.213
 6010POPC   C2B76448  27.839  10.713   6.597
 6010POPC   C3B76449  28.022  10.452   6.902
 6010POPC   C4B76450  27.931  10.642   7.268
 6011POPC   NC376451  18.581   1.094   5.359
 6011POPC   PO476452  17.998   1.478   5.518
 6011POPC   GL176453  18.131   1.096   5.791
 6011POPC   GL276454  18.453   0.924   5.844
 6011POPC   C1A76455  18.283   1.223   6.220
 6011POPC   D2A76456  18.485   1.279   6.651
 6011POPC   C3A76457  18.214   1.250   7.048
 6011POPC   C4A76458  18.163   1.503   7.446
 6011POPC   C1B76459  18.691   0.902   6.280
 6011POPC   C2B76460  18.689   0.819   6.739
 6011POPC   C3B76461  18.589   0.911   7.202
 6011POPC   C4B76462  18.699   1.018   7.655
 6012POPC   NC376463  31.660  17.947   5.343
 6012POPC   PO476464  31.550  18.578   5.380
 6012POPC   GL176465  31.388  18.311   5.675
 6012POPC   GL276466  31.709  18.197   5.808
 6012POPC   C1A76467  31.293  18.318   6.117
 6012POPC   D2A76468  31.588  18.422   6.460
 6012POPC   C3A76469  31.521  18.366   6.897
 6012POPC   C4A76470  31.201  18.607   7.120
 6012POPC   C1B76471  31.695  17.999   6.210
 6012POPC   C2B76472  31.820  17.946   6.614
 6012POPC   C3B76473  31.734  17.880   7.033
 6012POPC   C4B76474  31.372  18.001   7.223
 6013POPC   NC376475   3.111  25.968   5.307
 6013POPC   PO476476   2.448  26.073   5.228
 6013POPC   GL176477   2.574  26.061   5.699
 6013POPC   GL276478   2.854  25.860   5.726
 6013POPC   C1A76479   2.540  25.963   6.172
 6013POPC   D2A76480   2.467  26.085   6.629
 6013POPC   C3A76481   2.510  26.407   6.944
 6013POPC   C4A76482   2.779  26.188   7.212
 6013POPC   C1B76483   3.050  25.849   6.102
 6013POPC   C2B76484   2.981  26.013   6.511
 6013POPC   C3B76485   2.854  25.801   6.895
 6013POPC   C4B76486   3.104  25.624   7.226
 6014POPC   NC376487  38.058  40.689   5.517
 6014POPC   PO476488  37.526  40.313   5.724
 6014POPC   GL176489  37.594  40.674   5.906
 6014POPC   GL276490  37.962  40.681   6.013
 6014POPC   C1A76491  37.596  40.863   6.303
 6014POPC   D2A76492  37.689  41.022   6.687
 6014POPC   C3A76493  37.614  40.707   6.947
 6014POPC   C4A76494  37.251  40.592   7.193
 6014POPC   C1B76495  38.076  41.076   6.202
 6014POPC   C2B76496  38.043  41.364   6.570
 6014POPC   C3B76497  38.093  41.218   7.011
 6014POPC   C4B76498  37.798  41.033   7.274
 6015POPC   NC376499  17.116  17.018   5.511
 6015POPC   PO476500  16.600  16.673   5.469
 6015POPC   GL176501  16.580  16.781   5.903
 6015POPC   GL276502  16.848  17.039   5.950
 6015POPC   C1A76503  16.802  16.636   6.276
 6015POPC   D2A76504  16.980  16.346   6.562
 6015POPC   C3A76505  16.909  16.552   6.946
 6015POPC   C4A76506  16.793  16.651   7.387
 6015POPC   C1B76507  16.711  17.140   6.358
 6015POPC   C2B76508  16.436  16.961   6.626
 6015POPC   C3B76509  16.541  16.924   7.037
 6015POPC   C4B76510  16.895  17.117   7.222
 6016POPC   NC376511  25.279  16.564   5.231
 6016POPC   PO476512  25.035  17.174   5.391
 6016POPC   GL176513  25.298  16.911   5.670
 6016POPC   GL276514  25.233  16.542   5.730
 6016POPC   C1A76515  25.368  16.878   6.114
 6016POPC   D2A76516  25.199  16.699   6.502
 6016POPC   C3A76517  25.305  16.855   6.910
 6016POPC   C4A76518  25.619  16.736   7.226
 6016POPC   C1B76519  25.436  16.363   6.072
 6016POPC   C2B76520  25.389  16.204   6.492
 6016POPC   C3B76521  25.238  16.345   6.880
 6016POPC   C4B76522  25.249  16.391   7.294
 6017POPC   NC376523  16.517   4.222   5.610
 6017POPC   PO476524  16.491   3.613   5.288
 6017POPC   GL176525  16.633   3.695   5.723
 6017POPC   GL276526  17.007   3.742   5.744
 6017POPC   C1A76527  16.466   3.706   6.164
 6017POPC   D2A76528  16.597   3.473   6.519
 6017POPC   C3A76529  16.575   3.404   6.963
 6017POPC   C4A76530  16.728   3.724   7.221
 6017POPC   C1B76531  16.988   3.614   6.186
 6017POPC   C2B76532  17.097   3.595   6.635
 6017POPC   C3B76533  17.104   3.391   7.048
 6017POPC   C4B76534  17.145   3.554   7.470
 6018POPC   NC376535  23.656  30.261   5.242
 6018POPC   PO476536  23.581  30.941   5.310
 6018POPC   GL176537  23.694  30.781   5.695
 6018POPC   GL276538  23.414  30.569   5.794
 6018POPC   C1A76539  23.896  30.791   6.104
 6018POPC   D2A76540  23.690  30.573   6.430
 6018POPC   C3A76541  23.748  30.661   6.853
 6018POPC   C4A76542  23.650  30.539   7.257
 6018POPC   C1B76543  23.386  30.880   6.147
 6018POPC   C2B76544  23.423  31.003   6.628
 6018POPC   C3B76545  23.351  30.919   7.080
 6018POPC   C4B76546  23.194  31.005   7.569
 6019POPC   NC376547   5.356  34.717   5.411
 6019POPC   PO476548   4.773  34.358   5.349
 6019POPC   GL176549   5.004  34.528   5.734
 6019POPC   GL276550   5.317  34.325   5.774
 6019POPC   C1A76551   5.078  34.853   6.076
 6019POPC   D2A76552   4.881  34.902   6.495
 6019POPC   C3A76553   5.064  34.875   6.936
 6019POPC   C4A76554   4.885  34.742   7.331
 6019POPC   C1B76555   5.437  34.510   6.197
 6019POPC   C2B76556   5.198  34.499   6.610
 6019POPC   C3B76557   5.217  34.387   7.062
 6019POPC   C4B76558   5.306  34.514   7.516
 6020POPC   NC376559  36.643  43.778   5.483
 6020POPC   PO476560  37.355  44.039   5.416
 6020POPC   GL176561  37.041  43.994   5.754
 6020POPC   GL276562  37.047  43.618   5.831
 6020POPC   C1A76563  36.835  44.081   6.158
 6020POPC   D2A76564  36.773  44.389   6.494
 6020POPC   C3A76565  36.655  44.242   6.917
 6020POPC   C4A76566  36.951  44.155   7.250
 6020POPC   C1B76567  36.768  43.577   6.194
 6020POPC   C2B76568  36.690  43.821   6.603
 6020POPC   C3B76569  36.684  43.734   7.060
 6020POPC   C4B76570  36.664  43.543   7.494
 6021POPC   NC376571  44.186   2.660   5.558
 6021POPC   PO476572  43.689   2.937   5.193
 6021POPC   GL176573  43.617   2.633   5.724
 6021POPC   GL276574  43.861   2.440   5.861
 6021POPC   C1A76575  43.559   2.527   6.230
 6021POPC   D2A76576  43.600   2.749   6.667
 6021POPC   C3A76577  43.725   2.683   7.126
 6021POPC   C4A76578  43.864   2.878   7.529
 6021POPC   C1B76579  44.206   2.445   6.164
 6021POPC   C2B76580  44.371   2.385   6.557
 6021POPC   C3B76581  44.215   2.588   6.928
 6021POPC   C4B76582  44.165   2.474   7.355
 6022POPC   NC376583  38.969  13.541   5.448
 6022POPC   PO476584  39.604  13.572   5.392
 6022POPC   GL176585  39.417  13.343   5.786
 6022POPC   GL276586  39.211  13.622   5.907
 6022POPC   C1A76587  39.345  13.286   6.267
 6022POPC   D2A76588  39.041  13.488   6.555
 6022POPC   C3A76589  39.065  13.582   6.990
 6022POPC   C4A76590  39.303  13.448   7.321
 6022POPC   C1B76591  39.404  13.815   6.288
 6022POPC   C2B76592  39.395  14.058   6.692
 6022POPC   C3B76593  39.426  13.927   7.129
 6022POPC   C4B76594  39.102  13.891   7.462
 6023POPC   NC376595   2.704  21.761   5.436
 6023POPC   PO476596   2.532  22.467   5.324
 6023POPC   GL176597   2.794  22.397   5.700
 6023POPC   GL276598   2.704  22.042   5.859
 6023POPC   C1A76599   2.766  22.467   6.135
 6023POPC   D2A76600   2.828  22.170   6.453
 6023POPC   C3A76601   2.675  22.291   6.834
 6023POPC   C4A76602   2.791  22.199   7.249
 6023POPC   C1B76603   3.052  21.846   6.064
 6023POPC   C2B76604   3.116  21.748   6.494
 6023POPC   C3B76605   3.029  21.894   6.890
 6023POPC   C4B76606   3.068  21.748   7.299
 6024POPC   NC376607  41.650  18.938   5.414
 6024POPC   PO476608  41.068  18.687   5.641
 6024POPC   GL176609  41.414  18.874   5.909
 6024POPC   GL276610  41.551  19.213   5.874
 6024POPC   C1A76611  41.832  18.844   6.150
 6024POPC   D2A76612  41.911  18.626   6.551
 6024POPC   C3A76613  41.634  18.813   6.839
 6024POPC   C4A76614  41.392  19.041   7.137
 6024POPC   C1B76615  41.857  19.357   6.214
 6024POPC   C2B76616  42.011  19.183   6.594
 6024POPC   C3B76617  41.836  19.302   6.986
 6024POPC   C4B76618  41.704  19.346   7.423
 6025POPC   NC376619  27.049  41.645   5.502
 6025POPC   PO476620  27.776  41.570   5.484
 6025POPC   GL176621  27.572  41.472   5.859
 6025POPC   GL276622  27.280  41.687   5.961
 6025POPC   C1A76623  27.727  41.605   6.250
 6025POPC   D2A76624  28.055  41.595   6.544
 6025POPC   C3A76625  27.915  41.509   6.962
 6025POPC   C4A76626  27.813  41.490   7.398
 6025POPC   C1B76627  27.286  41.336   6.262
 6025POPC   C2B76628  27.523  41.307   6.633
 6025POPC   C3B76629  27.411  41.406   7.032
 6025POPC   C4B76630  27.463  41.800   7.250
 6026POPC   NC376631  24.031  13.846   5.369
 6026POPC   PO476632  24.674  13.990   5.352
 6026POPC   GL176633  24.581  13.585   5.635
 6026POPC   GL276634  24.887  13.481   5.787
 6026POPC   C1A76635  24.539  13.487   6.129
 6026POPC   D2A76636  24.246  13.395   6.475
 6026POPC   C3A76637  24.387  13.451   6.902
 6026POPC   C4A76638  24.235  13.741   7.223
 6026POPC   C1B76639  24.986  13.243   6.147
 6026POPC   C2B76640  24.841  13.280   6.567
 6026POPC   C3B76641  24.875  13.330   6.999
 6026POPC   C4B76642  24.671  13.476   7.362
 6027POPC   NC376643  38.345  31.757   5.003
 6027POPC   PO476644  38.279  32.331   5.397
 6027POPC   GL176645  38.319  32.451   5.790
 6027POPC   GL276646  38.326  32.120   5.877
 6027POPC   C1A76647  38.516  32.401   6.229
 6027POPC   D2A76648  38.525  32.172   6.602
 6027POPC   C3A76649  38.491  32.344   7.030
 6027POPC   C4A76650  38.723  32.221   7.399
 6027POPC   C1B76651  38.210  31.913   6.217
 6027POPC   C2B76652  38.087  31.842   6.622
 6027POPC   C3B76653  38.329  31.852   6.956
 6027POPC   C4B76654  38.340  31.889   7.365
 6028POPC   NC376655  22.821   0.176   5.435
 6028POPC   PO476656  23.253  44.582   5.399
 6028POPC   GL176657  23.066  44.427   5.794
 6028POPC   GL276658  22.845  44.705   5.817
 6028POPC   C1A76659  22.789  44.334   6.164
 6028POPC   D2A76660  22.996  44.305   6.557
 6028POPC   C3A76661  22.879  44.461   6.943
 6028POPC   C4A76662  23.209  44.547   7.214
 6028POPC   C1B76663  23.002  44.816   6.261
 6028POPC   C2B76664  22.847  44.914   6.700
 6028POPC   C3B76665  22.890  44.954   7.177
 6028POPC   C4B76666  22.604  44.901   7.565
 6029POPC   NC376667  38.239  20.902   5.481
 6029POPC   PO476668  38.533  20.318   5.401
 6029POPC   GL176669  38.456  20.460   5.829
 6029POPC   GL276670  38.727  20.683   5.878
 6029POPC   C1A76671  38.599  20.344   6.279
 6029POPC   D2A76672  38.462  20.347   6.740
 6029POPC   C3A76673  38.546  20.585   7.134
 6029POPC   C4A76674  38.593  20.437   7.573
 6029POPC   C1B76675  38.424  20.840   6.225
 6029POPC   C2B76676  38.289  20.832   6.687
 6029POPC   C3B76677  38.155  20.922   7.135
 6029POPC   C4B76678  38.410  20.900   7.546
 6030POPC   NC376679  41.734  38.557   5.540
 6030POPC   PO476680  41.494  37.978   5.427
 6030POPC   GL176681  41.674  38.110   5.823
 6030POPC   GL276682  41.492  38.414   5.968
 6030POPC   C1A76683  41.707  38.034   6.243
 6030POPC   D2A76684  41.438  38.264   6.530
 6030POPC   C3A76685  41.482  38.276   6.952
 6030POPC   C4A76686  41.596  38.418   7.345
 6030POPC   C1B76687  41.772  38.582   6.299
 6030POPC   C2B76688  41.706  38.677   6.738
 6030POPC   C3B76689  41.379  38.772   7.048
 6030POPC   C4B76690  41.443  38.915   7.453
 6031POPC   NC376691  33.279   8.134   5.333
 6031POPC   PO476692  32.759   7.764   5.375
 6031POPC   GL176693  32.962   8.056   5.717
 6031POPC   GL276694  33.305   7.955   5.830
 6031POPC   C1A76695  33.070   8.316   6.136
 6031POPC   D2A76696  32.842   8.415   6.542
 6031POPC   C3A76697  32.980   8.313   6.961
 6031POPC   C4A76698  33.124   8.568   7.290
 6031POPC   C1B76699  33.009   7.811   6.162
 6031POPC   C2B76700  32.835   7.867   6.570
 6031POPC   C3B76701  33.000   7.803   6.980
 6031POPC   C4B76702  32.790   7.931   7.351
 6032POPC   NC376703  24.987  19.118   5.459
 6032POPC   PO476704  25.588  19.002   5.169
 6032POPC   GL176705  25.472  19.015   5.685
 6032POPC   GL276706  25.150  19.014   5.914
 6032POPC   C1A76707  25.582  18.985   6.174
 6032POPC   D2A76708  25.732  18.828   6.617
 6032POPC   C3A76709  25.397  18.799   6.970
 6032POPC   C4A76710  25.442  18.928   7.404
 6032POPC   C1B76711  25.159  19.308   6.257
 6032POPC   C2B76712  25.342  19.219   6.654
 6032POPC   C3B76713  25.274  19.321   7.090
 6032POPC   C4B76714  25.213  19.361   7.539
 6033POPC   NC376715   8.103  14.745   5.171
 6033POPC   PO476716   8.455  14.166   5.360
 6033POPC   GL176717   8.156  14.315   5.688
 6033POPC   GL276718   8.364  14.358   5.852
 6033POPC   C1A76719   8.051  14.489   6.183
 6033POPC   D2A76720   8.036  14.340   6.604
 6033POPC   C3A76721   8.076  14.576   6.986
 6033POPC   C4A76722   7.773  14.426   7.223
 6033POPC   C1B76723   8.553  14.482   6.220
 6033POPC   C2B76724   8.417  14.679   6.613
 6033POPC   C3B76725   8.603  14.622   7.033
 6033POPC   C4B76726   8.571  14.523   7.484
 6034POPC   NC376727  24.390  25.504   5.378
 6034POPC   PO476728  24.701  24.887   5.390
 6034POPC   GL176729  24.518  25.110   5.737
 6034POPC   GL276730  24.673  25.449   5.818
 6034POPC   C1A76731  24.233  25.099   6.101
 6034POPC   D2A76732  24.269  25.335   6.486
 6034POPC   C3A76733  24.319  25.160   6.896
 6034POPC   C4A76734  24.261  25.518   7.201
 6034POPC   C1B76735  24.724  25.238   6.213
 6034POPC   C2B76736  24.787  25.161   6.650
 6034POPC   C3B76737  24.754  25.358   7.068
 6034POPC   C4B76738  24.536  25.142   7.410
 6035POPC   NC376739   5.935  40.421   5.273
 6035POPC   PO476740   5.636  41.139   5.289
 6035POPC   GL176741   5.785  40.953   5.693
 6035POPC   GL276742   5.623  40.672   5.740
 6035POPC   C1A76743   5.923  40.874   6.159
 6035POPC   D2A76744   6.066  40.573   6.447
 6035POPC   C3A76745   5.912  40.707   6.805
 6035POPC   C4A76746   5.919  40.672   7.189
 6035POPC   C1B76747   5.483  40.598   6.144
 6035POPC   C2B76748   5.568  40.417   6.548
 6035POPC   C3B76749   5.502  40.460   6.986
 6035POPC   C4B76750   5.475  40.574   7.423
 6036POPC   NC376751  17.047   0.642   5.508
 6036POPC   PO476752  16.635   0.209   5.363
 6036POPC   GL176753  16.655   0.409   5.762
 6036POPC   GL276754  16.342   0.485   5.905
 6036POPC   C1A76755  16.869   0.499   6.161
 6036POPC   D2A76756  16.995   0.168   6.445
 6036POPC   C3A76757  16.876   0.175   6.870
 6036POPC   C4A76758  17.024  44.982   7.250
 6036POPC   C1B76759  16.509   0.131   6.179
 6036POPC   C2B76760  16.389   0.090   6.617
 6036POPC   C3B76761  16.428   0.477   6.863
 6036POPC   C4B76762  16.637   0.509   7.234
 6037POPC   NC376763  18.355  35.737   5.459
 6037POPC   PO476764  17.978  35.174   5.397
 6037POPC   GL176765  18.119  35.362   5.763
 6037POPC   GL276766  18.467  35.355   5.777
 6037POPC   C1A76767  18.020  35.446   6.179
 6037POPC   D2A76768  17.976  35.614   6.600
 6037POPC   C3A76769  17.920  35.352   6.950
 6037POPC   C4A76770  17.993  35.096   7.304
 6037POPC   C1B76771  18.572  35.472   6.222
 6037POPC   C2B76772  18.498  35.594   6.666
 6037POPC   C3B76773  18.721  35.542   7.052
 6037POPC   C4B76774  18.830  35.129   7.225
 6038POPC   NC376775  43.772  41.154   5.262
 6038POPC   PO476776  44.190  41.648   5.478
 6038POPC   GL176777  43.914  41.477   5.817
 6038POPC   GL276778  43.683  41.710   5.909
 6038POPC   C1A76779  43.930  41.362   6.263
 6038POPC   D2A76780  44.122  41.342   6.662
 6038POPC   C3A76781  43.908  41.492   7.037
 6038POPC   C4A76782  44.084  41.171   7.247
 6038POPC   C1B76783  43.848  41.905   6.231
 6038POPC   C2B76784  43.817  41.770   6.614
 6038POPC   C3B76785  43.645  41.953   6.971
 6038POPC   C4B76786  43.431  41.702   7.239
 6039POPC   NC376787  24.899  40.617   5.519
 6039POPC   PO476788  24.553  39.979   5.377
 6039POPC   GL176789  24.592  40.231   5.761
 6039POPC   GL276790  24.631  39.979   5.984
 6039POPC   C1A76791  24.507  40.426   6.198
 6039POPC   D2A76792  24.510  40.051   6.514
 6039POPC   C3A76793  24.408  40.167   6.936
 6039POPC   C4A76794  24.588  40.521   7.128
 6039POPC   C1B76795  24.344  39.688   6.197
 6039POPC   C2B76796  24.413  39.485   6.625
 6039POPC   C3B76797  24.362  39.573   7.082
 6039POPC   C4B76798  24.071  39.477   7.461
 6040POPC   NC376799  38.634  32.044   5.483
 6040POPC   PO476800  39.246  32.418   5.439
 6040POPC   GL176801  39.152  32.232   5.799
 6040POPC   GL276802  38.830  32.384   5.806
 6040POPC   C1A76803  39.332  32.100   6.176
 6040POPC   D2A76804  39.557  32.193   6.554
 6040POPC   C3A76805  39.340  32.162   6.908
 6040POPC   C4A76806  39.224  32.009   7.279
 6040POPC   C1B76807  38.997  32.582   6.159
 6040POPC   C2B76808  39.100  32.475   6.577
 6040POPC   C3B76809  38.985  32.515   7.020
 6040POPC   C4B76810  39.151  32.482   7.446
 6041POPC   NC376811  22.140  10.444   5.432
 6041POPC   PO476812  21.672  10.831   5.582
 6041POPC   GL176813  21.977  10.749   5.869
 6041POPC   GL276814  22.320  10.783   5.792
 6041POPC   C1A76815  22.125  10.590   6.275
 6041POPC   D2A76816  21.893  10.482   6.636
 6041POPC   C3A76817  21.918  10.669   7.039
 6041POPC   C4A76818  22.326  10.514   7.069
 6041POPC   C1B76819  22.562  10.842   6.167
 6041POPC   C2B76820  22.559  10.701   6.617
 6041POPC   C3B76821  22.755  10.820   7.013
 6041POPC   C4B76822  22.624  10.686   7.440
 6042POPC   NC376823  24.380  41.987   5.209
 6042POPC   PO476824  24.743  41.393   5.414
 6042POPC   GL176825  24.517  41.528   5.809
 6042POPC   GL276826  24.183  41.417   5.903
 6042POPC   C1A76827  24.527  41.499   6.251
 6042POPC   D2A76828  24.340  41.409   6.626
 6042POPC   C3A76829  24.583  41.556   6.924
 6042POPC   C4A76830  24.642  41.400   7.302
 6042POPC   C1B76831  24.148  41.816   6.170
 6042POPC   C2B76832  24.326  41.945   6.566
 6042POPC   C3B76833  24.194  41.890   6.976
 6042POPC   C4B76834  24.149  41.500   7.176
 6043POPC   NC376835  11.048  29.436   5.436
 6043POPC   PO476836  11.419  29.955   5.271
 6043POPC   GL176837  11.388  29.796   5.685
 6043POPC   GL276838  11.676  29.984   5.781
 6043POPC   C1A76839  11.143  29.812   6.089
 6043POPC   D2A76840  11.345  29.760   6.497
 6043POPC   C3A76841  11.115  29.798   6.880
 6043POPC   C4A76842  11.269  29.831   7.300
 6043POPC   C1B76843  11.504  30.165   6.137
 6043POPC   C2B76844  11.368  30.283   6.520
 6043POPC   C3B76845  11.490  30.139   6.900
 6043POPC   C4B76846  11.334  30.305   7.266
 6044POPC   NC376847  38.182  18.162   5.498
 6044POPC   PO476848  38.916  18.145   5.530
 6044POPC   GL176849  38.610  18.277   5.873
 6044POPC   GL276850  38.278  18.439   5.903
 6044POPC   C1A76851  38.449  18.174   6.310
 6044POPC   D2A76852  38.219  17.936   6.616
 6044POPC   C3A76853  38.362  17.983   7.033
 6044POPC   C4A76854  38.620  18.280   7.263
 6044POPC   C1B76855  38.218  18.660   6.278
 6044POPC   C2B76856  38.109  18.447   6.663
 6044POPC   C3B76857  38.140  18.431   7.098
 6044POPC   C4B76858  37.954  18.530   7.473
 6045POPC   NC376859  28.829  29.154   5.537
 6045POPC   PO476860  28.328  29.314   5.119
 6045POPC   GL176861  28.160  29.051   5.595
 6045POPC   GL276862  28.423  28.999   5.859
 6045POPC   C1A76863  28.006  29.128   6.078
 6045POPC   D2A76864  28.101  29.369   6.490
 6045POPC   C3A76865  28.201  29.234   6.916
 6045POPC   C4A76866  28.070  29.504   7.238
 6045POPC   C1B76867  28.510  29.242   6.218
 6045POPC   C2B76868  28.645  29.212   6.642
 6045POPC   C3B76869  28.786  29.114   7.056
 6045POPC   C4B76870  28.619  28.997   7.452
 6046POPC   NC376871  25.738  32.662   5.556
 6046POPC   PO476872  25.123  32.310   5.326
 6046POPC   GL176873  25.290  32.390   5.736
 6046POPC   GL276874  25.341  32.054   5.881
 6046POPC   C1A76875  25.277  32.531   6.176
 6046POPC   D2A76876  25.153  32.367   6.587
 6046POPC   C3A76877  25.289  32.508   6.985
 6046POPC   C4A76878  25.207  32.423   7.416
 6046POPC   C1B76879  25.513  32.105   6.309
 6046POPC   C2B76880  25.608  32.164   6.757
 6046POPC   C3B76881  25.486  32.059   7.186
 6046POPC   C4B76882  25.476  32.079   7.687
 6047POPC   NC376883  10.547   7.596   5.254
 6047POPC   PO476884  10.888   7.030   5.504
 6047POPC   GL176885  10.820   7.238   5.923
 6047POPC   GL276886  10.583   7.517   5.876
 6047POPC   C1A76887  10.584   7.255   6.322
 6047POPC   D2A76888  10.477   7.508   6.691
 6047POPC   C3A76889  10.630   7.217   6.960
 6047POPC   C4A76890  10.442   6.915   7.165
 6047POPC   C1B76891  10.438   7.777   6.246
 6047POPC   C2B76892  10.212   7.991   6.600
 6047POPC   C3B76893  10.164   7.824   7.011
 6047POPC   C4B76894  10.390   7.533   7.263
 6048POPC   NC376895   9.406   5.743   5.323
 6048POPC   PO476896   8.779   5.973   5.339
 6048POPC   GL176897   9.054   5.822   5.697
 6048POPC   GL276898   9.270   6.092   5.797
 6048POPC   C1A76899   9.165   5.685   6.149
 6048POPC   D2A76900   9.130   5.497   6.595
 6048POPC   C3A76901   8.751   5.592   6.872
 6048POPC   C4A76902   8.841   5.703   7.305
 6048POPC   C1B76903   8.998   6.169   6.128
 6048POPC   C2B76904   8.952   5.983   6.550
 6048POPC   C3B76905   9.171   5.889   6.946
 6048POPC   C4B76906   9.300   6.171   7.270
 6049POPC   NC376907   1.249  30.433   5.089
 6049POPC   PO476908   1.275  31.019   5.536
 6049POPC   GL176909   1.208  30.563   5.673
 6049POPC   GL276910   0.857  30.499   5.757
 6049POPC   C1A76911   1.297  30.389   6.114
 6049POPC   D2A76912   1.587  30.511   6.484
 6049POPC   C3A76913   1.451  30.613   6.912
 6049POPC   C4A76914   1.241  30.624   7.328
 6049POPC   C1B76915   0.874  30.721   6.155
 6049POPC   C2B76916   1.080  30.659   6.551
 6049POPC   C3B76917   0.951  30.830   6.963
 6049POPC   C4B76918   0.947  31.126   7.340
 6050POPC   NC376919  41.417  36.979   5.291
 6050POPC   PO476920  41.788  36.517   5.470
 6050POPC   GL176921  41.564  36.828   5.744
 6050POPC   GL276922  41.835  37.069   5.846
 6050POPC   C1A76923  41.448  37.049   6.157
 6050POPC   D2A76924  41.149  37.222   6.464
 6050POPC   C3A76925  41.247  37.037   6.858
 6050POPC   C4A76926  41.420  37.066   7.265
 6050POPC   C1B76927  41.827  36.690   6.130
 6050POPC   C2B76928  41.583  36.677   6.510
 6050POPC   C3B76929  41.678  36.781   6.908
 6050POPC   C4B76930  41.772  36.656   7.285
 6051POPC   NC376931  31.509  41.401   5.373
 6051POPC   PO476932  31.519  42.085   5.351
 6051POPC   GL176933  31.303  41.858   5.757
 6051POPC   GL276934  31.282  41.470   5.857
 6051POPC   C1A76935  31.465  41.753   6.207
 6051POPC   D2A76936  31.636  41.410   6.467
 6051POPC   C3A76937  31.591  41.459   6.910
 6051POPC   C4A76938  31.514  41.431   7.355
 6051POPC   C1B76939  31.054  41.434   6.260
 6051POPC   C2B76940  31.154  41.318   6.665
 6051POPC   C3B76941  31.078  41.221   7.076
 6051POPC   C4B76942  31.040  41.374   7.465
 6052POPC   NC376943  14.435   6.762   5.400
 6052POPC   PO476944  14.798   6.255   5.459
 6052POPC   GL176945  14.577   6.345   5.865
 6052POPC   GL276946  14.319   6.612   5.865
 6052POPC   C1A76947  14.572   6.546   6.297
 6052POPC   D2A76948  14.272   6.694   6.613
 6052POPC   C3A76949  14.310   6.464   6.999
 6052POPC   C4A76950  14.738   6.398   7.160
 6052POPC   C1B76951  14.115   6.925   6.157
 6052POPC   C2B76952  14.110   7.185   6.543
 6052POPC   C3B76953  14.142   7.037   6.981
 6052POPC   C4B76954  14.000   6.749   7.304
 6053POPC   NC376955   3.758  11.681   5.563
 6053POPC   PO476956   3.403  12.154   5.173
 6053POPC   GL176957   3.380  12.077   5.634
 6053POPC   GL276958   3.711  12.165   5.774
 6053POPC   C1A76959   3.269  12.123   6.101
 6053POPC   D2A76960   3.442  12.131   6.542
 6053POPC   C3A76961   3.290  12.063   6.954
 6053POPC   C4A76962   3.445  12.360   7.234
 6053POPC   C1B76963   3.769  11.960   6.187
 6053POPC   C2B76964   3.872  11.848   6.633
 6053POPC   C3B76965   3.762  11.813   7.048
 6053POPC   C4B76966   3.655  11.922   7.467
 6054POPC   NC376967  17.064  39.978   5.298
 6054POPC   PO476968  16.404  39.920   5.408
 6054POPC   GL176969  16.677  39.880   5.779
 6054POPC   GL276970  16.834  40.216   5.704
 6054POPC   C1A76971  16.668  39.782   6.268
 6054POPC   D2A76972  16.414  39.878   6.621
 6054POPC   C3A76973  16.511  40.149   6.959
 6054POPC   C4A76974  16.464  39.996   7.358
 6054POPC   C1B76975  16.959  40.152   6.123
 6054POPC   C2B76976  16.839  40.235   6.563
 6054POPC   C3B76977  17.012  40.363   6.977
 6054POPC   C4B76978  16.786  40.388   7.391
 6055POPC   NC376979  43.988  44.299   5.262
 6055POPC   PO476980  43.532  44.746   5.156
 6055POPC   GL176981  43.663  44.581   5.558
 6055POPC   GL276982  43.785  44.893   5.663
 6055POPC   C1A76983  43.788  44.486   6.007
 6055POPC   D2A76984  43.771  44.615   6.466
 6055POPC   C3A76985  43.865  44.470   6.898
 6055POPC   C4A76986  44.026  44.676   7.287
 6055POPC   C1B76987  43.774   0.005   6.112
 6055POPC   C2B76988  43.686   0.130   6.550
 6055POPC   C3B76989  43.925   0.019   6.917
 6055POPC   C4B76990  44.088   0.206   7.286
 6056POPC   NC376991  36.483   3.831   5.426
 6056POPC   PO476992  36.043   3.274   5.357
 6056POPC   GL176993  36.205   3.459   5.755
 6056POPC   GL276994  36.145   3.802   5.831
 6056POPC   C1A76995  36.312   3.401   6.244
 6056POPC   D2A76996  36.301   3.237   6.712
 6056POPC   C3A76997  36.253   3.557   6.994
 6056POPC   C4A76998  36.374   3.690   7.406
 6056POPC   C1B76999  35.838   3.589   6.118
 6056POPC   C2B77000  35.887   3.510   6.552
 6056POPC   C3B77001  35.760   3.522   6.966
 6056POPC   C4B77002  35.784   3.703   7.380
 6057POPC   NC377003  33.185   2.829   5.745
 6057POPC   PO477004  33.775   2.848   5.271
 6057POPC   GL177005  33.817   2.883   5.757
 6057POPC   GL277006  33.629   2.597   5.939
 6057POPC   C1A77007  34.041   2.771   6.175
 6057POPC   D2A77008  34.163   2.813   6.600
 6057POPC   C3A77009  33.906   3.092   6.848
 6057POPC   C4A77010  33.929   2.936   7.237
 6057POPC   C1B77011  33.516   2.545   6.370
 6057POPC   C2B77012  33.692   2.614   6.782
 6057POPC   C3B77013  34.056   2.496   7.026
 6057POPC   C4B77014  34.104   2.203   7.361
 6058POPC   NC377015   0.052  25.805   5.407
 6058POPC   PO477016   0.549  26.201   5.145
 6058POPC   GL177017   0.388  26.177   5.640
 6058POPC   GL277018   0.342  25.913   5.871
 6058POPC   C1A77019   0.439  26.398   6.069
 6058POPC   D2A77020   0.244  26.421   6.485
 6058POPC   C3A77021   0.461  26.195   6.817
 6058POPC   C4A77022   0.457  26.455   7.163
 6058POPC   C1B77023   0.057  26.060   6.155
 6058POPC   C2B77024  44.963  25.990   6.562
 6058POPC   C3B77025  44.961  26.223   6.898
 6058POPC   C4B77026   0.106  26.095   7.219
 6059POPC   NC377027  33.010   0.980   5.400
 6059POPC   PO477028  32.758   1.718   5.421
 6059POPC   GL177029  32.795   1.360   5.703
 6059POPC   GL277030  33.155   1.404   5.774
 6059POPC   C1A77031  32.842   1.177   6.146
 6059POPC   D2A77032  32.691   1.083   6.583
 6059POPC   C3A77033  32.794   1.422   6.875
 6059POPC   C4A77034  32.706   1.448   7.313
 6059POPC   C1B77035  33.368   1.275   6.186
 6059POPC   C2B77036  33.232   1.174   6.619
 6059POPC   C3B77037  33.141   1.103   7.056
 6059POPC   C4B77038  33.328   0.888   7.371
 6060POPC   NC377039   5.700  39.920   5.466
 6060POPC   PO477040   6.116  40.496   5.678
 6060POPC   GL177041   5.974  40.163   5.877
 6060POPC   GL277042   5.654  40.185   5.877
 6060POPC   C1A77043   5.878  40.008   6.321
 6060POPC   D2A77044   6.065  39.848   6.701
 6060POPC   C3A77045   6.012  40.221   6.945
 6060POPC   C4A77046   5.792  40.194   7.337
 6060POPC   C1B77047   5.385  40.092   6.165
 6060POPC   C2B77048   5.428  39.929   6.543
 6060POPC   C3B77049   5.594  39.978   6.880
 6060POPC   C4B77050   5.755  39.727   7.158
 6061POPC   NC377051  30.694   6.520   5.215
 6061POPC   PO477052  30.903   7.057   5.560
 6061POPC   GL177053  30.608   6.830   5.794
 6061POPC   GL277054  30.784   6.530   5.800
 6061POPC   C1A77055  30.577   6.666   6.253
 6061POPC   D2A77056  30.721   6.501   6.696
 6061POPC   C3A77057  30.555   6.712   7.113
 6061POPC   C4A77058  30.190   6.765   7.473
 6061POPC   C1B77059  31.065   6.455   6.186
 6061POPC   C2B77060  31.209   6.283   6.605
 6061POPC   C3B77061  31.237   6.489   7.000
 6061POPC   C4B77062  31.027   6.629   7.365
 6062POPC   NC377063   1.312  37.694   5.376
 6062POPC   PO477064   0.906  38.184   5.288
 6062POPC   GL177065   0.972  37.923   5.709
 6062POPC   GL277066   0.787  38.025   6.034
 6062POPC   C1A77067   1.110  37.641   6.082
 6062POPC   D2A77068   0.926  37.656   6.498
 6062POPC   C3A77069   1.205  37.542   6.807
 6062POPC   C4A77070   1.320  37.437   7.220
 6062POPC   C1B77071   1.183  38.073   6.351
 6062POPC   C2B77072   1.253  38.082   6.798
 6062POPC   C3B77073   1.110  37.878   7.162
 6062POPC   C4B77074   1.031  37.973   7.597
 6063POPC   NC377075  42.036   5.567   5.424
 6063POPC   PO477076  42.414   5.020   5.389
 6063POPC   GL177077  42.399   4.957   5.819
 6063POPC   GL277078  42.144   5.210   5.798
 6063POPC   C1A77079  42.491   4.832   6.268
 6063POPC   D2A77080  42.402   4.968   6.696
 6063POPC   C3A77081  42.741   4.937   7.012
 6063POPC   C4A77082  42.617   4.813   7.466
 6063POPC   C1B77083  42.048   5.081   6.187
 6063POPC   C2B77084  42.063   5.318   6.544
 6063POPC   C3B77085  41.983   5.199   6.924
 6063POPC   C4B77086  42.286   5.092   7.189
 6064POPC   NC377087  16.893  31.252   5.534
 6064POPC   PO477088  16.402  31.627   5.591
 6064POPC   GL177089  16.655  31.774   5.934
 6064POPC   GL277090  16.482  32.039   6.079
 6064POPC   C1A77091  16.801  31.564   6.327
 6064POPC   D2A77092  16.657  31.214   6.648
 6064POPC   C3A77093  16.872  31.157   7.082
 6064POPC   C4A77094  17.238  31.171   7.418
 6064POPC   C1B77095  16.563  31.961   6.528
 6064POPC   C2B77096  16.789  31.675   6.829
 6064POPC   C3B77097  16.827  31.660   7.241
 6064POPC   C4B77098  17.119  31.654   7.516
 6065POPC   NC377099  40.807  38.228   5.361
 6065POPC   PO477100  40.896  38.777   5.492
 6065POPC   GL177101  40.831  38.482   5.825
 6065POPC   GL277102  40.531  38.621   5.820
 6065POPC   C1A77103  40.848  38.445   6.294
 6065POPC   D2A77104  41.021  38.515   6.709
 6065POPC   C3A77105  40.854  38.307   7.047
 6065POPC   C4A77106  41.099  38.252   7.398
 6065POPC   C1B77107  40.358  38.532   6.156
 6065POPC   C2B77108  40.453  38.706   6.533
 6065POPC   C3B77109  40.425  38.687   6.935
 6065POPC   C4B77110  40.422  38.515   7.309
 6066POPC   NC377111  19.787  33.328   5.473
 6066POPC   PO477112  19.672  32.698   5.679
 6066POPC   GL177113  19.787  33.109   5.927
 6066POPC   GL277114  19.570  33.506   5.890
 6066POPC   C1A77115  19.888  33.079   6.381
 6066POPC   D2A77116  19.673  33.197   6.759
 6066POPC   C3A77117  19.646  32.822   7.019
 6066POPC   C4A77118  20.059  32.730   7.195
 6066POPC   C1B77119  19.877  33.551   6.213
 6066POPC   C2B77120  20.054  33.568   6.643
 6066POPC   C3B77121  19.971  33.485   7.081
 6066POPC   C4B77122  19.626  33.328   7.339
 6067POPC   NC377123  29.221  42.088   5.387
 6067POPC   PO477124  28.920  42.653   5.287
 6067POPC   GL177125  29.036  42.485   5.691
 6067POPC   GL277126  28.817  42.689   5.902
 6067POPC   C1A77127  28.902  42.183   6.025
 6067POPC   D2A77128  28.907  42.059   6.470
 6067POPC   C3A77129  29.169  42.324   6.748
 6067POPC   C4A77130  29.190  42.356   7.207
 6067POPC   C1B77131  29.088  42.612   6.266
 6067POPC   C2B77132  29.147  42.823   6.658
 6067POPC   C3B77133  28.924  42.733   7.018
 6067POPC   C4B77134  28.917  42.693   7.479
 6068POPC   NC377135   7.759  44.273   5.425
 6068POPC   PO477136   7.321  44.714   5.211
 6068POPC   GL177137   7.343  44.858   5.681
 6068POPC   GL277138   7.476  44.546   5.783
 6068POPC   C1A77139   7.553  44.904   6.127
 6068POPC   D2A77140   7.522  44.749   6.558
 6068POPC   C3A77141   7.615   0.027   6.880
 6068POPC   C4A77142   7.458   0.068   7.275
 6068POPC   C1B77143   7.511  44.380   6.207
 6068POPC   C2B77144   7.613  44.256   6.631
 6068POPC   C3B77145   7.515  44.420   7.038
 6068POPC   C4B77146   7.716  44.603   7.382
 6069POPC   NC377147  19.461  19.268   5.485
 6069POPC   PO477148  18.872  19.028   5.444
 6069POPC   GL177149  19.153  18.996   5.805
 6069POPC   GL277150  19.157  19.321   5.912
 6069POPC   C1A77151  19.389  18.960   6.195
 6069POPC   D2A77152  19.239  18.854   6.621
 6069POPC   C3A77153  19.500  18.711   6.970
 6069POPC   C4A77154  19.398  18.710   7.411
 6069POPC   C1B77155  18.899  19.137   6.259
 6069POPC   C2B77156  18.745  19.350   6.644
 6069POPC   C3B77157  18.795  19.250   7.081
 6069POPC   C4B77158  18.706  18.870   7.211
 6070POPC   NC377159  32.543  19.375   5.409
 6070POPC   PO477160  32.021  18.922   5.468
 6070POPC   GL177161  32.123  18.947   5.880
 6070POPC   GL277162  32.343  19.241   5.868
 6070POPC   C1A77163  32.119  18.908   6.348
 6070POPC   D2A77164  32.173  19.242   6.670
 6070POPC   C3A77165  32.117  19.104   7.096
 6070POPC   C4A77166  32.030  18.739   7.349
 6070POPC   C1B77167  32.573  18.954   6.115
 6070POPC   C2B77168  32.601  18.964   6.552
 6070POPC   C3B77169  32.613  19.139   6.954
 6070POPC   C4B77170  32.554  18.950   7.317
 6071POPC   NC377171  13.835  30.079   5.378
 6071POPC   PO477172  13.142  29.905   5.291
 6071POPC   GL177173  13.420  29.946   5.684
 6071POPC   GL277174  13.674  29.716   5.730
 6071POPC   C1A77175  13.353  29.927   6.158
 6071POPC   D2A77176  13.545  29.767   6.557
 6071POPC   C3A77177  13.503  30.009   6.957
 6071POPC   C4A77178  13.430  30.046   7.410
 6071POPC   C1B77179  13.886  29.727   6.127
 6071POPC   C2B77180  14.049  29.886   6.515
 6071POPC   C3B77181  13.939  29.710   6.914
 6071POPC   C4B77182  13.904  29.921   7.277
 6072POPC   NC377183  24.074  29.403   5.539
 6072POPC   PO477184  24.076  30.073   5.260
 6072POPC   GL177185  23.929  29.984   5.697
 6072POPC   GL277186  23.678  29.705   5.788
 6072POPC   C1A77187  23.741  30.149   6.097
 6072POPC   D2A77188  23.605  30.079   6.548
 6072POPC   C3A77189  23.753  29.834   6.915
 6072POPC   C4A77190  23.848  30.055   7.304
 6072POPC   C1B77191  23.665  29.622   6.257
 6072POPC   C2B77192  23.339  29.618   6.614
 6072POPC   C3B77193  23.265  29.701   7.054
 6072POPC   C4B77194  23.483  29.712   7.454
 6073POPC   NC377195  39.180  39.455   5.324
 6073POPC   PO477196  39.253  38.855   5.446
 6073POPC   GL177197  39.479  38.936   5.823
 6073POPC   GL277198  39.449  39.292   5.875
 6073POPC   C1A77199  39.480  39.009   6.297
 6073POPC   D2A77200  39.497  39.009   6.735
 6073POPC   C3A77201  39.093  39.014   6.979
 6073POPC   C4A77202  38.980  39.304   7.278
 6073POPC   C1B77203  39.513  39.594   6.236
 6073POPC   C2B77204  39.495  39.541   6.689
 6073POPC   C3B77205  39.463  39.371   7.095
 6073POPC   C4B77206  39.519  39.595   7.396
 6074POPC   NC377207  30.681  39.353   5.383
 6074POPC   PO477208  30.509  38.750   5.569
 6074POPC   GL177209  30.806  39.057   5.799
 6074POPC   GL277210  30.970  39.418   5.788
 6074POPC   C1A77211  30.709  39.257   6.194
 6074POPC   D2A77212  30.721  38.995   6.543
 6074POPC   C3A77213  30.678  39.280   6.885
 6074POPC   C4A77214  30.357  39.398   7.179
 6074POPC   C1B77215  31.071  39.677   6.146
 6074POPC   C2B77216  30.936  39.748   6.560
 6074POPC   C3B77217  30.873  39.749   6.981
 6074POPC   C4B77218  30.824  39.546   7.337
 6075POPC   NC377219  18.109  17.094   5.602
 6075POPC   PO477220  18.284  16.381   5.400
 6075POPC   GL177221  18.507  16.560   5.727
 6075POPC   GL277222  18.233  16.708   5.933
 6075POPC   C1A77223  18.571  16.421   6.152
 6075POPC   D2A77224  18.317  16.595   6.470
 6075POPC   C3A77225  18.181  16.484   6.850
 6075POPC   C4A77226  18.260  16.505   7.237
 6075POPC   C1B77227  18.117  17.026   6.277
 6075POPC   C2B77228  18.089  16.996   6.747
 6075POPC   C3B77229  18.087  16.969   7.202
 6075POPC   C4B77230  18.069  17.142   7.636
 6076POPC   NC377231  12.799  21.794   5.249
 6076POPC   PO477232  12.902  22.467   5.444
 6076POPC   GL177233  12.791  22.244   5.811
 6076POPC   GL277234  12.803  21.873   5.760
 6076POPC   C1A77235  12.655  22.315   6.225
 6076POPC   D2A77236  12.863  22.189   6.586
 6076POPC   C3A77237  12.623  22.052   6.886
 6076POPC   C4A77238  12.640  22.242   7.295
 6076POPC   C1B77239  12.993  21.892   6.165
 6076POPC   C2B77240  13.300  21.938   6.493
 6076POPC   C3B77241  13.260  21.918   6.954
 6076POPC   C4B77242  12.888  21.768   7.208
 6077POPC   NC377243  25.578  27.710   5.567
 6077POPC   PO477244  24.916  27.431   5.308
 6077POPC   GL177245  25.070  27.572   5.733
 6077POPC   GL277246  25.370  27.362   5.893
 6077POPC   C1A77247  25.034  27.588   6.196
 6077POPC   D2A77248  24.951  27.594   6.626
 6077POPC   C3A77249  25.235  27.802   6.887
 6077POPC   C4A77250  25.220  27.653   7.297
 6077POPC   C1B77251  25.527  27.476   6.326
 6077POPC   C2B77252  25.483  27.375   6.763
 6077POPC   C3B77253  25.573  27.283   7.188
 6077POPC   C4B77254  25.694  27.393   7.616
 6078POPC   NC377255   9.913   3.450   5.676
 6078POPC   PO477256   9.497   3.787   5.262
 6078POPC   GL177257   9.516   3.788   5.794
 6078POPC   GL277258   9.529   3.473   5.998
 6078POPC   C1A77259   9.784   3.806   6.243
 6078POPC   D2A77260   9.944   3.590   6.637
 6078POPC   C3A77261   9.594   3.539   6.871
 6078POPC   C4A77262   9.514   3.672   7.278
 6078POPC   C1B77263   9.647   3.299   6.340
 6078POPC   C2B77264   9.678   3.052   6.673
 6078POPC   C3B77265   9.807   3.131   7.070
 6078POPC   C4B77266   9.996   3.418   7.304
 6079POPC   NC377267  32.533  17.476   5.249
 6079POPC   PO477268  32.065  17.901   5.554
 6079POPC   GL177269  32.136  17.735   5.963
 6079POPC   GL277270  32.137  17.382   6.041
 6079POPC   C1A77271  32.226  17.744   6.395
 6079POPC   D2A77272  32.519  17.437   6.564
 6079POPC   C3A77273  32.523  17.359   6.983
 6079POPC   C4A77274  32.593  17.383   7.417
 6079POPC   C1B77275  32.050  17.267   6.465
 6079POPC   C2B77276  32.054  17.527   6.827
 6079POPC   C3B77277  32.113  17.544   7.257
 6079POPC   C4B77278  32.132  17.266   7.614
 6080POPC   NC377279  40.311  11.129   5.111
 6080POPC   PO477280  40.184  10.511   5.340
 6080POPC   GL177281  39.960  10.445   5.730
 6080POPC   GL277282  40.155  10.739   5.829
 6080POPC   C1A77283  39.774  10.563   6.148
 6080POPC   D2A77284  39.998  10.755   6.492
 6080POPC   C3A77285  40.016  10.532   6.905
 6080POPC   C4A77286  39.965  10.711   7.334
 6080POPC   C1B77287  40.434  10.844   6.164
 6080POPC   C2B77288  40.501  10.674   6.567
 6080POPC   C3B77289  40.395  10.857   6.978
 6080POPC   C4B77290  40.272  11.142   7.300
 6081POPC   NC377291  40.634   0.840   5.407
 6081POPC   PO477292  40.909   0.247   5.461
 6081POPC   GL177293  40.560   0.427   5.759
 6081POPC   GL277294  40.440   0.799   5.862
 6081POPC   C1A77295  40.583   0.418   6.224
 6081POPC   D2A77296  40.826   0.589   6.605
 6081POPC   C3A77297  40.864   0.271   6.937
 6081POPC   C4A77298  40.678   0.185   7.333
 6081POPC   C1B77299  40.374   0.874   6.281
 6081POPC   C2B77300  40.310   0.599   6.627
 6081POPC   C3B77301  40.484   0.610   7.024
 6081POPC   C4B77302  40.363   1.008   7.098
 6082POPC   NC377303  41.636   2.315   5.485
 6082POPC   PO477304  41.471   1.778   5.154
 6082POPC   GL177305  41.469   1.904   5.710
 6082POPC   GL277306  41.819   1.972   5.843
 6082POPC   C1A77307  41.515   1.759   6.198
 6082POPC   D2A77308  41.754   1.888   6.569
 6082POPC   C3A77309  41.481   1.827   6.908
 6082POPC   C4A77310  41.551   1.806   7.327
 6082POPC   C1B77311  41.589   2.255   6.151
 6082POPC   C2B77312  41.474   2.326   6.590
 6082POPC   C3B77313  41.729   2.285   6.961
 6082POPC   C4B77314  41.662   2.498   7.335
 6083POPC   NC377315  36.165   7.887   5.061
 6083POPC   PO477316  35.950   8.406   5.245
 6083POPC   GL177317  36.058   8.263   5.750
 6083POPC   GL277318  36.328   8.099   5.758
 6083POPC   C1A77319  35.997   8.164   6.187
 6083POPC   D2A77320  36.134   8.357   6.574
 6083POPC   C3A77321  35.922   8.362   6.952
 6083POPC   C4A77322  35.848   8.065   7.265
 6083POPC   C1B77323  36.503   8.022   6.156
 6083POPC   C2B77324  36.422   7.857   6.559
 6083POPC   C3B77325  36.371   8.084   6.931
 6083POPC   C4B77326  36.580   8.117   7.291
 6084POPC   NC377327  34.476  30.726   5.368
 6084POPC   PO477328  35.048  30.366   5.469
 6084POPC   GL177329  34.691  30.468   5.751
 6084POPC   GL277330  34.307  30.433   5.759
 6084POPC   C1A77331  34.715  30.563   6.159
 6084POPC   D2A77332  34.704  30.417   6.561
 6084POPC   C3A77333  34.960  30.606   6.865
 6084POPC   C4A77334  34.863  30.543   7.273
 6084POPC   C1B77335  34.192  30.583   6.167
 6084POPC   C2B77336  34.193  30.395   6.581
 6084POPC   C3B77337  34.399  30.492   6.984
 6084POPC   C4B77338  34.179  30.788   7.202
 6085POPC   NC377339  44.837  30.466   5.536
 6085POPC   PO477340  44.453  30.963   5.299
 6085POPC   GL177341  44.571  30.862   5.738
 6085POPC   GL277342  44.915  30.920   5.814
 6085POPC   C1A77343  44.545  30.633   6.149
 6085POPC   D2A77344  44.823  30.445   6.474
 6085POPC   C3A77345  44.554  30.371   6.824
 6085POPC   C4A77346  44.578  30.692   7.136
 6085POPC   C1B77347  44.949  30.918   6.254
 6085POPC   C2B77348  44.711  30.928   6.640
 6085POPC   C3B77349  44.974  30.998   6.984
 6085POPC   C4B77350  44.961  31.075   7.398
 6086POPC   NC377351  30.158  42.126   5.472
 6086POPC   PO477352  29.578  42.438   5.352
 6086POPC   GL177353  29.683  42.150   5.706
 6086POPC   GL277354  29.386  42.089   5.863
 6086POPC   C1A77355  29.865  42.150   6.156
 6086POPC   D2A77356  30.087  42.387   6.496
 6086POPC   C3A77357  30.061  42.367   6.957
 6086POPC   C4A77358  30.201  42.647   7.295
 6086POPC   C1B77359  29.373  42.135   6.289
 6086POPC   C2B77360  29.627  42.007   6.617
 6086POPC   C3B77361  29.588  42.119   7.028
 6086POPC   C4B77362  29.684  42.434   7.316
 6087POPC   NC377363  40.229  28.902   5.494
 6087POPC   PO477364  39.643  29.155   5.543
 6087POPC   GL177365  39.889  29.040   5.869
 6087POPC   GL277366  40.116  29.314   5.793
 6087POPC   C1A77367  39.767  29.100   6.296
 6087POPC   D2A77368  39.524  29.101   6.663
 6087POPC   C3A77369  39.812  28.912   6.909
 6087POPC   C4A77370  40.043  28.810   7.238
 6087POPC   C1B77371  40.256  29.290   6.208
 6087POPC   C2B77372  40.213  29.037   6.568
 6087POPC   C3B77373  40.396  28.994   6.919
 6087POPC   C4B77374  40.357  29.183   7.313
 6088POPC   NC377375  20.334  42.131   5.403
 6088POPC   PO477376  20.740  42.646   5.409
 6088POPC   GL177377  20.507  42.488   5.767
 6088POPC   GL277378  20.781  42.488   5.999
 6088POPC   C1A77379  20.371  42.168   6.085
 6088POPC   D2A77380  20.273  42.070   6.523
 6088POPC   C3A77381  20.289  42.456   6.793
 6088POPC   C4A77382  20.413  42.360   7.200
 6088POPC   C1B77383  21.119  42.513   6.308
 6088POPC   C2B77384  21.041  42.626   6.760
 6088POPC   C3B77385  20.907  42.293   7.090
 6088POPC   C4B77386  21.144  42.081   7.439
 6089POPC   NC377387  42.343  21.119   5.438
 6089POPC   PO477388  42.575  21.767   5.484
 6089POPC   GL177389  42.469  21.471   5.814
 6089POPC   GL277390  42.120  21.386   5.801
 6089POPC   C1A77391  42.525  21.435   6.283
 6089POPC   D2A77392  42.587  21.277   6.702
 6089POPC   C3A77393  42.463  21.592   7.017
 6089POPC   C4A77394  42.532  21.624   7.477
 6089POPC   C1B77395  42.039  21.135   6.149
 6089POPC   C2B77396  42.090  21.292   6.534
 6089POPC   C3B77397  42.132  21.203   6.949
 6089POPC   C4B77398  42.060  21.495   7.291
 6090POPC   NC377399  30.698   4.806   5.591
 6090POPC   PO477400  30.985   5.436   5.436
 6090POPC   GL177401  30.729   5.310   5.792
 6090POPC   GL277402  30.951   5.090   5.919
 6090POPC   C1A77403  30.531   5.152   6.202
 6090POPC   D2A77404  30.648   4.945   6.577
 6090POPC   C3A77405  30.538   5.106   6.973
 6090POPC   C4A77406  30.370   4.821   7.276
 6090POPC   C1B77407  31.115   5.276   6.276
 6090POPC   C2B77408  31.179   5.119   6.695
 6090POPC   C3B77409  31.051   5.000   7.106
 6090POPC   C4B77410  31.144   5.211   7.478
 6091POPC   NC377411  20.543  25.440   5.108
 6091POPC   PO477412  21.101  25.050   5.132
 6091POPC   GL177413  20.772  25.204   5.508
 6091POPC   GL277414  20.706  24.984   5.759
 6091POPC   C1A77415  20.579  25.423   5.930
 6091POPC   D2A77416  20.645  25.403   6.394
 6091POPC   C3A77417  20.394  25.316   6.763
 6091POPC   C4A77418  20.545  25.343   7.208
 6091POPC   C1B77419  20.507  24.937   6.141
 6091POPC   C2B77420  20.607  24.874   6.540
 6091POPC   C3B77421  20.660  24.912   6.959
 6091POPC   C4B77422  20.624  24.874   7.384
 6092POPC   NC377423  38.012   7.596   5.516
 6092POPC   PO477424  38.675   7.503   5.360
 6092POPC   GL177425  38.500   7.495   5.771
 6092POPC   GL277426  38.559   7.863   5.768
 6092POPC   C1A77427  38.476   7.264   6.203
 6092POPC   D2A77428  38.621   6.987   6.568
 6092POPC   C3A77429  38.585   7.192   6.974
 6092POPC   C4A77430  38.390   7.249   7.403
 6092POPC   C1B77431  38.352   7.803   6.137
 6092POPC   C2B77432  38.445   7.680   6.520
 6092POPC   C3B77433  38.567   7.692   6.913
 6092POPC   C4B77434  38.689   7.640   7.284
 6093POPC   NC377435  42.275  20.739   4.998
 6093POPC   PO477436  42.340  20.178   5.306
 6093POPC   GL177437  42.357  20.472   5.705
 6093POPC   GL277438  42.268  20.818   5.822
 6093POPC   C1A77439  42.365  20.477   6.183
 6093POPC   D2A77440  42.272  20.801   6.504
 6093POPC   C3A77441  42.228  20.678   6.910
 6093POPC   C4A77442  42.247  20.511   7.306
 6093POPC   C1B77443  42.584  20.956   6.117
 6093POPC   C2B77444  42.772  20.781   6.480
 6093POPC   C3B77445  42.723  20.820   6.907
 6093POPC   C4B77446  42.477  20.991   7.274
 6094POPC   NC377447  26.370  29.716   5.489
 6094POPC   PO477448  25.856  29.944   5.133
 6094POPC   GL177449  25.907  29.972   5.592
 6094POPC   GL277450  25.772  29.726   5.808
 6094POPC   C1A77451  26.072  30.076   6.025
 6094POPC   D2A77452  26.128  29.843   6.444
 6094POPC   C3A77453  26.284  29.991   6.854
 6094POPC   C4A77454  26.255  29.808   7.287
 6094POPC   C1B77455  25.651  29.839   6.210
 6094POPC   C2B77456  25.641  29.718   6.604
 6094POPC   C3B77457  25.915  29.615   6.910
 6094POPC   C4B77458  25.755  29.771   7.281
 6095POPC   NC377459  10.249  43.252   4.808
 6095POPC   PO477460  10.048  43.088   5.345
 6095POPC   GL177461   9.845  43.090   5.799
 6095POPC   GL277462   9.779  42.765   5.898
 6095POPC   C1A77463   9.563  43.053   6.238
 6095POPC   D2A77464   9.405  43.168   6.674
 6095POPC   C3A77465   9.308  43.119   7.111
 6095POPC   C4A77466   9.471  42.862   7.419
 6095POPC   C1B77467  10.062  42.913   6.259
 6095POPC   C2B77468   9.964  43.197   6.638
 6095POPC   C3B77469   9.803  43.053   7.029
 6095POPC   C4B77470   9.894  42.639   7.202
 6096POPC   NC377471  26.758  15.835   5.063
 6096POPC   PO477472  27.162  16.107   5.549
 6096POPC   GL177473  26.931  16.244   5.890
 6096POPC   GL277474  26.935  15.897   5.980
 6096POPC   C1A77475  26.641  16.172   6.270
 6096POPC   D2A77476  26.656  15.795   6.531
 6096POPC   C3A77477  26.715  15.947   6.938
 6096POPC   C4A77478  26.583  15.875   7.322
 6096POPC   C1B77479  27.104  15.651   6.276
 6096POPC   C2B77480  27.146  15.754   6.682
 6096POPC   C3B77481  27.032  15.553   7.035
 6096POPC   C4B77482  27.053  15.687   7.437
 6097POPC   NC377483  25.600   5.054   5.333
 6097POPC   PO477484  25.114   5.496   5.201
 6097POPC   GL177485  25.234   5.211   5.654
 6097POPC   GL277486  25.421   4.934   5.776
 6097POPC   C1A77487  25.241   5.188   6.160
 6097POPC   D2A77488  25.033   5.051   6.554
 6097POPC   C3A77489  25.284   5.079   6.927
 6097POPC   C4A77490  25.326   5.460   7.135
 6097POPC   C1B77491  25.517   4.716   6.129
 6097POPC   C2B77492  25.360   4.654   6.526
 6097POPC   C3B77493  25.548   4.629   6.905
 6097POPC   C4B77494  25.333   4.681   7.291
 6098POPC   NC377495  18.318  12.403   5.605
 6098POPC   PO477496  18.741  11.854   5.469
 6098POPC   GL177497  18.563  12.050   5.893
 6098POPC   GL277498  18.632  12.428   5.974
 6098POPC   C1A77499  18.387  12.202   6.328
 6098POPC   D2A77500  17.992  12.069   6.517
 6098POPC   C3A77501  18.072  11.887   6.868
 6098POPC   C4A77502  18.194  12.021   7.226
 6098POPC   C1B77503  18.809  12.570   6.285
 6098POPC   C2B77504  18.559  12.578   6.632
 6098POPC   C3B77505  18.418  12.273   6.842
 6098POPC   C4B77506  18.454  12.476   7.239
 6099POPC   NC377507  38.696   1.304   5.594
 6099POPC   PO477508  39.347   1.453   5.424
 6099POPC   GL177509  39.282   1.159   5.767
 6099POPC   GL277510  39.014   0.898   5.801
 6099POPC   C1A77511  39.197   1.236   6.215
 6099POPC   D2A77512  39.218   1.456   6.601
 6099POPC   C3A77513  39.309   1.229   6.960
 6099POPC   C4A77514  39.188   1.393   7.365
 6099POPC   C1B77515  38.829   0.892   6.213
 6099POPC   C2B77516  38.841   1.065   6.607
 6099POPC   C3B77517  38.818   1.096   7.044
 6099POPC   C4B77518  39.087   0.893   7.311
 6100POPC   NC377519  34.464  44.768   5.194
 6100POPC   PO477520  34.868  44.353   5.470
 6100POPC   GL177521  34.598  44.655   5.693
 6100POPC   GL277522  34.277  44.502   5.789
 6100POPC   C1A77523  34.619  44.939   6.076
 6100POPC   D2A77524  34.427   0.053   6.483
 6100POPC   C3A77525  34.557  44.834   6.902
 6100POPC   C4A77526  34.889  44.749   7.218
 6100POPC   C1B77527  34.539  44.447   6.164
 6100POPC   C2B77528  34.796  44.541   6.547
 6100POPC   C3B77529  34.788  44.322   6.959
 6100POPC   C4B77530  34.475  44.420   7.306
 6101POPC   NC377531  18.608   0.295   5.485
 6101POPC   PO477532  18.134   0.753   5.355
 6101POPC   GL177533  18.224   0.487   5.745
 6101POPC   GL277534  18.017   0.205   5.811
 6101POPC   C1A77535  18.338   0.519   6.184
 6101POPC   D2A77536  18.224   0.811   6.504
 6101POPC   C3A77537  18.223   0.632   6.893
 6101POPC   C4A77538  18.083   0.750   7.267
 6101POPC   C1B77539  18.134   0.047   6.208
 6101POPC   C2B77540  18.004   0.121   6.632
 6101POPC   C3B77541  17.880   0.268   7.025
 6101POPC   C4B77542  18.233   0.234   7.259
 6102POPC   NC377543   0.287  38.162   5.611
 6102POPC   PO477544   0.599  38.634   5.246
 6102POPC   GL177545   0.595  38.590   5.753
 6102POPC   GL277546   0.270  38.519   5.955
 6102POPC   C1A77547   0.641  38.700   6.232
 6102POPC   D2A77548   0.734  38.341   6.512
 6102POPC   C3A77549   0.454  38.403   6.832
 6102POPC   C4A77550   0.435  38.560   7.228
 6102POPC   C1B77551   0.302  38.179   6.296
 6102POPC   C2B77552   0.042  38.138   6.691
 6102POPC   C3B77553   0.163  38.102   7.142
 6102POPC   C4B77554   0.352  38.187   7.580
 6103POPC   NC377555  17.656  15.457   5.463
 6103POPC   PO477556  17.398  16.108   5.418
 6103POPC   GL177557  17.641  15.998   5.810
 6103POPC   GL277558  17.540  15.663   5.928
 6103POPC   C1A77559  17.517  16.101   6.245
 6103POPC   D2A77560  17.398  15.899   6.637
 6103POPC   C3A77561  17.383  16.166   7.003
 6103POPC   C4A77562  17.040  16.195   7.297
 6103POPC   C1B77563  17.893  15.726   6.205
 6103POPC   C2B77564  17.906  15.661   6.639
 6103POPC   C3B77565  17.592  15.570   6.991
 6103POPC   C4B77566  17.275  15.737   7.302
 6104POPC   NC377567  44.891   0.153   5.456
 6104POPC   PO477568   0.503   0.588   5.496
 6104POPC   GL177569   0.667   0.502   5.857
 6104POPC   GL277570   0.975   0.593   5.728
 6104POPC   C1A77571   0.487   0.320   6.255
 6104POPC   D2A77572   0.145   0.282   6.555
 6104POPC   C3A77573   0.331   0.398   6.940
 6104POPC   C4A77574   0.305   0.243   7.362
 6104POPC   C1B77575   0.967   0.815   6.126
 6104POPC   C2B77576   0.791   0.763   6.527
 6104POPC   C3B77577   0.918   0.676   6.928
 6104POPC   C4B77578   0.727   0.502   7.263
 6105POPC   NC377579   6.499  27.973   5.568
 6105POPC   PO477580   6.577  28.666   5.497
 6105POPC   GL177581   6.552  28.667   5.892
 6105POPC   GL277582   6.371  28.369   5.860
 6105POPC   C1A77583   6.777  28.415   6.198
 6105POPC   D2A77584   6.936  28.238   6.583
 6105POPC   C3A77585   6.832  28.417   6.978
 6105POPC   C4A77586   6.756  28.247   7.384
 6105POPC   C1B77587   6.296  28.203   6.233
 6105POPC   C2B77588   6.436  28.066   6.608
 6105POPC   C3B77589   6.351  28.243   6.986
 6105POPC   C4B77590   6.403  28.599   7.256
 6106POPC   NC377591  39.439  30.297   5.534
 6106POPC   PO477592  39.024  29.766   5.543
 6106POPC   GL177593  39.263  29.926   5.867
 6106POPC   GL277594  39.640  29.858   5.841
 6106POPC   C1A77595  39.126  29.909   6.276
 6106POPC   D2A77596  38.955  30.070   6.631
 6106POPC   C3A77597  39.090  29.861   6.981
 6106POPC   C4A77598  39.065  29.537   7.297
 6106POPC   C1B77599  39.593  30.131   6.202
 6106POPC   C2B77600  39.432  30.242   6.594
 6106POPC   C3B77601  39.473  30.210   7.022
 6106POPC   C4B77602  39.471  29.894   7.331
 6107POPC   NC377603  37.225   9.021   5.320
 6107POPC   PO477604  36.490   8.965   5.281
 6107POPC   GL177605  36.667   8.912   5.707
 6107POPC   GL277606  36.983   9.092   5.777
 6107POPC   C1A77607  36.650   8.971   6.158
 6107POPC   D2A77608  36.812   9.162   6.515
 6107POPC   C3A77609  36.787   8.969   6.915
 6107POPC   C4A77610  36.606   9.045   7.297
 6107POPC   C1B77611  37.156   8.813   6.115
 6107POPC   C2B77612  37.063   8.662   6.542
 6107POPC   C3B77613  37.251   8.767   6.935
 6107POPC   C4B77614  37.144   8.932   7.340
 6108POPC   NC377615  29.737  36.684   5.488
 6108POPC   PO477616  30.144  37.276   5.399
 6108POPC   GL177617  30.037  37.071   5.791
 6108POPC   GL277618  30.131  36.725   5.809
 6108POPC   C1A77619  29.964  37.158   6.254
 6108POPC   D2A77620  30.143  37.121   6.679
 6108POPC   C3A77621  29.987  36.997   7.141
 6108POPC   C4A77622  30.170  37.102   7.583
 6108POPC   C1B77623  29.970  36.673   6.209
 6108POPC   C2B77624  29.819  36.707   6.636
 6108POPC   C3B77625  29.503  36.777   6.965
 6108POPC   C4B77626  29.406  36.542   7.332
 6109POPC   NC377627   7.033  31.706   5.162
 6109POPC   PO477628   7.625  31.500   5.542
 6109POPC   GL177629   7.664  31.681   5.895
 6109POPC   GL277630   7.287  31.719   5.924
 6109POPC   C1A77631   7.663  31.719   6.286
 6109POPC   D2A77632   7.388  31.613   6.582
 6109POPC   C3A77633   7.556  31.509   6.963
 6109POPC   C4A77634   7.531  31.492   7.387
 6109POPC   C1B77635   7.192  31.345   6.171
 6109POPC   C2B77636   7.038  31.254   6.609
 6109POPC   C3B77637   7.063  31.378   7.057
 6109POPC   C4B77638   7.099  31.229   7.513
 6110W        W77639  43.774   0.030   3.388
 6111W        W77640  37.430  40.646  11.699
 6112W        W77641   4.423  20.637  14.016
 6113W        W77642   7.648  34.123  10.801
 6114W        W77643  26.378  43.771   4.279
 6115W        W77644  31.413   0.394  14.960
 6116W        W77645  30.875  11.266  14.344
 6117W        W77646   4.384  42.949  12.987
 6118W        W77647  14.799  22.503   0.295
 6119W        W77648  44.652  28.037   4.003
 6120W        W77649  38.728   7.634   4.855
 6121W        W77650  15.609   6.182  12.932
 6122W        W77651  19.761  22.564   2.636
 6123W        W77652  40.770  34.058  10.737
 6124W        W77653  21.867   0.145   0.312
 6125W        W77654  29.834  11.182   2.885
 6126W        W77655  33.514  43.762   4.191
 6127W        W77656  14.566  42.060   2.676
 6128W        W77657   3.446  20.724  13.058
 6129W        W77658  17.775  24.531   4.481
 6130W        W77659  25.076  44.281   3.570
 6131W        W77660  42.963  16.077   4.110
 6132W        W77661  11.858  28.492  12.027
 6133W        W77662  29.057  33.847  11.613
 6134W        W77663  26.827   9.272  11.991
 6135W        W77664  24.269   6.933  11.976
 6136W        W77665   6.224  19.740   1.198
 6137W        W77666  30.162  34.632   5.588
 6138W        W77667   3.915  29.791   2.186
 6139W        W77668   3.816  10.909   2.378
 6140W        W77669  43.404  14.028   9.862
 6141W        W77670   3.767  41.867   0.414
 6142W        W77671  13.887  42.252   1.671
 6143W        W77672  26.516   7.300  10.917
 6144W        W77673  44.331  10.403  14.368
 6145W        W77674  31.683   1.225   3.657
 6146W        W77675  19.690  25.617   0.137
 6147W        W77676  11.329  15.886   0.236
 6148W        W77677  39.025  43.263   0.765
 6149W        W77678  21.820  28.701   0.414
 6150W        W77679   3.070  35.940  13.197
 6151W        W77680  30.533  35.718   0.190
 6152W        W77681  27.669  28.744  11.219
 6153W        W77682   6.673  27.068  13.990
 6154W        W77683  34.130   2.458   0.396
 6155W        W77684   1.259  26.473  14.879
 6156W        W77685  26.023   6.203  10.736
 6157W        W77686  38.023  32.935   3.781
 6158W        W77687  33.064  40.524  10.736
 6159W        W77688  11.392  20.658  13.004
 6160W        W77689  22.516   9.870  11.542
 6161W        W77690  43.684  29.871  12.944
 6162W        W77691  18.161  13.378  11.600
 6163W        W77692  26.715  27.215   3.148
 6164W        W77693   8.131  10.263  10.784
 6165W        W77694   2.810   6.282  11.975
 6166W        W77695  39.288  40.970  14.413
 6167W        W77696   2.266  36.577   1.385
 6168W        W77697  22.786  24.134  11.599
 6169W        W77698  34.510  18.811   1.889
 6170W        W77699  34.162  27.614  10.375
 6171W        W77700  10.689  17.105  12.560
 6172W        W77701  19.644   2.866   0.177
 6173W        W77702   0.510   4.749   0.783
 6174W        W77703  34.195  32.998   0.916
 6175W        W77704  17.853   2.750  13.337
 6176W        W77705  23.149  14.716  11.476
 6177W        W77706  37.471  39.596  11.969
 6178W        W77707  37.482  20.083  11.147
 6179W        W77708   1.520   5.960   4.507
 6180W        W77709   9.840  38.585   3.167
 6181W        W77710  12.066   8.883   4.434
 6182W        W77711  32.268  35.964   2.853
 6183W        W77712  25.678   0.817  12.399
 6184W        W77713  14.683   4.393   4.568
 6185W        W77714  34.053  16.712  11.413
 6186W        W77715  40.612   6.250   0.918
 6187W        W77716  20.839  20.664  13.574
 6188W        W77717  25.089  25.239  13.323
 6189W        W77718  13.367  21.751   1.352
 6190W        W77719  38.120   9.701   2.328
 6191W        W77720  28.582   0.989  14.986
 6192W        W77721  23.675   3.727  13.761
 6193W        W77722  40.776  14.648  13.852
 6194W        W77723  20.840  22.759  13.878
 6195W        W77724  35.429  44.860   0.703
 6196W        W77725   1.938  10.273   2.553
 6197W        W77726  42.830   1.453  11.586
 6198W        W77727  12.153  20.797  11.042
 6199W        W77728  34.920   6.686   1.324
 6200W        W77729  25.438  42.837  13.026
 6201W        W77730  34.897  12.081  11.201
 6202W        W77731  33.430  33.583  14.929
 6203W        W77732   2.248  40.855   1.465
 6204W        W77733  40.029  27.303  12.989
 6205W        W77734  38.351  34.953  12.100
 6206W        W77735  38.100  42.261  11.950
 6207W        W77736   7.701   5.910  13.599
 6208W        W77737  34.494   0.495  10.454
 6209W        W77738  12.910  39.839   4.592
 6210W        W77739   0.480   9.642  14.456
 6211W        W77740  43.938   6.950   4.311
 6212W        W77741  36.037  23.258   4.081
 6213W        W77742  27.594  11.594  10.703
 6214W        W77743  30.425   6.241   0.921
 6215W        W77744  21.467   9.223  12.002
 6216W        W77745  33.523   2.456  11.515
 6217W        W77746  30.215  12.415   1.385
 6218W        W77747   1.936  12.714   3.823
 6219W        W77748  18.177  32.385  13.072
 6220W        W77749   0.567  15.848   0.375
 6221W        W77750  14.597  42.270  12.109
 6222W        W77751  36.436   1.098   4.756
 6223W        W77752  12.182  41.221   2.644
 6224W        W77753  40.381  32.174  12.393
 6225W        W77754  22.892   0.950   0.146
 6226W        W77755  20.052  30.663  11.979
 6227W        W77756  22.586  44.872  10.645
 6228W        W77757  16.771  44.959  11.976
 6229W        W77758   7.757  16.240  11.654
 6230W        W77759  22.643  20.120   4.448
 6231W        W77760  35.295  10.290  12.142
 6232W        W77761  39.604   0.933   2.577
 6233W        W77762  21.763   9.283  10.713
 6234W        W77763  20.147  12.714   5.076
 6235W        W77764  38.102  42.832  13.560
 6236W        W77765  25.577  26.523  14.392
 6237W        W77766  23.993   6.153  12.246
 6238W        W77767  14.781  36.002   1.463
 6239W        W77768  12.549  23.663  10.698
 6240W        W77769  28.111  12.314   0.409
 6241W        W77770   0.827  37.587   4.538
 6242W        W77771   2.092  25.693   2.404
 6243W        W77772  13.234  37.158  12.477
 6244W        W77773   1.667  18.682   2.157
 6245W        W77774   2.518  36.137  10.651
 6246W        W77775  31.501  36.379   2.610
 6247W        W77776  43.309   4.553   3.121
 6248W        W77777   3.845  39.109  11.881
 6249W        W77778   1.357   9.624  14.321
 6250W        W77779   0.848  36.556   1.491
 6251W        W77780  25.479  16.605   2.386
 6252W        W77781  21.099  10.315  13.872
 6253W        W77782  28.509   8.572  10.496
 6254W        W77783  41.134  21.938   0.730
 6255W        W77784  42.416  31.144   3.211
 6256W        W77785   3.161  16.073   0.378
 6257W        W77786  12.792  44.119   3.095
 6258W        W77787  26.925  19.797   1.872
 6259W        W77788  38.824  23.916  11.165
 6260W        W77789  21.234   4.746   1.752
 6261W        W77790  27.005   5.216  10.469
 6262W        W77791  23.700  42.300  12.535
 6263W        W77792  11.093   6.921   1.968
 6264W        W77793  18.593  31.152   4.218
 6265W        W77794  20.764   6.668   4.661
 6266W        W77795  41.879  31.066  11.518
 6267W        W77796  28.612  16.086   2.323
 6268W        W77797  36.004  39.992   4.562
 6269W        W77798  22.412  29.605   3.370
 6270W        W77799  14.315  43.081   1.437
 6271W        W77800  35.202  15.676   1.195
 6272W        W77801  17.053  41.724  13.565
 6273W        W77802  44.294   3.697   3.940
 6274W        W77803  22.766   2.887  10.708
 6275W        W77804  22.989  43.002  11.166
 6276W        W77805  43.414  26.076   0.527
 6277W        W77806  20.470  25.702  11.689
 6278W        W77807  20.622  35.838   4.676
 6279W        W77808  28.568  14.583   1.340
 6280W        W77809  10.538   0.547   3.716
 6281W        W77810  29.170   5.503   1.727
 6282W        W77811   2.938  43.355   3.632
 6283W        W77812  31.696  23.492  11.022
 6284W        W77813  13.853  25.202  14.052
 6285W        W77814   5.908  31.844  11.155
 6286W        W77815  13.283  22.079   3.820
 6287W        W77816  27.514  18.185   1.581
 6288W        W77817   0.557  31.959   2.669
 6289W        W77818  18.500  28.109  11.062
 6290W        W77819   4.193  44.936  10.932
 6291W        W77820  11.731  43.300   1.501
 6292W        W77821  26.229   1.478  12.591
 6293W        W77822  35.394   6.225   1.640
 6294W        W77823  39.987  32.857  14.945
 6295W        W77824  19.362  20.108   4.124
 6296W        W77825   3.462  34.012  10.482
 6297W        W77826  37.609  14.235  13.900
 6298W        W77827  39.230   1.529  11.044
 6299W        W77828  27.496  25.309   2.073
 6300W        W77829  12.776  36.019   1.089
 6301W        W77830  24.521  23.502  12.066
 6302W        W77831   7.286   0.355  11.197
 6303W        W77832  43.467  37.903   4.103
 6304W        W77833  33.345  24.300   0.286
 6305W        W77834  30.903  14.961  13.043
 6306W        W77835  12.381  23.138   0.675
 6307W        W77836  29.480  44.432   0.859
 6308W        W77837  42.310  40.553  11.576
 6309W        W77838  29.825   1.018  13.342
 6310W        W77839  42.419  26.479   0.475
 6311W        W77840  18.212  30.609  10.081
 6312W        W77841  38.820  24.449  13.917
 6313W        W77842  20.750  36.564  11.433
 6314W        W77843   1.674   2.459  13.011
 6315W        W77844  11.155  12.914  12.018
 6316W        W77845  11.883  18.145  13.046
 6317W        W77846  24.517  42.998   3.591
 6318W        W77847  41.406  41.443   0.092
 6319W        W77848  10.051   4.548   4.877
 6320W        W77849  30.948  19.970  11.551
 6321W        W77850  38.054   5.139   0.204
 6322W        W77851  11.135  41.540   0.903
 6323W        W77852  22.423  14.812  13.102
 6324W        W77853  33.559   7.419  13.492
 6325W        W77854  33.519  31.253  10.762
 6326W        W77855  14.274  11.876   2.906
 6327W        W77856  39.856  12.913   0.724
 6328W        W77857  10.771  23.262  14.563
 6329W        W77858  28.089  36.747  14.553
 6330W        W77859  21.626   0.850   3.332
 6331W        W77860  31.581  37.582   2.596
 6332W        W77861  14.394  26.050   1.950
 6333W        W77862  39.028   1.875   1.362
 6334W        W77863  42.079  12.324  12.002
 6335W        W77864  21.159  43.975  11.978
 6336W        W77865  15.813  44.297  14.423
 6337W        W77866   7.309  37.090   0.797
 6338W        W77867  44.401  41.092   0.522
 6339W        W77868  17.582  42.815  12.842
 6340W        W77869  38.618  14.139  12.887
 6341W        W77870  31.606  18.503   3.304
 6342W        W77871  40.391  38.468   3.197
 6343W        W77872  15.271  35.033   4.286
 6344W        W77873  29.504  17.270  11.087
 6345W        W77874  30.973   1.018   2.411
 6346W        W77875   4.307  44.265  11.495
 6347W        W77876  27.571  17.058  14.079
 6348W        W77877   2.992   0.307  12.519
 6349W        W77878  43.697  27.057  11.687
 6350W        W77879  17.673  17.511   3.925
 6351W        W77880  15.250   6.591  14.757
 6352W        W77881   6.393  37.237  12.046
 6353W        W77882  30.593  10.582   1.870
 6354W        W77883   1.941  25.491  11.049
 6355W        W77884  33.152  32.361  14.543
 6356W        W77885  30.313   3.888   0.006
 6357W        W77886  20.244  11.803  12.438
 6358W        W77887  21.471   8.926  12.460
 6359W        W77888  28.523  37.993   0.954
 6360W        W77889  16.789   6.309   3.198
 6361W        W77890  12.369   5.328  13.987
 6362W        W77891  32.369   9.676   0.817
 6363W        W77892  19.588  12.965  12.035
 6364W        W77893  17.208  18.982   4.811
 6365W        W77894  40.802  28.567  12.935
 6366W        W77895   9.408  34.807   0.877
 6367W        W77896  12.765  22.277   1.405
 6368W        W77897  41.860  13.568   0.922
 6369W        W77898   0.197   7.206   1.440
 6370W        W77899  10.143  43.714   2.257
 6371W        W77900  20.824  23.072   3.258
 6372W        W77901   4.893  13.683  14.938
 6373W        W77902  33.609  30.127   0.693
 6374W        W77903  18.353  36.083  12.997
 6375W        W77904  39.873  36.482   0.917
 6376W        W77905  44.298  28.632  11.630
 6377W        W77906  11.430  17.230   3.149
 6378W        W77907  29.823  24.091   3.122
 6379W        W77908  11.367  40.744   3.596
 6380W        W77909  17.094  24.033  13.277
 6381W        W77910  10.627  44.835   0.446
 6382W        W77911  22.183  22.730   2.804
 6383W        W77912   9.657  31.854  14.285
 6384W        W77913   5.374  30.881   3.599
 6385W        W77914  44.290  44.915  13.590
 6386W        W77915  10.601  38.325  14.106
 6387W        W77916  19.144  37.340   3.378
 6388W        W77917  16.779   0.797   0.738
 6389W        W77918   5.233  14.172   1.964
 6390W        W77919   7.332  18.896   0.534
 6391W        W77920  25.045   6.873   3.229
 6392W        W77921  32.109  26.268   0.904
 6393W        W77922   1.563  16.965   1.942
 6394W        W77923  24.786  42.056  13.862
 6395W        W77924  34.451   0.759  14.158
 6396W        W77925  12.198  36.663   3.736
 6397W        W77926  39.903  42.507   5.276
 6398W        W77927   8.092  17.689  13.521
 6399W        W77928  35.040  38.855  11.425
 6400W        W77929  44.392  39.565  14.385
 6401W        W77930   5.697   6.360  14.810
 6402W        W77931  41.348  36.534  12.939
 6403W        W77932  35.041  15.523   1.697
 6404W        W77933   7.278  19.797   3.263
 6405W        W77934  23.009  41.755  13.923
 6406W        W77935  13.283  37.576   3.764
 6407W        W77936  24.608   0.733  13.939
 6408W        W77937   6.720   9.310  13.851
 6409W        W77938  32.518  37.539   1.890
 6410W        W77939  31.938   6.691  10.469
 6411W        W77940  28.960   9.966   2.177
 6412W        W77941  12.630  42.520   3.760
 6413W        W77942  39.394  32.114   0.784
 6414W        W77943   4.956   0.664   3.808
 6415W        W77944  18.890  35.853   0.392
 6416W        W77945   1.042  20.985  14.253
 6417W        W77946  36.506  18.572   2.603
 6418W        W77947  39.314   4.364   2.639
 6419W        W77948  18.269  40.838  12.080
 6420W        W77949   2.401  32.631  14.704
 6421W        W77950  34.784  38.580   3.308
 6422W        W77951  24.734  33.821  12.992
 6423W        W77952   3.344   6.265  10.775
 6424W        W77953  29.517  35.844   1.763
 6425W        W77954  42.723  15.250   2.734
 6426W        W77955  43.880   2.941  12.358
 6427W        W77956  36.618  33.885  13.379
 6428W        W77957  19.050  33.541   2.934
 6429W        W77958  30.240  41.150   2.200
 6430W        W77959  23.737  29.212  13.701
 6431W        W77960  10.333  33.140  11.037
 6432W        W77961  21.320  42.232   2.847
 6433W        W77962  22.135  14.604   2.845
 6434W        W77963  30.126   2.842   1.951
 6435W        W77964  38.408   8.126  12.912
 6436W        W77965  25.678  26.397   3.729
 6437W        W77966  40.327   3.914  12.421
 6438W        W77967   3.280   3.044   1.779
 6439W        W77968  13.204  19.658   1.584
 6440W        W77969  39.780   6.904  12.955
 6441W        W77970  16.355  42.356   2.294
 6442W        W77971  38.056  21.199   4.524
 6443W        W77972  34.950  12.657   4.580
 6444W        W77973  17.317  26.660  10.717
 6445W        W77974  16.079   9.377  10.778
 6446W        W77975   5.622  10.929  11.212
 6447W        W77976   5.296  40.904  13.363
 6448W        W77977  25.786  39.764   1.608
 6449W        W77978  36.626  39.496  13.536
 6450W        W77979  28.066  33.427  14.025
 6451W        W77980   8.335  22.391  11.143
 6452W        W77981  28.481  37.416   2.361
 6453W        W77982  36.879  18.927  13.449
 6454W        W77983  19.210  19.622   3.222
 6455W        W77984  11.917  38.946  13.394
 6456W        W77985  17.566  16.618  12.182
 6457W        W77986  33.491  15.316   1.491
 6458W        W77987  15.961  28.906   2.253
 6459W        W77988  43.768  11.540  14.843
 6460W        W77989  31.674  30.547   1.322
 6461W        W77990  28.355  30.995   4.743
 6462W        W77991  36.892  35.037   0.442
 6463W        W77992  38.860  42.562   4.682
 6464W        W77993  29.284  37.315   5.125
 6465W        W77994  27.117  14.088  11.143
 6466W        W77995   5.380  40.486  11.611
 6467W        W77996  38.562   1.400   4.342
 6468W        W77997  10.668  11.347  11.509
 6469W        W77998  36.205  32.275   3.602
 6470W        W77999  42.830  31.142  11.610
 6471W        W78000  11.558  31.479  14.765
 6472W        W78001  20.315  38.329   0.754
 6473W        W78002   6.757  35.047  10.960
 6474W        W78003  24.570  25.964  11.726
 6475W        W78004   3.517   1.398  12.114
 6476W        W78005  42.439   8.869  14.032
 6477W        W78006  23.503  22.463   3.214
 6478W        W78007  12.447  37.305   5.032
 6479W        W78008  31.341  21.008  14.341
 6480W        W78009  44.786  43.978   3.438
 6481W        W78010  42.283  28.502   1.510
 6482W        W78011   1.994  44.503  12.955
 6483W        W78012  15.311   2.029   0.509
 6484W        W78013  14.347  42.815   0.962
 6485W        W78014  34.711   5.893  14.378
 6486W        W78015  19.031   1.608  14.966
 6487W        W78016  22.205   7.441  12.808
 6488W        W78017  35.936  31.701   2.782
 6489W        W78018  15.089  11.113   1.157
 6490W        W78019   6.850   9.383  12.915
 6491W        W78020  21.666   1.886   4.292
 6492W        W78021   0.235   8.216   4.195
 6493W        W78022  35.648   6.815   4.726
 6494W        W78023  32.369  16.356  13.831
 6495W        W78024  19.103  10.343   0.853
 6496W        W78025  44.281  22.059   2.386
 6497W        W78026  26.580  14.964  14.962
 6498W        W78027  19.903  16.267  13.895
 6499W        W78028   0.352  39.408  13.401
 6500W        W78029  38.076  36.839  14.804
 6501W        W78030  21.831  20.108   2.716
 6502W        W78031  32.057   5.172  12.837
 6503W        W78032  41.780   9.700  11.024
 6504W        W78033  34.503   9.771   2.790
 6505W        W78034  28.499  36.626   4.082
 6506W        W78035  43.295  38.892  12.940
 6507W        W78036  41.747  30.476  11.146
 6508W        W78037  30.912  43.323   4.972
 6509W        W78038   4.235   8.904  13.860
 6510W        W78039  28.913  15.236  13.351
 6511W        W78040  17.101  36.392  12.525
 6512W        W78041  27.681   0.423  10.547
 6513W        W78042  41.000  26.318   0.277
 6514W        W78043   9.823  33.110   2.447
 6515W        W78044  32.389  17.784   4.811
 6516W        W78045  21.031  16.581  10.725
 6517W        W78046   2.020  15.411  14.793
 6518W        W78047  42.897  18.813   3.859
 6519W        W78048  13.761  34.527   2.655
 6520W        W78049  44.224   3.821   2.918
 6521W        W78050   9.845  29.103   0.737
 6522W        W78051  17.093  29.030   4.210
 6523W        W78052   1.189  19.648  14.998
 6524W        W78053  10.984  11.162  11.876
 6525W        W78054   1.181  11.672  13.519
 6526W        W78055  30.134   1.936   3.476
 6527W        W78056   0.065  44.965  13.003
 6528W        W78057   7.300  18.274   1.303
 6529W        W78058  35.694  13.357  12.062
 6530W        W78059  38.665  33.505  10.295
 6531W        W78060  18.516  44.338  13.432
 6532W        W78061  42.806  28.793   0.606
 6533W        W78062  17.111  26.678   0.002
 6534W        W78063  25.126   7.420   2.290
 6535W        W78064  36.605  10.933   0.358
 6536W        W78065  15.646  19.653   1.453
 6537W        W78066  42.492  16.892   4.090
 6538W        W78067  30.555  20.500  10.791
 6539W        W78068  25.684  44.846  12.532
 6540W        W78069  29.943   6.443   3.716
 6541W        W78070  23.533  40.099  12.812
 6542W        W78071  16.777  39.120   0.239
 6543W        W78072  14.354  34.440  11.056
 6544W        W78073   3.113  38.185  11.132
 6545W        W78074   2.423  40.319  13.496
 6546W        W78075  30.206   8.425   2.512
 6547W        W78076  34.009  29.583  14.344
 6548W        W78077  31.114  25.674   4.317
 6549W        W78078  16.813   8.162  12.849
 6550W        W78079   3.091  33.495   0.187
 6551W        W78080   1.961  27.821   0.287
 6552W        W78081  25.426  44.544  14.472
 6553W        W78082  42.936  21.147   2.181
 6554W        W78083  37.120  14.343  11.714
 6555W        W78084  11.773  44.709   1.344
 6556W        W78085   4.934  28.953  13.484
 6557W        W78086  44.505  41.700   1.936
 6558W        W78087   1.534   6.729   4.063
 6559W        W78088  18.665  32.116   0.418
 6560W        W78089   8.967  33.112  13.849
 6561W        W78090   1.538  41.556  11.155
 6562W        W78091   6.260   4.988   3.763
 6563W        W78092  29.791  44.457  11.802
 6564W        W78093  14.256   0.326  13.592
 6565W        W78094  41.352  25.545   4.690
 6566W        W78095  28.738  39.175  11.081
 6567W        W78096  41.957  14.232  10.453
 6568W        W78097   8.854  29.999  10.442
 6569W        W78098  28.432  35.068   1.712
 6570W        W78099  18.736  26.036  11.512
 6571W        W78100  36.328   3.168   0.329
 6572W        W78101  17.294   4.788  11.179
 6573W        W78102  31.032   5.185   4.971
 6574W        W78103  37.416  24.013   4.674
 6575W        W78104  12.279   7.110  10.672
 6576W        W78105  42.729   4.980   3.603
 6577W        W78106   2.557  36.711   0.124
 6578W        W78107  42.124  22.868   0.918
 6579W        W78108  14.812  13.168  14.035
 6580W        W78109  43.780  31.320   1.895
 6581W        W78110  20.140  30.335  10.220
 6582W        W78111   2.254  32.389  13.584
 6583W        W78112  44.783  28.664  11.904
 6584W        W78113  37.788  28.510   3.629
 6585W        W78114  40.509  25.893   0.809
 6586W        W78115   4.732   2.588   0.634
 6587W        W78116  10.412   2.827   5.008
 6588W        W78117   4.481  16.170   0.260
 6589W        W78118  25.699   2.250   1.888
 6590W        W78119   4.495  21.011  12.008
 6591W        W78120  33.912  36.324  10.584
 6592W        W78121  30.336   0.927  12.051
 6593W        W78122  44.359  35.447  13.056
 6594W        W78123  16.877  40.440   2.737
 6595W        W78124   0.991  39.068   3.279
 6596W        W78125  26.114  25.307   2.405
 6597W        W78126  10.688  38.863  14.954
 6598W        W78127  39.279   2.846  12.523
 6599W        W78128  28.687  37.313  11.144
 6600W        W78129  36.824  42.949   2.945
 6601W        W78130   2.337  28.526   1.611
 6602W        W78131   0.934  28.863   0.381
 6603W        W78132  15.793  39.855   2.211
 6604W        W78133  22.244   6.642  13.859
 6605W        W78134  26.193  16.762  14.832
 6606W        W78135  10.375  29.122  11.659
 6607W        W78136  38.367  17.935   1.608
 6608W        W78137  10.531  17.609  12.614
 6609W        W78138  22.585  38.478  11.665
 6610W        W78139  26.686  28.727  14.118
 6611W        W78140   1.321  35.487  11.101
 6612W        W78141  34.234  39.647   3.441
 6613W        W78142  44.359  14.506   4.106
 6614W        W78143  42.123  32.455  10.607
 6615W        W78144   7.516  27.178   3.793
 6616W        W78145   7.874  21.991  14.209
 6617W        W78146  17.230   0.934   4.841
 6618W        W78147   9.283   0.966  11.957
 6619W        W78148  11.674  10.108   3.313
 6620W        W78149  13.594  28.050  14.292
 6621W        W78150  14.037  28.126   1.906
 6622W        W78151   4.359  22.732  14.407
 6623W        W78152   6.733   9.738   2.618
 6624W        W78153  42.275  12.764   0.727
 6625W        W78154  23.106  18.030   0.368
 6626W        W78155  11.397  28.218  12.585
 6627W        W78156  30.855  40.500  12.529
 6628W        W78157   0.843  17.358  12.977
 6629W        W78158   5.905  29.608   2.195
 6630W        W78159  17.221  12.419   0.449
 6631W        W78160  41.005   4.767  12.430
 6632W        W78161  10.340  42.764   5.052
 6633W        W78162   2.242  44.722   3.168
 6634W        W78163  38.131  15.819   2.851
 6635W        W78164   9.082  26.218  12.988
 6636W        W78165  14.877  30.058  12.481
 6637W        W78166   0.890  42.492  13.457
 6638W        W78167  20.637   1.295  14.866
 6639W        W78168  20.218   3.482   4.622
 6640W        W78169  13.849  29.501  12.919
 6641W        W78170  36.349  11.793  14.891
 6642W        W78171   0.389  10.365  14.722
 6643W        W78172   4.690   9.616   0.609
 6644W        W78173   1.366   1.672   4.233
 6645W        W78174  33.107  19.526   2.784
 6646W        W78175  31.233   3.993   2.887
 6647W        W78176  30.216   1.485   2.767
 6648W        W78177   3.206  33.449   3.896
 6649W        W78178   3.875   1.469   2.950
 6650W        W78179  37.912  32.991  13.891
 6651W        W78180  13.739   6.705   1.916
 6652W        W78181  40.542  38.126   0.467
 6653W        W78182  43.803  10.260  14.385
 6654W        W78183  36.456   8.270   1.934
 6655W        W78184  13.588  18.475  11.548
 6656W        W78185   8.537   2.879  13.794
 6657W        W78186   1.526   2.940   3.819
 6658W        W78187   6.426  39.575  14.010
 6659W        W78188  34.923  14.203  12.186
 6660W        W78189   0.702  24.092  14.978
 6661W        W78190  16.041  26.060  12.520
 6662W        W78191  44.052  42.256  10.777
 6663W        W78192  29.890  35.052   3.429
 6664W        W78193  41.820  13.403   1.434
 6665W        W78194  27.887  10.572   4.064
 6666W        W78195  40.324  18.129   1.723
 6667W        W78196  15.828   8.363  14.769
 6668W        W78197  40.083  43.018  12.594
 6669W        W78198  25.277  23.454  13.832
 6670W        W78199   8.934  42.563  11.191
 6671W        W78200  19.832  31.964   3.805
 6672W        W78201  42.477  10.845  13.407
 6673W        W78202  37.159  27.983   2.241
 6674W        W78203   0.012   4.626  10.261
 6675W        W78204  38.962  40.394   2.114
 6676W        W78205  18.843  24.312  12.937
 6677W        W78206   6.832   1.848   3.288
 6678W        W78207  37.032  21.537   2.689
 6679W        W78208   5.937   9.425  11.874
 6680W        W78209  21.551  35.208   0.206
 6681W        W78210  37.704  39.031   1.523
 6682W        W78211  36.502  14.656   3.530
 6683W        W78212  31.890  31.222   3.745
 6684W        W78213   3.070  35.531   1.284
 6685W        W78214   7.896  19.579  13.046
 6686W        W78215   6.870  27.984  12.300
 6687W        W78216  43.865  16.338   4.190
 6688W        W78217  44.300  26.220   3.339
 6689W        W78218  16.511  32.001   3.509
 6690W        W78219  20.342  14.825   0.324
 6691W        W78220  23.210  24.620  12.487
 6692W        W78221  15.142  36.850   1.453
 6693W        W78222  30.565  42.486   4.605
 6694W        W78223  35.265   6.989   1.565
 6695W        W78224  34.119  37.331   4.714
 6696W        W78225  10.654  34.984   1.989
 6697W        W78226  18.794   2.716   2.403
 6698W        W78227  24.455  37.352  12.131
 6699W        W78228  11.451  20.478   2.999
 6700W        W78229  33.052  10.149  13.571
 6701W        W78230   2.452  18.209   1.835
 6702W        W78231   4.808  36.146  14.484
 6703W        W78232   3.251  16.749   4.369
 6704W        W78233  31.265  37.262  14.012
 6705W        W78234  29.069  35.922   3.619
 6706W        W78235  42.477   8.548   2.337
 6707W        W78236   1.316  33.649   1.641
 6708W        W78237  33.645  20.592  11.098
 6709W        W78238  37.239  17.680  13.947
 6710W        W78239  26.084  33.924  13.094
 6711W        W78240  42.999  42.351   2.786
 6712W        W78241  36.436  23.073  12.377
 6713W        W78242  41.931  19.261   5.059
 6714W        W78243  41.877  23.117   4.653
 6715W        W78244  13.436   4.261  13.443
 6716W        W78245  43.015   4.603   2.674
 6717W        W78246  10.562  17.612   2.953
 6718W        W78247   6.330   9.599   1.673
 6719W        W78248  40.328  17.287  13.421
 6720W        W78249  14.679  14.198   3.556
 6721W        W78250  39.830   8.090  14.281
 6722W        W78251   2.243   3.285  12.084
 6723W        W78252  23.085   2.386   4.161
 6724W        W78253   0.499  23.724   0.361
 6725W        W78254   4.838  35.994   0.788
 6726W        W78255  32.178  16.159   0.871
 6727W        W78256   8.458   5.872   3.374
 6728W        W78257  10.157  15.215   2.694
 6729W        W78258   3.864   6.258   0.254
 6730W        W78259   2.373  12.390  14.613
 6731W        W78260   5.941  36.813   1.469
 6732W        W78261   2.594  27.985   4.573
 6733W        W78262   6.492  20.772  10.336
 6734W        W78263  29.574  44.442   4.776
 6735W        W78264   4.206   8.618   2.910
 6736W        W78265  33.051  14.013   1.547
 6737W        W78266  29.557  16.209   2.660
 6738W        W78267  32.660   9.485  11.513
 6739W        W78268  21.020  37.678  10.161
 6740W        W78269  35.495  40.013  12.984
 6741W        W78270  22.738  26.415  12.037
 6742W        W78271  19.134  41.341   3.974
 6743W        W78272  23.735  14.502   1.147
 6744W        W78273  21.056  14.773  14.880
 6745W        W78274   4.021  29.082  13.349
 6746W        W78275  43.778  42.165  14.011
 6747W        W78276  32.908  23.208  14.202
 6748W        W78277  28.927  31.043   2.208
 6749W        W78278  32.676  31.412   0.880
 6750W        W78279   9.110  24.756  11.323
 6751W        W78280   4.321   9.227   0.500
 6752W        W78281  12.809  14.296   1.390
 6753W        W78282  38.709  16.654   3.187
 6754W        W78283  34.638  27.394   5.015
 6755W        W78284  20.284  15.590   2.264
 6756W        W78285  43.878  37.110   1.836
 6757W        W78286   9.112   3.420  13.321
 6758W        W78287  15.603  15.415  14.931
 6759W        W78288  23.177  16.010   1.289
 6760W        W78289  27.123  21.956   4.126
 6761W        W78290   9.195  16.209  14.515
 6762W        W78291  42.992  26.623  14.352
 6763W        W78292  12.405  19.132   0.293
 6764W        W78293  16.462  31.815   4.795
 6765W        W78294  11.070  25.526   3.662
 6766W        W78295   3.291  35.958  12.066
 6767W        W78296  12.185  42.712   4.598
 6768W        W78297  29.719  10.725  13.358
 6769W        W78298  11.046  32.582   1.396
 6770W        W78299  13.652  23.095   0.375
 6771W        W78300  18.394   5.726  10.374
 6772W        W78301   4.932  21.314   3.488
 6773W        W78302  15.284  18.083  13.515
 6774W        W78303  40.362  16.614   4.409
 6775W        W78304  20.673   3.288   0.273
 6776W        W78305  35.854  44.244   2.368
 6777W        W78306  10.597   0.667   2.673
 6778W        W78307  11.259   9.889   3.118
 6779W        W78308  36.524  37.039  12.417
 6780W        W78309  21.378  33.697   4.299
 6781W        W78310  27.593  16.967  13.175
 6782W        W78311  14.453   7.848   2.256
 6783W        W78312  30.978  21.276   4.106
 6784W        W78313   6.251   0.445   4.587
 6785W        W78314   7.729  29.104  13.397
 6786W        W78315  26.813  10.486  12.356
 6787W        W78316   5.318  37.633  12.420
 6788W        W78317  34.416   1.008   2.376
 6789W        W78318   9.299  30.518   4.590
 6790W        W78319   7.312  14.098   0.843
 6791W        W78320  30.551  21.502   3.258
 6792W        W78321  21.773  26.197   3.666
 6793W        W78322  12.314  11.640   0.972
 6794W        W78323   6.904  15.694  11.597
 6795W        W78324  15.518   2.711  11.893
 6796W        W78325   2.718  33.275  14.288
 6797W        W78326  40.240  31.034  14.303
 6798W        W78327  35.982  20.928  14.746
 6799W        W78328  13.289   0.205   1.821
 6800W        W78329  28.166  29.390  11.642
 6801W        W78330  42.845   2.335   4.870
 6802W        W78331   2.963  27.597   2.473
 6803W        W78332  19.041  11.600   3.037
 6804W        W78333  31.715  17.322   1.870
 6805W        W78334  37.246  11.191  12.810
 6806W        W78335  30.360  28.537   4.717
 6807W        W78336  17.865  22.120   2.887
 6808W        W78337  24.730  14.282   1.815
 6809W        W78338  26.597   0.274  12.667
 6810W        W78339  40.874   8.635  13.074
 6811W        W78340   2.812  37.161   1.337
 6812W        W78341  11.676   8.422  11.275
 6813W        W78342  14.832  19.567   3.242
 6814W        W78343   2.293  34.406   1.015
 6815W        W78344   0.959   4.321   0.302
 6816W        W78345  22.147   2.357  12.890
 6817W        W78346  32.383  11.861  13.578
 6818W        W78347  35.835  12.429   3.662
 6819W        W78348  15.710   5.649  11.380
 6820W        W78349  42.435   9.148  10.892
 6821W        W78350  42.113  11.782  12.172
 6822W        W78351   6.191  27.262  11.968
 6823W        W78352  24.071  34.007   3.202
 6824W        W78353   4.937  39.476   1.728
 6825W        W78354  39.964  15.662   0.695
 6826W        W78355  19.793  34.164   1.701
 6827W        W78356  44.066  13.533   2.245
 6828W        W78357  35.772  12.247  10.718
 6829W        W78358  43.548  25.577   0.769
 6830W        W78359  30.486  16.210   4.552
 6831W        W78360  31.531  17.473   0.755
 6832W        W78361  36.431  13.316  12.596
 6833W        W78362  29.723  31.849  13.979
 6834W        W78363  12.128  17.021   1.439
 6835W        W78364   4.789  40.928  13.878
 6836W        W78365  10.291  22.977   9.895
 6837W        W78366  32.761  19.889   4.087
 6838W        W78367  12.541  35.563   1.028
 6839W        W78368  43.246   4.446  12.173
 6840W        W78369   0.838  23.574  11.742
 6841W        W78370   8.190  11.798   4.232
 6842W        W78371  40.399  39.193  10.717
 6843W        W78372  12.161  36.622   2.891
 6844W        W78373  25.632  36.975  13.904
 6845W        W78374  17.311  32.849  10.590
 6846W        W78375  11.340  34.131  12.214
 6847W        W78376  15.870   6.732  11.697
 6848W        W78377  33.813  37.069  13.953
 6849W        W78378  27.538  28.918  13.955
 6850W        W78379  25.551   4.154  12.535
 6851W        W78380  27.571  43.299   4.379
 6852W        W78381  22.430  29.312  10.710
 6853W        W78382   4.696   4.638  12.535
 6854W        W78383  32.807   8.897  10.775
 6855W        W78384   6.595  15.762   3.253
 6856W        W78385  22.160   2.508  14.697
 6857W        W78386  16.336  44.375  12.957
 6858W        W78387   8.299  25.870  14.414
 6859W        W78388  13.790  35.924   4.015
 6860W        W78389   6.664   3.013  10.448
 6861W        W78390  34.322  37.535  13.806
 6862W        W78391   8.343  34.869   2.426
 6863W        W78392  29.974  15.601   2.327
 6864W        W78393   8.159   8.354  14.001
 6865W        W78394  35.937  27.447  11.701
 6866W        W78395  18.409   9.369  11.873
 6867W        W78396  28.019  43.357   3.585
 6868W        W78397  37.363  28.611   1.382
 6869W        W78398   2.243   2.206   5.080
 6870W        W78399   9.149  38.470   3.663
 6871W        W78400  40.255   6.443   1.745
 6872W        W78401  19.627  30.726   3.579
 6873W        W78402   5.319  10.240   4.065
 6874W        W78403   0.048  44.449   3.716
 6875W        W78404  36.543  36.605  14.400
 6876W        W78405  27.680  31.105  13.249
 6877W        W78406  18.799  27.958  11.477
 6878W        W78407  14.653  10.874  13.425
 6879W        W78408  43.925   3.981   3.706
 6880W        W78409  37.621  20.143  14.415
 6881W        W78410  40.375  18.798   9.861
 6882W        W78411   9.437  41.945  10.698
 6883W        W78412   3.387  37.278   0.536
 6884W        W78413  14.876  40.499  11.315
 6885W        W78414  34.946   6.265   2.797
 6886W        W78415  28.038  35.870   1.668
 6887W        W78416  29.070   4.252   0.159
 6888W        W78417  39.393  32.600   2.744
 6889W        W78418  38.473   9.299   2.310
 6890W        W78419  17.255  44.114  14.470
 6891W        W78420  41.457  16.727  13.088
 6892W        W78421  16.549  28.183   1.015
 6893W        W78422  44.482  30.478   2.734
 6894W        W78423   6.725   9.620  13.403
 6895W        W78424   6.816   5.626  12.644
 6896W        W78425  30.661   8.756  13.324
 6897W        W78426  34.815  16.684  12.015
 6898W        W78427   2.857   9.640  12.329
 6899W        W78428  39.500  44.872   0.657
 6900W        W78429   4.523  20.535  12.941
 6901W        W78430  33.079  21.963  11.497
 6902W        W78431  26.096  18.720  10.513
 6903W        W78432   4.497  37.613   0.872
 6904W        W78433  35.058  10.124   3.601
 6905W        W78434  37.401   1.146  10.967
 6906W        W78435   9.624  36.054  13.962
 6907W        W78436  11.902  37.741  10.582
 6908W        W78437  38.962  34.058  14.114
 6909W        W78438   1.664  44.822  13.297
 6910W        W78439  11.098  26.426   3.573
 6911W        W78440   3.328  40.535  12.962
 6912W        W78441  35.825   7.363   3.667
 6913W        W78442   3.402  42.572  12.077
 6914W        W78443  25.085  40.967  13.309
 6915W        W78444  16.298   7.628  10.725
 6916W        W78445  17.068  35.923  10.770
 6917W        W78446  15.091  44.010   1.446
 6918W        W78447  12.202  16.315  12.967
 6919W        W78448  23.154  37.925  11.972
 6920W        W78449   6.387  28.627  11.775
 6921W        W78450   0.717  18.806  12.116
 6922W        W78451   7.764  20.725   4.681
 6923W        W78452  30.650  20.562   3.764
 6924W        W78453  29.522  18.799  12.071
 6925W        W78454   8.166  34.372   2.441
 6926W        W78455  25.395  37.341  11.665
 6927W        W78456  12.328  39.631   1.769
 6928W        W78457  24.466  28.026   3.713
 6929W        W78458  12.265   7.431  11.964
 6930W        W78459  41.456  15.126   0.807
 6931W        W78460  17.688   4.950   2.005
 6932W        W78461  10.246   2.825  12.455
 6933W        W78462   8.467  38.994   2.660
 6934W        W78463  39.015  13.618   0.118
 6935W        W78464  17.362  23.107  10.381
 6936W        W78465  37.116   3.769  10.890
 6937W        W78466   7.638   9.714   4.574
 6938W        W78467   6.728  25.524  14.738
 6939W        W78468  41.269  32.531  13.354
 6940W        W78469   7.428  25.092   4.638
 6941W        W78470  27.491  36.841   0.228
 6942W        W78471  42.414  37.703  10.231
 6943W        W78472  25.195  14.833   4.168
 6944W        W78473  40.481  35.193  14.929
 6945W        W78474  20.721   8.385   4.430
 6946W        W78475  25.258  32.968  13.349
 6947W        W78476  34.602   2.251   2.191
 6948W        W78477   8.371  40.247  12.215
 6949W        W78478  12.618   7.273   3.562
 6950W        W78479  38.779  11.742  13.479
 6951W        W78480   0.245  12.569   0.840
 6952W        W78481  31.949  21.712   4.178
 6953W        W78482  20.577  23.251  11.092
 6954W        W78483   9.738  23.120  11.460
 6955W        W78484  31.643  24.163   3.605
 6956W        W78485   6.604   5.227   1.905
 6957W        W78486   1.304  18.664   2.518
 6958W        W78487  18.619   0.471  11.997
 6959W        W78488  16.962  37.242  10.916
 6960W        W78489  10.625  40.590  14.369
 6961W        W78490   7.299  23.515  13.830
 6962W        W78491   2.474   5.722  14.086
 6963W        W78492  25.600   5.666  11.562
 6964W        W78493  31.830  16.776   2.636
 6965W        W78494  12.183   3.889   3.371
 6966W        W78495  41.731   1.908  13.457
 6967W        W78496  40.076  14.582  14.725
 6968W        W78497  28.125   3.383   1.706
 6969W        W78498  39.655  10.815  12.546
 6970W        W78499  26.410  18.899   0.254
 6971W        W78500  19.856  39.862  13.375
 6972W        W78501  17.085  32.505   4.945
 6973W        W78502  26.972  33.580   3.705
 6974W        W78503  36.608  38.800   3.264
 6975W        W78504   5.611  31.331   0.234
 6976W        W78505  32.734  17.065   3.890
 6977W        W78506  28.924   1.865  10.596
 6978W        W78507  44.226  27.126  12.578
 6979W        W78508  12.659  10.285  10.237
 6980W        W78509  39.991  28.947  13.863
 6981W        W78510  36.787  11.362   3.214
 6982W        W78511  44.920  37.153  11.437
 6983W        W78512  27.413  39.350  14.973
 6984W        W78513  24.160   3.963  11.138
 6985W        W78514  30.988  31.646  12.946
 6986W        W78515  28.409  38.960   2.115
 6987W        W78516  30.415  34.108   2.147
 6988W        W78517  19.091  15.989  12.974
 6989W        W78518   6.434   8.876  13.973
 6990W        W78519   0.749  40.262   4.044
 6991W        W78520  38.547  14.756  10.670
 6992W        W78521  38.143  30.153  13.843
 6993W        W78522   8.361  22.929   2.328
 6994W        W78523   6.446  22.356   0.334
 6995W        W78524  27.277  24.146   0.259
 6996W        W78525  16.953  37.364  12.764
 6997W        W78526  22.251  26.906   4.167
 6998W        W78527  25.504   6.226  13.995
 6999W        W78528  44.707   5.178  11.577
 7000W        W78529   3.262  31.440   4.203
 7001W        W78530  38.536  20.057   3.009
 7002W        W78531  37.102  24.652   1.395
 7003W        W78532  32.104   8.967  14.239
 7004W        W78533  30.184  37.361  12.027
 7005W        W78534  13.847   9.808  14.152
 7006W        W78535  32.429   0.993   2.594
 7007W        W78536  17.852  28.013   3.349
 7008W        W78537  10.462  33.593  14.996
 7009W        W78538   1.749  41.454   0.905
 7010W        W78539   1.741  10.829  13.284
 7011W        W78540  18.116  36.093   0.003
 7012W        W78541  17.234  24.087   0.425
 7013W        W78542  38.330  28.651  10.693
 7014W        W78543  12.185  26.652   2.442
 7015W        W78544  22.286  14.190  10.709
 7016W        W78545  39.584  32.995  12.444
 7017W        W78546  20.776   6.642  11.663
 7018W        W78547  31.437   2.813   4.145
 7019W        W78548  35.364  29.322  14.995
 7020W        W78549  16.329  27.488   3.084
 7021W        W78550  38.682  28.470   0.768
 7022W        W78551  42.775  26.171  10.616
 7023W        W78552  35.086   1.432  12.563
 7024W        W78553  17.681  34.178   0.597
 7025W        W78554  11.628  16.193  11.619
 7026W        W78555  14.528  31.962   3.184
 7027W        W78556  20.793  34.679  11.593
 7028W        W78557   8.007  31.865  14.681
 7029W        W78558  28.687  10.317   4.245
 7030W        W78559  40.022   3.459  14.069
 7031W        W78560  10.653  33.133  14.823
 7032W        W78561  29.842  42.777   2.546
 7033W        W78562  31.994   3.815   4.504
 7034W        W78563   8.343  22.109  14.054
 7035W        W78564  40.047  35.621  11.581
 7036W        W78565  41.216   5.825  11.647
 7037W        W78566  11.836  18.187   1.485
 7038W        W78567  20.524   4.801   2.116
 7039W        W78568  12.867  15.503  14.897
 7040W        W78569  12.309   8.905  10.946
 7041W        W78570  33.611   3.904   1.321
 7042W        W78571  26.044  26.490   1.355
 7043W        W78572  21.423   0.772   5.125
 7044W        W78573   0.029   9.404  11.156
 7045W        W78574  10.801  39.412   0.076
 7046W        W78575  37.991  10.922  14.323
 7047W        W78576  11.791  40.914  11.424
 7048W        W78577  37.818   4.932  12.503
 7049W        W78578   8.429  44.035   0.786
 7050W        W78579   5.737  34.068   3.135
 7051W        W78580  19.869  43.082  13.277
 7052W        W78581  16.198  44.929   2.677
 7053W        W78582  15.397  22.821   1.253
 7054W        W78583   8.336  14.223  12.459
 7055W        W78584  43.428   8.875   3.217
 7056W        W78585  16.676  28.914   1.660
 7057W        W78586  37.806  26.914  11.980
 7058W        W78587  27.338  44.296  11.098
 7059W        W78588  12.234  22.226   0.748
 7060W        W78589  34.557  22.537   3.659
 7061W        W78590   0.303  17.736   1.902
 7062W        W78591   1.992  28.068  13.179
 7063W        W78592  10.230   0.126   1.694
 7064W        W78593  14.363   7.167  12.358
 7065W        W78594  22.796  14.343  13.768
 7066W        W78595  30.179  19.249   2.395
 7067W        W78596  20.933  18.821  14.030
 7068W        W78597   8.178  38.971   1.270
 7069W        W78598   5.072   5.712   1.162
 7070W        W78599   7.590  19.155  14.226
 7071W        W78600  32.330  11.942   4.138
 7072W        W78601  30.597  25.995  12.770
 7073W        W78602  30.505  42.176  13.271
 7074W        W78603  36.429  10.852  12.408
 7075W        W78604  15.133  11.886   3.215
 7076W        W78605  42.865   9.959   3.703
 7077W        W78606  17.510  19.401   0.066
 7078W        W78607   8.171  24.407   0.819
 7079W        W78608  10.029  17.951   2.079
 7080W        W78609  41.751  21.568   1.355
 7081W        W78610  19.023   3.898  12.912
 7082W        W78611  29.298  10.910  12.018
 7083W        W78612  19.398  22.384   2.271
 7084W        W78613  24.786  17.095   2.146
 7085W        W78614   2.990  44.038   2.888
 7086W        W78615  22.540   9.655  12.441
 7087W        W78616  43.851  31.519   3.265
 7088W        W78617  43.424  24.216   0.320
 7089W        W78618  15.460  13.094   3.200
 7090W        W78619  25.271  31.497   0.815
 7091W        W78620  11.276  14.426  11.905
 7092W        W78621  23.198  17.705  12.119
 7093W        W78622  29.887  18.808  12.455
 7094W        W78623  38.904  32.374   2.864
 7095W        W78624  19.508   9.751  12.472
 7096W        W78625  37.175  17.839  11.231
 7097W        W78626  39.361   1.358  14.212
 7098W        W78627  25.047  30.849  11.603
 7099W        W78628  32.058   4.870  12.417
 7100W        W78629  34.477  12.110  13.406
 7101W        W78630   4.349  33.063  11.180
 7102W        W78631  36.506  39.404  13.035
 7103W        W78632  34.526  37.523   4.271
 7104W        W78633  39.275  22.637  12.436
 7105W        W78634  28.051  16.991   3.816
 7106W        W78635   0.482  15.115   2.107
 7107W        W78636  33.854  44.824  12.615
 7108W        W78637  12.235   1.516  14.455
 7109W        W78638  27.599  30.615  13.381
 7110W        W78639  28.705  32.556   2.382
 7111W        W78640  14.334   1.320  13.334
 7112W        W78641  22.731  10.565  10.940
 7113W        W78642   4.213  28.384  11.623
 7114W        W78643  15.807  18.734  10.728
 7115W        W78644  32.676  43.940  12.438
 7116W        W78645  25.475  42.831  14.031
 7117W        W78646  26.503  26.129   0.040
 7118W        W78647  41.336   9.082   3.400
 7119W        W78648  34.742  40.065   1.134
 7120W        W78649  42.870  11.162   0.759
 7121W        W78650  36.155   3.563   3.425
 7122W        W78651  24.731  20.712   4.966
 7123W        W78652  21.245   2.649   4.162
 7124W        W78653  10.108  30.522   1.079
 7125W        W78654   1.505  23.554   3.139
 7126W        W78655  43.822  28.252  10.415
 7127W        W78656   7.943  23.969   0.949
 7128W        W78657   4.756  15.221  11.427
 7129W        W78658  23.228   0.336   2.594
 7130W        W78659  33.988  17.129  11.710
 7131W        W78660  21.884  37.962  10.591
 7132W        W78661  12.671  26.179  11.556
 7133W        W78662  42.490  19.139   2.161
 7134W        W78663  24.709  16.368   3.717
 7135W        W78664  21.026  44.794  14.788
 7136W        W78665  41.328  37.317   0.315
 7137W        W78666  20.198   8.532  13.916
 7138W        W78667  39.127  38.641   1.995
 7139W        W78668  34.833  18.307  12.456
 7140W        W78669  21.952  31.928  12.325
 7141W        W78670   8.205  42.928   0.431
 7142W        W78671   5.334  14.857  11.940
 7143W        W78672  32.645   7.461  11.633
 7144W        W78673  20.686  26.027  13.793
 7145W        W78674   4.914  34.600   1.618
 7146W        W78675  20.018   2.278   1.893
 7147W        W78676   3.071  20.160   1.908
 7148W        W78677  22.968  12.906   1.268
 7149W        W78678  27.385  15.640   1.267
 7150W        W78679  21.106  44.437   1.140
 7151W        W78680  10.386   4.314   2.930
 7152W        W78681  15.068  37.984  13.821
 7153W        W78682   9.355  37.622  13.329
 7154W        W78683   4.158  12.374   3.228
 7155W        W78684  34.112  28.135   4.831
 7156W        W78685  15.635  37.945   1.356
 7157W        W78686   2.223  34.036   1.846
 7158W        W78687  12.577   2.863  11.491
 7159W        W78688  27.712  13.274   4.587
 7160W        W78689  42.811  32.480  12.143
 7161W        W78690  11.133  28.376  11.061
 7162W        W78691  41.338   1.518   1.859
 7163W        W78692  44.747  35.476   3.113
 7164W        W78693  18.205  15.584   4.587
 7165W        W78694  37.683  26.172   2.852
 7166W        W78695  22.053  38.162   0.372
 7167W        W78696  43.084  32.667   0.557
 7168W        W78697  12.234  44.261   1.883
 7169W        W78698  15.154   6.896   3.108
 7170W        W78699   1.719  21.525  11.915
 7171W        W78700  17.598   7.853  14.289
 7172W        W78701   0.871  34.187  13.375
 7173W        W78702   6.488  18.647   4.868
 7174W        W78703  30.095  20.219   0.922
 7175W        W78704  32.483  13.179   3.069
 7176W        W78705  27.812   7.182   1.726
 7177W        W78706  43.758   5.063  13.460
 7178W        W78707  23.996  30.662   4.519
 7179W        W78708   0.721  23.107   0.514
 7180W        W78709  38.962  43.475   3.680
 7181W        W78710  33.857   3.997  11.113
 7182W        W78711   5.328   8.457  12.439
 7183W        W78712  38.951   7.937   2.370
 7184W        W78713  18.739  18.205  14.477
 7185W        W78714  40.243   8.392  10.453
 7186W        W78715  28.037  35.385   1.476
 7187W        W78716  24.212  43.874  13.305
 7188W        W78717  19.215  43.791  13.940
 7189W        W78718  35.162  35.977   0.885
 7190W        W78719   4.328   6.818   0.795
 7191W        W78720  41.370  21.053   3.138
 7192W        W78721  25.086  37.122   3.446
 7193W        W78722  44.377   9.954  10.695
 7194W        W78723  34.625  17.594  13.339
 7195W        W78724  29.693  13.205   4.527
 7196W        W78725  26.099  43.701   1.006
 7197W        W78726  13.368  10.211  11.538
 7198W        W78727  28.474   3.326   2.800
 7199W        W78728  29.364  24.603   4.667
 7200W        W78729  24.378  41.475  14.266
 7201W        W78730   9.393  43.944   0.750
 7202W        W78731  15.139  42.299  13.436
 7203W        W78732  33.012  41.007  14.716
 7204W        W78733  37.201  24.693  14.961
 7205W        W78734  34.547  11.178  11.109
 7206W        W78735  28.170  19.228   0.372
 7207W        W78736   4.913  27.734  14.968
 7208W        W78737  36.110  34.337   3.903
 7209W        W78738  19.694  10.672  11.216
 7210W        W78739  38.998   2.108  13.054
 7211W        W78740  41.716  26.391   4.545
 7212W        W78741  11.146  42.970   0.713
 7213W        W78742  36.190   7.305   4.155
 7214W        W78743  20.916   1.271   3.778
 7215W        W78744  26.385  41.184  11.967
 7216W        W78745  37.240  18.202  13.863
 7217W        W78746  10.241  13.883   3.216
 7218W        W78747  38.804   8.779   9.807
 7219W        W78748  35.944   7.283   0.846
 7220W        W78749  17.819  41.423  10.740
 7221W        W78750  39.006  19.268   3.542
 7222W        W78751  24.070  13.485  11.532
 7223W        W78752  34.836  42.472  10.683
 7224W        W78753  17.890  25.951  13.943
 7225W        W78754  21.993  22.539  13.603
 7226W        W78755   6.723  18.090  12.521
 7227W        W78756   2.099  30.368   5.240
 7228W        W78757   5.744  40.139  11.476
 7229W        W78758  38.827  24.470  12.959
 7230W        W78759  40.436   5.261   4.206
 7231W        W78760  17.702  33.457   1.321
 7232W        W78761  28.264  17.254   0.387
 7233W        W78762  34.463  20.785  14.535
 7234W        W78763   9.640  22.625  11.613
 7235W        W78764  35.614  32.949  12.651
 7236W        W78765  37.383  43.003   0.308
 7237W        W78766  15.330   2.695  14.913
 7238W        W78767  19.703  37.144   5.028
 7239W        W78768  20.914  33.137  12.677
 7240W        W78769  36.120  37.808   3.756
 7241W        W78770  35.567  30.048   4.508
 7242W        W78771  43.966  11.957   4.816
 7243W        W78772  21.522  10.245   3.150
 7244W        W78773  14.788  12.407  14.736
 7245W        W78774  10.093   9.108  11.115
 7246W        W78775  25.859   2.884  14.740
 7247W        W78776  31.526  25.925   2.234
 7248W        W78777  17.059  14.699  13.954
 7249W        W78778  20.644  26.191   4.122
 7250W        W78779  44.285   7.397  10.485
 7251W        W78780  28.445   7.912   3.169
 7252W        W78781   1.124  19.292  14.179
 7253W        W78782  42.848   9.663   3.184
 7254W        W78783  14.530  10.750  11.626
 7255W        W78784  11.213   5.793   3.672
 7256W        W78785  24.392   7.390  12.400
 7257W        W78786  10.915  43.321   4.185
 7258W        W78787  27.706  38.407  10.413
 7259W        W78788  21.024  20.196  12.303
 7260W        W78789  30.290  23.786   0.001
 7261W        W78790  20.074  24.649  14.889
 7262W        W78791   6.051  42.420   1.557
 7263W        W78792  34.843   3.968   2.825
 7264W        W78793  37.519   3.293   4.690
 7265W        W78794   4.329  21.019  13.025
 7266W        W78795  10.486   6.149   0.076
 7267W        W78796  38.090  21.076   4.043
 7268W        W78797  43.984  27.680   0.479
 7269W        W78798   4.279  18.271   1.716
 7270W        W78799   9.847  24.200   3.065
 7271W        W78800  18.839  18.698   0.820
 7272W        W78801  10.863  24.227   0.993
 7273W        W78802  24.758  35.144   0.446
 7274W        W78803  29.239  26.712  13.661
 7275W        W78804  22.329  24.985   3.492
 7276W        W78805  24.689  44.655  12.278
 7277W        W78806   7.937  17.106  14.274
 7278W        W78807  19.577  30.395   4.512
 7279W        W78808  16.188  36.918   2.730
 7280W        W78809   8.068  36.171   1.216
 7281W        W78810  40.544  13.999  14.347
 7282W        W78811  25.357  28.153  12.563
 7283W        W78812   9.558   9.846   0.821
 7284W        W78813   1.731  25.511   3.249
 7285W        W78814   9.858  39.944  10.636
 7286W        W78815  40.942  13.902   1.749
 7287W        W78816  13.923   3.666  13.475
 7288W        W78817  30.848  35.952   3.722
 7289W        W78818   2.300  31.460  11.446
 7290W        W78819   3.872   4.621  13.909
 7291W        W78820  42.022  34.406  12.652
 7292W        W78821  16.347   9.281  11.206
 7293W        W78822  32.912   0.612   3.338
 7294W        W78823  21.019   9.906   0.444
 7295W        W78824  10.903   0.266   0.464
 7296W        W78825  19.296   2.181   4.535
 7297W        W78826  18.363  24.127  14.802
 7298W        W78827  11.640   7.358   0.422
 7299W        W78828  38.419  38.878  13.561
 7300W        W78829   1.995  20.785  13.367
 7301W        W78830  29.418  27.150  13.882
 7302W        W78831   6.719   6.715  14.031
 7303W        W78832  41.524  22.437  13.119
 7304W        W78833   2.499  36.121   1.329
 7305W        W78834   2.694  41.470   1.104
 7306W        W78835  28.331  17.619   0.805
 7307W        W78836  20.993   2.953   4.488
 7308W        W78837  14.683  38.359   1.840
 7309W        W78838  32.649  24.861  11.526
 7310W        W78839  13.500  19.806  11.333
 7311W        W78840  26.522  37.160  12.129
 7312W        W78841  31.823  17.615  12.062
 7313W        W78842  29.590  18.139  13.097
 7314W        W78843  25.498  42.868   3.599
 7315W        W78844  22.864  15.559   1.223
 7316W        W78845  21.543  20.143  13.006
 7317W        W78846  34.107  37.909  13.149
 7318W        W78847  23.301  32.044  10.181
 7319W        W78848   4.537  33.418   4.229
 7320W        W78849  10.955  17.941   1.265
 7321W        W78850  27.389   2.368  12.297
 7322W        W78851   8.111  43.902  14.413
 7323W        W78852   6.363  34.617   1.457
 7324W        W78853  25.614  11.973   3.701
 7325W        W78854  19.255   4.867  12.103
 7326W        W78855  19.179  11.635  14.733
 7327W        W78856   4.318   7.300   1.009
 7328W        W78857  36.363  32.198   2.195
 7329W        W78858  13.699  39.673   2.186
 7330W        W78859   9.896  36.396   3.798
 7331W        W78860  32.984  31.132  10.750
 7332W        W78861  30.560  27.523   4.538
 7333W        W78862  24.986  29.492   3.001
 7334W        W78863  20.114   1.514  10.357
 7335W        W78864  13.225  25.402  10.664
 7336W        W78865  39.544  15.659  12.857
 7337W        W78866  35.960  11.537  12.376
 7338W        W78867  19.222  30.643   2.670
 7339W        W78868  40.485   8.067  11.641
 7340W        W78869  32.039  37.890   0.467
 7341W        W78870  32.419   1.351  10.682
 7342W        W78871  20.672  15.127   1.866
 7343W        W78872  12.769   9.288   0.466
 7344W        W78873  43.425  24.695   3.534
 7345W        W78874   4.254  17.519   3.783
 7346W        W78875  22.726  24.112   1.294
 7347W        W78876  30.939  41.930  14.513
 7348W        W78877  24.746  24.150  12.845
 7349W        W78878   6.116  24.965   4.974
 7350W        W78879  40.938  24.687   4.168
 7351W        W78880  40.426  31.968   4.464
 7352W        W78881  19.329  16.765   1.304
 7353W        W78882   2.774  27.258  14.432
 7354W        W78883  22.623  27.454  13.683
 7355W        W78884  25.983  14.625   4.764
 7356W        W78885  19.666   6.022  14.793
 7357W        W78886  26.729  28.113  10.810
 7358W        W78887  11.938  12.428   0.943
 7359W        W78888   8.423  15.570  13.522
 7360W        W78889   3.233  10.261   4.605
 7361W        W78890  11.636  33.414  13.371
 7362W        W78891   9.509   7.132  11.855
 7363W        W78892   0.299  19.609  14.790
 7364W        W78893  31.628  31.041   1.161
 7365W        W78894  25.458  26.982   0.706
 7366W        W78895  35.387   6.728   0.532
 7367W        W78896  34.154  19.666  12.004
 7368W        W78897  22.716  44.237  14.799
 7369W        W78898  33.962   3.015  11.011
 7370W        W78899   0.647  40.965   4.561
 7371W        W78900  35.682  44.598  13.689
 7372W        W78901  41.125  13.783   4.586
 7373W        W78902  13.115  36.132   3.648
 7374W        W78903  28.060  33.945  14.317
 7375W        W78904  25.607  44.282   4.322
 7376W        W78905  42.046  42.094   3.614
 7377W        W78906  43.840  21.893  11.611
 7378W        W78907  39.931  23.961  12.557
 7379W        W78908  30.600  11.837  13.983
 7380W        W78909  41.860  37.790  13.103
 7381W        W78910  14.295  35.356   2.350
 7382W        W78911  36.290  34.436  11.247
 7383W        W78912   8.331   1.205  13.308
 7384W        W78913  19.591   7.375   3.058
 7385W        W78914  23.764  31.798  11.062
 7386W        W78915  37.880  42.389  12.959
 7387W        W78916   9.067   8.312   1.728
 7388W        W78917  41.954  31.924   0.273
 7389W        W78918  10.465  33.950  14.227
 7390W        W78919   3.675  38.106   0.510
 7391W        W78920  23.908   2.743   2.500
 7392W        W78921  34.357  12.202  12.106
 7393W        W78922   2.440  21.792   4.177
 7394W        W78923  25.033  12.694  13.979
 7395W        W78924   7.639  34.988  12.895
 7396W        W78925   2.317  42.580   9.704
 7397W        W78926  25.453  37.421  14.123
 7398W        W78927  20.558  42.524  12.660
 7399W        W78928  28.008  26.494   2.625
 7400W        W78929  33.874  36.421  13.320
 7401W        W78930   0.852  41.048   0.079
 7402W        W78931  10.244  43.944  12.430
 7403W        W78932  23.863  31.583  14.359
 7404W        W78933  21.948   5.898   3.533
 7405W        W78934   6.214  20.782  13.916
 7406W        W78935  17.595  36.436  10.751
 7407W        W78936  23.918  33.089  11.810
 7408W        W78937  22.710  22.945  11.547
 7409W        W78938   2.922   8.702   4.046
 7410W        W78939   5.676  22.228  13.754
 7411W        W78940  16.228  14.401  14.128
 7412W        W78941  41.936  21.494   4.274
 7413W        W78942  34.969  37.405  13.434
 7414W        W78943  25.175  14.259  13.916
 7415W        W78944  17.575  32.784  14.755
 7416W        W78945  14.266  16.263  11.736
 7417W        W78946  19.579  38.090   0.706
 7418W        W78947  35.654   8.292   2.902
 7419W        W78948  25.660   4.397  11.148
 7420W        W78949  14.745  31.958  10.042
 7421W        W78950  17.145  29.383  14.033
 7422W        W78951  21.886  23.722   1.205
 7423W        W78952  23.137  39.062   0.781
 7424W        W78953  22.075  33.759  12.273
 7425W        W78954  31.428  34.376  13.976
 7426W        W78955   3.255  24.078  10.742
 7427W        W78956  44.007  24.279   4.297
 7428W        W78957  35.971  18.379  13.948
 7429W        W78958  11.329   0.214   1.236
 7430W        W78959  44.531  29.649   4.153
 7431W        W78960  12.745   8.353   2.834
 7432W        W78961  12.771   1.841  12.536
 7433W        W78962  28.770  38.327   1.267
 7434W        W78963  15.992  40.585   1.137
 7435W        W78964   7.713  33.185  12.579
 7436W        W78965  22.412  39.884   0.501
 7437W        W78966  16.127  34.042  10.980
 7438W        W78967  36.691  26.661   3.855
 7439W        W78968  31.554  27.700   1.544
 7440W        W78969   5.375  15.775  11.623
 7441W        W78970  27.798  16.248  10.737
 7442W        W78971   7.811   3.455  11.092
 7443W        W78972   7.650  14.423   2.201
 7444W        W78973  36.431  17.137   4.671
 7445W        W78974  16.788  37.377   3.215
 7446W        W78975   9.827  10.625  13.019
 7447W        W78976  16.507  17.848   0.348
 7448W        W78977  12.768  19.763  10.689
 7449W        W78978  25.634   0.533   0.371
 7450W        W78979   4.977  36.823  12.096
 7451W        W78980  18.527  16.827   0.178
 7452W        W78981  27.245  10.790   4.672
 7453W        W78982  13.527  25.877   1.815
 7454W        W78983  39.498  13.748  11.421
 7455W        W78984   1.846  31.673   4.203
 7456W        W78985  16.365   6.779   0.379
 7457W        W78986  13.123  44.957   2.255
 7458W        W78987   9.235  29.121   3.093
 7459W        W78988  41.325   4.250   4.274
 7460W        W78989  29.055  33.043  12.650
 7461W        W78990  21.936  20.093  12.169
 7462W        W78991   8.469  30.123  14.369
 7463W        W78992  29.147  12.148   3.762
 7464W        W78993  37.472  24.535   0.422
 7465W        W78994  33.540  13.156   1.901
 7466W        W78995  43.285  22.700   1.475
 7467W        W78996  42.973  28.000  10.421
 7468W        W78997  39.861  32.033   1.899
 7469W        W78998  43.240   5.338   0.356
 7470W        W78999  21.597  11.135   3.403
 7471W        W79000   0.241  14.294  14.491
 7472W        W79001  24.392  43.924   0.918
 7473W        W79002  15.910  42.716  11.928
 7474W        W79003  13.722   5.783  14.738
 7475W        W79004  15.336  14.729  14.909
 7476W        W79005  10.382  11.939  13.946
 7477W        W79006  42.832   8.857  13.555
 7478W        W79007   6.614  21.701   2.817
 7479W        W79008   2.467  21.013   4.690
 7480W        W79009  10.258  11.694  11.665
 7481W        W79010   0.974  20.324   4.213
 7482W        W79011  22.537  39.980   3.685
 7483W        W79012  21.094  41.871   4.802
 7484W        W79013  36.323  25.092  14.812
 7485W        W79014  38.850  12.474  14.865
 7486W        W79015   9.673  21.643  12.537
 7487W        W79016  38.124  22.563   4.581
 7488W        W79017  16.278  28.373  11.697
 7489W        W79018   5.470  38.448  11.620
 7490W        W79019  14.968  43.448  12.617
 7491W        W79020  30.040   4.121   2.062
 7492W        W79021  23.071  37.802   2.321
 7493W        W79022  20.367  18.981   1.299
 7494W        W79023   5.781   0.216   4.403
 7495W        W79024  34.930  12.602  11.126
 7496W        W79025  42.295  11.188  14.555
 7497W        W79026  14.188  35.909   0.770
 7498W        W79027  41.841   8.876  14.961
 7499W        W79028   9.171  19.336   4.292
 7500W        W79029  44.972   1.093  11.018
 7501W        W79030  20.305  44.825   0.884
 7502W        W79031  21.561   7.128  14.358
 7503W        W79032  31.000  41.458   0.382
 7504W        W79033   5.915  18.960  14.909
 7505W        W79034   2.018  12.780   0.953
 7506W        W79035  15.652  19.911  13.470
 7507W        W79036  30.648   1.243  12.365
 7508W        W79037   1.585  40.254   1.487
 7509W        W79038  18.338  16.898   1.007
 7510W        W79039  38.909  38.717  13.504
 7511W        W79040   3.255  40.929   3.110
 7512W        W79041  30.740  44.667   4.855
 7513W        W79042   2.997  26.247  10.587
 7514W        W79043  32.725  28.765   1.472
 7515W        W79044   0.732  14.473  14.447
 7516W        W79045  22.739  26.875   4.315
 7517W        W79046  14.882  43.292   3.366
 7518W        W79047  19.188  10.305   0.314
 7519W        W79048   1.956   6.761   4.944
 7520W        W79049  31.637  12.672   2.165
 7521W        W79050  11.952  12.811   3.162
 7522W        W79051  18.105  21.590   3.729
 7523W        W79052   2.569  18.953   0.353
 7524W        W79053  34.375  10.405  10.699
 7525W        W79054  42.817   1.922  10.220
 7526W        W79055   0.938  19.160   1.135
 7527W        W79056   9.301  21.708  10.843
 7528W        W79057   4.965  35.442  14.910
 7529W        W79058  30.467  34.531  12.903
 7530W        W79059  30.013  33.528   1.933
 7531W        W79060  40.781  31.088   3.002
 7532W        W79061   7.803  21.706  13.795
 7533W        W79062  23.273  32.897   2.639
 7534W        W79063   9.977  28.692  14.259
 7535W        W79064  36.947   0.840   2.239
 7536W        W79065   9.356   6.821   4.320
 7537W        W79066  31.671  15.583   3.139
 7538W        W79067   1.470  28.498   1.736
 7539W        W79068  37.910  10.595  14.775
 7540W        W79069  28.279  43.858   1.881
 7541W        W79070   2.159  35.676  10.657
 7542W        W79071  11.888  38.859   9.892
 7543W        W79072  44.433  23.405   3.961
 7544W        W79073   4.553   0.850   0.485
 7545W        W79074  29.469   8.490   0.173
 7546W        W79075  38.834  24.704   2.813
 7547W        W79076   2.759  37.618  14.970
 7548W        W79077  41.071  23.113  11.169
 7549W        W79078  35.605  34.922  13.358
 7550W        W79079  14.810  30.560   1.301
 7551W        W79080  29.650  37.595  12.923
 7552W        W79081  22.064  40.548   1.925
 7553W        W79082  10.810  12.833  14.829
 7554W        W79083  34.065  16.808  14.274
 7555W        W79084  15.434  38.334  11.083
 7556W        W79085   8.230  31.523   0.879
 7557W        W79086  43.214  35.382  11.134
 7558W        W79087  42.516   7.128   0.023
 7559W        W79088   0.432  32.035   9.761
 7560W        W79089  29.152  37.000   4.547
 7561W        W79090  37.271  39.289   3.164
 7562W        W79091  39.752  14.139   1.364
 7563W        W79092  29.085  13.785   1.691
 7564W        W79093   4.801  29.134  10.684
 7565W        W79094   2.450  41.527  10.971
 7566W        W79095  23.501  38.076  10.526
 7567W        W79096  35.628   9.232  13.503
 7568W        W79097  17.197   5.925   3.664
 7569W        W79098  11.855   3.145   1.648
 7570W        W79099  38.798  15.117   3.775
 7571W        W79100   8.271   0.772   1.184
 7572W        W79101  40.692  13.340   0.459
 7573W        W79102  40.189  41.624   4.125
 7574W        W79103   9.991   4.623  12.774
 7575W        W79104   4.471  32.027  11.591
 7576W        W79105  20.620  23.060   1.472
 7577W        W79106  29.279  22.483  14.418
 7578W        W79107  44.870  30.791   2.710
 7579W        W79108   2.354  13.059  11.640
 7580W        W79109  38.853  42.505   2.094
 7581W        W79110  18.969  20.808   1.457
 7582W        W79111  21.742  14.304  14.333
 7583W        W79112  40.759  36.357  14.832
 7584W        W79113  23.560  42.076  13.022
 7585W        W79114  39.876  15.669   2.592
 7586W        W79115  31.011   8.186   4.319
 7587W        W79116   0.660  44.839   2.275
 7588W        W79117  16.518  18.561  12.563
 7589W        W79118  31.239  16.134   4.051
 7590W        W79119  15.795  12.093   1.476
 7591W        W79120   0.779  23.018   3.296
 7592W        W79121   8.749  21.209   3.855
 7593W        W79122   1.960  22.013   1.544
 7594W        W79123  32.113  14.083   1.321
 7595W        W79124  41.116  39.897   1.326
 7596W        W79125   2.887   5.796  14.998
 7597W        W79126  36.347  10.427   5.118
 7598W        W79127  13.544  37.505   1.502
 7599W        W79128  26.456  24.710  11.966
 7600W        W79129   7.914  14.754   2.824
 7601W        W79130  39.741  41.281   1.754
 7602W        W79131  17.291   2.095  10.484
 7603W        W79132  32.791  13.416  11.023
 7604W        W79133  27.761  34.038   3.999
 7605W        W79134   4.187  38.959   4.077
 7606W        W79135  17.101  43.758   4.945
 7607W        W79136   1.797  43.315  13.500
 7608W        W79137  42.586  34.557   1.412
 7609W        W79138  37.183  14.290   3.152
 7610W        W79139  12.382  30.646  11.477
 7611W        W79140  25.504  16.335  13.842
 7612W        W79141  36.491  42.335   4.572
 7613W        W79142  43.993  34.505  13.476
 7614W        W79143   3.763  31.699  10.678
 7615W        W79144  14.179  19.726  13.436
 7616W        W79145  11.388  33.706  11.905
 7617W        W79146   3.847  40.402   3.515
 7618W        W79147  42.010  11.006   2.202
 7619W        W79148  35.422   9.637   0.766
 7620W        W79149   6.196  37.188  13.320
 7621W        W79150  16.813  19.354   2.245
 7622W        W79151  21.579  28.243   2.262
 7623W        W79152  43.741  18.489  13.894
 7624W        W79153   2.712   6.377   2.264
 7625W        W79154   6.835   8.879  11.052
 7626W        W79155  22.513  11.909   2.230
 7627W        W79156  29.993   2.082  12.661
 7628W        W79157   8.877  12.959  13.097
 7629W        W79158  11.895  44.005   4.655
 7630W        W79159  14.523  42.950  12.465
 7631W        W79160   6.232  24.655   1.087
 7632W        W79161  18.249   8.605   4.272
 7633W        W79162  14.335  30.598  12.187
 7634W        W79163   7.290  13.256   1.499
 7635W        W79164  13.229  23.846   1.304
 7636W        W79165  18.902   0.336  10.625
 7637W        W79166  40.344  33.025   1.102
 7638W        W79167  35.392  23.565   2.255
 7639W        W79168  27.449  26.741  14.823
 7640W        W79169  33.540  40.268  10.765
 7641W        W79170  24.590  41.301   4.227
 7642W        W79171  40.936  29.993   2.169
 7643W        W79172  44.728  27.992   0.312
 7644W        W79173  35.672  21.087   1.485
 7645W        W79174  31.585  43.959   2.342
 7646W        W79175  10.814  17.515   4.408
 7647W        W79176  41.889  21.021  10.626
 7648W        W79177  25.614  37.668  12.024
 7649W        W79178  37.797  22.607   4.155
 7650W        W79179  41.028  41.356   3.593
 7651W        W79180  23.107   4.934  11.551
 7652W        W79181  32.809  12.840  11.467
 7653W        W79182   6.710  14.320  12.984
 7654W        W79183   3.434  27.529  13.909
 7655W        W79184  41.489  18.239  12.227
 7656W        W79185   3.779   7.339   4.755
 7657W        W79186  21.374  17.532   1.266
 7658W        W79187  27.449  10.437   2.827
 7659W        W79188  17.667  15.696  13.567
 7660W        W79189  15.362  43.430  10.902
 7661W        W79190  35.905  40.406   2.573
 7662W        W79191  16.796  11.177  14.512
 7663W        W79192   8.887  28.264   1.005
 7664W        W79193   3.825  41.759  13.412
 7665W        W79194  13.621  33.640  13.024
 7666W        W79195   6.365  31.381  14.924
 7667W        W79196  27.910  12.489   0.888
 7668W        W79197  39.004  32.864  13.524
 7669W        W79198  33.958  10.559  13.863
 7670W        W79199  24.133   5.911   1.837
 7671W        W79200   8.867  27.400  12.935
 7672W        W79201   9.230  24.134   1.885
 7673W        W79202   7.696   6.790  13.312
 7674W        W79203   2.178  41.084  14.810
 7675W        W79204  33.127  17.298  10.873
 7676W        W79205   9.397  37.308   1.882
 7677W        W79206  30.963  29.883  14.032
 7678W        W79207  37.483  32.663  12.218
 7679W        W79208  14.881  42.891  14.358
 7680W        W79209  38.281  27.580   0.744
 7681W        W79210   7.865  30.923  12.921
 7682W        W79211  11.909  15.872   2.711
 7683W        W79212  17.654  43.546  10.847
 7684W        W79213  28.244  36.613  11.210
 7685W        W79214   5.853  21.581   1.815
 7686W        W79215  15.080  33.338  10.624
 7687W        W79216  10.661  24.681  13.342
 7688W        W79217  10.335  28.171   1.456
 7689W        W79218  26.502  14.022   0.749
 7690W        W79219  31.579   8.307  12.314
 7691W        W79220  36.345  18.286   2.199
 7692W        W79221  22.743  17.181  14.319
 7693W        W79222  27.457   5.350   2.866
 7694W        W79223  40.830  29.213   2.724
 7695W        W79224  27.384  20.641   0.719
 7696W        W79225  39.864   3.935  13.924
 7697W        W79226  13.093  10.289  11.116
 7698W        W79227  34.197  25.111   4.120
 7699W        W79228  10.232  35.417  13.040
 7700W        W79229  25.284  17.039   4.204
 7701W        W79230  23.767  11.673  11.999
 7702W        W79231   3.774  16.694   0.668
 7703W        W79232   7.761  38.546   2.402
 7704W        W79233  12.339   9.713  12.197
 7705W        W79234  23.187  15.356  12.882
 7706W        W79235   5.616  39.795  11.964
 7707W        W79236   3.498  25.104  13.967
 7708W        W79237  17.657  23.678  11.053
 7709W        W79238  32.289  35.168   0.381
 7710W        W79239  32.989  27.986  13.847
 7711W        W79240  18.264   7.111   0.999
 7712W        W79241   4.684  41.340  11.491
 7713W        W79242  44.935  21.517   0.239
 7714W        W79243  17.996  38.057   1.886
 7715W        W79244  41.575  31.652  10.643
 7716W        W79245  44.892  41.864   2.233
 7717W        W79246  25.558  11.663   1.165
 7718W        W79247   2.989  18.786   1.693
 7719W        W79248  12.746   1.345   1.920
 7720W        W79249  23.729  43.809  12.403
 7721W        W79250  15.112  12.170   2.203
 7722W        W79251   1.603  26.115  13.672
 7723W        W79252  18.368  21.634   1.361
 7724W        W79253   2.411  11.223  11.830
 7725W        W79254  41.273  25.426   0.489
 7726W        W79255  23.225  22.806  14.464
 7727W        W79256   4.926  37.607  14.978
 7728W        W79257  40.768  13.178   3.212
 7729W        W79258  37.395  31.686   1.474
 7730W        W79259  42.840   1.812   3.358
 7731W        W79260  14.668   2.039  12.424
 7732W        W79261  22.712   7.814   1.090
 7733W        W79262  19.454  41.269  13.444
 7734W        W79263  21.532  17.517   2.797
 7735W        W79264  15.735   0.542   0.873
 7736W        W79265  28.616  21.506  14.073
 7737W        W79266  33.088  31.890   3.677
 7738W        W79267  44.203   7.388   5.011
 7739W        W79268   0.702  38.548  13.141
 7740W        W79269  22.658  40.212   3.241
 7741W        W79270  21.476  21.638   4.678
 7742W        W79271  37.717   9.144  14.469
 7743W        W79272  35.632  43.395  12.329
 7744W        W79273   6.185  23.521  13.668
 7745W        W79274  31.732   1.142   0.373
 7746W        W79275  19.988   7.401  14.417
 7747W        W79276  35.905  13.953  13.783
 7748W        W79277   6.459  14.374   1.739
 7749W        W79278  43.767  22.443   3.057
 7750W        W79279  25.366  19.797   4.671
 7751W        W79280  41.712  37.200   3.439
 7752W        W79281   4.318  43.025   0.913
 7753W        W79282  24.226  34.130   1.400
 7754W        W79283  12.823  38.945   2.426
 7755W        W79284  27.415  15.368  14.136
 7756W        W79285  36.344  30.875   2.747
 7757W        W79286  16.155  20.780  11.473
 7758W        W79287  43.420  20.263  14.087
 7759W        W79288   8.337  35.061  11.905
 7760W        W79289  10.866   1.665   4.711
 7761W        W79290  23.777  38.613   0.389
 7762W        W79291  26.503   0.846  10.993
 7763W        W79292  16.274  10.731   4.553
 7764W        W79293  24.182  32.305   4.301
 7765W        W79294  38.748  12.922   3.904
 7766W        W79295  14.181  38.233  14.438
 7767W        W79296  16.343  32.629   0.412
 7768W        W79297  12.681  38.255  13.401
 7769W        W79298  13.313  22.491  14.112
 7770W        W79299  18.328  42.874  10.706
 7771W        W79300  44.852  23.717   4.057
 7772W        W79301  30.626  25.001  12.080
 7773W        W79302   0.364   2.725  14.140
 7774W        W79303  23.955  26.339  10.972
 7775W        W79304  26.689  15.169  11.168
 7776W        W79305  39.687  44.491   3.313
 7777W        W79306  16.630  13.290   3.712
 7778W        W79307   7.856   1.964   2.321
 7779W        W79308   2.506  32.566   2.131
 7780W        W79309  38.921  13.768   4.074
 7781W        W79310  36.895  41.815  11.391
 7782W        W79311  43.349  16.579   4.722
 7783W        W79312  23.047  12.674  13.144
 7784W        W79313   2.202  38.563  12.114
 7785W        W79314   2.442  19.485   0.362
 7786W        W79315  42.141  30.100  12.374
 7787W        W79316  30.033  36.846  14.769
 7788W        W79317   8.170   7.284   2.263
 7789W        W79318  38.738  22.158   0.336
 7790W        W79319  29.165  20.827  10.694
 7791W        W79320  18.604  37.319  13.235
 7792W        W79321  30.167  19.849  13.393
 7793W        W79322   2.475   5.162   1.955
 7794W        W79323  27.084  10.104  12.794
 7795W        W79324   9.652  11.116  10.998
 7796W        W79325  42.537  30.405   1.882
 7797W        W79326  11.275  34.105  11.169
 7798W        W79327  16.876  25.461  13.381
 7799W        W79328  19.909  35.100  13.081
 7800W        W79329  34.013  12.599   0.006
 7801W        W79330  25.271   6.792  10.935
 7802W        W79331  21.627  24.265   3.660
 7803W        W79332  28.420   7.890   3.714
 7804W        W79333  34.031  44.417  11.955
 7805W        W79334  16.123   9.794   3.726
 7806W        W79335  32.074  11.836  14.398
 7807W        W79336  27.781  42.915  13.470
 7808W        W79337  12.788  10.291   1.864
 7809W        W79338   4.999  40.820   0.924
 7810W        W79339  42.929  13.804   0.493
 7811W        W79340  25.096  24.237   1.223
 7812W        W79341   1.539  43.686   3.142
 7813W        W79342  12.370   2.993   0.727
 7814W        W79343  43.054  19.054   0.422
 7815W        W79344   4.938  32.046   1.328
 7816W        W79345  37.054   6.895   2.730
 7817W        W79346   5.260   4.448  10.257
 7818W        W79347   2.754  42.925   1.316
 7819W        W79348  39.861   0.943   0.420
 7820W        W79349  38.602  32.549   1.122
 7821W        W79350  15.814   8.211  14.276
 7822W        W79351  11.638   3.305   2.600
 7823W        W79352  44.042  24.600  13.003
 7824W        W79353   4.790   3.405  11.431
 7825W        W79354  43.883   7.404   4.604
 7826W        W79355  22.335  36.572   2.158
 7827W        W79356  36.128  40.894  10.688
 7828W        W79357   2.310   6.820  14.452
 7829W        W79358   0.086  25.254   1.026
 7830W        W79359  13.050  32.100   0.454
 7831W        W79360  16.143  22.795  10.668
 7832W        W79361  12.198  29.589  14.936
 7833W        W79362  43.589  38.793  12.524
 7834W        W79363   4.611   8.520  12.993
 7835W        W79364  37.375  22.772  11.129
 7836W        W79365   0.390   0.087  12.634
 7837W        W79366   2.240  28.135   4.973
 7838W        W79367  44.972  23.541   0.486
 7839W        W79368   1.904  21.066  14.096
 7840W        W79369  34.066  29.175   1.241
 7841W        W79370  28.693  10.697   3.583
 7842W        W79371  30.949  35.357   4.997
 7843W        W79372  18.665  24.166   1.897
 7844W        W79373   5.769  15.164   4.511
 7845W        W79374  13.258  34.583  14.857
 7846W        W79375   2.930  16.716   3.694
 7847W        W79376  30.891  18.776   3.969
 7848W        W79377  14.214  14.164  10.643
 7849W        W79378  10.227   3.252  11.484
 7850W        W79379  42.342  33.629  14.421
 7851W        W79380  38.473  22.020  13.392
 7852W        W79381  21.478  37.643  10.731
 7853W        W79382   2.517  19.570   2.244
 7854W        W79383  24.961  24.518  13.990
 7855W        W79384  42.960  11.301   2.332
 7856W        W79385  27.176  25.941  12.146
 7857W        W79386  17.160  43.236   5.244
 7858W        W79387  23.139  29.914  11.187
 7859W        W79388  15.218  14.797   2.602
 7860W        W79389  40.898   7.715   0.939
 7861W        W79390  37.620  12.327   0.018
 7862W        W79391  36.205   9.663  12.792
 7863W        W79392  15.783  31.419   1.244
 7864W        W79393  43.815  11.069   0.776
 7865W        W79394  43.914  22.640   0.231
 7866W        W79395   9.670  21.511   2.910
 7867W        W79396   8.470  10.912  10.610
 7868W        W79397  16.385  13.066   3.276
 7869W        W79398  10.250  22.736   2.159
 7870W        W79399  40.422  24.265   2.288
 7871W        W79400  24.187  33.860   3.695
 7872W        W79401  17.301  24.077  14.025
 7873W        W79402   1.375  43.973  12.369
 7874W        W79403  23.727  41.321  13.465
 7875W        W79404  28.543   1.562   2.145
 7876W        W79405  28.386   9.993   4.529
 7877W        W79406  44.458  23.293   3.460
 7878W        W79407  27.368  35.783   4.114
 7879W        W79408   7.172  27.967  14.510
 7880W        W79409  36.058  40.901   1.284
 7881W        W79410  19.841  23.076  12.464
 7882W        W79411  28.819  32.471  10.176
 7883W        W79412   1.689   3.848  13.893
 7884W        W79413  37.318  29.467  11.792
 7885W        W79414   3.821  36.554   4.967
 7886W        W79415  24.937  23.494  12.428
 7887W        W79416  33.083   8.360  10.701
 7888W        W79417  16.069   9.771   0.280
 7889W        W79418  21.266  38.441  11.143
 7890W        W79419  41.263  37.577   3.754
 7891W        W79420   6.739   8.602  14.321
 7892W        W79421   3.797   7.627  11.488
 7893W        W79422  34.457  43.331  11.050
 7894W        W79423  30.728  42.393  14.287
 7895W        W79424   8.136  25.171  11.917
 7896W        W79425  43.001  36.278   2.170
 7897W        W79426  44.758  43.003  14.274
 7898W        W79427  12.677  21.725   2.419
 7899W        W79428  10.361  33.881   1.397
 7900W        W79429  32.566  40.368   3.159
 7901W        W79430  40.113   3.808  11.953
 7902W        W79431  31.484  41.921   0.384
 7903W        W79432   6.671  30.176   1.043
 7904W        W79433  42.838  13.643  13.848
 7905W        W79434  40.269  13.183   3.316
 7906W        W79435  24.646   6.400  13.771
 7907W        W79436   3.534  27.426  14.809
 7908W        W79437  41.817  21.444  13.341
 7909W        W79438  13.780  16.312   4.455
 7910W        W79439   0.183  18.406  13.284
 7911W        W79440  10.094  40.825   4.959
 7912W        W79441  38.405  29.352   4.193
 7913W        W79442  16.496  22.911   2.497
 7914W        W79443  44.859  28.426   2.318
 7915W        W79444   2.320  34.449  13.656
 7916W        W79445  25.929  22.053   1.790
 7917W        W79446   6.179   4.761   4.210
 7918W        W79447   7.802  44.441   4.218
 7919W        W79448  14.784  11.110   0.375
 7920W        W79449  15.108  27.298  13.042
 7921W        W79450  38.573  37.446   3.667
 7922W        W79451   6.428  41.444   0.685
 7923W        W79452   2.775   7.130  14.851
 7924W        W79453  33.596  14.820   3.568
 7925W        W79454   7.798   6.888   1.353
 7926W        W79455  41.069  18.684   1.700
 7927W        W79456  20.111  27.052   2.617
 7928W        W79457  12.553  41.817   1.805
 7929W        W79458  32.872  17.663  11.137
 7930W        W79459  15.060  18.245   3.852
 7931W        W79460  33.134  23.033   2.386
 7932W        W79461   6.253  42.118   3.159
 7933W        W79462  39.521  15.198   1.306
 7934W        W79463   0.912  15.136   0.631
 7935W        W79464  10.145  36.628  13.454
 7936W        W79465   0.103  20.620   0.571
 7937W        W79466  20.858  28.025  13.440
 7938W        W79467  37.472  13.902  13.448
 7939W        W79468  41.598  17.454   3.810
 7940W        W79469  24.706  44.248  12.611
 7941W        W79470  30.853  21.651  11.946
 7942W        W79471  13.296   3.457   3.547
 7943W        W79472  38.631  38.791  14.023
 7944W        W79473  20.567  21.212   1.353
 7945W        W79474  34.059  33.594   0.313
 7946W        W79475   2.402  10.624   3.728
 7947W        W79476  36.629  38.923  14.088
 7948W        W79477  26.204   1.225  11.206
 7949W        W79478  17.806   8.779   4.112
 7950W        W79479  38.478  21.359   0.786
 7951W        W79480  30.159  14.759  13.532
 7952W        W79481   3.910  29.547  12.462
 7953W        W79482  37.531  31.780  12.035
 7954W        W79483  32.683   9.735   1.318
 7955W        W79484  20.144  16.234   1.043
 7956W        W79485  18.714  24.245   3.147
 7957W        W79486   3.924   4.102   2.204
 7958W        W79487  44.611   6.377  13.907
 7959W        W79488   4.288  42.425   4.200
 7960W        W79489  42.598  10.882   4.393
 7961W        W79490  14.056   6.033   4.489
 7962W        W79491  25.455  11.863  10.662
 7963W        W79492  40.466  13.060   2.825
 7964W        W79493   9.818  15.768  10.683
 7965W        W79494  18.139  40.815   3.117
 7966W        W79495  17.312  36.695   4.829
 7967W        W79496  34.874   3.949  10.766
 7968W        W79497   6.570  20.073   3.198
 7969W        W79498  12.342   6.889   4.201
 7970W        W79499  37.020  18.711   3.802
 7971W        W79500  27.239  27.011   3.064
 7972W        W79501  37.997  17.185   1.597
 7973W        W79502   5.421  22.958  14.786
 7974W        W79503  32.343   0.984  11.951
 7975W        W79504   4.659  22.212  12.754
 7976W        W79505  17.829   6.586  11.284
 7977W        W79506  26.870  43.832   4.179
 7978W        W79507   3.892   4.719   0.293
 7979W        W79508  33.415  38.923  13.308
 7980W        W79509  14.706   8.279   2.225
 7981W        W79510  19.809  34.359  12.115
 7982W        W79511  43.418  21.353  12.821
 7983W        W79512  28.458  13.803   0.907
 7984W        W79513  36.532   7.952  12.554
 7985W        W79514  39.035  19.291  13.801
 7986W        W79515   1.528  35.543   1.857
 7987W        W79516  35.051  17.885  14.054
 7988W        W79517  15.826  14.873   4.865
 7989W        W79518  43.726  40.273  11.567
 7990W        W79519  30.113  21.294  10.749
 7991W        W79520  34.438  14.990  10.856
 7992W        W79521  42.297   7.936  11.986
 7993W        W79522   2.058  27.984   4.528
 7994W        W79523  15.061   2.220   0.918
 7995W        W79524  31.707  41.241  11.117
 7996W        W79525   6.039  19.637   3.970
 7997W        W79526  18.629   3.862   4.346
 7998W        W79527   2.190  30.588  14.274
 7999W        W79528  19.081  21.889   0.687
 8000W        W79529  15.613  14.635   1.763
 8001W        W79530  39.320  33.970  10.943
 8002W        W79531  17.725  22.599   2.648
 8003W        W79532  21.179  25.841  11.622
 8004W        W79533  44.405  26.575   2.853
 8005W        W79534  37.591   8.107  14.304
 8006W        W79535  15.732   2.491   4.165
 8007W        W79536  33.669  12.602  11.088
 8008W        W79537   5.131  18.611  13.414
 8009W        W79538  18.677  39.896  12.415
 8010W        W79539  37.055  12.420  11.549
 8011W        W79540  27.706  17.340  14.512
 8012W        W79541  27.685   6.400  13.550
 8013W        W79542  28.008   1.516  13.479
 8014W        W79543   2.247  10.332   9.790
 8015W        W79544   4.492   9.817   1.670
 8016W        W79545  26.630  21.074  11.460
 8017W        W79546  18.168  35.155  12.083
 8018W        W79547  27.892   3.763  14.423
 8019W        W79548  16.799   7.365  14.315
 8020W        W79549  28.569  13.889  13.692
 8021W        W79550  44.708  20.795  12.896
 8022W        W79551   6.151  22.472   3.234
 8023W        W79552  28.249   5.925   4.543
 8024W        W79553   4.415   2.480   2.924
 8025W        W79554  43.788   5.684  14.756
 8026W        W79555  10.390  32.725   3.158
 8027W        W79556   8.090  14.415  12.024
 8028W        W79557  35.871  14.787   1.886
 8029W        W79558  38.939  37.303   0.550
 8030W        W79559  14.614  26.846  11.445
 8031W        W79560  22.454   9.262  12.784
 8032W        W79561  15.138   3.169   4.125
 8033W        W79562  14.590   4.820  12.439
 8034W        W79563  19.198  16.005   2.134
 8035W        W79564  43.834  12.286   2.324
 8036W        W79565  23.423  10.988  13.413
 8037W        W79566  21.383  22.475   4.241
 8038W        W79567   2.204  29.527   1.451
 8039W        W79568   4.831  18.026  14.035
 8040W        W79569  19.286   5.712  13.013
 8041W        W79570  13.733   6.807   2.878
 8042W        W79571  38.321  30.959   2.857
 8043W        W79572  18.302   6.823  13.110
 8044W        W79573   4.266  39.907   0.451
 8045W        W79574   5.631  43.821   0.651
 8046W        W79575   9.746  18.811   4.936
 8047W        W79576  27.935  31.665   0.466
 8048W        W79577  28.175  41.396  11.872
 8049W        W79578   0.786   6.272   0.391
 8050W        W79579   1.856  37.460   1.719
 8051W        W79580  43.276  19.024  13.249
 8052W        W79581  43.978  19.653  11.157
 8053W        W79582  30.631  32.150  14.929
 8054W        W79583  27.665  13.643  10.453
 8055W        W79584   0.228  20.459  13.946
 8056W        W79585  26.591   1.775  10.568
 8057W        W79586  16.057  41.513  14.358
 8058W        W79587  16.320  18.686   2.690
 8059W        W79588  42.909   8.936  10.801
 8060W        W79589  25.617  41.198  11.507
 8061W        W79590  30.457  38.365   4.735
 8062W        W79591  42.881  40.476   3.564
 8063W        W79592  42.956  19.253   4.132
 8064W        W79593  32.447  31.892   3.389
 8065W        W79594   3.791  34.868  13.383
 8066W        W79595   9.364  17.686   1.497
 8067W        W79596  19.043   3.722   0.692
 8068W        W79597  42.932   8.429  12.863
 8069W        W79598  39.978  16.263  12.544
 8070W        W79599  22.631  16.087  11.167
 8071W        W79600  27.671  15.293  14.970
 8072W        W79601  28.708  41.265   1.956
 8073W        W79602   3.429  40.377   1.295
 8074W        W79603  24.972   7.407   0.845
 8075W        W79604  14.293  15.750   3.292
 8076W        W79605  33.311  40.234  10.306
 8077W        W79606  44.803  26.568   0.239
 8078W        W79607   2.178  22.482   1.861
 8079W        W79608  35.586  13.762   4.500
 8080W        W79609  14.257  35.848  13.315
 8081W        W79610  15.489  22.671   4.446
 8082W        W79611  19.278  35.333   3.838
 8083W        W79612  35.510  11.349  12.608
 8084W        W79613   4.867   8.126  13.726
 8085W        W79614  31.538  18.822  13.946
 8086W        W79615  27.154  12.262  12.635
 8087W        W79616  12.108   8.142   0.313
 8088W        W79617   9.634  16.303  13.872
 8089W        W79618  12.610  12.757   0.210
 8090W        W79619  10.161  24.145   2.643
 8091W        W79620  12.847  25.598  12.606
 8092W        W79621   1.279   1.250  13.901
 8093W        W79622  29.246   4.478  14.229
 8094W        W79623   4.812  24.598   0.225
 8095W        W79624  16.707   2.977   1.908
 8096W        W79625  13.784   2.839   4.843
 8097W        W79626  16.423  24.148  13.837
 8098W        W79627  30.889  42.785  10.570
 8099W        W79628  43.555  10.848   3.748
 8100W        W79629   5.803   3.374  11.497
 8101W        W79630  18.718  10.436   1.293
 8102W        W79631  42.228  19.178   2.917
 8103W        W79632  39.930  40.849  11.666
 8104W        W79633  15.744  23.160  11.937
 8105W        W79634   1.907  35.159  14.434
 8106W        W79635  17.000   6.511  11.125
 8107W        W79636   8.912   9.221   0.814
 8108W        W79637  16.685  12.337   3.925
 8109W        W79638  42.397  19.085  11.936
 8110W        W79639  42.395  42.286   0.826
 8111W        W79640  40.865  28.218  12.550
 8112W        W79641  33.135  31.675   0.911
 8113W        W79642   4.061  28.588   4.517
 8114W        W79643  35.409  26.898   1.805
 8115W        W79644  35.344   7.951  12.071
 8116W        W79645  13.732  10.064  10.785
 8117W        W79646  44.949  19.127  10.722
 8118W        W79647   1.242  24.630  13.017
 8119W        W79648  29.618   3.166  13.081
 8120W        W79649  26.708  40.298   1.305
 8121W        W79650  40.801  12.398   1.757
 8122W        W79651  35.873  44.505   4.695
 8123W        W79652  27.044  19.071  12.464
 8124W        W79653  31.770  38.365  12.293
 8125W        W79654  32.113  14.825  13.986
 8126W        W79655  11.858  10.172   2.342
 8127W        W79656  35.366   5.171   4.630
 8128W        W79657  39.042   3.923   3.537
 8129W        W79658  32.636  18.465  11.539
 8130W        W79659  26.621   1.180  12.427
 8131W        W79660   6.661  41.757  10.632
 8132W        W79661  18.777  38.544  10.786
 8133W        W79662  28.235   7.727   5.203
 8134W        W79663  17.629   7.655   0.281
 8135W        W79664  21.128   3.033   0.304
 8136W        W79665  41.503  44.503  12.350
 8137W        W79666  44.484   4.822  10.941
 8138W        W79667   3.253  26.535   4.297
 8139W        W79668  34.632  42.268  12.400
 8140W        W79669  23.082  11.246   3.014
 8141W        W79670   4.140   0.518  11.182
 8142W        W79671  10.170  27.909   4.557
 8143W        W79672   8.704  36.866   0.316
 8144W        W79673  31.949  31.066   1.581
 8145W        W79674   1.999   7.711   0.279
 8146W        W79675  21.006   6.109   1.076
 8147W        W79676  18.727  19.474  10.411
 8148W        W79677  13.686  24.552  14.748
 8149W        W79678  38.377  38.064   1.917
 8150W        W79679  39.328   9.974   3.746
 8151W        W79680  28.475  20.224   2.158
 8152W        W79681   4.420   5.677  11.997
 8153W        W79682  36.582  12.365  14.421
 8154W        W79683  22.187  40.584   4.114
 8155W        W79684   1.570  18.666  10.923
 8156W        W79685  31.109  15.235   3.716
 8157W        W79686   7.329  44.707  13.457
 8158W        W79687  35.152   5.275   0.800
 8159W        W79688  24.183  12.080  11.334
 8160W        W79689   9.554  36.905  11.505
 8161W        W79690  21.757  25.682   2.767
 8162W        W79691  34.876  30.944   0.972
 8163W        W79692  25.932  12.377   3.741
 8164W        W79693   0.190  31.178   3.684
 8165W        W79694  37.646   5.289  13.484
 8166W        W79695  17.031  28.631   3.573
 8167W        W79696  26.117  31.891  13.955
 8168W        W79697  19.060  43.250  12.696
 8169W        W79698   8.272  25.990   4.370
 8170W        W79699  25.811  16.004  12.863
 8171W        W79700   9.090  15.062   0.039
 8172W        W79701  28.083   4.285   1.624
 8173W        W79702  36.490  41.829   4.778
 8174W        W79703   3.341  19.510   0.441
 8175W        W79704   8.318  29.144   1.628
 8176W        W79705  13.082  24.122   3.678
 8177W        W79706   7.533  42.838  11.163
 8178W        W79707  23.705  32.054   0.267
 8179W        W79708   5.817  36.041   0.447
 8180W        W79709  44.020   7.740  11.476
 8181W        W79710  19.054  38.246   3.999
 8182W        W79711  14.636   3.701  11.987
 8183W        W79712  25.195  43.290   1.396
 8184W        W79713  37.980   8.757   3.737
 8185W        W79714  34.985  28.607  14.768
 8186W        W79715  13.827  18.737   0.500
 8187W        W79716   3.223  16.781   3.299
 8188W        W79717  23.045  44.252  14.001
 8189W        W79718  30.311  17.915   3.438
 8190W        W79719  34.438  37.563  14.872
 8191W        W79720  17.148   6.135   2.453
 8192W        W79721  13.060  27.117   2.201
 8193W        W79722  15.974  35.778   1.883
 8194W        W79723  39.282  18.599  14.453
 8195W        W79724  15.770  13.817  11.935
 8196W        W79725   2.436  15.709   1.071
 8197W        W79726  44.440  39.810   4.749
 8198W        W79727  21.695   2.672  13.507
 8199W        W79728   7.845  19.212  13.382
 8200W        W79729   1.374   9.686  10.580
 8201W        W79730  16.540   1.410  14.536
 8202W        W79731  25.190  28.065   4.406
 8203W        W79732   6.901  36.456   0.339
 8204W        W79733  17.230  35.357  11.634
 8205W        W79734   8.751  37.920  12.572
 8206W        W79735  35.210   4.159  12.067
 8207W        W79736  30.420  22.575   4.739
 8208W        W79737  16.359  41.839  11.467
 8209W        W79738   2.917  15.754   3.679
 8210W        W79739   4.648  27.284  11.929
 8211W        W79740  30.498  11.068   3.120
 8212W        W79741  32.289   9.162   0.812
 8213W        W79742  24.912  29.947  10.956
 8214W        W79743  26.134  21.062   1.633
 8215W        W79744  12.607  19.733  14.411
 8216W        W79745   6.412  36.682  13.337
 8217W        W79746  29.463  23.760   2.100
 8218W        W79747  17.163  12.644  13.649
 8219W        W79748   6.325  40.639  13.917
 8220W        W79749  16.296  19.797   0.841
 8221W        W79750  28.022   3.761  13.931
 8222W        W79751  14.266  21.074  11.629
 8223W        W79752   5.961   5.347  11.150
 8224W        W79753  39.848  15.671  10.994
 8225W        W79754   6.926  38.976   1.674
 8226W        W79755  21.872  21.840   2.330
 8227W        W79756  32.398   0.940  11.012
 8228W        W79757  39.877  22.101   0.376
 8229W        W79758   3.726  43.445   0.339
 8230W        W79759  35.057  20.056   1.745
 8231W        W79760  38.766  42.002   4.974
 8232W        W79761   7.639  25.007   0.433
 8233W        W79762   0.401  42.435   4.497
 8234W        W79763  12.301  24.074  12.803
 8235W        W79764  43.061   3.676  12.401
 8236W        W79765  22.240  30.415   3.861
 8237W        W79766  12.103   3.385   4.198
 8238W        W79767   9.655  24.171   3.603
 8239W        W79768   5.367  33.888   3.828
 8240W        W79769  16.260   1.255  10.532
 8241W        W79770  39.335  39.808  12.954
 8242W        W79771   0.893  18.155  14.950
 8243W        W79772  44.933  17.164  14.904
 8244W        W79773   1.849   2.011  13.867
 8245W        W79774  29.714  29.455  14.260
 8246W        W79775   1.888  27.487  11.855
 8247W        W79776  41.391  35.813  11.847
 8248W        W79777  43.802  44.963   0.710
 8249W        W79778  38.428  23.481  13.982
 8250W        W79779   2.246  27.743   3.140
 8251W        W79780  12.357  28.153  14.929
 8252W        W79781  13.665  42.454  14.983
 8253W        W79782  35.328   2.773  11.470
 8254W        W79783  31.878   9.893  10.521
 8255W        W79784  40.838  15.646  11.354
 8256W        W79785   4.018  21.040   1.398
 8257W        W79786   9.616   3.340   1.783
 8258W        W79787  25.688  30.633   1.879
 8259W        W79788  22.542  25.249  12.448
 8260W        W79789   1.884  12.201  11.119
 8261W        W79790  21.113  19.233   0.738
 8262W        W79791  18.033   7.586   2.839
 8263W        W79792  40.778  39.509   0.451
 8264W        W79793  30.036   0.335   0.061
 8265W        W79794   2.919  32.947  11.959
 8266W        W79795  37.641  22.814   1.393
 8267W        W79796  31.196  14.557   2.855
 8268W        W79797   1.952  22.305   3.463
 8269W        W79798  21.484  28.580  12.387
 8270W        W79799  44.894  21.785  12.803
 8271W        W79800  21.954  32.558   4.099
 8272W        W79801   1.829  18.613   4.639
 8273W        W79802  38.018  11.383   3.702
 8274W        W79803  14.004  43.838   1.892
 8275W        W79804  35.215   9.685  14.309
 8276W        W79805  21.841  22.600  14.104
 8277W        W79806  14.319  42.978   2.355
 8278W        W79807  13.099  14.300  13.540
 8279W        W79808  30.383  25.125   4.255
 8280W        W79809  30.208  20.127  12.965
 8281W        W79810   0.976  16.575   0.749
 8282W        W79811  29.171  15.809   2.781
 8283W        W79812   5.371  30.049   4.333
 8284W        W79813  44.862  28.357  14.921
 8285W        W79814  33.441  12.373  12.920
 8286W        W79815   4.376   1.040   1.469
 8287W        W79816   1.959  42.801   1.798
 8288W        W79817  35.171  41.060   2.786
 8289W        W79818  12.433  44.363   4.814
 8290W        W79819  40.336  29.392  10.716
 8291W        W79820  19.058   7.182  12.858
 8292W        W79821  33.526  24.509  11.430
 8293W        W79822  16.167  32.970   3.627
 8294W        W79823  44.696  24.732  12.155
 8295W        W79824   7.994  30.994   1.457
 8296W        W79825  24.656  21.237  11.265
 8297W        W79826  41.916  44.428   3.307
 8298W        W79827   0.297  42.889  12.109
 8299W        W79828  34.162   5.798  13.120
 8300W        W79829  10.659  15.625   3.277
 8301W        W79830   9.674  38.997  13.433
 8302W        W79831  14.762  32.463  14.722
 8303W        W79832   7.163  19.573   0.867
 8304W        W79833   9.623  33.284  12.421
 8305W        W79834  11.302  36.008  11.397
 8306W        W79835  21.935  42.958   0.923
 8307W        W79836  22.764  18.035  11.952
 8308W        W79837  27.905  23.210   0.328
 8309W        W79838  36.110  32.737  14.931
 8310W        W79839  18.888  25.943   4.380
 8311W        W79840  16.041  22.688   4.536
 8312W        W79841   9.590  35.506   2.889
 8313W        W79842  29.000   4.466   1.655
 8314W        W79843  29.449   0.824   3.636
 8315W        W79844   3.104  19.009   3.305
 8316W        W79845  32.690  20.692   3.010
 8317W        W79846  28.425   3.435   1.293
 8318W        W79847   7.174  32.399  12.616
 8319W        W79848   8.914   9.474  13.423
 8320W        W79849  26.421   9.443  12.887
 8321W        W79850  20.639  15.140   3.477
 8322W        W79851   9.160  37.873  10.651
 8323W        W79852   4.426  44.306  14.416
 8324W        W79853  19.315   0.540   3.194
 8325W        W79854  24.044  21.087   4.075
 8326W        W79855  34.595  18.312   1.915
 8327W        W79856  36.426   3.199  13.568
 8328W        W79857   9.164  22.351  11.184
 8329W        W79858  22.083  31.632  10.856
 8330W        W79859  29.314  11.870   4.174
 8331W        W79860   2.390   0.410  14.774
 8332W        W79861  40.155  11.208   1.500
 8333W        W79862  21.746  23.970   4.099
 8334W        W79863  36.679  16.710   2.191
 8335W        W79864  44.924  38.619  13.870
 8336W        W79865  27.298  38.331  11.889
 8337W        W79866  41.014   0.192  14.802
 8338W        W79867  23.792   4.340  11.227
 8339W        W79868  39.617  13.480  12.290
 8340W        W79869  28.846  32.407  11.606
 8341W        W79870  26.120  27.636  13.753
 8342W        W79871  18.061  26.853   2.132
 8343W        W79872  24.786  25.648   2.826
 8344W        W79873  25.649  17.547  12.599
 8345W        W79874  40.225  33.009  14.453
 8346W        W79875  31.374  32.501  14.120
 8347W        W79876  24.651  36.889   3.207
 8348W        W79877  35.525  11.606  11.684
 8349W        W79878  15.515  11.085   2.806
 8350W        W79879  18.083  43.372   0.764
 8351W        W79880  15.581   7.416  11.963
 8352W        W79881  35.628   8.664   1.925
 8353W        W79882  37.785  37.778  12.145
 8354W        W79883  30.940  11.401  12.190
 8355W        W79884  22.703  28.689  13.220
 8356W        W79885  11.714  18.793  13.390
 8357W        W79886   6.954  15.233  14.398
 8358W        W79887  43.225  42.046   2.123
 8359W        W79888   3.036  38.826   3.269
 8360W        W79889  13.641   5.309   2.807
 8361W        W79890   1.492  37.405  12.075
 8362W        W79891  34.705  19.954   3.192
 8363W        W79892  34.557  19.500  13.075
 8364W        W79893  18.820   1.866   2.639
 8365W        W79894  20.894  14.032  12.908
 8366W        W79895  26.456  28.095   0.718
 8367W        W79896  35.578  21.998  10.741
 8368W        W79897  24.802  40.429  10.768
 8369W        W79898  10.050   5.864   1.879
 8370W        W79899  26.558  40.569   4.505
 8371W        W79900   8.769   6.689  11.861
 8372W        W79901  36.795  26.799   0.350
 8373W        W79902  20.264  17.798   3.369
 8374W        W79903  35.528  33.094   1.728
 8375W        W79904  13.869  21.044   2.219
 8376W        W79905  40.605  29.192   4.683
 8377W        W79906   9.531  29.615  10.665
 8378W        W79907  25.264  11.322  13.469
 8379W        W79908  27.727  39.835  14.018
 8380W        W79909  26.559  29.614   3.756
 8381W        W79910  10.401  14.830   3.820
 8382W        W79911  13.038  42.119  13.309
 8383W        W79912  11.211   1.927  14.308
 8384W        W79913  33.182  34.381   0.480
 8385W        W79914   9.270  13.204  13.347
 8386W        W79915  42.280  29.014   1.773
 8387W        W79916   2.225   0.890   1.830
 8388W        W79917   7.876  43.800  13.925
 8389W        W79918  22.763  23.751  14.373
 8390W        W79919  36.983   8.466   2.885
 8391W        W79920  18.928   4.407  12.965
 8392W        W79921  24.426   2.467   0.933
 8393W        W79922   4.557  14.242   3.737
 8394W        W79923  27.940  29.635  12.049
 8395W        W79924   9.853  11.776  14.046
 8396W        W79925  19.218  24.163   4.049
 8397W        W79926  17.774  24.619   5.010
 8398W        W79927  20.554   6.953   1.494
 8399W        W79928  29.443   4.653   1.301
 8400W        W79929  35.291  11.503   1.848
 8401W        W79930   5.046  32.732   0.056
 8402W        W79931  27.936  15.605  13.009
 8403W        W79932   8.268  23.674  10.356
 8404W        W79933   5.770   2.455  12.720
 8405W        W79934  31.895  25.917   0.588
 8406W        W79935  42.921  21.905  12.088
 8407W        W79936   3.382  43.008  11.087
 8408W        W79937  33.852  40.513  14.840
 8409W        W79938  27.957   7.722   1.015
 8410W        W79939   5.174  37.213   0.269
 8411W        W79940  40.706  18.539  12.907
 8412W        W79941  41.719  10.310  12.478
 8413W        W79942  12.101  29.572  12.473
 8414W        W79943  15.777  31.781  11.337
 8415W        W79944   9.351  25.939  13.858
 8416W        W79945  43.243  16.597   0.668
 8417W        W79946   9.781  30.878   3.424
 8418W        W79947  25.849  44.514   1.654
 8419W        W79948  30.550  15.028  11.887
 8420W        W79949  18.831  34.442   1.181
 8421W        W79950  22.176  18.068   3.364
 8422W        W79951  17.536   0.692   5.198
 8423W        W79952   3.485  11.323   0.742
 8424W        W79953   8.377   2.713   3.829
 8425W        W79954  30.545   2.310  10.939
 8426W        W79955  44.727  35.057   4.561
 8427W        W79956  31.043  11.773  10.276
 8428W        W79957  39.061  26.140   0.471
 8429W        W79958  33.885  24.572  13.861
 8430W        W79959  18.216  16.875  11.082
 8431W        W79960  43.092  33.426  10.294
 8432W        W79961  24.661  33.414   2.900
 8433W        W79962  18.141  18.626  12.578
 8434W        W79963   7.796   0.382   4.813
 8435W        W79964  10.038  17.203   9.984
 8436W        W79965  13.327   0.716   3.618
 8437W        W79966  33.633  27.096   4.317
 8438W        W79967  20.776  13.895  13.530
 8439W        W79968   4.882  20.065  12.506
 8440W        W79969  28.926  13.593  11.269
 8441W        W79970  37.044  29.151  13.983
 8442W        W79971  21.314  26.183   4.718
 8443W        W79972  11.101  22.554   0.819
 8444W        W79973   5.183  35.053   1.843
 8445W        W79974   3.288   2.032  10.760
 8446W        W79975  19.669  38.242  14.408
 8447W        W79976   3.503  19.683  11.030
 8448W        W79977  36.499  18.301   3.543
 8449W        W79978  26.223   4.902  14.484
 8450W        W79979  16.536  38.473  12.256
 8451W        W79980  34.478   0.028   3.681
 8452W        W79981  41.417  17.843   3.382
 8453W        W79982  12.095  21.513   4.525
 8454W        W79983  31.114  11.690  14.040
 8455W        W79984  37.163  34.385  10.937
 8456W        W79985  28.935  24.884  13.485
 8457W        W79986  22.652  26.538  10.193
 8458W        W79987   3.609  35.931  11.662
 8459W        W79988   5.579  13.638  12.895
 8460W        W79989  10.238  16.672   0.053
 8461W        W79990   3.401  12.970   2.187
 8462W        W79991  25.698  18.111   1.243
 8463W        W79992  29.639  19.163   4.748
 8464W        W79993  30.035   5.408  10.590
 8465W        W79994  19.071  43.958  11.432
 8466W        W79995   8.221  40.703   2.373
 8467W        W79996  24.546  41.665   1.845
 8468W        W79997  13.133   9.627   1.219
 8469W        W79998  13.575   5.891   4.557
 8470W        W79999  31.314   4.627   1.249
 8471W        W80000  38.542  11.169   3.815
 8472W        W80001  15.004  43.544   1.723
 8473W        W80002   0.343  16.163  10.708
 8474W        W80003  38.735  36.781  13.848
 8475W        W80004  35.479   0.698  14.593
 8476W        W80005  16.441  20.715   2.157
 8477W        W80006  21.339  14.595   0.282
 8478W        W80007  43.002  18.200  10.728
 8479W        W80008  39.295  43.501  11.196
 8480W        W80009  28.686   9.697  14.869
 8481W        W80010  40.803  36.334  10.640
 8482W        W80011  16.203  32.612   0.946
 8483W        W80012  35.405   3.796   4.430
 8484W        W80013  44.754  29.184   4.209
 8485W        W80014  25.432   4.822   2.143
 8486W        W80015  23.007  27.271   1.719
 8487W        W80016  16.624  41.447  11.270
 8488W        W80017  43.903  31.669  13.425
 8489W        W80018  24.866  28.638   0.278
 8490W        W80019  19.122  39.717   0.055
 8491W        W80020  44.431  21.819   3.223
 8492W        W80021  44.420   4.362   4.209
 8493W        W80022  17.242   7.178   4.822
 8494W        W80023  32.042  42.338   2.439
 8495W        W80024   8.117  29.406  13.550
 8496W        W80025  25.705  12.712   1.232
 8497W        W80026  41.027   9.399  13.375
 8498W        W80027  16.301  24.240   0.017
 8499W        W80028  43.397  44.009   0.065
 8500W        W80029   6.660   8.791  14.805
 8501W        W80030   2.535  25.993  10.600
 8502W        W80031  39.329  41.480   2.748
 8503W        W80032   5.630  33.182  13.579
 8504W        W80033   6.373  16.065   5.074
 8505W        W80034  31.705  20.685   3.559
 8506W        W80035  42.743  11.652  13.935
 8507W        W80036  44.937  19.839   1.372
 8508W        W80037  28.522  26.409   2.724
 8509W        W80038  15.756   7.675   4.159
 8510W        W80039  10.889  28.395  14.301
 8511W        W80040   7.854   8.730   1.656
 8512W        W80041   3.862  35.291  11.096
 8513W        W80042   7.253  44.726   0.428
 8514W        W80043   0.261   7.455   4.634
 8515W        W80044  32.597  13.627  10.602
 8516W        W80045  40.046  35.540   3.271
 8517W        W80046  26.062  41.472  12.951
 8518W        W80047  33.850  27.083   0.311
 8519W        W80048  40.803   5.355  10.676
 8520W        W80049  19.897  26.740  10.554
 8521W        W80050   6.999  38.899   4.213
 8522W        W80051  21.671  23.655   4.530
 8523W        W80052  23.924  27.940  10.375
 8524W        W80053  10.479   8.711   3.579
 8525W        W80054  41.406  14.844   2.011
 8526W        W80055  28.610  30.213   2.245
 8527W        W80056  42.388  27.538  11.558
 8528W        W80057  19.703  37.379  11.123
 8529W        W80058   2.932  41.699   3.537
 8530W        W80059  33.016  19.075  14.747
 8531W        W80060  42.372  29.448   2.646
 8532W        W80061  34.677  21.982   0.316
 8533W        W80062   6.258  14.091  12.903
 8534W        W80063  41.238  35.148  14.389
 8535W        W80064  18.565   0.271  13.561
 8536W        W80065  13.973  14.052   2.752
 8537W        W80066  37.382  31.308  12.174
 8538W        W80067  20.715  30.855  10.785
 8539W        W80068  22.681  21.672   1.870
 8540W        W80069  34.762  37.069  14.430
 8541W        W80070  29.048   7.717  13.973
 8542W        W80071  10.387  38.578  12.446
 8543W        W80072  24.965   6.133  12.035
 8544W        W80073  42.970  37.015   1.853
 8545W        W80074  22.604  44.475  13.842
 8546W        W80075   7.349   7.849  12.526
 8547W        W80076  10.581  29.076  12.107
 8548W        W80077  39.914   1.290  10.680
 8549W        W80078  39.055   6.442   0.800
 8550W        W80079  41.019  41.889  14.457
 8551W        W80080   0.584  25.950   1.472
 8552W        W80081  15.191  15.201   2.290
 8553W        W80082  37.110  32.326  11.024
 8554W        W80083  22.205  11.441   4.422
 8555W        W80084  42.059  20.118   2.171
 8556W        W80085  30.684  35.885   2.818
 8557W        W80086   7.261  15.069  12.113
 8558W        W80087  15.359  20.066  11.573
 8559W        W80088  26.430  24.448  12.406
 8560W        W80089  18.243  18.634  10.580
 8561W        W80090  24.973  24.565   2.211
 8562W        W80091  43.859  17.383  11.181
 8563W        W80092   9.334  38.602  13.412
 8564W        W80093  39.566  23.030  13.459
 8565W        W80094  22.095  20.685   0.327
 8566W        W80095  43.283   8.146   1.418
 8567W        W80096  37.292  33.131  12.107
 8568W        W80097  19.019  26.420   4.533
 8569W        W80098  42.930  39.842  11.466
 8570W        W80099  13.106  40.566  12.513
 8571W        W80100  21.624  31.066   0.309
 8572W        W80101  26.520  26.024   2.862
 8573W        W80102  15.169   7.210   4.605
 8574W        W80103   7.966  27.420  12.330
 8575W        W80104  40.858  37.776  11.030
 8576W        W80105  23.152  39.537  13.415
 8577W        W80106  39.585  37.608   1.794
 8578W        W80107  40.139   4.607   0.785
 8579W        W80108  11.068   1.952   0.267
 8580W        W80109   3.690  16.777  12.394
 8581W        W80110   4.908  29.860  11.033
 8582W        W80111   9.774  17.703  11.674
 8583W        W80112  28.706  31.290   1.227
 8584W        W80113   2.268  43.532  13.464
 8585W        W80114  44.674  22.550  13.201
 8586W        W80115  15.118  42.462  11.228
 8587W        W80116  23.033  44.761  13.932
 8588W        W80117  19.123  44.813   1.357
 8589W        W80118  42.434  17.166   0.849
 8590W        W80119  21.138  24.132   3.498
 8591W        W80120  43.895  31.170  11.621
 8592W        W80121  27.516   7.820   2.139
 8593W        W80122  11.302  21.388  10.933
 8594W        W80123  38.328  34.386  12.050
 8595W        W80124  33.254  31.905  13.451
 8596W        W80125  24.232  31.658   2.297
 8597W        W80126  44.874  37.591  12.702
 8598W        W80127  27.544  26.246   3.615
 8599W        W80128  14.694  32.536  14.227
 8600W        W80129  42.719  43.917  13.949
 8601W        W80130  38.949  16.129   4.817
 8602W        W80131  14.556   0.985   0.951
 8603W        W80132  18.877  10.347  11.178
 8604W        W80133  37.459  24.329  11.674
 8605W        W80134  39.779  18.630   1.211
 8606W        W80135  15.093  22.947   1.684
 8607W        W80136   8.230  21.041  11.394
 8608W        W80137  29.894  11.296   0.735
 8609W        W80138  39.861  20.739   4.169
 8610W        W80139   2.750  38.675   1.870
 8611W        W80140   8.470  27.419  10.321
 8612W        W80141  33.394   0.565   4.621
 8613W        W80142  32.363  17.493   2.106
 8614W        W80143  29.255   4.356   4.068
 8615W        W80144  34.822  22.191   1.287
 8616W        W80145   6.971  16.293   5.280
 8617W        W80146  25.817  26.462  11.935
 8618W        W80147  26.340  19.420   0.192
 8619W        W80148  11.269   9.712  12.071
 8620W        W80149   8.352  21.583  13.895
 8621W        W80150   9.290  25.365   5.141
 8622W        W80151   7.492  31.022  11.039
 8623W        W80152  15.027  13.912   2.057
 8624W        W80153  39.402  10.395  14.335
 8625W        W80154  29.572  44.297  13.490
 8626W        W80155  14.638  19.205  13.888
 8627W        W80156   6.119  14.572   4.156
 8628W        W80157  17.982   6.002  13.813
 8629W        W80158  29.060  32.589   0.787
 8630W        W80159   6.690  44.184   2.649
 8631W        W80160   4.204   9.388  12.657
 8632W        W80161   4.404  11.332   4.571
 8633W        W80162  12.746  22.017   2.837
 8634W        W80163   7.796  14.382   4.368
 8635W        W80164   9.309  15.741   1.432
 8636W        W80165  10.726  23.566  13.854
 8637W        W80166  18.555  13.977   5.002
 8638W        W80167  32.889  41.439  12.537
 8639W        W80168   0.036   8.919   1.808
 8640W        W80169  40.619   7.854  13.403
 8641W        W80170  24.661   3.428  11.971
 8642W        W80171  41.782  28.612   4.368
 8643W        W80172   1.174  35.024  14.028
 8644W        W80173  17.339  20.979  11.472
 8645W        W80174  37.385  19.318   0.775
 8646W        W80175  35.703  33.748   2.727
 8647W        W80176  10.163   9.576   1.867
 8648W        W80177  30.854  38.945   2.915
 8649W        W80178   8.286  43.729  14.957
 8650W        W80179  20.280   0.153  14.448
 8651W        W80180  39.474  34.148   0.919
 8652W        W80181  12.594   3.480   4.092
 8653W        W80182  12.679  44.947  11.080
 8654W        W80183  17.153  30.947   0.935
 8655W        W80184   9.143  20.248   3.347
 8656W        W80185  24.966   6.277  10.759
 8657W        W80186  33.707  11.469  12.002
 8658W        W80187  21.047  12.734  11.404
 8659W        W80188  11.979   9.306  13.983
 8660W        W80189  36.034  16.180  12.381
 8661W        W80190  41.514  26.386   0.401
 8662W        W80191  42.241  16.921  13.496
 8663W        W80192  30.327  33.122  14.741
 8664W        W80193  29.907   4.105   1.107
 8665W        W80194  25.029  15.705   0.965
 8666W        W80195  30.418   8.282  14.440
 8667W        W80196  36.426  23.848  13.592
 8668W        W80197  31.459  17.751  11.287
 8669W        W80198  11.179   0.049   1.714
 8670W        W80199  30.228  35.054  10.261
 8671W        W80200  39.228  17.773   2.422
 8672W        W80201  16.158   3.240   0.781
 8673W        W80202  10.404  30.916   1.249
 8674W        W80203   7.150  14.696   4.191
 8675W        W80204   8.877  17.751  14.002
 8676W        W80205  20.317  31.954   3.632
 8677W        W80206  41.952  19.236   4.572
 8678W        W80207  26.623  36.216  11.110
 8679W        W80208  43.536  35.906  11.494
 8680W        W80209   7.080  44.414  13.047
 8681W        W80210  27.598  11.182  14.475
 8682W        W80211   7.864  24.942   1.359
 8683W        W80212  40.414  22.808   2.119
 8684W        W80213  27.923  26.036   4.267
 8685W        W80214  40.438   0.095   3.409
 8686W        W80215   6.678   6.369   4.024
 8687W        W80216  12.243   3.519   3.712
 8688W        W80217   0.214  17.328   2.649
 8689W        W80218  44.437   1.685  14.816
 8690W        W80219  25.128  17.319  13.481
 8691W        W80220  22.021   9.316  13.055
 8692W        W80221  37.419   4.872   1.793
 8693W        W80222  37.460   6.087   3.899
 8694W        W80223  16.654  10.041  13.082
 8695W        W80224  41.595   2.860  11.072
 8696W        W80225  29.628  35.588   2.770
 8697W        W80226  32.965  36.387   4.068
 8698W        W80227   7.703   7.774  12.156
 8699W        W80228  19.742   6.607   3.738
 8700W        W80229   3.842  44.803  12.655
 8701W        W80230  38.284   3.490  13.838
 8702W        W80231  27.956  26.422  12.681
 8703W        W80232  36.143  28.498   4.438
 8704W        W80233  38.624  15.568  11.543
 8705W        W80234  42.887   9.323  11.141
 8706W        W80235  34.003  20.083   0.181
 8707W        W80236  39.716  20.578  10.772
 8708W        W80237  15.656   5.677  12.256
 8709W        W80238   4.451   8.229  11.277
 8710W        W80239  24.463  17.459  12.916
 8711W        W80240  19.112   7.229   1.286
 8712W        W80241  24.010  43.360  11.607
 8713W        W80242  32.730  28.430  13.782
 8714W        W80243  30.646  25.948   0.046
 8715W        W80244  39.194   0.822   2.230
 8716W        W80245  10.688  37.993   0.478
 8717W        W80246  24.758   5.108  12.985
 8718W        W80247  22.640  32.681  14.192
 8719W        W80248  44.820  42.489  14.350
 8720W        W80249  42.807  21.832   2.761
 8721W        W80250  19.271   5.057  11.626
 8722W        W80251  11.141  24.636   4.243
 8723W        W80252  21.435  21.736   3.121
 8724W        W80253  24.474  18.429   2.112
 8725W        W80254   8.846  28.032  14.039
 8726W        W80255  17.324  40.912   3.837
 8727W        W80256  28.575  35.467  14.308
 8728W        W80257  32.586  23.498  11.005
 8729W        W80258  44.716  10.719  12.879
 8730W        W80259  18.985   6.445   2.093
 8731W        W80260  17.647   3.498  11.510
 8732W        W80261  31.851   9.325   1.895
 8733W        W80262   0.183  43.356  14.320
 8734W        W80263  37.460   7.312  10.656
 8735W        W80264   8.944  32.100   2.731
 8736W        W80265  12.848  12.895   4.358
 8737W        W80266   8.798  23.787   0.428
 8738W        W80267  25.767  23.575  11.999
 8739W        W80268  18.286  34.715  13.211
 8740W        W80269  28.993  18.494  12.203
 8741W        W80270  38.868  26.727   1.137
 8742W        W80271  10.053   2.794  13.775
 8743W        W80272   1.208  34.440   3.289
 8744W        W80273  12.105  44.008  11.148
 8745W        W80274  29.007  21.214   3.163
 8746W        W80275   6.393  13.631  11.731
 8747W        W80276   8.457  15.299   1.668
 8748W        W80277   9.507   1.075   9.747
 8749W        W80278  16.043  38.810   3.229
 8750W        W80279   0.450   3.755   4.579
 8751W        W80280  43.939  24.918   2.199
 8752W        W80281  24.794   9.543  11.975
 8753W        W80282   4.746  33.263   2.831
 8754W        W80283  12.224  14.938   4.069
 8755W        W80284   1.352   9.365   1.782
 8756W        W80285  21.687   7.246   4.536
 8757W        W80286   1.737  10.803  11.325
 8758W        W80287  14.789   5.692   1.803
 8759W        W80288  26.597  44.900  14.898
 8760W        W80289  44.779  42.152  14.748
 8761W        W80290  12.456  25.427   1.444
 8762W        W80291  33.202  37.013  13.510
 8763W        W80292  29.764  38.815   1.904
 8764W        W80293  33.325   1.106  12.025
 8765W        W80294  23.165  38.558  12.455
 8766W        W80295   5.408  19.630   1.650
 8767W        W80296  25.503  12.351  11.667
 8768W        W80297   5.254  35.999  14.300
 8769W        W80298   1.659  30.697   1.966
 8770W        W80299  41.878  20.503  10.624
 8771W        W80300  26.980   8.684  14.752
 8772W        W80301  19.089  37.082  14.627
 8773W        W80302  19.851   3.791   3.133
 8774W        W80303  43.315  18.030   4.601
 8775W        W80304  19.568  20.105   4.636
 8776W        W80305   2.916  13.855  10.796
 8777W        W80306   2.478  32.869   1.186
 8778W        W80307  30.733  39.882  10.810
 8779W        W80308  22.923   2.465   1.779
 8780W        W80309  12.820  15.740   1.977
 8781W        W80310  15.338  17.938  12.693
 8782W        W80311  11.036  16.099   3.908
 8783W        W80312  32.617  15.103   2.794
 8784W        W80313  39.922  44.325   2.396
 8785W        W80314   8.494   3.414   0.832
 8786W        W80315  31.038   2.810   1.901
 8787W        W80316   7.793  24.377   4.515
 8788W        W80317  41.325  40.042  13.869
 8789W        W80318  24.105  10.525   4.936
 8790W        W80319  44.234  27.054  13.110
 8791W        W80320  20.607  28.970  12.478
 8792W        W80321  18.802  26.565   0.354
 8793W        W80322  39.951  15.780  11.844
 8794W        W80323  43.795  31.876   1.872
 8795W        W80324  33.084   4.151   3.751
 8796W        W80325  11.212  10.687  11.805
 8797W        W80326  31.004  17.637  11.515
 8798W        W80327  36.557  34.437   4.247
 8799W        W80328  39.379  31.917   2.177
 8800W        W80329  37.935   8.256   3.688
 8801W        W80330  31.805  37.414  10.426
 8802W        W80331  28.182  34.054  11.774
 8803W        W80332   6.484   3.404   0.194
 8804W        W80333   3.784  29.161   3.010
 8805W        W80334  20.173  32.812   1.849
 8806W        W80335  37.070  13.709  11.980
 8807W        W80336   1.934  27.483  14.921
 8808W        W80337  27.863  11.584   5.130
 8809W        W80338  35.360  18.092   0.915
 8810W        W80339   4.745  35.071   3.741
 8811W        W80340  17.737  17.465   0.073
 8812W        W80341  42.675   9.943  13.074
 8813W        W80342  37.970  26.060   2.422
 8814W        W80343   4.311  23.251  14.534
 8815W        W80344  18.202   1.908   4.625
 8816W        W80345  37.450  16.134   3.632
 8817W        W80346  24.261  17.070  14.294
 8818W        W80347  31.405  12.677  10.751
 8819W        W80348   9.931  19.701  13.086
 8820W        W80349  15.522   0.982   4.588
 8821W        W80350  40.781   3.887   1.788
 8822W        W80351  43.233  32.011  12.935
 8823W        W80352  29.986   1.688   1.856
 8824W        W80353  30.364   5.136   2.728
 8825W        W80354  12.258   9.760   1.017
 8826W        W80355  27.116   8.137   2.805
 8827W        W80356  16.780  40.977   0.346
 8828W        W80357  35.251   2.371  11.160
 8829W        W80358  11.785  44.028   0.503
 8830W        W80359  24.727   6.861   4.990
 8831W        W80360  24.578  12.682   2.118
 8832W        W80361   2.291   2.707   2.923
 8833W        W80362  31.466  27.136  12.378
 8834W        W80363  22.340  18.056   4.171
 8835W        W80364  17.284  29.213  11.598
 8836W        W80365  24.988  31.004   3.243
 8837W        W80366   5.365  34.450   4.946
 8838W        W80367   0.641  38.989   1.325
 8839W        W80368  17.567  29.397   0.630
 8840W        W80369   6.169  37.555  10.876
 8841W        W80370   8.847   3.900   3.167
 8842W        W80371  18.370  33.890  13.375
 8843W        W80372  41.445  10.006   2.206
 8844W        W80373  23.266   9.210   0.368
 8845W        W80374  30.787  22.585  10.616
 8846W        W80375   9.282  28.014  11.467
 8847W        W80376  12.690  29.169   2.050
 8848W        W80377  16.279   5.262   4.319
 8849W        W80378  39.800  22.833   3.175
 8850W        W80379   7.105  25.148   2.249
 8851W        W80380   0.411  39.279   2.141
 8852W        W80381  19.103   2.440  14.436
 8853W        W80382  17.335  36.426   1.691
 8854W        W80383   1.354  10.285  11.972
 8855W        W80384  21.283  41.893   4.140
 8856W        W80385   6.936  33.922   0.382
 8857W        W80386   8.112  32.818  12.583
 8858W        W80387  12.753   7.902   1.325
 8859W        W80388   7.182   6.722  11.532
 8860W        W80389   6.756  17.371  13.768
 8861W        W80390   8.367  23.524  14.690
 8862W        W80391  16.802  16.937  11.124
 8863W        W80392   9.555   1.875   0.283
 8864W        W80393  31.126  38.340   4.942
 8865W        W80394  32.037   2.949  14.032
 8866W        W80395  20.115  35.573  10.786
 8867W        W80396  40.255  18.799   2.784
 8868W        W80397  27.424  35.192   2.723
 8869W        W80398  15.140   2.485   0.346
 8870W        W80399  33.445  36.050  11.539
 8871W        W80400   4.955  15.794  14.812
 8872W        W80401   4.846  24.494   3.176
 8873W        W80402   4.515  44.907   3.606
 8874W        W80403  39.293   6.210  14.363
 8875W        W80404  31.198   4.950   3.161
 8876W        W80405   7.725  16.574  13.938
 8877W        W80406  14.257  11.112  11.136
 8878W        W80407  20.124   0.538   2.099
 8879W        W80408  31.047  14.663  14.056
 8880W        W80409   3.428  32.994   3.727
 8881W        W80410  35.832  23.038  14.509
 8882W        W80411   6.700  44.130  14.275
 8883W        W80412  32.015  10.444  12.042
 8884W        W80413   7.398  17.067   2.265
 8885W        W80414  24.457  27.989  10.576
 8886W        W80415  13.666   2.557   3.895
 8887W        W80416   7.328  36.668  11.215
 8888W        W80417  25.461   6.737  13.246
 8889W        W80418   8.917  14.222  11.467
 8890W        W80419  24.942  27.027   3.732
 8891W        W80420  40.136  31.407  12.469
 8892W        W80421  16.067  10.961  11.438
 8893W        W80422  35.105  18.234  14.478
 8894W        W80423  28.065   3.981   3.138
 8895W        W80424  15.646  24.468  14.387
 8896W        W80425  30.600  16.984  10.034
 8897W        W80426   8.702  31.411  14.909
 8898W        W80427  28.350   6.668  10.658
 8899W        W80428  13.607  18.285   4.657
 8900W        W80429   2.971  41.926  12.942
 8901W        W80430  28.627  17.808   2.735
 8902W        W80431  21.491  23.387  11.517
 8903W        W80432  13.541  20.274   3.093
 8904W        W80433  40.712   7.926   2.622
 8905W        W80434  10.907  25.615   2.214
 8906W        W80435  22.736  13.321   0.999
 8907W        W80436  14.831  13.098   0.074
 8908W        W80437  32.999  20.899  12.262
 8909W        W80438   9.232  35.551   0.353
 8910W        W80439   9.055  20.325   0.984
 8911W        W80440  30.889   7.175   3.700
 8912W        W80441  24.489  18.736   1.697
 8913W        W80442  39.940  30.658  14.990
 8914W        W80443   8.360   1.525   4.312
 8915W        W80444  14.283  31.611   0.894
 8916W        W80445   8.100  35.915  11.555
 8917W        W80446   5.274  33.450  10.306
 8918W        W80447  26.661  20.275   0.328
 8919W        W80448  15.106   2.316   3.215
 8920W        W80449  14.298  11.349  11.574
 8921W        W80450  27.377  19.093   1.473
 8922W        W80451   1.266  26.620  11.061
 8923W        W80452   5.964  35.341  14.854
 8924W        W80453  31.193   3.609  12.608
 8925W        W80454  29.783  16.152   3.128
 8926W        W80455  20.545   3.848   1.745
 8927W        W80456   8.934  35.398  14.379
 8928W        W80457  27.644  29.934   1.698
 8929W        W80458   2.697  37.073   2.696
 8930W        W80459   8.167  23.435   2.325
 8931W        W80460  29.010   1.038  10.978
 8932W        W80461  41.761  32.700   0.720
 8933W        W80462   6.030  15.533  12.045
 8934W        W80463   4.922  10.267  12.374
 8935W        W80464  28.609  13.596  12.823
 8936W        W80465   4.773  25.157  13.421
 8937W        W80466  17.055   5.587  10.249
 8938W        W80467  13.497  29.624  14.396
 8939W        W80468  13.889  28.029   2.443
 8940W        W80469  10.476   7.891  11.021
 8941W        W80470  33.428   9.045   4.236
 8942W        W80471   3.434  22.688  14.305
 8943W        W80472  32.079  35.384   4.626
 8944W        W80473  33.016   3.258   5.113
 8945W        W80474  20.098  18.186  12.053
 8946W        W80475  39.292  34.476  11.473
 8947W        W80476  17.606   5.177  11.293
 8948W        W80477  40.510  38.078   3.533
 8949W        W80478  34.549   6.395   2.475
 8950W        W80479  19.781   2.332  12.500
 8951W        W80480  31.326  10.662  13.023
 8952W        W80481   8.280  20.125  11.869
 8953W        W80482  18.188   1.330  10.369
 8954W        W80483  40.400  19.247  11.437
 8955W        W80484   2.378  34.834  11.119
 8956W        W80485  16.085  32.467   2.869
 8957W        W80486   3.737   7.606   3.299
 8958W        W80487   3.716  35.780   9.618
 8959W        W80488  40.306  14.004   2.044
 8960W        W80489   5.275   8.195   4.266
 8961W        W80490  18.106  44.269   3.615
 8962W        W80491  29.725  31.520  10.747
 8963W        W80492  36.125  16.061  14.880
 8964W        W80493  17.525  18.753   0.432
 8965W        W80494  22.971  18.496   2.588
 8966W        W80495  31.935  44.010   1.713
 8967W        W80496   0.927  15.459   3.331
 8968W        W80497   7.168  30.668  12.266
 8969W        W80498  40.235  35.012  14.495
 8970W        W80499  19.176  35.674  14.866
 8971W        W80500  16.836  36.048  11.724
 8972W        W80501   2.481  11.152   3.180
 8973W        W80502   0.179  10.876   1.742
 8974W        W80503  39.641  36.254  13.514
 8975W        W80504  27.151  21.604  14.081
 8976W        W80505  22.467  20.402  14.503
 8977W        W80506  33.926  44.886   1.909
 8978W        W80507  23.526  38.745   0.813
 8979W        W80508  43.155  39.599  11.002
 8980W        W80509  13.234  15.646   0.268
 8981W        W80510   0.284  30.289   3.127
 8982W        W80511  13.545  41.884   1.753
 8983W        W80512  10.280  25.457  10.435
 8984W        W80513  36.797   5.957  13.367
 8985W        W80514  10.888  27.611   1.338
 8986W        W80515  35.887   4.415   1.457
 8987W        W80516  19.478  24.003  14.526
 8988W        W80517  23.036  38.541   0.899
 8989W        W80518  15.135   8.841   0.260
 8990W        W80519   6.315  44.749   1.905
 8991W        W80520  41.853  14.918   2.932
 8992W        W80521  18.512  13.017   4.147
 8993W        W80522   8.685  14.216   3.670
 8994W        W80523  11.849  19.555  11.969
 8995W        W80524   6.317  14.286  14.749
 8996W        W80525  37.080  20.531  13.342
 8997W        W80526  43.334  15.031   3.567
 8998W        W80527  33.998  22.312  12.470
 8999W        W80528  17.071  42.304   3.573
 9000W        W80529  24.001  28.411   3.285
 9001W        W80530  12.612  26.545  13.348
 9002W        W80531  14.848  16.156   4.161
 9003W        W80532  44.035  26.082   1.244
 9004W        W80533   4.586   5.878   1.252
 9005W        W80534  12.593  43.877  11.075
 9006W        W80535  37.849  19.837   0.438
 9007W        W80536  42.591  39.421  14.985
 9008W        W80537  11.846  41.228  14.508
 9009W        W80538  25.581  34.618  10.174
 9010W        W80539  11.178  40.720  13.525
 9011W        W80540   5.643   6.381   3.363
 9012W        W80541   1.321   3.249   0.364
 9013W        W80542  18.002   0.729   1.802
 9014W        W80543  27.804   9.467   0.743
 9015W        W80544  35.462  43.922   3.347
 9016W        W80545  18.129  38.890   1.384
 9017W        W80546  16.493  40.559  14.571
 9018W        W80547  35.796   5.384  14.983
 9019W        W80548  23.040   4.218  12.385
 9020W        W80549  24.433  39.363  13.957
 9021W        W80550  10.864  31.368   3.865
 9022W        W80551  22.569   0.889   3.017
 9023W        W80552   0.548  23.789   1.278
 9024W        W80553  30.929  18.273   4.112
 9025W        W80554  41.753  22.609  11.556
 9026W        W80555  27.726  39.785   0.345
 9027W        W80556  44.946  39.761   4.638
 9028W        W80557  14.376  30.082  11.617
 9029W        W80558  32.363  26.272  12.457
 9030W        W80559   2.190  14.804   2.751
 9031W        W80560  30.025  38.512   0.965
 9032W        W80561  31.968  39.450  14.151
 9033W        W80562  37.514  19.229   4.559
 9034W        W80563  41.086  12.192   2.138
 9035W        W80564  16.681  37.673   2.775
 9036W        W80565  12.880  20.581  11.229
 9037W        W80566  10.166  11.232  11.435
 9038W        W80567  18.252  14.778  11.451
 9039W        W80568  42.562  34.907  14.804
 9040W        W80569  43.852  17.638   4.987
 9041W        W80570  23.468   6.059  14.928
 9042W        W80571  31.913   5.899   1.307
 9043W        W80572  31.572   6.516  10.811
 9044W        W80573  37.894  11.378   4.205
 9045W        W80574  40.840  25.854   0.416
 9046W        W80575  28.201  30.212  14.053
 9047W        W80576  21.837  37.033  10.223
 9048W        W80577  33.806  36.396  14.766
 9049W        W80578  24.739  24.678   2.655
 9050W        W80579   9.160  25.472  13.824
 9051W        W80580  24.041  42.921   2.803
 9052W        W80581  42.742   9.824   1.892
 9053W        W80582  21.412   9.228   3.285
 9054W        W80583  21.396   2.823  10.428
 9055W        W80584  22.949  23.707   3.617
 9056W        W80585   1.026   0.480  11.972
 9057W        W80586  19.647  15.009   3.254
 9058W        W80587  11.136   2.784  11.567
 9059W        W80588   6.836   7.907  12.070
 9060W        W80589  35.879  25.358  14.637
 9061W        W80590   0.570  21.690  11.088
 9062W        W80591  11.053   2.697  12.924
 9063W        W80592  17.587  14.808   4.487
 9064W        W80593  16.178  28.651   0.365
 9065W        W80594  32.465  10.435  10.640
 9066W        W80595  41.474  30.959   4.569
 9067W        W80596   3.066   5.892   1.338
 9068W        W80597   3.717   7.240  10.003
 9069W        W80598  44.429  20.234  14.107
 9070W        W80599  24.713   2.666  11.692
 9071W        W80600   9.840  26.657  12.884
 9072W        W80601   7.372  37.842  12.652
 9073W        W80602  41.478  17.243  13.005
 9074W        W80603  14.557  18.627   2.906
 9075W        W80604  23.236   5.385   3.995
 9076W        W80605  15.661  14.927  11.042
 9077W        W80606  16.146  33.081   4.626
 9078W        W80607  33.517   0.896   5.037
 9079W        W80608  22.538  43.829  11.619
 9080W        W80609  11.819  34.829   2.199
 9081W        W80610   9.679  21.963   4.097
 9082W        W80611  35.175   6.416   3.834
 9083W        W80612  37.053  28.823  14.418
 9084W        W80613  29.663   0.387  13.120
 9085W        W80614  42.209  37.136   2.702
 9086W        W80615  34.534  22.440   3.156
 9087W        W80616   2.914  28.695   1.319
 9088W        W80617   0.325  36.014   4.568
 9089W        W80618  24.740   6.783  11.469
 9090W        W80619  11.075   9.664  12.958
 9091W        W80620  15.667  24.628  12.949
 9092W        W80621  30.320  42.486   3.686
 9093W        W80622  16.296  36.588  11.145
 9094W        W80623  38.081  38.086   1.500
 9095W        W80624   0.398  13.561  14.822
 9096W        W80625   0.730   2.167  13.054
 9097W        W80626  35.110   9.252   0.909
 9098W        W80627  24.911  21.136   3.839
 9099W        W80628   0.407   1.848  10.999
 9100W        W80629  18.095  16.318   3.288
 9101W        W80630   7.742  30.721  11.603
 9102W        W80631  35.047   7.600   3.324
 9103W        W80632  44.734   9.219  11.609
 9104W        W80633  37.336   7.233  11.477
 9105W        W80634  12.716  40.361  14.838
 9106W        W80635  43.968  39.374   4.226
 9107W        W80636   7.981   1.306  11.401
 9108W        W80637  10.826  18.707   0.320
 9109W        W80638  36.013   7.797  11.538
 9110W        W80639  42.025  30.191   0.505
 9111W        W80640  17.036  15.714  12.397
 9112W        W80641  40.793  25.738   4.022
 9113W        W80642  35.030  32.227  11.790
 9114W        W80643  29.785  23.683  14.786
 9115W        W80644  42.505  24.058   2.837
 9116W        W80645   8.984  18.338  14.895
 9117W        W80646   7.129  20.612  11.936
 9118W        W80647  27.864  27.018   3.095
 9119W        W80648   8.822  15.751  10.244
 9120W        W80649   9.087   3.100  12.925
 9121W        W80650  42.969  17.707   1.028
 9122W        W80651  16.494  41.990  12.431
 9123W        W80652  34.587   0.885   3.538
 9124W        W80653   9.558   0.522  13.851
 9125W        W80654  41.331  35.496  14.913
 9126W        W80655   1.960  24.144  12.135
 9127W        W80656  40.049  36.441   3.130
 9128W        W80657  17.398  10.832  12.081
 9129W        W80658  29.044  31.865  14.335
 9130W        W80659  34.904  11.557  11.110
 9131W        W80660  31.051  17.629  10.987
 9132W        W80661  42.758  38.331  13.307
 9133W        W80662   5.276  10.367  10.253
 9134W        W80663  25.123  37.141  13.811
 9135W        W80664  14.722  29.396  11.399
 9136W        W80665  18.465  14.183   2.387
 9137W        W80666   3.744  37.098   1.438
 9138W        W80667  31.265  20.088  11.954
 9139W        W80668  13.453  12.176   0.520
 9140W        W80669  11.747   4.700   0.297
 9141W        W80670  17.220  31.200  14.411
 9142W        W80671  14.886  30.252  13.292
 9143W        W80672  25.540   0.398   0.864
 9144W        W80673  31.877  41.814  13.757
 9145W        W80674  41.038  21.362  11.139
 9146W        W80675  36.489  27.405  12.461
 9147W        W80676  13.621  36.839   4.506
 9148W        W80677   1.245  18.232  12.488
 9149W        W80678  12.185  37.850   0.358
 9150W        W80679  42.243   9.303  14.251
 9151W        W80680  19.633   0.776   4.983
 9152W        W80681   8.188   3.531   3.587
 9153W        W80682  41.293  25.991  12.351
 9154W        W80683  27.101   3.063  12.962
 9155W        W80684  28.194   7.355   3.018
 9156W        W80685  11.771  22.191  13.867
 9157W        W80686  13.497  30.610   2.620
 9158W        W80687  11.582   2.778   0.350
 9159W        W80688  15.528   1.234   1.143
 9160W        W80689  15.704   0.223  12.042
 9161W        W80690  43.935  17.169   3.150
 9162W        W80691  29.571  41.255   3.683
 9163W        W80692  32.995   0.383  13.881
 9164W        W80693  16.608  21.827   5.617
 9165W        W80694  13.520  17.777  10.777
 9166W        W80695  29.701  42.677  11.245
 9167W        W80696  15.190   6.312   0.872
 9168W        W80697  20.546  20.617   2.727
 9169W        W80698  10.475  14.414   0.989
 9170W        W80699  23.445  36.000   2.594
 9171W        W80700  21.697   3.858   3.897
 9172W        W80701  27.002  28.034  12.146
 9173W        W80702  33.339  12.675   1.875
 9174W        W80703   7.852  30.974  14.304
 9175W        W80704   4.240  35.584  13.093
 9176W        W80705  22.119   5.316  11.358
 9177W        W80706  18.341  26.001  14.747
 9178W        W80707   3.285  11.318  12.224
 9179W        W80708   5.957  24.541  13.271
 9180W        W80709  31.151   3.669  13.941
 9181W        W80710  16.641  10.398   5.113
 9182W        W80711  31.764  36.393  12.334
 9183W        W80712  43.697  41.875   4.163
 9184W        W80713   6.060  43.708   0.362
 9185W        W80714  21.644   5.396  10.973
 9186W        W80715  24.356  31.303   1.902
 9187W        W80716  41.967  15.694  10.578
 9188W        W80717  36.784  42.140  11.763
 9189W        W80718  41.501   7.329  14.099
 9190W        W80719  30.992  42.952  13.391
 9191W        W80720  30.493  10.757   0.482
 9192W        W80721  31.648   7.700   1.407
 9193W        W80722  32.597  31.128  10.373
 9194W        W80723  36.329   0.319   0.795
 9195W        W80724  39.060  28.878  11.137
 9196W        W80725  12.889  24.214   2.288
 9197W        W80726  19.379  29.080  11.840
 9198W        W80727  18.637  23.876   1.471
 9199W        W80728  12.330  31.496   2.152
 9200W        W80729  29.891  25.804   0.392
 9201W        W80730  29.682   2.606  13.062
 9202W        W80731   7.766  21.047   2.396
 9203W        W80732  23.332   8.423  14.594
 9204W        W80733  24.714  37.788  11.164
 9205W        W80734   1.970  23.172  10.879
 9206W        W80735  16.882  23.843  14.984
 9207W        W80736   3.758  21.044   2.142
 9208W        W80737  39.690  10.245  10.980
 9209W        W80738  29.648   5.027  11.904
 9210W        W80739   4.784   3.540  13.083
 9211W        W80740  14.184   6.262  12.462
 9212W        W80741  26.554  24.278   2.868
 9213W        W80742  15.099  14.268  13.431
 9214W        W80743  34.518  42.031  13.139
 9215W        W80744   6.270   7.661  14.974
 9216W        W80745  40.012  17.384  11.749
 9217W        W80746  16.110   1.843   0.885
 9218W        W80747   5.682   9.348   1.993
 9219W        W80748   9.998   2.171   3.466
 9220W        W80749   1.047   0.856  11.565
 9221W        W80750  12.757  23.769  12.520
 9222W        W80751  22.010   3.376   0.192
 9223W        W80752  24.875  36.434   2.853
 9224W        W80753   3.984  39.448  11.524
 9225W        W80754  33.625  36.880   1.403
 9226W        W80755  24.202  21.675  13.627
 9227W        W80756  43.540   1.179   3.435
 9228W        W80757  12.887  13.425   4.449
 9229W        W80758  31.536   9.392  10.920
 9230W        W80759  26.636  38.783   3.604
 9231W        W80760  12.534  38.993  12.266
 9232W        W80761  38.850  15.801   2.245
 9233W        W80762  39.275   0.837  14.156
 9234W        W80763  28.915  11.902   3.333
 9235W        W80764  10.572  14.574  14.400
 9236W        W80765  19.158  20.664  11.482
 9237W        W80766   5.957   1.658  13.588
 9238W        W80767  17.540  22.739   0.281
 9239W        W80768  19.070  44.745  12.157
 9240W        W80769  12.157  24.440  12.422
 9241W        W80770  26.539  15.542  13.034
 9242W        W80771  25.516  15.309   0.436
 9243W        W80772  30.045  44.307  12.761
 9244W        W80773   7.275  16.821   0.521
 9245W        W80774  28.921   5.804   1.321
 9246W        W80775  23.612  38.631  10.572
 9247W        W80776  42.949  37.542   1.835
 9248W        W80777  11.602  25.007  12.081
 9249W        W80778   8.841   0.994   3.089
 9250W        W80779  13.851  21.307   3.690
 9251W        W80780  25.223  11.232  14.297
 9252W        W80781   9.692  40.202  11.052
 9253W        W80782  23.921  23.502   0.405
 9254W        W80783  19.657   5.962   4.562
 9255W        W80784  35.649   4.906  14.811
 9256W        W80785  35.162  44.464   4.154
 9257W        W80786  36.388   7.338  14.302
 9258W        W80787  19.231  37.733   4.584
 9259W        W80788   7.911   3.134  10.690
 9260W        W80789  33.110   5.901   1.971
 9261W        W80790   7.907  24.093  13.533
 9262W        W80791   8.144   2.614   3.384
 9263W        W80792  12.904  32.321  11.478
 9264W        W80793  15.628  34.868  14.965
 9265W        W80794   9.415  35.503   1.973
 9266W        W80795  13.023  15.731  13.112
 9267W        W80796  26.919  27.511   1.844
 9268W        W80797  27.597   8.836   4.923
 9269W        W80798  33.348   9.284  13.751
 9270W        W80799  28.101   6.192  10.604
 9271W        W80800  17.778  26.311   4.074
 9272W        W80801   7.330  24.074  11.068
 9273W        W80802  38.040  14.657  13.446
 9274W        W80803   5.819   3.980   0.478
 9275W        W80804  41.769  34.988   0.288
 9276W        W80805  31.801   4.655  14.848
 9277W        W80806  44.881  36.170  11.656
 9278W        W80807  16.215   0.829  11.502
 9279W        W80808  25.842   9.432  12.524
 9280W        W80809  30.887  33.870   2.211
 9281W        W80810  21.793  24.669  11.611
 9282W        W80811  39.825  23.220  13.040
 9283W        W80812  14.358   0.751  14.445
 9284W        W80813  36.976  30.927   1.376
 9285W        W80814  19.783  19.071  14.411
 9286W        W80815  19.674  10.140   2.346
 9287W        W80816  30.951   8.321   0.541
 9288W        W80817  41.597  39.112  13.065
 9289W        W80818  20.210  35.690  12.322
 9290W        W80819  19.392   4.192   1.898
 9291W        W80820   7.961   1.463  10.383
 9292W        W80821  14.248  29.291   1.378
 9293W        W80822  44.761  40.237   1.744
 9294W        W80823  20.805   6.196   0.487
 9295W        W80824  24.996  20.703   0.738
 9296W        W80825  29.612  22.148   3.578
 9297W        W80826   9.481   7.671   4.574
 9298W        W80827  26.609  23.173   3.772
 9299W        W80828  18.136  27.619  14.216
 9300W        W80829  10.867  29.113   4.470
 9301W        W80830  27.568   3.428   4.336
 9302W        W80831  38.433  18.879  14.911
 9303W        W80832  13.119  40.267  13.350
 9304W        W80833  13.377   3.943  12.584
 9305W        W80834  17.506  33.849   2.907
 9306W        W80835  28.087  40.300   3.182
 9307W        W80836   3.320  15.722   1.481
 9308W        W80837  15.532   0.843  10.420
 9309W        W80838   1.233   2.745   0.233
 9310W        W80839  32.818   5.325   4.511
 9311W        W80840  41.639  22.619   0.806
 9312W        W80841  28.037  30.386   0.929
 9313W        W80842   2.987  11.511   0.895
 9314W        W80843  14.017  39.520  12.074
 9315W        W80844  21.978  16.511  12.083
 9316W        W80845  30.307  18.517  12.563
 9317W        W80846   0.979  24.725   2.770
 9318W        W80847  44.524  23.120   0.823
 9319W        W80848  18.255  14.269   4.314
 9320W        W80849  37.400  31.386  11.589
 9321W        W80850  26.610  17.322   0.962
 9322W        W80851  14.793  41.983   1.711
 9323W        W80852  43.899  18.317  12.590
 9324W        W80853  20.765  37.912   5.094
 9325W        W80854  13.243  10.191  10.651
 9326W        W80855  11.863   0.862  14.872
 9327W        W80856  39.000  26.117   4.575
 9328W        W80857  18.578   6.430   4.527
 9329W        W80858  18.303  41.021  11.564
 9330W        W80859  37.531  24.212   3.717
 9331W        W80860  39.798   4.332   2.831
 9332W        W80861  33.038  32.877  14.382
 9333W        W80862  24.497  39.999  14.536
 9334W        W80863  21.592  36.904   3.642
 9335W        W80864  31.859  19.519   0.487
 9336W        W80865  13.964  14.830  13.272
 9337W        W80866  34.596  39.989   3.601
 9338W        W80867  44.780  35.004   2.890
 9339W        W80868  37.559   2.888  13.980
 9340W        W80869  42.308  12.343   2.415
 9341W        W80870  12.492  13.570   3.595
 9342W        W80871  10.835  19.822   3.659
 9343W        W80872   8.866  44.437  11.599
 9344W        W80873  24.524  36.860   2.136
 9345W        W80874  22.744  20.590   2.826
 9346W        W80875   1.383  13.657   2.247
 9347W        W80876  18.292   0.850  11.995
 9348W        W80877  24.378  43.325   2.595
 9349W        W80878  36.311   3.119   4.548
 9350W        W80879  18.782  26.107   0.101
 9351W        W80880  32.565  17.033   4.942
 9352W        W80881   5.143  27.435  13.788
 9353W        W80882  23.544  16.330  14.391
 9354W        W80883   0.866   3.716   2.253
 9355W        W80884  11.163  21.558  12.505
 9356W        W80885   3.747  15.152   0.770
 9357W        W80886  33.243  14.255  11.268
 9358W        W80887  10.829  13.804   2.422
 9359W        W80888  19.625  30.964   3.095
 9360W        W80889  23.116  24.062  12.442
 9361W        W80890  23.110  12.239   0.001
 9362W        W80891  10.603   5.377  12.972
 9363W        W80892  26.050  42.410   1.133
 9364W        W80893  19.512  32.155  11.957
 9365W        W80894   7.949   9.789  10.619
 9366W        W80895  26.528  39.818  11.774
 9367W        W80896  34.350  39.381  14.825
 9368W        W80897  17.146  32.755  12.123
 9369W        W80898  13.092  30.668  14.524
 9370W        W80899  38.071  34.790   4.027
 9371W        W80900   5.769   6.698   4.256
 9372W        W80901   6.425  13.646  12.489
 9373W        W80902  10.354   2.671  13.350
 9374W        W80903  38.182  23.963  13.959
 9375W        W80904   5.548  14.235   0.402
 9376W        W80905  25.443  24.671   0.410
 9377W        W80906  23.786  30.437   0.032
 9378W        W80907  11.098  25.127  12.997
 9379W        W80908  19.213  15.293   1.485
 9380W        W80909  44.987  10.448   3.374
 9381W        W80910  34.865   3.422  12.496
 9382W        W80911  11.684  40.177   5.208
 9383W        W80912   7.883  16.715  14.965
 9384W        W80913  42.036  16.569  11.144
 9385W        W80914  39.069  14.013   2.788
 9386W        W80915  33.563  31.462  14.249
 9387W        W80916  14.988  15.390  14.354
 9388W        W80917  41.598  11.276  11.080
 9389W        W80918  38.066  42.939   0.821
 9390W        W80919  21.788  24.945   0.380
 9391W        W80920  35.496   4.671  13.041
 9392W        W80921  19.008  13.285  13.392
 9393W        W80922  34.015   1.893   1.820
 9394W        W80923  14.823  36.540  13.080
 9395W        W80924   9.440  29.193  12.008
 9396W        W80925  31.408  24.462  11.140
 9397W        W80926  39.308   3.324  10.941
 9398W        W80927  31.616  18.305  10.483
 9399W        W80928   6.433  17.581  14.779
 9400W        W80929   0.785  30.796  13.671
 9401W        W80930  24.485  31.400  10.727
 9402W        W80931  17.203  35.477  13.600
 9403W        W80932   3.386  44.920   2.270
 9404W        W80933  21.667  42.447   0.522
 9405W        W80934  19.444  13.149   3.244
 9406W        W80935  28.633  34.841   4.786
 9407W        W80936  24.444   8.468   1.500
 9408W        W80937  18.785  33.527   2.402
 9409W        W80938   9.903   1.766   0.689
 9410W        W80939  36.379  18.046  14.906
 9411W        W80940  28.033   0.775  13.791
 9412W        W80941  25.914  21.111  13.528
 9413W        W80942   8.943  35.756   2.035
 9414W        W80943  32.412  10.445   2.324
 9415W        W80944   9.574   2.391  12.137
 9416W        W80945  21.571   3.038  13.097
 9417W        W80946  43.956  40.949   1.950
 9418W        W80947  18.523  33.566  10.639
 9419W        W80948   0.834  23.648   3.683
 9420W        W80949  31.529  34.358   3.233
 9421W        W80950  38.133  13.761  11.585
 9422W        W80951   1.000   7.375  14.536
 9423W        W80952  12.883  15.779  12.311
 9424W        W80953   8.394  36.481   2.611
 9425W        W80954  19.194   4.549   3.262
 9426W        W80955   4.911  28.225  11.998
 9427W        W80956   8.956  22.460   2.010
 9428W        W80957  40.038  21.298   0.776
 9429W        W80958  17.201   2.507  12.431
 9430W        W80959  22.194  16.557  13.383
 9431W        W80960  20.607  19.568  14.265
 9432W        W80961  40.891  37.262  10.971
 9433W        W80962   0.298  20.599   2.701
 9434W        W80963  26.239   1.197  13.911
 9435W        W80964  39.025  34.480  10.493
 9436W        W80965   5.525  36.245   3.676
 9437W        W80966  16.563  21.418  14.666
 9438W        W80967   0.171   8.014   0.925
 9439W        W80968  36.986  26.948  14.846
 9440W        W80969   9.130  15.459  13.483
 9441W        W80970  38.482  22.694   3.768
 9442W        W80971  31.644   3.724   4.880
 9443W        W80972   0.951  39.999   4.708
 9444W        W80973  15.870  36.584  14.967
 9445W        W80974  21.335   2.331  13.298
 9446W        W80975   9.673  37.159   0.038
 9447W        W80976  34.428  39.574  12.548
 9448W        W80977   0.420  27.511   2.725
 9449W        W80978  40.261  15.594   3.533
 9450W        W80979  40.003  28.582   4.835
 9451W        W80980  14.020  19.778   3.668
 9452W        W80981  39.547  40.907  13.024
 9453W        W80982  43.320  39.493  11.491
 9454W        W80983  24.927  38.543  13.786
 9455W        W80984   4.458   7.385  13.891
 9456W        W80985   2.306  43.717  12.043
 9457W        W80986  40.907  27.176   4.498
 9458W        W80987  38.111  38.424   2.991
 9459W        W80988  13.138  20.131   2.816
 9460W        W80989  13.324  25.565  12.794
 9461W        W80990   2.702  35.910   3.735
 9462W        W80991  15.293  33.628   3.167
 9463W        W80992  44.445  17.199   3.166
 9464W        W80993  17.085  34.902  11.490
 9465W        W80994  12.287  39.256   0.257
 9466W        W80995  44.495  25.022   4.365
 9467W        W80996  41.003  40.549   2.360
 9468W        W80997  10.714  11.866  11.459
 9469W        W80998   7.307  16.988  12.017
 9470W        W80999  22.864  27.224   3.414
 9471W        W81000   7.278  13.357   5.088
 9472W        W81001  29.204  25.186   1.107
 9473W        W81002  28.884   2.539  12.768
 9474W        W81003  22.806  18.300   4.098
 9475W        W81004  14.863  15.944   0.803
 9476W        W81005  10.065   9.424  12.016
 9477W        W81006  42.488   4.343   1.354
 9478W        W81007  43.612   9.629   2.182
 9479W        W81008  28.838  44.282  12.154
 9480W        W81009  35.887  36.915  11.572
 9481W        W81010  42.276  14.462  11.275
 9482W        W81011  37.105  33.573  11.943
 9483W        W81012  29.499  26.421   4.526
 9484W        W81013  40.796  40.555  12.431
 9485W        W81014  28.007  11.606   0.803
 9486W        W81015  18.612  36.531   4.093
 9487W        W81016   1.834   7.997  12.960
 9488W        W81017  17.678  44.346  14.321
 9489W        W81018  21.872  42.918  14.300
 9490W        W81019   3.656  15.295  10.430
 9491W        W81020  28.525   4.465   1.334
 9492W        W81021   9.640  36.529  11.173
 9493W        W81022  26.318   5.133   3.637
 9494W        W81023   7.232  15.138  11.143
 9495W        W81024   6.397   5.932  11.858
 9496W        W81025  33.892  11.140   0.092
 9497W        W81026  16.308  31.829   2.541
 9498W        W81027  38.045  44.214  13.434
 9499W        W81028  44.209  20.444   0.869
 9500W        W81029   5.261  41.708   2.438
 9501W        W81030  16.250   3.670  11.205
 9502W        W81031  10.919   2.507  14.790
 9503W        W81032  13.068  29.465  11.630
 9504W        W81033  32.125   4.660  12.907
 9505W        W81034  15.688  27.678  10.697
 9506W        W81035  41.041  20.933   0.941
 9507W        W81036  32.124  33.447   0.261
 9508W        W81037  20.502  33.375  11.863
 9509W        W81038  31.871  16.320  11.625
 9510W        W81039  20.561   1.851  13.405
 9511W        W81040  27.631  36.997   2.688
 9512W        W81041  33.536   6.944   0.412
 9513W        W81042  39.709   7.649  14.516
 9514W        W81043  30.120  27.945  10.656
 9515W        W81044  38.088  30.899  13.639
 9516W        W81045  31.860  18.548  14.365
 9517W        W81046  37.128   0.449   0.306
 9518W        W81047   4.854  20.166  12.007
 9519W        W81048  12.668  41.276   4.178
 9520W        W81049  24.963  42.272   0.310
 9521W        W81050  35.434  40.098   3.251
 9522W        W81051  18.329  11.068   0.879
 9523W        W81052  13.335  14.749   0.826
 9524W        W81053  14.653  28.634  12.072
 9525W        W81054  41.270   3.737  14.588
 9526W        W81055   6.949  26.615   4.417
 9527W        W81056  33.976  20.073   4.889
 9528W        W81057  37.153  34.981   0.896
 9529W        W81058  29.043  11.280   0.282
 9530W        W81059  36.852   1.524  11.107
 9531W        W81060   0.796  41.859   1.154
 9532W        W81061   3.295  10.058  13.796
 9533W        W81062   1.890  40.107   2.721
 9534W        W81063  27.651  11.227   2.189
 9535W        W81064  42.270  34.107   0.203
 9536W        W81065  24.027  16.763   1.190
 9537W        W81066  11.398   0.755   3.578
 9538W        W81067  33.847  40.563   3.139
 9539W        W81068  43.109   1.524   2.223
 9540W        W81069  40.386  33.404   0.264
 9541W        W81070  15.697  30.390  11.073
 9542W        W81071  29.667   7.400  13.794
 9543W        W81072  12.239  22.523  11.858
 9544W        W81073  12.355  21.050  10.629
 9545W        W81074  37.109  38.329  11.028
 9546W        W81075   4.930  12.396   1.002
 9547W        W81076  42.527  34.518   2.316
 9548W        W81077  14.920  34.568   2.371
 9549W        W81078   8.231  19.043  13.070
 9550W        W81079  36.805  27.924   2.648
 9551W        W81080  17.342   6.840   3.639
 9552W        W81081   6.137  22.740  14.029
 9553W        W81082   4.232  44.686   3.225
 9554W        W81083   5.240   6.523  15.000
 9555W        W81084  26.485  19.768  12.597
 9556W        W81085  37.058  35.331  14.218
 9557W        W81086  18.417  32.015  10.279
 9558W        W81087  27.576   4.673  14.908
 9559W        W81088  13.853  27.034  14.309
 9560W        W81089  36.343  42.544  14.313
 9561W        W81090  41.925  10.669   3.174
 9562W        W81091  41.912   6.869   5.070
 9563W        W81092  43.475  35.526  13.026
 9564W        W81093  38.270   2.647  12.401
 9565W        W81094  29.061  19.434   2.841
 9566W        W81095  19.958  20.130   1.899
 9567W        W81096  31.601  19.721  13.108
 9568W        W81097  27.590   3.749   2.993
 9569W        W81098  37.672   4.423  12.675
 9570W        W81099  21.478   1.795  12.105
 9571W        W81100   6.504  18.860  10.880
 9572W        W81101  32.561  20.966   3.937
 9573W        W81102  16.225  24.157  10.519
 9574W        W81103  29.551  16.424   0.508
 9575W        W81104  18.566   2.331   2.697
 9576W        W81105  18.385   0.231   1.155
 9577W        W81106  22.186   5.667   1.914
 9578W        W81107  20.801  15.533   2.188
 9579W        W81108  33.032  15.895  14.469
 9580W        W81109  11.047  37.564   2.247
 9581W        W81110  35.016  19.922   4.970
 9582W        W81111  27.067  43.850  10.989
 9583W        W81112  32.188  17.238   1.689
 9584W        W81113  36.185  21.007   0.588
 9585W        W81114   5.245  13.166   0.567
 9586W        W81115  27.982   9.192   4.922
 9587W        W81116   9.208  12.019  13.023
 9588W        W81117  38.253   0.807   2.772
 9589W        W81118  43.896  27.445   3.122
 9590W        W81119   0.914  12.750  14.898
 9591W        W81120  11.313  21.799   0.482
 9592W        W81121  44.062  19.242  13.456
 9593W        W81122   3.878   2.422  11.854
 9594W        W81123  13.623   7.295  13.077
 9595W        W81124  30.059  37.871   4.077
 9596W        W81125  14.361   2.634  13.020
 9597W        W81126  19.557  31.630   1.751
 9598W        W81127   1.926   6.808   4.424
 9599W        W81128   1.440   5.184  14.974
 9600W        W81129  10.977   3.864  11.653
 9601W        W81130   8.751  13.117  11.077
 9602W        W81131  44.083  36.005   0.719
 9603W        W81132  30.230   9.778  13.485
 9604W        W81133  19.602  29.406   2.797
 9605W        W81134  19.279  16.888  12.444
 9606W        W81135  41.941  32.874  11.523
 9607W        W81136  37.641   5.221  14.365
 9608W        W81137  32.666  23.556   1.802
 9609W        W81138  32.980  20.740   0.679
 9610W        W81139  14.858  17.799  12.540
 9611W        W81140  11.582  21.933   2.784
 9612W        W81141  33.500  29.569  14.491
 9613W        W81142   6.699  11.883  11.508
 9614W        W81143   2.586   6.776  11.996
 9615W        W81144  38.067  29.953  12.557
 9616W        W81145   6.706   6.758  13.533
 9617W        W81146  44.462  39.510   4.324
 9618W        W81147  20.136  31.055   1.981
 9619W        W81148   2.470  33.479  13.105
 9620W        W81149  39.780  26.502   2.007
 9621W        W81150  16.594  13.104   0.918
 9622W        W81151  34.960  36.510  12.901
 9623W        W81152  29.634  40.565   2.290
 9624W        W81153   9.999  12.610  13.254
 9625W        W81154  43.489  42.008  14.412
 9626W        W81155   2.584  39.993  13.896
 9627W        W81156   9.776  30.223  13.426
 9628W        W81157   8.839  41.217   3.433
 9629W        W81158  27.706   0.340   1.418
 9630W        W81159  28.959  42.857  14.448
 9631W        W81160   3.728  28.288  11.490
 9632W        W81161  29.753   2.692  13.944
 9633W        W81162  43.836  34.775   3.323
 9634W        W81163  31.416  16.735  10.496
 9635W        W81164   0.227   4.912  14.375
 9636W        W81165  41.073  38.584   4.234
 9637W        W81166   9.792  41.389   2.455
 9638W        W81167  40.294  31.893   1.613
 9639W        W81168   7.894  44.741  11.384
 9640W        W81169   7.408  13.260  13.121
 9641W        W81170   7.292  14.607   0.861
 9642W        W81171  33.985  35.785  10.616
 9643W        W81172  10.191  17.856  14.494
 9644W        W81173  12.595   9.129   3.284
 9645W        W81174   1.312  36.100   4.911
 9646W        W81175  25.168  30.596   3.824
 9647W        W81176  21.217  35.152   4.524
 9648W        W81177  31.974  34.604   1.121
 9649W        W81178  29.624  18.380   4.085
 9650W        W81179  23.195  25.575  11.924
 9651W        W81180  13.111   7.717  10.715
 9652W        W81181   0.824  37.727   3.692
 9653W        W81182   3.762   5.589  12.625
 9654W        W81183   1.297   6.922   2.320
 9655W        W81184  41.744   0.909  14.937
 9656W        W81185  15.973   8.315   0.807
 9657W        W81186  34.463  36.397  12.985
 9658W        W81187  17.214  39.012   1.430
 9659W        W81188  26.742   0.897   3.294
 9660W        W81189  12.893  38.583   2.815
 9661W        W81190  35.390  13.699   3.629
 9662W        W81191  29.163  39.247  10.755
 9663W        W81192  12.230  34.434  11.517
 9664W        W81193  43.452  23.686  11.679
 9665W        W81194  17.487  11.763  13.497
 9666W        W81195  10.899  36.552  11.605
 9667W        W81196  17.151  34.502  13.516
 9668W        W81197  30.144  11.055  12.038
 9669W        W81198  12.147  12.257   2.286
 9670W        W81199  36.367  42.383  12.969
 9671W        W81200  29.318  28.159  13.759
 9672W        W81201  11.070  33.470   3.409
 9673W        W81202  28.025  19.020  12.534
 9674W        W81203  15.277  39.525  12.252
 9675W        W81204  26.806  29.106   0.797
 9676W        W81205   6.219   2.635  12.455
 9677W        W81206  15.935  37.560  10.681
 9678W        W81207  19.860  14.177  12.952
 9679W        W81208   1.699  13.194  12.409
 9680W        W81209   7.479  28.148   4.561
 9681W        W81210   4.439  28.295   3.214
 9682W        W81211  16.813  37.633   1.285
 9683W        W81212   3.879  23.539   4.599
 9684W        W81213   2.591  41.498   4.950
 9685W        W81214  38.105  39.431   2.813
 9686W        W81215  20.577  13.392   1.257
 9687W        W81216  26.139   7.578   0.440
 9688W        W81217  26.004  14.161   3.897
 9689W        W81218  39.963  16.460   4.108
 9690W        W81219  37.969   3.333   4.989
 9691W        W81220  29.493  44.385  10.014
 9692W        W81221  31.494  19.482  14.746
 9693W        W81222   0.867  39.074   3.791
 9694W        W81223  14.141  43.773   2.404
 9695W        W81224  41.953  15.238  12.890
 9696W        W81225   8.011  27.171   3.641
 9697W        W81226  11.452  24.209   3.258
 9698W        W81227  14.646  34.982  11.644
 9699W        W81228  17.324  19.123  12.367
 9700W        W81229  44.495   0.777  12.992
 9701W        W81230   8.846   9.174   3.814
 9702W        W81231  24.992   6.867   2.293
 9703W        W81232  15.557   1.809   2.382
 9704W        W81233  16.546  29.462  11.989
 9705W        W81234  37.996   8.635   3.233
 9706W        W81235  36.003  11.170   4.719
 9707W        W81236  18.647  41.318  11.875
 9708W        W81237  14.797  13.612  14.970
 9709W        W81238   7.346  28.469   0.837
 9710W        W81239   0.215  31.354   4.344
 9711W        W81240  10.356  42.625   4.559
 9712W        W81241  31.385   8.198  13.518
 9713W        W81242  24.247  30.566  12.978
 9714W        W81243   8.033  23.591   0.584
 9715W        W81244  39.959  33.890   4.682
 9716W        W81245  35.336  18.273   2.243
 9717W        W81246  31.617  42.222   2.145
 9718W        W81247  43.476  17.352   4.255
 9719W        W81248  21.264  32.811   3.702
 9720W        W81249   1.434  39.620   4.244
 9721W        W81250  42.049  42.278  12.760
 9722W        W81251  44.423  38.451   1.086
 9723W        W81252  25.760  18.041  11.200
 9724W        W81253   7.881  39.948  11.540
 9725W        W81254  29.076  19.028  14.094
 9726W        W81255  11.337  30.570   1.585
 9727W        W81256  27.743  18.072  11.702
 9728W        W81257   5.756  23.951   4.633
 9729W        W81258  27.739  41.603  14.318
 9730W        W81259  31.930   4.635  10.998
 9731W        W81260  26.965  17.260   3.641
 9732W        W81261  11.751  23.309  10.618
 9733W        W81262  29.022  13.707   2.703
 9734W        W81263  23.766  11.208  13.729
 9735W        W81264  17.618   8.869  13.987
 9736W        W81265  13.450   6.214   1.851
 9737W        W81266  30.365  34.436  13.873
 9738W        W81267  31.975  36.900  10.675
 9739W        W81268  35.657  14.882   3.695
 9740W        W81269  11.929  27.899  11.520
 9741W        W81270  11.195  36.725   2.675
 9742W        W81271  11.981  30.641  12.126
 9743W        W81272  19.626  35.076  11.900
 9744W        W81273   0.995  22.251   2.797
 9745W        W81274  23.591  40.342  14.241
 9746W        W81275  39.835  22.211  11.999
 9747W        W81276  17.196  43.779   2.491
 9748W        W81277  30.767   0.810  14.322
 9749W        W81278  20.048   9.337   2.187
 9750W        W81279  25.187  32.985  10.648
 9751W        W81280  18.818   7.313   4.295
 9752W        W81281  27.576  30.113   3.096
 9753W        W81282   5.649  10.653  13.507
 9754W        W81283  23.562   4.618   1.921
 9755W        W81284  28.577  42.921   0.144
 9756W        W81285   6.427   3.284   3.714
 9757W        W81286  33.693  24.997  14.478
 9758W        W81287  17.941  33.118  13.059
 9759W        W81288  36.018  15.569   1.554
 9760W        W81289  22.892  40.691   5.385
 9761W        W81290  21.053  17.044  12.448
 9762W        W81291  34.985  13.626  13.876
 9763W        W81292  23.023  34.123   4.313
 9764W        W81293  39.645  11.387  13.480
 9765W        W81294  24.644  30.573  10.577
 9766W        W81295  13.150  31.870  11.560
 9767W        W81296  26.164  38.622   0.452
 9768W        W81297   8.552  37.413  12.592
 9769W        W81298   5.806  31.359  13.884
 9770W        W81299  19.183  27.898  14.343
 9771W        W81300   7.161  22.815  14.468
 9772W        W81301  31.804  35.621  11.122
 9773W        W81302   5.938   4.259  13.400
 9774W        W81303  10.633  44.457   4.500
 9775W        W81304   0.020  39.104  11.614
 9776W        W81305  10.775  12.391  14.525
 9777W        W81306  20.668  27.052  12.676
 9778W        W81307  13.650  36.054   1.743
 9779W        W81308   3.929  17.107  10.997
 9780W        W81309   6.846  36.954  13.170
 9781W        W81310  19.291  27.575  10.794
 9782W        W81311  38.295  21.567  11.535
 9783W        W81312  25.686  21.000   3.786
 9784W        W81313   3.437   5.184   1.712
 9785W        W81314   6.334  40.579   4.138
 9786W        W81315  11.021  40.894  14.532
 9787W        W81316   5.497  20.641   4.635
 9788W        W81317  29.994   0.987  10.770
 9789W        W81318  27.117  27.352  10.818
 9790W        W81319  28.092  42.357  14.809
 9791W        W81320  23.408  31.935   3.173
 9792W        W81321  27.098  42.377  10.910
 9793W        W81322  34.348  14.450   3.556
 9794W        W81323  25.224  19.801  11.239
 9795W        W81324   1.491  42.986   1.654
 9796W        W81325  29.609  44.101  11.008
 9797W        W81326  25.625  24.582  14.941
 9798W        W81327  21.567  40.409  11.096
 9799W        W81328   5.622   0.564   1.502
 9800W        W81329   4.279  31.957  14.409
 9801W        W81330  32.401  20.764   0.054
 9802W        W81331  18.526   6.200   2.089
 9803W        W81332   8.804  29.683   2.589
 9804W        W81333  27.542  43.400   3.866
 9805W        W81334  38.013  26.722   1.162
 9806W        W81335  34.489  26.990  12.013
 9807W        W81336  34.402  23.533   3.910
 9808W        W81337  22.120  34.246  12.094
 9809W        W81338   7.251  22.658   2.574
 9810W        W81339   1.747  13.265   1.638
 9811W        W81340  39.370  15.655  14.945
 9812W        W81341   7.658  16.927  12.399
 9813W        W81342  18.796   4.594   0.889
 9814W        W81343   0.437   1.515   0.006
 9815W        W81344  37.813  44.985  14.891
 9816W        W81345   3.369  19.647  10.520
 9817W        W81346  44.968  12.611  12.837
 9818W        W81347  23.219   8.604  13.323
 9819W        W81348  37.375  12.572  10.539
 9820W        W81349   4.693  41.246   2.757
 9821W        W81350   2.279  27.574   3.801
 9822W        W81351  17.835  27.636   4.090
 9823W        W81352  25.688  31.813  11.018
 9824W        W81353  40.519  23.577  12.164
 9825W        W81354  25.758  44.377   2.451
 9826W        W81355  38.424   3.242   2.157
 9827W        W81356  12.141  26.479   0.987
 9828W        W81357   0.695   7.933   0.917
 9829W        W81358  40.353  33.384   2.099
 9830W        W81359  20.675  22.747  11.100
 9831W        W81360   3.476   7.385   1.733
 9832W        W81361  41.978  33.043  10.634
 9833W        W81362   3.926  11.189  13.926
 9834W        W81363  36.824   1.809   1.256
 9835W        W81364  26.382  19.610   4.756
 9836W        W81365  32.592  24.311  11.500
 9837W        W81366  13.183  33.607  10.441
 9838W        W81367  11.824  17.150  12.044
 9839W        W81368  39.461  28.891   1.766
 9840W        W81369  19.806   0.761  13.402
 9841W        W81370  40.411  42.887   2.118
 9842W        W81371  23.034  20.908   3.243
 9843W        W81372  30.979  23.597   2.711
 9844W        W81373  15.245  18.150   4.846
 9845W        W81374  39.879  38.565   4.550
 9846W        W81375   4.032  14.318  14.461
 9847W        W81376  36.797  26.544   0.915
 9848W        W81377   3.889  13.816   2.856
 9849W        W81378   4.970  27.622  13.184
 9850W        W81379  44.619   6.679   3.731
 9851W        W81380  28.676   1.963   0.603
 9852W        W81381  25.016  26.145   3.724
 9853W        W81382  29.872  16.078   0.309
 9854W        W81383   2.369  39.944  12.166
 9855W        W81384  17.192  26.999   1.800
 9856W        W81385   7.769  41.626   0.176
 9857W        W81386  31.141  31.824   3.213
 9858W        W81387  13.601  30.630   0.401
 9859W        W81388   9.243  17.044   0.122
 9860W        W81389   7.088   9.940   2.128
 9861W        W81390  11.408  36.493  11.590
 9862W        W81391  35.608  30.407  11.100
 9863W        W81392  20.672  17.092   2.129
 9864W        W81393  21.685  18.839   0.000
 9865W        W81394  39.328  10.118   1.778
 9866W        W81395   8.902  12.152   2.615
 9867W        W81396  32.489   9.148   3.186
 9868W        W81397  17.276   0.351  10.715
 9869W        W81398  15.348  18.675  11.031
 9870W        W81399  29.672  29.941   2.741
 9871W        W81400  30.471  27.488  14.997
 9872W        W81401  29.130  43.207   3.744
 9873W        W81402   8.442  44.324   2.473
 9874W        W81403   8.711  42.903   0.332
 9875W        W81404   8.686   9.444  12.251
 9876W        W81405   2.778  44.485   4.296
 9877W        W81406  21.660   1.363  11.422
 9878W        W81407  26.621  24.577   2.439
 9879W        W81408  36.063   6.208   0.320
 9880W        W81409  28.048  15.171   1.743
 9881W        W81410  32.245   7.744   5.241
 9882W        W81411  25.493  15.204  11.023
 9883W        W81412  18.590   8.802  14.953
 9884W        W81413   0.722  40.076  11.521
 9885W        W81414   7.928  36.755   4.183
 9886W        W81415   6.571  15.566   5.021
 9887W        W81416  42.778   7.451  11.924
 9888W        W81417  24.537  23.432  11.538
 9889W        W81418  33.121   3.908  12.622
 9890W        W81419  33.130  21.606  11.085
 9891W        W81420  28.097  37.337   0.441
 9892W        W81421  19.805  37.147  13.880
 9893W        W81422  19.371  22.202   4.247
 9894W        W81423  38.373  30.914  14.892
 9895W        W81424   4.162  27.923  11.402
 9896W        W81425  11.522  17.749   3.196
 9897W        W81426  27.301  19.715   2.222
 9898W        W81427  25.025  31.591  13.384
 9899W        W81428  31.907  44.187  12.654
 9900W        W81429   5.192   3.223  12.668
 9901W        W81430   5.190  22.093   4.082
 9902W        W81431  18.840  18.492  13.555
 9903W        W81432  10.141  12.766  13.740
 9904W        W81433  17.871  21.800   2.211
 9905W        W81434  22.239  23.262  14.978
 9906W        W81435   1.470  16.787  11.706
 9907W        W81436   9.221   1.365   0.431
 9908W        W81437  20.289  22.982   3.384
 9909W        W81438  42.180  31.869  14.353
 9910W        W81439  23.651  23.343  12.380
 9911W        W81440   5.316  25.624  12.947
 9912W        W81441  37.072   4.696   1.412
 9913W        W81442  36.694  21.441  13.424
 9914W        W81443  24.984  11.205   0.241
 9915W        W81444  38.394  27.928  13.547
 9916W        W81445   3.356   8.559   2.871
 9917W        W81446  34.020  15.616   2.207
 9918W        W81447  11.580  29.407   3.224
 9919W        W81448  11.288  10.627   2.618
 9920W        W81449  34.534  42.432   4.700
 9921W        W81450  42.946  23.522  11.808
 9922W        W81451   7.169   8.839  14.537
 9923W        W81452  29.140  40.324  14.020
 9924W        W81453  19.070   1.293   3.646
 9925W        W81454  34.992  17.077   0.224
 9926W        W81455  39.116  43.895   2.445
 9927W        W81456   3.292   5.300  14.501
 9928W        W81457  43.451  27.204  10.733
 9929W        W81458  18.119   1.534  14.623
 9930W        W81459  31.956   4.994  10.645
 9931W        W81460  16.168  37.519  13.443
 9932W        W81461  32.420  11.319   0.208
 9933W        W81462  36.836  44.963  11.002
 9934W        W81463  29.695   1.491  13.073
 9935W        W81464  12.424  41.655   2.338
 9936W        W81465   6.179  15.856  12.431
 9937W        W81466   9.414  36.501   2.837
 9938W        W81467  43.040  22.216   1.362
 9939W        W81468  30.153  12.788  11.138
 9940W        W81469   2.527  30.029  13.887
 9941W        W81470  34.601  42.897   0.905
 9942W        W81471   0.470  31.921  13.793
 9943W        W81472  24.074  36.646   4.301
 9944W        W81473  37.503  20.965   3.330
 9945W        W81474  20.671  33.680  13.974
 9946W        W81475  26.605  26.634  14.893
 9947W        W81476   2.634  10.811   4.165
 9948W        W81477  15.443  16.821  14.821
 9949W        W81478  27.525  25.919  11.540
 9950W        W81479  25.486  14.430   2.713
 9951W        W81480  34.195   5.879  11.107
 9952W        W81481   1.862  40.799   3.432
 9953W        W81482  17.534  27.612  13.021
 9954W        W81483  37.365  25.335  11.542
 9955W        W81484  31.211  11.301   1.132
 9956W        W81485  35.617  28.766   2.881
 9957W        W81486  20.033  38.306  14.006
 9958W        W81487   9.906  44.370   2.838
 9959W        W81488  41.865   3.155   4.876
 9960W        W81489  40.188  31.333   0.744
 9961W        W81490   1.708   8.393   3.757
 9962W        W81491   6.925  17.118  10.387
 9963W        W81492  21.033  33.651   3.289
 9964W        W81493  11.893  30.653  11.277
 9965W        W81494  31.390  33.558   0.464
 9966W        W81495  26.504  43.501   0.410
 9967W        W81496  10.441  24.111   2.210
 9968W        W81497  13.136  26.553  14.761
 9969W        W81498   3.432  44.230   2.601
 9970W        W81499  15.744  37.529   3.180
 9971W        W81500  25.689   4.881  10.664
 9972W        W81501  28.547  31.401  10.679
 9973W        W81502  41.795   6.096   2.328
 9974W        W81503  36.130  13.936  12.975
 9975W        W81504  12.983  13.798   3.458
 9976W        W81505   9.233  40.420   4.109
 9977W        W81506  15.114  16.681   3.301
 9978W        W81507   0.975  35.049   1.123
 9979W        W81508  13.339  36.084   0.279
 9980W        W81509  17.532  10.732   1.319
 9981W        W81510   0.593   3.656  11.656
 9982W        W81511   6.775   0.552   0.062
 9983W        W81512  31.110  34.499   4.918
 9984W        W81513  32.583  21.682  10.611
 9985W        W81514  23.940  40.123   3.744
 9986W        W81515   6.755  30.567  11.932
 9987W        W81516  42.927  11.787  13.469
 9988W        W81517  14.680  26.629  13.482
 9989W        W81518  44.778  40.556   4.426
 9990W        W81519  18.709  19.052   1.207
 9991W        W81520  18.212  13.763   2.597
 9992W        W81521  16.591   0.815  13.068
 9993W        W81522  27.594  19.598  11.595
 9994W        W81523   4.833  42.623  12.098
 9995W        W81524  10.680  29.273  11.106
 9996W        W81525   5.909  20.552   1.675
 9997W        W81526   1.325  36.796  10.752
 9998W        W81527   9.416  25.757   2.260
 9999W        W81528  31.004  35.968   0.024
10000W        W81529   5.351   0.866   0.703
10001W        W81530  20.501  28.574  14.893
10002W        W81531  10.649   6.717  10.425
10003W        W81532   6.893   5.676  13.947
10004W        W81533  11.727  42.466   3.689
10005W        W81534  22.532  15.657  10.643
10006W        W81535  16.805  21.553  12.935
10007W        W81536  17.102  44.886  10.550
10008W        W81537  38.278  35.066   1.556
10009W        W81538  14.601  27.075   3.296
10010W        W81539  19.731  26.707  13.088
10011W        W81540  24.199  30.563   3.533
10012W        W81541  27.897  25.513  12.431
10013W        W81542  29.064  15.866   0.962
10014W        W81543  32.837   5.998   0.793
10015W        W81544  35.481  39.767  13.971
10016W        W81545   5.022  17.465   2.355
10017W        W81546  36.675  14.328   3.098
10018W        W81547   2.298  34.918  12.423
10019W        W81548  21.199  41.014   3.520
10020W        W81549  27.155  10.194   0.417
10021W        W81550  42.432  19.138   4.381
10022W        W81551   7.688   7.911  11.226
10023W        W81552   7.841  27.166   2.647
10024W        W81553  21.753  23.754   2.232
10025W        W81554   3.452  27.950  14.837
10026W        W81555   7.688  16.730  11.773
10027W        W81556  32.194  38.293   3.159
10028W        W81557   0.954   1.411  10.528
10029W        W81558  13.807  30.144  11.628
10030W        W81559   7.627  15.689  12.699
10031W        W81560  27.774  38.406  14.930
10032W        W81561  34.401  10.913   1.854
10033W        W81562  19.394  31.904  11.061
10034W        W81563  24.988   9.799   2.452
10035W        W81564  32.511  41.272   3.309
10036W        W81565   4.466  24.744  12.556
10037W        W81566  32.729  37.300   4.188
10038W        W81567  19.747  26.999   4.139
10039W        W81568  12.448  27.207   3.711
10040W        W81569  21.254   6.788   4.826
10041W        W81570  32.163  37.559  12.189
10042W        W81571   0.895  15.146   4.676
10043W        W81572  31.538  14.782   1.357
10044W        W81573   5.483   6.964   2.586
10045W        W81574  33.860  21.106   2.751
10046W        W81575  27.455  34.185  12.983
10047W        W81576  41.824  15.756  11.569
10048W        W81577   7.858  37.166   2.796
10049W        W81578  10.879  15.257  11.493
10050W        W81579   7.028  31.568  14.464
10051W        W81580  15.758  10.291   2.936
10052W        W81581  39.579  38.417  13.049
10053W        W81582  25.584  43.396  12.583
10054W        W81583   5.899  11.604   1.763
10055W        W81584  10.861   1.527   3.809
10056W        W81585  41.648  18.608  11.913
10057W        W81586  28.907  27.411  12.835
10058W        W81587  39.911  40.844   0.277
10059W        W81588   6.564  31.229  12.309
10060W        W81589  41.527  28.294   0.949
10061W        W81590  19.111   9.287  13.678
10062W        W81591  23.752  16.814  14.353
10063W        W81592  28.861  29.214  11.137
10064W        W81593  11.673   1.344  11.749
10065W        W81594  32.414  25.476  12.931
10066W        W81595   9.336  24.513  12.154
10067W        W81596  11.402   8.286   1.789
10068W        W81597   4.339   9.164   4.344
10069W        W81598  23.990  41.974   3.940
10070W        W81599  43.985  31.556  12.454
10071W        W81600  30.423  37.467  14.360
10072W        W81601  30.852  42.195   0.863
10073W        W81602  18.617   3.995  11.228
10074W        W81603  43.515  16.342  13.389
10075W        W81604  27.869  27.583  11.961
10076W        W81605   1.835  38.610   2.463
10077W        W81606  36.808   6.424   1.830
10078W        W81607  43.538  43.479  14.938
10079W        W81608  14.658  27.617  13.541
10080W        W81609  33.234  18.492  12.106
10081W        W81610   1.776  13.850  13.460
10082W        W81611  38.610  17.859  13.045
10083W        W81612  39.845   5.409  11.061
10084W        W81613  18.335  30.832  14.859
10085W        W81614  22.662   8.729  14.040
10086W        W81615  34.105   2.250   2.388
10087W        W81616  17.549  26.608   3.239
10088W        W81617  17.599  41.993   0.827
10089W        W81618  27.546   8.883   1.364
10090W        W81619  18.722  40.604   1.407
10091W        W81620  29.955  14.745  11.123
10092W        W81621   4.695   4.781   1.730
10093W        W81622  26.151  32.110  14.433
10094W        W81623   1.050   6.234   0.854
10095W        W81624   3.916  24.700   3.838
10096W        W81625   2.162   4.752   1.994
10097W        W81626  11.076  17.535  13.440
10098W        W81627  35.912   5.434  11.768
10099W        W81628  44.383  11.567   1.199
10100W        W81629  24.000  42.510   3.150
10101W        W81630  12.741  18.772   0.390
10102W        W81631  40.447  29.540   5.031
10103W        W81632  18.319   3.326  14.061
10104W        W81633  40.844  11.697  11.621
10105W        W81634  18.216  19.411  11.088
10106W        W81635   8.826  39.803  10.719
10107W        W81636  28.710  10.174  10.734
10108W        W81637  44.387  39.336   3.272
10109W        W81638  14.914   6.016   2.165
10110W        W81639   0.927  36.027   0.177
10111W        W81640  22.292   9.293   2.746
10112W        W81641  23.559  15.764  12.163
10113W        W81642  38.655  10.191   4.129
10114W        W81643  21.499  37.725  11.560
10115W        W81644  10.225  12.765   1.661
10116W        W81645   8.842  24.672  14.102
10117W        W81646  43.462  28.490   1.045
10118W        W81647  29.830   8.085   0.284
10119W        W81648  19.318  15.104  12.077
10120W        W81649  30.615  22.695   2.850
10121W        W81650  33.588  43.300   0.024
10122W        W81651  35.672  20.722   0.795
10123W        W81652  30.939   0.554   1.405
10124W        W81653  26.959  14.764   4.810
10125W        W81654   4.923  19.445   1.429
10126W        W81655  15.888  22.757  13.946
10127W        W81656  37.028  34.872  14.447
10128W        W81657  24.276   7.486  14.511
10129W        W81658  31.658  35.093  12.355
10130W        W81659   5.680  31.503  10.817
10131W        W81660  40.983   8.219   0.792
10132W        W81661  31.496  36.811  14.731
10133W        W81662  31.868  27.873  11.091
10134W        W81663  21.662  15.263  11.571
10135W        W81664  13.780   3.470   2.232
10136W        W81665  18.270  17.843   1.067
10137W        W81666  43.289  37.790  14.977
10138W        W81667  30.870  33.073  14.764
10139W        W81668  33.214  36.434   3.600
10140W        W81669  38.382  21.125   2.217
10141W        W81670  24.894  14.799  12.893
10142W        W81671  26.636  11.765  14.810
10143W        W81672   5.872   0.956  14.823
10144W        W81673   1.981  30.677  12.992
10145W        W81674  33.714   9.381  11.787
10146W        W81675   8.636  10.401  10.695
10147W        W81676  20.724  11.546  13.379
10148W        W81677  42.755  23.749   2.310
10149W        W81678  20.782  41.963   4.055
10150W        W81679  44.984  39.610  11.658
10151W        W81680   3.548  36.854   4.119
10152W        W81681   8.650  12.970   4.178
10153W        W81682  13.669  10.879   1.021
10154W        W81683  10.634  25.441   2.658
10155W        W81684  41.531  11.826   5.084
10156W        W81685  14.596  18.669  13.925
10157W        W81686  27.379  16.725   2.194
10158W        W81687  15.815  41.509  13.899
10159W        W81688  23.085  41.234   1.404
10160W        W81689  39.609  27.948  14.017
10161W        W81690  19.805  34.676   4.966
10162W        W81691  25.425  35.114   0.839
10163W        W81692  15.648  40.525  13.477
10164W        W81693  22.516  15.253   3.320
10165W        W81694  27.144   1.922  12.341
10166W        W81695  42.097  23.286  12.414
10167W        W81696  17.659   2.241   1.677
10168W        W81697  10.159  17.659   0.324
10169W        W81698   1.508  43.298   2.802
10170W        W81699  34.329   8.494  12.749
10171W        W81700  29.867  44.491   2.791
10172W        W81701  18.218  26.695   3.879
10173W        W81702  11.241  29.686  12.685
10174W        W81703   4.416  12.346   4.342
10175W        W81704  44.991   9.235   4.166
10176W        W81705  17.353  24.388  11.411
10177W        W81706  34.315  17.655   4.716
10178W        W81707  23.377  20.339  11.068
10179W        W81708  17.070  24.155  11.066
10180W        W81709  26.445  35.353   3.156
10181W        W81710  41.600  23.235  12.473
10182W        W81711  34.899  35.287  10.896
10183W        W81712  30.718  10.135   4.214
10184W        W81713  41.471   0.327  11.053
10185W        W81714  44.301  37.579   1.428
10186W        W81715  23.040  22.688   1.908
10187W        W81716  41.059  16.690  14.875
10188W        W81717  43.947  35.959   2.371
10189W        W81718   4.986  43.707  11.074
10190W        W81719  19.817  14.515   3.153
10191W        W81720  44.347   6.010   1.002
10192W        W81721  24.568   2.011   0.191
10193W        W81722  13.189   9.076  13.469
10194W        W81723  23.446   1.643  14.005
10195W        W81724  26.993  10.142  13.325
10196W        W81725  43.782   9.315   3.197
10197W        W81726  32.926  36.994  11.891
10198W        W81727  31.063  14.349   3.320
10199W        W81728   1.724  32.417  13.461
10200W        W81729  24.035  21.736  11.419
10201W        W81730  29.551  27.246   4.080
10202W        W81731  33.853  34.495  11.986
10203W        W81732  43.248   6.886   0.475
10204W        W81733  15.087  15.827   2.925
10205W        W81734  39.252  36.153   1.946
10206W        W81735   0.542  13.627   3.837
10207W        W81736   8.552  19.293   3.543
10208W        W81737  16.729  34.981   3.308
10209W        W81738  34.875  11.283  14.493
10210W        W81739  20.722   0.753   4.626
10211W        W81740  33.724  34.404   0.467
10212W        W81741  25.209   4.484   1.412
10213W        W81742  18.025   2.296   2.673
10214W        W81743   5.269  21.993   0.810
10215W        W81744  14.076  22.460  14.747
10216W        W81745  10.598  40.870   5.006
10217W        W81746  17.875   5.317  13.941
10218W        W81747   1.459  13.632   3.643
10219W        W81748  38.080   8.840   5.132
10220W        W81749   8.432   9.349  11.464
10221W        W81750  20.760  40.787  11.466
10222W        W81751   6.489  30.985  11.168
10223W        W81752  19.648  14.890  12.458
10224W        W81753  15.717  31.676   3.733
10225W        W81754  20.049   7.147  13.571
10226W        W81755   8.693  26.110   4.670
10227W        W81756  22.017  12.055   2.529
10228W        W81757  41.367   2.524   1.991
10229W        W81758   4.338  14.297  13.478
10230W        W81759  23.525   6.189  12.026
10231W        W81760  14.571  24.536  11.025
10232W        W81761  31.377  25.489  14.421
10233W        W81762   6.838  20.234   0.288
10234W        W81763  41.166  30.314  11.366
10235W        W81764  41.741  42.990   0.464
10236W        W81765  33.949  34.977  14.278
10237W        W81766  42.840  34.871  12.540
10238W        W81767   9.830  39.030  11.611
10239W        W81768  15.109  33.959  12.516
10240W        W81769  13.571  43.839  10.818
10241W        W81770   4.764  20.374   1.335
10242W        W81771   2.717  30.205  10.737
10243W        W81772  20.158   3.747  13.453
10244W        W81773  11.284  39.159  12.682
10245W        W81774   8.228  19.916  12.829
10246W        W81775  16.589  30.266  11.332
10247W        W81776   4.523  10.025  14.940
10248W        W81777   6.265  28.394   3.292
10249W        W81778  15.766  38.595  12.901
10250W        W81779  32.676  41.516  13.928
10251W        W81780  34.298  17.143  13.188
10252W        W81781  25.012  26.515   2.674
10253W        W81782   4.415  17.041   3.755
10254W        W81783   8.646  16.088   4.079
10255W        W81784  44.067  10.340   2.279
10256W        W81785  38.967  36.884   0.259
10257W        W81786  32.548  25.463   2.773
10258W        W81787  43.360  38.807   1.763
10259W        W81788  39.579  41.033   2.641
10260W        W81789   2.808  16.975   1.482
10261W        W81790  15.119  22.698  12.591
10262W        W81791  43.436  16.717  11.578
10263W        W81792  19.267  15.265   2.728
10264W        W81793  17.216  27.729   1.257
10265W        W81794  42.342  19.882  11.889
10266W        W81795  43.940  13.525   4.763
10267W        W81796  22.268   9.304   4.597
10268W        W81797   2.330  42.796  10.439
10269W        W81798  11.865  16.678   0.291
10270W        W81799  15.288  26.576   2.675
10271W        W81800  42.567  36.091  11.512
10272W        W81801   3.060   5.456   3.157
10273W        W81802  17.254  30.388  13.069
10274W        W81803  27.632  21.620  11.192
10275W        W81804  38.658  35.549  10.448
10276W        W81805   5.675   1.176   2.826
10277W        W81806  40.297  39.474   2.931
10278W        W81807  20.702  18.738  12.670
10279W        W81808  42.971  44.435  13.502
10280W        W81809  20.929  41.205   0.394
10281W        W81810   5.716  27.130  14.840
10282W        W81811   2.269  17.053  10.810
10283W        W81812  23.725  16.515  13.922
10284W        W81813  23.158  21.592  13.012
10285W        W81814  39.960   4.440  11.257
10286W        W81815  32.377  21.695  14.969
10287W        W81816   0.834   7.923  12.345
10288W        W81817   5.207  42.845   0.470
10289W        W81818  15.850  39.338  14.303
10290W        W81819  38.125  22.989   2.716
10291W        W81820  22.137  36.546  13.338
10292W        W81821  21.519  25.223  13.148
10293W        W81822  13.275  28.109  11.075
10294W        W81823   6.388  14.970   2.885
10295W        W81824  14.691  17.475   4.341
10296W        W81825  19.504   9.956  10.600
10297W        W81826   5.045  33.581   4.206
10298W        W81827  33.646  16.089   2.885
10299W        W81828   4.877  34.135   0.303
10300W        W81829  44.741  30.783   0.463
10301W        W81830  24.040  41.437   1.302
10302W        W81831  34.849   3.110   1.452
10303W        W81832  36.751  30.291  10.270
10304W        W81833  30.074  35.430  13.677
10305W        W81834   5.264  29.197   4.751
10306W        W81835   3.254  40.920   2.311
10307W        W81836   8.257  20.086   1.624
10308W        W81837  43.477  20.996   1.281
10309W        W81838  33.998  29.353   1.722
10310W        W81839  25.406  26.932   1.760
10311W        W81840  26.245   2.478   1.397
10312W        W81841  33.179  30.356   2.932
10313W        W81842  15.779  39.084   2.382
10314W        W81843  37.553  18.523   1.771
10315W        W81844  18.502  13.103   3.645
10316W        W81845  32.208  32.861  12.478
10317W        W81846  27.822  21.589  11.677
10318W        W81847  10.832  16.558   3.225
10319W        W81848  13.312  28.265   1.237
10320W        W81849  27.634  21.554  13.876
10321W        W81850   6.786  17.351   4.742
10322W        W81851  11.614  13.143  13.025
10323W        W81852  14.847  22.698  13.025
10324W        W81853  44.970   7.678   2.183
10325W        W81854  26.722  26.996  11.663
10326W        W81855   6.859  33.457   3.108
10327W        W81856   5.672  43.436  12.881
10328W        W81857   7.466  21.775   2.375
10329W        W81858  29.554  31.160  11.944
10330W        W81859  11.540  19.072   0.466
10331W        W81860   3.696  44.754  11.083
10332W        W81861  31.999   4.737  11.500
10333W        W81862   0.194   0.961   2.810
10334W        W81863  34.131  17.139   4.174
10335W        W81864  15.886  16.912   1.003
10336W        W81865  17.791   3.537   0.323
10337W        W81866  33.438  37.054   1.851
10338W        W81867   1.236   7.143  11.710
10339W        W81868  40.785  32.507  13.899
10340W        W81869  18.797  10.252   4.581
10341W        W81870  38.998  38.731   3.659
10342W        W81871  12.968   3.453   2.316
10343W        W81872  14.709  32.796   3.402
10344W        W81873  16.774  43.353  12.902
10345W        W81874  43.250   7.364  11.765
10346W        W81875  41.572   1.825   4.659
10347W        W81876  11.342   3.792   4.018
10348W        W81877  15.581  33.146  13.539
10349W        W81878  25.596  34.816  13.017
10350W        W81879  31.113   4.394   1.713
10351W        W81880  19.971  20.698  12.493
10352W        W81881  11.730   5.164   4.014
10353W        W81882  10.221   4.949  10.893
10354W        W81883   6.703  33.578  14.023
10355W        W81884   7.345  17.004  13.177
10356W        W81885  28.599  12.712   4.465
10357W        W81886  23.308   4.885   0.349
10358W        W81887  19.789  44.081  13.787
10359W        W81888  21.188  13.603  10.910
10360W        W81889  10.578  28.653  11.623
10361W        W81890   2.763  23.000  12.622
10362W        W81891  31.172  30.489  11.018
10363W        W81892   0.360  38.312  12.754
10364W        W81893  19.862  42.469  14.753
10365W        W81894  23.265   9.750   3.120
10366W        W81895  38.310  22.219   1.614
10367W        W81896   9.365   2.500  12.823
10368W        W81897   1.522  20.771  14.299
10369W        W81898  10.322  27.482  12.667
10370W        W81899  10.065  41.618  12.539
10371W        W81900  11.648  13.778  11.871
10372W        W81901   4.033   9.511   3.182
10373W        W81902   7.486  43.291   0.101
10374W        W81903  19.861  19.102   2.238
10375W        W81904  36.077  30.673   1.271
10376W        W81905   9.196  39.860  12.201
10377W        W81906  28.788  18.994   1.718
10378W        W81907   7.389  13.415  12.052
10379W        W81908  30.635   5.767   0.914
10380W        W81909  24.633  44.654   4.602
10381W        W81910   5.852  25.356   0.009
10382W        W81911  31.151   9.480  13.847
10383W        W81912  23.280   9.579  13.572
10384W        W81913  29.538  42.707  12.103
10385W        W81914  16.646   5.752  10.524
10386W        W81915  35.846  11.164   3.661
10387W        W81916  13.703  27.118   4.275
10388W        W81917  31.054  31.221   4.087
10389W        W81918  33.916   6.965  11.581
10390W        W81919  29.640  23.672   3.379
10391W        W81920   0.027  25.790  13.042
10392W        W81921  37.072  39.393  12.663
10393W        W81922  23.612  34.625  13.364
10394W        W81923  33.021  16.780   0.727
10395W        W81924   5.883   7.380  10.539
10396W        W81925  20.087   3.066   0.439
10397W        W81926  17.519  22.271   3.802
10398W        W81927  24.223   6.809  14.770
10399W        W81928  38.188  21.205  11.162
10400W        W81929  16.184  42.294  12.129
10401W        W81930   3.424  13.205   4.400
10402W        W81931   4.364  32.783   1.281
10403W        W81932  32.167  41.061  11.221
10404W        W81933  39.812   0.287   1.331
10405W        W81934  23.578  22.500   1.296
10406W        W81935  13.733  27.142  10.573
10407W        W81936  12.192  33.511  13.183
10408W        W81937   3.970  44.357   4.328
10409W        W81938  19.752   0.505   2.896
10410W        W81939   3.532  43.927   0.325
10411W        W81940  27.896  20.823   4.567
10412W        W81941  23.670  30.514   3.549
10413W        W81942  18.077  16.604  10.656
10414W        W81943  22.664  33.160   1.001
10415W        W81944  12.512  15.147   1.705
10416W        W81945  16.201   5.749   2.201
10417W        W81946  15.285  28.631  10.377
10418W        W81947   3.402  36.388   2.812
10419W        W81948   8.319  44.424  12.412
10420W        W81949  17.674  42.991   3.144
10421W        W81950  39.175  14.064  14.428
10422W        W81951  28.923   1.128  14.307
10423W        W81952  18.805   0.042  13.139
10424W        W81953  37.674  11.896  14.454
10425W        W81954  16.589  21.270   4.127
10426W        W81955  10.858  43.508  14.917
10427W        W81956  17.007  20.462   2.601
10428W        W81957  16.875  37.092  13.228
10429W        W81958  11.571  27.884   5.074
10430W        W81959  26.125  36.964   4.297
10431W        W81960  30.643  18.048   0.732
10432W        W81961  40.760  38.997   0.493
10433W        W81962  11.378  13.541   3.651
10434W        W81963  10.355   2.480  11.966
10435W        W81964  29.242  41.838   2.113
10436W        W81965  29.123  27.652  13.248
10437W        W81966  16.477  15.453   0.407
10438W        W81967  26.628  28.404  14.494
10439W        W81968  36.002  18.727   4.565
10440W        W81969  16.715  38.142  14.580
10441W        W81970  17.736  11.512  13.066
10442W        W81971  30.984  37.609   1.785
10443W        W81972  42.512  44.507  14.845
10444W        W81973  32.108  42.386  10.635
10445W        W81974  25.192  36.881  11.980
10446W        W81975  44.074  37.438   0.684
10447W        W81976  12.630  25.505   2.754
10448W        W81977  24.947   5.803   2.903
10449W        W81978  32.096  38.042  11.998
10450W        W81979   7.695  33.607   0.838
10451W        W81980   8.374  13.713  12.338
10452W        W81981   6.872  11.078   4.133
10453W        W81982  39.175  11.129   0.814
10454W        W81983  18.547  34.596   3.618
10455W        W81984   7.128   8.223   2.047
10456W        W81985  34.699  33.399   2.777
10457W        W81986  32.962   6.504  12.512
10458W        W81987  15.259  10.559   3.573
10459W        W81988   5.164  23.067   3.172
10460W        W81989   6.133  37.333  12.487
10461W        W81990  33.219  44.931   2.409
10462W        W81991  26.116  34.629   0.361
10463W        W81992  38.822   7.839  12.955
10464W        W81993   4.288  15.350  11.587
10465W        W81994  25.914   1.303  12.213
10466W        W81995  28.219  40.786   0.809
10467W        W81996  32.339   6.413  13.268
10468W        W81997  12.168  21.298  13.410
10469W        W81998  41.700  23.621   1.568
10470W        W81999  21.025  34.402   3.721
10471W        W82000   5.102   5.810  10.270
10472W        W82001  30.974  40.081   2.617
10473W        W82002   8.456  43.924   1.643
10474W        W82003  31.321  30.841  12.971
10475W        W82004  38.047  17.561  14.807
10476W        W82005   7.752  36.442  11.405
10477W        W82006  15.296   6.184  11.613
10478W        W82007  28.467  25.401   2.713
10479W        W82008   6.725  17.411   2.862
10480W        W82009  25.895   5.193  11.504
10481W        W82010  11.099  20.046  13.362
10482W        W82011  43.733  38.948   1.264
10483W        W82012  32.602   0.547  11.249
10484W        W82013  18.061  17.703   0.583
10485W        W82014   0.133  13.135   4.220
10486W        W82015  41.258  16.783   3.311
10487W        W82016  21.197  31.376  14.881
10488W        W82017  20.804  15.260  10.699
10489W        W82018   1.210   3.844   3.247
10490W        W82019  27.195   8.801   0.526
10491W        W82020  39.716  43.368  10.301
10492W        W82021  33.661  21.576   2.529
10493W        W82022  31.011  42.443   2.670
10494W        W82023  38.829  21.743   1.311
10495W        W82024  36.941  44.816  10.418
10496W        W82025  17.602  33.362   2.741
10497W        W82026  42.795   6.332  14.787
10498W        W82027  35.611   3.360   1.261
10499W        W82028  31.436   3.816  11.045
10500W        W82029  23.568  32.627  11.315
10501W        W82030   2.979  43.995   4.251
10502W        W82031   6.422  29.491   4.907
10503W        W82032  10.139   2.760   4.584
10504W        W82033  12.623  22.779  14.014
10505W        W82034  17.241  32.715   3.653
10506W        W82035  18.578   7.857   4.475
10507W        W82036  10.852   9.678   0.886
10508W        W82037  31.800  18.616   4.162
10509W        W82038  29.548  26.902  10.188
10510W        W82039  11.958   7.083   3.889
10511W        W82040  39.525  21.206   4.649
10512W        W82041   5.326   6.780   3.253
10513W        W82042  44.659  23.782  11.034
10514W        W82043   3.642  26.860   1.648
10515W        W82044  15.009   2.497   4.746
10516W        W82045   3.490  24.526  14.896
10517W        W82046  17.649  32.426  11.513
10518W        W82047  19.583  20.439  10.694
10519W        W82048   0.450  25.206   1.864
10520W        W82049  16.553  32.926   3.285
10521W        W82050  42.470  22.671  13.600
10522W        W82051  38.986  19.450   4.986
10523W        W82052  31.591  13.567   3.904
10524W        W82053  38.966  37.689  13.399
10525W        W82054  35.003  35.928   2.616
10526W        W82055  15.245  32.283   3.483
10527W        W82056  40.279  28.119  11.048
10528W        W82057  42.265  32.391  12.310
10529W        W82058  41.809   3.663   1.710
10530W        W82059  36.529  13.596  13.024
10531W        W82060  39.440  36.179  14.709
10532W        W82061  32.616  28.690   0.350
10533W        W82062   6.179  32.173  10.830
10534W        W82063  17.111  18.826   4.287
10535W        W82064  41.154  39.394  13.063
10536W        W82065   9.624  12.856   2.404
10537W        W82066  17.058  42.522  10.635
10538W        W82067  10.841  27.454   0.491
10539W        W82068  31.443   1.227  11.573
10540W        W82069  44.506   5.677  10.626
10541W        W82070  32.784  37.328   1.428
10542W        W82071   1.786  27.673   0.748
10543W        W82072  33.159  26.168   0.826
10544W        W82073  38.077  20.949  10.433
10545W        W82074  36.069  41.327  11.579
10546W        W82075  11.009  21.498  12.999
10547W        W82076  16.161   4.508  13.036
10548W        W82077  22.772  28.453  10.911
10549W        W82078  37.897  20.130   1.714
10550W        W82079  28.955   2.570   1.336
10551W        W82080  40.699  32.282   4.152
10552W        W82081  22.642  23.947   1.900
10553W        W82082  36.982  16.202  14.296
10554W        W82083  20.097  22.101  14.333
10555W        W82084  35.923  24.661   3.841
10556W        W82085  27.509  34.307  12.462
10557W        W82086  41.914  22.417  13.463
10558W        W82087   1.370  35.388   9.800
10559W        W82088  23.585  44.103   3.536
10560W        W82089   0.140  40.685  13.276
10561W        W82090  29.540   2.785   0.335
10562W        W82091  43.236  15.194   4.768
10563W        W82092  14.801  27.733   4.662
10564W        W82093  27.191   4.713   3.358
10565W        W82094  40.009  24.569   0.424
10566W        W82095  33.636  25.387   0.478
10567W        W82096  42.467  33.632   0.361
10568W        W82097  44.325   3.974  11.243
10569W        W82098  36.787  31.124   2.864
10570W        W82099  13.238   8.124   1.181
10571W        W82100  17.542  26.065   3.137
10572W        W82101  24.359  31.662  14.526
10573W        W82102   2.846  12.235  10.702
10574W        W82103  27.111   2.469   4.092
10575W        W82104  39.533  18.178  12.082
10576W        W82105  25.040   2.031  12.048
10577W        W82106  22.718   6.865   0.158
10578W        W82107  43.459  17.309   3.318
10579W        W82108  43.737   2.489   0.946
10580W        W82109  30.698   5.198  13.196
10581W        W82110  20.276   9.635   2.781
10582W        W82111  15.351  13.195   1.351
10583W        W82112   8.254   7.269  13.799
10584W        W82113   7.795  27.656  14.869
10585W        W82114  18.508  26.660   1.882
10586W        W82115  41.545  30.957  11.146
10587W        W82116   4.709  31.179   3.968
10588W        W82117  36.822   7.304   3.445
10589W        W82118  44.068  22.342  11.520
10590W        W82119  28.131  29.097   0.392
10591W        W82120   2.967  38.171  13.925
10592W        W82121  39.414  40.539   1.937
10593W        W82122  19.442  15.501   3.245
10594W        W82123   5.410   4.362  13.943
10595W        W82124  24.965  36.034   4.438
10596W        W82125  29.042  26.253  12.184
10597W        W82126  40.525  20.214  14.430
10598W        W82127  41.417  13.230  11.961
10599W        W82128  17.638  44.826   3.289
10600W        W82129  28.570  20.251  10.954
10601W        W82130  20.548  43.478  14.930
10602W        W82131  33.105  10.833  13.053
10603W        W82132  10.682  21.709  11.435
10604W        W82133  34.329  25.716   2.261
10605W        W82134  22.576  37.837   0.411
10606W        W82135  16.584  35.357  14.770
10607W        W82136  10.820   3.941   1.775
10608W        W82137  42.958  20.795   1.323
10609W        W82138  27.132   1.675   2.802
10610W        W82139  34.848  23.245   0.672
10611W        W82140   1.331  43.720  11.036
10612W        W82141  34.842  21.145  14.605
10613W        W82142   3.695  36.592   1.309
10614W        W82143  33.140  37.049   2.333
10615W        W82144  41.907   2.842   4.376
10616W        W82145  27.159  12.062   4.546
10617W        W82146  14.827  18.269  10.686
10618W        W82147  17.246  16.259  11.539
10619W        W82148  13.264  37.475   4.281
10620W        W82149  30.841  18.566  11.803
10621W        W82150  25.228  26.368  12.604
10622W        W82151  39.958   1.862   0.925
10623W        W82152  30.521  11.153  12.375
10624W        W82153  37.014  32.685  11.955
10625W        W82154  37.551  41.513  12.404
10626W        W82155  22.752   9.329   0.233
10627W        W82156  42.043  36.089   4.612
10628W        W82157  18.610  38.209  12.960
10629W        W82158   0.974  28.781  10.664
10630W        W82159  22.120  38.839  11.504
10631W        W82160  25.569  17.784  13.054
10632W        W82161  32.448  15.667   4.543
10633W        W82162  24.977  43.518   1.803
10634W        W82163   9.205  43.846  12.152
10635W        W82164  32.274   5.866   2.280
10636W        W82165   7.491   4.638   4.065
10637W        W82166  11.691   6.386   0.512
10638W        W82167  24.049   3.304   1.938
10639W        W82168  14.975   7.020   9.806
10640W        W82169  27.982  32.076  12.090
10641W        W82170   6.386  34.957   3.912
10642W        W82171  32.208  17.433  14.455
10643W        W82172   6.212  40.878   4.611
10644W        W82173  39.793  10.145   3.590
10645W        W82174  23.534  10.758  13.888
10646W        W82175  36.820  23.272   1.317
10647W        W82176  12.836   8.909   0.120
10648W        W82177  22.489  25.197   4.723
10649W        W82178   1.305  21.261  12.126
10650W        W82179  22.769  41.329  13.774
10651W        W82180  44.539   2.659   0.017
10652W        W82181   4.795  14.216   4.200
10653W        W82182  28.260  13.603   5.405
10654W        W82183  22.980  41.044  10.772
10655W        W82184  18.726   5.131   4.817
10656W        W82185   7.949   1.829  14.446
10657W        W82186   2.988  32.946   0.890
10658W        W82187   3.196  30.461   3.252
10659W        W82188  41.466  41.713  12.077
10660W        W82189  10.389  12.458  14.873
10661W        W82190  43.222   4.928  12.367
10662W        W82191   8.939   5.273   0.386
10663W        W82192  29.513  37.789   4.754
10664W        W82193   1.473   7.287   0.910
10665W        W82194   5.163   2.664   0.351
10666W        W82195  17.067   0.544   3.653
10667W        W82196  35.448  39.415  13.595
10668W        W82197  29.183  20.549   3.804
10669W        W82198   6.778  31.100   0.989
10670W        W82199  14.814  21.290   1.149
10671W        W82200  35.530  38.372   0.293
10672W        W82201  21.080  25.236   4.615
10673W        W82202   6.104  17.345  10.699
10674W        W82203  10.754  33.332  13.084
10675W        W82204  38.289  37.153   0.565
10676W        W82205  16.724   5.911  14.233
10677W        W82206   6.770  27.185   3.088
10678W        W82207  11.229  36.383  14.340
10679W        W82208  14.778   0.614  11.495
10680W        W82209  23.256   8.952   0.812
10681W        W82210  32.711   1.473  11.165
10682W        W82211  35.081  26.251  11.934
10683W        W82212  11.808  31.231  10.566
10684W        W82213  29.560   3.886  13.492
10685W        W82214  38.296  13.518  12.411
10686W        W82215  43.719  35.260  11.048
10687W        W82216  14.221  39.896   0.048
10688W        W82217  37.805  12.602  13.320
10689W        W82218   5.042  39.104  11.205
10690W        W82219  16.686  28.447  10.144
10691W        W82220   0.461   9.919  12.429
10692W        W82221  25.882   9.351  13.369
10693W        W82222  17.132   0.703  13.127
10694W        W82223  35.092  37.837   1.237
10695W        W82224   8.602   0.210  14.935
10696W        W82225  30.291  25.015  10.198
10697W        W82226  19.774  43.507  13.023
10698W        W82227   6.568   1.688  10.825
10699W        W82228  11.585  14.240   5.066
10700W        W82229  28.771  33.215  14.399
10701W        W82230  34.898   9.697  14.718
10702W        W82231  26.012  21.167   1.132
10703W        W82232  17.293  37.992   4.635
10704W        W82233  28.597  14.551   3.169
10705W        W82234   6.748  40.650  13.379
10706W        W82235   8.701  13.703  11.871
10707W        W82236   8.279  38.726   3.986
10708W        W82237  21.532  36.903  14.413
10709W        W82238  23.187   9.807   2.626
10710W        W82239  37.804  24.925  13.975
10711W        W82240   5.473  31.904  14.901
10712W        W82241  21.595  36.626  10.683
10713W        W82242  17.026  38.933   3.280
10714W        W82243  42.263  43.403  11.474
10715W        W82244  21.230   0.445  12.122
10716W        W82245  25.678  15.161  13.161
10717W        W82246  43.090  19.825  11.451
10718W        W82247  20.276  44.427   0.334
10719W        W82248  17.590  43.481   0.926
10720W        W82249  16.282  10.264   4.162
10721W        W82250  29.886  20.528  11.176
10722W        W82251  10.724  37.804  11.836
10723W        W82252   0.931  23.023   4.337
10724W        W82253  44.864  32.112   4.922
10725W        W82254  37.837   1.784  13.537
10726W        W82255  23.105  24.084   4.767
10727W        W82256  10.816  25.979   3.640
10728W        W82257   4.107  19.514  11.990
10729W        W82258   5.625  32.092  10.816
10730W        W82259  19.177  44.508  12.639
10731W        W82260  21.360  14.313   2.706
10732W        W82261  35.348  40.280  13.834
10733W        W82262  16.502   4.521  11.025
10734W        W82263  39.946  18.104  13.774
10735W        W82264   1.865  17.092   2.421
10736W        W82265  21.099  41.920  12.841
10737W        W82266  43.028  24.588   3.218
10738W        W82267  10.664  14.148  11.970
10739W        W82268  43.249  25.988   3.761
10740W        W82269   7.787   4.517   0.339
10741W        W82270  22.077  36.981   0.327
10742W        W82271  26.372  27.108   1.424
10743W        W82272  24.746  29.648   1.701
10744W        W82273  25.402  12.118  14.079
10745W        W82274  29.478   6.937   3.235
10746W        W82275   8.178  23.136   2.765
10747W        W82276  14.137  28.219   0.311
10748W        W82277  17.721  19.820  11.904
10749W        W82278  11.139  28.457   0.378
10750W        W82279  32.412  35.967  14.227
10751W        W82280  41.371  10.823   1.728
10752W        W82281   9.226   4.004   2.303
10753W        W82282  43.464  34.953  11.850
10754W        W82283  25.188   2.086   4.791
10755W        W82284  32.748   9.849   2.685
10756W        W82285  14.807   0.336  13.621
10757W        W82286  38.325  14.991  14.092
10758W        W82287  28.001  18.524  13.244
10759W        W82288  37.848  41.269  13.498
10760W        W82289   8.708   4.842   1.243
10761W        W82290  27.639  41.366   2.910
10762W        W82291  13.139  18.089   1.029
10763W        W82292  18.655  20.568   3.548
10764W        W82293  36.830  40.282   0.466
10765W        W82294   6.870  19.765   4.961
10766W        W82295   7.425   1.327   1.073
10767W        W82296   2.689  15.583   3.225
10768W        W82297   1.243  38.796  14.723
10769W        W82298  24.519  28.433   1.204
10770W        W82299  32.053  27.513   1.849
10771W        W82300  37.681  28.182   1.413
10772W        W82301  44.190   5.207  11.621
10773W        W82302  27.179  17.737  13.973
10774W        W82303  42.804  39.725  12.586
10775W        W82304  17.158  13.861  13.051
10776W        W82305  20.047  23.329  12.893
10777W        W82306  17.316  21.209   3.236
10778W        W82307  16.116  43.610  11.997
10779W        W82308  24.456  14.146   1.375
10780W        W82309   0.246  37.437  12.375
10781W        W82310  38.144  31.593   1.896
10782W        W82311  20.950  31.377   4.725
10783W        W82312   7.322  21.586  12.140
10784W        W82313   6.490  40.076  10.722
10785W        W82314  19.135  33.499   2.000
10786W        W82315   7.171  27.622  12.000
10787W        W82316  26.151   9.031  12.442
10788W        W82317  27.149  40.584   2.509
10789W        W82318  16.223   3.811   0.806
10790W        W82319  29.812  17.879  12.120
10791W        W82320  33.890  19.104  14.774
10792W        W82321  26.014  12.798   3.190
10793W        W82322  32.013  14.042  12.446
10794W        W82323  30.514   0.991   2.705
10795W        W82324  28.597  28.640  14.250
10796W        W82325  23.692  24.173   3.731
10797W        W82326  28.062  39.284  12.997
10798W        W82327  15.805  23.437  14.292
10799W        W82328  36.930   0.301  11.581
10800W        W82329  37.483  26.484  13.056
10801W        W82330   5.112  13.705  13.176
10802W        W82331  25.869   3.954  13.921
10803W        W82332  19.768  23.159   4.699
10804W        W82333  40.937  29.473  10.689
10805W        W82334  18.287   7.771   4.891
10806W        W82335  13.742  16.284   1.315
10807W        W82336  44.643  23.215  13.536
10808W        W82337  37.396  32.062   4.179
10809W        W82338  30.074   9.751   4.363
10810W        W82339  39.588  11.825   4.732
10811W        W82340   8.980  10.131  14.801
10812W        W82341  28.606  24.549   1.305
10813W        W82342  10.710  21.226   1.830
10814W        W82343  34.111   0.978   3.775
10815W        W82344  27.043  21.305   0.477
10816W        W82345  35.620  28.937  14.288
10817W        W82346  16.003  34.066  12.069
10818W        W82347  30.278  37.937  10.639
10819W        W82348  24.515   3.661  13.991
10820W        W82349  32.755  35.886   2.954
10821W        W82350  27.014  22.647  11.687
10822W        W82351  30.583   2.437   2.835
10823W        W82352  22.106   9.408   1.388
10824W        W82353  16.308  19.567   2.178
10825W        W82354  39.666  15.401   1.777
10826W        W82355  20.692  32.409   4.770
10827W        W82356  43.308  44.818  12.617
10828W        W82357  18.060  14.413   2.187
10829W        W82358  26.486  24.262  11.225
10830W        W82359  28.356  32.613   5.064
10831W        W82360  29.884   7.670  14.973
10832W        W82361  18.311  38.610   3.218
10833W        W82362  36.316  28.269   3.181
10834W        W82363  34.965  27.588  12.091
10835W        W82364  18.033  11.393  12.643
10836W        W82365   2.219  43.978  10.664
10837W        W82366  11.539  15.372   3.248
10838W        W82367   0.086  34.614   3.570
10839W        W82368  23.742  11.718  13.853
10840W        W82369  22.131  20.006  10.880
10841W        W82370  37.997  24.756   3.211
10842W        W82371   8.359  35.663   2.893
10843W        W82372  14.467  39.851   4.422
10844W        W82373  25.907   6.481  11.159
10845W        W82374  43.865  22.284  12.015
10846W        W82375  40.562  16.366  13.362
10847W        W82376  20.105  32.887   0.982
10848W        W82377  34.105  17.162   4.702
10849W        W82378  21.561  31.735  14.787
10850W        W82379  19.787  15.310  10.860
10851W        W82380  25.556  41.580   4.480
10852W        W82381  18.021  44.470  13.574
10853W        W82382  33.669  11.162   0.543
10854W        W82383  39.247  37.893  14.096
10855W        W82384   2.339   8.716  12.829
10856W        W82385   1.004  14.756  12.028
10857W        W82386  40.723  33.125   4.561
10858W        W82387  14.033  39.799  13.362
10859W        W82388  17.370   8.561   0.358
10860W        W82389  42.351  38.284   3.095
10861W        W82390  34.176  25.196  14.429
10862W        W82391  16.030  36.634   3.559
10863W        W82392  44.243   9.472   0.695
10864W        W82393   2.347  21.539   4.614
10865W        W82394  44.852  14.605  12.395
10866W        W82395  18.461  31.332   0.002
10867W        W82396  15.813   0.385  12.840
10868W        W82397  18.619   2.902  13.981
10869W        W82398  26.976  40.447  14.832
10870W        W82399  36.777  22.238   4.132
10871W        W82400  21.183  17.136  13.383
10872W        W82401   9.844   9.284  10.697
10873W        W82402  13.404   7.798   0.213
10874W        W82403  27.713  41.842  11.020
10875W        W82404  42.130  31.112   2.372
10876W        W82405   2.158  16.721  12.488
10877W        W82406  27.810  11.838  13.913
10878W        W82407  23.294  35.455  13.072
10879W        W82408  18.478   7.865   1.318
10880W        W82409  12.474  37.044  11.348
10881W        W82410  21.047  22.728  14.350
10882W        W82411   7.411  33.921   4.350
10883W        W82412  44.170  32.176  13.554
10884W        W82413   3.839  44.062  11.668
10885W        W82414  10.916  35.563  14.304
10886W        W82415  10.164  19.254  14.329
10887W        W82416  23.607   8.110  14.281
10888W        W82417  28.024   9.632   4.657
10889W        W82418  42.525  43.406  13.978
10890W        W82419  43.261  15.236   2.675
10891W        W82420  41.506  43.321  11.091
10892W        W82421  12.414  41.783  11.555
10893W        W82422  17.655  25.670  12.935
10894W        W82423  39.977  30.057  14.335
10895W        W82424  38.021  26.495  12.436
10896W        W82425  43.593  44.319  11.055
10897W        W82426  17.990  36.394  11.457
10898W        W82427  18.088  13.885  11.698
10899W        W82428  14.902  22.705  11.322
10900W        W82429  23.922  15.386  11.601
10901W        W82430  24.735  16.668   1.856
10902W        W82431  44.841  16.560  12.463
10903W        W82432  31.030  41.967   4.626
10904W        W82433  41.178   1.376  12.544
10905W        W82434  21.104  44.737  10.869
10906W        W82435  21.457  33.358   1.310
10907W        W82436   3.895   2.889  13.009
10908W        W82437   6.401  25.219  10.604
10909W        W82438  41.165  11.329  10.813
10910W        W82439   0.169   2.771   1.899
10911W        W82440   1.681  28.705   2.686
10912W        W82441   3.387  18.892   5.124
10913W        W82442  30.157  15.156   4.059
10914W        W82443   6.256  34.070   1.223
10915W        W82444  27.443  15.045   0.912
10916W        W82445  42.499  23.202   3.836
10917W        W82446  26.537  42.194   2.171
10918W        W82447   0.407   1.204   4.948
10919W        W82448  34.943   6.626   0.793
10920W        W82449  13.547  27.932   4.948
10921W        W82450  29.968  12.602  11.981
10922W        W82451  19.375  35.870   2.200
10923W        W82452  23.466  32.600   4.217
10924W        W82453  19.215  41.299   2.570
10925W        W82454  38.638  26.516  11.995
10926W        W82455   4.426   4.867  12.937
10927W        W82456  43.447  39.554  14.365
10928W        W82457  35.034  24.633   0.857
10929W        W82458  19.521  15.079  11.259
10930W        W82459   4.816  33.109   3.677
10931W        W82460  40.114  30.617   4.327
10932W        W82461  26.412  14.610  13.984
10933W        W82462  10.940  32.193   0.727
10934W        W82463  21.052  38.167  11.553
10935W        W82464  29.560  22.577   1.769
10936W        W82465  13.384  44.377  13.492
10937W        W82466  26.964  16.554   1.337
10938W        W82467  23.726  31.423  12.875
10939W        W82468  27.212  10.607  12.650
10940W        W82469  33.890  10.194   1.421
10941W        W82470  20.203  26.887   1.714
10942W        W82471   0.407  27.245   1.859
10943W        W82472  21.758  42.980  10.445
10944W        W82473   0.344   1.857  11.524
10945W        W82474  16.303  22.740  11.576
10946W        W82475   6.787   0.367   4.633
10947W        W82476  37.298   0.921   1.130
10948W        W82477   2.578  24.139  13.008
10949W        W82478  29.364   5.279  12.852
10950W        W82479  33.114  33.981  12.128
10951W        W82480  26.403  30.531   2.661
10952W        W82481  40.895   1.117  12.125
10953W        W82482   9.395   0.203  12.447
10954W        W82483  29.638  23.690  10.706
10955W        W82484  15.185  10.337   0.191
10956W        W82485  11.588  30.718   4.196
10957W        W82486  17.159  38.094  10.397
10958W        W82487  31.409  26.247  12.516
10959W        W82488  27.599  12.763   4.633
10960W        W82489  18.609  19.758   1.946
10961W        W82490  27.560   3.475  11.306
10962W        W82491  26.264  11.698  11.889
10963W        W82492  43.552  22.638   4.582
10964W        W82493   7.475  16.370  10.740
10965W        W82494   8.566  25.039  13.339
10966W        W82495  20.228   2.184   0.294
10967W        W82496   8.754   9.955   4.306
10968W        W82497  44.375  25.522  10.689
10969W        W82498  10.328  21.792   5.159
10970W        W82499  15.914  43.196   3.131
10971W        W82500  20.127  36.105   2.305
10972W        W82501   0.450  41.226  12.470
10973W        W82502  29.094  25.629   9.990
10974W        W82503  34.303  19.562   1.385
10975W        W82504  34.824   7.684   1.308
10976W        W82505  10.412  25.459  14.882
10977W        W82506  21.916  22.260   2.821
10978W        W82507  42.837   2.369  11.647
10979W        W82508  24.181   4.074   2.509
10980W        W82509  36.880  28.125  11.451
10981W        W82510   7.915   4.968  13.404
10982W        W82511  10.134  28.143   3.353
10983W        W82512   5.698  39.914   4.805
10984W        W82513   4.848   6.923   2.440
10985W        W82514  16.073  13.548   0.039
10986W        W82515   1.187  22.473   0.424
10987W        W82516  37.590   2.323  13.938
10988W        W82517  32.611  15.535  13.988
10989W        W82518  44.964  29.286   0.340
10990W        W82519  32.939   7.894  12.799
10991W        W82520   6.969  26.078  13.140
10992W        W82521   3.346  37.924   4.975
10993W        W82522  40.455  13.644  11.884
10994W        W82523  43.515  23.045   4.275
10995W        W82524  13.070  18.649  14.708
10996W        W82525  43.000   9.527   1.490
10997W        W82526  32.907  44.411  13.570
10998W        W82527  15.298  38.892   1.742
10999W        W82528  28.580  14.904   1.742
11000W        W82529   5.865  14.614   3.699
11001W        W82530  19.138  41.468   2.062
11002W        W82531  39.342  29.878   4.274
11003W        W82532  23.797  37.492   4.660
11004W        W82533  10.181  39.843  14.108
11005W        W82534  22.580  17.887   0.287
11006W        W82535  14.243  30.854   0.364
11007W        W82536  27.551   0.796  10.886
11008W        W82537  41.320  11.110  12.968
11009W        W82538  33.931   5.950   2.737
11010W        W82539   7.270   6.178   2.807
11011W        W82540   3.503  28.493   3.192
11012W        W82541  12.550  27.039  13.557
11013W        W82542   0.814  31.870  14.351
11014W        W82543  29.226  23.240   4.402
11015W        W82544   6.402  25.637  14.221
11016W        W82545  28.155  21.315  12.964
11017W        W82546  37.023  43.034   2.464
11018W        W82547  29.681   4.435   2.333
11019W        W82548   2.655   4.195  14.832
11020W        W82549  28.928  20.679   0.940
11021W        W82550  30.545  32.664  14.849
11022W        W82551  38.779  11.557   3.121
11023W        W82552  30.706  31.658  11.128
11024W        W82553  31.648  36.119  11.081
11025W        W82554  37.866  16.880  12.723
11026W        W82555  36.638  15.134   0.904
11027W        W82556  21.698  15.007  11.059
11028W        W82557  34.547  16.161  12.081
11029W        W82558   7.590  12.240  10.753
11030W        W82559  38.384  12.381  10.658
11031W        W82560   3.284  11.135   2.842
11032W        W82561  35.605  44.753  12.071
11033W        W82562  15.874  20.729   0.873
11034W        W82563  23.205  33.926  13.692
11035W        W82564  42.420  44.250  11.911
11036W        W82565   6.235   4.168  11.617
11037W        W82566   2.446  26.146  13.915
11038W        W82567  31.198  16.013   0.828
11039W        W82568  19.233   4.243   3.689
11040W        W82569  15.814  25.452  14.755
11041W        W82570  32.087  32.418   4.362
11042W        W82571  30.763  20.068   3.643
11043W        W82572   0.188   6.396   2.146
11044W        W82573   9.376   0.455   0.509
11045W        W82574  32.489  26.734   0.244
11046W        W82575   0.706  18.615  14.830
11047W        W82576  14.356   9.152  14.805
11048W        W82577   1.000  26.995   4.621
11049W        W82578   7.281  26.986   3.183
11050W        W82579  39.128   0.381  13.865
11051W        W82580  33.936  17.203   0.598
11052W        W82581  34.305  14.889  13.426
11053W        W82582  22.220  22.687  14.455
11054W        W82583  33.908  26.688  14.987
11055W        W82584  37.975  26.241  11.508
11056W        W82585  14.379  13.284   0.946
11057W        W82586   9.732  25.131  10.198
11058W        W82587  29.971  43.775  11.173
11059W        W82588  39.891  37.269   4.954
11060W        W82589  32.624  27.641   2.686
11061W        W82590   7.205   3.230   0.920
11062W        W82591  34.421  44.448  13.613
11063W        W82592  14.897  35.080  12.933
11064W        W82593  22.968  28.187  12.136
11065W        W82594  27.873  15.911   0.333
11066W        W82595  26.156  13.030   4.669
11067W        W82596  14.736   8.409   4.112
11068W        W82597  27.031  22.266  12.120
11069W        W82598   8.008   4.661   4.172
11070W        W82599  24.525  35.555   0.247
11071W        W82600  16.610  14.298   4.630
11072W        W82601  41.307  13.027   2.176
11073W        W82602   2.828  27.067   2.428
11074W        W82603  44.438  20.213  11.161
11075W        W82604  39.668   8.358   0.473
11076W        W82605   1.063  11.232  13.784
11077W        W82606   6.116   3.291   4.159
11078W        W82607  37.931  20.128   1.164
11079W        W82608  31.759   5.164  14.928
11080W        W82609  34.956   4.480   1.907
11081W        W82610  34.623   8.703  11.530
11082W        W82611  11.816  38.696   0.764
11083W        W82612  17.066  10.194  11.826
11084W        W82613  22.870  38.944  12.159
11085W        W82614  36.782  41.385  13.538
11086W        W82615  41.920  22.708   2.826
11087W        W82616   5.712  43.627   4.637
11088W        W82617  19.336   6.833   4.911
11089W        W82618   5.976   5.474   4.475
11090W        W82619  38.973  17.805   1.959
11091W        W82620   3.232   6.648   5.059
11092W        W82621  35.151   9.302   4.469
11093W        W82622  13.402  40.878  13.824
11094W        W82623  43.364  16.033   4.624
11095W        W82624  42.321  15.885  11.713
11096W        W82625  21.040  11.142   1.222
11097W        W82626  32.231  28.528   1.349
11098W        W82627  39.061  21.905   2.198
11099W        W82628   6.843  40.940   2.452
11100W        W82629  37.487   2.058   2.695
11101W        W82630  43.762  21.397  11.731
11102W        W82631  28.412   2.657   3.261
11103W        W82632   6.849  30.508   2.208
11104W        W82633  29.764  17.250   0.218
11105W        W82634  29.493  33.922   1.533
11106W        W82635  17.669   5.666  12.143
11107W        W82636  21.524  23.732  10.706
11108W        W82637  27.085  24.654   4.546
11109W        W82638   5.508  35.816   0.106
11110W        W82639  40.371  33.949   2.093
11111W        W82640  11.350   1.267  13.035
11112W        W82641  15.715  19.223  10.581
11113W        W82642  41.537   4.656  11.059
11114W        W82643  32.650  19.430   2.534
11115W        W82644  16.811  20.981   2.362
11116W        W82645  37.144  31.807  11.070
11117W        W82646  21.163  41.946   3.626
11118W        W82647   1.368   9.427   0.289
11119W        W82648   9.424   1.428   2.725
11120W        W82649  44.999  17.735  12.150
11121W        W82650  21.100   2.316  12.798
11122W        W82651  35.986  10.569   3.389
11123W        W82652   8.855  25.611   2.831
11124W        W82653  20.115  21.090  11.456
11125W        W82654  25.641  10.369  10.681
11126W        W82655  44.707   5.258  12.416
11127W        W82656   5.365  19.236   1.285
11128W        W82657  27.149  29.577  11.692
11129W        W82658   1.752  39.331   3.029
11130W        W82659  44.659   1.889  12.243
11131W        W82660  13.168   6.692   4.510
11132W        W82661   9.232  32.435   2.946
11133W        W82662  33.169  36.102  12.010
11134W        W82663  35.780  22.348   1.521
11135W        W82664   4.838   5.129   5.022
11136W        W82665  31.627  40.030   3.183
11137W        W82666  35.645  25.608  10.595
11138W        W82667   8.595  38.053  12.082
11139W        W82668   5.484   3.594   0.397
11140W        W82669  10.223  24.622   3.382
11141W        W82670  44.435  37.940  11.693
11142W        W82671  35.487  18.188   4.688
11143W        W82672  25.603  39.805   0.701
11144W        W82673  42.267  23.015   0.407
11145W        W82674  28.522  18.920  12.426
11146W        W82675  35.939  23.290  12.309
11147W        W82676  43.900  14.809   4.185
11148W        W82677  37.376   2.091  12.511
11149W        W82678  11.038  17.244   4.029
11150W        W82679  42.391  30.133   3.237
11151W        W82680  38.803   5.247   3.516
11152W        W82681  31.157   7.680   4.234
11153W        W82682  38.419  31.057  14.043
11154W        W82683  40.049   3.950   2.594
11155W        W82684  13.147  22.832   4.059
11156W        W82685  22.936  20.865   2.415
11157W        W82686  20.168  28.760   0.740
11158W        W82687  25.910  26.037   4.586
11159W        W82688  12.725  21.917  11.208
11160W        W82689  27.136  32.659  13.345
11161W        W82690  38.588  38.017   1.421
11162W        W82691  34.421  10.767   0.827
11163W        W82692   2.597   8.054   0.861
11164W        W82693   0.745  19.705   5.057
11165W        W82694   4.778   5.286   1.682
11166W        W82695  29.052  21.692   4.778
11167W        W82696  14.057   9.949  12.065
11168W        W82697  34.866  43.950  12.425
11169W        W82698  43.748  21.562   4.257
11170W        W82699   0.794  31.956  11.971
11171W        W82700  41.758  18.867  13.275
11172W        W82701  16.158  33.878   3.633
11173W        W82702  21.781  30.484  10.879
11174W        W82703  43.650  20.286   4.178
11175W        W82704  31.595   7.652   3.376
11176W        W82705  23.768  11.492   0.583
11177W        W82706  39.347  31.645  12.057
11178W        W82707  43.917  38.252  13.422
11179W        W82708  30.347  13.373  14.876
11180W        W82709  42.443  43.756   0.816
11181W        W82710  42.560   1.923  14.294
11182W        W82711  19.279  10.716   2.836
11183W        W82712  38.850  24.591   0.736
11184W        W82713  15.742  17.085   0.146
11185W        W82714  32.545  22.213  14.253
11186W        W82715  39.593  28.281   0.809
11187W        W82716  22.796  40.207  12.415
11188W        W82717  13.253  34.901   1.343
11189W        W82718  26.915  30.571  11.695
11190W        W82719   8.109   1.993   0.786
11191W        W82720  21.521   4.712   5.298
11192W        W82721  41.465  16.511  11.244
11193W        W82722  11.693   4.453   1.914
11194W        W82723  12.381  33.464   0.252
11195W        W82724   4.191  34.164   0.934
11196W        W82725  21.621  33.506  11.149
11197W        W82726  16.939   7.790  12.481
11198W        W82727  41.714   5.513   1.181
11199W        W82728  31.617   4.882   1.880
11200W        W82729  22.222   2.013   0.399
11201W        W82730  26.090  22.812  12.983
11202W        W82731  20.687  16.653  12.580
11203W        W82732   6.963   3.812   0.778
11204W        W82733  21.845  41.575   0.203
11205W        W82734   4.455  16.684   0.033
11206W        W82735  44.040  27.434  13.849
11207W        W82736  25.464  38.920   2.824
11208W        W82737  26.498  13.370  13.416
11209W        W82738   9.060  43.011   0.715
11210W        W82739  12.386  16.768  11.628
11211W        W82740  28.599  22.271   1.325
11212W        W82741  24.332  10.820  12.062
11213W        W82742  21.630  41.288  14.277
11214W        W82743  18.244  31.058   1.983
11215W        W82744  13.089  29.906  14.256
11216W        W82745   7.892  16.147   3.213
11217W        W82746   3.525  16.589  13.313
11218W        W82747  11.759  30.403   3.359
11219W        W82748  28.869  14.154   2.894
11220W        W82749  36.443  40.052   0.245
11221W        W82750  34.568  26.847   4.137
11222W        W82751  37.553  33.996   2.732
11223W        W82752  20.743   2.117  14.041
11224W        W82753  24.295  10.335   0.906
11225W        W82754  35.251  33.429   2.688
11226W        W82755  21.804  24.609  12.121
11227W        W82756  29.021  33.081   3.324
11228W        W82757   9.061  44.300  11.129
11229W        W82758   4.869  24.587  14.722
11230W        W82759   4.987  26.186  11.586
11231W        W82760  42.861  18.238  13.252
11232W        W82761  33.438   0.447  12.614
11233W        W82762  27.945  20.668   3.616
11234W        W82763  40.568  30.625   1.232
11235W        W82764  14.725  15.332   1.420
11236W        W82765  15.521  26.747   4.542
11237W        W82766   5.842  37.286  14.787
11238W        W82767   2.358   0.991   1.345
11239W        W82768  16.045  42.289  13.520
11240W        W82769  41.319  15.697  13.911
11241W        W82770   4.232  41.046  14.849
11242W        W82771  27.425  34.853   3.120
11243W        W82772  30.518  23.494   3.123
11244W        W82773  21.709  19.255   0.844
11245W        W82774   2.556  35.073   2.782
11246W        W82775  40.127  19.586  12.065
11247W        W82776  30.963  33.916   0.471
11248W        W82777  18.506  12.048   0.505
11249W        W82778  20.022   2.337  14.308
11250W        W82779  33.648   0.300   0.935
11251W        W82780  11.780  32.122   4.313
11252W        W82781   9.716   7.512  14.916
11253W        W82782  25.686  16.282  11.098
11254W        W82783  21.898  27.746  12.298
11255W        W82784  18.225  20.562  14.321
11256W        W82785  38.546  27.680   2.756
11257W        W82786   1.717  18.101  11.657
11258W        W82787  17.160  40.004   2.773
11259W        W82788   1.239   8.631  13.939
11260W        W82789  43.968  26.926   1.009
11261W        W82790  39.848  28.607  10.698
11262W        W82791  42.832  21.512  14.851
11263W        W82792  39.887  28.415   3.320
11264W        W82793  23.728  25.733   4.013
11265W        W82794  12.388   6.551   2.670
11266W        W82795  11.359   2.785  13.505
11267W        W82796  29.229   5.311  12.013
11268W        W82797  39.300  14.167   4.623
11269W        W82798   1.043   0.776  13.971
11270W        W82799  28.877  28.596   3.697
11271W        W82800  41.279  32.260  14.390
11272W        W82801  15.688  38.547  10.687
11273W        W82802   4.686   5.446   4.154
11274W        W82803  12.405   9.659   0.388
11275W        W82804   0.225  20.134   0.743
11276W        W82805   2.797   3.838   4.335
11277W        W82806  28.029  16.343  14.447
11278W        W82807  32.111  21.240   2.790
11279W        W82808  13.791   6.058  11.640
11280W        W82809  29.924  33.981  14.689
11281W        W82810  38.959   0.629   3.713
11282W        W82811  38.923  14.483  10.069
11283W        W82812  42.801  16.517   0.413
11284W        W82813  12.046  34.954  12.216
11285W        W82814  31.610  14.093   4.155
11286W        W82815  41.868  24.083   4.652
11287W        W82816  39.016  40.246  13.635
11288W        W82817  36.540  12.925  10.143
11289W        W82818  20.831  40.982   3.173
11290W        W82819  28.572   3.981  13.946
11291W        W82820  18.633  36.962  11.726
11292W        W82821  20.837   1.295   0.347
11293W        W82822   8.616  24.712  11.139
11294W        W82823   1.986  34.065   3.214
11295W        W82824   0.975  42.832   1.127
11296W        W82825  16.059  40.031  10.244
11297W        W82826  39.995  25.450  12.507
11298W        W82827  12.413  27.648   4.639
11299W        W82828  29.822  23.036   1.771
11300W        W82829  31.165   1.447   2.674
11301W        W82830  32.955   3.981   1.764
11302W        W82831   3.915   8.657  10.479
11303W        W82832  37.891  37.151   4.907
11304W        W82833  33.102   6.692   0.194
11305W        W82834   9.163  27.221   1.277
11306W        W82835  15.286  15.799  13.701
11307W        W82836  12.663  23.975   0.301
11308W        W82837  33.197   9.676  14.327
11309W        W82838   3.418  34.969   4.962
11310W        W82839  30.913   7.371  11.976
11311W        W82840  27.885  12.051  10.004
11312W        W82841  19.379  35.610   0.734
11313W        W82842   1.200  27.630   3.369
11314W        W82843   0.764   8.236   1.382
11315W        W82844  21.217   5.628  10.119
11316W        W82845  40.308  19.146  14.868
11317W        W82846  43.698  30.381   2.438
11318W        W82847  18.521  29.141  13.025
11319W        W82848   8.208  21.690  12.517
11320W        W82849  17.296  40.583  14.033
11321W        W82850  12.089   4.388   1.593
11322W        W82851  32.054  35.618   0.899
11323W        W82852  17.033  36.292   0.723
11324W        W82853   0.882  35.982   5.226
11325W        W82854  22.966  32.326  12.037
11326W        W82855  35.716   7.169   1.343
11327W        W82856  11.342  22.782   3.232
11328W        W82857  34.076   2.635  12.093
11329W        W82858  22.685  42.222   0.367
11330W        W82859  35.058  38.049  14.501
11331W        W82860  22.340  11.701   2.696
11332W        W82861  10.108  24.076   4.198
11333W        W82862  31.943  33.281   1.504
11334W        W82863  43.202  41.346   1.370
11335W        W82864   7.294  12.774   0.686
11336W        W82865  28.408   6.002  14.094
11337W        W82866  15.127   7.957  12.160
11338W        W82867   2.502  42.207  13.425
11339W        W82868  40.072   6.943   4.179
11340W        W82869   9.697  12.457  10.672
11341W        W82870  39.720  40.314  10.999
11342W        W82871   7.846   7.593   9.878
11343W        W82872  16.772  36.324   4.324
11344W        W82873  24.943  18.851   4.640
11345W        W82874  25.021  23.177   0.247
11346W        W82875  31.648  27.477   3.751
11347W        W82876  38.673  12.724   1.166
11348W        W82877   2.186  30.927   0.059
11349W        W82878   3.885  37.981  14.574
11350W        W82879  21.685  20.488   1.310
11351W        W82880  32.417   1.420  11.600
11352W        W82881   3.496  36.348   0.502
11353W        W82882  14.624  37.522   2.434
11354W        W82883  30.962   4.454   2.213
11355W        W82884   3.285  23.044   3.377
11356W        W82885  16.261  38.835  11.655
11357W        W82886   5.407  41.383  13.653
11358W        W82887  40.688  22.177   1.529
11359W        W82888  16.272  35.435  12.454
11360W        W82889   0.542  42.822  12.546
11361W        W82890  26.585  28.588  10.661
11362W        W82891  20.148  44.035  12.575
11363W        W82892  10.204  29.929   2.286
11364W        W82893  42.699  10.444   2.718
11365W        W82894  36.777  42.096  13.118
11366W        W82895  35.636  30.698  12.486
11367W        W82896  21.187  18.232   2.775
11368W        W82897   0.179  34.695   2.137
11369W        W82898  44.122   8.438  14.814
11370W        W82899  10.970  24.627  12.939
11371W        W82900  33.347  11.750   4.167
11372W        W82901  12.013  15.218   1.819
11373W        W82902  36.808  14.333  13.522
11374W        W82903  11.108   0.737   1.343
11375W        W82904  29.099  17.127  10.806
11376W        W82905  28.756  33.148  13.058
11377W        W82906  11.910  31.116   4.107
11378W        W82907  31.982  10.720  13.847
11379W        W82908   1.436   5.850  13.572
11380W        W82909  13.734  11.062  13.814
11381W        W82910  40.479   9.741  14.436
11382W        W82911  20.011  22.637  14.226
11383W        W82912  15.247   8.313   3.247
11384W        W82913  22.456  17.253  11.547
11385W        W82914   3.265  31.975   5.314
11386W        W82915  29.203  38.935   3.056
11387W        W82916  43.267  41.448  10.874
11388W        W82917  37.115  15.610  14.452
11389W        W82918  20.038  32.320  12.404
11390W        W82919  41.666  16.020   1.667
11391W        W82920  15.041   5.352  12.108
11392W        W82921  37.960  29.935   1.225
11393W        W82922   5.387  40.657   3.195
11394W        W82923   6.643  30.075   4.876
11395W        W82924   3.800  40.806  10.642
11396W        W82925   2.391  34.648  11.990
11397W        W82926  22.963  23.518  13.114
11398W        W82927   0.523  18.519   0.375
11399W        W82928   5.706  25.409   2.830
11400W        W82929  24.729  11.862   3.891
11401W        W82930  15.109  33.560   4.356
11402W        W82931  22.583  40.482  10.251
11403W        W82932  12.252  18.763   2.263
11404W        W82933  15.417  19.196   1.809
11405W        W82934   2.218  26.388   3.219
11406W        W82935   8.084   2.851   2.799
11407W        W82936  35.798  32.529   1.644
11408W        W82937   0.202   7.709  13.121
11409W        W82938   2.859   8.387   2.991
11410W        W82939  29.278  40.957   2.338
11411W        W82940  18.949  16.588   2.257
11412W        W82941  11.421  32.965  13.624
11413W        W82942  12.783   2.209  12.134
11414W        W82943  33.388  19.190  12.894
11415W        W82944  36.883  44.980  11.985
11416W        W82945  14.786  31.139   2.626
11417W        W82946   9.770   4.810   4.482
11418W        W82947  15.606  11.575   1.475
11419W        W82948  22.620  26.724   0.933
11420W        W82949   0.377  18.112   4.592
11421W        W82950   2.223  40.044   4.046
11422W        W82951  32.509   4.951   2.355
11423W        W82952   0.052  30.060   4.044
11424W        W82953  42.435  42.406  13.955
11425W        W82954   3.518  41.416   1.668
11426W        W82955  13.380  32.887   3.683
11427W        W82956   4.737  26.025  11.166
11428W        W82957  41.474   7.684  11.612
11429W        W82958   4.189  35.388  10.665
11430W        W82959  12.823  27.569   3.357
11431W        W82960  32.511  40.583  10.654
11432W        W82961  15.719  33.010  13.007
11433W        W82962  12.218  27.703  13.133
11434W        W82963  17.527  24.419  14.597
11435W        W82964  30.115  43.860   1.718
11436W        W82965   3.653   0.440  13.345
11437W        W82966  30.050  36.054  13.407
11438W        W82967  14.820   4.823   1.849
11439W        W82968  44.508  31.468   4.537
11440W        W82969   7.324  37.484   2.777
11441W        W82970  22.424  16.127   3.651
11442W        W82971  15.282  28.431   0.866
11443W        W82972  12.888  22.250  14.881
11444W        W82973   2.770  21.376  14.022
11445W        W82974  19.198  32.060   0.212
11446W        W82975   8.602  44.551   4.084
11447W        W82976   6.514   2.837  11.566
11448W        W82977  22.133  16.992  12.290
11449W        W82978  23.953  19.825   0.380
11450W        W82979  19.495  39.748   2.155
11451W        W82980  30.544  22.147   4.447
11452W        W82981  13.326  28.810   1.433
11453W        W82982  12.263  29.408   2.208
11454W        W82983  41.508   7.887   3.839
11455W        W82984   5.405  20.255  11.986
11456W        W82985   7.391  28.506  12.993
11457W        W82986  43.912  14.167  14.915
11458W        W82987   8.350  22.044  10.766
11459W        W82988  37.959  20.340   2.922
11460W        W82989  37.899   4.882  11.150
11461W        W82990  31.904   9.923  14.088
11462W        W82991  18.586  20.030  10.973
11463W        W82992  17.272  18.178   3.194
11464W        W82993  18.654   6.573  13.409
11465W        W82994  20.296  14.225  11.526
11466W        W82995  30.947   3.527   4.174
11467W        W82996   0.946  16.301   3.098
11468W        W82997  11.368  37.510  13.387
11469W        W82998  39.785  39.532  13.837
11470W        W82999  40.772  19.201   4.181
11471W        W83000  22.230  20.723   1.745
11472W        W83001  13.248  26.946   2.652
11473W        W83002  15.301  35.514   2.260
11474W        W83003   7.169   6.719  12.412
11475W        W83004   2.466  11.705  12.032
11476W        W83005   0.308  43.771  11.321
11477W        W83006  43.044  42.424   4.557
11478W        W83007  33.607  22.047  11.571
11479W        W83008  28.410  31.715   4.998
11480W        W83009   5.461  19.621   3.104
11481W        W83010   2.767  18.123   0.384
11482W        W83011  30.426  30.974  10.706
11483W        W83012  24.741  41.177  11.846
11484W        W83013  29.931  24.595   4.903
11485W        W83014  27.398   9.735   0.469
11486W        W83015  42.254   3.200   4.495
11487W        W83016  40.730  38.566   1.414
11488W        W83017  25.447  10.223  14.489
11489W        W83018  40.212  15.661   1.147
11490W        W83019  25.227  40.463  13.410
11491W        W83020  20.004   6.108  11.577
11492W        W83021  38.111   1.191  11.697
11493W        W83022  17.092   8.312  12.422
11494W        W83023  44.815   0.228  12.020
11495W        W83024  19.959  15.796  10.992
11496W        W83025  25.090  36.893  10.522
11497W        W83026  42.282   9.414   2.085
11498W        W83027  41.893  39.925  12.132
11499W        W83028  17.898  33.976  11.062
11500W        W83029   2.627  18.535  10.755
11501W        W83030  43.749  34.253   3.416
11502W        W83031   2.027  24.206   4.027
11503W        W83032  33.579  35.653   5.067
11504W        W83033   6.646  20.732   9.832
11505W        W83034  44.221  41.949   4.025
11506W        W83035  26.304  27.376   0.968
11507W        W83036  14.200  16.263   3.453
11508W        W83037  15.170  33.096   4.116
11509W        W83038  12.065  13.406  12.986
11510W        W83039  26.450  13.589  12.925
11511W        W83040   9.819  38.997   2.442
11512W        W83041  41.477   5.450  13.859
11513W        W83042  32.043  19.143   4.960
11514W        W83043  41.334  37.063  12.941
11515W        W83044   8.140   3.900   4.533
11516W        W83045  25.581  17.493   4.151
11517W        W83046  33.671   8.916  13.960
11518W        W83047   4.459  42.359   0.350
11519W        W83048  36.095   1.662   1.012
11520W        W83049  24.305  32.530  14.822
11521W        W83050   1.073  24.463  14.938
11522W        W83051   1.164  38.270  13.088
11523W        W83052  18.903  33.784   5.056
11524W        W83053  31.563  32.738  11.176
11525W        W83054  36.008  32.688   0.792
11526W        W83055   8.628  14.055   1.303
11527W        W83056  38.025  39.048   4.848
11528W        W83057  41.144   8.326  14.929
11529W        W83058   1.584  16.385   1.852
11530W        W83059  42.566  22.504   4.914
11531W        W83060  25.687  34.063   4.050
11532W        W83061  27.117   2.884  13.443
11533W        W83062  25.914  31.443   2.936
11534W        W83063  24.974  15.633  13.019
11535W        W83064  19.371   0.848   4.548
11536W        W83065  23.799  24.000  13.066
11537W        W83066   9.736  30.822  11.077
11538W        W83067   2.283  23.475   3.700
11539W        W83068   6.583  36.460   0.736
11540W        W83069  10.345  33.239  12.678
11541W        W83070  10.163  13.763  12.659
11542W        W83071  16.618  21.858   1.668
11543W        W83072   5.006   6.712   1.449
11544W        W83073  40.894  40.847   4.807
11545W        W83074  34.596  44.338  11.645
11546W        W83075   3.616  15.911   3.429
11547W        W83076  17.854  25.672   0.751
11548W        W83077   1.713  43.204  12.521
11549W        W83078  31.446   0.942   2.640
11550W        W83079  19.982  16.816  13.835
11551W        W83080  36.321  41.661   3.012
11552W        W83081  44.874  24.296  13.329
11553W        W83082  40.161  26.666  11.063
11554W        W83083  12.320  32.402   3.811
11555W        W83084  29.276   6.434  13.279
11556W        W83085  41.783   1.801  14.976
11557W        W83086   4.457  16.335  10.664
11558W        W83087  30.200  29.084  10.650
11559W        W83088  13.322   7.281   5.031
11560W        W83089  15.282  32.861  13.228
11561W        W83090  26.865  37.698  14.827
11562W        W83091  37.068  22.243   2.286
11563W        W83092  17.618   9.411   1.990
11564W        W83093   6.095  22.391   5.285
11565W        W83094  26.214  26.798   2.366
11566W        W83095  26.584  25.526   2.730
11567W        W83096  12.139  35.902   0.307
11568W        W83097  31.541   9.412   4.200
11569W        W83098  23.282   0.530  12.553
11570W        W83099  41.298  18.566   0.385
11571W        W83100  23.254  44.492   0.028
11572W        W83101  22.963  31.409  11.464
11573W        W83102  36.066  27.485   2.858
11574W        W83103  29.065  19.101   4.185
11575W        W83104  35.947  40.384   1.421
11576W        W83105   4.214  20.810  14.873
11577W        W83106  12.713  38.663  13.717
11578W        W83107  10.275  38.972   0.918
11579W        W83108  27.387  25.405  12.526
11580W        W83109  21.588  20.245  14.845
11581W        W83110  38.793  18.315  12.906
11582W        W83111   2.793  42.430   4.058
11583W        W83112  16.164  22.608   0.171
11584W        W83113  36.751  13.366   3.828
11585W        W83114   4.066  29.052   1.434
11586W        W83115  29.098  30.503  11.929
11587W        W83116   3.176  13.822   0.878
11588W        W83117  26.115   4.298   4.579
11589W        W83118  27.079   6.143  10.723
11590W        W83119  37.138   6.859  14.767
11591W        W83120  10.235  33.995   0.923
11592W        W83121  24.245  18.579   0.057
11593W        W83122   5.295  14.069   2.494
11594W        W83123  10.297  32.198  11.157
11595W        W83124   4.820   8.191  14.754
11596W        W83125  39.322  36.553   0.071
11597W        W83126  41.529  36.292  11.745
11598W        W83127  12.853  32.378   3.713
11599W        W83128  22.642  30.987  11.600
11600W        W83129  39.643  19.788   0.839
11601W        W83130   5.537  32.029  11.498
11602W        W83131  21.529  35.843  11.575
11603W        W83132  44.759  32.853   3.201
11604W        W83133  26.910  18.516  13.035
11605W        W83134  40.450  14.354   2.835
11606W        W83135  31.740  43.214  14.389
11607W        W83136  44.282  37.678   2.791
11608W        W83137  17.469  28.385   3.180
11609W        W83138  15.575  40.332   4.580
11610W        W83139   6.743  41.925   2.186
11611W        W83140  20.656  17.339  14.863
11612W        W83141  33.455  37.396   3.165
11613W        W83142  12.172  26.077  13.955
11614W        W83143  43.945  40.133  11.108
11615W        W83144  14.662  31.999  14.530
11616W        W83145   7.625  34.077   1.374
11617W        W83146  32.889  20.142   1.370
11618W        W83147  32.079   7.802  14.952
11619W        W83148  13.783  11.314  11.674
11620W        W83149  15.819  11.354  13.019
11621W        W83150  16.456  18.681   1.344
11622W        W83151   5.394  18.735  14.415
11623W        W83152   1.677   4.381  12.328
11624W        W83153  44.489   9.326   4.056
11625W        W83154  33.578  23.924  12.102
11626W        W83155  27.178   8.587  13.889
11627W        W83156   7.939  19.440   2.274
11628W        W83157  33.976  11.305   0.944
11629W        W83158  17.241  44.295   4.118
11630W        W83159  28.571   4.254  14.982
11631W        W83160  43.083  44.852  12.122
11632W        W83161  19.405  39.038   2.243
11633W        W83162  37.609  31.085   1.654
11634W        W83163  39.878  27.442   1.074
11635W        W83164  21.262   9.428  10.661
11636W        W83165  21.970  25.866  13.544
11637W        W83166  22.795   9.440  11.581
11638W        W83167  31.837  37.948   3.157
11639W        W83168  29.609   3.126   3.829
11640W        W83169   4.243  29.596  14.470
11641W        W83170  22.639  25.520   2.824
11642W        W83171  43.684  20.206  12.336
11643W        W83172  10.630  37.236   2.259
11644W        W83173  22.109  24.022   1.941
11645W        W83174  14.715   5.111  13.266
11646W        W83175   8.330  39.552   2.691
11647W        W83176  26.347  14.820   2.269
11648W        W83177   9.775  41.459   3.794
11649W        W83178  21.078   2.911   4.984
11650W        W83179  32.472  31.403   3.193
11651W        W83180  32.607  13.300   2.133
11652W        W83181   3.877  40.445   3.014
11653W        W83182   5.775  25.996  12.947
11654W        W83183  42.303  36.581   3.910
11655W        W83184  34.340   7.098  11.285
11656W        W83185  14.096  27.037   3.197
11657W        W83186   9.725  36.615  12.601
11658W        W83187  43.943  31.614   2.300
11659W        W83188  26.099   7.709   4.771
11660W        W83189  41.283  26.654   4.654
11661W        W83190   5.174  44.567  13.325
11662W        W83191  23.540  38.453  13.129
11663W        W83192   1.386   4.697   4.444
11664W        W83193  21.692  31.231  14.810
11665W        W83194  42.386  27.158   4.977
11666W        W83195   8.749  16.270   2.644
11667W        W83196  44.132  37.834   0.341
11668W        W83197  42.887  20.750  11.478
11669W        W83198  32.993  20.333   3.212
11670W        W83199  34.302  26.665  10.019
11671W        W83200  28.633  33.544   2.139
11672W        W83201  36.898  24.555  14.457
11673W        W83202  26.176  10.445  10.660
11674W        W83203  23.190  43.553   1.734
11675W        W83204  44.274  39.053   1.697
11676W        W83205   1.412  34.782   2.353
11677W        W83206  22.863  36.751  14.291
11678W        W83207  20.542  24.122   2.756
11679W        W83208  16.793  40.253   0.108
11680W        W83209  28.856   2.637   4.058
11681W        W83210  26.015   4.327   2.727
11682W        W83211  32.913  27.904  12.310
11683W        W83212   1.589  11.574  11.865
11684W        W83213  41.805  35.542  11.985
11685W        W83214  21.715   0.973  14.039
11686W        W83215   0.718  23.936   2.147
11687W        W83216   4.796  29.464  13.113
11688W        W83217  14.302  22.091  10.570
11689W        W83218   8.368  24.916   3.254
11690W        W83219  29.436   5.439   2.238
11691W        W83220  29.852  13.657   4.697
11692W        W83221  22.654  42.745   1.784
11693W        W83222  20.987  15.487   3.262
11694W        W83223  33.296  29.537   4.605
11695W        W83224  29.813  24.587  13.443
11696W        W83225  42.491  16.203   1.891
11697W        W83226  22.775  36.967  10.684
11698W        W83227  23.302  11.398  13.900
11699W        W83228  21.459  10.319   2.335
11700W        W83229   7.750  20.095  12.611
11701W        W83230   6.495  43.581  11.993
11702W        W83231  30.544  44.416   4.447
11703W        W83232  44.743  15.297  14.921
11704W        W83233   7.492  15.240   0.267
11705W        W83234  30.987  15.070   2.746
11706W        W83235  14.505   1.480  14.479
11707W        W83236  29.511  13.541  10.048
11708W        W83237   6.163  14.703  13.970
11709W        W83238  28.083  22.242   4.629
11710W        W83239  18.670   2.882  10.946
11711W        W83240   3.262  29.167   4.949
11712W        W83241   6.716  32.046  10.845
11713W        W83242  37.786   3.933  13.295
11714W        W83243   7.352  27.721   1.326
11715W        W83244  20.170  33.130   1.425
11716W        W83245   6.714  35.150  12.975
11717W        W83246  36.418  31.625   1.368
11718W        W83247   7.778  33.111  14.356
11719W        W83248   3.794   8.161  14.898
11720W        W83249   2.473  11.864  14.760
11721W        W83250   6.357   9.281  13.003
11722W        W83251  20.931  11.741  14.970
11723W        W83252   0.382  24.145   3.082
11724W        W83253   8.956  37.358   4.390
11725W        W83254  24.828   1.083  11.852
11726W        W83255  36.929  44.274  14.492
11727W        W83256  39.882  37.372   3.330
11728W        W83257  23.916  18.025   2.906
11729W        W83258  42.018  44.677  13.081
11730W        W83259  25.523  20.908   4.851
11731W        W83260  24.421  19.400  13.543
11732W        W83261   8.292  11.678  11.748
11733W        W83262  12.706  21.987  12.982
11734W        W83263  38.598   5.456  12.788
11735W        W83264  11.315  34.626   3.722
11736W        W83265   4.790  33.129  10.956
11737W        W83266  35.802  38.413   1.639
11738W        W83267  39.632   7.813   1.402
11739W        W83268  21.265  17.942   1.878
11740W        W83269   5.207  10.118  13.861
11741W        W83270  17.521  37.519   2.528
11742W        W83271  40.770  17.354   3.299
11743W        W83272  42.009  26.485  10.809
11744W        W83273  27.082  14.883   2.248
11745W        W83274  32.798   8.973  14.950
11746W        W83275  16.607  23.505  14.007
11747W        W83276  29.090   2.490   4.489
11748W        W83277  14.359  12.284  14.996
11749W        W83278  17.617  35.257   4.604
11750W        W83279  42.309  33.512  13.296
11751W        W83280  16.112  18.147  11.618
11752W        W83281  25.333  20.577  11.107
11753W        W83282  29.614  40.121   1.786
11754W        W83283  13.858   2.858   1.357
11755W        W83284   1.930   7.927   3.663
11756W        W83285   3.333  41.942   3.254
11757W        W83286  42.721  15.440   0.979
11758W        W83287  37.585  28.845  13.109
11759W        W83288  39.051   6.443   2.118
11760W        W83289  18.553  17.670   0.396
11761W        W83290   2.817  26.436   4.585
11762W        W83291   1.812  12.940  14.846
11763W        W83292  35.536  20.218   3.640
11764W        W83293  36.529   8.726   2.181
11765W        W83294  21.217   7.651   2.258
11766W        W83295   9.162  41.794  12.101
11767W        W83296  17.564  16.692  10.750
11768W        W83297  26.409  26.134   4.154
11769W        W83298  30.516  33.899   1.243
11770W        W83299  33.797   0.922  13.522
11771W        W83300  38.399   8.506  14.405
11772W        W83301  19.454  10.306   1.931
11773W        W83302  43.502  20.352   0.611
11774W        W83303  21.225  36.470  11.066
11775W        W83304  38.886  22.532  13.967
11776W        W83305  24.530  37.200   1.732
11777W        W83306  28.987  18.050   4.638
11778W        W83307  10.122  36.164   5.133
11779W        W83308  31.675  35.320  14.455
11780W        W83309  35.979  44.314   0.748
11781W        W83310  29.366  39.439  14.473
11782W        W83311  26.900   1.484  12.093
11783W        W83312  41.828  11.231  12.829
11784W        W83313   5.576  16.602   0.931
11785W        W83314  39.395  40.572   2.790
11786W        W83315  23.178  10.361  13.874
11787W        W83316  23.118  43.985   4.634
11788W        W83317  36.840   3.896   4.422
11789W        W83318  31.380  42.241   0.852
11790W        W83319  22.467  39.360   0.332
11791W        W83320  21.007   7.341   3.461
11792W        W83321  33.257  38.389  12.546
11793W        W83322  27.772  13.238   1.908
11794W        W83323  18.996  23.786  11.506
11795W        W83324   0.700  34.810  11.268
11796W        W83325   5.441  15.771   2.199
11797W        W83326  24.367  24.383  13.922
11798W        W83327  34.400  38.851  10.713
11799W        W83328  41.363   2.867  12.467
11800W        W83329  14.573   1.509   0.943
11801W        W83330  13.361  15.855   3.237
11802W        W83331   8.072  22.747  10.000
11803W        W83332  40.339  24.541   2.846
11804W        W83333  43.860  21.987   2.037
11805W        W83334  15.928  37.867  13.113
11806W        W83335  44.127  21.776  14.371
11807W        W83336  42.510  34.637  13.334
11808W        W83337   0.366  35.630  11.217
11809W        W83338  27.557  13.281  11.972
11810W        W83339  18.155  23.041   3.684
11811W        W83340   7.392  14.372  14.238
11812W        W83341  10.679  33.382  11.489
11813W        W83342  44.496  22.078   3.718
11814W        W83343  36.686  24.350  11.105
11815W        W83344   9.755  30.361   0.234
11816W        W83345  13.128  38.772   3.243
11817W        W83346  18.693   1.995  12.934
11818W        W83347  10.873  40.455  14.833
11819W        W83348  19.044  21.336  13.937
11820W        W83349  19.816  11.775   9.831
11821W        W83350  25.888  21.043  14.303
11822W        W83351   8.327   8.248  12.845
11823W        W83352  27.889  11.714   2.298
11824W        W83353  43.869  37.409   1.173
11825W        W83354  14.634  21.524   4.590
11826W        W83355  12.276  23.567  12.611
11827W        W83356  35.677  10.613  11.399
11828W        W83357   7.878  20.660  13.928
11829W        W83358  34.655  14.832   3.782
11830W        W83359  24.555  26.398  13.382
11831W        W83360  30.990  13.714  13.115
11832W        W83361   7.593  44.301  12.981
11833W        W83362  16.549  12.586  12.001
11834W        W83363   2.432  34.913   0.919
11835W        W83364  43.823  14.896  11.538
11836W        W83365  31.079  41.275  10.588
11837W        W83366  19.512  18.636   1.470
11838W        W83367   6.241  32.400  14.727
11839W        W83368  27.949   2.938   3.174
11840W        W83369  16.658  22.896   1.360
11841W        W83370  18.602   9.991   5.009
11842W        W83371   8.583   2.996   2.804
11843W        W83372  44.454  21.018   1.374
11844W        W83373  33.881   8.010   4.512
11845W        W83374   5.635  18.804   2.087
11846W        W83375  19.116   7.628  11.952
11847W        W83376  43.886   4.414   1.855
11848W        W83377  15.700   2.208   1.699
11849W        W83378  17.852  35.713   3.116
11850W        W83379  16.138  26.080   3.864
11851W        W83380  23.581  14.991  13.964
11852W        W83381  28.055   5.198  11.421
11853W        W83382  23.674  36.451  13.997
11854W        W83383  19.231  11.554  11.176
11855W        W83384  21.503   5.426   4.176
11856W        W83385  18.050  31.663  12.430
11857W        W83386  24.046  21.613   2.304
11858W        W83387  29.622  27.044   2.813
11859W        W83388  13.171   9.380   0.762
11860W        W83389  26.685  27.484   1.297
11861W        W83390   8.656  40.172   3.079
11862W        W83391  40.765   4.167   1.327
11863W        W83392   6.501  24.339   1.391
11864W        W83393  10.285  17.559  11.877
11865W        W83394   9.691  20.989  10.629
11866W        W83395   9.196   6.156  11.936
11867W        W83396  17.246  22.445   2.802
11868W        W83397  21.537  26.070  13.338
11869W        W83398  26.084  37.823   0.850
11870W        W83399  29.943  27.159  13.342
11871W        W83400  24.624  44.178   2.805
11872W        W83401  15.041  10.390   2.087
11873W        W83402  25.928  14.678  11.589
11874W        W83403  36.874  40.486   2.898
11875W        W83404  12.130  25.226  12.861
11876W        W83405  43.055  18.670   1.779
11877W        W83406   7.887  22.187   0.478
11878W        W83407  36.485  41.027  13.885
11879W        W83408  22.370  23.828  11.715
11880W        W83409   6.623  43.594   0.355
11881W        W83410  34.427  33.264   0.488
11882W        W83411   5.094  39.257   2.173
11883W        W83412  42.016  19.866  11.520
11884W        W83413  20.084  32.329  13.305
11885W        W83414  27.722  37.387   0.050
11886W        W83415   3.178  26.499  14.912
11887W        W83416  43.332  36.599   4.970
11888W        W83417  11.699  32.538  10.235
11889W        W83418  16.166  39.495   4.794
11890W        W83419  19.015   1.530   2.247
11891W        W83420  39.433  26.640  12.421
11892W        W83421  40.027  18.515   3.178
11893W        W83422  44.219  28.964  11.048
11894W        W83423  11.757  26.153  10.456
11895W        W83424  19.692  25.522   2.921
11896W        W83425  18.072  11.193  14.067
11897W        W83426  29.573   9.607  10.791
11898W        W83427  41.247  34.327   1.000
11899W        W83428  13.322  24.199  14.976
11900W        W83429  16.444  21.654   2.119
11901W        W83430  11.833  37.898  14.962
11902W        W83431  31.150   5.953  12.441
11903W        W83432  17.792   4.053   0.314
11904W        W83433  25.692  44.520  13.481
11905W        W83434  26.454  19.067   1.132
11906W        W83435   0.390   6.676   3.093
11907W        W83436   3.291  25.246  12.478
11908W        W83437  15.821  35.561   4.277
11909W        W83438  30.843   8.503  11.090
11910W        W83439  37.537  41.928  14.003
11911W        W83440  23.078  36.936  13.446
11912W        W83441  35.698  25.887   1.096
11913W        W83442  19.249  37.968  13.003
11914W        W83443  18.035   3.174   1.436
11915W        W83444  12.672   1.877  10.561
11916W        W83445  44.737  14.037  13.789
11917W        W83446  18.243  11.387  13.147
11918W        W83447  15.130  20.091  12.164
11919W        W83448  35.819  31.077  11.906
11920W        W83449  38.162  31.778  13.517
11921W        W83450  26.860  30.605   2.903
11922W        W83451  27.066  22.174  14.468
11923W        W83452  20.549  38.639  10.707
11924W        W83453  31.879   7.378   3.762
11925W        W83454  19.706  39.599  12.946
11926W        W83455  19.679   0.900   3.231
11927W        W83456  10.336   4.437   3.887
11928W        W83457  13.793  10.556  13.587
11929W        W83458  11.129  37.951   1.356
11930W        W83459   5.408  26.201   1.603
11931W        W83460   9.821  15.538   4.161
11932W        W83461  18.609  11.608  12.842
11933W        W83462  22.336  34.473  11.654
11934W        W83463  44.064  39.493  12.030
11935W        W83464   4.438  38.952   1.344
11936W        W83465  12.180  13.519   1.191
11937W        W83466  18.845   0.260  14.011
11938W        W83467  29.936  23.636   2.915
11939W        W83468   4.334  28.774   2.311
11940W        W83469  36.416  22.926   4.087
11941W        W83470  12.875  21.810  14.061
11942W        W83471  38.830   7.285   0.505
11943W        W83472  20.551  34.373  12.031
11944W        W83473   8.245  11.355  10.878
11945W        W83474   4.775  21.468   0.319
11946W        W83475  10.249  11.188   9.966
11947W        W83476  30.104  39.460   4.169
11948W        W83477   0.229  44.340  11.529
11949W        W83478  20.082   5.374  11.171
11950W        W83479  38.624  42.858  12.108
11951W        W83480  37.480  38.013  14.418
11952W        W83481  27.593  31.449  12.641
11953W        W83482  18.711  37.956  14.777
11954W        W83483  15.274  39.872   1.458
11955W        W83484   9.122  41.028   2.206
11956W        W83485  38.561  11.100  12.823
11957W        W83486  37.395   1.261   0.348
11958W        W83487  16.661  14.431  10.519
11959W        W83488  21.798   4.871  12.336
11960W        W83489  19.014  34.158   0.737
11961W        W83490  32.752  41.259   1.794
11962W        W83491  37.819  16.495  13.329
11963W        W83492  10.865  30.500   3.664
11964W        W83493  27.775  31.395   0.897
11965W        W83494  12.916  12.330   0.378
11966W        W83495  28.386  26.922   3.757
11967W        W83496   3.106  24.031   3.238
11968W        W83497  20.327  43.010  13.511
11969W        W83498  38.856  32.640   2.439
11970W        W83499  15.052   1.208  12.463
11971W        W83500  27.155  16.091   1.518
11972W        W83501  27.053  12.010  11.142
11973W        W83502  12.177   1.526  13.550
11974W        W83503  27.085  20.691  12.580
11975W        W83504  34.261  37.504  12.862
11976W        W83505  16.621  37.575   4.104
11977W        W83506  14.788  15.198   4.376
11978W        W83507  39.427  25.274  11.236
11979W        W83508   3.345   6.398   1.966
11980W        W83509  12.964  13.908  14.898
11981W        W83510  16.754  24.451   0.943
11982W        W83511  15.590  35.057   3.454
11983W        W83512   2.767   0.196  14.460
11984W        W83513  25.982  23.093   0.558
11985W        W83514  24.345  41.836   1.406
11986W        W83515  31.494   4.193   0.278
11987W        W83516  40.950  20.667  14.589
11988W        W83517  42.107   6.834  12.864
11989W        W83518  22.789  29.057  14.984
11990W        W83519  16.887   9.278   3.750
11991W        W83520  19.208  11.298   0.546
11992W        W83521  14.903  18.024  13.012
11993W        W83522  17.270  44.314  13.122
11994W        W83523  15.383  44.467   3.751
11995W        W83524   6.033  39.428  11.072
11996W        W83525  16.324  43.693   3.238
11997W        W83526  21.208  35.992   3.385
11998W        W83527  18.146  23.121  14.821
11999W        W83528  32.656  11.339   2.480
12000W        W83529  44.583  43.970  12.950
12001W        W83530   1.690   7.900  11.470
12002W        W83531   4.141  30.480  13.456
12003W        W83532   3.447   2.982  12.351
12004W        W83533  22.807  17.774  12.476
12005W        W83534  37.826  25.647  14.409
12006W        W83535   5.357  37.302   9.926
12007W        W83536  10.538   9.238  12.063
12008W        W83537  44.336  40.101   0.249
12009W        W83538  33.493  28.439   2.138
12010W        W83539  18.828  12.047   2.800
12011W        W83540  36.022   4.748  13.045
12012W        W83541   1.937  40.548   1.181
12013W        W83542  14.334  32.490   2.190
12014W        W83543   0.761  10.561   2.119
12015W        W83544  17.969  42.594  13.505
12016W        W83545  43.103  14.301   1.723
12017W        W83546   8.130  42.771  13.607
12018W        W83547  33.367   0.866   3.247
12019W        W83548  32.439  31.851   2.135
12020W        W83549  41.804  22.572   1.341
12021W        W83550   2.305  39.373   4.715
12022W        W83551   8.558  44.403  11.126
12023W        W83552  36.031  24.540  12.892
12024W        W83553  21.444  19.560   2.632
12025W        W83554  18.548  17.911  12.938
12026W        W83555  14.697  40.791  14.485
12027W        W83556  25.674  23.290  11.449
12028W        W83557  27.486   6.840  13.332
12029W        W83558  26.109  33.404   2.146
12030W        W83559   6.573  22.671  13.766
12031W        W83560  11.192  18.085  14.301
12032W        W83561  14.108   2.647   5.167
12033W        W83562   7.164  12.139  14.709
12034W        W83563  18.463  34.498  11.575
12035W        W83564  20.112  39.307  13.081
12036W        W83565  15.369  38.339  14.111
12037W        W83566  14.251  16.118   2.411
12038W        W83567  40.321  39.997  10.791
12039W        W83568   6.847  15.833  12.101
12040W        W83569  34.351  24.202   0.345
12041W        W83570   5.841  36.471  12.057
12042W        W83571  25.462  35.083  14.355
12043W        W83572  15.757  39.889   1.656
12044W        W83573   8.863  14.735   0.352
12045W        W83574  37.820   7.666   4.461
12046W        W83575   7.578  11.342   1.254
12047W        W83576  32.891  17.819   5.013
12048W        W83577  20.361  39.520  11.209
12049W        W83578   5.314  19.135   2.342
12050W        W83579   9.886  19.060  13.341
12051W        W83580  42.931   6.796  13.524
12052W        W83581  12.763   7.709   0.783
12053W        W83582  29.014   3.799  12.876
12054W        W83583  14.269  27.987  13.499
12055W        W83584  24.809  31.578  12.040
12056W        W83585  38.363  12.334  12.697
12057W        W83586  21.347   8.019  11.572
12058W        W83587  24.740  32.978  13.390
12059W        W83588  43.055  13.173   3.800
12060W        W83589  39.745  31.701   3.768
12061W        W83590  15.671  21.029   0.077
12062W        W83591  42.777  29.329  12.824
12063W        W83592  14.197  34.342   3.868
12064W        W83593  41.811  14.335   5.125
12065W        W83594   1.763  37.882  12.541
12066W        W83595  27.914   4.625   2.772
12067W        W83596  35.466  25.424  14.918
12068W        W83597  42.276  12.276  13.313
12069W        W83598  35.149  37.466  12.478
12070W        W83599  24.680  44.563  10.467
12071W        W83600  25.667  40.749  14.952
12072W        W83601  23.996  37.086   4.906
12073W        W83602   0.170  18.712  11.972
12074W        W83603  11.088   6.468  13.376
12075W        W83604  19.833  15.269   4.344
12076W        W83605   4.687  41.543   0.234
12077W        W83606  28.505  34.566   2.418
12078W        W83607   1.308  32.245  12.549
12079W        W83608  15.166  19.195   4.546
12080W        W83609  16.737  33.261  10.439
12081W        W83610  41.946  37.748   3.296
12082W        W83611  35.365  33.139   0.276
12083W        W83612  36.147  11.297  14.922
12084W        W83613  34.866  16.421   4.124
12085W        W83614   3.860   5.497   1.771
12086W        W83615  13.387  18.051  12.397
12087W        W83616  12.799  10.586   4.862
12088W        W83617   6.452  12.170  13.008
12089W        W83618  26.788  34.802   5.078
12090W        W83619   5.537   2.129   2.450
12091W        W83620  42.572  13.749   3.235
12092W        W83621  39.896  10.401   1.096
12093W        W83622  20.150   5.811   4.393
12094W        W83623  38.645  21.550  13.555
12095W        W83624  15.806  26.983   4.150
12096W        W83625  16.949  29.520   0.008
12097W        W83626  30.341  24.929  14.819
12098W        W83627  40.356  27.229  13.392
12099W        W83628  12.154  26.064  11.496
12100W        W83629   1.743  44.536   0.550
12101W        W83630  12.135  22.717  12.853
12102W        W83631  43.432  32.443  10.378
12103W        W83632  28.650  27.798   3.781
12104W        W83633  17.544  35.702   2.228
12105W        W83634   5.733  12.577   4.581
12106W        W83635  30.237  41.299   3.073
12107W        W83636  17.731  15.737  11.086
12108W        W83637   1.879  33.595   3.016
12109W        W83638   3.077  29.160  14.299
12110W        W83639  16.237  10.256   3.151
12111W        W83640  33.592  14.605   0.433
12112W        W83641  25.401  28.596   0.484
12113W        W83642  44.341   0.789  12.483
12114W        W83643   2.381  16.886  11.278
12115W        W83644   4.337  21.806  13.487
12116W        W83645   7.692  38.484   3.677
12117W        W83646  32.582   4.677   1.918
12118W        W83647   3.758  11.603   1.595
12119W        W83648  14.155  28.441   3.638
12120W        W83649   7.261  18.034  12.053
12121W        W83650   2.233  25.012   3.811
12122W        W83651  21.220   2.997   0.913
12123W        W83652  44.892  22.415   3.699
12124W        W83653  12.618  35.367   2.666
12125W        W83654  31.167  20.818  12.396
12126W        W83655  23.198  19.306  14.707
12127W        W83656  12.558  19.625   0.329
12128W        W83657   0.307  44.860   1.895
12129W        W83658  26.666   1.600   4.063
12130W        W83659  35.070  12.554  10.090
12131W        W83660  35.406  35.997  10.602
12132W        W83661   4.664  22.099   4.121
12133W        W83662  37.900  25.159  14.924
12134W        W83663  19.989  13.122   3.396
12135W        W83664  31.533  31.665   4.423
12136W        W83665  14.354  10.431  13.463
12137W        W83666  27.455   4.337  12.427
12138W        W83667  15.088  14.811   0.366
12139W        W83668  34.545  11.699  11.435
12140W        W83669  36.942  11.633   2.299
12141W        W83670  43.506  19.285   2.777
12142W        W83671  13.284  17.606  14.969
12143W        W83672  33.696  39.698   3.482
12144W        W83673  43.590   7.377   4.163
12145W        W83674   8.640   1.744  13.366
12146W        W83675   2.817  10.908   2.848
12147W        W83676  32.665   3.129   0.809
12148W        W83677  38.144   8.930  13.212
12149W        W83678  41.924  41.899   3.135
12150W        W83679  25.510   0.716  12.926
12151W        W83680   6.648   2.422   0.958
12152W        W83681  30.576  26.427  12.487
12153W        W83682   0.714  34.811  13.917
12154W        W83683  23.563  37.520  12.501
12155W        W83684   5.861  34.387   1.342
12156W        W83685  20.923  26.699  12.403
12157W        W83686  28.739   1.347  11.690
12158W        W83687  33.089  44.808   4.813
12159W        W83688  24.498  30.249  10.922
12160W        W83689  20.635  21.420   4.634
12161W        W83690  35.322  23.007  14.377
12162W        W83691   8.441  24.995   1.711
12163W        W83692   1.694   0.014   2.328
12164W        W83693   4.996  31.916  11.507
12165W        W83694  13.399   2.965  13.697
12166W        W83695  20.547   5.737  12.435
12167W        W83696  28.789   9.229   0.917
12168W        W83697   6.784   7.356   0.397
12169W        W83698  27.749  30.934  11.460
12170W        W83699  19.731  41.335  10.624
12171W        W83700  30.626  41.435  10.835
12172W        W83701  38.623  34.482   1.282
12173W        W83702  43.880  35.888   4.253
12174W        W83703  36.982  41.461  14.346
12175W        W83704  12.549   1.222   1.451
12176W        W83705   3.379  38.120  12.946
12177W        W83706  33.099  44.225  10.652
12178W        W83707  22.473  42.336  11.821
12179W        W83708  13.715  40.521  11.145
12180W        W83709   1.292  39.511   3.239
12181W        W83710  44.789   8.914  12.017
12182W        W83711  20.570  19.841   0.689
12183W        W83712  21.319  40.897   3.027
12184W        W83713  24.097  16.878  13.835
12185W        W83714   7.569  34.377  11.237
12186W        W83715  14.467  25.141   3.377
12187W        W83716  44.963  11.302   1.372
12188W        W83717   3.693  25.137  10.967
12189W        W83718  33.949  31.376  11.568
12190W        W83719  27.208  16.675   0.883
12191W        W83720  10.363   6.177  11.570
12192W        W83721   7.282  11.210  14.073
12193W        W83722  42.852  14.145  14.034
12194W        W83723   4.255  12.098   2.761
12195W        W83724  44.909   4.744   3.334
12196W        W83725  37.339   0.841   3.817
12197W        W83726  44.558  15.778   1.171
12198W        W83727   7.621   2.426   2.183
12199W        W83728  29.047  39.357   4.881
12200W        W83729   6.812  30.206  12.661
12201W        W83730   5.690  19.155  11.474
12202W        W83731  35.427  35.910   3.986
12203W        W83732   5.201  14.816  14.207
12204W        W83733   8.634  24.255  13.051
12205W        W83734   0.835  29.667  10.480
12206W        W83735   0.423  43.537  12.182
12207W        W83736   1.282  11.721  11.061
12208W        W83737  32.144  43.367  10.668
12209W        W83738  35.010  15.554  13.565
12210W        W83739  32.657  21.976   4.782
12211W        W83740  35.108  28.000   1.313
12212W        W83741  33.403  23.805   0.401
12213W        W83742  20.765  17.174  13.901
12214W        W83743   2.382  33.285   1.470
12215W        W83744   8.499  21.674   3.741
12216W        W83745  42.047  11.973   3.640
12217W        W83746  23.374  35.607  14.746
12218W        W83747  31.021  44.321  12.782
12219W        W83748  11.691  13.176  12.136
12220W        W83749  16.626  40.381  12.930
12221W        W83750  23.651  36.022   4.536
12222W        W83751  17.606  35.000  12.966
12223W        W83752   9.659  21.316   0.850
12224W        W83753   0.782  21.456   0.707
12225W        W83754  24.634  22.713   0.941
12226W        W83755  35.186  36.072   1.622
12227W        W83756   9.489  12.518   2.769
12228W        W83757  33.510   4.517  13.354
12229W        W83758  33.618  11.327   3.885
12230W        W83759  41.755  44.700  11.677
12231W        W83760  13.067   6.356   3.280
12232W        W83761  30.613  35.426   3.676
12233W        W83762  29.390   3.278   1.481
12234W        W83763   1.957  11.205  11.113
12235W        W83764   3.915   6.515   0.732
12236W        W83765  25.088  19.636  14.945
12237W        W83766  16.869  41.443   0.799
12238W        W83767  38.014  23.556  12.774
12239W        W83768  40.255  13.092  11.463
12240W        W83769  12.736  35.429  13.473
12241W        W83770  25.310  10.738   4.134
12242W        W83771  19.596  24.810  14.841
12243W        W83772  27.143  39.319   1.363
12244W        W83773  38.121  17.980   4.194
12245W        W83774   1.355  31.555   4.313
12246W        W83775   5.779  16.201   4.107
12247W        W83776  38.779  29.440   1.426
12248W        W83777   5.631  35.466   4.065
12249W        W83778  24.528  33.448  10.260
12250W        W83779  17.139  30.517   4.510
12251W        W83780  35.858  31.182  11.398
12252W        W83781  26.164  29.992  14.547
12253W        W83782  44.244  23.450   2.573
12254W        W83783  33.555  42.075  11.077
12255W        W83784   0.096  22.286   2.893
12256W        W83785  37.867  29.140  13.499
12257W        W83786   3.387  21.950   4.142
12258W        W83787  18.160  19.456   2.227
12259W        W83788  24.452  41.165   2.004
12260W        W83789  44.222   9.116   4.441
12261W        W83790  23.941  38.792   2.461
12262W        W83791  38.875  28.650  11.554
12263W        W83792  34.409  16.351   1.818
12264W        W83793  24.515   4.994  14.853
12265W        W83794  29.932  15.821   1.842
12266W        W83795  25.671  27.544  13.511
12267W        W83796   0.011  17.743   3.358
12268W        W83797  23.121  15.613  10.569
12269W        W83798   6.216  21.466  12.619
12270W        W83799  31.633   0.118   0.371
12271W        W83800  20.732  12.073   0.810
12272W        W83801  40.524  26.891  10.782
12273W        W83802   1.769   5.717   1.789
12274W        W83803  10.721  43.438  11.598
12275W        W83804   4.456  11.057  13.125
12276W        W83805   2.005   9.128  13.076
12277W        W83806  16.323  15.656   0.902
12278W        W83807  19.118  42.321  14.352
12279W        W83808  36.410  40.336  12.947
12280W        W83809  13.251  36.101  11.591
12281W        W83810  25.176  11.602  13.904
12282W        W83811  15.124  24.183  12.596
12283W        W83812  42.936  16.636  10.762
12284W        W83813   5.277  15.806  13.836
12285W        W83814   5.746  12.205  12.082
12286W        W83815  21.642   3.775   0.289
12287W        W83816   1.860   2.423   1.654
12288W        W83817  16.679  14.865   3.950
12289W        W83818   2.061  39.035   3.300
12290W        W83819  32.556  43.435  12.495
12291W        W83820  25.077  17.526   4.245
12292W        W83821  39.638  38.073  12.657
12293W        W83822  28.400  25.263   4.026
12294W        W83823  34.988   8.989  13.892
12295W        W83824  13.386   1.760  11.736
12296W        W83825  42.123  34.126   3.035
12297W        W83826  22.215  27.148  13.573
12298W        W83827  25.157  29.747   4.588
12299W        W83828  26.681  16.980   1.440
12300W        W83829  19.133  24.971  13.108
12301W        W83830  39.312  20.820  12.521
12302W        W83831   9.733  27.719   0.736
12303W        W83832   1.876  22.772   2.239
12304W        W83833   8.302  26.345  13.680
12305W        W83834   7.887  18.046   0.631
12306W        W83835   5.467  33.068  14.921
12307W        W83836  44.989  12.679  14.433
12308W        W83837  31.146  33.032  11.087
12309W        W83838  27.992   7.664   1.517
12310W        W83839  40.263   1.840  14.741
12311W        W83840   2.718  42.386  13.001
12312W        W83841  15.314   1.975  12.461
12313W        W83842  12.669   8.794  11.948
12314W        W83843  35.599  40.849   3.694
12315W        W83844  42.070  12.575  12.540
12316W        W83845  37.769  38.562  14.843
12317W        W83846   2.044  31.801   3.694
12318W        W83847  14.226  23.262  12.498
12319W        W83848  27.604  27.698  14.753
12320W        W83849  16.688  37.825  10.600
12321W        W83850  35.281  34.628   2.746
12322W        W83851  20.668  23.518   4.550
12323W        W83852  13.232  26.195  13.312
12324W        W83853   2.306  39.801  14.302
12325W        W83854  14.874  41.469  10.569
12326W        W83855  29.011  32.549  10.683
12327W        W83856  16.198  42.794  11.525
12328W        W83857  20.823  34.745  14.226
12329W        W83858   3.740  11.204  12.429
12330W        W83859  43.586  32.073  13.371
12331W        W83860  40.730   4.846   3.251
12332W        W83861  35.667   6.412   3.961
12333W        W83862   4.767   6.434   2.287
12334W        W83863   0.431   3.462   1.172
12335W        W83864  12.628   4.549   3.269
12336W        W83865  11.130  41.409   0.375
12337W        W83866   6.656   9.923   4.743
12338W        W83867  34.046  23.535  13.261
12339W        W83868   6.552  36.984   2.961
12340W        W83869   7.701   0.292  13.917
12341W        W83870  44.339  40.283   4.573
12342W        W83871  42.266  20.667  13.874
12343W        W83872   7.603   8.821   4.123
12344W        W83873  12.050  19.573   3.207
12345W        W83874  39.531  19.078   0.377
12346W        W83875  43.003  15.763   3.670
12347W        W83876  42.636  38.951  14.463
12348W        W83877  40.760  20.524   0.890
12349W        W83878  20.149   4.436   2.138
12350W        W83879  32.419  23.250  10.598
12351W        W83880  39.139   9.563   1.166
12352W        W83881  19.264  17.451   2.115
12353W        W83882  25.798   5.759  12.045
12354W        W83883   4.630  10.867  13.629
12355W        W83884  15.533  39.515  13.007
12356W        W83885  42.263  20.990   1.495
12357W        W83886  26.245   8.130  12.554
12358W        W83887   6.571   9.602   0.025
12359W        W83888  19.003  19.202  12.910
12360W        W83889  21.718   5.696  13.031
12361W        W83890  20.848  15.942   2.990
12362W        W83891  17.567   2.708   1.936
12363W        W83892   0.981  40.062  13.308
12364W        W83893  15.033  44.799  12.916
12365W        W83894  27.653  22.174   4.315
12366W        W83895  44.996   5.242  11.978
12367W        W83896  43.892  32.366  14.942
12368W        W83897  21.596   4.397  14.863
12369W        W83898  20.354  11.362   3.952
12370W        W83899   3.228  14.512  10.626
12371W        W83900  35.002  25.922  14.352
12372W        W83901  41.019   4.420   1.715
12373W        W83902  26.120  43.965  13.493
12374W        W83903  30.202  15.713  13.963
12375W        W83904  36.539  17.081   0.862
12376W        W83905  32.369  39.104   0.820
12377W        W83906  16.109   4.723  11.304
12378W        W83907  29.266   6.878   0.958
12379W        W83908  43.716  43.827  12.361
12380W        W83909  41.778  31.685  13.168
12381W        W83910   1.345  40.840   3.784
12382W        W83911  30.571  12.954   2.328
12383W        W83912  33.439   6.206   4.896
12384W        W83913  39.271  40.210   3.955
12385W        W83914  41.806  40.142  11.258
12386W        W83915   1.747  29.526   0.540
12387W        W83916  19.036  42.514  13.446
12388W        W83917  33.527  11.814  12.937
12389W        W83918   0.939  26.439  10.706
12390W        W83919  28.885   8.327  13.367
12391W        W83920  31.114  41.472   4.770
12392W        W83921  15.627  44.676   4.199
12393W        W83922  34.167  42.634   3.631
12394W        W83923  21.721  15.503  11.100
12395W        W83924  24.777   2.218  11.232
12396W        W83925  37.099  25.237  13.459
12397W        W83926   7.425  36.695   3.425
12398W        W83927  13.136  40.333   2.225
12399W        W83928  24.425  14.652  13.804
12400W        W83929  36.933  19.581   0.443
12401W        W83930   9.623  32.675   1.271
12402W        W83931  38.931  38.866   0.470
12403W        W83932  13.937   9.377  11.534
12404W        W83933   5.142  10.749  13.458
12405W        W83934  24.048  29.414   3.303
12406W        W83935  32.763  15.202   9.887
12407W        W83936  35.046  27.832  14.065
12408W        W83937  28.231   6.431   1.160
12409W        W83938  31.567  16.669  12.848
12410W        W83939  21.070   7.715   0.049
12411W        W83940  43.792   9.707  14.775
12412W        W83941   3.144  34.775  10.946
12413W        W83942   7.713   8.031   3.760
12414W        W83943  38.146  25.485   4.069
12415W        W83944   6.468  15.895  11.472
12416W        W83945  22.493  37.973  11.492
12417W        W83946  38.382  35.077  14.834
12418W        W83947   1.981  19.601  12.432
12419W        W83948   9.380  36.400  11.609
12420W        W83949  22.469  26.245   0.853
12421W        W83950  24.795   2.714   4.518
12422W        W83951  16.767  21.739  13.442
12423W        W83952   2.897   4.934   2.272
12424W        W83953   9.853   8.747   4.773
12425W        W83954  39.659  21.581   4.257
12426W        W83955  35.119  38.992   5.270
12427W        W83956  42.833  18.069  13.752
12428W        W83957  24.577  11.274  11.951
12429W        W83958  36.449  26.304   4.134
12430W        W83959  33.459  11.563  12.459
12431W        W83960  16.112  18.785  12.824
12432W        W83961  41.123  21.538   2.758
12433W        W83962   5.575   4.351  14.878
12434W        W83963  28.257  20.682   2.234
12435W        W83964  28.957  37.047  13.874
12436W        W83965  17.480  36.017   4.212
12437W        W83966   2.896  40.369  13.696
12438W        W83967  40.019   0.270  12.734
12439W        W83968  43.863   8.907   4.744
12440W        W83969  28.456  42.766  12.797
12441W        W83970  31.572  14.610  12.049
12442W        W83971  22.684   2.948  13.398
12443W        W83972  40.016  40.429  11.977
12444W        W83973  23.751  27.485  10.601
12445W        W83974  14.703  35.357   0.179
12446W        W83975  37.506  11.922   1.145
12447W        W83976  17.670  15.740   4.922
12448W        W83977  34.610  23.805  14.324
12449W        W83978  39.329   0.470   1.324
12450W        W83979   7.922  34.561  11.974
12451W        W83980  34.044  31.743   1.377
12452W        W83981   3.908  34.991   4.173
12453W        W83982  17.059  41.946   0.828
12454W        W83983   6.355  18.338   2.176
12455W        W83984   3.985   4.806  13.377
12456W        W83985  30.829   3.465  10.318
12457W        W83986  17.908   5.366  13.196
12458W        W83987  37.028  23.061   0.893
12459W        W83988  41.911  10.321   1.422
12460W        W83989   6.772   0.746   0.845
12461W        W83990  37.946  28.821  14.311
12462W        W83991   9.107   0.935  10.051
12463W        W83992  25.557  21.069   3.038
12464W        W83993  37.934  37.216   1.676
12465W        W83994  21.494  40.606  12.027
12466W        W83995   1.852  32.393   0.487
12467W        W83996  29.350  11.254  11.634
12468W        W83997   6.324  30.092  14.827
12469W        W83998  21.927  33.940  13.847
12470W        W83999   2.846  15.119  12.988
12471W        W84000   4.228  22.055   2.673
12472W        W84001  27.387  31.062   3.801
12473W        W84002  44.376   4.606   9.885
12474W        W84003   1.046  17.464   0.866
12475W        W84004   1.239   8.366   4.670
12476W        W84005  22.994  19.268  11.873
12477W        W84006   4.981  35.025  11.481
12478W        W84007  44.864  21.221   3.771
12479W        W84008  36.008   3.070   1.870
12480W        W84009  15.807  42.259   3.128
12481W        W84010   9.422  34.338   3.943
12482W        W84011   9.428  15.766   3.836
12483W        W84012  35.816  21.429   3.583
12484W        W84013  42.336   4.014   3.179
12485W        W84014  19.311  38.362  13.452
12486W        W84015  40.952  10.638   3.770
12487W        W84016   8.895  22.693   3.670
12488W        W84017  44.865  24.138   4.354
12489W        W84018  37.189  11.717  12.977
12490W        W84019  43.746  17.547   1.703
12491W        W84020   2.996  14.037  14.350
12492W        W84021   8.332  39.833  11.784
12493W        W84022  22.670  37.831  11.021
12494W        W84023  37.841  33.034  10.982
12495W        W84024   4.914  36.077  12.988
12496W        W84025  10.775  23.489   4.342
12497W        W84026  17.070  30.651   2.236
12498W        W84027  38.242  39.871  14.903
12499W        W84028  21.176  19.781   3.404
12500W        W84029  22.752  25.676  10.645
12501W        W84030  44.875  39.533  12.583
12502W        W84031  20.203  19.587   4.253
12503W        W84032  13.833  40.005  13.832
12504W        W84033  33.296  38.817  14.540
12505W        W84034  16.170   9.204  13.544
12506W        W84035   4.501  40.877  11.643
12507W        W84036  23.080  39.256   0.288
12508W        W84037   8.703  14.599  11.745
12509W        W84038  33.968  30.513   0.513
12510W        W84039  22.837  27.469  13.220
12511W        W84040  11.187  42.779  12.450
12512W        W84041  32.653  23.418  13.012
12513W        W84042   9.800  23.541  14.919
12514W        W84043  36.335   7.339   3.604
12515W        W84044  24.603   8.879   1.215
12516W        W84045  16.553   0.959  14.887
12517W        W84046  37.629  23.730   0.022
12518W        W84047  31.918  38.231   5.140
12519W        W84048  13.146  10.860   0.858
12520W        W84049  42.422   4.850  12.685
12521W        W84050  32.493  20.801  14.561
12522W        W84051  10.842   1.994   0.896
12523W        W84052   5.003  21.596  11.633
12524W        W84053  27.198  15.746   0.752
12525W        W84054   3.804  39.458   3.795
12526W        W84055  38.938  32.900   2.869
12527W        W84056  24.300  30.471  14.977
12528W        W84057  36.878   9.523   3.146
12529W        W84058   6.685  14.328  12.055
12530W        W84059  32.446  28.429  10.894
12531W        W84060   7.808  21.046  12.214
12532W        W84061  37.631   0.157  13.940
12533W        W84062  34.527  24.504  14.939
12534W        W84063  20.977   1.698  14.935
12535W        W84064   8.139  29.536  14.036
12536W        W84065  37.856   5.404   3.925
12537W        W84066  39.120  28.535  13.882
12538W        W84067  33.686  30.239  14.535
12539W        W84068   4.910  40.285  13.520
12540W        W84069  35.537  22.712  12.961
12541W        W84070  14.661   2.897  10.685
12542W        W84071  14.691  11.702  11.599
12543W        W84072  29.084  10.432   1.192
12544W        W84073  26.916  25.050   3.612
12545W        W84074  35.365  25.626   3.201
12546W        W84075  31.388  38.518   1.956
12547W        W84076   8.519  43.019   2.756
12548W        W84077  26.470  23.389  11.493
12549W        W84078   0.477  26.537   3.680
12550W        W84079   3.398   9.052   4.262
12551W        W84080  27.505   2.584  11.491
12552W        W84081   9.119  41.837   4.933
12553W        W84082  23.555  29.696  13.735
12554W        W84083  31.733  40.768  12.534
12555W        W84084  23.118  41.013   0.570
12556W        W84085   8.146  28.593   3.346
12557W        W84086  30.480  25.937   2.879
12558W        W84087  34.882   6.122   0.775
12559W        W84088  26.779  12.612   3.575
12560W        W84089  29.962  15.264  11.149
12561W        W84090  14.283  39.837  10.560
12562W        W84091   0.295  20.646  14.935
12563W        W84092   4.247  18.276  10.965
12564W        W84093  41.810  11.687  12.574
12565W        W84094  27.684  23.737   1.372
12566W        W84095  40.328  41.931   4.549
12567W        W84096   9.865  20.036  12.041
12568W        W84097  16.482  27.133  13.941
12569W        W84098  12.441  44.373   1.411
12570W        W84099  33.010   8.901   2.690
12571W        W84100  16.112  40.292  13.715
12572W        W84101   5.374  26.485  13.730
12573W        W84102  22.948   2.132   2.210
12574W        W84103  17.177  36.041  12.107
12575W        W84104  33.813   3.390  14.817
12576W        W84105   5.091   1.519  13.112
12577W        W84106  21.816  13.719   1.987
12578W        W84107   4.109  20.194   0.906
12579W        W84108  16.254  16.164   0.946
12580W        W84109  40.805  35.934   3.091
12581W        W84110  28.468  26.898  13.981
12582W        W84111  33.852   9.308   2.308
12583W        W84112  19.520  41.513   1.720
12584W        W84113  40.083  12.312   3.234
12585W        W84114   1.670  11.341   1.041
12586W        W84115  28.057  42.784  13.886
12587W        W84116   7.855   8.212  13.072
12588W        W84117  25.737  35.535   1.612
12589W        W84118  21.283   6.954  10.793
12590W        W84119  43.045   0.262  12.482
12591W        W84120  37.875  26.644   2.717
12592W        W84121  31.634  12.137   2.219
12593W        W84122  24.075  40.830  11.616
12594W        W84123  32.635   6.561  12.902
12595W        W84124  42.030  44.591   1.203
12596W        W84125  32.526  41.915  11.295
12597W        W84126  29.788  43.281  11.209
12598W        W84127  30.730  28.483  11.984
12599W        W84128   4.006   2.629   2.135
12600W        W84129  22.958  12.154   2.865
12601W        W84130  40.988  13.307  13.526
12602W        W84131  32.972  10.247  14.613
12603W        W84132  15.291  16.873   4.302
12604W        W84133  41.571  30.011  12.302
12605W        W84134  22.460   4.276  10.717
12606W        W84135  35.019  20.103   2.255
12607W        W84136  22.812   7.866  11.663
12608W        W84137   3.949  32.907   0.964
12609W        W84138  10.364  13.816  10.826
12610W        W84139   7.219   7.869   3.699
12611W        W84140  32.673  10.658  14.539
12612W        W84141  44.764   7.912  13.286
12613W        W84142  27.029  35.632   2.162
12614W        W84143  23.601  41.894   0.085
12615W        W84144  33.180  21.830  13.716
12616W        W84145  16.838   2.232  10.687
12617W        W84146  34.982   1.971   2.842
12618W        W84147  27.000   4.325   5.123
12619W        W84148   0.214  31.926  13.014
12620W        W84149  35.468  35.103   1.789
12621W        W84150  32.342  22.045   1.801
12622W        W84151  19.132  32.971   1.965
12623W        W84152  41.519   4.384   2.395
12624W        W84153  17.247   3.781   4.108
12625W        W84154   5.747   6.252  14.306
12626W        W84155  20.979  35.615  11.175
12627W        W84156   5.486  37.019   1.350
12628W        W84157   0.355  30.433   0.768
12629W        W84158  41.516   4.932  12.531
12630W        W84159   0.795  24.060   4.015
12631W        W84160  32.998  11.868   3.326
12632W        W84161  34.981  35.180   4.997
12633W        W84162   6.778  42.862  11.495
12634W        W84163   5.230  26.741  12.823
12635W        W84164  30.468  30.416  11.797
12636W        W84165  27.934  43.795  11.555
12637W        W84166  28.954  28.540   3.176
12638W        W84167  30.724  39.624   0.861
12639W        W84168  11.611  31.125  12.575
12640W        W84169  19.703  24.658   4.623
12641W        W84170  19.163  21.648  11.390
12642W        W84171  30.031  30.534  10.935
12643W        W84172   0.855  19.827   3.369
12644W        W84173  41.271  11.634   1.452
12645W        W84174   6.454  20.449   0.624
12646W        W84175   9.977  33.960  14.040
12647W        W84176   4.124  17.798   4.582
12648W        W84177  35.887  34.813   3.630
12649W        W84178  20.445  23.557  10.672
12650W        W84179  38.005  17.389   1.130
12651W        W84180  24.720  20.768  13.487
12652W        W84181  28.527   9.166   1.404
12653W        W84182  12.385  43.556   2.406
12654W        W84183  22.362  20.351  11.232
12655W        W84184  15.312  29.386  12.865
12656W        W84185  23.459  43.964  12.823
12657W        W84186  23.524  40.565   0.786
12658W        W84187   9.407  16.801   1.416
12659W        W84188  36.805  15.182  14.983
12660W        W84189  31.692  20.769  13.984
12661W        W84190  44.755  31.302  13.583
12662W        W84191  31.589   7.267  12.515
12663W        W84192  34.062  39.873  14.087
12664W        W84193  24.510  37.445   4.026
12665W        W84194   3.485  26.624   2.808
12666W        W84195   0.675  40.432   4.503
12667W        W84196  42.067  39.353   2.192
12668W        W84197  15.535   9.289   0.867
12669W        W84198  15.315  22.013   2.056
12670W        W84199  37.380  22.665   5.114
12671W        W84200  25.820   3.309  12.099
12672W        W84201   5.973  43.223   3.473
12673W        W84202  27.499   0.823   4.793
12674W        W84203  12.074   8.493  14.589
12675W        W84204  21.768  15.633   2.438
12676W        W84205  43.312  36.927  12.915
12677W        W84206  28.430  43.034   1.884
12678W        W84207  25.952  28.524  11.916
12679W        W84208  24.389   4.893   2.288
12680W        W84209  22.114  35.003   4.176
12681W        W84210  43.269  27.528   4.308
12682W        W84211  23.514  30.944  13.765
12683W        W84212   8.348   7.171   3.760
12684W        W84213  32.334  16.512   1.233
12685W        W84214   8.374  27.132   0.772
12686W        W84215   7.311   0.221  13.483
12687W        W84216  30.085   1.310   2.286
12688W        W84217  11.390  31.914  13.459
12689W        W84218  34.104  34.484  14.183
12690W        W84219   6.331  40.107  13.938
12691W        W84220  34.053  24.803  14.812
12692W        W84221  44.965  11.769   4.636
12693W        W84222  24.170  27.659   1.966
12694W        W84223  14.153  15.372  14.737
12695W        W84224  33.122  24.453   9.696
12696W        W84225  28.308  33.990  11.272
12697W        W84226   1.564   6.934  12.633
12698W        W84227  33.821  21.153  10.160
12699W        W84228  34.569  20.290   1.855
12700W        W84229  18.175  38.450   4.029
12701W        W84230  13.267   0.986   2.298
12702W        W84231   0.650   1.494  13.499
12703W        W84232  28.050  44.846  14.755
12704W        W84233   1.260  10.512   1.933
12705W        W84234   3.806  12.344   2.828
12706W        W84235   0.427  19.760  11.092
12707W        W84236  23.140  21.132  14.270
12708W        W84237  14.387  42.475  10.664
12709W        W84238   9.826  30.423  12.580
12710W        W84239  44.920  42.936   0.306
12711W        W84240  44.445   4.854   3.902
12712W        W84241  21.033  40.080  14.088
12713W        W84242  33.153   2.238  13.436
12714W        W84243   2.884  32.569  14.075
12715W        W84244   3.066  21.010   0.419
12716W        W84245  22.530  28.200  10.521
12717W        W84246  27.184   8.311   0.676
12718W        W84247  36.971  28.819   2.889
12719W        W84248   5.323  44.341   3.716
12720W        W84249  39.106  33.669  13.794
12721W        W84250  13.564  23.694  12.100
12722W        W84251  21.622  31.919  10.056
12723W        W84252  37.077   2.064  13.880
12724W        W84253  32.380  14.137   0.356
12725W        W84254  27.070  42.662   3.401
12726W        W84255  19.565  23.109   1.876
12727W        W84256  40.113  21.815   0.741
12728W        W84257  23.966  38.567  14.734
12729W        W84258  35.573  16.738  13.068
12730W        W84259  10.729  29.800   2.906
12731W        W84260  14.634  44.652  10.507
12732W        W84261  40.526   0.048  10.087
12733W        W84262  31.566  37.024   4.907
12734W        W84263  12.286  33.826  12.195
12735W        W84264  21.647  28.669  10.604
12736W        W84265   3.708  25.397   1.511
12737W        W84266  40.593  20.510  14.914
12738W        W84267  24.219  43.535   3.221
12739W        W84268  24.012  41.851  14.255
12740W        W84269  38.524  30.621  13.617
12741W        W84270   7.936  39.044   0.388
12742W        W84271  15.913  17.272   4.692
12743W        W84272  24.760  13.325  13.212
12744W        W84273   9.450   3.447  12.788
12745W        W84274  26.771  43.384  10.731
12746W        W84275   7.863   0.291   0.349
12747W        W84276  22.163  27.340  13.054
12748W        W84277  44.376   2.413   0.443
12749W        W84278  34.076  13.875  12.213
12750W        W84279  33.183   8.976   4.984
12751W        W84280  21.816  41.450  12.878
12752W        W84281  22.715  30.023   1.212
12753W        W84282   4.740  23.220  14.937
12754W        W84283   9.878  41.567  11.470
12755W        W84284  32.376   9.397  12.799
12756W        W84285   7.576  30.390  14.889
12757W        W84286  17.577  27.209   3.957
12758W        W84287  22.696  20.088   2.656
12759W        W84288   1.922  32.567  14.523
12760W        W84289  35.969  35.720   0.794
12761W        W84290  33.476   9.840   4.668
12762W        W84291  14.217  28.972   2.168
12763W        W84292  22.327  23.912   1.008
12764W        W84293   4.223  14.327  12.564
12765W        W84294  16.201  20.611  12.346
12766W        W84295  32.370  40.591   4.122
12767W        W84296   5.096  39.001  12.605
12768W        W84297  44.323   5.293   3.602
12769W        W84298  21.589  35.021   4.149
12770W        W84299  12.123   8.913  10.470
12771W        W84300  43.272  33.930   0.355
12772W        W84301  31.195  15.755  11.480
12773W        W84302  33.018  16.390  14.655
12774W        W84303  27.244   1.770   1.434
12775W        W84304  34.009  36.232   0.558
12776W        W84305  40.943   3.390   1.721
12777W        W84306  25.083  31.394  13.968
12778W        W84307   6.887  14.225  10.727
12779W        W84308  14.857   4.003   0.063
12780W        W84309  28.217  18.248   4.110
12781W        W84310  20.200  29.663   1.236
12782W        W84311  35.054  37.513   4.309
12783W        W84312  25.156   8.012  14.240
12784W        W84313  44.063  24.624   2.735
12785W        W84314  36.902   8.948   1.239
12786W        W84315  16.015  11.545   3.192
12787W        W84316  35.586  34.964   4.994
12788W        W84317  36.457  17.323   9.807
12789W        W84318  29.137  23.835  12.032
12790W        W84319  27.571   0.296  13.478
12791W        W84320  44.349  24.765  13.470
12792W        W84321  41.631  37.677  11.675
12793W        W84322  39.660  36.216  14.242
12794W        W84323  13.039  13.261   3.620
12795W        W84324  20.734  10.671   3.720
12796W        W84325  15.789  19.697  14.782
12797W        W84326  22.779  39.925   1.849
12798W        W84327  19.614  44.933  11.052
12799W        W84328   4.769   0.458   0.207
12800W        W84329  32.334  34.935   1.261
12801W        W84330  39.218  27.084  14.539
12802W        W84331  27.503  35.041  11.909
12803W        W84332  19.776  22.466   0.413
12804W        W84333  31.699  11.042  13.034
12805W        W84334  17.470  15.845   0.072
12806W        W84335   2.710   2.345   2.300
12807W        W84336   2.232  13.453   1.746
12808W        W84337  27.965  33.078  14.833
12809W        W84338  10.623  37.268  13.120
12810W        W84339   1.132  42.389   0.885
12811W        W84340   7.210   9.619  13.163
12812W        W84341   6.326   8.837   1.345
12813W        W84342  10.350  30.938  10.679
12814W        W84343  32.273   2.814   0.960
12815W        W84344  28.033  30.954   2.382
12816W        W84345  37.965   7.223  14.460
12817W        W84346   7.341  19.340  13.261
12818W        W84347  41.510  30.264  10.575
12819W        W84348  41.329  43.225   1.301
12820W        W84349  41.117  24.617  10.935
12821W        W84350  21.164  20.909  13.239
12822W        W84351  11.139  15.112  13.625
12823W        W84352  11.103   1.985  11.146
12824W        W84353  24.050  41.240  14.545
12825W        W84354  38.338  38.390   4.296
12826W        W84355  22.081  44.274  13.981
12827W        W84356   7.265  26.506   0.826
12828W        W84357  23.763  20.350   3.708
12829W        W84358  39.063  27.690   1.218
12830W        W84359  13.336  24.649  11.458
12831W        W84360   5.193   1.850   5.038
12832W        W84361  42.017  33.609   2.984
12833W        W84362   3.009  16.050   3.246
12834W        W84363  23.912  26.191  14.718
12835W        W84364  40.150  12.573   2.776
12836W        W84365  12.163   7.948  13.772
12837W        W84366  18.171  38.503  12.928
12838W        W84367  19.778   3.381   1.306
12839W        W84368  27.081   0.422   2.004
12840W        W84369  24.728  19.734  12.063
12841W        W84370  21.787   6.374  14.153
12842W        W84371  38.811   0.426   4.598
12843W        W84372  31.062   4.440   3.173
12844W        W84373   9.274  41.740  11.207
12845W        W84374  15.440  21.529   1.311
12846W        W84375  10.317  35.036  14.832
12847W        W84376  41.052  30.616   4.317
12848W        W84377   1.728  29.727   2.337
12849W        W84378  38.437  28.203  12.654
12850W        W84379  18.298  28.221   3.161
12851W        W84380  23.567  20.536  13.092
12852W        W84381  41.334  29.527  12.409
12853W        W84382  13.637   3.857   3.533
12854W        W84383  23.995  18.337   0.450
12855W        W84384  10.314  23.697  10.548
12856W        W84385  19.577  41.564  12.120
12857W        W84386  35.493  17.029  14.926
12858W        W84387  14.346  36.692  13.018
12859W        W84388   6.815  11.152  13.781
12860W        W84389  18.269  36.358   4.936
12861W        W84390  32.976  35.769  10.652
12862W        W84391  31.182   5.710  14.240
12863W        W84392   0.653  14.697   2.370
12864W        W84393  35.017  26.044  11.469
12865W        W84394   4.420  13.649  14.056
12866W        W84395  12.440  34.246   4.172
12867W        W84396  32.012  28.017  14.890
12868W        W84397   8.115  27.600  13.889
12869W        W84398  36.920  31.904   4.224
12870W        W84399  33.492   3.518  10.762
12871W        W84400   2.706   2.271   4.641
12872W        W84401   3.787   8.880  14.335
12873W        W84402  25.233  24.134   2.081
12874W        W84403  14.018  14.111  11.125
12875W        W84404  39.902   0.753   3.386
12876W        W84405  23.155  44.774  11.183
12877W        W84406  30.453  39.931  12.019
12878W        W84407  23.439   1.539   0.884
12879W        W84408  40.332  36.571  10.622
12880W        W84409  10.888  20.474  14.281
12881W        W84410  36.319  12.370  13.958
12882W        W84411  35.625  25.544   4.132
12883W        W84412  21.291  10.266  13.401
12884W        W84413  39.275  27.232   3.590
12885W        W84414   8.831  21.043   4.725
12886W        W84415  41.345  27.978  10.994
12887W        W84416  34.979  18.238   4.601
12888W        W84417  30.165  25.851   0.837
12889W        W84418  39.485  12.876  14.375
12890W        W84419  14.831  42.023  13.846
12891W        W84420  32.252  36.090   0.733
12892W        W84421  29.619  41.973   2.446
12893W        W84422  44.124  15.021  13.068
12894W        W84423  13.094  43.387   4.692
12895W        W84424  43.411  30.071  10.699
12896W        W84425  13.879  32.673   3.322
12897W        W84426  23.189   4.419  14.399
12898W        W84427  18.341  31.066  13.815
12899W        W84428  34.017   2.191  10.764
12900W        W84429   2.348  18.826   3.227
12901W        W84430   8.620  40.512  14.958
12902W        W84431  12.890  38.609  14.764
12903W        W84432  10.169  24.375   1.871
12904W        W84433   7.794  27.434   1.234
12905W        W84434   5.817   8.070  14.190
12906W        W84435  25.566   8.687  14.238
12907W        W84436   3.319  34.889   1.945
12908W        W84437   3.559  24.483  10.854
12909W        W84438   5.337   4.026   0.199
12910W        W84439  34.979  31.689   1.241
12911W        W84440   4.806  14.168   2.326
12912W        W84441  12.435   1.760  14.876
12913W        W84442  28.131  16.658  14.931
12914W        W84443  23.975  34.336   9.594
12915W        W84444  38.637  41.404  11.912
12916W        W84445  16.721  10.852  11.544
12917W        W84446  40.004  41.043  14.811
12918W        W84447  25.657  41.084   3.201
12919W        W84448  14.341  27.486   4.609
12920W        W84449  13.193   1.841  13.976
12921W        W84450  26.048  11.212  11.850
12922W        W84451  12.437  44.394  10.390
12923W        W84452   0.208   1.823  14.348
12924W        W84453  24.072  19.024  14.858
12925W        W84454  16.399  23.665  14.889
12926W        W84455  26.610  29.024  14.536
12927W        W84456  18.053  19.240   4.034
12928W        W84457  17.581   4.373   4.721
12929W        W84458  28.605   6.230  10.493
12930W        W84459  18.678   9.873  11.056
12931W        W84460  44.460  20.002   1.033
12932W        W84461  36.209   3.133  11.764
12933W        W84462  38.466  25.137  11.365
12934W        W84463  33.543   6.871  10.751
12935W        W84464  22.138  27.654  13.490
12936W        W84465  34.539  23.244  12.032
12937W        W84466  20.735  20.146   2.378
12938W        W84467   0.191  41.189   3.200
12939W        W84468  11.673   8.721   0.716
12940W        W84469  13.098  44.822  13.348
12941W        W84470   3.384  16.285  12.420
12942W        W84471  39.335   5.609   1.880
12943W        W84472  33.432   3.145   1.788
12944W        W84473  44.054   5.280  14.957
12945W        W84474   4.369  20.216   4.702
12946W        W84475  16.634   6.921  11.183
12947W        W84476  40.331  42.507  14.450
12948W        W84477   4.650  18.493  13.217
12949W        W84478  10.881   9.347  13.356
12950W        W84479   3.795  40.803  13.784
12951W        W84480  31.714  34.401  13.501
12952W        W84481  38.045   0.768  12.018
12953W        W84482   8.415  24.712  12.828
12954W        W84483  28.123  28.907  11.450
12955W        W84484   2.480  35.530  14.347
12956W        W84485  11.976  37.185   3.262
12957W        W84486  38.624  25.590   3.886
12958W        W84487   4.250  41.517   2.874
12959W        W84488  26.135  43.913  12.074
12960W        W84489  21.538  34.949  11.001
12961W        W84490  25.152  17.693   0.362
12962W        W84491  23.806   5.784  11.914
12963W        W84492  15.291  15.981  12.361
12964W        W84493   9.080   6.916   0.824
12965W        W84494  17.439  26.134  13.054
12966W        W84495  33.482  27.101  14.931
12967W        W84496  17.503  28.128  13.190
12968W        W84497  20.587  37.992  12.254
12969W        W84498  40.964   4.317  12.663
12970W        W84499  39.707   7.852  11.192
12971W        W84500  26.709   4.260  14.700
12972W        W84501  18.711  42.343  12.067
12973W        W84502  23.227  12.614   2.078
12974W        W84503  40.085  11.659  12.222
12975W        W84504  37.408  18.695  10.714
12976W        W84505  22.351  25.503  12.056
12977W        W84506  15.843   4.883   1.889
12978W        W84507  33.893   6.198  14.839
12979W        W84508  35.551  27.209   2.748
12980W        W84509  23.741  33.606   3.283
12981W        W84510   2.795   1.075  13.367
12982W        W84511  39.427  18.013   0.729
12983W        W84512   7.436  37.844   1.390
12984W        W84513  26.064  15.379   1.712
12985W        W84514  30.883  32.704   0.813
12986W        W84515   3.123   7.147   2.743
12987W        W84516   0.757  29.524  12.965
12988W        W84517  26.588  30.827  14.474
12989W        W84518  19.809  43.411   3.629
12990W        W84519  25.166  11.873   0.908
12991W        W84520  15.081  12.683   4.453
12992W        W84521  11.404  42.529  10.907
12993W        W84522   8.240  35.674   1.304
12994W        W84523  17.538  38.011  10.744
12995W        W84524  29.261  23.543  12.451
12996W        W84525  43.474  33.352  13.293
12997W        W84526  29.915   7.674   1.862
12998W        W84527   0.967  25.622  10.976
12999W        W84528  34.900   5.316  10.815
13000W        W84529  40.869  14.367  11.605
13001W        W84530  21.483  29.712  10.741
13002W        W84531  24.208   8.748  12.059
13003W        W84532   6.694   2.295   1.735
13004W        W84533  32.754  37.782   0.522
13005W        W84534  35.378  33.791   2.317
13006W        W84535  26.768  11.651   5.094
13007W        W84536  20.561  40.482   1.643
13008W        W84537  40.812  14.571   4.390
13009W        W84538   0.257  25.241  12.878
13010W        W84539  25.842  37.093  11.062
13011W        W84540   8.535   9.120  13.189
13012W        W84541  13.366  12.225   4.548
13013W        W84542  39.913   7.321  10.642
13014W        W84543  26.627  16.520  14.984
13015W        W84544  28.090  33.553  12.522
13016W        W84545  18.478  30.251  10.781
13017W        W84546   1.969  27.029   4.507
13018W        W84547  43.941  42.803   3.732
13019W        W84548  10.627  41.324   0.170
13020W        W84549  37.283  25.541   3.566
13021W        W84550  38.280  27.589  11.607
13022W        W84551  38.997   0.308   2.367
13023W        W84552  10.704  29.001   3.144
13024W        W84553  12.089  35.168   1.884
13025W        W84554   4.858  43.063  13.780
13026W        W84555  37.066  13.102   1.911
13027W        W84556   3.415  39.408   4.650
13028W        W84557  20.651   9.414  12.404
13029W        W84558   9.253  36.986  13.789
13030W        W84559  41.457  32.533   1.847
13031W        W84560  38.038  16.965  13.189
13032W        W84561  28.952  19.222   0.917
13033W        W84562  14.287  23.944   1.325
13034W        W84563   3.464  25.969  11.573
13035W        W84564   7.285  19.292   3.225
13036W        W84565  30.559   1.281  14.297
13037W        W84566  29.076   1.265  13.467
13038W        W84567  29.658  33.985   2.778
13039W        W84568  17.240  13.117  13.843
13040W        W84569  20.718  32.558  10.685
13041W        W84570  29.572  22.471   2.589
13042W        W84571  28.540   6.956   3.694
13043W        W84572  26.944  25.683  12.530
13044W        W84573  37.970  31.901   2.698
13045W        W84574   5.162  33.966  10.400
13046W        W84575  29.775   6.001   1.047
13047W        W84576  20.932  30.741   4.035
13048W        W84577  28.158  26.999   1.610
13049W        W84578  20.087  28.119   1.352
13050W        W84579  40.262  32.380   3.372
13051W        W84580   1.805  30.653   4.396
13052W        W84581  43.930   5.768   0.657
13053W        W84582   1.393  39.733  10.639
13054W        W84583  37.248  42.267   1.345
13055W        W84584  42.880   4.279   0.378
13056W        W84585   6.235  31.885   0.612
13057W        W84586  43.840   1.635   4.170
13058W        W84587  16.707  14.873  10.780
13059W        W84588  29.520  32.463   2.794
13060W        W84589  23.396  34.186   3.970
13061W        W84590   6.177  17.141  13.070
13062W        W84591  16.691  43.106   0.780
13063W        W84592   1.620  25.685  14.262
13064W        W84593  37.666   3.834   3.800
13065W        W84594   9.613  26.472   0.811
13066W        W84595  41.298  23.294  10.606
13067W        W84596  26.209  14.539   0.346
13068W        W84597  15.613  36.439  11.875
13069W        W84598   0.855  44.546   4.180
13070W        W84599  11.963  28.700  11.128
13071W        W84600  20.156  43.257   2.766
13072W        W84601  19.705   8.617   0.457
13073W        W84602  18.002  43.181   1.251
13074W        W84603  41.434  16.156   0.785
13075W        W84604  28.029  21.263  12.034
13076W        W84605  30.038  13.827   2.890
13077W        W84606  35.519   3.258  13.641
13078W        W84607  13.081  38.102   4.918
13079W        W84608  11.467  32.928  10.689
13080W        W84609  32.947  34.632   0.080
13081W        W84610  41.450  40.937  14.367
13082W        W84611  20.021  44.254  12.141
13083W        W84612  38.009  42.352   0.255
13084W        W84613  36.551  21.665  14.469
13085W        W84614  27.953   3.022  12.488
13086W        W84615   5.367  41.070  14.636
13087W        W84616  43.338  38.804   0.838
13088W        W84617  13.256  35.977   3.170
13089W        W84618  27.248  11.127  12.508
13090W        W84619  15.773   8.053  10.266
13091W        W84620  23.752  39.536  10.207
13092W        W84621  43.038  37.665   3.186
13093W        W84622  12.294  28.570  12.919
13094W        W84623  34.893  35.378  11.391
13095W        W84624  17.120  37.368   2.811
13096W        W84625  44.464   8.792  10.746
13097W        W84626   0.955  41.183  12.358
13098W        W84627   5.399  16.091   0.848
13099W        W84628  40.579  21.299   0.822
13100W        W84629  10.161  21.716   2.782
13101W        W84630  29.096  13.856   4.175
13102W        W84631  34.822  39.323  12.748
13103W        W84632  29.644   2.029  13.021
13104W        W84633   8.235  26.593   3.225
13105W        W84634  35.649  28.074  11.949
13106W        W84635  17.746  12.862   2.930
13107W        W84636  43.408  33.737   4.299
13108W        W84637  31.728  33.707   3.618
13109W        W84638   7.096   9.973  10.749
13110W        W84639  27.608  43.660   3.411
13111W        W84640  23.355   4.970  11.995
13112W        W84641   5.003  28.587   2.899
13113W        W84642  35.549  23.834   2.668
13114W        W84643   8.250  29.163  12.039
13115W        W84644  37.251  20.158   4.634
13116W        W84645   5.179  44.028  12.475
13117W        W84646  42.946  38.885   2.341
13118W        W84647  29.578   1.157   1.411
13119W        W84648  35.437  37.049   4.721
13120W        W84649  31.324   1.786  13.410
13121W        W84650   8.389  37.203  14.674
13122W        W84651   6.772  44.992   2.178
13123W        W84652  30.616  33.475  13.042
13124W        W84653  30.116  22.872   1.090
13125W        W84654  34.556  22.183   2.115
13126W        W84655  15.841  12.793   4.206
13127W        W84656  28.588  29.110  11.541
13128W        W84657  32.578  41.916   1.317
13129W        W84658  13.267  26.134   3.860
13130W        W84659  27.478  16.744  11.407
13131W        W84660  14.341  26.659  10.226
13132W        W84661   6.319  26.025  11.536
13133W        W84662   4.736   3.737   3.816
13134W        W84663  23.006   1.688  11.983
13135W        W84664  14.994  15.402  13.852
13136W        W84665  32.495  12.163  12.172
13137W        W84666  17.716  36.291   4.580
13138W        W84667  42.024  43.845   2.452
13139W        W84668  30.701  38.039   1.531
13140W        W84669  27.276   3.274  13.800
13141W        W84670   8.973   7.617  10.276
13142W        W84671  13.972   6.049   2.239
13143W        W84672   5.119  20.395  11.126
13144W        W84673   1.419  36.972   0.130
13145W        W84674  22.661  42.677   4.171
13146W        W84675  39.347  29.695  12.850
13147W        W84676  31.705  15.063   2.179
13148W        W84677  20.515  41.269  12.249
13149W        W84678   9.156  38.403  14.315
13150W        W84679  43.983   5.815  12.363
13151W        W84680  34.814  13.174   0.376
13152W        W84681   6.665   9.067  11.508
13153W        W84682   6.893   5.121  12.595
13154W        W84683  28.627  28.623   4.219
13155W        W84684  34.588  33.792   0.347
13156W        W84685  42.478  27.371  13.837
13157W        W84686   7.142   4.827  13.680
13158W        W84687  20.104   5.156  10.678
13159W        W84688  19.320  28.170   0.755
13160W        W84689  32.462   5.323  13.568
13161W        W84690  44.697  12.976  11.119
13162W        W84691  26.242  44.469  12.777
13163W        W84692   5.071  12.854   1.299
13164W        W84693  38.586  23.514   2.751
13165W        W84694  29.916  15.665   3.247
13166W        W84695  20.661  16.735  14.954
13167W        W84696  17.243  43.285   3.173
13168W        W84697  28.450   5.494  13.996
13169W        W84698  21.625  35.542  12.804
13170W        W84699  33.540  43.441   4.629
13171W        W84700  25.674  32.319  11.070
13172W        W84701  12.789  13.331   4.953
13173W        W84702  32.283  21.967   3.842
13174W        W84703   4.536  14.146  14.445
13175W        W84704  26.288  22.243   2.195
13176W        W84705   2.825  29.127   3.186
13177W        W84706   1.745  21.291  11.205
13178W        W84707  44.289  35.346   3.336
13179W        W84708   5.339  26.686   1.809
13180W        W84709   2.495   5.913   2.292
13181W        W84710  38.922  15.897   1.718
13182W        W84711   9.582   8.149   1.503
13183W        W84712  19.231   6.284  11.229
13184W        W84713  21.384   4.955  11.032
13185W        W84714  17.566  17.594   1.865
13186W        W84715   1.282  16.720   1.579
13187W        W84716  37.451   6.460  13.903
13188W        W84717   4.180   5.018  13.825
13189W        W84718  20.458  13.198  14.874
13190W        W84719  10.711   3.858   0.739
13191W        W84720  29.507   5.219  14.908
13192W        W84721  37.088   9.789   3.510
13193W        W84722  11.306   5.533  11.102
13194W        W84723  44.393   7.869   3.248
13195W        W84724  28.516  22.553  12.903
13196W        W84725  13.029  18.617   2.629
13197W        W84726   8.342  20.531   1.896
13198W        W84727   7.075  27.023   4.079
13199W        W84728  27.202   0.913  14.173
13200W        W84729  22.978  27.700   3.269
13201W        W84730  21.272  36.714  11.628
13202W        W84731  15.286  44.665  12.058
13203W        W84732  11.884   1.169   1.724
13204W        W84733   2.944  14.665   2.334
13205W        W84734  42.246  28.987  11.982
13206W        W84735   3.159  19.885  13.421
13207W        W84736  42.078  30.388  13.277
13208W        W84737  28.208  23.074  13.403
13209W        W84738  20.225  41.951  14.598
13210W        W84739  17.626  32.596  13.872
13211W        W84740  10.641  23.522  11.920
13212W        W84741  31.621  43.375   1.181
13213W        W84742   7.458  12.890  12.092
13214W        W84743  20.906  25.106  13.798
13215W        W84744  35.083   2.923   3.440
13216W        W84745   3.802  16.574  12.856
13217W        W84746  31.718  28.467  14.030
13218W        W84747  17.035  43.651  14.498
13219W        W84748  38.489  36.402  10.982
13220W        W84749  17.472  13.904  10.655
13221W        W84750   2.026  13.671   2.358
13222W        W84751   2.823  37.827   2.153
13223W        W84752  20.663   7.734   1.006
13224W        W84753  30.007  16.272  10.966
13225W        W84754  21.954  17.633  12.844
13226W        W84755   3.983  38.028   0.084
13227W        W84756  13.180   1.043   0.274
13228W        W84757  23.795  32.276   0.770
13229W        W84758  32.921  16.360  10.661
13230W        W84759  19.974  23.791  10.811
13231W        W84760  23.746  13.877  11.574
13232W        W84761  34.738  39.598   3.272
13233W        W84762  42.746   1.592  13.346
13234W        W84763  31.482  21.235   0.260
13235W        W84764  20.030  33.822   1.983
13236W        W84765  31.631  44.711  13.006
13237W        W84766   7.824   0.477  12.725
13238W        W84767  33.710   8.565  12.044
13239W        W84768  36.736  21.130  14.293
13240W        W84769  44.624  38.888   3.132
13241W        W84770   7.826   8.740   0.768
13242W        W84771  13.151  38.841   4.185
13243W        W84772  32.451  14.747   1.449
13244W        W84773  28.752   9.008   2.386
13245W        W84774  18.191  36.436   4.424
13246W        W84775  18.289   0.317  14.888
13247W        W84776  43.929  35.587  13.286
13248W        W84777  31.305   4.904   9.818
13249W        W84778  36.545  21.097  12.544
13250W        W84779  21.225   8.121   0.340
13251W        W84780  33.638  11.601  11.088
13252W        W84781  24.925  23.003  11.014
13253W        W84782   6.757  11.895  10.609
13254W        W84783  30.151  32.647  14.440
13255W        W84784  12.384  31.247  14.508
13256W        W84785  44.442  11.189   3.676
13257W        W84786  25.989   0.420  14.390
13258W        W84787   2.107  24.255  14.966
13259W        W84788  36.814  21.556  10.569
13260W        W84789  22.407   4.946  11.067
13261W        W84790  14.110  41.160  14.938
13262W        W84791  32.147   6.748   1.899
13263W        W84792  39.550   4.717  13.505
13264W        W84793  41.867  28.688   1.771
13265W        W84794  42.993   4.691  13.430
13266W        W84795  32.376  33.678   1.552
13267W        W84796  32.402  30.495   0.761
13268W        W84797  12.307  11.103   0.331
13269W        W84798  14.895  30.216  10.704
13270W        W84799  23.254  37.111  12.456
13271W        W84800   3.778  35.022   0.209
13272W        W84801  12.617   1.255  13.556
13273W        W84802  10.367  14.064   2.385
13274W        W84803  36.364  41.357  10.624
13275W        W84804   4.686  12.936  10.310
13276W        W84805  34.403  17.515   1.299
13277W        W84806  13.734  27.630  12.852
13278W        W84807  18.825  41.534   0.717
13279W        W84808  36.875   9.930   2.816
13280W        W84809  12.278   8.761   2.381
13281W        W84810  20.605  22.895   0.222
13282W        W84811  40.100  30.541  12.085
13283W        W84812  31.200   8.698  12.408
13284W        W84813  33.760  18.310   3.749
13285W        W84814  21.621   6.363  12.166
13286W        W84815  13.712   9.192  13.462
13287W        W84816  25.771  42.968  14.437
13288W        W84817  31.139  39.798   4.153
13289W        W84818   2.671  34.082   3.632
13290W        W84819  20.761  13.399   2.770
13291W        W84820  11.131  39.103  14.803
13292W        W84821  43.548   5.142  14.953
13293W        W84822  26.346  36.621   3.532
13294W        W84823  41.535   3.459  13.180
13295W        W84824   6.501  37.545   3.656
13296W        W84825   5.796  26.946   1.263
13297W        W84826  27.916  38.946   2.951
13298W        W84827  18.260  34.063   1.828
13299W        W84828  24.721  35.889  14.859
13300W        W84829   8.616  43.836   3.349
13301W        W84830   0.893   0.929   4.581
13302W        W84831  28.012  13.904  13.899
13303W        W84832  33.951  14.264  10.641
13304W        W84833  43.633  41.187  12.891
13305W        W84834   8.357  34.929   0.095
13306W        W84835  31.310  37.605  10.494
13307W        W84836  21.100  20.044  14.678
13308W        W84837  25.975  26.852   4.540
13309W        W84838  36.893  42.689   4.676
13310W        W84839  33.928  11.275   3.242
13311W        W84840  12.374   7.278   1.887
13312W        W84841  20.018  37.416   0.727
13313W        W84842  13.669  15.911   0.430
13314W        W84843  34.523  19.984   2.295
13315W        W84844  36.385   7.154  13.793
13316W        W84845  25.977  31.382  13.940
13317W        W84846  34.205  13.365  12.287
13318W        W84847  28.580  40.004  11.526
13319W        W84848  33.171   2.944  12.461
13320W        W84849  11.726  18.173   0.979
13321W        W84850  27.202  41.819  11.124
13322W        W84851  12.281   9.097   3.696
13323W        W84852  36.461  41.757   1.001
13324W        W84853   9.931  34.041  11.603
13325W        W84854  11.934  15.052   3.119
13326W        W84855  35.994  18.548   0.441
13327W        W84856  13.985  15.083  11.043
13328W        W84857  15.358  38.406   0.483
13329W        W84858  13.678  21.037   0.366
13330W        W84859  31.022  28.908  11.798
13331W        W84860   7.586  43.911  14.359
13332W        W84861   2.200   4.217  11.098
13333W        W84862  26.910  44.341  10.124
13334W        W84863  29.337   3.443  11.563
13335W        W84864   5.634  40.472  12.452
13336W        W84865   2.804  11.564  13.388
13337W        W84866  30.369  41.807   2.902
13338W        W84867  10.235  41.800  11.016
13339W        W84868  19.367   4.393   4.548
13340W        W84869  28.029   7.557  13.140
13341W        W84870  42.781  20.658  13.778
13342W        W84871  42.791   3.317   2.677
13343W        W84872  20.804  26.704  14.517
13344W        W84873  11.163  24.607   3.134
13345W        W84874  27.512  37.397  13.946
13346W        W84875  21.580  31.434   3.544
13347W        W84876  17.652   2.548  10.484
13348W        W84877   5.742  14.299  11.210
13349W        W84878  20.225  27.565  14.979
13350W        W84879  40.595  35.277   2.724
13351W        W84880   0.280  33.379   4.034
13352W        W84881   9.878  33.591   0.836
13353W        W84882  31.119  30.643  14.375
13354W        W84883  11.117   6.316   3.158
13355W        W84884  24.598  27.782  13.842
13356W        W84885  35.013  33.541   3.168
13357W        W84886  33.951   0.955  14.035
13358W        W84887  13.968  38.282   3.309
13359W        W84888  12.086  34.967  10.404
13360W        W84889  39.513   5.671   4.166
13361W        W84890  14.848   5.790  12.387
13362W        W84891  43.250  37.405   3.814
13363W        W84892  32.592  23.179   5.100
13364W        W84893  11.732  21.563  11.172
13365W        W84894  38.035  38.178   3.906
13366W        W84895   9.838  37.435   3.959
13367W        W84896  36.528  18.435  11.023
13368W        W84897   1.344   8.888   4.712
13369W        W84898   2.435  26.938  13.012
13370W        W84899  29.446  40.096   0.751
13371W        W84900  13.165  39.948  14.969
13372W        W84901  10.772  42.926  10.691
13373W        W84902  39.019  32.849  11.508
13374W        W84903  41.701  34.152  14.350
13375W        W84904   4.243  19.623   0.231
13376W        W84905  14.845  39.026   2.991
13377W        W84906  21.278   1.624   4.010
13378W        W84907  23.982  34.865  12.515
13379W        W84908   4.912   1.180   4.716
13380W        W84909  23.489   2.337  12.633
13381W        W84910   0.301  16.294  12.996
13382W        W84911  15.846   9.459   4.926
13383W        W84912  32.963  27.931  10.369
13384W        W84913  10.388  32.862   1.798
13385W        W84914  44.485  18.100   3.651
13386W        W84915  25.539  12.796  12.472
13387W        W84916   2.531  38.838   3.249
13388W        W84917  35.659  38.801  13.810
13389W        W84918  32.337   2.298   0.791
13390W        W84919  42.022  12.806   2.701
13391W        W84920  44.998   8.346  12.069
13392W        W84921  20.506  27.951  13.032
13393W        W84922  43.986  36.879  13.319
13394W        W84923  24.537  44.961   3.297
13395W        W84924  40.552   0.699   4.512
13396W        W84925  12.378   5.913  13.495
13397W        W84926  14.691  44.544   0.778
13398W        W84927  42.068  20.720  11.934
13399W        W84928   0.525  22.726   3.629
13400W        W84929  43.264  14.571   0.868
13401W        W84930  20.225  29.775  14.267
13402W        W84931   5.322   3.383  11.138
13403W        W84932  34.912  27.086   4.694
13404W        W84933  17.309   1.389   3.669
13405W        W84934   6.230  23.935   5.000
13406W        W84935  21.507  28.411  11.046
13407W        W84936  16.065  34.203   0.721
13408W        W84937  36.689  19.753  10.937
13409W        W84938   7.495  41.428   0.876
13410W        W84939  13.232  10.565  11.886
13411W        W84940  37.910  30.619  14.892
13412W        W84941  37.386  29.573  10.772
13413W        W84942  33.546  36.046  13.563
13414W        W84943  43.364  30.147   3.263
13415W        W84944  43.177  18.573  12.076
13416W        W84945  19.793   6.492  13.905
13417W        W84946   1.677  14.794   4.230
13418W        W84947  39.009  19.654  11.979
13419W        W84948  38.886  33.465   3.757
13420W        W84949   4.299  16.611   0.531
13421W        W84950  23.148   8.271   2.345
13422W        W84951   5.216  18.237   2.202
13423W        W84952  36.159  13.158  11.025
13424W        W84953  43.521  35.621   0.399
13425W        W84954  11.560  37.039  13.458
13426W        W84955  37.113  23.309  13.900
13427W        W84956  37.120  25.057  14.384
13428W        W84957  41.056  26.642  14.411
13429W        W84958  37.410   0.093  12.021
13430W        W84959   5.375  43.235  12.329
13431W        W84960  43.555   3.438  14.479
13432W        W84961  37.330   1.867   1.220
13433W        W84962  35.241  38.338   3.192
13434W        W84963  38.007  37.783  13.529
13435W        W84964  21.879  44.723   1.239
13436W        W84965  36.490  41.243  14.376
13437W        W84966  31.734  27.701  10.613
13438W        W84967   6.431  34.098   0.465
13439W        W84968  15.963  34.982   0.353
13440W        W84969   4.415   2.887  10.793
13441W        W84970  13.042  22.194  13.325
13442W        W84971  11.665  18.100   2.491
13443W        W84972  41.940  39.132  13.515
13444W        W84973  22.522  40.906  13.921
13445W        W84974  32.294  15.292  10.117
13446W        W84975  26.052  26.332   2.302
13447W        W84976  14.151  25.370   3.730
13448W        W84977  40.818  10.517   5.042
13449W        W84978  25.153  31.674   2.177
13450W        W84979  25.463   2.340  12.073
13451W        W84980  21.585   1.384  12.422
13452W        W84981  16.786  23.038  13.887
13453W        W84982  43.353  44.269  14.609
13454W        W84983  16.508  38.983  12.458
13455W        W84984   6.879  24.688   1.364
13456W        W84985  37.469  25.916   2.318
13457W        W84986   6.687   7.837  13.921
13458W        W84987   4.646  32.008  13.023
13459W        W84988  17.817  39.902  13.717
13460W        W84989  44.924  31.187  10.458
13461W        W84990  34.448  23.709   4.782
13462W        W84991  33.680  25.662   1.280
13463W        W84992   5.738   9.328  14.014
13464W        W84993  19.676   1.220  11.636
13465W        W84994  30.006   3.044   0.554
13466W        W84995  14.365  42.448  12.758
13467W        W84996  16.756  43.356   4.941
13468W        W84997  15.052  26.701   1.583
13469W        W84998  13.293  32.537   0.679
13470W        W84999   4.095  33.392  12.980
13471W        W85000  41.393   1.058  13.980
13472W        W85001  44.327   1.770   0.936
13473W        W85002   0.715  28.512   0.752
13474W        W85003  13.733  14.339   1.271
13475W        W85004   3.785  38.410  12.827
13476W        W85005  43.039  28.337   1.879
13477W        W85006  16.177  20.486  14.451
13478W        W85007  32.801  41.720  14.433
13479W        W85008  18.282   5.841   0.262
13480W        W85009  24.723  32.372   1.714
13481W        W85010  24.079  11.634  12.927
13482W        W85011  23.482   9.213  13.033
13483W        W85012  30.178  34.964  14.901
13484W        W85013  15.330   8.373  11.928
13485W        W85014  20.727  25.995  14.315
13486W        W85015   5.346  15.355   1.380
13487W        W85016  10.253  15.812   5.058
13488W        W85017  34.632  36.784   0.485
13489W        W85018  38.338  23.543   3.197
13490W        W85019  23.274  26.542   2.312
13491W        W85020  27.171   7.842  10.656
13492W        W85021  41.053  26.170  13.481
13493W        W85022  25.585  18.094  10.710
13494W        W85023  31.646  20.511  11.034
13495W        W85024  23.602   9.351  11.216
13496W        W85025  44.853   4.247  12.991
13497W        W85026  30.214  35.938  11.955
13498W        W85027   0.430  43.997  13.059
13499W        W85028   0.910  33.326   2.764
13500W        W85029  33.911   8.955   2.691
13501W        W85030  41.822  42.554   3.715
13502W        W85031  16.627  21.753  12.236
13503W        W85032  25.279   1.654   4.081
13504W        W85033  37.804   0.775  11.514
13505W        W85034   3.706   2.333   2.425
13506W        W85035  14.151  42.002  11.546
13507W        W85036  17.986  35.274   3.622
13508W        W85037  30.505   0.220  12.605
13509W        W85038  41.013   7.195  13.969
13510W        W85039   6.305  28.412  14.874
13511W        W85040  43.106   5.276   2.296
13512W        W85041  12.805  42.869  14.824
13513W        W85042  18.860  15.952   5.020
13514W        W85043  35.554   4.876   2.414
13515W        W85044  21.405  27.887  10.231
13516W        W85045   4.753  13.577  11.581
13517W        W85046  30.139  17.577  13.563
13518W        W85047  27.703  37.068  11.423
13519W        W85048  36.839  41.521   4.998
13520W        W85049   0.465  38.578  10.598
13521W        W85050   1.688   1.913  12.121
13522W        W85051  40.130   5.470  12.980
13523W        W85052  22.989  21.249   1.802
13524W        W85053  39.418  24.979   4.084
13525W        W85054  20.735  28.145   3.237
13526W        W85055   1.705  14.077   2.297
13527W        W85056  26.656  19.245   3.731
13528W        W85057  18.313  31.598  13.709
13529W        W85058  16.693  38.218  13.996
13530W        W85059  12.700  12.619   2.586
13531W        W85060  25.185  10.437   0.832
13532W        W85061  38.659  22.968  10.771
13533W        W85062  19.539  27.721  12.915
13534W        W85063   6.995  23.151  14.102
13535W        W85064  10.023  25.108   3.421
13536W        W85065   6.608  25.222  13.376
13537W        W85066   6.923  15.602   1.828
13538W        W85067   3.046  22.325  10.676
13539W        W85068  11.349  14.093  11.531
13540W        W85069  26.049   4.152  12.849
13541W        W85070  25.592  34.577  13.484
13542W        W85071   2.241   3.177   1.423
13543W        W85072  17.742  28.949  11.581
13544W        W85073  43.554   5.844   0.271
13545W        W85074  20.513  19.349   2.748
13546W        W85075  11.824   0.504   0.825
13547W        W85076   0.956  28.856  13.539
13548W        W85077   0.352  29.706   1.275
13549W        W85078  11.579  40.043  12.368
13550W        W85079  25.103  11.287   4.798
13551W        W85080   2.804  37.145   0.815
13552W        W85081  34.115   3.296  11.442
13553W        W85082  35.838  43.306  13.958
13554W        W85083  25.973  40.493  14.375
13555W        W85084  26.078  34.351   0.948
13556W        W85085  26.944  21.408   1.487
13557W        W85086  36.599   2.859   0.008
13558W        W85087  30.014  41.505   3.843
13559W        W85088  30.918  31.734   0.060
13560W        W85089  10.704  28.025  10.957
13561W        W85090   1.028  26.458   4.613
13562W        W85091  15.526  31.902   3.294
13563W        W85092  23.019  12.063   4.690
13564W        W85093  39.888   2.459  14.930
13565W        W85094  32.753  16.543   3.983
13566W        W85095  39.425   8.183   2.310
13567W        W85096  26.004   1.890   4.819
13568W        W85097  22.196  15.892   0.328
13569W        W85098  17.389  30.965  10.553
13570W        W85099   6.798  44.823   0.657
13571W        W85100  35.322  43.962   1.836
13572W        W85101  16.677  32.413   0.750
13573W        W85102  12.841  12.636  11.500
13574W        W85103   1.858  23.515   4.810
13575W        W85104  43.918   8.282   0.674
13576W        W85105   0.215  29.163  14.856
13577W        W85106  27.565  23.148   1.952
13578W        W85107  25.686  23.535  14.974
13579W        W85108  29.701  11.882   5.132
13580W        W85109  15.827  15.574   3.265
13581W        W85110  41.584   6.932  13.784
13582W        W85111  10.876   9.060   2.155
13583W        W85112  41.838  44.523  14.405
13584W        W85113  35.888  16.706   1.703
13585W        W85114  17.058  15.624   1.263
13586W        W85115  36.236  20.640  11.111
13587W        W85116   4.601  28.407   3.821
13588W        W85117   2.215  36.458  13.955
13589W        W85118   9.642  17.297   4.634
13590W        W85119  25.250  26.030  12.993
13591W        W85120  16.567  42.583  13.523
13592W        W85121  36.429  10.945   2.638
13593W        W85122  20.403  21.961  14.773
13594W        W85123  31.249   2.192   3.829
13595W        W85124  35.932  21.660   4.108
13596W        W85125   7.178  27.705  11.098
13597W        W85126   9.173   3.709  11.383
13598W        W85127  30.570  17.774   1.595
13599W        W85128  33.620  40.868   2.384
13600W        W85129  24.934  37.657  13.270
13601W        W85130  12.269  12.605  13.403
13602W        W85131  27.000  40.893  11.669
13603W        W85132  18.125  31.252   5.144
13604W        W85133  31.319  15.672  11.986
13605W        W85134  31.786  21.577  12.038
13606W        W85135  15.079  19.107   3.131
13607W        W85136  24.316  22.052   2.250
13608W        W85137  32.180  16.116  14.574
13609W        W85138  14.028  12.626  14.779
13610W        W85139   7.169  32.896  12.575
13611W        W85140   9.167  30.498  11.844
13612W        W85141   0.371  39.849  12.034
13613W        W85142  41.496  23.732  10.753
13614W        W85143   7.315  41.054  10.637
13615W        W85144   9.209  41.339   0.379
13616W        W85145  26.609  34.135   3.895
13617W        W85146   9.213  31.937   0.491
13618W        W85147  42.412  15.721  10.791
13619W        W85148  16.874  16.566   4.091
13620W        W85149   0.764  18.060   0.432
13621W        W85150  38.567  22.063  12.389
13622W        W85151  21.254  35.177  14.007
13623W        W85152  31.910  18.632  12.709
13624W        W85153   5.342  21.967   2.281
13625W        W85154  21.293  29.471   0.525
13626W        W85155   4.820  29.060   2.732
13627W        W85156  38.499  36.045  14.781
13628W        W85157   5.576   0.480   0.966
13629W        W85158  25.693   6.483   2.837
13630W        W85159  19.254  16.679   0.798
13631W        W85160   5.214  31.094   4.043
13632W        W85161  15.676  27.749   5.004
13633W        W85162  19.781  22.464   1.159
13634W        W85163   5.838   9.085   1.400
13635W        W85164  11.802  11.218  13.414
13636W        W85165  42.495  29.578  12.101
13637W        W85166  26.582  14.665   1.435
13638W        W85167  11.360  23.233   2.355
13639W        W85168  40.576  11.639  12.048
13640W        W85169   4.354   1.898  12.551
13641W        W85170  12.755  14.216  12.042
13642W        W85171  30.174  28.177   4.293
13643W        W85172  44.309  40.384   3.670
13644W        W85173  37.063  43.407  14.824
13645W        W85174  29.105  27.571  13.770
13646W        W85175  18.373  10.278  11.089
13647W        W85176  10.312  43.479  13.111
13648W        W85177   4.736  10.690  12.666
13649W        W85178  33.753  10.868  10.289
13650W        W85179  11.311  23.507  13.821
13651W        W85180   4.138  36.099  11.637
13652W        W85181  27.489  33.307  13.957
13653W        W85182   3.936  14.974   3.156
13654W        W85183  11.259  15.179   2.825
13655W        W85184  43.348   7.134   1.320
13656W        W85185  22.861  33.121  10.168
13657W        W85186  11.895  38.415  12.479
13658W        W85187  38.513  30.127   0.478
13659W        W85188  36.848  44.286   1.510
13660W        W85189  34.248  24.730   2.385
13661W        W85190  18.248  19.118  14.251
13662W        W85191  40.860  40.208   3.291
13663W        W85192  44.104  42.971   1.233
13664W        W85193   8.552  42.858  11.377
13665W        W85194  43.301  33.105  10.980
13666W        W85195  34.326  19.118  13.904
13667W        W85196  18.945  11.066  11.158
13668W        W85197   8.390  38.379  10.874
13669W        W85198  28.647  14.962  14.996
13670W        W85199  37.499   8.497   3.821
13671W        W85200  26.599  29.829  10.679
13672W        W85201   7.086   5.408  12.209
13673W        W85202  11.819  13.942  12.330
13674W        W85203  37.890  31.948   1.314
13675W        W85204  15.797  32.089  14.780
13676W        W85205  13.810   1.306  10.982
13677W        W85206  12.930   1.506   0.266
13678W        W85207  42.531  39.011   0.396
13679W        W85208  20.797  43.226   3.668
13680W        W85209  20.995  21.741   3.395
13681W        W85210  21.242  36.478   2.625
13682W        W85211  16.620   7.372   1.747
13683W        W85212  42.949  21.294  10.205
13684W        W85213  11.516  29.000  12.850
13685W        W85214   5.636  38.706  14.430
13686W        W85215   4.555   0.290   0.670
13687W        W85216  14.677   4.460  10.897
13688W        W85217   7.656  40.292  13.837
13689W        W85218  43.589  42.498   2.842
13690W        W85219  29.919  20.005  11.182
13691W        W85220  16.682  25.710   1.883
13692W        W85221  27.497   9.817   3.853
13693W        W85222  14.736  31.611   0.289
13694W        W85223  42.813   5.703  11.413
13695W        W85224   9.715  40.942   3.778
13696W        W85225  40.977  27.186  10.687
13697W        W85226   8.750  42.008   1.205
13698W        W85227   2.853  12.193  12.992
13699W        W85228  10.145  36.530   1.723
13700W        W85229  21.135  19.225   4.135
13701W        W85230  37.208   6.815   4.483
13702W        W85231  37.499  33.133   3.094
13703W        W85232  12.726  11.780  12.491
13704W        W85233   6.819  31.912   2.109
13705W        W85234  36.131  32.979   4.586
13706W        W85235   4.817  39.962   1.166
13707W        W85236  32.367  25.551  13.476
13708W        W85237  14.619  25.549   1.947
13709W        W85238  41.523  19.013   4.316
13710W        W85239  40.847  36.975   2.750
13711W        W85240  22.239  42.297  13.882
13712W        W85241  24.033  44.250  11.104
13713W        W85242  20.520  43.216  14.476
13714W        W85243  41.029  26.309   2.876
13715W        W85244  33.508  39.410   2.220
13716W        W85245  17.590  29.859  11.036
13717W        W85246  41.097   3.294  12.946
13718W        W85247  36.630  23.138  13.829
13719W        W85248  13.782  38.461  13.990
13720W        W85249  28.503  14.283  14.031
13721W        W85250  38.946  13.263   1.768
13722W        W85251  40.117  26.981  12.551
13723W        W85252  15.572  33.581   4.619
13724W        W85253  43.829  44.097  11.922
13725W        W85254  38.384  15.381   3.924
13726W        W85255  24.602  31.344   3.315
13727W        W85256  14.170  10.635  13.950
13728W        W85257  14.646  14.362  12.511
13729W        W85258  37.933  38.990   0.973
13730W        W85259   7.122  21.932   1.816
13731W        W85260  37.599   6.259  12.512
13732W        W85261  10.350  25.640   4.311
13733W        W85262  44.714   5.895  13.062
13734W        W85263   6.166   8.633  14.946
13735W        W85264  27.587   2.827   2.807
13736W        W85265  15.780  28.511  11.686
13737W        W85266   2.344  13.786   1.316
13738W        W85267  40.850   8.110   2.155
13739W        W85268  17.974   7.687   3.778
13740W        W85269  10.776  44.237   3.186
13741W        W85270  26.898  40.468  14.329
13742W        W85271  20.974  24.440   0.342
13743W        W85272  11.231  39.753   4.925
13744W        W85273  32.998  36.006   0.116
13745W        W85274   7.283   9.746   4.177
13746W        W85275  29.643  43.404   1.870
13747W        W85276  33.748   2.217  13.587
13748W        W85277  33.176  22.577   0.409
13749W        W85278  16.716  35.668  13.383
13750W        W85279  19.261  24.054   0.828
13751W        W85280  18.001  44.951  12.877
13752W        W85281  10.874  41.035   4.312
13753W        W85282   7.893  15.548  10.543
13754W        W85283  39.768  38.944  11.257
13755W        W85284   7.941  18.342  14.819
13756W        W85285  18.670   0.989   4.735
13757W        W85286  17.604   8.177   1.088
13758W        W85287  21.771   4.650   2.792
13759W        W85288  17.972  26.983  10.761
13760W        W85289   8.407  22.670  10.713
13761W        W85290  28.171  29.667   4.253
13762W        W85291  12.151  33.945   3.673
13763W        W85292  13.403   9.876  11.140
13764W        W85293  27.866  23.652  11.565
13765W        W85294  13.810  30.578   1.293
13766W        W85295   9.214  34.991  14.863
13767W        W85296  17.095   7.761  14.210
13768W        W85297  38.223  16.116   4.402
13769W        W85298  44.421   0.656   3.233
13770W        W85299  30.009  17.140   2.094
13771W        W85300   1.491   7.342  12.957
13772W        W85301  13.722  42.829  10.730
13773W        W85302   6.673  18.611  13.620
13774W        W85303  32.759  19.514  10.269
13775W        W85304  42.754  12.330   4.230
13776W        W85305  18.124  19.669  13.609
13777W        W85306  28.411   5.648  12.161
13778W        W85307  33.072  37.817   2.778
13779W        W85308  40.869  16.781   3.669
13780W        W85309  20.141  33.319   1.897
13781W        W85310  19.476  30.573   1.474
13782W        W85311  37.458  32.820  11.739
13783W        W85312   3.721  38.614   0.407
13784W        W85313   6.172  20.041   1.883
13785W        W85314  13.666   4.671   4.125
13786W        W85315  21.054   9.239   0.757
13787W        W85316   0.197  39.734   4.195
13788W        W85317  41.095  22.863   1.843
13789W        W85318   9.791  24.735  14.453
13790W        W85319  31.526  42.689  14.823
13791W        W85320  26.679  39.967  10.751
13792W        W85321  27.761  28.649  11.701
13793W        W85322  35.511  38.546  13.067
13794W        W85323  33.470  17.146   2.353
13795W        W85324  17.273   3.559   0.206
13796W        W85325  18.530  14.534   5.046
13797W        W85326  20.587  13.138  11.930
13798W        W85327  18.537  19.179   0.716
13799W        W85328  36.525  13.764  14.889
13800W        W85329   6.977  14.205   1.769
13801W        W85330   3.825  11.102   4.572
13802W        W85331   1.341  35.500  12.938
13803W        W85332  24.657  17.971  14.329
13804W        W85333   2.325  36.981  10.887
13805W        W85334   0.449  39.880  13.190
13806W        W85335  21.514  37.128   2.244
13807W        W85336   2.836  17.721   3.520
13808W        W85337  25.931  36.477   0.730
13809W        W85338  27.256  40.563   3.843
13810W        W85339  21.741  23.247  10.659
13811W        W85340  12.993  29.068   1.067
13812W        W85341  42.355  19.311  13.323
13813W        W85342   6.459  26.630   2.867
13814W        W85343   5.708  40.050   2.880
13815W        W85344  20.405  12.223  10.668
13816W        W85345  37.812   3.894   0.910
13817W        W85346  16.683   6.110   4.688
13818W        W85347  44.251  34.448  11.815
13819W        W85348  33.967  20.798   4.334
13820W        W85349   4.686  25.459  11.141
13821W        W85350  14.704  30.021   1.996
13822W        W85351  22.215   4.907   2.611
13823W        W85352  23.228  19.681  14.350
13824W        W85353  40.001  10.779   0.725
13825W        W85354  35.446  19.196   4.590
13826W        W85355  12.659   5.136   2.663
13827W        W85356  20.274   9.365   3.697
13828W        W85357  34.910   1.586  13.849
13829W        W85358   4.342  10.411   3.087
13830W        W85359  25.513  14.391  12.390
13831W        W85360  39.821  20.071  10.849
13832W        W85361  20.586  32.130  11.259
13833W        W85362  25.860  41.996  12.110
13834W        W85363   4.433  19.591   1.490
13835W        W85364   2.897  40.890  13.824
13836W        W85365  37.399  19.507   1.771
13837W        W85366  30.500  38.203   2.380
13838W        W85367   0.013  12.177  13.898
13839W        W85368   2.407  42.725   0.706
13840W        W85369  43.080  13.339  13.243
13841W        W85370  26.492  25.943  12.483
13842W        W85371  16.295  39.089  10.652
13843W        W85372   5.295  28.168  12.682
13844W        W85373  37.612  24.153  11.221
13845W        W85374  29.296   1.003  10.104
13846W        W85375  14.575  39.381   0.659
13847W        W85376  18.712  42.163   4.188
13848W        W85377  15.445  10.060   3.664
13849W        W85378  16.214   2.673   4.048
13850W        W85379  25.187   0.469   4.665
13851W        W85380  19.018  25.461   0.921
13852W        W85381  16.613  19.268  13.410
13853W        W85382   9.070  14.502   3.042
13854W        W85383  37.510  18.526   2.628
13855W        W85384  41.379  23.708  12.503
13856W        W85385  40.393  23.591   0.520
13857W        W85386  32.731  21.714  12.888
13858W        W85387  15.996  20.061   1.829
13859W        W85388  34.380   4.910  14.422
13860W        W85389  35.174  18.038   2.695
13861W        W85390  41.607  35.400   2.694
13862W        W85391  21.247   9.955   2.806
13863W        W85392  27.093  24.073  11.991
13864W        W85393  22.352  27.100   3.224
13865W        W85394   8.326  27.570  10.853
13866W        W85395  23.556  13.750  10.667
13867W        W85396  12.154  44.619   3.256
13868W        W85397  38.986  10.685   3.220
13869W        W85398  37.552  40.768   2.387
13870W        W85399  18.314  23.780   4.137
13871W        W85400  30.836  19.291   4.028
13872W        W85401  43.993   7.172   0.067
13873W        W85402  13.684  13.889   2.332
13874W        W85403  30.496  43.361   3.530
13875W        W85404   4.776  17.053  13.049
13876W        W85405  13.851  41.092  12.992
13877W        W85406  43.435  17.139   1.780
13878W        W85407  39.844  35.764  13.456
13879W        W85408   3.811  25.713  14.560
13880W        W85409   1.686  25.559  12.371
13881W        W85410  30.503  43.692   2.506
13882W        W85411   8.875  41.504  11.669
13883W        W85412  19.837  35.160   4.722
13884W        W85413  13.215  42.822   0.131
13885W        W85414  32.708  24.502   0.868
13886W        W85415   1.775  28.250   2.431
13887W        W85416  20.190  22.895  11.350
13888W        W85417  41.142  37.559  10.029
13889W        W85418  17.580  18.125   2.763
13890W        W85419  36.067  35.889  12.502
13891W        W85420   3.570  39.225  14.308
13892W        W85421  24.166  16.439  10.869
13893W        W85422  43.395  12.570  13.383
13894W        W85423  28.671  44.909   4.574
13895W        W85424  43.076  36.936   4.712
13896W        W85425  10.114  13.812   3.730
13897W        W85426   6.880  39.137   4.657
13898W        W85427  36.273  36.480  12.889
13899W        W85428  22.181  31.085  14.599
13900W        W85429  41.983  33.607   0.531
13901W        W85430  17.097  38.899  13.500
13902W        W85431  24.297  31.789   3.493
13903W        W85432   3.197  21.122  13.272
13904W        W85433  30.134  42.352   0.298
13905W        W85434  19.769   4.211  13.980
13906W        W85435  23.262   2.927   4.976
13907W        W85436  31.646  41.538  11.996
13908W        W85437  16.994  33.429  14.902
13909W        W85438  19.289  29.949  12.534
13910W        W85439  27.722  23.025  13.238
13911W        W85440  35.171  20.186   3.099
13912W        W85441  24.973  41.946  13.387
13913W        W85442  40.008  36.993  13.314
13914W        W85443  15.698   6.863   4.595
13915W        W85444  28.480  30.441  10.802
13916W        W85445  31.794   1.734  14.430
13917W        W85446  28.361   9.702  14.016
13918W        W85447  15.178  19.350   0.420
13919W        W85448  42.362  40.030  12.871
13920W        W85449   0.470  12.307  12.434
13921W        W85450  44.863   1.415   2.619
13922W        W85451  11.565  31.562   2.784
13923W        W85452  19.732  32.505   2.496
13924W        W85453  15.397  20.472   4.152
13925W        W85454  42.119  29.965  13.613
13926W        W85455  42.710  19.599  12.853
13927W        W85456   3.456  44.390  14.381
13928W        W85457  41.314  22.539  14.913
13929W        W85458  17.461  39.095   4.833
13930W        W85459  20.536  30.495  12.007
13931W        W85460  24.293  31.666  11.116
13932W        W85461  38.929   0.726  11.226
13933W        W85462  26.176   6.390  14.469
13934W        W85463  12.735   9.021  13.168
13935W        W85464  18.308  32.522   2.155
13936W        W85465  23.172   2.034  13.365
13937W        W85466  43.928  16.726   3.880
13938W        W85467  29.971   2.715   0.966
13939W        W85468  28.386   0.881  12.482
13940W        W85469  35.432  44.723   2.851
13941W        W85470  37.366   1.244   4.147
13942W        W85471  10.823  33.210   0.993
13943W        W85472  42.026   5.729  10.739
13944W        W85473  40.376  20.719  14.474
13945W        W85474   4.982  33.066   4.187
13946W        W85475  44.626  23.018  12.058
13947W        W85476  35.551  42.548  13.370
13948W        W85477  37.885  14.664  13.955
13949W        W85478  21.041  29.735  12.467
13950W        W85479  17.619   9.344  12.030
13951W        W85480   9.133  18.133  10.638
13952W        W85481  12.849  22.157  12.048
13953W        W85482   2.128   6.277  10.245
13954W        W85483  27.639  28.940   1.055
13955W        W85484   9.308  15.432   4.967
13956W        W85485   0.765  15.657  13.647
13957W        W85486  39.409  43.065  10.959
13958W        W85487  28.010  23.965   0.904
13959W        W85488   1.462  23.457   0.227
13960W        W85489  25.963  19.278  13.387
13961W        W85490  32.311  40.500   5.017
13962W        W85491  33.712  39.047  13.752
13963W        W85492  26.524  38.653   1.924
13964W        W85493  42.833  23.894  12.143
13965W        W85494  33.801  43.350   4.182
13966W        W85495   7.183  21.775   4.200
13967W        W85496   9.665  17.829   4.638
13968W        W85497  25.720   1.348   4.815
13969W        W85498  32.220  15.635  10.498
13970W        W85499  26.251  33.982  14.031
13971W        W85500   8.149  41.037   4.535
13972W        W85501   8.009  42.052  11.396
13973W        W85502   0.335  41.375   1.546
13974W        W85503  28.512  18.555  14.402
13975W        W85504  38.595  32.096   0.473
13976W        W85505  18.620  30.289   4.034
13977W        W85506  28.344   9.510  10.127
13978W        W85507  39.660  17.104  12.031
13979W        W85508  42.436  35.530  13.116
13980W        W85509  27.098  13.365   2.420
13981W        W85510  42.396  31.904   4.337
13982W        W85511   5.958  35.586  14.366
13983W        W85512  44.184  24.608   1.821
13984W        W85513  31.867  30.476  11.805
13985W        W85514   6.946   3.207   4.412
13986W        W85515  11.811  20.760   4.738
13987W        W85516  43.811  38.925  13.006
13988W        W85517  19.255   4.771   2.810
13989W        W85518  14.829  22.172  13.034
13990W        W85519  10.784  43.963  11.656
13991W        W85520  40.474  13.707   1.663
13992W        W85521  39.113  39.402  11.570
13993W        W85522   6.512   2.670   1.428
13994W        W85523  21.895  13.946   3.339
13995W        W85524  17.503  32.479   1.184
13996W        W85525   3.196   9.318   4.665
13997W        W85526   4.867  30.887   2.829
13998W        W85527  32.856   3.701   2.635
13999W        W85528  40.889  35.744   2.632
14000W        W85529  33.206  13.652   4.966
14001W        W85530  14.855  24.133   2.340
14002W        W85531   9.631   3.372  13.270
14003W        W85532  21.110   6.461  13.472
14004W        W85533  37.016  12.661   2.235
14005W        W85534  40.123  28.045   2.399
14006W        W85535  32.433   5.626  13.983
14007W        W85536  21.361  36.955   9.783
14008W        W85537  44.564  21.816  13.446
14009W        W85538  30.147  17.187   2.604
14010W        W85539  16.822  16.288   2.852
14011W        W85540  40.635   5.751  10.979
14012W        W85541  34.194  33.380   2.862
14013W        W85542  34.386   3.272   0.694
14014W        W85543  28.980   8.912   1.302
14015W        W85544  34.356  34.562  13.177
14016W        W85545  23.653  27.435  11.957
14017W        W85546   3.215  18.109  14.511
14018W        W85547  30.922  23.598   1.712
14019W        W85548   0.164  16.767   3.285
14020W        W85549  10.344   9.804   1.427
14021W        W85550  28.752  19.748  12.558
14022W        W85551   7.723  12.174  14.938
14023W        W85552  10.649  28.199  11.848
14024W        W85553  43.724  18.827  13.438
14025W        W85554  10.084   9.812   3.108
14026W        W85555   8.063   0.894  13.614
14027W        W85556  16.309  23.513   4.450
14028W        W85557  15.711   0.259   0.445
14029W        W85558  36.456  31.696   2.283
14030W        W85559  31.824  37.145  11.093
14031W        W85560  12.706  38.976   5.359
14032W        W85561  11.810  24.447  14.650
14033W        W85562   5.070  14.221   4.637
14034W        W85563  15.190  27.664   0.395
14035W        W85564   2.831  14.136  12.587
14036W        W85565  17.340  21.991  12.130
14037W        W85566  39.600   1.546  14.644
14038W        W85567  19.793   4.578   3.624
14039W        W85568  17.938   5.019  11.627
14040W        W85569  22.164  31.945  11.753
14041W        W85570  34.442  36.563  12.504
14042W        W85571  20.144  33.462   4.518
14043W        W85572   3.448  18.329  10.350
14044W        W85573  31.969  24.065  12.177
14045W        W85574  32.119  15.821  13.047
14046W        W85575  31.557  43.994  13.526
14047W        W85576  14.599   6.244   4.033
14048W        W85577  29.499  14.938  14.867
14049W        W85578  41.082  18.393   1.268
14050W        W85579   9.871  31.593  12.781
14051W        W85580  17.387  14.159   1.564
14052W        W85581  19.000  16.275   3.427
14053W        W85582  13.146  26.093  14.030
14054W        W85583  41.239  30.952   2.163
14055W        W85584   5.272  40.318  12.087
14056W        W85585  41.926   8.845  10.774
14057W        W85586  18.737   6.427   3.045
14058W        W85587   4.672  20.291  10.866
14059W        W85588   4.406  27.082  13.253
14060W        W85589   7.311  26.432  10.630
14061W        W85590  31.408  15.010   0.679
14062W        W85591  22.549  36.019   0.769
14063W        W85592  28.550  28.923   2.883
14064W        W85593  36.276  38.614   1.691
14065W        W85594  23.586   8.779   1.249
14066W        W85595  21.929   9.941  14.681
14067W        W85596  44.951  43.644  14.695
14068W        W85597  20.694  36.123   3.328
14069W        W85598  32.261  28.884   1.736
14070W        W85599  13.942  44.574   2.280
14071W        W85600  40.246  16.795   0.402
14072W        W85601  33.868  25.684   0.086
14073W        W85602  35.405  32.613   0.262
14074W        W85603  30.028  32.346   3.513
14075W        W85604  18.566  17.445   4.110
14076W        W85605  35.335   3.268   3.128
14077W        W85606  37.453  21.578   1.795
14078W        W85607  20.286  11.684   4.625
14079W        W85608  43.107  15.140  13.897
14080W        W85609  35.794  19.501   3.580
14081W        W85610  34.991  13.854   4.562
14082W        W85611   3.007  19.749  11.216
14083W        W85612  38.408  12.162  12.199
14084W        W85613   2.720   1.400   0.483
14085W        W85614  11.392   1.951   1.777
14086W        W85615  30.175  25.015  12.384
14087W        W85616   4.292  34.123   4.556
14088W        W85617  34.953  27.643   3.401
14089W        W85618  18.815   4.413  10.999
14090W        W85619  44.530  43.989   4.808
14091W        W85620  38.297   4.700  11.659
14092W        W85621   1.864   3.169  11.684
14093W        W85622  40.562  39.525   3.370
14094W        W85623  29.324   7.901  11.586
14095W        W85624   3.333  22.745   2.149
14096W        W85625  25.286  30.411  11.585
14097W        W85626  43.236   0.747   1.890
14098W        W85627  41.811  16.952   1.638
14099W        W85628  34.536   2.327  12.502
14100W        W85629  40.871  24.492   2.200
14101W        W85630  40.859  12.384   4.576
14102W        W85631   6.897  30.076   3.365
14103W        W85632  12.087   7.669   0.548
14104W        W85633   1.443  35.410  14.405
14105W        W85634  16.348   0.725   3.231
14106W        W85635   1.907  11.584   1.945
14107W        W85636  37.794  41.320   1.651
14108W        W85637  28.253  34.430  14.333
14109W        W85638  42.454   2.934   2.585
14110W        W85639  40.228   4.813   3.218
14111W        W85640  42.834   0.436   0.704
14112W        W85641  15.130  23.632   2.252
14113W        W85642   8.195  18.062  14.474
14114W        W85643   5.274  40.172  11.170
14115W        W85644  35.659   6.308   3.451
14116W        W85645  23.617  23.949   1.243
14117W        W85646  40.811  19.143  14.909
14118W        W85647  17.118  18.502  10.274
14119W        W85648  26.883  40.977   1.890
14120W        W85649  43.466   3.083  11.076
14121W        W85650  15.556  31.021   1.053
14122W        W85651   5.739  12.693   2.285
14123W        W85652  36.343  13.399  14.454
14124W        W85653  26.139  17.287   0.735
14125W        W85654  26.529  38.337   3.339
14126W        W85655  38.725   5.829   4.749
14127W        W85656  14.868  35.979   3.437
14128W        W85657  43.913  35.167  12.936
14129W        W85658   3.217  33.894  14.828
14130W        W85659  32.794   3.253   4.561
14131W        W85660  33.558  29.286   1.989
14132W        W85661   1.824   5.060  14.420
14133W        W85662  12.256   2.012  14.334
14134W        W85663  14.551  40.323   4.607
14135W        W85664  36.859  12.222  14.003
14136W        W85665   2.998  32.398   2.171
14137W        W85666  20.733  32.437   2.956
14138W        W85667  29.606  38.819   0.882
14139W        W85668  17.032   6.318  14.097
14140W        W85669   9.841   5.195  13.318
14141W        W85670  26.723  39.969   2.568
14142W        W85671  30.573  41.531   4.040
14143W        W85672  39.099  14.755   0.790
14144W        W85673  41.850  35.885   2.814
14145W        W85674  31.152  20.124  13.001
14146W        W85675   3.911  42.873  12.767
14147W        W85676  44.388  40.077  14.377
14148W        W85677  14.410  30.396   0.699
14149W        W85678  39.038  35.102   2.835
14150W        W85679  24.770  27.113   4.214
14151W        W85680  19.000   6.919   1.877
14152W        W85681  18.443  16.913   4.091
14153W        W85682   5.511  17.300  10.298
14154W        W85683  21.244  32.205   4.303
14155W        W85684  35.833  29.202  14.688
14156W        W85685  25.238  43.132  12.325
14157W        W85686   1.598  35.919   3.077
14158W        W85687   1.677  41.066  14.735
14159W        W85688  28.767   3.378   2.368
14160W        W85689   9.750  19.519  14.067
14161W        W85690  11.361  35.328   3.157
14162W        W85691  20.736  29.560  12.091
14163W        W85692  17.159  33.096  14.476
14164W        W85693  30.012  15.313   0.918
14165W        W85694  32.922  34.875  10.632
14166W        W85695  29.387   5.060   4.528
14167W        W85696  38.480  36.145   1.226
14168W        W85697   5.838   8.649  12.864
14169W        W85698  32.065  19.040  12.437
14170W        W85699  20.054   9.710   0.075
14171W        W85700  22.077  36.288  14.943
14172W        W85701   9.801   1.945  14.822
14173W        W85702   6.005   7.597  14.347
14174W        W85703  29.103  11.372   1.243
14175W        W85704   1.467   4.184   4.071
14176W        W85705  18.158  44.800   3.511
14177W        W85706  36.473   1.434  11.758
14178W        W85707   1.058  27.895  14.925
14179W        W85708  41.188   0.571  14.415
14180W        W85709  43.846   9.817   2.857
14181W        W85710  33.494   2.154   1.138
14182W        W85711  39.382  16.174   0.258
14183W        W85712  42.556  40.521  14.437
14184W        W85713  23.732  23.006   2.405
14185W        W85714  30.970  12.326  12.693
14186W        W85715  22.033   2.362   3.827
14187W        W85716   3.246  14.163   3.104
14188W        W85717   2.230  36.381  14.886
14189W        W85718  24.661  20.278  10.569
14190W        W85719  25.759  12.334   1.691
14191W        W85720  31.724  10.096   2.190
14192W        W85721  14.075  24.423  10.932
14193W        W85722  28.831  42.319   3.854
14194W        W85723  41.262   3.888   0.879
14195W        W85724  12.834   2.786  14.757
14196W        W85725  44.921  22.155   4.641
14197W        W85726  26.418  24.294   5.149
14198W        W85727  21.067  14.190   4.321
14199W        W85728  33.995  22.539   2.275
14200W        W85729   3.621   3.360   3.392
14201W        W85730  26.208   0.333   2.721
14202W        W85731  24.706  18.985  14.303
14203W        W85732  33.293  13.771  14.502
14204W        W85733  25.796  42.709  12.039
14205W        W85734  26.482   9.653  14.320
14206W        W85735  33.688  14.797   1.978
14207W        W85736  42.335  30.144  12.846
14208W        W85737  18.530  35.189  13.272
14209W        W85738  14.179  43.357  13.943
14210W        W85739  10.463  28.910   2.406
14211W        W85740  31.535  27.184  11.876
14212W        W85741  12.373  12.292   0.263
14213W        W85742  20.972  37.175  10.059
14214W        W85743  19.175  16.270   1.237
14215W        W85744   1.618  19.198   2.170
14216W        W85745  19.386  37.322  11.546
14217W        W85746   1.150  36.494   4.146
14218W        W85747  38.255  25.858  13.049
14219W        W85748   5.521  28.127  14.165
14220W        W85749  30.339  14.218  14.374
14221W        W85750  34.432  16.261   3.426
14222W        W85751  11.056  31.853  14.817
14223W        W85752   9.122  35.021  13.504
14224W        W85753  27.711  30.818   4.159
14225W        W85754   4.087  22.551   2.573
14226W        W85755  40.424  18.256  11.465
14227W        W85756  28.953  22.226   2.737
14228W        W85757  41.648  44.506   0.264
14229W        W85758  19.474   6.208  12.073
14230W        W85759  34.081  29.164   3.620
14231W        W85760  37.223   3.888   1.888
14232W        W85761  14.837  16.195  12.811
14233W        W85762  15.135  33.028   0.721
14234W        W85763  11.324  41.039  14.928
14235W        W85764  17.153  14.635   0.682
14236W        W85765  44.607   7.502  12.302
14237W        W85766  41.952   3.078   2.550
14238W        W85767  39.567  19.064   4.743
14239W        W85768  37.468  18.692  11.715
14240W        W85769   3.801  41.831   0.983
14241W        W85770  11.368  12.073   3.627
14242W        W85771  16.071  15.370   4.953
14243W        W85772  16.807  18.571  12.980
14244W        W85773   7.513   9.096  11.603
14245W        W85774  43.232   4.502  10.982
14246W        W85775  42.527  21.774   3.729
14247W        W85776  29.341   0.781  11.352
14248W        W85777  36.110   5.699  11.049
14249W        W85778  17.575   6.312  12.988
14250W        W85779  16.846  16.206   2.036
14251W        W85780  41.058   3.892  10.874
14252W        W85781  37.101  42.369  14.858
14253W        W85782  21.448  29.307  13.806
14254W        W85783  19.525  19.094  12.889
14255W        W85784  38.891  35.010  14.368
14256W        W85785  31.673  28.483   9.866
14257W        W85786   7.433  22.087   1.415
14258W        W85787   5.848  21.705   4.185
14259W        W85788   5.157  32.636  14.011
14260W        W85789  41.133  14.376   1.701
14261W        W85790  28.266  10.060  11.346
14262W        W85791   6.770  39.331  12.947
14263W        W85792  28.215  42.970  11.454
14264W        W85793  28.740   2.941   4.538
14265W        W85794  22.583  27.588   1.648
14266W        W85795  37.143  15.173   3.037
14267W        W85796  13.860  17.643   2.899
14268W        W85797  36.474   9.577  14.356
14269W        W85798  17.571  13.406  12.215
14270W        W85799  44.949   8.906  14.710
14271W        W85800  22.904  11.855  13.384
14272W        W85801  32.415  40.805   0.204
14273W        W85802  42.242   2.391  12.436
14274W        W85803  15.588  37.746   2.738
14275W        W85804  28.866  35.029   1.333
14276W        W85805  41.779  28.825  12.799
14277W        W85806  43.881  42.967   1.725
14278W        W85807  12.187  10.672  14.833
14279W        W85808  40.285  11.675   4.162
14280W        W85809   4.272  27.294  10.556
14281W        W85810  29.154   0.336   0.384
14282W        W85811  39.489  30.012   1.157
14283W        W85812  44.892  31.097   0.085
14284W        W85813  15.101  12.352  13.331
14285W        W85814  13.673  13.321  10.772
14286W        W85815  34.478   1.721   3.518
14287W        W85816  23.230   5.632   3.097
14288W        W85817  15.437  43.991  13.189
14289W        W85818  30.926  31.770  10.229
14290W        W85819  21.090  10.828  14.060
14291W        W85820  25.642  19.588   4.251
14292W        W85821  42.378  14.827  12.912
14293W        W85822  12.835  34.383  13.465
14294W        W85823  30.589   1.683   1.498
14295W        W85824  33.781  31.602   1.819
14296W        W85825   5.751  16.973  11.573
14297W        W85826  36.529  29.155  12.062
14298W        W85827  35.065  28.150  11.307
14299W        W85828  23.188  22.132  13.107
14300W        W85829  17.521  40.587  11.076
14301W        W85830   1.937   0.493  13.959
14302W        W85831   6.783   7.649   1.781
14303W        W85832  14.135  41.562   1.300
14304W        W85833  32.210  15.223   5.316
14305W        W85834  17.505  26.657   5.010
14306W        W85835   4.074  18.454   4.518
14307W        W85836  29.177  22.739   0.328
14308W        W85837  37.986  28.274  10.609
14309W        W85838  28.460  24.150   4.769
14310W        W85839  16.073  11.534  13.456
14311W        W85840   0.004  14.718   3.769
14312W        W85841  35.101   0.524  13.088
14313W        W85842   8.076  43.924   0.384
14314W        W85843   2.684  28.356  11.207
14315W        W85844  36.063  22.804   1.435
14316W        W85845  18.518  31.436   1.752
14317W        W85846  20.190  13.665   2.879
14318W        W85847  34.802  33.513   3.676
14319W        W85848  41.277  35.562  11.124
14320W        W85849  44.213  20.303   4.066
14321W        W85850  13.238   3.469  13.993
14322W        W85851  41.520  41.007   0.367
14323W        W85852   6.714  10.922   1.240
14324W        W85853  18.490  33.274   3.666
14325W        W85854  38.532  44.420  14.745
14326W        W85855  29.481  26.187  10.653
14327W        W85856   4.799  13.130   2.224
14328W        W85857  11.586  36.517   4.160
14329W        W85858  23.407  44.011  13.721
14330W        W85859   1.124  14.695   4.458
14331W        W85860   9.611  34.797  14.339
14332W        W85861  38.525   7.912  11.548
14333W        W85862  38.285  14.661   1.195
14334W        W85863   3.589  31.504   3.807
14335W        W85864  18.567  18.982  10.327
14336W        W85865  36.773  28.357   1.755
14337W        W85866   8.405   3.888  14.767
14338W        W85867  39.942   6.439  10.930
14339W        W85868  26.736  18.462   1.186
14340W        W85869   5.300  34.031  14.473
14341W        W85870  39.226   2.413  12.083
14342W        W85871  10.606   8.163  13.033
14343W        W85872   2.830  25.889  14.227
14344W        W85873   5.873  13.371  11.055
14345W        W85874  27.726  43.265  12.210
14346W        W85875  18.379  35.953   0.466
14347W        W85876  28.821  31.650  10.318
14348W        W85877  20.159   9.919  13.514
14349W        W85878  11.290  31.701  14.371
14350W        W85879  28.182  36.917   4.607
14351W        W85880   2.407  12.069   1.410
14352W        W85881  10.144  29.680   1.035
14353W        W85882   0.906  44.589   1.203
14354W        W85883  17.523   1.632  12.556
14355W        W85884  11.271  37.362  11.201
14356W        W85885  36.099  44.804   4.029
14357W        W85886  23.834  15.075  14.843
14358W        W85887  21.000  41.917   1.721
14359W        W85888  11.009  42.323  13.123
14360W        W85889  18.169  21.962  13.935
14361W        W85890  22.912  29.147  10.746
14362W        W85891   3.235  29.482   1.392
14363W        W85892  15.687  31.457   4.186
14364W        W85893  34.792  23.572  13.882
14365W        W85894  10.733   8.896   0.352
14366W        W85895  14.219  14.327   4.711
14367W        W85896  19.648   3.435  12.513
14368W        W85897  18.125  21.212   2.829
14369W        W85898   6.755   7.683   3.630
14370W        W85899  27.157  27.691  11.226
14371W        W85900  27.053  11.738   3.629
14372W        W85901  34.469  39.479   1.605
14373W        W85902   1.829  33.330   2.169
14374W        W85903  14.696  18.998   4.644
14375W        W85904  38.579  36.881  13.065
14376W        W85905  19.648   6.863   2.477
14377W        W85906  42.573   1.328  14.884
14378W        W85907  19.489  29.204   3.260
14379W        W85908  20.000   5.105  11.626
14380W        W85909   7.665  26.444   0.464
14381W        W85910  22.152  17.055   3.331
14382W        W85911   2.117   1.264   2.715
14383W        W85912  31.014  11.359   0.667
14384W        W85913   5.773  24.900   2.754
14385W        W85914  42.519  12.432   1.031
14386W        W85915  18.465  10.656   3.412
14387W        W85916  17.128  30.705  14.451
14388W        W85917  26.525  16.239   3.589
14389W        W85918  11.857  33.585  11.115
14390W        W85919  14.579  28.453   3.300
14391W        W85920  11.638  13.909   4.608
14392W        W85921  36.438  27.609   0.397
14393W        W85922  23.927  42.197   5.091
14394W        W85923  39.284  32.425   2.265
14395W        W85924  10.287  15.587  12.314
14396W        W85925  40.348  23.794   0.056
14397W        W85926   5.598   1.911   3.233
14398W        W85927  32.097  10.109   2.539
14399W        W85928  17.578  29.074  12.061
14400W        W85929   2.448  30.915  14.595
14401W        W85930  41.549  13.425  10.944
14402W        W85931   2.463  18.397   2.351
14403W        W85932  21.994  24.449   4.812
14404W        W85933  12.400   8.187   1.609
14405W        W85934   3.715  28.985   4.704
14406W        W85935  39.866  34.863  13.129
14407W        W85936  39.057  25.784   4.180
14408W        W85937  15.798  18.093   4.317
14409W        W85938   5.080  27.924  11.640
14410W        W85939   2.917  22.657  11.668
14411W        W85940  26.755  10.319   0.726
14412W        W85941  29.673  43.966  11.552
14413W        W85942  16.875  20.543  14.997
14414W        W85943  37.547  38.787  11.598
14415W        W85944  43.102  32.383   4.440
14416W        W85945  42.098  12.871   0.253
14417W        W85946   5.028   7.696   2.126
14418W        W85947  14.655  34.164   3.591
14419W        W85948  11.765  32.890  13.263
14420W        W85949  38.169   3.846   3.701
14421W        W85950  40.967   9.681  13.805
14422W        W85951  22.805   3.425  12.888
14423W        W85952  43.351  30.835   1.347
14424W        W85953  19.584  44.237   3.401
14425W        W85954   7.916   9.388  11.549
14426W        W85955  34.538  35.635  11.670
14427W        W85956   2.469  30.712  12.784
14428W        W85957  11.286  17.063   3.621
14429W        W85958  39.868   0.157   4.772
14430W        W85959  12.037  10.511   5.026
14431W        W85960  13.405  14.114   3.658
14432W        W85961  41.971  36.593   0.787
14433W        W85962  40.796  38.816   3.832
14434W        W85963  24.158  28.908  13.768
14435W        W85964   6.420   6.346  13.379
14436W        W85965  41.974  40.038   4.908
14437W        W85966  44.380  13.223  13.413
14438W        W85967  39.627  30.640   4.504
14439W        W85968   6.146  11.738  12.876
14440W        W85969   0.705  32.177  13.396
14441W        W85970   8.201   1.260   4.709
14442W        W85971   7.180  15.157   4.460
14443W        W85972  22.613  41.895   3.801
14444W        W85973  24.449  29.666  14.396
14445W        W85974  42.703  37.458   5.029
14446W        W85975   0.375  43.715  12.642
14447W        W85976  17.109  33.985  14.805
14448W        W85977  43.248   7.454  12.996
14449W        W85978  37.784   3.414  14.016
14450W        W85979  11.428  17.734   0.242
14451W        W85980  43.686   6.795  14.304
14452W        W85981  38.307  19.602  14.299
14453W        W85982   6.907  35.085  11.564
14454W        W85983  22.605  19.800   3.984
14455W        W85984  35.854  25.465  14.128
14456W        W85985  22.734   0.271   1.209
14457W        W85986   8.329  36.469  10.660
14458W        W85987  23.814  31.345   0.913
14459W        W85988   5.472   9.721   2.297
14460W        W85989  16.712   7.463  11.220
14461W        W85990  18.636  32.101  13.120
14462W        W85991  42.162  37.410  13.236
14463W        W85992  33.693  22.105   2.429
14464W        W85993  35.815  38.796   4.058
14465W        W85994  23.981  11.388  10.433
14466W        W85995  22.770  32.820   2.687
14467W        W85996  20.199  37.543   1.217
14468W        W85997  15.618  27.689   3.661
14469W        W85998  24.577  36.505   0.723
14470W        W85999  34.727  32.184   4.249
14471W        W86000  40.244   8.677   4.008
14472W        W86001  17.851  41.056  11.817
14473W        W86002  18.624  42.541  11.557
14474W        W86003   4.956   5.382   4.587
14475W        W86004  11.465  14.041   3.621
14476W        W86005  33.593   5.814   0.015
14477W        W86006  10.239   9.183   3.671
14478W        W86007  43.519  13.255   0.810
14479W        W86008  35.461  42.911   4.493
14480W        W86009  33.858  15.283  10.570
14481W        W86010  27.909   3.338   0.697
14482W        W86011   7.582   2.403  11.883
14483W        W86012  30.134  40.082  13.797
14484W        W86013  43.874  22.448  14.758
14485W        W86014  28.426  36.530  14.208
14486W        W86015   4.717  37.664  10.772
14487W        W86016  29.202  25.502   3.680
14488W        W86017  44.258  36.478  12.592
14489W        W86018  40.483  25.408  10.793
14490W        W86019  12.649  18.578  13.901
14491W        W86020  11.883   7.311   0.882
14492W        W86021   1.203  18.721   1.967
14493W        W86022  39.075   4.566  13.732
14494W        W86023  38.333  19.642  13.356
14495W        W86024  24.723  30.236   0.917
14496W        W86025  38.626   1.718  13.104
14497W        W86026  42.320   0.310   0.753
14498W        W86027  12.418  17.050  13.387
14499W        W86028  24.016   9.180  13.123
14500W        W86029  44.057  38.446  14.773
14501W        W86030  29.987   8.160   0.752
14502W        W86031  29.363  13.549  13.863
14503W        W86032  16.138  44.346  12.485
14504W        W86033  18.109   4.279  14.244
14505W        W86034  33.846   1.050  12.928
14506W        W86035  34.977   1.477  11.477
14507W        W86036  10.915  13.339  14.964
14508W        W86037  16.260  44.916  14.337
14509W        W86038  19.794  44.810  13.342
14510W        W86039  15.234  16.595   0.262
14511W        W86040  42.302  18.445   2.402
14512W        W86041  19.501  40.887   1.001
14513W        W86042  27.231  37.583   1.791
14514W        W86043  17.391  17.507  12.666
14515W        W86044  18.130  35.471   4.531
14516W        W86045  16.626  10.333   2.319
14517W        W86046  22.748   1.957   1.767
14518W        W86047  40.308  38.926  13.356
14519W        W86048  36.038  43.485   4.915
14520W        W86049  20.947  44.030  14.332
14521W        W86050   6.651   5.822  13.474
14522W        W86051  10.083  23.872   3.366
14523W        W86052  24.035   5.554   0.331
14524W        W86053  17.263  19.813   0.942
14525W        W86054  25.034  37.426  10.947
14526W        W86055  28.167  14.798   2.867
14527W        W86056  44.841   7.786   4.607
14528W        W86057   1.348   1.816  11.715
14529W        W86058  14.862  19.704  11.979
14530W        W86059  13.605  36.834   3.633
14531W        W86060  13.792  39.866  11.751
14532W        W86061  21.561  12.749   1.238
14533W        W86062  42.984   5.736  13.460
14534W        W86063   8.135   4.401   3.224
14535W        W86064  34.070  39.773   0.654
14536W        W86065   9.251  18.152   4.649
14537W        W86066  44.369  25.720  11.667
14538W        W86067   9.303   7.313   3.649
14539W        W86068  31.366  21.924  12.054
14540W        W86069   6.345  18.817  12.394
14541W        W86070  22.112  25.634   0.737
14542W        W86071  17.699  22.490  11.699
14543W        W86072  38.785  21.158  12.819
14544W        W86073   4.010   0.499   4.493
14545W        W86074  26.689  28.310  12.979
14546W        W86075  18.769  30.924   2.625
14547W        W86076  39.853  39.397   1.634
14548W        W86077  33.726  20.777  13.599
14549W        W86078  33.882  20.098  12.009
14550W        W86079  33.789  17.557   2.459
14551W        W86080  11.621  22.062   3.777
14552W        W86081  37.254  13.219  14.623
14553W        W86082  39.446  43.110  13.755
14554W        W86083  11.879  11.893   1.964
14555W        W86084  31.596  20.002   4.321
14556W        W86085   5.115  14.523  12.324
14557W        W86086  35.016  36.927   1.701
14558W        W86087  22.684   6.669   2.698
14559W        W86088  15.780  18.848   1.979
14560W        W86089  29.392  16.657  14.411
14561W        W86090  34.724  38.246  12.415
14562W        W86091   1.073  18.331  13.892
14563W        W86092  44.924  42.190   4.471
14564W        W86093  34.115   1.451   2.568
14565W        W86094  43.253  27.576  14.315
14566W        W86095   9.280  41.280   3.735
14567W        W86096  11.535   2.417   2.144
14568W        W86097  33.909  39.006  10.628
14569W        W86098  19.046  16.606  10.374
14570W        W86099  12.208  20.283   2.513
14571W        W86100  30.166  37.823  14.058
14572W        W86101  29.192  42.296  12.057
14573W        W86102   6.886   2.384   3.221
14574W        W86103  30.484  18.916   2.732
14575W        W86104  28.886  18.655   4.427
14576W        W86105  38.332  44.781   0.369
14577W        W86106   4.459  39.636  14.362
14578W        W86107  21.286  30.930  14.572
14579W        W86108  34.383  17.667   3.073
14580W        W86109  42.857  17.985   0.423
14581W        W86110  10.624  41.980   2.266
14582W        W86111  42.837  14.720   0.308
14583W        W86112  13.217  34.018   4.604
14584W        W86113  23.103  18.730   4.102
14585W        W86114  17.145  25.648  12.976
14586W        W86115  28.506  43.093   4.189
14587W        W86116  43.418   8.882  12.148
14588W        W86117  28.757   5.204   1.666
14589W        W86118   9.705  23.302  14.451
14590W        W86119  10.676   1.301  13.496
14591W        W86120  27.177  25.551   0.543
14592W        W86121  42.708  40.428   3.086
14593W        W86122   3.300  43.533   1.789
14594W        W86123  21.252  31.076  12.929
14595W        W86124   3.544  32.056   1.366
14596W        W86125  36.882  41.253  10.670
14597W        W86126   5.143  22.193  12.951
14598W        W86127   2.849  29.169   4.100
14599W        W86128   1.774  42.285  14.039
14600W        W86129  34.211  24.236   2.234
14601W        W86130  15.708  38.275   2.778
14602W        W86131  41.786  38.642  13.530
14603W        W86132   4.939  28.817   3.836
14604W        W86133   9.616  41.314   2.937
14605W        W86134  24.059  22.269  12.171
14606W        W86135  18.660  43.579   4.659
14607W        W86136  17.778   7.236  13.942
14608W        W86137  14.284  23.272   4.614
14609W        W86138  19.608  26.476   0.064
14610W        W86139  39.546  43.512   1.845
14611W        W86140  25.627  40.177   4.262
14612W        W86141  33.820  33.914   0.647
14613W        W86142  32.657  22.124  14.748
14614W        W86143  13.810  32.045  13.283
14615W        W86144  24.645   1.816  14.312
14616W        W86145   6.080  37.239  14.308
14617W        W86146  31.161  19.590  14.328
14618W        W86147  24.167  34.282   4.512
14619W        W86148  35.085  34.082   1.081
14620W        W86149   0.471  44.740  11.785
14621W        W86150  19.251  38.341  11.081
14622W        W86151  44.373  31.653  12.110
14623W        W86152   9.669  34.734  11.074
14624W        W86153  14.140   2.826  14.482
14625W        W86154  22.262  20.571  13.481
14626W        W86155  31.633   5.044  10.228
14627W        W86156   0.012  27.863  14.870
14628W        W86157  32.829   5.053   3.688
14629W        W86158  33.883   2.771   3.131
14630W        W86159  35.054  44.405   1.787
14631W        W86160  19.608  41.290   0.291
14632W        W86161   4.677  25.532  14.275
14633W        W86162  23.094  25.995   3.367
14634W        W86163  22.284  41.812  10.951
14635W        W86164  13.589   9.822   4.256
14636W        W86165  33.531  23.671  10.307
14637W        W86166  18.627  39.844  14.822
14638W        W86167  35.677  16.142   0.780
14639W        W86168   3.420  35.461   3.666
14640W        W86169  17.668  26.578  13.340
14641W        W86170  32.106  32.996  11.986
14642W        W86171  20.788  36.098  11.211
14643W        W86172  44.926   8.397   0.671
14644W        W86173  15.674  31.269  11.373
14645W        W86174  18.602   4.151  14.218
14646W        W86175  32.884  19.614   1.846
14647W        W86176  17.101  42.485   4.089
14648W        W86177   0.089   0.491  13.917
14649W        W86178  16.794  43.281   4.395
14650W        W86179  37.537   0.757   0.280
14651W        W86180  34.132  22.061  13.444
14652W        W86181  44.343  39.375   2.237
14653W        W86182   0.991  12.855   0.940
14654W        W86183  22.693   5.792   1.916
14655W        W86184  18.389  36.242   2.319
14656W        W86185  37.490  30.105  10.670
14657W        W86186  42.399  14.260   2.343
14658W        W86187  13.424   9.330  14.882
14659W        W86188  21.615  35.151   1.227
14660W        W86189  40.089  32.489   2.170
14661W        W86190  32.595  11.179   2.997
14662W        W86191   1.195  20.982   2.560
14663W        W86192   1.469  34.898  11.879
14664W        W86193  27.533  16.299  13.441
14665W        W86194  13.191  21.957  10.947
14666W        W86195  17.798  21.706  12.482
14667W        W86196  29.544  26.422  11.100
14668W        W86197  35.617  19.770  11.059
14669W        W86198   7.854  11.755   0.202
14670W        W86199  27.918  10.817   2.364
14671W        W86200  38.386  42.755   0.312
14672W        W86201  29.404  15.722   3.224
14673W        W86202  23.220  29.971   3.138
14674W        W86203   1.509  44.384  13.123
14675W        W86204  39.843  43.312   3.818
14676W        W86205  15.224  15.476   3.823
14677W        W86206  37.149   0.820   3.159
14678W        W86207  25.338  14.913   2.843
14679W        W86208  38.115  24.756   2.277
14680W        W86209  18.577  39.328   3.704
14681W        W86210   8.237  33.323  12.547
14682W        W86211  17.629  19.943  12.410
14683W        W86212  28.170  14.253   4.104
14684W        W86213  18.683   4.933   1.738
14685W        W86214  25.663  14.046   0.506
14686W        W86215  24.078  20.586   4.314
14687W        W86216  15.321  21.097  12.547
14688W        W86217   8.677   0.321  11.147
14689W        W86218  29.633   6.805  13.051
14690W        W86219  36.840  43.744  12.431
14691W        W86220  18.931  25.730   0.422
14692W        W86221  28.155  31.060  10.541
14693W        W86222  43.709  43.315  12.520
14694W        W86223  39.470  38.513   3.776
14695W        W86224  30.681  27.556  11.854
14696W        W86225   7.363  11.822   2.505
14697W        W86226  33.069   0.755  12.394
14698W        W86227  30.223   7.902   4.742
14699W        W86228   9.268   0.451  11.938
14700W        W86229  36.807   6.839   0.850
14701W        W86230   1.354  30.569  12.528
14702W        W86231  33.376   1.279  12.975
14703W        W86232  44.741  10.201   0.450
14704W        W86233  16.615  12.117   0.803
14705W        W86234   1.679  39.066  14.872
14706W        W86235  42.033  43.298   2.633
14707W        W86236  19.555  33.040  12.449
14708W        W86237   1.847  22.012  12.501
14709W        W86238   2.894   2.392   4.119
14710W        W86239   3.452   8.219   4.646
14711W        W86240  35.898  29.106   0.184
14712W        W86241  12.290  10.334  12.813
14713W        W86242  30.089  23.443  14.033
14714W        W86243  12.684  30.864  12.189
14715W        W86244  39.885  27.987  13.573
14716W        W86245   7.406   4.423  14.024
14717W        W86246  12.330  24.583  11.532
14718W        W86247   6.973  17.529  14.727
14719W        W86248  17.130   2.813   1.677
14720W        W86249   3.052  36.691   0.756
14721W        W86250  12.340   4.920  10.600
14722W        W86251   7.319  20.116  11.877
14723W        W86252  39.722  26.092  13.905
14724W        W86253  19.990  25.738  12.003
14725W        W86254  39.032  21.589   1.756
14726W        W86255  10.725  10.708  11.993
14727W        W86256   0.387  42.831  10.491
14728W        W86257  42.213  31.800   0.732
14729W        W86258  34.627  39.003   1.201
14730W        W86259  10.696  41.500   2.085
14731W        W86260   5.843  17.643   0.371
14732W        W86261  18.707  33.718   3.917
14733W        W86262  14.201  30.862   3.665
14734W        W86263  17.085   4.211  13.056
14735W        W86264   4.010   2.291   1.695
14736W        W86265   1.862  44.539  10.838
14737W        W86266  18.167  21.955  13.087
14738W        W86267  21.619  12.811   3.698
14739W        W86268  34.852  37.838   4.652
14740W        W86269  32.422  38.397  10.929
14741W        W86270  32.626  37.554   2.818
14742W        W86271   7.970   4.210   2.781
14743W        W86272  38.435  26.475   0.915
14744W        W86273   0.503   6.437  14.999
14745W        W86274  17.872  38.586  12.468
14746W        W86275  34.562   0.314   1.172
14747W        W86276  29.990  28.958   0.903
14748W        W86277  38.501   0.175  10.645
14749W        W86278  37.887   6.917  13.005
14750W        W86279  38.424  21.016  12.434
14751W        W86280  21.156  25.358  12.374
14752W        W86281  29.256   4.749  14.912
14753W        W86282  38.539  20.603   2.322
14754W        W86283   5.107   0.640   2.256
14755W        W86284  34.842   4.956   1.705
14756W        W86285  44.450  26.696  11.489
14757W        W86286  42.800   2.261  11.158
14758W        W86287  42.956  12.866  14.316
14759W        W86288  44.466  27.511   3.832
14760W        W86289  35.623  41.383  13.861
14761W        W86290  23.057  19.232   0.187
14762W        W86291   5.133  26.697   3.704
14763W        W86292  13.796  42.546  13.565
14764W        W86293  23.567   4.714  11.556
14765W        W86294  29.647   7.283  10.783
14766W        W86295  29.364  38.642  11.468
14767W        W86296   9.511  32.717  11.204
14768W        W86297  32.070   9.466   4.309
14769W        W86298  25.892  10.817  13.903
14770W        W86299  41.751  36.949  10.640
14771W        W86300  41.025  21.163  10.648
14772W        W86301   3.752  34.760  12.873
14773W        W86302   0.535  32.889   0.837
14774W        W86303  37.908  44.413   2.384
14775W        W86304   5.375  37.788   3.120
14776W        W86305  39.872  32.033   1.346
14777W        W86306  24.922  33.028   3.145
14778W        W86307  28.053   5.137  14.406
14779W        W86308  19.813  22.543  11.216
14780W        W86309  41.535  19.682  13.993
14781W        W86310  18.843  29.961  11.555
14782W        W86311  38.066  19.455   5.101
14783W        W86312  30.497  36.248  13.296
14784W        W86313  14.443  21.448  12.583
14785W        W86314  28.936  35.024   0.416
14786W        W86315  32.159  12.347  10.727
14787W        W86316   4.667  15.653   0.269
14788W        W86317  38.816  43.020   2.192
14789W        W86318  10.106  35.855   1.198
14790W        W86319  18.041  17.754  14.047
14791W        W86320  19.034  32.999   4.189
14792W        W86321  37.473  17.528   0.331
14793W        W86322  26.597  41.719   2.408
14794W        W86323  37.173  19.285   2.229
14795W        W86324  40.126   2.250   2.783
14796W        W86325  33.627  17.401  10.730
14797W        W86326  27.445  34.804   1.739
14798W        W86327  23.729  28.166  12.571
14799W        W86328   0.474  28.025   0.796
14800W        W86329  24.924  39.816  10.770
14801W        W86330  18.119  35.153  12.959
14802W        W86331  24.913   7.365  12.421
14803W        W86332  20.375  35.621   0.496
14804W        W86333   2.646  35.842   0.771
14805W        W86334  17.663   5.107   0.861
14806W        W86335  20.234   2.956   4.047
14807W        W86336  23.545  36.361   3.243
14808W        W86337  37.205   4.231  11.949
14809W        W86338   9.728   1.329   1.385
14810W        W86339  24.149   0.660  12.891
14811W        W86340  36.211  27.361   1.066
14812W        W86341   2.731  14.786   3.630
14813W        W86342   8.610  40.321  12.686
14814W        W86343   3.675  39.369  13.633
14815W        W86344  34.908  44.734  10.645
14816W        W86345   9.666  14.130  11.089
14817W        W86346  29.169  21.861  10.629
14818W        W86347   3.360  17.479   2.088
14819W        W86348  10.896  41.721  12.891
14820W        W86349  14.766  28.120  13.547
14821W        W86350  39.463  38.010   3.733
14822W        W86351   0.432  39.106  10.718
14823W        W86352   8.986  33.707   1.309
14824W        W86353   8.677  41.809   2.224
14825W        W86354  31.349  26.127   1.409
14826W        W86355  42.683  21.252   1.366
14827W        W86356  32.253   9.167   2.204
14828W        W86357  36.211  44.825   3.161
14829W        W86358  22.390   0.935  11.270
14830W        W86359   6.203   8.050  13.831
14831W        W86360  31.422  28.741  11.265
14832W        W86361  15.796  21.340  14.679
14833W        W86362  11.166  18.594  14.479
14834W        W86363  37.566   2.633   4.090
14835W        W86364  24.469  26.740   4.043
14836W        W86365   7.700  37.355  10.770
14837W        W86366   8.063  36.023   4.601
14838W        W86367  10.823  20.986   1.377
14839W        W86368  39.969  36.862   0.457
14840W        W86369   0.257  21.797  11.954
14841W        W86370   7.543  35.835  13.520
14842W        W86371  36.812  17.117  10.605
14843W        W86372  33.112  35.361   2.329
14844W        W86373  17.479  10.076  11.527
14845W        W86374  34.369  33.420  13.398
14846W        W86375  26.755  42.722   2.827
14847W        W86376  42.308   1.489  11.545
14848W        W86377  21.011  21.086   1.623
14849W        W86378  26.826  33.275  14.610
14850W        W86379  18.659  33.545   1.324
14851W        W86380  37.064   7.764   4.150
14852W        W86381  35.488   0.834   4.682
14853W        W86382  27.464  11.656  14.292
14854W        W86383   8.132  40.035  12.675
14855W        W86384  32.073  12.711   0.376
14856W        W86385  35.388  39.539   3.373
14857W        W86386   1.050   6.470  14.971
14858W        W86387  43.640  26.581   4.763
14859W        W86388   2.566  32.471   4.300
14860W        W86389  10.666  16.053  13.437
14861W        W86390  29.915   9.270  13.382
14862W        W86391  36.612  34.575  10.838
14863W        W86392  36.099  30.441   2.550
14864W        W86393  40.448  39.969   2.122
14865W        W86394  12.403  20.235   0.787
14866W        W86395  43.329  11.447  11.718
14867W        W86396  15.351  25.184  14.773
14868W        W86397  25.498   0.765   1.274
14869W        W86398  21.617   6.669  14.556
14870W        W86399   6.346  41.560   5.083
14871W        W86400  14.685  19.198   0.653
14872W        W86401  10.921  11.694  10.617
14873W        W86402  32.945  14.291   3.044
14874W        W86403   7.652   7.360   2.261
14875W        W86404   4.960  14.445  14.500
14876W        W86405  21.219  28.356   5.203
14877W        W86406  20.555  32.834  12.399
14878W        W86407  20.731  27.505  12.905
14879W        W86408  28.742  17.920  12.436
14880W        W86409  17.362  27.432  13.781
14881W        W86410  25.030  17.300   2.737
14882W        W86411  30.646   7.984   3.147
14883W        W86412  40.305  12.654  13.125
14884W        W86413  32.022  39.799   4.572
14885W        W86414  21.651  30.751  12.894
14886W        W86415  36.688  14.034  11.691
14887W        W86416  12.757  23.596   0.642
14888W        W86417  11.450  40.640   1.770
14889W        W86418   2.714  21.671   3.149
14890W        W86419  34.942  36.667  12.410
14891W        W86420  34.141   9.278  14.893
14892W        W86421   0.786  23.686   4.719
14893W        W86422   9.862  37.569   0.286
14894W        W86423   5.832  25.716   3.261
14895W        W86424  36.077  36.761  12.497
14896W        W86425  28.768   9.720   2.626
14897W        W86426  42.475  11.375  14.996
14898W        W86427  33.165  27.503  14.379
14899W        W86428  44.280  41.222   1.018
14900W        W86429  23.018  19.919   4.814
14901W        W86430  34.010  12.100   3.813
14902W        W86431  29.377  29.391   1.253
14903W        W86432  19.595  32.037  12.467
14904W        W86433  20.983  21.999   2.226
14905W        W86434   3.980  16.245   0.432
14906W        W86435   6.095  31.653   4.878
14907W        W86436  31.593  18.311  13.973
14908W        W86437  36.960   7.421  12.578
14909W        W86438  21.168  25.035  10.441
14910W        W86439  10.206  25.583   3.304
14911W        W86440  36.632  29.141  14.398
14912W        W86441  42.748  38.566  11.573
14913W        W86442   0.470   8.948   0.972
14914W        W86443  39.404   0.959  12.963
14915W        W86444   2.238  40.794   1.981
14916W        W86445  14.747   5.815   2.660
14917W        W86446  19.552  16.099  11.119
14918W        W86447  36.070  44.592  14.420
14919W        W86448   1.688  43.923   1.264
14920W        W86449  31.581  23.430   5.018
14921W        W86450  25.826   8.463   3.227
14922W        W86451  31.453  29.442   3.119
14923W        W86452  33.521  32.403   4.192
14924W        W86453  25.161  17.708  11.957
14925W        W86454  20.737  19.144  11.661
14926W        W86455  29.164  30.591   3.852
14927W        W86456  21.152  36.718  14.921
14928W        W86457   5.948  33.563  12.499
14929W        W86458  36.539  12.212  12.185
14930W        W86459   0.559  44.386   3.773
14931W        W86460  18.281   4.161  13.779
14932W        W86461  29.141   9.941   1.304
14933W        W86462  31.149  21.224   1.755
14934W        W86463   0.693  41.245  11.942
14935W        W86464  24.283  32.995   4.849
14936W        W86465   3.155  24.070   0.706
14937W        W86466  16.685  16.468   1.186
14938W        W86467  35.549  39.825  10.470
14939W        W86468  24.961  39.794   1.282
14940W        W86469   6.341   1.227   1.773
14941W        W86470  39.949   4.667  12.561
14942W        W86471  21.536  24.161   2.459
14943W        W86472  38.500  37.845  11.002
14944W        W86473   4.493  29.173   0.003
14945W        W86474  23.507  27.238  13.938
14946W        W86475  39.144  28.113  13.131
14947W        W86476  16.217  10.646   2.158
14948W        W86477  10.692  39.621   1.938
14949W        W86478  29.981  11.754  13.842
14950W        W86479  12.757  34.194  11.923
14951W        W86480  40.771  39.873   1.727
14952W        W86481  41.444  38.557   3.289
14953W        W86482   2.500   6.463   1.787
14954W        W86483  37.281  21.690   3.665
14955W        W86484   8.499  33.020   4.231
14956W        W86485   6.635  17.094   1.768
14957W        W86486   8.406  32.481  10.435
14958W        W86487  19.721  18.318   4.260
14959W        W86488  13.434  30.572   0.904
14960W        W86489  20.508  25.093  14.834
14961W        W86490  33.353  26.070  12.400
14962W        W86491  31.737   0.892   4.677
14963W        W86492  35.819   8.403  12.883
14964W        W86493  39.063  43.338  14.934
14965W        W86494  30.700  10.049   2.174
14966W        W86495  22.450  21.204   1.720
14967W        W86496   3.874  26.515  11.520
14968W        W86497  12.436  40.736   2.630
14969W        W86498  38.053   7.344  13.925
14970W        W86499   5.416  12.697   4.181
14971W        W86500  18.118  25.655   0.278
14972W        W86501  12.780  25.770   2.336
14973W        W86502   7.683  30.194  10.702
14974W        W86503  14.027  15.816   4.160
14975W        W86504   2.305  32.486   2.595
14976W        W86505  15.196  38.925  14.874
14977W        W86506  17.166  26.776   2.306
14978W        W86507   8.456  18.322  14.870
14979W        W86508  39.856   6.885   0.361
14980W        W86509  20.323  32.381   3.320
14981W        W86510  15.334  28.431  11.956
14982W        W86511  27.503  39.571  14.472
14983W        W86512  35.552  13.658   1.768
14984W        W86513  27.687   6.393   1.315
14985W        W86514  31.886  20.144  14.506
14986W        W86515  28.165  41.638  10.925
14987W        W86516  13.761  34.365   0.260
14988W        W86517  35.630  10.763  13.816
14989W        W86518  29.782  16.979   5.132
14990W        W86519  25.734   7.809   2.889
14991W        W86520  11.816  43.597   2.875
14992W        W86521  28.368  15.702  13.345
14993W        W86522  33.489   0.607   1.338
14994W        W86523   9.335  14.851   2.732
14995W        W86524  18.046  33.673  14.357
14996W        W86525   2.942  34.475  10.005
14997W        W86526  20.792   0.152  13.837
14998W        W86527   4.965  39.505  12.982
14999W        W86528  12.268   6.581  11.470
15000W        W86529  37.606  37.032  14.820
15001W        W86530   4.678   4.951  10.684
15002W        W86531   1.517   0.444  14.312
15003W        W86532  33.186  37.850  13.983
15004W        W86533  33.157  42.062  13.558
15005W        W86534   1.421  37.556   0.380
15006W        W86535  16.282  38.314   0.782
15007W        W86536   6.182   4.304   0.719
15008W        W86537   9.694  20.751   4.937
15009W        W86538  42.086  39.865   1.257
15010W        W86539  34.081  43.509  12.588
15011W        W86540  31.846  16.291   1.773
15012W        W86541  11.383  33.799   4.831
15013W        W86542  12.429   9.255  11.721
15014W        W86543  30.423  15.613   4.099
15015W        W86544   1.075   9.127  11.183
15016W        W86545  22.516  13.243  10.629
15017W        W86546  21.791   0.915  14.857
15018W        W86547  12.767  30.680  13.540
15019W        W86548  37.658  42.010   0.380
15020W        W86549  10.417  34.661   0.366
15021W        W86550  35.976  41.810   4.129
15022W        W86551   1.372  20.319  12.596
15023W        W86552   8.215   7.813  14.017
15024W        W86553  32.883  38.910   4.202
15025W        W86554  22.392   0.473  11.022
15026W        W86555  35.157   3.492  10.448
15027W        W86556  41.950   9.790   0.472
15028W        W86557  30.945   9.166  13.154
15029W        W86558  28.391  22.477   3.642
15030W        W86559   7.363  10.298  11.627
15031W        W86560   4.079  27.658   9.944
15032W        W86561  31.657   3.433  10.793
15033W        W86562  17.761  35.501  10.387
15034W        W86563  43.481  15.120  11.161
15035W        W86564   2.710  14.810   2.776
15036W        W86565  25.048  42.817   4.815
15037W        W86566   5.827   3.856  14.977
15038W        W86567  18.146  32.012   0.874
15039W        W86568  31.586  33.445   0.934
15040W        W86569   8.795  36.547   0.763
15041W        W86570  23.171  37.922   4.312
15042W        W86571   0.883  23.045   0.995
15043W        W86572   7.228  39.947   1.810
15044W        W86573  29.030  36.561   4.782
15045W        W86574  40.301  36.690   0.069
15046W        W86575  41.346  11.185   4.461
15047W        W86576  35.247  34.391   1.480
15048W        W86577  24.508  19.828   4.042
15049W        W86578   3.048  25.185   1.442
15050W        W86579   0.013  17.462  14.477
15051W        W86580  30.112  42.007   3.786
15052W        W86581  12.234  18.301  14.001
15053W        W86582   1.005  20.767   3.357
15054W        W86583  39.412  11.803  10.795
15055W        W86584   6.201  14.865  10.687
15056W        W86585  14.567  21.551   1.797
15057W        W86586   4.960   9.548   1.096
15058W        W86587  35.550  18.843   0.434
15059W        W86588  12.802  28.032   3.098
15060W        W86589   6.134  15.705  13.756
15061W        W86590  35.011  18.135   1.341
15062W        W86591  38.084  28.761   3.128
15063W        W86592   2.883   3.451  13.852
15064W        W86593  28.978  41.816  11.985
15065W        W86594  35.051   6.339   0.307
15066W        W86595  40.699  32.414  11.960
15067W        W86596  23.740   9.655  13.003
15068W        W86597  41.538   8.696   4.668
15069W        W86598   6.321  10.476  10.833
15070W        W86599  31.016  44.501  14.377
15071W        W86600  38.996   0.993  12.146
15072W        W86601   9.562  20.430   1.144
15073W        W86602   2.761   1.096   0.065
15074W        W86603  20.803  36.902   4.324
15075W        W86604   4.819  12.240  13.474
15076W        W86605  33.050  16.700  11.616
15077W        W86606  16.324   0.301  12.910
15078W        W86607   5.518  28.609   2.988
15079W        W86608  19.214  27.310   2.000
15080W        W86609  13.355  39.449   3.868
15081W        W86610  43.974  37.498   2.182
15082W        W86611  28.296  28.162   0.280
15083W        W86612  42.364  11.639  14.280
15084W        W86613  29.534  42.718  10.778
15085W        W86614  33.136  44.792  13.261
15086W        W86615  38.089  14.190  12.855
15087W        W86616   1.407  42.116  14.537
15088W        W86617  37.048  33.757   2.747
15089W        W86618  20.697  13.060  12.925
15090W        W86619  32.130  19.558   1.349
15091W        W86620   9.148  28.651  13.637
15092W        W86621   9.013  11.890  14.053
15093W        W86622  38.463   7.435  11.723
15094W        W86623  43.974  18.165  10.910
15095W        W86624  44.060  28.012  13.479
15096W        W86625  20.508  14.016  14.803
15097W        W86626  32.136   4.749   0.857
15098W        W86627   2.957  24.015  14.571
15099W        W86628  42.552  34.985   3.395
15100W        W86629  18.986   7.517  14.331
15101W        W86630   1.974  24.016   3.133
15102W        W86631  22.283   7.128  14.049
15103W        W86632  12.692  42.379   0.899
15104W        W86633  42.987   9.593   0.459
15105W        W86634  33.016  43.214  12.682
15106W        W86635  41.702  14.400   3.682
15107W        W86636  34.189   9.778   1.491
15108W        W86637  38.440   7.247   4.607
15109W        W86638  29.695  36.874   2.809
15110W        W86639  21.977  24.681   1.678
15111W        W86640  37.446   7.318   2.454
15112W        W86641  42.924  31.165   3.216
15113W        W86642  35.018  11.174  13.434
15114W        W86643  19.055  13.706   2.383
15115W        W86644  32.996  42.930  11.919
15116W        W86645  38.098   2.170   2.701
15117W        W86646  22.601  25.753   0.898
15118W        W86647   1.164  27.595  10.990
15119W        W86648  25.331  23.616   2.880
15120W        W86649  20.166   1.309  11.329
15121W        W86650  34.967  41.273   4.099
15122W        W86651  15.504   0.347  11.147
15123W        W86652  28.886  32.634   5.060
15124W        W86653  27.632  31.124  14.278
15125W        W86654  34.256  30.786  14.987
15126W        W86655  33.941  13.140   1.501
15127W        W86656  21.685  32.342   4.538
15128W        W86657  21.988  27.064  12.039
15129W        W86658  33.352   4.968   3.667
15130W        W86659  19.079   6.098  11.710
15131W        W86660  30.691   5.694  12.191
15132W        W86661  21.492  10.914  13.122
15133W        W86662  28.690  43.242  13.158
15134W        W86663  34.320   7.656   0.533
15135W        W86664   3.863  38.075   3.721
15136W        W86665  40.768  21.203   1.303
15137W        W86666  44.414  35.997  11.124
15138W        W86667  44.382   1.026  13.443
15139W        W86668   8.691  22.594  11.970
15140W        W86669  13.345  31.175   1.962
15141W        W86670  15.016  39.213  13.797
15142W        W86671  39.703   2.409   1.256
15143W        W86672  33.604  18.751   4.608
15144W        W86673  20.747  22.994   4.502
15145W        W86674  12.415   4.237  14.809
15146W        W86675  17.475  30.393  14.689
15147W        W86676  19.878   7.894  11.535
15148W        W86677  40.239  44.373  13.496
15149W        W86678  44.596  21.588  12.354
15150W        W86679   5.934  30.366  12.870
15151W        W86680   3.466  26.665   0.340
15152W        W86681  26.182   2.202   3.381
15153W        W86682   0.878   4.478   1.873
15154W        W86683  41.096  33.489   1.493
15155W        W86684  41.397  41.306   1.452
15156W        W86685  22.762  30.029  11.630
15157W        W86686   6.414   5.459   1.072
15158W        W86687  30.453  39.831   0.434
15159W        W86688   7.483  10.179   1.290
15160W        W86689  13.187  21.092  14.929
15161W        W86690  16.341  18.675  10.877
15162W        W86691  28.106  42.532  13.423
15163W        W86692  14.353  31.171   1.755
15164W        W86693  24.760  37.838  12.078
15165W        W86694  44.836   1.806  11.697
15166W        W86695   2.227  24.973  12.136
15167W        W86696   9.866  32.682   3.129
15168W        W86697   1.894  37.004   4.957
15169W        W86698  44.756  26.595   0.773
15170W        W86699   1.735   8.744  14.291
15171W        W86700  13.084  34.471   3.390
15172W        W86701   7.774  38.995  13.895
15173W        W86702  39.865  11.400   1.855
15174W        W86703  10.089  43.122   2.020
15175W        W86704  33.195  17.626  13.510
15176W        W86705   4.475   6.904  14.428
15177W        W86706  31.864  12.852   1.707
15178W        W86707  19.979   6.417  14.998
15179W        W86708   7.332  41.982   2.262
15180W        W86709  11.188  19.578  14.819
15181W        W86710   0.507  12.756  14.254
15182W        W86711  28.592  40.934  12.988
15183W        W86712   6.265  32.980   4.801
15184W        W86713  13.092  42.467  14.262
15185W        W86714   6.164  13.419  14.165
15186W        W86715   3.723  22.280   0.871
15187W        W86716  27.169  11.060  14.912
15188W        W86717   3.213  17.110   2.444
15189W        W86718  40.438  14.219  14.778
15190W        W86719  41.434   3.701  12.157
15191W        W86720  17.586  24.836  14.963
15192W        W86721  22.132  43.829   4.597
15193W        W86722   3.692  36.339  11.957
15194W        W86723  21.069  34.568   1.017
15195W        W86724  20.878  16.289  14.180
15196W        W86725   4.403  24.567  13.848
15197W        W86726  15.622  32.941  14.938
15198W        W86727  37.498  12.124  13.159
15199W        W86728   4.153  34.341  12.238
15200W        W86729  36.455  10.837  11.871
15201W        W86730  15.244  28.924  12.616
15202W        W86731  18.577   0.191  10.992
15203W        W86732   2.817  28.740  11.809
15204W        W86733  33.336  43.743  14.855
15205W        W86734   3.030  16.858  11.204
15206W        W86735   0.022  22.043   0.248
15207W        W86736  23.932   5.547  12.565
15208W        W86737   1.203  36.558  14.885
15209W        W86738   0.459  30.986   1.507
15210W        W86739  36.992  36.059   2.627
15211W        W86740  43.784  33.845   0.217
15212W        W86741  23.726  29.478  12.791
15213W        W86742  40.941  43.453   2.869
15214W        W86743  36.327  38.747   4.630
15215W        W86744  22.866  33.656  11.940
15216W        W86745  44.959  33.629   0.961
15217W        W86746  19.170  33.018   4.701
15218W        W86747  33.108  10.720   1.237
15219W        W86748   0.327  38.316   4.139
15220W        W86749   1.998  38.075  14.841
15221W        W86750  37.512   8.832  14.860
15222W        W86751  28.200  33.274   2.310
15223W        W86752  22.155  38.349  11.405
15224W        W86753  41.293  27.449  11.075
15225W        W86754  38.447   9.256   1.780
15226W        W86755  23.760  24.101   3.188
15227W        W86756  43.451   3.195   3.698
15228W        W86757  30.982  26.982  13.934
15229W        W86758   3.387  28.135  11.117
15230W        W86759  14.142  28.164   3.181
15231W        W86760  41.649  40.654   1.105
15232W        W86761  13.638  32.118   4.267
15233W        W86762  25.102  20.183  14.997
15234W        W86763  29.825   3.004  14.583
15235W        W86764  14.302  35.338  14.407
15236W        W86765  25.418  21.264  13.512
15237W        W86766   9.328  25.787   0.818
15238W        W86767   5.439  38.753  11.152
15239W        W86768  15.769  13.784   3.895
15240W        W86769  12.904   7.884   0.303
15241W        W86770  39.527  27.872   1.159
15242W        W86771   9.810   4.420   3.963
15243W        W86772   2.125  43.001   0.340
15244W        W86773   6.839  17.184   1.215
15245W        W86774  25.645  17.403  14.029
15246W        W86775  28.651  43.756  12.953
15247W        W86776  28.652  32.258   0.077
15248W        W86777  34.140  25.094  12.899
15249W        W86778  43.874  13.122  14.962
15250W        W86779  39.888  33.882  11.592
15251W        W86780  28.450  32.780  11.463
15252W        W86781  44.880  33.461  14.856
15253W        W86782   3.903  32.887  11.380
15254W        W86783  18.271  35.517   2.824
15255W        W86784   9.792  29.177  10.570
15256W        W86785   3.558  40.109   5.200
15257W        W86786  13.237  24.099  12.153
15258W        W86787  29.425  27.988   2.770
15259W        W86788  15.253   2.815  11.467
15260W        W86789  23.093  32.581  13.909
15261W        W86790   6.679  10.558   0.359
15262W        W86791  12.432  13.179   4.505
15263W        W86792  14.851  32.549   2.180
15264W        W86793   7.862  21.487  11.393
15265W        W86794  13.559   9.731  14.555
15266W        W86795  43.653  37.722   3.671
15267W        W86796  25.459   7.729   1.086
15268W        W86797  20.002  15.857  12.897
15269W        W86798   1.327  42.346   1.358
15270W        W86799  32.408  20.738  10.436
15271W        W86800  28.978   6.273  11.122
15272W        W86801  29.243  19.866   2.592
15273W        W86802  26.971  23.713   0.804
15274W        W86803  11.890  31.372  14.354
15275W        W86804  42.371  18.898  12.405
15276W        W86805  33.183  13.493  11.326
15277W        W86806  27.533  26.695   3.865
15278W        W86807   4.292  44.138   5.010
15279W        W86808  23.498  14.071  12.414
15280W        W86809  16.834  44.369   3.801
15281W        W86810  11.535  20.782   1.357
15282W        W86811  42.687  22.702  10.682
15283W        W86812  42.375  24.400   0.058
15284W        W86813  15.769   8.070   1.273
15285W        W86814  40.359  30.045   2.908
15286W        W86815  18.128  31.687   4.851
15287W        W86816  41.933   9.253  13.233
15288W        W86817  10.442  37.593  11.023
15289W        W86818  20.423   1.983  10.276
15290W        W86819  11.349   4.804   1.479
15291W        W86820  15.801   9.910   3.308
15292W        W86821  35.313  40.460  12.758
15293W        W86822  15.335  11.727   3.696
15294W        W86823   3.310  39.908   3.909
15295W        W86824  10.830   9.345   2.591
15296W        W86825   9.227  43.854  10.779
15297W        W86826  13.342   2.692   4.630
15298W        W86827  24.422  41.333   2.817
15299W        W86828  30.465  44.437  11.157
15300W        W86829   6.277  36.595   3.325
15301W        W86830  14.328   4.292  11.256
15302W        W86831  19.818  27.610  14.047
15303W        W86832   1.159   0.415   2.732
15304W        W86833  39.403  12.711  11.023
15305W        W86834  19.306  42.370   3.094
15306W        W86835  34.628   5.762   2.794
15307W        W86836   2.685   5.430   2.332
15308W        W86837  18.686   7.696   2.226
15309W        W86838  30.901  16.165  11.590
15310W        W86839  11.574  39.552  12.522
15311W        W86840  26.457   9.255  10.665
15312W        W86841  21.226  44.141  11.493
15313W        W86842   7.304  13.412  14.099
15314W        W86843  39.615  25.059  10.810
15315W        W86844  33.422  29.640  10.772
15316W        W86845   0.220   8.408   2.247
15317W        W86846   4.791   1.534   0.797
15318W        W86847  39.160  34.281   1.347
15319W        W86848  42.839  38.754   4.192
15320W        W86849  33.507  33.975  10.292
15321W        W86850  34.323  38.869   2.673
15322W        W86851  40.814  20.289   3.353
15323W        W86852  20.485  18.052   2.246
15324W        W86853  17.760  42.216  13.205
15325W        W86854  25.530  37.813   3.733
15326W        W86855  44.281  29.992  11.494
15327W        W86856   6.443  23.868   3.331
15328W        W86857  14.341  26.896  14.370
15329W        W86858  39.368  19.727   3.318
15330W        W86859  23.036  34.829   4.776
15331W        W86860   3.238  22.223  14.098
15332W        W86861  10.332  30.161   2.767
15333W        W86862  42.753  24.142  12.586
15334W        W86863  30.485  26.539  14.493
15335W        W86864  42.419  36.368  12.687
15336W        W86865   2.085  10.134  14.398
15337W        W86866  23.132  16.552   1.350
15338W        W86867  19.064   7.749   4.563
15339W        W86868   6.644  32.322  13.479
15340W        W86869   2.848  15.221   0.470
15341W        W86870  42.280  13.283   4.210
15342W        W86871  17.707  29.067  14.871
15343W        W86872  10.135  42.206  11.687
15344W        W86873   8.462  33.859  11.125
15345W        W86874  30.255  32.915   2.773
15346W        W86875   1.384  23.162   1.187
15347W        W86876  12.920  22.552  14.456
15348W        W86877  43.868  34.215  13.026
15349W        W86878  36.883  24.188  13.496
15350W        W86879  44.273   3.512  14.661
15351W        W86880  19.634  37.303   1.904
15352W        W86881  19.691  41.415   2.834
15353W        W86882  26.621   3.799  14.392
15354W        W86883  33.809  15.447  13.368
15355W        W86884   4.136   7.463  12.448
15356W        W86885  11.123  35.389   2.699
15357W        W86886   4.385  12.241  14.752
15358W        W86887   5.627  13.459   1.746
15359W        W86888   9.545  10.797  14.355
15360W        W86889  34.861  30.755  11.448
15361W        W86890  18.628  44.452  10.387
15362W        W86891  20.697  36.553   2.448
15363W        W86892  28.374  15.974   1.319
15364W        W86893  20.261  23.084  10.472
15365W        W86894   8.997  13.824   0.330
15366W        W86895  35.390  13.138  11.707
15367W        W86896   3.959  32.402  11.210
15368W        W86897   0.295  43.283   1.000
15369W        W86898  25.826   4.248  14.919
15370W        W86899  24.435  22.300   1.754
15371W        W86900  25.486  20.457   3.294
15372W        W86901  10.766  37.486   2.678
15373W        W86902  19.374   4.081   0.902
15374W        W86903  30.607  25.170  13.537
15375W        W86904   1.270  19.302  11.732
15376W        W86905   1.255  37.159   3.203
15377W        W86906  36.839  26.419   1.832
15378W        W86907  25.934  33.062   3.292
15379W        W86908  36.508  38.403   2.575
15380W        W86909  20.769  34.496   4.171
15381W        W86910   9.112  18.588   2.594
15382W        W86911  22.706  16.100   2.806
15383W        W86912  42.706   0.752   1.934
15384W        W86913  10.830  42.015   1.717
15385W        W86914  20.432  27.178  13.670
15386W        W86915  31.052  22.727  11.026
15387W        W86916  14.990  21.003  14.310
15388W        W86917  13.137  15.661   0.998
15389W        W86918  34.472   1.823   4.530
15390W        W86919  28.163   8.402  12.046
15391W        W86920  44.760   9.359   0.616
15392W        W86921  26.712  16.764   3.181
15393W        W86922  12.717  44.433  11.656
15394W        W86923  10.828   8.819   2.621
15395W        W86924   7.871  12.621   1.770
15396W        W86925  26.731   3.441  13.835
15397W        W86926  25.575  34.185   1.011
15398W        W86927   3.422  44.925  14.495
15399W        W86928   1.368  36.168  10.172
15400W        W86929  17.282  40.069  12.461
15401W        W86930  15.400  38.597  12.070
15402W        W86931  13.842  15.883  10.135
15403W        W86932  16.754  24.172  14.209
15404W        W86933  12.932   4.215  14.821
15405W        W86934  41.555  28.484   3.215
15406W        W86935  14.428   8.758   2.314
15407W        W86936  34.506   6.150  13.511
15408W        W86937  39.440   3.387   4.670
15409W        W86938  28.697  19.447   1.498
15410W        W86939  20.806  42.719  13.057
15411W        W86940  15.405  33.967   1.688
15412W        W86941  44.474  30.360  10.634
15413W        W86942  22.757   0.347   2.813
15414W        W86943   0.787  11.338   0.993
15415W        W86944  29.229  16.807   3.329
15416W        W86945   8.232  39.148   3.089
15417W        W86946  28.192   1.991   0.832
15418W        W86947  40.570   2.845  14.301
15419W        W86948  39.050  16.074  10.184
15420W        W86949  22.949  14.363   0.028
15421W        W86950  34.049  20.005  12.852
15422W        W86951  12.571  44.461  14.541
15423W        W86952  13.839  16.031   3.164
15424W        W86953  17.161   7.034   1.542
15425W        W86954  30.026   6.404   1.237
15426W        W86955  14.320  11.610   2.470
15427W        W86956  22.114  43.517  11.438
15428W        W86957  11.773  35.814  11.253
15429W        W86958   0.998   9.118  13.844
15430W        W86959  37.734  11.382  11.994
15431W        W86960  19.523  29.644   2.328
15432W        W86961  21.581  10.842  11.537
15433W        W86962  10.080   6.958  11.196
15434W        W86963  29.166  39.768  10.733
15435W        W86964  25.628  42.188  11.629
15436W        W86965  22.659  30.439  13.742
15437W        W86966  39.678   4.867  11.164
15438W        W86967  12.575   2.838  12.865
15439W        W86968   7.122   8.566   2.421
15440W        W86969  43.355  19.637   2.417
15441W        W86970   6.756  15.834  13.060
15442W        W86971   7.130   5.838   0.023
15443W        W86972  18.281  39.653   2.423
15444W        W86973   9.334  10.773  12.135
15445W        W86974  24.657   4.146  11.154
15446W        W86975  42.333   7.461  12.183
15447W        W86976   1.929  38.335   3.834
15448W        W86977   0.766  20.811   2.876
15449W        W86978  34.842  18.701  13.551
15450W        W86979  39.523   6.582  11.720
15451W        W86980   6.568  13.632  13.951
15452W        W86981  16.573  41.933   2.105
15453W        W86982  13.520  19.869   3.762
15454W        W86983  27.043  34.792  14.259
15455W        W86984  41.414   4.746   0.444
15456W        W86985  14.722   8.638   1.874
15457W        W86986  25.711  28.107  13.323
15458W        W86987  14.819  14.126  11.484
15459W        W86988  11.912   1.152  10.910
15460W        W86989   7.833  42.070   0.447
15461W        W86990   4.980  23.060   4.018
15462W        W86991   4.551  21.544   2.047
15463W        W86992  31.065   6.366  14.847
15464W        W86993   9.001  13.194  10.621
15465W        W86994  22.599  16.334   4.101
15466W        W86995  28.453  44.845   1.708
15467W        W86996  11.678  16.774  14.765
15468W        W86997  10.397  37.582  12.179
15469W        W86998  32.178  42.432  14.762
15470W        W86999  36.783  42.549  10.792
15471W        W87000   1.921  14.563   2.360
15472W        W87001  40.504   8.012  10.763
15473W        W87002  29.195  14.177  14.762
15474W        W87003  14.271  36.338  13.433
15475W        W87004   9.135  26.622  12.644
15476W        W87005  20.827  36.520   0.286
15477W        W87006  33.432  31.585  12.631
15478W        W87007  24.250  34.545   2.332
15479W        W87008  21.442   2.789   2.746
15480W        W87009  19.369   3.232   1.651
15481W        W87010   5.315  28.152  11.242
15482W        W87011  13.206  13.191   4.094
15483W        W87012   8.812  14.588  10.705
15484W        W87013  21.793  30.551   4.098
15485W        W87014  10.850  12.847   2.337
15486W        W87015   5.688   6.878   2.120
15487W        W87016  43.348   1.207  10.668
15488W        W87017  27.699   6.027  12.270
15489W        W87018  22.936   7.878   3.181
15490W        W87019  10.982  28.488   3.637
15491W        W87020  24.540  29.633  11.092
15492W        W87021  28.572  42.812  11.084
15493W        W87022  39.078  39.606  12.475
15494W        W87023  26.251  20.005  14.012
15495W        W87024  41.937   5.373  14.095
15496W        W87025   9.806  42.051   2.713
15497W        W87026  22.301  34.995  11.516
15498W        W87027  20.492  40.308   3.715
15499W        W87028  10.580  17.741  13.504
15500W        W87029   9.661   9.929  11.477
15501W        W87030  31.381  40.397   2.443
15502W        W87031  13.756  33.489   3.271
15503W        W87032  41.913  13.041  10.618
15504W        W87033  14.320  37.215  13.149
15505W        W87034  39.256  16.612  13.069
15506W        W87035  21.642  32.461  11.700
15507W        W87036  38.932  13.217  12.958
15508W        W87037   9.341  27.901   2.365
15509W        W87038  33.792   9.098  13.481
15510W        W87039  37.505  43.196   1.010
15511W        W87040  28.769  36.883  13.429
15512W        W87041   9.220  38.901   4.615
15513W        W87042  17.251  39.717   0.919
15514W        W87043  43.876  20.209   0.312
15515W        W87044  33.312  31.586   1.604
15516W        W87045  30.980  31.627  14.559
15517W        W87046   4.728  39.911   4.354
15518W        W87047   0.293  40.607   0.396
15519W        W87048  31.004  23.179  14.432
15520W        W87049  35.301  44.976   4.218
15521W        W87050  15.881  14.099  11.143
15522W        W87051   7.897  21.079   5.068
15523W        W87052   2.687  10.119   4.921
15524W        W87053  26.072  17.451   3.977
15525W        W87054  42.833   7.448   2.345
15526W        W87055  37.875  35.500   1.330
15527W        W87056  15.230  30.026   2.895
15528W        W87057  19.250  42.370  11.971
15529W        W87058   9.265  13.134   4.630
15530W        W87059  38.645  22.617   1.750
15531W        W87060  38.235  17.127  14.048
15532W        W87061   1.956   9.711   0.823
15533W        W87062  23.997  20.749   2.432
15534W        W87063  41.297  15.580   0.998
15535W        W87064  32.321  32.200  10.862
15536W        W87065  12.741   6.235  12.325
15537W        W87066   3.924  44.183   2.435
15538W        W87067   1.169  23.821   2.824
15539W        W87068  31.000  30.750   1.646
15540W        W87069   1.381  10.150   2.279
15541W        W87070  32.053  30.514  11.313
15542W        W87071   4.749  10.201   3.366
15543W        W87072  23.802  10.348  11.430
15544W        W87073  32.429  12.798  13.894
15545W        W87074  44.357  37.327   1.885
15546W        W87075  43.382  32.665  12.382
15547W        W87076  35.384   1.723   2.618
15548W        W87077   1.489  20.231  14.423
15549W        W87078  24.426  19.265   0.866
15550W        W87079  20.304   6.740   0.731
15551W        W87080  29.479  16.951   3.797
15552W        W87081  27.713  24.113   4.058
15553W        W87082   3.659  39.079  13.187
15554W        W87083   9.728  31.359  11.052
15555W        W87084   2.733  11.963   0.906
15556W        W87085  39.092  28.029  14.016
15557W        W87086  34.073  21.896  10.687
15558W        W87087   0.431   6.079  11.681
15559W        W87088  42.352  30.592   0.066
15560W        W87089   1.315  38.952   0.227
15561W        W87090  26.243  42.225  12.409
15562W        W87091  27.147  44.853   2.158
15563W        W87092   2.785  24.805   2.763
15564W        W87093   2.951  34.669   4.480
15565W        W87094  23.245  32.142   1.838
15566W        W87095  36.079  35.411  12.719
15567W        W87096  34.551  33.618   4.129
15568W        W87097   8.287  12.763  10.474
15569W        W87098   8.373  12.225   4.017
15570W        W87099  38.547  28.056   4.545
15571W        W87100  13.620  44.954  12.397
15572W        W87101  30.096  27.252  14.462
15573W        W87102   9.221  19.309  13.968
15574W        W87103   3.024  29.534  14.989
15575W        W87104  25.320  14.781   3.659
15576W        W87105  27.909   3.836  10.658
15577W        W87106  26.201  35.574   0.829
15578W        W87107   7.733  36.730  13.541
15579W        W87108  22.926  13.646   4.145
15580W        W87109  32.582  42.819   3.855
15581W        W87110  39.062  28.145   4.488
15582W        W87111  19.233  35.845  10.698
15583W        W87112   4.151   9.734  13.872
15584W        W87113   9.607  36.495  12.101
15585W        W87114  30.531  27.503   2.382
15586W        W87115  17.553   8.064   1.593
15587W        W87116  20.636  21.420  12.128
15588W        W87117  23.252   6.225  14.489
15589W        W87118  31.659  16.467   4.241
15590W        W87119  21.290  14.060  14.303
15591W        W87120  36.011   2.541   1.937
15592W        W87121  35.522  30.179  10.645
15593W        W87122  32.184  18.242  11.409
15594W        W87123  26.184   1.213   0.635
15595W        W87124  42.428  36.594  13.151
15596W        W87125  18.076  37.879  14.405
15597W        W87126  22.535  11.196  12.060
15598W        W87127  19.191   6.159   3.116
15599W        W87128  25.916   4.496  12.462
15600W        W87129  18.004  34.066  13.017
15601W        W87130  12.649   0.812   4.525
15602W        W87131  28.983   1.984  14.118
15603W        W87132   9.114  13.390   4.183
15604W        W87133  36.050   3.799  11.938
15605W        W87134  41.915  36.336  13.979
15606W        W87135  22.063   7.211   4.163
15607W        W87136   9.668  15.345   4.603
15608W        W87137  11.965   7.317  10.321
15609W        W87138   9.158   0.937  12.877
15610W        W87139  12.602   2.552  10.161
15611W        W87140  35.016  14.456  10.961
15612W        W87141  26.215  19.256  14.320
15613W        W87142  24.065  21.230   2.653
15614W        W87143  28.585   1.426   1.264
15615W        W87144  23.407   8.883   4.069
15616W        W87145  23.517  33.358   4.417
15617W        W87146   5.288  33.111   2.182
15618W        W87147  28.372  15.155  14.099
15619W        W87148   1.635  29.660  14.741
15620W        W87149  33.669  43.084   0.527
15621W        W87150   8.146  37.943  10.962
15622W        W87151  35.877  15.622   4.773
15623W        W87152  18.983  37.918  11.276
15624W        W87153  42.921   3.825   1.486
15625W        W87154   9.781  30.987  14.869
15626W        W87155  21.409   7.405   3.120
15627W        W87156   4.351  23.286   4.630
15628W        W87157  33.621   2.472   1.519
15629W        W87158  26.368   7.870  11.647
15630W        W87159  19.164   0.408   2.116
15631W        W87160  36.428  22.737  11.341
15632W        W87161  33.089  43.373   3.352
15633W        W87162  24.982  39.770   0.344
15634W        W87163   0.943   1.938   4.267
15635W        W87164  27.559  34.828  14.259
15636W        W87165   0.517  17.638   2.364
15637W        W87166  32.556  19.537   3.036
15638W        W87167  38.002  13.546  14.987
15639W        W87168  28.417  43.278   2.796
15640W        W87169   5.408  33.841  13.494
15641W        W87170   9.192  17.155  13.038
15642W        W87171  30.384   6.636   2.182
15643W        W87172  40.635  42.295   0.759
15644W        W87173   9.391  40.262  14.594
15645W        W87174   2.764  39.645   1.308
15646W        W87175  11.274  21.744  14.339
15647W        W87176   7.603  11.281   0.262
15648W        W87177  31.900  35.523   3.245
15649W        W87178   9.874   0.417  12.522
15650W        W87179  27.552   8.633   0.885
15651W        W87180  40.001   5.174  12.572
15652W        W87181  12.633  42.427  13.968
15653W        W87182  34.184  27.566  10.885
15654W        W87183  32.222  18.266   1.810
15655W        W87184   2.969   3.339  12.836
15656W        W87185  11.286  40.903   4.621
15657W        W87186  44.241   5.725  11.065
15658W        W87187  24.168  40.104  12.590
15659W        W87188  25.094  23.231  14.311
15660W        W87189  27.204  31.792   1.713
15661W        W87190  42.192   4.519  14.868
15662W        W87191  27.720  27.713   3.760
15663W        W87192   5.012  24.157   0.005
15664W        W87193  17.434   9.628   3.161
15665W        W87194  42.167  24.792   2.939
15666W        W87195  31.052   3.572   2.179
15667W        W87196  21.326  43.791   4.131
15668W        W87197  15.789  17.718  11.635
15669W        W87198  30.000  26.582  13.387
15670W        W87199  36.972  43.485  11.907
15671W        W87200  33.055  42.790   4.134
15672W        W87201  35.034   0.700   1.774
15673W        W87202  32.496  30.537  13.075
15674W        W87203  31.321   5.864   2.732
15675W        W87204  43.484  19.783   4.205
15676W        W87205  32.397  38.106  13.398
15677W        W87206  28.119  32.434   3.720
15678W        W87207  22.214  26.896  14.466
15679W        W87208  40.332  43.992   4.435
15680W        W87209  33.142  17.301  14.187
15681W        W87210  42.800  43.775   2.466
15682W        W87211  32.581   6.788  13.563
15683W        W87212  20.034   3.120  14.047
15684W        W87213  11.769  22.804  10.605
15685W        W87214  38.311  35.898  13.498
15686W        W87215  28.124   3.726   2.666
15687W        W87216  31.597  21.210   2.806
15688W        W87217  30.237   3.742  14.227
15689W        W87218  29.261   4.326  12.063
15690W        W87219  42.491  37.277   3.135
15691W        W87220  28.579  38.982  11.609
15692W        W87221  26.701  18.717   3.527
15693W        W87222  15.809  35.225   1.459
15694W        W87223   5.272  38.807  13.110
15695W        W87224  38.019  23.536  14.320
15696W        W87225   9.404   2.856   2.523
15697W        W87226  17.326  35.139  11.099
15698W        W87227  24.124  25.705   1.822
15699W        W87228   9.587   0.036   1.354
15700W        W87229  21.562  15.332   3.290
15701W        W87230   5.422  32.067  12.469
15702W        W87231  20.734  30.239   3.271
15703W        W87232  37.924  34.989   0.612
15704W        W87233  24.222  28.759   1.925
15705W        W87234  29.174  42.951   3.273
15706W        W87235  43.000  17.015   0.293
15707W        W87236  19.532  32.086   2.763
15708W        W87237  29.599   2.652   4.534
15709W        W87238   3.321  36.450   4.977
15710W        W87239  31.040  27.354   4.527
15711W        W87240  41.469   8.194  12.424
15712W        W87241  10.116   2.815   0.282
15713W        W87242  16.521   6.562   0.890
15714W        W87243  29.885   8.903  14.027
15715W        W87244  28.482  42.358   4.686
15716W        W87245  13.188   1.500  14.366
15717W        W87246  42.804   0.030   0.992
15718W        W87247  20.163  28.747  13.259
15719W        W87248  28.883   1.405   1.708
15720W        W87249  36.406   0.937   1.318
15721W        W87250  41.914  28.521  11.069
15722W        W87251  10.308  16.515  11.864
15723W        W87252   5.536  30.236   2.842
15724W        W87253  20.480   3.921  12.155
15725W        W87254   3.413   5.933   2.666
15726W        W87255  39.038   8.467   2.141
15727W        W87256   9.512  42.176   4.157
15728W        W87257  24.246  29.529  11.956
15729W        W87258  33.487   3.710  12.300
15730W        W87259  23.182  21.729  12.026
15731W        W87260  19.773   3.382   4.959
15732W        W87261  14.351   2.884   2.781
15733W        W87262   0.338   3.377  10.717
15734W        W87263   8.883  25.423   4.826
15735W        W87264   0.680   7.434  12.496
15736W        W87265   2.219  28.435   2.623
15737W        W87266  20.384  35.578  13.945
15738W        W87267  17.128  37.815   0.873
15739W        W87268  16.607  22.199   0.175
15740W        W87269  13.575   1.973  10.768
15741W        W87270  42.817  27.925   1.004
15742W        W87271  40.824  24.489   0.895
15743W        W87272  15.218  42.293   1.782
15744W        W87273  41.437  26.585   1.953
15745W        W87274  39.539  23.257  13.910
15746W        W87275  27.557  42.244   1.793
15747W        W87276  26.940   9.804  14.033
15748W        W87277  26.592  43.264   4.398
15749W        W87278   5.843   6.961   0.441
15750W        W87279  27.602   8.434  12.747
15751W        W87280   4.516  44.345  12.176
15752W        W87281  31.505  14.688   3.284
15753W        W87282  35.818  23.213  14.022
15754W        W87283  29.574  12.115  13.034
15755W        W87284  33.014  19.744   2.314
15756W        W87285  18.768  44.484   1.002
15757W        W87286  22.708  14.363   3.597
15758W        W87287  44.366  21.793   1.923
15759W        W87288  24.576  15.387   2.302
15760W        W87289  17.822  30.906  10.871
15761W        W87290  14.740  40.102   0.603
15762W        W87291  15.205  32.769   3.698
15763W        W87292   9.232  39.801   1.990
15764W        W87293  38.778   9.844  14.320
15765W        W87294  15.876  33.969   4.237
15766W        W87295  29.680   4.365  13.366
15767W        W87296  14.617  11.439   4.049
15768W        W87297   4.992   6.762  14.321
15769W        W87298  43.832  15.832   1.668
15770W        W87299   4.297  31.995   2.351
15771W        W87300  43.470   4.700   1.269
15772W        W87301  37.881  22.766   0.420
15773W        W87302  36.998  20.526   2.552
15774W        W87303   9.896  41.086   4.251
15775W        W87304  29.172  35.966  11.984
15776W        W87305  42.228  33.883  12.484
15777W        W87306   1.411  25.502  11.914
15778W        W87307  11.381  13.099  12.532
15779W        W87308   3.760  17.334  10.009
15780W        W87309  15.668  11.109   0.354
15781W        W87310  22.382  12.185   1.690
15782W        W87311  29.694  26.706  11.497
15783W        W87312   2.679  17.684  12.089
15784W        W87313   4.890  20.789  11.355
15785W        W87314  34.180  20.241  14.699
15786W        W87315  37.653  12.218  13.640
15787W        W87316  38.281  36.247  12.452
15788W        W87317   7.145  35.840   4.965
15789W        W87318  14.962   1.972  12.834
15790W        W87319   9.230  13.367  11.062
15791W        W87320  39.955  16.616  11.991
15792W        W87321  19.033  11.244   0.056
15793W        W87322  15.250  27.521  11.006
15794W        W87323   9.562  11.769  13.577
15795W        W87324   1.704  18.673  14.318
15796W        W87325  42.251  18.198   2.874
15797W        W87326  25.071  30.216  13.933
15798W        W87327  32.890  20.982  10.024
15799W        W87328  11.882  23.238   2.266
15800W        W87329  29.726  28.522   0.242
15801W        W87330  37.008  10.434  10.971
15802W        W87331  13.770  19.745   4.176
15803W        W87332  35.094  33.812  11.601
15804W        W87333  12.678   1.089   0.965
15805W        W87334  14.364  43.436  13.419
15806W        W87335  21.063  40.919   0.808
15807W        W87336   4.840  43.590  13.858
15808W        W87337   3.284  22.512  13.281
15809W        W87338  13.711  33.433  11.553
15810W        W87339  12.573  21.663   4.751
15811W        W87340  15.676  37.479  12.859
15812W        W87341  39.102  18.491  12.087
15813W        W87342  25.488  36.640  13.467
15814W        W87343  11.337  42.483   0.540
15815W        W87344  35.836  17.304  12.849
15816W        W87345  28.728  26.116  14.805
15817W        W87346   0.952  10.657  14.872
15818W        W87347  14.356  16.602   2.712
15819W        W87348  32.016  31.575  12.240
15820W        W87349  27.153  24.232   0.766
15821W        W87350  33.919  12.180  14.053
15822W        W87351   1.794  37.193   2.326
15823W        W87352   9.697   0.359  14.933
15824W        W87353  24.445  21.177  12.112
15825W        W87354  36.312  34.967   3.844
15826W        W87355  44.102  19.235   1.300
15827W        W87356  38.919  18.738   3.722
15828W        W87357   1.192  17.515  12.033
15829W        W87358  22.248  43.613  13.342
15830W        W87359  27.922  42.915   1.837
15831W        W87360  15.699   2.664  12.922
15832W        W87361  10.364  25.024   4.506
15833W        W87362  15.253  13.275   2.769
15834W        W87363  37.975  26.261  10.624
15835W        W87364   5.442   5.830  12.899
15836W        W87365  30.438  20.720  14.242
15837W        W87366   2.901  19.289  12.943
15838W        W87367  17.541  42.405   3.812
15839W        W87368  36.115  40.749  14.797
15840W        W87369   2.880  43.301  13.045
15841W        W87370   1.314   7.852  13.033
15842W        W87371  44.971  18.847   2.829
15843W        W87372   2.295  28.624  12.580
15844W        W87373  20.700  29.091  11.088
15845W        W87374  12.199  29.718   0.907
15846W        W87375  41.426  21.815  13.912
15847W        W87376  19.380  42.288  11.441
15848W        W87377  25.777  16.993  14.618
15849W        W87378  18.874  11.284   3.585
15850W        W87379  16.785  34.066  13.349
15851W        W87380  12.722  30.645   2.131
15852W        W87381  28.674  13.840  11.643
15853W        W87382  38.233  10.266   3.184
15854W        W87383  42.413   8.697  10.661
15855W        W87384  13.356  19.045  13.403
15856W        W87385  35.027   0.950   2.765
15857W        W87386   2.821  27.484   4.706
15858W        W87387   1.757   0.475   3.946
15859W        W87388  19.167   3.420   2.129
15860W        W87389  43.842   8.839  14.955
15861W        W87390  33.623  13.792  13.207
15862W        W87391  24.372   4.890   4.177
15863W        W87392  12.175   7.103  11.561
15864W        W87393   4.275  43.549   0.955
15865W        W87394  35.867  41.679  13.485
15866W        W87395  24.100  43.420  13.048
15867W        W87396  34.986  19.301   4.315
15868W        W87397  32.039  25.026   0.551
15869W        W87398   3.105  21.357   2.855
15870W        W87399  43.875  13.320  12.572
15871W        W87400  36.149  38.387  10.720
15872W        W87401  20.984   6.412   2.598
15873W        W87402   0.737   2.696   0.343
15874W        W87403   9.639  32.620  13.631
15875W        W87404  42.088  22.258  12.449
15876W        W87405  41.817  28.024  11.225
15877W        W87406   9.306  18.819   3.457
15878W        W87407  31.536  27.530   2.407
15879W        W87408  15.195  36.323   0.757
15880W        W87409  22.388  31.471   0.368
15881W        W87410  19.452  20.751  14.943
15882W        W87411  43.938  20.200  13.945
15883W        W87412   4.499  30.411   3.687
15884W        W87413  28.890  42.548  11.565
15885W        W87414  36.954  41.099   3.727
15886W        W87415  27.500  13.200   1.458
15887W        W87416  23.069  15.875  12.377
15888W        W87417   4.070   4.855  11.205
15889W        W87418  16.697  10.631   1.828
15890W        W87419  25.196  19.724   2.240
15891W        W87420  44.364  18.638  14.558
15892W        W87421  40.378   8.179   1.630
15893W        W87422  41.746  37.661  12.193
15894W        W87423  12.364  11.448  14.929
15895W        W87424  16.239  42.597   3.678
15896W        W87425  33.627   8.367  11.560
15897W        W87426   8.039  36.929  11.487
15898W        W87427  20.333  19.507  12.480
15899W        W87428  37.394   7.334  12.017
15900W        W87429   9.863   6.683   1.219
15901W        W87430   0.895  22.782   5.370
15902W        W87431   7.163   3.889  10.702
15903W        W87432  37.330  43.096   9.974
15904W        W87433  22.752   3.342   0.738
15905W        W87434  41.028   2.885  11.061
15906W        W87435   0.772  42.258   0.408
15907W        W87436  29.060   7.190   4.137
15908W        W87437   7.378  28.020   1.767
15909W        W87438  18.594  37.830  13.329
15910W        W87439  31.728  12.862   2.654
15911W        W87440  38.098  39.901   4.707
15912W        W87441  33.890  42.388   3.262
15913W        W87442   1.950  14.820   3.204
15914W        W87443  43.764  34.840  14.394
15915W        W87444  16.892  29.584  13.451
15916W        W87445  39.493   1.884  10.778
15917W        W87446  38.890  29.967   4.535
15918W        W87447  19.697  24.271  12.853
15919W        W87448   4.457   5.681   1.856
15920W        W87449  38.953  26.012   2.445
15921W        W87450  20.970  36.110   2.356
15922W        W87451  15.079   4.896   1.362
15923W        W87452  21.193   5.099   5.094
15924W        W87453  18.316  29.163   2.255
15925W        W87454  25.454  35.304   3.080
15926W        W87455  23.165   8.068  13.143
15927W        W87456  20.100  29.201   0.484
15928W        W87457  25.586  11.332  11.574
15929W        W87458  35.461  27.583  11.383
15930W        W87459  43.571  12.951   2.888
15931W        W87460  25.524  23.897  10.589
15932W        W87461  42.442   3.915   1.677
15933W        W87462  33.078   2.421   0.256
15934W        W87463  20.206  22.764   2.424
15935W        W87464  13.331  26.953  14.026
15936W        W87465   8.279  22.950  11.977
15937W        W87466  37.011   3.277  11.556
15938W        W87467   0.216  28.052   3.952
15939W        W87468  35.224  12.673   1.995
15940W        W87469   8.988  19.677  12.199
15941W        W87470  17.912  33.707  12.019
15942W        W87471  16.187  27.150   0.347
15943W        W87472  42.448  10.812   2.439
15944W        W87473  12.575  15.038  11.642
15945W        W87474  29.829  40.434   4.541
15946W        W87475  25.580   5.109   2.928
15947W        W87476  43.942  38.481   2.721
15948W        W87477  15.019   6.822  13.427
15949W        W87478  28.200  25.016  10.371
15950W        W87479  32.493   2.285  14.826
15951W        W87480  32.782  26.438  14.919
15952W        W87481  34.691  20.783  13.535
15953W        W87482  34.000  17.242  14.547
15954W        W87483   3.716  35.379   3.271
15955W        W87484  19.938  35.457  10.322
15956W        W87485  21.489  30.553   2.662
15957W        W87486  28.896  24.422  12.597
15958W        W87487   1.220  36.638   1.841
15959W        W87488  21.774  42.560  14.927
15960W        W87489   0.066  30.103  12.137
15961W        W87490  40.249  17.268  12.578
15962W        W87491  11.865   2.221  12.314
15963W        W87492  26.099   6.636  12.973
15964W        W87493  20.588  43.102   0.297
15965W        W87494  26.679  31.197  14.099
15966W        W87495   2.731  34.415   0.744
15967W        W87496  36.021  40.506   4.586
15968W        W87497  37.245   7.131   3.198
15969W        W87498   2.391  19.652   4.075
15970W        W87499   2.124  25.868   3.259
15971W        W87500   6.585  32.669   1.539
15972W        W87501  22.528  23.074   4.082
15973W        W87502  36.892  28.216  12.904
15974W        W87503  21.192  28.098  13.840
15975W        W87504  35.317  23.989   3.351
15976W        W87505   1.192  21.264  10.561
15977W        W87506  28.405   6.072   2.346
15978W        W87507  32.669  22.460   2.835
15979W        W87508  30.366  13.358   1.159
15980W        W87509  44.977  13.106  10.687
15981W        W87510  36.863  20.064   3.499
15982W        W87511  36.421   7.774   2.784
15983W        W87512  40.702  19.751   2.342
15984W        W87513  32.256  27.574  12.836
15985W        W87514  18.135  25.421   1.134
15986W        W87515   9.254  35.334   4.569
15987W        W87516  18.604  15.388  13.578
15988W        W87517  21.766  42.902   3.857
15989W        W87518   8.746  12.581  11.997
15990W        W87519   9.874   3.318  10.321
15991W        W87520  33.356  43.801   3.268
15992W        W87521   6.375  21.439   1.801
15993W        W87522  20.938  11.156  12.031
15994W        W87523   2.884  34.000   0.252
15995W        W87524  29.610  15.947  10.809
15996W        W87525  29.705   8.976  12.231
15997W        W87526   9.733  30.977   2.447
15998W        W87527  11.627   5.688  13.686
15999W        W87528   1.543   6.284  13.318
16000W        W87529  10.144  11.527   3.669
16001W        W87530  33.140  26.389  11.034
16002W        W87531  12.274  11.790   2.858
16003W        W87532   6.506  44.452  13.844
16004W        W87533  21.554   4.806   4.804
16005W        W87534   1.143  36.646   3.229
16006W        W87535  42.813   1.924  12.964
16007W        W87536   9.171  29.339   1.779
16008W        W87537  13.455  29.662  13.460
16009W        W87538  10.396  43.764   0.631
16010W        W87539  33.643  17.058   1.894
16011W        W87540  24.939  32.338  11.581
16012W        W87541  26.321  40.329  12.670
16013W        W87542  23.357  37.997  12.451
16014W        W87543  17.664  16.740   0.536
16015W        W87544   7.066  32.510   0.234
16016W        W87545   4.905   9.779   3.080
16017W        W87546  28.041   0.527  13.338
16018W        W87547  22.424  30.192  12.872
16019W        W87548  21.218  29.988  14.867
16020W        W87549  16.901  28.608  14.846
16021W        W87550  25.508  21.266   0.169
16022W        W87551   3.183  36.428   4.151
16023W        W87552  23.260  35.135  10.927
16024W        W87553  41.783  31.342  13.549
16025W        W87554  18.207   6.459  14.717
16026W        W87555  24.066  29.043  11.939
16027W        W87556  22.520  29.504  13.856
16028W        W87557  37.557  12.256  11.735
16029W        W87558  18.373  15.540  12.372
16030W        W87559  22.562  31.469  14.884
16031W        W87560   1.143  43.389   0.431
16032W        W87561  16.047  32.256   0.200
16033W        W87562  16.554   2.967   0.486
16034W        W87563  36.244  13.178   3.837
16035W        W87564  34.074  42.492  12.407
16036W        W87565  26.147  15.537   3.062
16037W        W87566  17.162  38.843  14.381
16038W        W87567  18.433  11.689   1.389
16039W        W87568  42.149  44.362   5.190
16040W        W87569  41.831  12.195  11.043
16041W        W87570   0.678  34.430   3.386
16042W        W87571  19.210  20.401  14.092
16043W        W87572   4.683  12.632  10.772
16044W        W87573  29.879  37.103   0.195
16045W        W87574  26.678   0.957  14.127
16046W        W87575  28.908  40.099  13.311
16047W        W87576  10.489   7.500  11.945
16048W        W87577  22.702  17.351   1.181
16049W        W87578  25.126  42.369  11.650
16050W        W87579  15.531  28.640   2.541
16051W        W87580  18.726  40.342   4.617
16052W        W87581   8.091   7.338   3.199
16053W        W87582  26.516  23.799   4.901
16054W        W87583  44.284  17.340  13.146
16055W        W87584  19.055  38.462  13.004
16056W        W87585  27.661   3.369   0.235
16057W        W87586  19.749  22.066   0.763
16058W        W87587  23.055  31.642  10.426
16059W        W87588  33.620  36.531  12.149
16060W        W87589  27.781   9.046  12.028
16061W        W87590  34.355  10.241  13.996
16062W        W87591   6.249   9.427  10.722
16063W        W87592  18.673  23.757   0.106
16064W        W87593  13.118  40.973  12.868
16065W        W87594  37.789  31.679   0.530
16066W        W87595  18.883  28.316  11.840
16067W        W87596  27.033   6.935  11.904
16068W        W87597  30.271  30.656  10.139
16069W        W87598  30.797  41.055   2.853
16070W        W87599   3.261  17.590   3.279
16071W        W87600  28.489  23.181  10.501
16072W        W87601  20.152  32.980   4.666
16073W        W87602   7.284   8.880   2.803
16074W        W87603   3.149  44.483   0.829
16075W        W87604   7.715  35.790   1.319
16076W        W87605  33.318  26.170  13.911
16077W        W87606   0.367   0.290   3.340
16078W        W87607  29.681  20.245  12.030
16079W        W87608  41.225  34.223  12.262
16080W        W87609  26.753  32.889   0.022
16081W        W87610  41.370  23.017   3.097
16082W        W87611  12.072   2.833  13.000
16083W        W87612  12.331  32.564   3.288
16084W        W87613  10.058  35.493  14.807
16085W        W87614   7.913  34.779   2.704
16086W        W87615  32.124  27.713   0.821
16087W        W87616  20.183  29.053  14.956
16088W        W87617  10.887   9.112  10.723
16089W        W87618  31.924  25.230  12.806
16090W        W87619  32.062  29.681  14.457
16091W        W87620  38.920  25.740   2.909
16092W        W87621  21.060  24.376   4.356
16093W        W87622  35.158  12.188   1.782
16094W        W87623  19.951  31.510  12.859
16095W        W87624  20.510  33.036   2.184
16096W        W87625  36.817  30.661  14.886
16097W        W87626  31.624  13.231  14.989
16098W        W87627  18.822  43.440  13.977
16099W        W87628   2.272  35.506   4.642
16100W        W87629  36.890   4.871  11.607
16101W        W87630   9.092   9.301  11.947
16102W        W87631  29.930   9.558   0.249
16103W        W87632   3.410  35.951   1.373
16104W        W87633  37.824   0.347  11.806
16105W        W87634   6.110  42.782   3.792
16106W        W87635   2.266  33.570  11.667
16107W        W87636  18.951  31.712  12.861
16108W        W87637  18.486  24.346  10.902
16109W        W87638   3.743  29.629   3.179
16110W        W87639  24.740   5.853   3.357
16111W        W87640  21.461  26.719  11.634
16112W        W87641  18.055   4.774   0.995
16113W        W87642  14.405  11.848   0.331
16114W        W87643  26.566   2.089   1.511
16115W        W87644  24.182  25.650  13.273
16116W        W87645  17.724  17.131   3.370
16117W        W87646   2.187  31.303   3.640
16118W        W87647  14.975  11.037   2.805
16119W        W87648   9.649   0.861  12.721
16120W        W87649   3.051  41.857   4.661
16121W        W87650  16.697  15.466  11.812
16122W        W87651  14.682  22.230  14.806
16123W        W87652   3.555  14.168   3.516
16124W        W87653  38.614  30.994  12.044
16125W        W87654  39.994  16.795   1.728
16126W        W87655  30.169  37.771   2.679
16127W        W87656  40.082  19.616  10.684
16128W        W87657   9.327   7.065   2.700
16129W        W87658  23.667  38.260   3.329
16130W        W87659  32.983  23.593   4.222
16131W        W87660   3.872   2.002  11.505
16132W        W87661   6.942  36.984  12.636
16133W        W87662   9.063  34.003   1.735
16134W        W87663  17.831  39.524   0.050
16135W        W87664   0.329  39.307   2.648
16136W        W87665  32.729  12.754   2.876
16137W        W87666  14.385   7.750   1.340
16138W        W87667  40.324  28.542   3.065
16139W        W87668  24.845  35.523  13.047
16140W        W87669  33.686  37.886   1.377
16141W        W87670  37.849  30.378   0.345
16142W        W87671  24.438  18.613   4.659
16143W        W87672   5.702   9.767  13.547
16144W        W87673   7.857  23.603  12.566
16145W        W87674  11.639  31.012  11.560
16146W        W87675  28.058  36.617   3.307
16147W        W87676   0.577   6.126  13.594
16148W        W87677  32.515  12.391   2.126
16149W        W87678  44.440  11.562   4.063
16150W        W87679   1.256  41.390   4.615
16151W        W87680   1.093   1.102   2.674
16152W        W87681  15.635   2.926  14.526
16153W        W87682  25.012  31.352  10.742
16154W        W87683  21.688  10.195  14.289
16155W        W87684  15.238  34.699  13.019
16156W        W87685  31.023  12.598   4.600
16157W        W87686  14.546  41.583   3.820
16158W        W87687  35.963  36.934   1.942
16159W        W87688   2.732  42.401  11.142
16160W        W87689  39.093  43.937   3.496
16161W        W87690  15.737  19.608   2.463
16162W        W87691   7.329  24.797  14.724
16163W        W87692  40.045  36.570  14.139
16164W        W87693  27.434  40.568   0.773
16165W        W87694  10.066  39.112   1.377
16166W        W87695  13.247  41.276   2.266
16167W        W87696  32.061  37.879  10.468
16168W        W87697  34.690   8.355  12.383
16169W        W87698   2.342   0.981  11.609
16170W        W87699  22.722  34.570   3.452
16171W        W87700  33.397   7.838   3.640
16172W        W87701  35.341  41.731  10.429
16173W        W87702  11.149  39.406  14.335
16174W        W87703   1.623  22.934   1.801
16175W        W87704  15.370  25.087   2.561
16176W        W87705  18.409  35.999   4.193
16177W        W87706  26.552  11.048   1.523
16178W        W87707  13.300   9.824   1.865
16179W        W87708  39.234   7.625  11.209
16180W        W87709  16.553   1.875  14.279
16181W        W87710  42.969  35.930   2.576
16182W        W87711  39.335  23.091  14.557
16183W        W87712  12.519  23.622   4.202
16184W        W87713  13.267  31.349  14.128
16185W        W87714  35.874   4.179  12.605
16186W        W87715   2.589  39.149   1.967
16187W        W87716  38.646  28.313   5.071
16188W        W87717   8.000  11.399  14.877
16189W        W87718  35.072  43.333   2.126
16190W        W87719  26.645  21.375   4.634
16191W        W87720  29.921   6.955   3.697
16192W        W87721  40.830  27.011  11.179
16193W        W87722  37.592   7.881   3.204
16194W        W87723  21.823  19.303  12.366
16195W        W87724  29.658  18.332   2.205
16196W        W87725  19.775  32.962   0.588
16197W        W87726   1.105  11.390   2.500
16198W        W87727  16.901  21.470   2.250
16199W        W87728  42.807  43.757   1.970
16200W        W87729  42.858  26.771   1.732
16201W        W87730  35.547  27.580  10.871
16202W        W87731   2.725  30.928   0.032
16203W        W87732  30.168  18.256   0.947
16204W        W87733  43.827   9.334   1.425
16205W        W87734  14.313   6.505   2.801
16206W        W87735  43.859  24.130  13.824
16207W        W87736   2.198  13.895  12.010
16208W        W87737  20.270  21.535   5.001
16209W        W87738  31.711   9.117  10.522
16210W        W87739  31.953  14.546  13.571
16211W        W87740  39.849   3.816   3.035
16212W        W87741  11.118  39.139   2.627
16213W        W87742   8.000  32.941   0.748
16214W        W87743  38.618  19.200  13.477
16215W        W87744   7.819   4.192  14.545
16216W        W87745  29.841  15.341  14.947
16217W        W87746  33.698  44.844  13.099
16218W        W87747   3.897  11.254  11.430
16219W        W87748   5.947  34.455  12.954
16220W        W87749   3.126   8.795   0.605
16221W        W87750   0.358  29.216  12.353
16222W        W87751  24.181   5.719  13.033
16223W        W87752  42.325  34.361   3.644
16224W        W87753  28.605  41.287   4.614
16225W        W87754  44.700   0.859  13.877
16226W        W87755   3.463  31.164   2.721
16227W        W87756   1.514   9.910   0.362
16228W        W87757  14.976  13.274   3.319
16229W        W87758  43.023  32.370  12.597
16230W        W87759  26.269  30.589   4.764
16231W        W87760   3.722  17.542  13.935
16232W        W87761  24.665   9.244  10.549
16233W        W87762  13.453   4.968  14.925
16234W        W87763  32.086  11.873   5.325
16235W        W87764  27.099  44.767  12.891
16236W        W87765  18.657  11.729   3.785
16237W        W87766  20.194  20.076   0.071
16238W        W87767  26.214  25.922  11.327
16239W        W87768   8.895  35.517   0.750
16240W        W87769   8.174  41.058  10.525
16241W        W87770  19.540  40.996   1.491
16242W        W87771  44.219  43.388  14.394
16243W        W87772  16.095  27.655  14.534
16244W        W87773  35.991   0.295  13.384
16245W        W87774  33.678  43.980  11.029
16246W        W87775   4.473  20.959  11.110
16247W        W87776  21.034  23.544  10.591
16248W        W87777  31.453   3.713   4.390
16249W        W87778   9.284  22.666  12.178
16250W        W87779   2.844   1.243   4.664
16251W        W87780   2.198  14.826   1.478
16252W        W87781  35.837  42.021  12.914
16253W        W87782  32.708  26.634  12.599
16254W        W87783  20.519  19.295  14.983
16255W        W87784   4.373  38.540  13.578
16256W        W87785  37.016  20.515   0.208
16257W        W87786  22.452   2.431  14.142
16258W        W87787  44.855  41.884  12.030
16259W        W87788   7.193  34.009  13.507
16260W        W87789  16.217  34.651   5.033
16261W        W87790  17.965  12.312   3.720
16262W        W87791  20.197   2.257  11.079
16263W        W87792  20.150  28.815  11.722
16264W        W87793  16.100   2.685  14.551
16265W        W87794   7.011   8.357  14.844
16266W        W87795  29.551   6.935  10.403
16267W        W87796  24.244  27.528  10.393
16268W        W87797  21.342   0.292   0.936
16269W        W87798   8.764  33.631  13.791
16270W        W87799  34.429  23.169  14.660
16271W        W87800   0.599  41.947  12.661
16272W        W87801   5.844  40.370   2.461
16273W        W87802   7.623  27.740  10.788
16274W        W87803  22.094   5.353   2.345
16275W        W87804  27.150   7.500  14.583
16276W        W87805  37.063  25.396  11.099
16277W        W87806  28.970   4.923   2.855
16278W        W87807  44.397  25.203   3.364
16279W        W87808  38.326   2.722  13.495
16280W        W87809  23.506  29.438  14.710
16281W        W87810  30.557  37.461   0.380
16282W        W87811  43.942  37.668  11.026
16283W        W87812  33.366  16.662  11.124
16284W        W87813  24.751  36.464   1.858
16285W        W87814   9.365  17.120   3.207
16286W        W87815  12.338  30.213   0.721
16287W        W87816   6.153  23.026   1.203
16288W        W87817   0.553  18.271   2.753
16289W        W87818  34.861   5.800  10.660
16290W        W87819   4.961  33.505   2.380
16291W        W87820  16.236  38.065  14.790
16292W        W87821  35.657   1.828   4.499
16293W        W87822  33.674   4.422   1.205
16294W        W87823  34.014   2.485   3.795
16295W        W87824  13.895   5.132   0.494
16296W        W87825   5.348  19.274  13.715
16297W        W87826   4.911  14.683  10.626
16298W        W87827  14.175   1.536   4.156
16299W        W87828  12.856   1.208  11.221
16300W        W87829   0.145   3.830   3.408
16301W        W87830  29.259  17.295   0.316
16302W        W87831  36.355   7.323  11.564
16303W        W87832  22.232  39.807   3.230
16304W        W87833  26.870  24.012   1.212
16305W        W87834  19.820  27.696   3.317
16306W        W87835  15.105  21.388   0.735
16307W        W87836   1.582  37.932  13.042
16308W        W87837   6.700  28.887   1.200
16309W        W87838  37.015  36.791  12.602
16310W        W87839  38.149  14.808   4.429
16311W        W87840  23.475  20.144  14.377
16312W        W87841  26.229  38.545  13.429
16313W        W87842  36.075  13.644  12.226
16314W        W87843  28.041   0.522  12.327
16315W        W87844  34.339  44.747   3.252
16316W        W87845  10.061   3.623   4.589
16317W        W87846  17.326  43.576   1.705
16318W        W87847   7.808  28.051   2.069
16319W        W87848  25.391  25.262  11.084
16320W        W87849  14.678  13.133   2.933
16321W        W87850   4.121  13.821  14.472
16322W        W87851  18.474   3.221   3.215
16323W        W87852   5.464  39.468  11.538
16324W        W87853  42.712  16.364  14.267
16325W        W87854  36.993  36.240  13.332
16326W        W87855  29.716   2.428   2.915
16327W        W87856  23.841  16.058   3.225
16328W        W87857  33.978  42.754  12.956
16329W        W87858  21.316  20.123   1.199
16330W        W87859  18.235  37.659  11.144
16331W        W87860  21.541  25.584  13.494
16332W        W87861  14.657  25.545   1.428
16333W        W87862  40.331   7.674   2.347
16334W        W87863  37.866  41.058   1.184
16335W        W87864   4.801  28.541  13.772
16336W        W87865  44.704  27.020   1.425
16337W        W87866   5.720   8.881   0.801
16338W        W87867  26.417   8.599  12.504
16339W        W87868  39.428  43.045   3.108
16340W        W87869   9.364  11.513  13.968
16341W        W87870  32.464   5.516  13.067
16342W        W87871  11.691  31.291   0.369
16343W        W87872  16.246  33.847   0.370
16344W        W87873  13.813  19.516   0.954
16345W        W87874  42.325  25.023   3.747
16346W        W87875  42.245  42.452  10.794
16347W        W87876  38.092  19.356   3.764
16348W        W87877  12.402   7.865  12.728
16349W        W87878  38.282   3.776  13.381
16350W        W87879   8.233   2.867  14.691
16351W        W87880  36.639   8.263   3.517
16352W        W87881  20.142  24.200  11.071
16353W        W87882  44.222  42.871  14.295
16354W        W87883  33.440  19.480   2.395
16355W        W87884  41.573  44.993   2.674
16356W        W87885   3.195  20.496   4.307
16357W        W87886  25.985   7.224   2.294
16358W        W87887  39.064  17.695  14.941
16359W        W87888  29.984  43.976  10.669
16360W        W87889   3.910  35.419  11.892
16361W        W87890   6.964   4.242  12.438
16362W        W87891  26.582  41.340   3.968
16363W        W87892  31.510  21.855   0.975
16364W        W87893  41.800  40.969   1.498
16365W        W87894   1.472  37.977   1.342
16366W        W87895  19.321   2.344   1.345
16367W        W87896  14.832  38.948   2.494
16368W        W87897  16.124  44.622   3.110
16369W        W87898  42.048  40.377   2.235
16370W        W87899  38.981  32.378  13.413
16371W        W87900  22.610  39.786   4.148
16372W        W87901  26.312  29.537  10.338
16373W        W87902  26.972   7.348  12.211
16374W        W87903   1.001  14.807  10.719
16375W        W87904  13.829  14.826   4.224
16376W        W87905   2.476   4.895   4.684
16377W        W87906  43.552  40.837   4.409
16378W        W87907  12.062  21.762   2.828
16379W        W87908  29.746  14.813  13.866
16380W        W87909   6.474  25.267   3.798
16381W        W87910  22.507  41.098  12.592
16382W        W87911  34.831   5.669   4.222
16383W        W87912  38.774   4.801  11.474
16384W        W87913  21.313  42.879   3.240
16385W        W87914  15.707  17.986  13.848
16386W        W87915  25.293  11.742   4.576
16387W        W87916   6.130   4.703  11.654
16388W        W87917  30.079  19.748  10.732
16389W        W87918  16.828  19.251   0.559
16390W        W87919  23.958  33.355   2.791
16391W        W87920  33.903  22.626   0.697
16392W        W87921  26.776  41.833   4.049
16393W        W87922   9.417  36.050   4.147
16394W        W87923   0.859   2.964  12.140
16395W        W87924  33.032  31.190   2.251
16396W        W87925  38.040  19.654  12.936
16397W        W87926  36.612  20.789  13.475
16398W        W87927  35.153  17.953  12.035
16399W        W87928  28.378  18.045  14.432
16400W        W87929  36.526  11.346   0.679
16401W        W87930   6.593   4.544   2.339
16402W        W87931   6.816  33.595   3.635
16403W        W87932  13.770  31.083   0.552
16404W        W87933   6.449  11.302  12.956
16405W        W87934  34.026  10.773   2.215
16406W        W87935  24.357  12.372  12.606
16407W        W87936  12.836  41.412  12.961
16408W        W87937   4.270  17.649  14.789
16409W        W87938  43.398  35.946  14.466
16410W        W87939  27.027  36.816  13.465
16411W        W87940  21.658  10.555   0.267
16412W        W87941  17.724  27.043   2.981
16413W        W87942  17.932  10.712  12.042
16414W        W87943   5.409   7.222   4.536
16415W        W87944  43.002  25.478  14.789
16416W        W87945  20.823  19.095   3.730
16417W        W87946   4.323  27.187   4.180
16418W        W87947   1.241  10.148  13.449
16419W        W87948  28.199   8.284  14.513
16420W        W87949  37.614   8.667  12.578
16421W        W87950  16.368  37.357   1.265
16422W        W87951  22.089  41.312   1.438
16423W        W87952  10.293  37.006   1.545
16424W        W87953  14.682   1.238  12.083
16425W        W87954  11.085  13.388  11.110
16426W        W87955  13.303  44.585   4.144
16427W        W87956   2.808  31.816  14.397
16428W        W87957  24.163  21.799  14.952
16429W        W87958  15.703  10.116   1.900
16430W        W87959  38.851  27.137   4.302
16431W        W87960  36.873  37.297   4.076
16432W        W87961  15.165  27.395   1.764
16433W        W87962   3.868   6.649   2.095
16434W        W87963  44.260  20.490  14.539
16435W        W87964  22.388  37.785  10.584
16436W        W87965  21.066   9.691  14.973
16437W        W87966  42.400   5.402  14.332
16438W        W87967  18.703   7.204  11.138
16439W        W87968  11.757  17.005   9.852
16440W        W87969  29.065  35.939   0.347
16441W        W87970  20.468  22.106  10.707
16442W        W87971   8.294  23.540   4.547
16443W        W87972  12.644  17.651   4.596
16444W        W87973  41.935  41.671   4.878
16445W        W87974  27.821   3.735   2.245
16446W        W87975   2.424   5.464  12.000
16447W        W87976  21.119   6.735  12.972
16448W        W87977  23.328  22.507  13.989
16449W        W87978  25.495  14.096   1.513
16450W        W87979   1.551  22.545   4.758
16451W        W87980  12.085  40.056   1.554
16452W        W87981  37.418   6.345  14.992
16453W        W87982   5.750   2.682   1.780
16454W        W87983  40.848  15.539   0.655
16455W        W87984   9.748  34.236  11.138
16456W        W87985  27.141   1.255  11.703
16457W        W87986  12.197  38.308  13.984
16458W        W87987  11.371   2.922   5.105
16459W        W87988   0.501   7.162   1.901
16460W        W87989  43.225  27.125  14.562
16461W        W87990   0.304  23.241   0.226
16462W        W87991   4.057  21.193  12.237
16463W        W87992  11.933  30.183  12.409
16464W        W87993  29.989  39.302   1.920
16465W        W87994  28.693  42.402  12.020
16466W        W87995  25.667  10.681   3.099
16467W        W87996  24.127  33.254  10.535
16468W        W87997   2.547  12.160  13.414
16469W        W87998  19.401   3.764   3.786
16470W        W87999  12.374  34.407   0.658
16471W        W88000  38.511  15.493  12.983
16472W        W88001  37.956  19.869  11.211
16473W        W88002  41.379  18.301  11.156
16474W        W88003   2.980  32.878   3.046
16475W        W88004  17.812  22.229   4.841
16476W        W88005  37.563  32.183   4.651
16477W        W88006  18.612  44.523   2.825
16478W        W88007  26.281   7.264  14.024
16479W        W88008   1.331   3.947  10.974
16480W        W88009  39.121  38.117  12.564
16481W        W88010  32.051   9.085  12.212
16482W        W88011  32.860  14.615   3.821
16483W        W88012  34.209  40.726  14.523
16484W        W88013  21.497  26.337  14.909
16485W        W88014  20.816  31.502  13.413
16486W        W88015  21.517  14.775   3.549
16487W        W88016   3.203   3.697   0.373
16488W        W88017   0.362  33.442  11.851
16489W        W88018  26.423  12.680  12.915
16490W        W88019  19.676  35.784  12.497
16491W        W88020  26.173  27.918   4.707
16492W        W88021  42.030  23.920   1.841
16493W        W88022  33.068   9.696   0.447
16494W        W88023  41.765  30.381   5.085
16495W        W88024   4.275  41.015   3.579
16496W        W88025  37.320   8.471  11.488
16497W        W88026   6.908  12.688   4.063
16498W        W88027   5.261   0.160   0.018
16499W        W88028  40.725  18.186   3.740
16500W        W88029   5.730  17.203  13.390
16501W        W88030  23.372  38.031  14.290
16502W        W88031  43.530  22.595  13.847
16503W        W88032   2.787  24.580  11.076
16504W        W88033  19.766  26.283   4.788
16505W        W88034   5.255  32.240   0.271
16506W        W88035  12.004  18.597  14.359
16507W        W88036  33.027  19.272  10.683
16508W        W88037  37.263  27.065   0.325
16509W        W88038   1.384  24.656  14.031
16510W        W88039  32.840  41.957   2.312
16511W        W88040   3.924   5.749  13.100
16512W        W88041  26.798  19.525   5.041
16513W        W88042   0.949  35.188  13.575
16514W        W88043  31.879   6.389   1.141
16515W        W88044  44.774  13.102   1.841
16516W        W88045  40.566   9.927   2.294
16517W        W88046   7.798  17.648   0.298
16518W        W88047  16.743  27.197  12.598
16519W        W88048   0.315  20.631   1.244
16520W        W88049  19.334   4.761   3.704
16521W        W88050  22.770  28.895  14.027
16522W        W88051  18.109  10.003  10.739
16523W        W88052  24.746   5.106  13.871
16524W        W88053  17.162  32.891   1.370
16525W        W88054  29.885  12.253   0.274
16526W        W88055  14.699  15.400   2.265
16527W        W88056  31.112  31.387  10.971
16528W        W88057  40.297  21.709  10.715
16529W        W88058   8.802  31.613   1.265
16530W        W88059   2.870  29.249  11.941
16531W        W88060   3.125  21.489   2.298
16532W        W88061  19.034  19.544   2.180
16533W        W88062  36.642  39.907  11.526
16534W        W88063  40.479  24.144  13.416
16535W        W88064  44.425  30.482  14.054
16536W        W88065   4.843   5.753   2.636
16537W        W88066  39.605  39.824   0.636
16538W        W88067  26.569   9.687  10.376
16539W        W88068  35.468  44.323  14.941
16540W        W88069   4.838  29.103   3.407
16541W        W88070  26.416  40.360   2.753
16542W        W88071  44.386  29.357  13.127
16543W        W88072  16.160  35.584   0.017
16544W        W88073  27.206  13.929   4.170
16545W        W88074  27.525  15.158  13.682
16546W        W88075  12.231  26.318   3.702
16547W        W88076  44.036  24.089   1.736
16548W        W88077  20.323  18.849  11.720
16549W        W88078  16.040  37.144   0.122
16550W        W88079  17.681  44.946   0.432
16551W        W88080  33.319  41.396  11.529
16552W        W88081  12.269   3.410  11.664
16553W        W88082  37.853  28.726  10.845
16554W        W88083   8.759   8.927  11.569
16555W        W88084  29.785  20.822  14.015
16556W        W88085   1.903  14.394   4.765
16557W        W88086   7.630  21.529  10.438
16558W        W88087  22.905  42.394  12.058
16559W        W88088  17.857  15.231   0.836
16560W        W88089  16.492  11.257  14.942
16561W        W88090  19.552  13.705   4.688
16562W        W88091  39.813  19.208   3.864
16563W        W88092  18.694  25.463   4.374
16564W        W88093  10.221  35.871   2.085
16565W        W88094   6.251  29.795   4.569
16566W        W88095   6.736   4.293   0.945
16567W        W88096  27.146  21.053   3.400
16568W        W88097  22.745  22.324  12.180
16569W        W88098   6.338   7.717  11.220
16570W        W88099   9.562   5.847   4.595
16571W        W88100  37.319  22.245  11.097
16572W        W88101   0.713  38.041  13.018
16573W        W88102   0.465  25.610   1.049
16574W        W88103   3.756  22.215  13.928
16575W        W88104  22.596  32.672  12.077
16576W        W88105  36.525  36.077  12.669
16577W        W88106  40.051  23.559  14.486
16578W        W88107  34.272  28.674   3.608
16579W        W88108  29.737  26.170   0.748
16580W        W88109  40.472  27.864  10.611
16581W        W88110  11.375  31.073   2.783
16582W        W88111   3.741  14.579   4.456
16583W        W88112  36.388  31.185   3.199
16584W        W88113  10.948  18.291  12.177
16585W        W88114   7.774  16.862  13.469
16586W        W88115  44.666   8.688   2.785
16587W        W88116   6.764  44.539   4.887
16588W        W88117  30.068   5.302   1.424
16589W        W88118   5.103  26.614  13.318
16590W        W88119  18.172  23.572   4.587
16591W        W88120  44.269  11.585  14.950
16592W        W88121  42.001  28.514   3.465
16593W        W88122  41.610  18.980   0.493
16594W        W88123   8.326   9.831  10.966
16595W        W88124  28.612  32.614   1.056
16596W        W88125  40.882  44.024   1.899
16597W        W88126  10.310  28.953   1.489
16598W        W88127  22.650   7.427  12.553
16599W        W88128  21.067   9.520   2.147
16600W        W88129  34.313  25.683   3.230
16601W        W88130  10.337  19.649   1.918
16602W        W88131  22.639  13.963  12.878
16603W        W88132   6.873  16.187   3.167
16604W        W88133  35.472  37.297  11.197
16605W        W88134  14.654  33.801   1.388
16606W        W88135  16.809  10.213  12.628
16607W        W88136   7.240  12.899  13.990
16608W        W88137  39.222  10.760  11.678
16609W        W88138   7.769   9.931   2.369
16610W        W88139  19.391  37.289   2.920
16611W        W88140  17.693  26.468   4.561
16612W        W88141  36.330  11.100   3.131
16613W        W88142  30.823  33.813   3.121
16614W        W88143  27.461  11.620  13.619
16615W        W88144  40.442  35.011   4.050
16616W        W88145  18.173  29.826  12.105
16617W        W88146  24.913   7.173  11.105
16618W        W88147  25.643   3.303   2.380
16619W        W88148  41.334  20.017  11.141
16620W        W88149  32.319  22.052   2.668
16621W        W88150   3.463  40.426   2.346
16622W        W88151   0.038  25.685   0.746
16623W        W88152   5.908  33.418  11.146
16624W        W88153  41.400  41.671  13.110
16625W        W88154  32.397  44.804  14.896
16626W        W88155  18.140   5.281   0.921
16627W        W88156   2.063  32.857  11.692
16628W        W88157   5.427  39.246  12.893
16629W        W88158  35.021   1.915  11.153
16630W        W88159  44.260  21.575  14.834
16631W        W88160  31.621  33.384   0.039
16632W        W88161  33.627  27.093   2.801
16633W        W88162   5.877  26.765   0.174
16634W        W88163   4.895   4.462  13.963
16635W        W88164  28.771  31.643  13.726
16636W        W88165  44.414  28.026   2.942
16637W        W88166  24.720  40.927   1.212
16638W        W88167  10.205   2.952   2.385
16639W        W88168   2.744   3.423   0.427
16640W        W88169  41.056  39.921   4.498
16641W        W88170   3.700  44.692   4.013
16642W        W88171  44.009  33.848  12.676
16643W        W88172  31.388   6.362  12.107
16644W        W88173  16.687   0.163  12.480
16645W        W88174  39.771  35.409   0.975
16646W        W88175  34.908  41.386  11.569
16647W        W88176  15.283   0.818   3.263
16648W        W88177  42.992  43.169  14.942
16649W        W88178  39.878  39.140   3.174
16650W        W88179  15.935   9.510   4.134
16651W        W88180  34.014  44.400   9.933
16652W        W88181  34.290   2.231  13.502
16653W        W88182  35.471   2.422   3.646
16654W        W88183  20.172  26.746   2.193
16655W        W88184  33.110  34.057  11.610
16656W        W88185   6.053  25.880   0.863
16657W        W88186  34.204   1.417   4.741
16658W        W88187   0.433  14.327   2.962
16659W        W88188  32.431  19.255   1.005
16660W        W88189  17.018   4.252   2.805
16661W        W88190  25.680  21.563   1.147
16662W        W88191   6.254   3.777  12.573
16663W        W88192  29.663  27.491   3.645
16664W        W88193  13.558  32.331  12.394
16665W        W88194  13.080  21.090   3.360
16666W        W88195  31.156  22.605   1.329
16667W        W88196  25.440  39.285   3.208
16668W        W88197  19.859   2.513   0.502
16669W        W88198   3.772  29.590  11.135
16670W        W88199  39.379  43.188   3.608
16671W        W88200  42.046   6.760   2.709
16672W        W88201  38.011  41.894  11.589
16673W        W88202  23.986  37.957   3.918
16674W        W88203  23.580  42.016  12.095
16675W        W88204   4.678   4.929  13.927
16676W        W88205  30.315  20.678   3.392
16677W        W88206   6.790   5.819  12.162
16678W        W88207  31.073  19.091  11.482
16679W        W88208  42.855  11.176   1.822
16680W        W88209   7.231  21.219  10.336
16681W        W88210  33.157   5.849   3.290
16682W        W88211   6.427  23.868  10.747
16683W        W88212  14.789  10.949  12.449
16684W        W88213   5.440  30.462  13.067
16685W        W88214  32.171  27.388   2.712
16686W        W88215  42.021  33.407   1.483
16687W        W88216   2.552   6.957   1.633
16688W        W88217   4.618  44.496  13.103
16689W        W88218  28.247  14.861  14.560
16690W        W88219  17.352  35.929   0.953
16691W        W88220   7.313  41.345   3.492
16692W        W88221  26.804  43.222   1.331
16693W        W88222  15.291   4.444   1.433
16694W        W88223  24.351  14.274   4.189
16695W        W88224  36.602   1.272   3.732
16696W        W88225  24.237  33.274   4.120
16697W        W88226  15.209   4.364   0.062
16698W        W88227  22.244   5.411   2.835
16699W        W88228  44.841  30.563  13.732
16700W        W88229   2.179  29.978   1.757
16701W        W88230  39.000  36.029   4.721
16702W        W88231  31.919  12.465   0.835
16703W        W88232  20.015  10.525   1.872
16704W        W88233  16.465  28.186   4.105
16705W        W88234  39.208  11.707  11.265
16706W        W88235   0.649  34.419  10.897
16707W        W88236  35.362  36.251  13.114
16708W        W88237  23.188  20.926  13.732
16709W        W88238   3.292  33.731  14.332
16710W        W88239  33.201   8.435   0.735
16711W        W88240  23.726  33.825   2.728
16712W        W88241  12.658  32.537  13.337
16713W        W88242   1.479  26.304   2.402
16714W        W88243  28.664  38.994  12.814
16715W        W88244  18.055  29.617  11.127
16716W        W88245  13.109  18.371   1.456
16717W        W88246  14.659   0.567  14.046
16718W        W88247  20.279  21.690   2.195
16719W        W88248  32.137  10.212  13.726
16720W        W88249  41.022  42.407   4.403
16721W        W88250  13.205  14.563   4.579
16722W        W88251  18.694  32.258  13.981
16723W        W88252  25.173  35.664   2.318
16724W        W88253  16.798   5.377  12.457
16725W        W88254  40.525  43.615   2.628
16726W        W88255  12.112  14.657   3.653
16727W        W88256  34.030  41.785  13.765
16728W        W88257  10.521  24.782  11.204
16729W        W88258  40.534   3.873   2.747
16730W        W88259  28.496  13.356   5.014
16731W        W88260  34.831  18.953  14.014
16732W        W88261  28.268   0.233   1.404
16733W        W88262  19.746  37.357  12.508
16734W        W88263  19.898   8.904   4.698
16735W        W88264  29.998   0.447   1.101
16736W        W88265  20.763  38.066   0.884
16737W        W88266  21.515  35.646   3.144
16738W        W88267  40.000  41.365   0.331
16739W        W88268  18.773  31.263   1.326
16740W        W88269  31.692   0.478  10.670
16741W        W88270  42.231  32.887   1.699
16742W        W88271  10.678  35.908   0.750
16743W        W88272  33.465  43.498  11.189
16744W        W88273  24.689  15.020   1.088
16745W        W88274  16.992   4.394   3.675
16746W        W88275   5.420  22.608   0.427
16747W        W88276  21.754  17.826  14.965
16748W        W88277  43.509  43.497   4.133
16749W        W88278  10.105  19.286  10.278
16750W        W88279  24.544  18.913  13.392
16751W        W88280  24.780  39.952  14.066
16752W        W88281  36.594  42.650   2.580
16753W        W88282  12.662  10.404   2.878
16754W        W88283  24.559  11.189   2.464
16755W        W88284   7.348  41.476  14.890
16756W        W88285  30.657   7.054  11.037
16757W        W88286  26.506  36.463  11.573
16758W        W88287   3.408  20.193   2.956
16759W        W88288  38.213  26.084   2.900
16760W        W88289  31.910  23.986  11.682
16761W        W88290  18.004  21.931   0.376
16762W        W88291  26.742   2.389   2.264
16763W        W88292  10.297   5.621   1.492
16764W        W88293   0.397  13.221  13.876
16765W        W88294   0.464  38.559   3.641
16766W        W88295  27.517  14.206  12.066
16767W        W88296  32.675  35.955   4.169
16768W        W88297  21.447  23.484  13.882
16769W        W88298   3.285   5.681   1.748
16770W        W88299  31.375  35.026   3.592
16771W        W88300  33.976  44.213  13.380
16772W        W88301  38.770  27.583  14.822
16773W        W88302   3.929  30.856   4.545
16774W        W88303  25.026  44.819   3.143
16775W        W88304  20.085  23.199   1.600
16776W        W88305  34.971   3.069   2.671
16777W        W88306  31.895  32.995  10.008
16778W        W88307  23.222  24.442  11.095
16779W        W88308   2.585  32.919  11.115
16780W        W88309  15.585  32.056  14.313
16781W        W88310  30.643  11.430   2.288
16782W        W88311  37.055   4.352   1.002
16783W        W88312  27.501  19.351   1.032
16784W        W88313  33.505  16.271  14.780
16785W        W88314  26.062  29.542   4.643
16786W        W88315  36.877  41.362   1.189
16787W        W88316  30.624   0.062   2.258
16788W        W88317  20.323   7.914   3.294
16789W        W88318  41.836  36.024  14.442
16790W        W88319  10.431  30.398   2.316
16791W        W88320   2.500  37.282   5.034
16792W        W88321  37.495  12.349  12.234
16793W        W88322   0.790  18.126   3.202
16794W        W88323  17.183  16.333  10.703
16795W        W88324   6.165   7.224  11.206
16796W        W88325  33.154  43.852  14.404
16797W        W88326  39.644  32.304   5.077
16798W        W88327   6.929  21.842  13.876
16799W        W88328  33.648  25.899  11.476
16800W        W88329   6.910  11.394  10.669
16801W        W88330  14.402  10.245   3.533
16802W        W88331  24.368  18.519  11.277
16803W        W88332  19.124  30.772   4.547
16804W        W88333  28.251  30.826   2.857
16805W        W88334  44.309   9.768  13.848
16806W        W88335   0.485  32.317  10.230
16807W        W88336  42.205   6.809   0.275
16808W        W88337   2.754  35.964   2.145
16809W        W88338  29.992  13.135  12.942
16810W        W88339  36.298  41.870  13.119
16811W        W88340  27.715   1.287  11.061
16812W        W88341   4.535   8.757  11.177
16813W        W88342  13.100  23.944   1.888
16814W        W88343  14.135   7.014   2.083
16815W        W88344   5.740   1.739   2.191
16816W        W88345  21.929   5.879  10.604
16817W        W88346  33.658   6.745  10.247
16818W        W88347  36.881   1.715   2.123
16819W        W88348  31.926  44.268  13.869
16820W        W88349  27.536  44.737  12.605
16821W        W88350  34.071  26.508   1.000
16822W        W88351  12.336  19.480   1.425
16823W        W88352  13.132  34.489  13.903
16824W        W88353  41.939  40.260   3.714
16825W        W88354   7.450   1.785  14.545
16826W        W88355  32.361  16.202   0.397
16827W        W88356  40.015  21.916  14.901
16828W        W88357   8.206  11.373  13.086
16829W        W88358   9.620  12.386   3.678
16830W        W88359  43.756  14.846   1.692
16831W        W88360  20.031  43.029   1.332
16832W        W88361  30.854  20.923  14.476
16833W        W88362  31.651  11.594   2.298
16834W        W88363   7.288  16.019  11.654
16835W        W88364  12.205  10.128  11.932
16836W        W88365  13.068  40.472  10.714
16837W        W88366  16.855  39.592   2.610
16838W        W88367   0.303  33.917   2.594
16839W        W88368   8.494  32.975   1.015
16840W        W88369  36.029  36.980  10.671
16841W        W88370  31.818  35.478   2.355
16842W        W88371   2.593   7.304  12.122
16843W        W88372  20.188   1.820  12.961
16844W        W88373  18.104   0.327   3.694
16845W        W88374   6.753   0.307   4.115
16846W        W88375  15.228  40.325   3.662
16847W        W88376  10.410   7.213  11.503
16848W        W88377  11.898  25.654   2.343
16849W        W88378  35.361  35.374   4.725
16850W        W88379   9.456  12.316  11.912
16851W        W88380   7.469   2.471  14.873
16852W        W88381  29.984   4.608   1.186
16853W        W88382   6.418  33.578  10.520
16854W        W88383  33.751  26.188  14.724
16855W        W88384  38.231   7.901  12.023
16856W        W88385  27.547  43.292   1.796
16857W        W88386  22.926   3.618  11.655
16858W        W88387   9.406  13.457   0.309
16859W        W88388   1.400  20.000  11.215
16860W        W88389  39.268  33.948  12.409
16861W        W88390  34.524  31.097  13.199
16862W        W88391  14.295  16.156   2.954
16863W        W88392  37.647   6.164  14.502
16864W        W88393   3.299  17.160   2.971
16865W        W88394  35.385  36.337  14.905
16866W        W88395  13.715  33.090   4.608
16867W        W88396  26.395  14.420  11.667
16868W        W88397  19.785  21.039  14.319
16869W        W88398  25.822   6.623   0.384
16870W        W88399  16.091  33.419  11.959
16871W        W88400   6.217  13.093   0.463
16872W        W88401  16.617  16.049   3.279
16873W        W88402  10.384  41.378  12.206
16874W        W88403  23.548  14.290  10.674
16875W        W88404  29.715  27.555   2.895
16876W        W88405  23.405  19.714  13.091
16877W        W88406  30.922   1.893  11.233
16878W        W88407  28.702  40.961  14.988
16879W        W88408  36.520  18.479  13.072
16880W        W88409  22.263  38.611   2.685
16881W        W88410  27.427  16.136  13.979
16882W        W88411  39.959  36.767   4.515
16883W        W88412  30.290  11.178   2.667
16884W        W88413  18.302  39.487   4.281
16885W        W88414  14.117   4.207  12.226
16886W        W88415  25.447   0.893   3.748
16887W        W88416  15.227  42.806   1.875
16888W        W88417   9.137  36.483  11.149
16889W        W88418  14.417   1.033  14.895
16890W        W88419  10.171  11.894   0.337
16891W        W88420  16.075  32.934   4.127
16892W        W88421  29.351   5.831  14.152
16893W        W88422  35.662  10.730  12.884
16894W        W88423  30.927  14.135  12.802
16895W        W88424  14.027  21.833  14.315
16896W        W88425  27.071   0.043   4.742
16897W        W88426   9.635  32.648   0.419
16898W        W88427  41.818  10.845   0.409
16899W        W88428   4.200  41.802   4.545
16900W        W88429  11.346  31.591   0.644
16901W        W88430  15.342  10.521  10.312
16902W        W88431  34.500  11.006   4.296
16903W        W88432   0.012  19.765   2.757
16904W        W88433  15.211   3.671   1.218
16905W        W88434  26.067  26.219  12.598
16906W        W88435  24.280  26.201   1.852
16907W        W88436  29.185  38.311  13.831
16908W        W88437  42.656  15.122   3.479
16909W        W88438  35.224  42.827  12.433
16910W        W88439  41.462  31.924   4.215
16911W        W88440   7.596  26.577  14.964
16912W        W88441  40.278  18.779   1.309
16913W        W88442  44.825   3.641  14.924
16914W        W88443  37.303   2.794   1.401
16915W        W88444  18.074  28.875  12.982
16916W        W88445  31.514  21.624  12.467
16917W        W88446  30.643  34.561   0.782
16918W        W88447  16.755   2.069   3.740
16919W        W88448  34.353  16.183  14.130
16920W        W88449  10.853   2.200   1.382
16921W        W88450  10.891   7.425  11.641
16922W        W88451   2.175   9.258   1.759
16923W        W88452  27.206  34.507   0.054
16924W        W88453  22.504  24.216   4.823
16925W        W88454  30.112  37.930   3.173
16926W        W88455  25.251  43.994   4.607
16927W        W88456  38.558  39.971  13.563
16928W        W88457  22.410  31.980  14.786
16929W        W88458  17.233  44.381   4.622
16930W        W88459  36.344  13.712  13.883
16931W        W88460  20.862   6.965  12.047
16932W        W88461  10.596  17.770  14.915
16933W        W88462  17.626  18.980  11.067
16934W        W88463  20.340  31.579   0.258
16935W        W88464  17.165  20.073  14.916
16936W        W88465  10.733   8.884  12.424
16937W        W88466  18.279  26.608  10.579
16938W        W88467  27.713  18.133   4.139
16939W        W88468  38.990  18.285   0.704
16940W        W88469  25.694  28.640   1.914
16941W        W88470  40.901  17.405  13.323
16942W        W88471  27.068   0.574  11.137
16943W        W88472   7.634  21.167   0.896
16944W        W88473  26.126   1.824  14.328
16945W        W88474  40.653   5.619  12.923
16946W        W88475   6.517  42.528   1.731
16947W        W88476   6.825   7.099  12.525
16948W        W88477  41.318   2.542  10.784
16949W        W88478   8.230  16.208   4.398
16950W        W88479   5.273   5.682   0.358
16951W        W88480  29.567   5.672   2.681
16952W        W88481  40.329  32.135   1.136
16953W        W88482  33.923   0.318  12.419
16954W        W88483  34.610  10.879  10.704
16955W        W88484  38.973  22.236   1.292
16956W        W88485  25.049   8.382   1.826
16957W        W88486  37.143  32.837  14.559
16958W        W88487  41.279  41.022   3.282
16959W        W88488  37.037  44.764  14.401
16960W        W88489   2.246   9.793  10.713
16961W        W88490  22.629  22.873  10.230
16962W        W88491  10.578  32.787  13.823
16963W        W88492   3.656   7.272  12.416
16964W        W88493  25.390  10.319  11.135
16965W        W88494  11.722   9.734  10.783
16966W        W88495  15.126  34.488   0.452
16967W        W88496  23.674  27.554   3.706
16968W        W88497  32.823  11.672   2.881
16969W        W88498   4.713  14.250  11.032
16970W        W88499  19.767  26.356  10.847
16971W        W88500   2.384   2.926   0.943
16972W        W88501   4.682  37.038   0.216
16973W        W88502  28.649  17.084  11.044
16974W        W88503   0.279  23.612  13.052
16975W        W88504  12.411  35.548   2.170
16976W        W88505  11.604  42.493  11.689
16977W        W88506  13.180  28.671  12.382
16978W        W88507   3.407  18.312  10.905
16979W        W88508   2.432   5.339   0.541
16980W        W88509  16.398   3.420   0.315
16981W        W88510   0.902   5.007   1.012
16982W        W88511  28.969  18.608   3.485
16983W        W88512  27.560  44.762  13.542
16984W        W88513  26.202   9.202  14.323
16985W        W88514  40.930  43.763   1.364
16986W        W88515  21.169  28.711  11.625
16987W        W88516  19.251  17.031   1.739
16988W        W88517  22.715  29.983  13.963
16989W        W88518  25.708   1.901  13.521
16990W        W88519  26.908  29.142  11.449
16991W        W88520  37.524  27.120  11.584
16992W        W88521   8.295  42.128  12.378
16993W        W88522  30.274  37.473   2.274
16994W        W88523   0.822  40.559  14.927
16995W        W88524  41.859   2.533  10.767
16996W        W88525  18.451  14.256   3.282
16997W        W88526  29.086  39.434   1.888
16998W        W88527  17.942  15.620   0.162
16999W        W88528   6.232  17.788  12.473
17000W        W88529  38.279   1.998  13.365
17001W        W88530  25.050  34.383  11.673
17002W        W88531  32.075   0.976   3.341
17003W        W88532   2.539  24.590  13.350
17004W        W88533  25.362  39.002  11.084
17005W        W88534  41.220  21.122  14.430
17006W        W88535  39.595  24.585  13.459
17007W        W88536  41.025  30.571  11.794
17008W        W88537  13.403  14.693  12.474
17009W        W88538   9.363  35.989   2.195
17010W        W88539  17.723  40.970  12.294
17011W        W88540  20.195  43.863  14.071
17012W        W88541  13.316  35.572   0.471
17013W        W88542   1.862  28.292   0.076
17014W        W88543  20.170  21.607   4.476
17015W        W88544   3.463   9.657  14.582
17016W        W88545  38.912   7.703   4.380
17017W        W88546  34.396  44.936  10.644
17018W        W88547  14.690  20.252   1.268
17019W        W88548   3.419  39.425  10.706
17020W        W88549   3.100   5.488  10.445
17021W        W88550  32.670  30.051   0.541
17022W        W88551  39.004  19.109   0.321
17023W        W88552  10.202  36.920  13.024
17024W        W88553  13.218  19.112  11.745
17025W        W88554   4.266  24.279  12.567
17026W        W88555  31.643  33.341   4.587
17027W        W88556  31.375  44.433  11.112
17028W        W88557   7.956  37.988   1.589
17029W        W88558  35.319  33.936  10.696
17030W        W88559  28.962  31.794   4.890
17031W        W88560  14.799  15.549   3.281
17032W        W88561   7.133  16.197   2.654
17033W        W88562  33.213  39.011  11.059
17034W        W88563  20.837   1.506   4.273
17035W        W88564  33.125  28.245   3.839
17036W        W88565  35.718  42.903  12.456
17037W        W88566  36.916   9.395   4.112
17038W        W88567  28.939  42.451   0.387
17039W        W88568  36.965  21.497   0.667
17040W        W88569  12.027  34.481  11.051
17041W        W88570   0.827  19.588   1.560
17042W        W88571  10.188  28.675   2.765
17043W        W88572  16.098  20.905   3.572
17044W        W88573  26.678  33.403   3.314
17045W        W88574  37.349  18.987   1.657
17046W        W88575  40.599   7.259  12.875
17047W        W88576  15.081  22.718  14.384
17048W        W88577  37.019  28.162  13.389
17049W        W88578   7.261  27.225   2.256
17050W        W88579   5.471   0.214  12.777
17051W        W88580  28.143   9.394   1.915
17052W        W88581  37.878  26.317  13.773
17053W        W88582  38.386  36.466   1.625
17054W        W88583  11.762  43.230  10.697
17055W        W88584  39.578  18.716  12.074
17056W        W88585  36.960  35.921  12.930
17057W        W88586  11.747   3.140   3.084
17058W        W88587  41.761  20.706  14.009
17059W        W88588  33.827   0.372   2.589
17060W        W88589   4.697  18.843   3.705
17061W        W88590  12.093  33.825   2.761
17062W        W88591  17.206   8.883  12.314
17063W        W88592  43.533   5.716  12.120
17064W        W88593  25.895  19.818  12.533
17065W        W88594  33.365  28.869  11.279
17066W        W88595  38.537  37.986   3.798
17067W        W88596  42.087  29.140   3.721
17068W        W88597  41.976   7.817  11.548
17069W        W88598  21.239  22.160   3.581
17070W        W88599  26.885   2.981   1.810
17071W        W88600  27.431  43.838  10.591
17072W        W88601  35.229  37.040  14.234
17073W        W88602  40.872  38.303   1.834
17074W        W88603  12.568  22.777  14.787
17075W        W88604  39.770  11.354   4.554
17076W        W88605  37.972  43.452   3.537
17077W        W88606   4.493  43.198  10.577
17078W        W88607  18.034   9.800  13.120
17079W        W88608   2.748   3.670  11.190
17080W        W88609  32.371  34.155   1.794
17081W        W88610   0.451  29.294  10.632
17082W        W88611  38.275  29.563   3.733
17083W        W88612   1.467  27.454  12.169
17084W        W88613  44.337  42.410   5.164
17085W        W88614  18.754  39.711  12.879
17086W        W88615  35.141  38.321  13.373
17087W        W88616   2.101  19.276   2.366
17088W        W88617  44.124  36.168   5.155
17089W        W88618   9.821   3.752  11.948
17090W        W88619   7.844   1.072  14.074
17091W        W88620  22.667  21.386  12.957
17092W        W88621  19.954  23.420   0.315
17093W        W88622  39.461  19.409  12.514
17094W        W88623  34.403  21.492  10.636
17095W        W88624  24.433  23.149  11.083
17096W        W88625  41.402  41.466  11.076
17097W        W88626  21.622  37.394  11.152
17098W        W88627   7.340  14.133  13.367
17099W        W88628  39.259   5.614  13.093
17100W        W88629  16.600   7.730   3.229
17101W        W88630  23.092  44.841   2.358
17102W        W88631   1.553  10.240   4.041
17103W        W88632  35.887  16.035   4.348
17104W        W88633   1.292  21.304   0.879
17105W        W88634  38.940  39.403   1.461
17106W        W88635  13.796  21.152  11.407
17107W        W88636  31.450   5.367   1.797
17108W        W88637  21.604  40.881   0.684
17109W        W88638  34.236  29.005   3.161
17110W        W88639   7.964  22.652  14.759
17111W        W88640  11.152  18.229  11.713
17112W        W88641  12.871  31.791  10.309
17113W        W88642   8.369  29.620  14.487
17114W        W88643  42.049  30.368  10.755
17115W        W88644  32.612  41.683  12.151
17116W        W88645  20.198  10.817  13.808
17117W        W88646  33.694  25.001  11.520
17118W        W88647   7.774  12.443   3.210
17119W        W88648  44.368  35.781   4.125
17120W        W88649  26.245  32.720  13.550
17121W        W88650  10.650  24.040   1.435
17122W        W88651  23.153  16.051   2.140
17123W        W88652  29.538  26.880  14.817
17124W        W88653   1.872  30.210   2.134
17125W        W88654  40.568  37.859   4.389
17126W        W88655  32.276  40.275   4.535
17127W        W88656  32.125  39.967  14.200
17128W        W88657  28.120  42.970   0.879
17129W        W88658   6.940  30.909  13.847
17130W        W88659  34.644  10.236   0.294
17131W        W88660   8.721   1.560   0.381
17132W        W88661   7.597  20.186   3.182
17133W        W88662  41.994  41.134   0.529
17134W        W88663  42.687   6.011  13.772
17135W        W88664  28.608  32.138   0.849
17136W        W88665  26.010  22.000  12.619
17137W        W88666  23.136  20.590  12.787
17138W        W88667  41.952  42.549   0.676
17139W        W88668  43.585   6.169   2.234
17140W        W88669  39.788  17.294   1.773
17141W        W88670  31.899  38.614   1.844
17142W        W88671  41.664  12.372  13.760
17143W        W88672  18.418  43.880  12.822
17144W        W88673   9.750  27.184  12.648
17145W        W88674  24.533  21.823  12.821
17146W        W88675  24.989  44.020  11.996
17147W        W88676  38.247   8.927   0.171
17148W        W88677   6.804  43.367  11.560
17149W        W88678   7.505  34.498  14.770
17150W        W88679  10.187  10.315   1.372
17151W        W88680  26.430  29.966  14.985
17152W        W88681  44.569  13.272   3.603
17153W        W88682   0.884  16.337   4.618
17154W        W88683   8.207  16.427   0.234
17155W        W88684  42.117  39.571  12.929
17156W        W88685  36.784  34.424   2.222
17157W        W88686  16.245  40.720  12.859
17158W        W88687   7.358  21.096  13.494
17159W        W88688  41.611  11.821  14.864
17160W        W88689  29.556  15.376  11.965
17161W        W88690  11.329  35.978   4.946
17162W        W88691  40.675  25.971  14.930
17163W        W88692  25.729  15.580  11.323
17164W        W88693  36.517  43.849   4.461
17165W        W88694  26.919  14.203   2.791
17166W        W88695  19.662   8.219   4.563
17167W        W88696   5.251  14.503   4.216
17168W        W88697  24.065  41.469   1.819
17169W        W88698  35.267  11.532  14.237
17170W        W88699  19.535   7.320   2.235
17171W        W88700  13.910  28.031   4.620
17172W        W88701   8.314  40.896  14.788
17173W        W88702  41.268  12.511   4.240
17174W        W88703  36.320   7.992   0.206
17175W        W88704  30.660  16.528   3.235
17176W        W88705   8.880   7.432  14.581
17177W        W88706  10.582  27.205   3.212
17178W        W88707  33.763  10.664   0.275
17179W        W88708   4.379  33.429  13.429
17180W        W88709  34.492  17.587   4.242
17181W        W88710  39.278   3.939   2.943
17182W        W88711   3.704  28.853  12.981
17183W        W88712  29.903  37.982   0.733
17184W        W88713  25.643   8.813   3.814
17185W        W88714  15.114  29.391  14.897
17186W        W88715   2.374  36.626   9.991
17187W        W88716  26.196   0.540  10.673
17188W        W88717  30.892  36.512   0.063
17189W        W88718  10.848  14.742  13.166
17190W        W88719  36.388  22.468   3.855
17191W        W88720  40.556   4.674  14.848
17192W        W88721  42.967  30.212   3.606
17193W        W88722  39.208  30.329  13.971
17194W        W88723  23.339   6.560  14.877
17195W        W88724   2.319  29.864  10.646
17196W        W88725  12.419   6.352   3.563
17197W        W88726  32.596  30.219  10.741
17198W        W88727   5.398   8.514  11.080
17199W        W88728  37.059  20.847   3.106
17200W        W88729  37.980  41.365  12.169
17201W        W88730  13.122  16.205  11.497
17202W        W88731  21.485  33.860   3.089
17203W        W88732  35.499  10.930  14.850
17204W        W88733  34.292  34.784  13.792
17205W        W88734   9.821  39.577   0.358
17206W        W88735  11.532   6.403   0.001
17207W        W88736  33.763   9.871   4.251
17208W        W88737   7.344  23.784   1.263
17209W        W88738  29.974  17.098  11.877
17210W        W88739  26.188  29.009  13.576
17211W        W88740  30.878  40.422   2.231
17212W        W88741  23.074  38.249  14.753
17213W        W88742  44.515  24.507   4.233
17214W        W88743  43.448  25.675   2.403
17215W        W88744  26.514  43.448  12.225
17216W        W88745  12.108  29.829  11.553
17217W        W88746  36.887   0.809  11.638
17218W        W88747  34.972  11.416   3.141
17219W        W88748  19.614   3.630  11.658
17220W        W88749  38.938  17.303   3.333
17221W        W88750  24.919  21.139   1.458
17222W        W88751  12.807  13.755  13.367
17223W        W88752  11.265   9.353   3.171
17224W        W88753  34.021   9.758  12.032
17225W        W88754  19.091   5.306  13.340
17226W        W88755  23.042  18.811  14.875
17227W        W88756  28.191  43.084   1.389
17228W        W88757  17.997  10.863   3.620
17229W        W88758  19.140  38.957  13.053
17230W        W88759  14.009  43.351   2.132
17231W        W88760  38.910  39.728  11.918
17232W        W88761  29.197   9.432  13.966
17233W        W88762  26.279  21.552  11.528
17234W        W88763  23.018  28.542   2.359
17235W        W88764  13.352   0.255  13.571
17236W        W88765  25.003  37.331   4.147
17237W        W88766  27.099  42.176  14.962
17238W        W88767  11.282   5.304   3.816
17239W        W88768  39.495  27.843   4.541
17240W        W88769  16.170  30.337  14.509
17241W        W88770  39.933  21.979   3.441
17242W        W88771   1.319  44.058  10.471
17243W        W88772   1.249  19.484  12.931
17244W        W88773  26.082  23.131  11.701
17245W        W88774   6.820   4.251   0.450
17246W        W88775  18.370  41.352  14.842
17247W        W88776  43.844  28.227   0.814
17248W        W88777  33.488  35.015   4.829
17249W        W88778  16.828  44.387  10.533
17250W        W88779  32.854  39.446  13.657
17251W        W88780  22.170   7.414   1.328
17252W        W88781  18.826   9.132   1.396
17253W        W88782  36.826  39.053  14.888
17254W        W88783  40.596  18.830   2.258
17255W        W88784   4.059  14.169   3.649
17256W        W88785  30.475  22.510  13.484
17257W        W88786  14.246  32.658  13.989
17258W        W88787  15.890   5.876   3.682
17259W        W88788  33.264  27.690  11.466
17260W        W88789  43.770  37.934   1.245
17261W        W88790  26.530  31.763  11.521
17262W        W88791  36.300  35.295   0.728
17263W        W88792   1.393  44.926   3.597
17264W        W88793  15.886  17.173  14.339
17265W        W88794  32.190  38.782   2.219
17266W        W88795  31.872  16.565  11.140
17267W        W88796  29.461   0.506   2.288
17268W        W88797  19.566   5.334  11.934
17269W        W88798  33.523  30.234  13.850
17270W        W88799  12.612  27.123   3.169
17271W        W88800  42.048   7.657   3.729
17272W        W88801  35.452  41.106  14.466
17273W        W88802   7.789   1.918  10.149
17274W        W88803   9.467  26.981  11.321
17275W        W88804  34.585  21.114   0.043
17276W        W88805  28.128  11.230  11.036
17277W        W88806  27.370  24.025  12.445
17278W        W88807  21.666  10.579   2.762
17279W        W88808  27.221  20.655   2.162
17280W        W88809  29.259   1.072   1.821
17281W        W88810  39.976  20.598   3.243
17282W        W88811   7.804  20.315   3.646
17283W        W88812  20.476  37.122   3.652
17284W        W88813  38.649  16.684  12.396
17285W        W88814  38.542  30.672  11.364
17286W        W88815  27.554  10.557  11.475
17287W        W88816  21.003   3.196  14.808
17288W        W88817  40.589   3.920  13.341
17289W        W88818   5.644  15.222  14.854
17290W        W88819  43.918  33.785  13.943
17291W        W88820  15.900  19.757   4.588
17292W        W88821  44.809  24.468   2.184
17293W        W88822  18.015   5.385   0.431
17294W        W88823  36.318  15.651  13.870
17295W        W88824  20.871  22.549   4.272
17296W        W88825   0.989  14.766   1.555
17297W        W88826  35.461  24.598   4.700
17298W        W88827   7.496  25.300   1.328
17299W        W88828  11.381  33.493  12.367
17300W        W88829  40.585  14.141  10.723
17301W        W88830  21.535  33.542  14.543
17302W        W88831  21.774   2.684   1.672
17303W        W88832  20.234  13.660  12.415
17304W        W88833   1.214  23.177  14.838
17305W        W88834  11.687   7.213  14.507
17306W        W88835   0.075  22.970   4.529
17307W        W88836  10.210  12.109  13.068
17308W        W88837  25.377  18.523   1.265
17309W        W88838  42.920  33.857  11.207
17310W        W88839  24.087  30.965  13.944
17311W        W88840   1.986   7.521  12.960
17312W        W88841  43.301  33.992  11.506
17313W        W88842  35.620  25.368  12.268
17314W        W88843   8.050  35.776  14.890
17315W        W88844  10.135  27.413  11.718
17316W        W88845  44.957  40.034   3.120
17317W        W88846  22.244   3.393   1.707
17318W        W88847  41.773  16.368  12.875
17319W        W88848   1.383   4.238  11.942
17320W        W88849  33.900  19.276   2.478
17321W        W88850   8.713  43.584   4.346
17322W        W88851  10.101   1.813   4.210
17323W        W88852   9.702  37.704  12.939
17324W        W88853  20.051   3.493   4.138
17325W        W88854  17.709  38.419   2.519
17326W        W88855   2.188   4.630  11.441
17327W        W88856   4.868   8.420  12.170
17328W        W88857  33.451  27.641   5.010
17329W        W88858   1.685  28.830  12.472
17330W        W88859  41.487  15.493  12.079
17331W        W88860   8.794   1.743  12.855
17332W        W88861  43.989   5.241   1.999
17333W        W88862  11.596  35.394  11.008
17334W        W88863   9.233  20.345  11.019
17335W        W88864   2.370  15.678   0.079
17336W        W88865   1.754   1.839   4.539
17337W        W88866  20.091  14.875   0.830
17338W        W88867  32.106  42.689   4.048
17339W        W88868  10.305  35.119  13.522
17340W        W88869  43.945   5.526  13.622
17341W        W88870  33.948  20.998  14.420
17342W        W88871  32.576  27.106   4.673
17343W        W88872  17.793  27.093  11.568
17344W        W88873  40.499   0.708  11.992
17345W        W88874  20.261  13.590   3.368
17346W        W88875  39.907  29.061  12.815
17347W        W88876  24.181  32.148  13.210
17348W        W88877  42.788   0.530  14.297
17349W        W88878  35.087   5.737   1.061
17350W        W88879  11.279   7.390  12.372
17351W        W88880  42.270   6.370   3.417
17352W        W88881  13.165   2.516  14.431
17353W        W88882  37.493  12.222   4.179
17354W        W88883  30.030  38.597   4.561
17355W        W88884  34.881  33.978   4.295
17356W        W88885  37.435  41.681  14.509
17357W        W88886   5.459  36.942   3.119
17358W        W88887  32.163   8.938   1.724
17359W        W88888  22.626  29.964  11.153
17360W        W88889  12.852  10.288  14.437
17361W        W88890  34.484  24.654  11.087
17362W        W88891  44.346  30.207   1.879
17363W        W88892  23.260  23.608   4.080
17364W        W88893   7.280  13.047   4.138
17365W        W88894   3.700   3.738  14.030
17366W        W88895   0.541  37.108  11.117
17367W        W88896   8.885  18.844  13.968
17368W        W88897  43.470  22.752   1.980
17369W        W88898  25.482  35.088  13.495
17370W        W88899  18.823  29.117   0.878
17371W        W88900  19.879  13.043  14.145
17372W        W88901  24.700  43.937  13.430
17373W        W88902  17.190   9.265  11.332
17374W        W88903  38.431   4.419  14.765
17375W        W88904  18.714  10.887  14.842
17376W        W88905   3.228  27.808  10.122
17377W        W88906   4.860  39.884   3.802
17378W        W88907  27.064  36.093   1.885
17379W        W88908   6.376  43.926  12.985
17380W        W88909  36.414  27.946  14.980
17381W        W88910  33.588  20.248  10.204
17382W        W88911  10.739  32.466   2.771
17383W        W88912  25.002   7.697   4.151
17384W        W88913  32.924  26.274   2.268
17385W        W88914  25.414   5.400  12.383
17386W        W88915  44.364  22.426  12.150
17387W        W88916  31.500  44.046   0.379
17388W        W88917  21.116  16.368   3.199
17389W        W88918  35.310  38.475  13.975
17390W        W88919  15.679  34.858  12.792
17391W        W88920  31.979  28.002  12.835
17392W        W88921  37.773  36.025  13.520
17393W        W88922  20.832  38.336   0.239
17394W        W88923  22.345  37.865   1.778
17395W        W88924  16.634   7.894  14.001
17396W        W88925  20.308  10.520  14.847
17397W        W88926  35.279  23.278  13.916
17398W        W88927  42.914  25.425  11.885
17399W        W88928  42.265   2.898  13.152
17400W        W88929  23.242  37.521   3.604
17401W        W88930   1.420  17.694  11.616
17402W        W88931  29.558  24.641  11.521
17403W        W88932  39.403  25.072  11.697
17404W        W88933   7.659   5.695  11.178
17405W        W88934  10.558  40.225  13.941
17406W        W88935  21.864   2.806  11.723
17407W        W88936  35.908  41.425   2.196
17408W        W88937  19.063  26.754  11.064
17409W        W88938  20.782  40.622   0.454
17410W        W88939  22.223  33.793  14.882
17411W        W88940   3.138  17.418   4.259
17412W        W88941  24.795  15.318   4.770
17413W        W88942   2.732  23.900   0.951
17414W        W88943  10.916  14.794  11.140
17415W        W88944   4.250   6.007  12.448
17416W        W88945  13.778  32.535  14.500
17417W        W88946  14.929   3.702  13.371
17418W        W88947  22.956  43.948  12.830
17419W        W88948  14.307  42.812   4.062
17420W        W88949  23.694   6.158   1.764
17421W        W88950  10.294  15.554  10.861
17422W        W88951   2.832   6.789  14.349
17423W        W88952  22.765  30.370   2.450
17424W        W88953  30.217  12.296   4.591
17425W        W88954   4.293   4.207  14.462
17426W        W88955  37.275   9.788   1.895
17427W        W88956   4.630  27.575   4.672
17428W        W88957  41.956  10.539  10.794
17429W        W88958  32.579  12.714  13.377
17430W        W88959  22.772   1.772  10.944
17431W        W88960  31.576  14.629   4.233
17432W        W88961  10.169  23.713  12.017
17433W        W88962  10.255  37.303   3.627
17434W        W88963   6.048   7.456   1.329
17435W        W88964  20.285   3.425   3.253
17436W        W88965  26.395  23.918  12.446
17437W        W88966  17.571   4.665   1.141
17438W        W88967  44.772  14.357   2.120
17439W        W88968  32.301   8.949  10.686
17440W        W88969  36.402  17.237   1.319
17441W        W88970   2.774  43.833  12.900
17442W        W88971  21.737  24.242  14.878
17443W        W88972  37.646  28.602  12.474
17444W        W88973  29.072   4.008  13.339
17445W        W88974   9.642   7.384  14.059
17446W        W88975  35.622  39.137   3.701
17447W        W88976  32.599  18.928   2.379
17448W        W88977  12.457  18.976   4.241
17449W        W88978  27.659  11.889   1.842
17450W        W88979  30.785   1.745  12.169
17451W        W88980  37.428   0.659  11.160
17452W        W88981   5.157  32.913  10.592
17453W        W88982  44.178   0.905   3.637
17454W        W88983  38.654  35.032   1.196
17455W        W88984  44.873  36.302  11.161
17456W        W88985  31.690  29.927  10.667
17457W        W88986   6.278   5.843   0.007
17458W        W88987  20.107  29.684   0.196
17459W        W88988  34.849  28.840  13.782
17460W        W88989   0.717  18.792   0.813
17461W        W88990  24.732  11.351  10.912
17462W        W88991  10.071  33.932  10.248
17463W        W88992  22.630  27.896   4.375
17464W        W88993  24.429  10.350   2.910
17465W        W88994   4.734  16.876   0.450
17466W        W88995  18.505  39.429   0.846
17467W        W88996  32.117   8.789   3.756
17468W        W88997  42.260  29.983  14.447
17469W        W88998  31.318  42.862   1.349
17470W        W88999  18.180   3.430  11.576
17471W        W89000  38.395  20.310  10.401
17472W        W89001  37.053  40.978  11.947
17473W        W89002   5.284  33.718   2.007
17474W        W89003  16.845  39.400   3.091
17475W        W89004  21.969   7.253   3.653
17476W        W89005  16.147  22.749   5.077
17477W        W89006  39.015   3.419  11.328
17478W        W89007   4.814  18.088   0.908
17479W        W89008  39.398   7.666   2.372
17480W        W89009  17.306  42.517  12.448
17481W        W89010   6.373  13.801   2.358
17482W        W89011  15.539  11.129  12.064
17483W        W89012  14.113  26.137  11.437
17484W        W89013   6.779  21.135  10.130
17485W        W89014  13.245  43.733  13.842
17486W        W89015   4.868  23.922   4.207
17487W        W89016   7.204   0.568  14.784
17488W        W89017   2.220  43.238  12.505
17489W        W89018  12.712   9.452  14.976
17490W        W89019   8.925   9.379  14.479
17491W        W89020  33.248  43.339  14.532
17492W        W89021  38.043  12.343  14.433
17493W        W89022  23.343   8.858  14.265
17494W        W89023  14.706  18.277  11.651
17495W        W89024  42.216   2.462  13.476
17496W        W89025  15.088  37.936  14.330
17497W        W89026  37.309  21.658  10.439
17498W        W89027  26.208  13.141  10.705
17499W        W89028  25.508  35.387   4.038
17500W        W89029   9.798  39.235  12.537
17501W        W89030   2.729  37.358   3.177
17502W        W89031  27.947  27.696  13.589
17503W        W89032   3.768   9.178  12.835
17504W        W89033  22.966  40.554   0.822
17505W        W89034  10.991  10.427  12.450
17506W        W89035  18.818   5.947  13.072
17507W        W89036  18.589  30.676   2.195
17508W        W89037  17.602  16.597   1.859
17509W        W89038   3.370  37.729  12.032
17510W        W89039  24.650  40.711  11.573
17511W        W89040  27.511  11.815  11.163
17512W        W89041  33.526   2.854   2.763
17513W        W89042  10.735  14.711  10.664
17514W        W89043  24.426  24.508   2.246
17515W        W89044  32.170  27.988   4.779
17516W        W89045  15.782  22.758  13.017
17517W        W89046  20.552  35.149   0.337
17518W        W89047  27.147  35.096  10.720
17519W        W89048  26.582  19.108   4.304
17520W        W89049  10.399  35.675   0.201
17521W        W89050   7.643  15.737   0.976
17522W        W89051  37.828  17.268  11.498
17523W        W89052   7.762   3.162  13.879
17524W        W89053  34.640  26.151  13.547
17525W        W89054  43.455  24.016   1.775
17526W        W89055  35.867   0.345  14.820
17527W        W89056  16.595  27.446   3.534
17528W        W89057   7.549   1.509  11.609
17529W        W89058  17.177   6.092  10.396
17530W        W89059  26.747   7.624   4.122
17531W        W89060   0.887  24.057   0.469
17532W        W89061  29.164  13.091   0.681
17533W        W89062  12.822  12.771   0.681
17534W        W89063  14.473  43.320   0.872
17535W        W89064  10.614   6.773   1.753
17536W        W89065  15.259  25.122  10.603
17537W        W89066  33.058  30.955   1.243
17538W        W89067  44.037  44.889   0.235
17539W        W89068  18.181  40.458   3.728
17540W        W89069  35.093  33.071   0.952
17541W        W89070  32.869  35.569  13.477
17542W        W89071  34.928  24.720   2.752
17543W        W89072  27.840   1.435   0.268
17544W        W89073  11.633  41.569   2.753
17545W        W89074  19.626  10.411   4.153
17546W        W89075  16.084  10.815   0.398
17547W        W89076  25.751  26.079   1.197
17548W        W89077  28.032  17.731   0.383
17549W        W89078  31.903  23.768  10.552
17550W        W89079  41.495  32.928  14.008
17551W        W89080  14.765  11.933  12.075
17552W        W89081  23.269   0.339   1.371
17553W        W89082  40.276  14.672   4.335
17554W        W89083  27.080   3.614  14.172
17555W        W89084  11.921  31.732  10.996
17556W        W89085  32.671  37.991  13.866
17557W        W89086   7.182   7.503  11.231
17558W        W89087  43.265  14.838  11.539
17559W        W89088   6.689  20.240   4.906
17560W        W89089  10.591  18.190   0.299
17561W        W89090  21.626  24.007  10.266
17562W        W89091  32.946  25.949  14.219
17563W        W89092   6.274  26.237  11.018
17564W        W89093  18.491  37.573   1.084
17565W        W89094   8.373  20.809  14.847
17566W        W89095  44.058  22.942   3.632
17567W        W89096  30.488  15.505   0.895
17568W        W89097  19.026  10.762  14.449
17569W        W89098  33.590  26.899  11.516
17570W        W89099   5.209  28.142   1.807
17571W        W89100  34.929  11.083  14.976
17572W        W89101   1.336  18.979  11.276
17573W        W89102   7.784  37.502   3.417
17574W        W89103  12.782  30.727  14.095
17575W        W89104  12.625  34.170  10.877
17576W        W89105  38.642  36.469  13.411
17577W        W89106  13.430   5.981  13.557
17578W        W89107  35.428  41.939   0.830
17579W        W89108  27.223  33.594   2.165
17580W        W89109  17.283  42.836   2.861
17581W        W89110  16.610  28.521  14.413
17582W        W89111  12.762  18.146  10.417
17583W        W89112   8.119  34.876   0.964
17584W        W89113   9.676  31.851   4.157
17585W        W89114  38.381  29.837   0.919
17586W        W89115  10.606  16.258   4.185
17587W        W89116  40.282  19.723  11.590
17588W        W89117  25.220  30.960   2.774
17589W        W89118  15.205  33.879  13.406
17590W        W89119  29.007  37.972  12.340
17591W        W89120  33.141   0.661  14.828
17592W        W89121  20.617   9.711  13.365
17593W        W89122  26.581  30.672  12.909
17594W        W89123  39.345   4.747  10.209
17595W        W89124   1.917  42.274   4.556
17596W        W89125  40.831  33.915   4.169
17597W        W89126  22.147  32.887  13.308
17598W        W89127  12.982  11.189   2.254
17599W        W89128  13.905  38.325   4.141
17600W        W89129  18.292   9.730   9.765
17601W        W89130  11.783  25.531   3.669
17602W        W89131  40.440  31.582   3.262
17603W        W89132  41.826  29.666  11.513
17604W        W89133  12.601  27.585  13.495
17605W        W89134   9.867  30.475  14.715
17606W        W89135  27.766  22.666   3.383
17607W        W89136  20.946  33.684  11.669
17608W        W89137   3.469  24.820  14.412
17609W        W89138  26.185  10.344   3.841
17610W        W89139  10.529  18.270  12.475
17611W        W89140   3.852  28.166  10.538
17612W        W89141  14.781  35.621  12.046
17613W        W89142   4.379  25.994   2.587
17614W        W89143  12.128   1.973   0.271
17615W        W89144  37.808  10.324  11.995
17616W        W89145   9.686   7.201   3.323
17617W        W89146  32.585   9.355   4.263
17618W        W89147  22.169  25.485   3.297
17619W        W89148  15.188  17.394   4.202
17620W        W89149  31.433  21.516  14.311
17621W        W89150   3.517  19.235  14.416
17622W        W89151  36.864   8.418  12.710
17623W        W89152  14.794  28.992  13.455
17624W        W89153   2.258  21.955   3.228
17625W        W89154   8.451  15.079  14.375
17626W        W89155  10.718  15.749  10.629
17627W        W89156   3.895   5.804   3.061
17628W        W89157  30.179  34.072   4.054
17629W        W89158  44.438  16.713  14.207
17630W        W89159  27.849  35.028   1.122
17631W        W89160   2.229   7.493   4.863
17632W        W89161  11.458   7.575  13.748
17633W        W89162  33.386   3.990  10.943
17634W        W89163  33.481  44.553   3.729
17635W        W89164  18.227  30.630   0.357
17636W        W89165  41.924  21.995   2.286
17637W        W89166   8.401  36.576   1.107
17638W        W89167  42.914  19.721   4.347
17639W        W89168  24.294  43.320   4.119
17640W        W89169  32.094  42.992   1.832
17641W        W89170  23.576  18.724  11.706
17642W        W89171   1.537  27.025  13.537
17643W        W89172  19.001   1.783  11.563
17644W        W89173   4.136   9.689   4.576
17645W        W89174  31.148  41.792   3.220
17646W        W89175  21.928  33.057   2.297
17647W        W89176  38.974  25.004   1.021
17648W        W89177   1.793  17.720  11.241
17649W        W89178   8.360  39.067   3.586
17650W        W89179  18.790  36.531   2.134
17651W        W89180  24.500  41.390   1.037
17652W        W89181  33.642  21.521  11.095
17653W        W89182  16.876  30.516   0.791
17654W        W89183  24.076  35.350   2.680
17655W        W89184  32.084  18.987  14.596
17656W        W89185  13.693  16.669   1.918
17657W        W89186  13.727  34.114   3.686
17658W        W89187  14.117   1.835   1.822
17659W        W89188  24.507  27.870   2.434
17660W        W89189  27.482  34.286  13.930
17661W        W89190   9.775  11.452  12.372
17662W        W89191   6.477  26.095  12.948
17663W        W89192   6.774  31.593  11.085
17664W        W89193  36.446  20.994  13.040
17665W        W89194  20.219   8.206   2.874
17666W        W89195  11.401  35.385  14.431
17667W        W89196  26.166  25.093   4.580
17668W        W89197  22.277  21.659  13.920
17669W        W89198  12.380  28.417   1.279
17670W        W89199  31.454  33.704  12.491
17671W        W89200  28.494  26.048  11.143
17672W        W89201  39.481  10.605   1.856
17673W        W89202  21.080  20.674   4.863
17674W        W89203  43.006  13.817   4.292
17675W        W89204  31.987  37.969  10.981
17676W        W89205  37.415  29.080   3.079
17677W        W89206  25.611  18.717   0.395
17678W        W89207  43.828  25.994   3.699
17679W        W89208  16.644   2.149   2.369
17680W        W89209  24.073  28.896  13.278
17681W        W89210  28.439  33.279  11.361
17682W        W89211   2.901  17.141   4.627
17683W        W89212   4.696  34.198  12.454
17684W        W89213  29.121  38.038  11.524
17685W        W89214   7.144  42.846  13.349
17686W        W89215   2.307  41.942  14.323
17687W        W89216  20.072  41.590   2.539
17688W        W89217  26.364  37.329   3.371
17689W        W89218  28.897  38.520   1.751
17690W        W89219   1.450  25.098  14.319
17691W        W89220  40.340  36.006  12.607
17692W        W89221  42.772  44.215   2.769
17693W        W89222  22.688  10.691   3.678
17694W        W89223   5.265  30.201  11.165
17695W        W89224   0.707   0.767   2.714
17696W        W89225  43.411   1.867  14.349
17697W        W89226   5.693  28.213   2.022
17698W        W89227   1.454  14.331   2.688
17699W        W89228  39.454  25.877  13.067
17700W        W89229  26.233  24.427  14.016
17701W        W89230  41.456  36.574   4.647
17702W        W89231  32.820  13.177  10.552
17703W        W89232  29.995  27.534   2.333
17704W        W89233  41.346  44.908   1.291
17705W        W89234   9.789   1.182   1.893
17706W        W89235  23.500  18.789  13.057
17707W        W89236  36.712   4.321  11.994
17708W        W89237  30.923  34.839   0.331
17709W        W89238  36.465   0.770  13.097
17710W        W89239   5.917  35.457   3.097
17711W        W89240  30.055  25.241   0.151
17712W        W89241  24.108   3.213   0.899
17713W        W89242  36.044  33.990   1.199
17714W        W89243  35.970  41.252   2.782
17715W        W89244  28.303  11.673  13.954
17716W        W89245  21.587  24.132  12.185
17717W        W89246   6.421   6.666   1.460
17718W        W89247  18.439   9.772   3.231
17719W        W89248  12.458  11.171   2.247
17720W        W89249  20.103   3.733   1.493
17721W        W89250  34.924  42.043   3.684
17722W        W89251  33.154  12.066  13.225
17723W        W89252   6.636  15.532  13.835
17724W        W89253   7.249  29.601  13.068
17725W        W89254  27.251  10.481  11.060
17726W        W89255  32.875   0.875  13.881
17727W        W89256  26.502   4.879   1.084
17728W        W89257  15.542   6.706  10.272
17729W        W89258  28.968  24.337  12.100
17730W        W89259  41.935  17.762   1.262
17731W        W89260  27.265   8.085  13.988
17732W        W89261   9.551  37.507  12.501
17733W        W89262  38.005  27.270  10.737
17734W        W89263  22.172  15.352  11.477
17735W        W89264  32.643  12.583   0.409
17736W        W89265  40.871  13.388   1.736
17737W        W89266  40.662  25.940   2.910
17738W        W89267   2.790   5.354  14.265
17739W        W89268  31.473  14.091  11.196
17740W        W89269  27.927  42.194   9.704
17741W        W89270  24.780  10.668   2.701
17742W        W89271  12.801  30.414   3.509
17743W        W89272  28.337   8.213   2.717
17744W        W89273  29.674  43.749   2.844
17745W        W89274  24.596  11.777   3.409
17746W        W89275  29.474  42.835  14.370
17747W        W89276  26.023  44.874   1.320
17748W        W89277   0.002   3.262  13.934
17749W        W89278   6.552  40.423  11.089
17750W        W89279   0.091  44.916   1.287
17751W        W89280  36.216  27.761  13.388
17752W        W89281  10.823  14.592   4.659
17753W        W89282  44.553  21.188   0.029
17754W        W89283  13.088   9.333   1.707
17755W        W89284   6.940  24.484  13.028
17756W        W89285  16.789  35.966  12.476
17757W        W89286  20.990   2.496  12.086
17758W        W89287  23.019   1.174   2.522
17759W        W89288  22.241  28.795  13.025
17760W        W89289   9.425  19.283  14.765
17761W        W89290  25.696   9.156  14.471
17762W        W89291  23.851  25.087  11.147
17763W        W89292   3.368  26.557  13.894
17764W        W89293   8.066  11.036   1.055
17765W        W89294  31.765   9.352   4.693
17766W        W89295   1.834  31.466   2.338
17767W        W89296  18.436   3.256   0.847
17768W        W89297   2.394  32.935  12.420
17769W        W89298  40.687  41.692  10.087
17770W        W89299  37.992  18.157  13.392
17771W        W89300  19.670  16.221   4.788
17772W        W89301   0.710  31.940  11.122
17773W        W89302  34.452  43.170   0.487
17774W        W89303  27.068   7.964   1.480
17775W        W89304   3.418  15.880  13.962
17776W        W89305  15.504  26.524   1.700
17777W        W89306  17.204  41.876  12.627
17778W        W89307   9.407  21.557   3.949
17779W        W89308   8.102  21.926  12.063
17780W        W89309  18.692  35.509   0.028
17781W        W89310   5.946  21.689  13.681
17782W        W89311   3.796  28.646  12.527
17783W        W89312  27.710  36.572  11.228
17784W        W89313  29.701   7.862   4.626
17785W        W89314  33.583  43.245   3.294
17786W        W89315  22.157  41.135  11.913
17787W        W89316   6.275  24.687   0.547
17788W        W89317  13.895  44.210  10.953
17789W        W89318  13.186  10.540   5.206
17790W        W89319  34.592  23.744  11.101
17791W        W89320  18.539  12.943  12.082
17792W        W89321  40.206   3.977  11.114
17793W        W89322   7.347  31.388   4.531
17794W        W89323  16.443  28.434   1.743
17795W        W89324  42.857  15.253   0.239
17796W        W89325  35.121   6.661  14.839
17797W        W89326  15.059  25.004  13.527
17798W        W89327  17.553  43.898   3.674
17799W        W89328  23.677  44.825  12.859
17800W        W89329  35.406  26.728   2.668
17801W        W89330  33.625   7.747  11.640
17802W        W89331   2.254  11.656   0.186
17803W        W89332  38.819  22.577  14.916
17804W        W89333  39.259  37.404  14.457
17805W        W89334   8.998   6.387   0.399
17806W        W89335  37.052  14.127   1.800
17807W        W89336  18.702  28.343  12.754
17808W        W89337  16.782  19.751  14.731
17809W        W89338  23.255  17.566  12.603
17810W        W89339  17.188  42.905   0.858
17811W        W89340  22.012  15.088  14.985
17812W        W89341  13.196  44.144   1.703
17813W        W89342  18.626  25.880  12.059
17814W        W89343  41.387   6.931   0.806
17815W        W89344  38.353  11.939   1.947
17816W        W89345  25.681  41.228   1.926
17817W        W89346  40.991   9.652  11.168
17818W        W89347  21.516  29.590  12.530
17819W        W89348  39.439  44.740  12.355
17820W        W89349  22.371  43.048  14.383
17821W        W89350  22.226  17.319  14.304
17822W        W89351  35.210  11.627   1.328
17823W        W89352   3.022  36.316   2.448
17824W        W89353  15.325  23.196   3.654
17825W        W89354  29.652  37.961  10.317
17826W        W89355  24.201  29.912   3.257
17827W        W89356  26.724  19.986   4.651
17828W        W89357  32.708   3.985   4.108
17829W        W89358  25.017  35.957  10.528
17830W        W89359  19.084  43.869   1.435
17831W        W89360  39.960  22.488   4.667
17832W        W89361  13.647   0.825  11.068
17833W        W89362  15.130  26.548   2.089
17834W        W89363  12.505  27.147  14.856
17835W        W89364   3.528  38.738  13.583
17836W        W89365   8.462  14.198  13.850
17837W        W89366  39.019   5.943   0.889
17838W        W89367  34.673  26.956   2.325
17839W        W89368  16.811  22.208   4.662
17840W        W89369  44.666  34.955   1.789
17841W        W89370  35.658  21.204   4.070
17842W        W89371  18.327  21.304   2.327
17843W        W89372   8.461  38.295   1.833
17844W        W89373  11.557  21.221   4.704
17845W        W89374  24.094  28.418  11.384
17846W        W89375  12.885  17.195   4.514
17847W        W89376  44.765  27.721  14.430
17848W        W89377   0.239  29.219  12.868
17849W        W89378  25.083  32.187   3.039
17850W        W89379  13.337   8.235  13.260
17851W        W89380  39.867  40.360  11.491
17852W        W89381  44.860  23.334  14.393
17853W        W89382   5.980  12.245  10.637
17854W        W89383  37.530  16.023   1.709
17855W        W89384   0.967  44.431   2.258
17856W        W89385  31.935  15.561   2.285
17857W        W89386  11.678  35.215   5.204
17858W        W89387  36.675  37.081   2.750
17859W        W89388  23.238  23.091  13.021
17860W        W89389  28.639   5.737  14.473
17861W        W89390  44.466  14.822   3.710
17862W        W89391  27.592  26.222  11.091
17863W        W89392  23.630  36.382  10.441
17864W        W89393  18.047  40.648   2.649
17865W        W89394  37.278  11.519  12.404
17866W        W89395  23.962  43.413  14.966
17867W        W89396  20.371  21.476  13.257
17868W        W89397  35.331  32.395   1.482
17869W        W89398  14.712   5.884  14.698
17870W        W89399  32.279  23.096  12.216
17871W        W89400  18.096  44.367  14.607
17872W        W89401  31.400   7.212   4.621
17873W        W89402   3.508  14.599   3.230
17874W        W89403  11.432  31.621  11.053
17875W        W89404  38.052  12.141  13.296
17876W        W89405  26.777  33.307   2.192
17877W        W89406  22.501  16.128  12.409
17878W        W89407  17.684  38.128  14.750
17879W        W89408  41.858  19.281  14.112
17880W        W89409  10.154  30.282  12.964
17881W        W89410   7.900   0.088  10.980
17882W        W89411  43.911  14.546  11.907
17883W        W89412  13.767  22.071  11.609
17884W        W89413   9.843  41.911   0.568
17885W        W89414  36.418   8.602  10.657
17886W        W89415   1.830  35.933   0.190
17887W        W89416  15.268  15.991   3.915
17888W        W89417  11.830  23.525   2.784
17889W        W89418   6.037  13.667   4.633
17890W        W89419  44.465  27.030   0.965
17891W        W89420   0.950   1.825   0.518
17892W        W89421  39.601   8.476  11.006
17893W        W89422  25.018  27.494  14.832
17894W        W89423  28.276  30.207   4.272
17895W        W89424  30.392  22.499   1.457
17896W        W89425   3.437  10.854   3.289
17897W        W89426  20.167  26.122  13.864
17898W        W89427  31.202  22.548   3.686
17899W        W89428  11.328   1.464   4.035
17900W        W89429   1.389  29.636  10.625
17901W        W89430  36.604  17.784   1.285
17902W        W89431  16.656   3.016   4.109
17903W        W89432   8.013  42.995   2.662
17904W        W89433  20.701  25.162   1.634
17905W        W89434  37.437  44.746   2.716
17906W        W89435   6.368   0.209  14.988
17907W        W89436  14.193  42.469  14.218
17908W        W89437   8.299   4.953   4.541
17909W        W89438  26.655  18.748  12.635
17910W        W89439  25.919  37.492   3.587
17911W        W89440   9.435  12.825   1.347
17912W        W89441  30.854  22.156  12.038
17913W        W89442  41.012  28.195   2.832
17914W        W89443   7.632  24.748  10.564
17915W        W89444  12.371   3.286  13.018
17916W        W89445  33.429  10.875  10.710
17917W        W89446   9.775   8.246  13.464
17918W        W89447  42.066   1.948  11.591
17919W        W89448  18.810  41.500   1.248
17920W        W89449  31.448  33.898  11.506
17921W        W89450  11.449  27.217  14.921
17922W        W89451  42.116  20.673  14.382
17923W        W89452  22.956  43.528  11.587
17924W        W89453  21.873  10.935   0.649
17925W        W89454   1.005  41.017   2.201
17926W        W89455  31.802   6.437  11.324
17927W        W89456  13.013   2.716   3.798
17928W        W89457   1.207  11.529   4.137
17929W        W89458  27.754   5.897   4.683
17930W        W89459   5.094   7.075   2.902
17931W        W89460  44.359   3.239  13.799
17932W        W89461  42.814  15.556  13.907
17933W        W89462  13.231   8.121   0.634
17934W        W89463  29.652  32.263   4.631
17935W        W89464  39.101  36.436  13.783
17936W        W89465  33.080  15.535   1.281
17937W        W89466  12.829  33.445  12.636
17938W        W89467  17.279   1.965   4.629
17939W        W89468   1.960  29.058   1.290
17940W        W89469  28.594   5.675   2.634
17941W        W89470  15.513  42.866  14.832
17942W        W89471   4.784   7.374  11.205
17943W        W89472  40.064   2.849   1.298
17944W        W89473  14.632  23.524   0.343
17945W        W89474  24.880  41.855  10.493
17946W        W89475  29.649  28.195   1.838
17947W        W89476  42.676  16.212   1.405
17948W        W89477  41.235   7.733   2.867
17949W        W89478   0.039  37.763   0.234
17950W        W89479  10.918   0.431  13.172
17951W        W89480  21.589  30.571  12.332
17952W        W89481   2.066   8.542   2.649
17953W        W89482  37.123  33.500   2.288
17954W        W89483   7.758  29.945   1.750
17955W        W89484  12.682  26.697  11.551
17956W        W89485  18.257  27.577   0.928
17957W        W89486  19.338  39.845  13.284
17958W        W89487  21.684   5.007  10.610
17959W        W89488  31.262  20.752  13.687
17960W        W89489   6.416   2.713  11.064
17961W        W89490  14.347  44.891   0.926
17962W        W89491   2.314  19.026   0.798
17963W        W89492  21.479  12.317   3.725
17964W        W89493  39.384   9.051   4.580
17965W        W89494   5.419  23.380   0.248
17966W        W89495  36.815  29.466  13.629
17967W        W89496  38.163   2.363   0.540
17968W        W89497   0.344  42.974  12.988
17969W        W89498   8.282  13.918   1.929
17970W        W89499  38.051   8.320  12.581
17971W        W89500  42.046  29.471  13.451
17972W        W89501  33.537  22.807   4.066
17973W        W89502   5.155  11.680  10.771
17974W        W89503  11.737  43.853   3.343
17975W        W89504  39.768  15.289  13.464
17976W        W89505  18.235  24.267  11.352
17977W        W89506  38.440  16.523   0.232
17978W        W89507  34.653  25.823  13.946
17979W        W89508   2.219  13.756  14.736
17980W        W89509   2.891  25.981  13.191
17981W        W89510  25.405  27.844   2.255
17982W        W89511  30.411  10.835  14.038
17983W        W89512  18.266  19.689   3.541
17984W        W89513   0.608  24.502   0.892
17985W        W89514   1.318  36.372   2.267
17986W        W89515   8.661  16.028   0.216
17987W        W89516  41.158  17.748   3.803
17988W        W89517  40.152  31.041  13.726
17989W        W89518  20.736  18.589  10.922
17990W        W89519  27.753  12.757   1.331
17991W        W89520  18.305  16.814  14.697
17992W        W89521  42.572   1.459   3.077
17993W        W89522  16.326  15.074  12.492
17994W        W89523  25.397  15.786  10.307
17995W        W89524   4.907  38.449   1.874
17996W        W89525  26.323  44.067  14.859
17997W        W89526  38.143  30.935  11.156
17998W        W89527   0.301  15.950  12.014
17999W        W89528  19.006   2.419  11.866
18000W        W89529  28.402  16.380  11.487
18001W        W89530   1.538  25.071  11.549
18002W        W89531  42.791  41.389   4.643
18003W        W89532  30.117  23.751  10.451
18004W        W89533  21.817  31.151  10.718
18005W        W89534  31.299  18.643   4.291
18006W        W89535  28.695  35.462  13.417
18007W        W89536  23.293  33.984  14.449
18008W        W89537  40.482   3.012   2.749
18009W        W89538   4.725  14.524  14.038
18010W        W89539  27.029  33.262   4.124
18011W        W89540  12.704  22.399  11.573
18012W        W89541  14.532  29.545  14.272
18013W        W89542  43.878  42.583   0.932
18014W        W89543  22.610  10.411   3.223
18015W        W89544  34.953   5.367   2.779
18016W        W89545   0.451  29.864   2.099
18017W        W89546  43.887   1.147   1.435
18018W        W89547   0.046   2.713  14.960
18019W        W89548  44.849  40.510   2.901
18020W        W89549  25.558  38.452  12.393
18021W        W89550   8.102   9.317  13.999
18022W        W89551  18.994  37.838   0.357
18023W        W89552  17.518  30.161  13.726
18024W        W89553  20.352  22.988  13.948
18025W        W89554  42.033  33.877  14.795
18026W        W89555  36.346  21.679  10.440
18027W        W89556   3.432  15.014  13.604
18028W        W89557   6.149  30.030  10.753
18029W        W89558  14.162  15.222   3.476
18030W        W89559  43.438  32.180  14.745
18031W        W89560   3.776  15.949  13.528
18032W        W89561  36.611  25.457   4.296
18033W        W89562  25.406  37.745  10.700
18034W        W89563  28.140   7.056   4.020
18035W        W89564  21.164  34.376   2.809
18036W        W89565  21.892  22.179   4.907
18037W        W89566  10.302   7.354   2.492
18038W        W89567  20.246  24.148  14.893
18039W        W89568  43.736  28.385  12.752
18040W        W89569   1.200  34.987  11.278
18041W        W89570  26.452  15.039   1.801
18042W        W89571  39.875  30.438  12.569
18043W        W89572  43.465   1.638  14.826
18044W        W89573   8.810  13.816  13.950
18045W        W89574  39.389  24.862  13.022
18046W        W89575  36.808  27.162  12.048
18047W        W89576  25.582  28.046   1.806
18048W        W89577   3.002  31.808  13.522
18049W        W89578  26.709  39.984  14.155
18050W        W89579  25.155   9.896   1.985
18051W        W89580   2.466  28.238  13.825
18052W        W89581   0.811  17.111  13.985
18053W        W89582  35.704  23.673  14.826
18054W        W89583   2.399   7.013   4.762
18055W        W89584   1.721   5.624   3.643
18056W        W89585  26.990  34.020  13.584
18057W        W89586  38.852  13.468  12.127
18058W        W89587  16.119  12.216  10.672
18059W        W89588  24.165  27.856  12.722
18060W        W89589   7.761   3.425   0.188
18061W        W89590  33.130  36.505  11.216
18062W        W89591  38.319  10.311  10.741
18063W        W89592  27.133  31.966  14.047
18064W        W89593  29.174  12.379   4.406
18065W        W89594   5.285   1.329   1.043
18066W        W89595   7.392  15.570  11.421
18067W        W89596   8.883  34.005  12.397
18068W        W89597  44.204   9.197  11.597
18069W        W89598  19.885  43.509   1.749
18070W        W89599  22.040  15.745  12.956
18071W        W89600  36.033  29.130   1.161
18072W        W89601  11.357  38.073   0.019
18073W        W89602  24.907  13.550   0.482
18074W        W89603   1.946  30.159   3.523
18075W        W89604   3.521  43.420  10.698
18076W        W89605  38.541   0.391   2.635
18077W        W89606  26.908  38.879  12.490
18078W        W89607  31.078  15.798   0.116
18079W        W89608  39.572  19.606  10.759
18080W        W89609   2.780  31.724   4.160
18081W        W89610  11.223  39.056   3.308
18082W        W89611  10.189  23.578   1.042
18083W        W89612  24.076  23.411   2.421
18084W        W89613  30.123  39.021   3.209
18085W        W89614  31.495  31.285  11.720
18086W        W89615   4.566  34.885   3.294
18087W        W89616  11.215  10.883   0.784
18088W        W89617  23.599  10.681  13.021
18089W        W89618  33.961  22.904  13.545
18090W        W89619  26.884  15.674   1.366
18091W        W89620  17.660   7.775   0.782
18092W        W89621  23.637  22.681   3.679
18093W        W89622   5.584  36.436  14.267
18094W        W89623   0.751  29.554  12.414
18095W        W89624  25.960   2.125   4.320
18096W        W89625  39.324  21.455   0.452
18097W        W89626  41.113   7.504  11.965
18098W        W89627  19.534  44.086  14.241
18099W        W89628   2.721  12.271   1.784
18100W        W89629  41.882  15.899  10.114
18101W        W89630  25.252   2.517   4.448
18102W        W89631  43.010   8.259  13.334
18103W        W89632  14.246   6.162  13.803
18104W        W89633  22.742  14.532  14.555
18105W        W89634   3.258  28.086   2.382
18106W        W89635  39.400   1.245   1.964
18107W        W89636  23.752  12.666   1.506
18108W        W89637   2.482  15.194   2.319
18109W        W89638  13.318  23.145  12.952
18110W        W89639  27.228  37.644   0.486
18111W        W89640  35.440  25.783  13.945
18112W        W89641  29.234   8.894   2.248
18113W        W89642  43.021  12.391   0.284
18114W        W89643  33.463   4.973   1.210
18115W        W89644  12.783   5.944   3.531
18116W        W89645  17.786  30.908   1.200
18117W        W89646  20.882  14.873   4.618
18118W        W89647   5.084  24.951   2.241
18119W        W89648  32.504   8.114  14.780
18120W        W89649  37.894   8.735  10.443
18121W        W89650  18.951  34.815  14.598
18122W        W89651   2.536  42.416   2.463
18123W        W89652  35.526  37.462  12.113
18124W        W89653   9.930  28.541  12.460
18125W        W89654  39.084   4.268  11.579
18126W        W89655   1.299  19.713  14.437
18127W        W89656   0.825   9.183  13.338
18128W        W89657  24.627  23.555   2.295
18129W        W89658  26.027   3.969  12.384
18130W        W89659  28.211  43.760   4.839
18131W        W89660  17.180   8.460  13.482
18132W        W89661  28.623  14.661   0.428
18133W        W89662  14.265  15.364   4.410
18134W        W89663  36.134  30.801  12.512
18135W        W89664  13.813  28.034   1.137
18136W        W89665   6.463  39.321  13.457
18137W        W89666  15.228   4.269   3.334
18138W        W89667  30.506   0.986  11.577
18139W        W89668  15.584   6.908  12.096
18140W        W89669   7.516  31.410   0.798
18141W        W89670  18.850  15.074   1.136
18142W        W89671   9.388  33.956   4.634
18143W        W89672  24.908  22.742  14.317
18144W        W89673  18.120   7.840  11.460
18145W        W89674  12.358  34.402  14.306
18146W        W89675   5.356   6.420  12.517
18147W        W89676  27.226  37.304  14.909
18148W        W89677  42.823  25.481   2.214
18149W        W89678  26.073  39.724  12.561
18150W        W89679  13.632  36.783   0.452
18151W        W89680  30.018   0.890   1.343
18152W        W89681  38.441  38.043   0.404
18153W        W89682  39.254  12.129   1.795
18154W        W89683  13.304  13.676   4.290
18155W        W89684   3.290  18.787   2.793
18156W        W89685  20.835  40.779  13.552
18157W        W89686  18.740  16.716   3.596
18158W        W89687   6.978   1.735   3.774
18159W        W89688  24.759  15.750   5.099
18160W        W89689  16.329  38.703   1.779
18161W        W89690  44.772  19.804   1.857
18162W        W89691  24.640   4.586  11.405
18163W        W89692  40.990  21.222   1.776
18164W        W89693   5.467  14.398  14.443
18165W        W89694  29.903  34.908   0.365
18166W        W89695  30.645  17.537   4.155
18167W        W89696  26.617  37.138  13.401
18168W        W89697  26.053  23.575   4.647
18169W        W89698  14.709  31.886  11.593
18170W        W89699  32.927  19.620  13.378
18171W        W89700  13.219  18.250   3.425
18172W        W89701  44.438  34.088  12.496
18173W        W89702  42.946  36.487   1.674
18174W        W89703   9.801  14.584   1.978
18175W        W89704  21.319  20.175  13.751
18176W        W89705   6.634  21.595   3.354
18177W        W89706  31.362  27.902  11.013
18178W        W89707  12.055  24.612   0.511
18179W        W89708  21.232   5.252  14.398
18180W        W89709  20.640  36.794  12.992
18181W        W89710  35.550   4.665  11.661
18182W        W89711  13.672  13.335   2.273
18183W        W89712  21.468  24.554   0.237
18184W        W89713  38.657   3.597   3.679
18185W        W89714  42.313  38.075   4.685
18186W        W89715  41.766  15.537   0.679
18187W        W89716  41.397  10.447   2.512
18188W        W89717   9.395  14.622   0.201
18189W        W89718  17.915   7.906  10.444
18190W        W89719  44.855  44.706   1.708
18191W        W89720  25.119  26.043  11.581
18192W        W89721  40.799  25.637  14.492
18193W        W89722  12.603  10.311   2.386
18194W        W89723   0.324  24.880   4.452
18195W        W89724  38.615  42.942  13.576
18196W        W89725  10.400   4.274  11.358
18197W        W89726  14.781  38.060  10.612
18198W        W89727  34.026   2.420  11.621
18199W        W89728  23.069  35.142   4.311
18200W        W89729  34.536   3.290  14.290
18201W        W89730  20.296  37.719  10.652
18202W        W89731  12.435  13.763  14.806
18203W        W89732  20.846  33.856  11.177
18204W        W89733  16.619  29.924   0.162
18205W        W89734  39.341   4.305   4.145
18206W        W89735  14.297  38.148   3.675
18207W        W89736  34.622  38.424   3.784
18208W        W89737  39.556   8.397  12.003
18209W        W89738  27.865  23.817  12.941
18210W        W89739  26.877   6.664   0.785
18211W        W89740  32.345   4.269  14.122
18212W        W89741  32.558  43.950   3.670
18213W        W89742   1.891  12.288   0.241
18214W        W89743  18.637  30.057  13.126
18215W        W89744   4.860   6.431   4.056
18216W        W89745  29.016   1.843   1.444
18217W        W89746  24.959  35.213  14.367
18218W        W89747  26.914  38.439  11.555
18219W        W89748  13.078  33.907   2.889
18220W        W89749   9.249  32.578  14.926
18221W        W89750  19.044  19.832  11.164
18222W        W89751   0.460  38.473   2.099
18223W        W89752  10.483  33.391   3.738
18224W        W89753  25.578   1.341  11.824
18225W        W89754  22.093  24.226  12.837
18226W        W89755  35.496  27.414   1.954
18227W        W89756  32.506  33.538  14.501
18228W        W89757  31.708  14.792  12.787
18229W        W89758   4.900  38.075   3.752
18230W        W89759  15.215  27.821  11.878
18231W        W89760  20.428  15.238  12.811
18232W        W89761  13.090   0.855  12.509
18233W        W89762  23.265  20.695   2.846
18234W        W89763  42.926  41.848   2.680
18235W        W89764  21.976  27.901  14.479
18236W        W89765  12.835   4.231   2.663
18237W        W89766  18.716   0.817  10.704
18238W        W89767  43.014  27.006   2.207
18239W        W89768   1.713   1.047   5.131
18240W        W89769  28.366  24.235   3.412
18241W        W89770  18.700  13.241   1.444
18242W        W89771  43.705  26.635  13.617
18243W        W89772  28.708  21.053   4.985
18244W        W89773  19.511  21.304   2.805
18245W        W89774   2.440  39.263  13.425
18246W        W89775   3.280  42.078  12.526
18247W        W89776  37.831  22.120  12.775
18248W        W89777   6.402  11.681   3.637
18249W        W89778  16.453  18.617  13.724
18250W        W89779  44.330   9.174   4.936
18251W        W89780   8.663   1.806   2.701
18252W        W89781   2.216  14.667   0.978
18253W        W89782  23.083  34.190   3.373
18254W        W89783  20.313  30.035   4.494
18255W        W89784  23.897  40.106   1.231
18256W        W89785   2.512  20.691  13.385
18257W        W89786   0.510  20.296  11.140
18258W        W89787  36.501  39.101  11.884
18259W        W89788  11.306   7.258  13.371
18260W        W89789  22.297  16.857   2.876
18261W        W89790  37.373  35.758  14.880
18262W        W89791  10.786  26.020  11.841
18263W        W89792  36.812  41.576   3.844
18264W        W89793  14.906   3.467  14.369
18265W        W89794  13.020  23.458  14.986
18266W        W89795   2.332  43.590  13.979
18267W        W89796  42.065  38.297   0.912
18268W        W89797   7.300  35.774   0.467
18269W        W89798   4.312  44.895  13.326
18270W        W89799  33.477  18.257   4.635
18271W        W89800   5.912   3.157   3.607
18272W        W89801  21.609  34.096   2.640
18273W        W89802   5.417   4.376   1.897
18274W        W89803  30.539   5.356   1.202
18275W        W89804  26.443  20.469  14.891
18276W        W89805  18.031  44.331   0.862
18277W        W89806  33.241   5.965  10.783
18278W        W89807  21.647  25.999  10.972
18279W        W89808  23.392  23.547  12.771
18280W        W89809  10.481  24.102   3.605
18281W        W89810  18.286  15.660  12.870
18282W        W89811  13.758   4.775  13.719
18283W        W89812  35.040  44.895   1.925
18284W        W89813  26.310   6.484   0.350
18285W        W89814  17.782   1.795   2.810
18286W        W89815  24.729  13.731  11.990
18287W        W89816   8.602  14.747  13.965
18288W        W89817  44.437  28.180   3.430
18289W        W89818  31.619  21.947  14.544
18290W        W89819  37.560  28.546  14.452
18291W        W89820  30.447  26.318  12.000
18292W        W89821  33.160   2.150  14.824
18293W        W89822  17.925  39.936   4.730
18294W        W89823  11.860  29.906  10.574
18295W        W89824  29.036  41.770   0.742
18296W        W89825  11.064  31.496   2.789
18297W        W89826  41.903   9.720   2.287
18298W        W89827  14.820   0.714   4.360
18299W        W89828   1.427  18.556   3.332
18300W        W89829  22.712   6.856   1.156
18301W        W89830  14.369  32.114  12.410
18302W        W89831  35.506  19.998  12.963
18303W        W89832  40.470   9.912   4.156
18304W        W89833  32.655  11.895   3.705
18305W        W89834  29.906  27.911  10.111
18306W        W89835  11.761  13.322  11.646
18307W        W89836  31.633  40.954   0.760
18308W        W89837  39.263  12.237   3.568
18309W        W89838  21.089  14.327  13.511
18310W        W89839  43.807  26.948   3.316
18311W        W89840  17.817  41.942   0.342
18312W        W89841  28.939   1.608  12.110
18313W        W89842  26.624  34.422   0.166
18314W        W89843   5.087  12.780  12.940
18315W        W89844  14.798  31.418  11.342
18316W        W89845  43.947  12.861  14.497
18317W        W89846  14.612  22.512  14.353
18318W        W89847   5.327  25.406   3.193
18319W        W89848  23.983  30.930   1.797
18320W        W89849  22.263   9.803   2.487
18321W        W89850   6.868  32.002  12.688
18322W        W89851  25.179  13.514  13.458
18323W        W89852  44.359  14.703  12.179
18324W        W89853   0.203  32.611   1.325
18325W        W89854  21.681  39.097   1.907
18326W        W89855  33.160   7.989  13.934
18327W        W89856  25.608  25.760   1.590
18328W        W89857   5.953   8.403   0.472
18329W        W89858  44.821  23.626  13.274
18330W        W89859  14.896   7.752   1.404
18331W        W89860  25.638  28.996  14.439
18332W        W89861  35.759  36.025  10.196
18333W        W89862  16.904  15.272  12.967
18334W        W89863  17.432   6.113  12.064
18335W        W89864  37.403  25.937   3.872
18336W        W89865  15.074  31.586  10.626
18337W        W89866  28.642   8.030  13.812
18338W        W89867  30.052   6.355   4.740
18339W        W89868  37.040   8.680   0.323
18340W        W89869  22.360  12.724   4.391
18341W        W89870  36.203  18.588  10.233
18342W        W89871  37.379  40.600  10.885
18343W        W89872   1.202  39.016  14.260
18344W        W89873  42.904  38.756  13.632
18345W        W89874  35.307  33.046   3.311
18346W        W89875  31.012  24.489   9.950
18347W        W89876  19.585  20.055  14.434
18348W        W89877  13.814   4.526  10.587
18349W        W89878   7.995  44.897   4.541
18350W        W89879  30.339  16.842   3.577
18351W        W89880  18.394   1.411   0.111
18352W        W89881  14.639  34.600  12.878
18353W        W89882  20.304  11.188  14.487
18354W        W89883  42.779  20.539  12.278
18355W        W89884  30.999  21.587   1.417
18356W        W89885  20.523  21.960  14.000
18357W        W89886  26.865  20.249  11.401
18358W        W89887  17.227  15.688   4.623
18359W        W89888  27.585  23.990  14.280
18360W        W89889  28.081   5.947  11.923
18361W        W89890  17.600  37.415   4.242
18362W        W89891  43.901  44.811  10.495
18363W        W89892  37.517  14.121  11.243
18364W        W89893  42.559  21.230   3.317
18365W        W89894  34.276   1.267   3.376
18366W        W89895  13.252   9.879  14.929
18367W        W89896  18.369  14.107  14.319
18368W        W89897  40.049  36.475  12.562
18369W        W89898   6.594  19.927   5.730
18370W        W89899  28.304  28.024   2.159
18371W        W89900  25.529  24.144   4.135
18372W        W89901  32.119  35.961  14.930
18373W        W89902   7.351  10.922  12.562
18374W        W89903  26.885  18.715   4.113
18375W        W89904  33.879  11.267   2.340
18376W        W89905  17.211  43.565  11.565
18377W        W89906  40.820  18.508  11.673
18378W        W89907  26.025  38.763   1.836
18379W        W89908   0.269  23.710   4.815
18380W        W89909  23.567   6.143   0.837
18381W        W89910  37.182   9.584   1.052
18382W        W89911  37.348  44.309   3.892
18383W        W89912  15.030   1.766  11.028
18384W        W89913  16.190   2.369  13.466
18385W        W89914   4.469  36.936  12.149
18386W        W89915  28.266   8.980  10.190
18387W        W89916  11.567  39.046   3.727
18388W        W89917  39.161  23.802   1.229
18389W        W89918   5.105   5.808   4.904
18390W        W89919  11.186  12.766  14.458
18391W        W89920  35.080  34.022  13.449
18392W        W89921  21.779   3.176   1.816
18393W        W89922  22.037  31.489  12.569
18394W        W89923  39.547  19.245   3.432
18395W        W89924   0.805  42.710   0.654
18396W        W89925  40.619  24.426  11.062
18397W        W89926  32.463  44.486   0.376
18398W        W89927  22.775  39.502  14.934
18399W        W89928  30.071  34.981  14.344
18400W        W89929   5.315  10.968  14.456
18401W        W89930   7.295  27.717  13.591
18402W        W89931  13.956  30.627   0.786
18403W        W89932  26.209  23.197  10.707
18404W        W89933  29.505  30.453  12.646
18405W        W89934  39.848  12.267   4.399
18406W        W89935  36.436  42.928  12.989
18407W        W89936  34.493  40.294  10.640
18408W        W89937  25.459  20.463  13.956
18409W        W89938  44.887  10.078   3.000
18410W        W89939  28.903  21.789   0.290
18411W        W89940   7.434  44.204  13.524
18412W        W89941  26.522  32.283  10.816
18413W        W89942  24.888  43.254   5.044
18414W        W89943   6.923  18.591   3.454
18415W        W89944   9.955  34.141  12.471
18416W        W89945  22.729  29.473   3.748
18417W        W89946  29.072  34.910  14.492
18418W        W89947   5.205   4.839  14.980
18419W        W89948  29.117   6.276   1.234
18420W        W89949  26.978   5.686   4.186
18421W        W89950   4.073  16.767   5.571
18422W        W89951  33.989   6.264  13.320
18423W        W89952  28.972  11.625  12.473
18424W        W89953   5.532   8.670   0.355
18425W        W89954  10.775  29.041   0.748
18426W        W89955  39.373  38.507  10.821
18427W        W89956  18.634  26.879   4.132
18428W        W89957  30.302  26.197   1.254
18429W        W89958  24.263  38.391   2.625
18430W        W89959  26.481  42.566   0.119
18431W        W89960  11.681  23.049   4.166
18432W        W89961   1.479  16.038  12.472
18433W        W89962  37.963  27.224  13.084
18434W        W89963  35.369  28.532   1.438
18435W        W89964  30.965  11.001   1.474
18436W        W89965  19.811  21.841   1.982
18437W        W89966  20.822   3.972  14.025
18438W        W89967  32.040  25.041   1.798
18439W        W89968  31.414  38.230   3.342
18440W        W89969  15.231   3.711   2.371
18441W        W89970  31.098   4.911  14.411
18442W        W89971  14.571  32.012   4.592
18443W        W89972   4.387   0.299  11.612
18444W        W89973  39.251  16.347   3.614
18445W        W89974   8.678  32.406   1.882
18446W        W89975  23.787  16.095  14.810
18447W        W89976  23.540   2.273   3.908
18448W        W89977  13.366  25.083  11.114
18449W        W89978  17.686  44.151   2.803
18450W        W89979  15.087  18.496   1.093
18451W        W89980   9.456  15.701  11.067
18452W        W89981   5.975  25.871  10.256
18453W        W89982   7.244  16.125   3.610
18454W        W89983  29.307  34.922   2.741
18455W        W89984  34.770  30.102   2.663
18456W        W89985  23.087  22.680  14.949
18457W        W89986  14.516   6.983  13.437
18458W        W89987  38.868  16.115   3.887
18459W        W89988  20.848  25.191   0.678
18460W        W89989  43.905   0.756   0.029
18461W        W89990  42.235  41.807  12.449
18462W        W89991   4.227  18.730   2.939
18463W        W89992   9.634  43.985  10.494
18464W        W89993   1.784  42.606   3.161
18465W        W89994  32.637  36.433   1.869
18466W        W89995  36.115   1.771   0.509
18467W        W89996  41.537  25.478  11.657
18468W        W89997  29.977   6.969   2.950
18469W        W89998  21.848  23.608   1.711
18470W        W89999  28.134  43.023   3.185
18471W        W90000   2.735  34.889  11.536
18472W        W90001  37.239  23.525   4.837
18473W        W90002  26.526  32.899  12.512
18474W        W90003  22.349  11.780   0.874
18475W        W90004  16.541   6.247  12.940
18476W        W90005  24.714  43.788  12.387
18477W        W90006   0.535  23.171   1.760
18478W        W90007  42.586  40.965   1.895
18479W        W90008  37.904  15.179  10.902
18480W        W90009  37.595  20.428   1.434
18481W        W90010  13.080   4.870   3.270
18482W        W90011  12.222  36.159   3.817
18483W        W90012  36.836  14.272  14.926
18484W        W90013  23.995  42.457   4.113
18485W        W90014  44.906  31.952   3.946
18486W        W90015   1.994   0.794  10.660
18487W        W90016  15.643  23.939  14.355
18488W        W90017  14.182  13.730   1.273
18489W        W90018  19.166  27.274  14.896
18490W        W90019  21.727   0.274  12.076
18491W        W90020  24.715  22.064  11.442
18492W        W90021  19.652   6.885  12.504
18493W        W90022  26.156  22.758   0.148
18494W        W90023   6.969  26.085  12.632
18495W        W90024  29.065   6.718  13.673
18496W        W90025  44.809  35.464   2.610
18497W        W90026   5.240  36.273   0.202
18498W        W90027  35.654  32.367   2.372
18499W        W90028  19.732  18.618  13.024
18500W        W90029  27.354  26.010  14.569
18501W        W90030  23.496  34.863  12.890
18502W        W90031   7.733  10.230  13.051
18503W        W90032  30.339   7.443   0.088
18504W        W90033  40.508  12.163  12.067
18505W        W90034  29.109  28.126   3.478
18506W        W90035   4.826  37.158  14.643
18507W        W90036   8.562  21.931  11.233
18508W        W90037   2.018  23.603  11.619
18509W        W90038  23.839  39.403   9.709
18510W        W90039  43.503  41.536  13.595
18511W        W90040  29.433  22.293   0.257
18512W        W90041  21.835  11.195  14.555
18513W        W90042  27.823  41.321  12.252
18514W        W90043  41.517   1.330   1.214
18515W        W90044  40.122  43.846   2.366
18516W        W90045  44.777  40.876  14.460
18517W        W90046   2.885  39.537   1.800
18518W        W90047  36.121  30.733   4.100
18519W        W90048  31.817  28.262   3.511
18520W        W90049  41.773  39.152   9.685
18521W        W90050  36.239  13.273   1.334
18522W        W90051  38.281  31.097   0.768
18523W        W90052  37.958  35.843  12.556
18524W        W90053  24.084  24.068  12.523
18525W        W90054   6.648   4.796  11.595
18526W        W90055  22.982   1.336   2.033
18527W        W90056  18.684  35.826   0.895
18528W        W90057   7.556  11.258  14.594
18529W        W90058  42.085  12.587   1.275
18530W        W90059   9.439   5.438  12.424
18531W        W90060   9.359  25.247  10.974
18532W        W90061  26.438  21.933   1.765
18533W        W90062  40.300   8.595   1.323
18534W        W90063  30.480   8.378   3.461
18535W        W90064   4.717   7.411   3.144
18536W        W90065  36.630  20.096   2.658
18537W        W90066  37.591  26.523  11.047
18538W        W90067  19.089   1.537  14.056
18539W        W90068   4.486  34.413  14.396
18540W        W90069  42.204  31.060  13.436
18541W        W90070  12.578  31.602  14.831
18542W        W90071  40.691   5.782  11.566
18543W        W90072  28.421   4.730  14.451
18544W        W90073  38.439  32.852   2.202
18545W        W90074  19.737  11.192   3.297
18546W        W90075  23.611  41.002   4.656
18547W        W90076  33.385  44.402  11.051
18548W        W90077  31.885  21.040   3.199
18549W        W90078  30.754  31.456  12.516
18550W        W90079   9.161   0.281   2.693
18551W        W90080  42.014  12.193   0.918
18552W        W90081  31.620  10.260  11.141
18553W        W90082  14.021  20.764  12.729
18554W        W90083  19.586  30.894   4.372
18555W        W90084  29.532  32.490   3.365
18556W        W90085  29.611  43.566  13.923
18557W        W90086  22.814  22.464  10.451
18558W        W90087   9.375  13.052   2.820
18559W        W90088  36.907  10.972   2.857
18560W        W90089   3.316  11.653   2.764
18561W        W90090  29.519  41.950   4.981
18562W        W90091   1.681  40.051  13.096
18563W        W90092  14.277  27.745   0.014
18564W        W90093  29.850  26.300   0.240
18565W        W90094  32.720   4.331  12.017
18566W        W90095  28.916  19.730   1.140
18567W        W90096  27.954  28.595   0.181
18568W        W90097   2.296   4.018   0.944
18569W        W90098  42.810  16.218   2.698
18570W        W90099  36.961  17.119  14.252
18571W        W90100  17.554  33.064   1.674
18572W        W90101  38.363  13.899   3.625
18573W        W90102  10.756  25.280  12.598
18574W        W90103  31.540  15.823   4.964
18575W        W90104  10.406  13.076   4.571
18576W        W90105  37.471  12.082  10.724
18577W        W90106   9.501   9.947  14.868
18578W        W90107  15.324  44.096  14.501
18579W        W90108   9.280  22.098   1.355
18580W        W90109  38.077   9.714  11.176
18581W        W90110   7.366  30.935  12.787
18582W        W90111  28.522  29.146   2.141
18583W        W90112   3.572  23.687  10.238
18584W        W90113   5.250  33.884  10.899
18585W        W90114  13.001  40.746  12.017
18586W        W90115   0.455  29.598   0.463
18587W        W90116  13.827  35.459  12.572
18588W        W90117  13.186  31.924  14.974
18589W        W90118  38.800  35.466  12.911
18590W        W90119  10.475  19.632   2.421
18591W        W90120  26.200  18.783   2.827
18592W        W90121  11.767   3.311  11.116
18593W        W90122  29.584  28.002   3.696
18594W        W90123   1.843  11.353   0.050
18595W        W90124  25.029  30.647   2.403
18596W        W90125   0.702  18.089   2.161
18597W        W90126  17.060  40.783  11.211
18598W        W90127  30.614  13.058   0.662
18599W        W90128  41.411  15.800  12.487
18600W        W90129  21.259  35.418   2.668
18601W        W90130  13.293  31.539   0.504
18602W        W90131   8.887  28.745   4.313
18603W        W90132  14.564   3.427   3.281
18604W        W90133  11.085   8.304  11.404
18605W        W90134  21.297  26.500  12.110
18606W        W90135   1.471   9.982   4.493
18607W        W90136  43.897  23.577  14.974
18608W        W90137   1.697  12.795   2.336
18609W        W90138  37.290  24.946  13.894
18610W        W90139  16.681  28.698   4.123
18611W        W90140   2.878   3.280   2.762
18612W        W90141  25.023  40.931   2.713
18613W        W90142  21.529   4.284   0.369
18614W        W90143  33.620   7.882  10.657
18615W        W90144  24.536  39.934   3.224
18616W        W90145  30.653  12.930  11.185
18617W        W90146  37.835  41.411   4.595
18618W        W90147   7.218  20.880   0.901
18619W        W90148  38.465  34.210  11.576
18620W        W90149  12.352   1.961   3.077
18621W        W90150   0.330   4.408  10.617
18622W        W90151  42.368   8.356   0.846
18623W        W90152   7.844  20.406  13.481
18624W        W90153  43.554   4.888   0.440
18625W        W90154  44.276  28.282   4.276
18626W        W90155  18.751  14.356  14.572
18627W        W90156   4.653  35.448   4.328
18628W        W90157  18.660  39.891  14.288
18629W        W90158  19.310  24.502  14.293
18630W        W90159  18.038  29.598   0.722
18631W        W90160  22.048  25.984  12.639
18632W        W90161  31.038  43.804   1.697
18633W        W90162  18.788  24.079  13.431
18634W        W90163   0.568  29.514   1.704
18635W        W90164  23.829   8.280  14.741
18636W        W90165   8.623   5.318  14.997
18637W        W90166  33.226  12.669   2.975
18638W        W90167  39.143  21.382  13.590
18639W        W90168  39.552  36.993  14.247
18640W        W90169  43.545  14.147  12.754
18641W        W90170   2.363  39.394   1.556
18642W        W90171  30.510  28.033   4.643
18643W        W90172   5.285  34.589   2.275
18644W        W90173  12.577  21.222   3.434
18645W        W90174  30.205  42.155  11.982
18646W        W90175  18.185  30.544  11.140
18647W        W90176  16.813  17.017  12.006
18648W        W90177  19.274  12.330   4.094
18649W        W90178  22.020   9.204   1.920
18650W        W90179  17.681  23.155   4.891
18651W        W90180   5.475  14.206  12.532
18652W        W90181  32.174   3.644   1.842
18653W        W90182  23.257  40.389  12.488
18654W        W90183  31.170   7.156   4.154
18655W        W90184  26.269  43.908   4.803
18656W        W90185  36.169   0.473   1.440
18657W        W90186  41.982  21.335   0.926
18658W        W90187  24.031  41.960  11.856
18659W        W90188  22.859  44.099  13.548
18660W        W90189   5.262   2.877   1.833
18661W        W90190   4.865  12.754  14.413
18662W        W90191  26.655   6.418   1.176
18663W        W90192  22.915  14.137   1.395
18664W        W90193  12.291  38.815  14.012
18665W        W90194  36.925  34.603   1.202
18666W        W90195  37.414  20.586  11.072
18667W        W90196  39.273  36.138  12.560
18668W        W90197  35.080  16.049  12.670
18669W        W90198  11.705  18.177  14.475
18670W        W90199  43.274   9.881   1.801
18671W        W90200  18.036   6.776  14.093
18672W        W90201  27.897  28.054  12.165
18673W        W90202   1.026  13.030  12.176
18674W        W90203  37.282   3.328  11.109
18675W        W90204  20.638  30.158  10.295
18676W        W90205  30.858  20.142  14.507
18677W        W90206  23.963  34.118  11.986
18678W        W90207  19.207  20.030   0.498
18679W        W90208  10.832   8.804   4.578
18680W        W90209  14.878  17.125  10.795
18681W        W90210  15.333   3.786   0.735
18682W        W90211  43.958  36.058   2.888
18683W        W90212   9.343  38.926   3.789
18684W        W90213  23.170  42.020   0.334
18685W        W90214  36.643  18.070   2.613
18686W        W90215   2.956  28.502   3.158
18687W        W90216  35.913  23.325  10.981
18688W        W90217  30.645  42.368   0.287
18689W        W90218  10.231  30.922   3.194
18690W        W90219  35.441  31.078   4.531
18691W        W90220  17.200  27.569  14.441
18692W        W90221   3.640  27.426   0.371
18693W        W90222  23.921  17.349   4.661
18694W        W90223  16.594  11.099  11.089
18695W        W90224  37.442  29.945  11.147
18696W        W90225  42.341  25.483   4.654
18697W        W90226  42.557  28.439   4.277
18698W        W90227  34.645   7.201   2.394
18699W        W90228  35.931  24.210   0.371
18700W        W90229   0.554  42.995  14.094
18701W        W90230  30.390  25.597   0.399
18702W        W90231  41.021  34.751  14.108
18703W        W90232  12.332   9.278   2.358
18704W        W90233  31.513   8.700   2.252
18705W        W90234  33.395  34.405   2.551
18706W        W90235  40.726   7.438   0.394
18707W        W90236  10.218  33.469   4.551
18708W        W90237   6.877  40.946  12.005
18709W        W90238  15.187  42.549  12.944
18710W        W90239   3.929  25.219   3.327
18711W        W90240  29.427  22.620   3.448
18712W        W90241   3.213  38.728  11.742
18713W        W90242  32.633  42.401  14.482
18714W        W90243  38.385  37.588   2.168
18715W        W90244  16.909  37.917   1.830
18716W        W90245  42.055  22.625  14.389
18717W        W90246   2.240   1.471  11.649
18718W        W90247  26.140  31.024  14.282
18719W        W90248  10.399  20.546  13.271
18720W        W90249   4.011  33.637  14.939
18721W        W90250  34.170  36.721   3.524
18722W        W90251  10.626  24.923   0.269
18723W        W90252  24.486  27.246  13.943
18724W        W90253   9.634  22.078   0.611
18725W        W90254  20.328  44.003   3.329
18726W        W90255  30.980  20.663   2.419
18727W        W90256  32.684   3.776  12.950
18728W        W90257  39.952  38.783   2.800
18729W        W90258  42.302   5.173  11.923
18730W        W90259  38.827  10.835   4.641
18731W        W90260  32.077  20.029   4.075
18732W        W90261  39.499  12.497  13.363
18733W        W90262  44.557  39.227   4.780
18734W        W90263  32.544  14.769  14.805
18735W        W90264  32.938   8.638   0.314
18736W        W90265  14.396  43.057  11.963
18737W        W90266  18.186   6.983  14.541
18738W        W90267  39.578  33.635   2.694
18739W        W90268   9.242   8.819   0.760
18740W        W90269  32.083  26.672  13.483
18741W        W90270  14.301  43.916   4.608
18742W        W90271  35.178  26.164   0.254
18743W        W90272  40.183  26.606  11.978
18744W        W90273  24.162  25.409  12.821
18745W        W90274  21.015  37.612   4.623
18746W        W90275   5.691  36.609   1.041
18747W        W90276  44.876  31.660  13.962
18748W        W90277  10.715  11.333   4.556
18749W        W90278   2.987  38.019  13.348
18750W        W90279  14.791  33.875  14.453
18751W        W90280  35.787   2.994   4.494
18752W        W90281  11.664  12.308  11.568
18753W        W90282  30.589  25.467  14.816
18754W        W90283  37.011  41.110  12.983
18755W        W90284  20.227  41.328   0.925
18756W        W90285  24.442  11.836  12.574
18757W        W90286  37.046  26.683   5.077
18758W        W90287   4.928  19.526   3.138
18759W        W90288  43.849  13.419  13.627
18760W        W90289  36.548  28.611  14.401
18761W        W90290   7.359  11.801   1.981
18762W        W90291  26.224  13.613   0.001
18763W        W90292   0.436  24.760  12.568
18764W        W90293  13.832  41.227  13.812
18765W        W90294  44.858  18.763   4.919
18766W        W90295   6.387  29.690   0.986
18767W        W90296  31.942  29.681  13.499
18768W        W90297   7.131  25.903  13.599
18769W        W90298  26.344   2.520   3.736
18770W        W90299  41.026   8.600   2.246
18771W        W90300  28.876  10.779  13.810
18772W        W90301  44.744  34.979  11.098
18773W        W90302  17.357  28.878  11.187
18774W        W90303  44.118  14.308  13.628
18775W        W90304  44.679  36.495  13.941
18776W        W90305  24.987  15.325  12.416
18777W        W90306  35.019  26.113  13.225
18778W        W90307  41.288  21.213   2.195
18779W        W90308   1.782  16.206   2.636
18780W        W90309   3.917   4.300  13.504
18781W        W90310   0.465  33.365   1.696
18782W        W90311  28.604  39.680  11.065
18783W        W90312  25.652   9.705   4.586
18784W        W90313  42.246  44.348   1.633
18785W        W90314  43.983   4.782  14.863
18786W        W90315  16.575  13.745  12.585
18787W        W90316   2.802  35.338   0.822
18788W        W90317  37.767  12.614   1.792
18789W        W90318  31.598  26.641   1.428
18790W        W90319  28.979  14.224   1.428
18791W        W90320  18.101  13.201   0.777
18792W        W90321  42.044  44.699  13.972
18793W        W90322  36.128   5.706   1.287
18794W        W90323  15.398  43.240   3.223
18795W        W90324  30.434  28.481   1.678
18796W        W90325   5.498  31.647   3.599
18797W        W90326   3.777  40.558  11.103
18798W        W90327  34.958  42.039  10.959
18799W        W90328  29.528  32.888  12.833
18800W        W90329  12.347  31.074   1.827
18801W        W90330  28.085   1.984   2.818
18802W        W90331  20.159  21.833   2.724
18803W        W90332  17.815  27.171  14.974
18804W        W90333  25.715  19.613   3.339
18805W        W90334  21.009  28.388   1.120
18806W        W90335   6.118  32.647   0.264
18807W        W90336   3.397   0.255  11.227
18808W        W90337  16.730  25.733   4.369
18809W        W90338  15.646  14.306  14.902
18810W        W90339   0.742  28.271  13.934
18811W        W90340   4.397  11.428  14.487
18812W        W90341  11.896   4.739  12.746
18813W        W90342  44.937   0.761  14.848
18814W        W90343   9.622  26.080   1.151
18815W        W90344  11.321  41.242   3.781
18816W        W90345   4.173   2.240  14.926
18817W        W90346  24.493  23.115   0.483
18818W        W90347  22.582  39.552  14.056
18819W        W90348  41.722  35.958   4.180
18820W        W90349   7.584  41.482   4.583
18821W        W90350  22.585  33.012  11.089
18822W        W90351   5.152  41.037  11.941
18823W        W90352  30.030  15.087  13.004
18824W        W90353   7.889   7.879   2.240
18825W        W90354  18.257   7.323  13.767
18826W        W90355   6.773  36.491   2.266
18827W        W90356   5.897  26.226   3.231
18828W        W90357  10.885  44.511  12.587
18829W        W90358  24.518  21.421   4.084
18830W        W90359   5.773   2.661  13.722
18831W        W90360  36.565   8.616  10.123
18832W        W90361  37.413  11.157   2.898
18833W        W90362  40.821  43.468   0.327
18834W        W90363  28.097  38.911   4.547
18835W        W90364  27.025  43.485  13.255
18836W        W90365  16.036  32.184  12.983
18837W        W90366  40.751  23.084   2.845
18838W        W90367  32.740  16.801  14.856
18839W        W90368  38.746   8.478  14.038
18840W        W90369  12.374  22.468   2.322
18841W        W90370  33.162  20.065  12.576
18842W        W90371  17.097  11.299  12.365
18843W        W90372  21.719  16.060  11.971
18844W        W90373  17.392   2.047   0.418
18845W        W90374  29.490   1.866  10.653
18846W        W90375  31.386  28.017   0.721
18847W        W90376  29.120  40.497   1.037
18848W        W90377  25.452  21.499   3.787
18849W        W90378  28.938  24.586  13.077
18850W        W90379  12.672  41.670  14.456
18851W        W90380  23.662   9.907   0.845
18852W        W90381  17.030   7.238  12.891
18853W        W90382   7.397  27.215  13.383
18854W        W90383  26.633  15.014  13.160
18855W        W90384   9.832   4.377  14.342
18856W        W90385  38.621  41.793  13.221
18857W        W90386  40.890  18.029  11.164
18858W        W90387  38.852  33.167  10.647
18859W        W90388  38.816  31.047  13.055
18860W        W90389  42.963   7.272   0.254
18861W        W90390   1.384  27.957   0.422
18862W        W90391  36.152  27.819  10.266
18863W        W90392  33.513  39.052   0.377
18864W        W90393   2.832   5.313  14.783
18865W        W90394   6.032  35.848  14.985
18866W        W90395  31.736  39.857  13.865
18867W        W90396  39.153  22.197  11.522
18868W        W90397  12.263   5.846   3.606
18869W        W90398  18.331  31.559   4.051
18870W        W90399  41.451   3.261   2.468
18871W        W90400  41.981  15.533   4.613
18872W        W90401  43.378  35.603  14.069
18873W        W90402  22.949  14.661  11.939
18874W        W90403  19.245  26.195   0.346
18875W        W90404  40.008  27.632   2.910
18876W        W90405   5.181  40.948   4.875
18877W        W90406  27.651  11.301   3.106
18878W        W90407   5.500  18.637  14.938
18879W        W90408  43.469  22.685  11.993
18880W        W90409  36.454  43.459  14.625
18881W        W90410  31.351  36.482   4.233
18882W        W90411  16.245  35.463  13.985
18883W        W90412  31.490  28.570   3.170
18884W        W90413   1.783   8.203   3.253
18885W        W90414  39.264  43.310   2.271
18886W        W90415  12.667  24.173  11.551
18887W        W90416  16.470  27.954   0.565
18888W        W90417   3.211   5.830  14.560
18889W        W90418   3.270  12.802  12.288
18890W        W90419  32.291   6.442   0.451
18891W        W90420  26.949   2.417  11.622
18892W        W90421  19.368  21.302  12.304
18893W        W90422   6.466  17.173   3.246
18894W        W90423  14.699   4.887   4.245
18895W        W90424  24.210  18.782   0.826
18896W        W90425  39.364  40.350  12.983
18897W        W90426  15.372  12.581  11.309
18898W        W90427  23.188  13.038  14.498
18899W        W90428   8.609  27.924  11.154
18900W        W90429  13.248  12.813   0.984
18901W        W90430  41.713  14.240  13.634
18902W        W90431   6.955  18.809  11.661
18903W        W90432  26.270   2.016   0.226
18904W        W90433  29.445  11.223   3.841
18905W        W90434  22.979  38.176  11.518
18906W        W90435  42.276  31.780   4.837
18907W        W90436  30.746  40.768  13.424
18908W        W90437  36.946   0.998  11.154
18909W        W90438  27.943  12.831   2.688
18910W        W90439  34.606  30.012   3.882
18911W        W90440   5.925   3.521   3.231
18912W        W90441   6.791  13.677   0.965
18913W        W90442  17.650   8.353  14.090
18914W        W90443  40.303  39.571  13.799
18915W        W90444  22.635  29.444   1.257
18916W        W90445  37.472   6.648  14.399
18917W        W90446  17.690  38.559   4.176
18918W        W90447  32.104  15.038  14.858
18919W        W90448   0.972  17.917  14.492
18920W        W90449   1.379  32.685   2.617
18921W        W90450   7.474  24.202   0.952
18922W        W90451  16.181  36.604  11.953
18923W        W90452  27.572  31.965  14.504
18924W        W90453  16.744   3.503   1.931
18925W        W90454  16.315  21.252  13.714
18926W        W90455  13.352   1.887   1.469
18927W        W90456  30.584  37.860   2.009
18928W        W90457  30.386  16.454  10.199
18929W        W90458  23.260  23.950   3.270
18930W        W90459  38.983  10.148  11.478
18931W        W90460  26.185   6.235   2.986
18932W        W90461  25.178  28.710   1.870
18933W        W90462  39.842  29.445   0.387
18934W        W90463  15.814  27.217   3.687
18935W        W90464   1.684  12.842   4.862
18936W        W90465   2.760   2.636   3.670
18937W        W90466  24.015   7.931   0.751
18938W        W90467  25.232  31.038  14.347
18939W        W90468  19.640   3.830  14.853
18940W        W90469  41.494  30.835   5.060
18941W        W90470  17.785  18.340   4.566
18942W        W90471   8.584  18.636  13.584
18943W        W90472  37.228  21.544   4.575
18944W        W90473  21.151  26.434   0.483
18945W        W90474  18.232   5.722  11.973
18946W        W90475   9.989  12.449   2.838
18947W        W90476  11.962  39.728   0.792
18948W        W90477   7.397  12.413  12.967
18949W        W90478  19.524  29.072  13.516
18950W        W90479  18.510  28.393  10.605
18951W        W90480  26.530  23.466  13.334
18952W        W90481  10.022  13.259   1.845
18953W        W90482  14.875  16.574   4.475
18954W        W90483   9.775  29.530  11.097
18955W        W90484  34.654  19.561  11.972
18956W        W90485  27.775  39.511   1.826
18957W        W90486  10.772  29.931  12.665
18958W        W90487  38.424  40.578  12.413
18959W        W90488   5.914  12.202  13.900
18960W        W90489   9.253  20.299   2.386
18961W        W90490  23.001  13.353  11.495
18962W        W90491   4.181   6.235   3.316
18963W        W90492  23.225  33.070   4.034
18964W        W90493   3.988  19.289   2.893
18965W        W90494   1.802  29.589  11.532
18966W        W90495  16.339  14.481   1.672
18967W        W90496  12.698  39.917   2.769
18968W        W90497  31.976  22.825   0.749
18969W        W90498  43.598  29.707   3.236
18970W        W90499  44.292  42.839  12.015
18971W        W90500  25.858  41.893  13.898
18972W        W90501  11.794   5.658  12.439
18973W        W90502  22.186  18.737   1.743
18974W        W90503   5.438  21.487   0.901
18975W        W90504  33.068  24.302   5.010
18976W        W90505  33.333  11.809  11.957
18977W        W90506   4.533   2.956  11.305
18978W        W90507  20.072   0.324   4.106
18979W        W90508  26.620  43.458   3.913
18980W        W90509   8.688  38.315  11.650
18981W        W90510  32.344   6.202  12.004
18982W        W90511  42.169  22.665  10.695
18983W        W90512  26.414   0.443   0.648
18984W        W90513  20.848   7.286  13.970
18985W        W90514  27.926   7.636  11.305
18986W        W90515  17.779  25.177   3.220
18987W        W90516  17.346  33.028  11.758
18988W        W90517  40.120  11.784  14.905
18989W        W90518  38.248  24.739  14.901
18990W        W90519  36.617  11.662  12.945
18991W        W90520  21.611  32.121  13.750
18992W        W90521  10.251  41.319  11.217
18993W        W90522  35.225   7.244  10.232
18994W        W90523  14.053  18.992   3.970
18995W        W90524  40.871  16.635   2.733
18996W        W90525  20.489  17.854   2.845
18997W        W90526   2.202  41.787   2.332
18998W        W90527  33.775  15.722   1.703
18999W        W90528  18.686  29.958   0.057
19000W        W90529  19.611  17.844  10.677
19001W        W90530  27.118  38.614  14.660
19002W        W90531   2.911  35.125  14.635
19003W        W90532  25.078   6.636  13.609
19004W        W90533   4.490   0.783  11.427
19005W        W90534  41.571  16.748   4.301
19006W        W90535  13.683  16.352  12.923
19007W        W90536   7.269  31.462  11.224
19008W        W90537   5.678  18.957  14.034
19009W        W90538  20.737  31.585  14.931
19010W        W90539  20.646  15.530   2.682
19011W        W90540   4.946  42.391  10.497
19012W        W90541  41.891  12.105   4.522
19013W        W90542  17.087   0.378  12.052
19014W        W90543   5.457  20.054  14.900
19015W        W90544  15.495  42.759  11.025
19016W        W90545  25.259   4.946  12.881
19017W        W90546   1.319  22.744  11.442
19018W        W90547  34.195  13.275  10.935
19019W        W90548  31.051  26.693   2.226
19020W        W90549  26.217  19.443   3.461
19021W        W90550  16.107  11.486  12.549
19022W        W90551  16.594  15.700  11.283
19023W        W90552  18.157  24.697  13.310
19024W        W90553  13.603  22.780   4.316
19025W        W90554  14.678   1.130  12.994
19026W        W90555   3.583  31.083   5.074
19027W        W90556   2.697  22.153   0.907
19028W        W90557  18.428  28.617   0.094
19029W        W90558  28.972  35.130   4.507
19030W        W90559  14.325   9.681   2.243
19031W        W90560  28.514  43.068  14.623
19032W        W90561  15.125  33.606   1.217
19033W        W90562  23.082  41.888  13.112
19034W        W90563  21.911  18.277  10.723
19035W        W90564  43.513  10.544  14.763
19036W        W90565   9.746  20.368  13.800
19037W        W90566  22.520  37.037   2.433
19038W        W90567  16.886  39.610  12.892
19039W        W90568  11.620  26.443  10.034
19040W        W90569   7.108  34.136  14.833
19041W        W90570  15.037   2.845   2.042
19042W        W90571   6.499  10.708  13.962
19043W        W90572  11.790  29.667   1.294
19044W        W90573  11.959   4.889   4.552
19045W        W90574   7.669  16.253   1.714
19046W        W90575  38.033  15.147   3.587
19047W        W90576  33.411  44.754   1.926
19048W        W90577   3.496  28.988  13.426
19049W        W90578   2.218  43.761   3.805
19050W        W90579  22.571   7.331   0.975
19051W        W90580   8.689  27.218  13.410
19052W        W90581   9.667  40.849   4.658
19053W        W90582  40.541  36.430  12.411
19054W        W90583  38.906  44.719  11.628
19055W        W90584  39.958  41.360  11.847
19056W        W90585  38.147  41.332   0.813
19057W        W90586  37.432  25.930  10.705
19058W        W90587   3.500  27.915  12.931
19059W        W90588  15.363  33.495   0.313
19060W        W90589  38.652  27.961  13.081
19061W        W90590  35.960  34.691  12.380
19062W        W90591   9.670  14.220  14.815
19063W        W90592  10.335  33.151   0.241
19064W        W90593  37.355  15.086   1.466
19065W        W90594   9.271  24.888   0.187
19066W        W90595  18.284   7.629   1.891
19067W        W90596  25.580   6.255   2.008
19068W        W90597  39.599  23.075   0.029
19069W        W90598  42.925  38.920  10.514
19070W        W90599  23.379  38.390   5.120
19071W        W90600  27.598  11.137  12.108
19072W        W90601  25.174  26.017   2.771
19073W        W90602  42.415  40.976   0.237
19074W        W90603  26.988  34.657   3.305
19075W        W90604   5.633  36.824   3.627
19076W        W90605  16.701  18.849  11.593
19077W        W90606  32.108  31.061  13.410
19078W        W90607  41.881  18.597   0.785
19079W        W90608  25.010  23.812   3.786
19080W        W90609  39.155  26.171  14.018
19081W        W90610  16.781   2.232   1.436
19082W        W90611  31.859  17.531   1.405
19083W        W90612  18.779   2.689  11.415
19084W        W90613  14.780  30.937  13.518
19085W        W90614  44.426  32.891   1.098
19086W        W90615   4.019  31.543  11.466
19087W        W90616  31.574  37.785   3.575
19088W        W90617  10.466  27.265   1.400
19089W        W90618  12.310  21.008   4.610
19090W        W90619  20.105  21.644  11.458
19091W        W90620  17.099  37.523  11.903
19092W        W90621   3.816   7.251   1.237
19093W        W90622  40.865  36.557  13.335
19094W        W90623  15.400   8.790  11.483
19095W        W90624  32.717  40.829   0.635
19096W        W90625  39.884  12.822  11.190
19097W        W90626  19.659  16.071  14.807
19098W        W90627  37.478  25.206  10.243
19099W        W90628  30.475  18.885   2.182
19100W        W90629  22.262  16.029  13.862
19101W        W90630  38.026  32.483  13.838
19102W        W90631  28.024  11.252   0.398
19103W        W90632  14.867   1.947   0.154
19104W        W90633  24.107   6.714  10.352
19105W        W90634  24.278  11.681  12.098
19106W        W90635   8.189  17.323   2.866
19107W        W90636  38.323  28.167   2.789
19108W        W90637  32.625  13.812  11.893
19109W        W90638   1.770  37.371  12.494
19110W        W90639  42.764  34.380   1.886
19111W        W90640  39.892  31.167   2.235
19112W        W90641  37.917  43.011   2.294
19113W        W90642  25.273  44.972  12.235
19114W        W90643  28.187  41.301  13.162
19115W        W90644  32.439   6.718  12.465
19116W        W90645  19.291  35.381  13.864
19117W        W90646  23.638   4.097   3.672
19118W        W90647  36.929  27.866   1.725
19119W        W90648   8.346   2.892   1.722
19120W        W90649  43.445  12.920   1.923
19121W        W90650  40.556  31.206   4.014
19122W        W90651  24.108  17.777   4.928
19123W        W90652   7.393  34.705   3.352
19124W        W90653  32.620  30.173  12.104
19125W        W90654  32.335  26.251   0.361
19126W        W90655  26.038  17.017   3.639
19127W        W90656   3.634   3.218   0.483
19128W        W90657  40.392   8.703  14.182
19129W        W90658  28.392   3.163   3.290
19130W        W90659  37.159  38.612  10.593
19131W        W90660  21.552  20.116   3.633
19132W        W90661  40.541  39.116   1.606
19133W        W90662  38.959   0.173   2.873
19134W        W90663  18.680   1.239   4.262
19135W        W90664  43.723  21.688   1.236
19136W        W90665  30.140  28.085   0.995
19137W        W90666  43.313  25.051   2.873
19138W        W90667  44.930  39.589   2.832
19139W        W90668  35.592  27.646  12.403
19140W        W90669  12.147   2.293   4.347
19141W        W90670  18.195  11.639   3.129
19142W        W90671  27.033  17.284  14.775
19143W        W90672  40.503  29.699   0.495
19144W        W90673   0.435   5.432   1.705
19145W        W90674  20.917  41.842  11.872
19146W        W90675  26.423  10.849   3.862
19147W        W90676  44.887   5.711   2.546
19148W        W90677  34.136  10.150   1.880
19149W        W90678  24.904  44.355   4.962
19150W        W90679  37.334  31.992   5.077
19151W        W90680  43.623  42.020   3.124
19152W        W90681  27.413   1.956  13.996
19153W        W90682  41.292  21.707   1.242
19154W        W90683  13.058  26.377   2.751
19155W        W90684   7.410   5.229  12.575
19156W        W90685  23.508  30.932   0.890
19157W        W90686  43.344  19.242  12.313
19158W        W90687  20.687   4.293   3.882
19159W        W90688   5.849  16.119   3.598
19160W        W90689  25.945  41.502   0.789
19161W        W90690   2.101  25.245  11.593
19162W        W90691  17.641  41.606   3.202
19163W        W90692   6.364  37.881   4.404
19164W        W90693  26.653  40.741   3.173
19165W        W90694  19.440  31.877  13.572
19166W        W90695  34.411  44.823   4.152
19167W        W90696  29.226   0.231  13.418
19168W        W90697  42.090  33.182   3.617
19169W        W90698  22.576   8.250  10.941
19170W        W90699  37.466  36.575   1.892
19171W        W90700  24.561  19.566  14.014
19172W        W90701  32.139  18.320  13.953
19173W        W90702  34.894  10.781   1.724
19174W        W90703  21.791   6.759   3.691
19175W        W90704   8.073  37.568  14.484
19176W        W90705  32.411  34.976   2.653
19177W        W90706  24.505  16.185  12.472
19178W        W90707  13.096   0.239  11.100
19179W        W90708  40.640  22.956  10.253
19180W        W90709   6.670  28.582   0.223
19181W        W90710   0.369   1.443   2.841
19182W        W90711   6.430  28.719   2.387
19183W        W90712  32.317  19.568   4.040
19184W        W90713  14.064  28.804  11.862
19185W        W90714  22.222   0.434  13.463
19186W        W90715  15.794  14.934   0.028
19187W        W90716  13.882  32.496  11.543
19188W        W90717   2.373  21.027  12.350
19189W        W90718  22.120  15.967   4.042
19190W        W90719  17.438  31.565   3.908
19191W        W90720  41.887  37.702  10.050
19192W        W90721  42.347  12.418  11.078
19193W        W90722  20.300  35.373   0.952
19194W        W90723  32.040   7.010   3.282
19195W        W90724  42.443  26.618  12.585
19196W        W90725  41.486  40.288   1.456
19197W        W90726  42.804   8.271   1.262
19198W        W90727  23.252   9.456  12.564
19199W        W90728  32.550  11.292  11.121
19200W        W90729  16.245  27.159  14.431
19201W        W90730  10.201  35.856  10.588
19202W        W90731  20.109  18.684  13.828
19203W        W90732  24.068  37.134  11.391
19204W        W90733  42.023  17.097   2.091
19205W        W90734  40.543  11.947   0.847
19206W        W90735   0.879  41.984   2.608
19207W        W90736  39.976  39.088   4.587
19208W        W90737  27.758  32.341  12.482
19209W        W90738  40.057  36.148   2.193
19210W        W90739  33.940  38.216   4.313
19211W        W90740  43.245  44.377  10.676
19212W        W90741  10.074  24.957   4.072
19213W        W90742  16.418  18.804  13.253
19214W        W90743  25.246   2.872  13.627
19215W        W90744  26.227  11.831   2.981
19216W        W90745  39.451  30.133  14.401
19217W        W90746  39.413  38.555  11.345
19218W        W90747   8.810  20.135   2.982
19219W        W90748  35.044  31.145  13.494
19220W        W90749  15.166  33.991   0.268
19221W        W90750  10.155   3.505  14.370
19222W        W90751  28.865  36.377   2.812
19223W        W90752  15.210  34.375  10.687
19224W        W90753   5.635  42.991   3.798
19225W        W90754  25.617   8.713   4.733
19226W        W90755   3.019   8.820  11.175
19227W        W90756  16.509  13.378   2.367
19228W        W90757  27.845  23.445   0.882
19229W        W90758  43.430  13.696   3.546
19230W        W90759   1.373  30.173  11.734
19231W        W90760  38.076  33.474  10.948
19232W        W90761  42.950   4.242  14.433
19233W        W90762  36.360  11.765  11.947
19234W        W90763  40.056  25.957  12.509
19235W        W90764  34.820  19.634   1.330
19236W        W90765  21.383  39.450   3.201
19237W        W90766  29.136  33.540  11.193
19238W        W90767  14.136  32.159  13.721
19239W        W90768  11.909  22.240  12.421
19240W        W90769  37.510  32.634  13.831
19241W        W90770   4.886  36.477  13.327
19242W        W90771   5.171  18.725  11.971
19243W        W90772  20.068  42.719   1.747
19244W        W90773  26.955  40.956   4.077
19245W        W90774  41.116  11.173  13.456
19246W        W90775  18.588  13.590  13.024
19247W        W90776  33.583  27.550  14.677
19248W        W90777  22.351  43.906   3.193
19249W        W90778   2.736  44.744   3.396
19250W        W90779  33.979  25.858   4.728
19251W        W90780  41.248   3.937   3.843
19252W        W90781  14.409  13.253   3.351
19253W        W90782  12.935  30.776   0.024
19254W        W90783  26.722  40.060   4.591
19255W        W90784  41.385  29.617   0.545
19256W        W90785  30.021  28.804  11.050
19257W        W90786  12.260  40.736  11.426
19258W        W90787   7.138  10.471  12.473
19259W        W90788   9.443  12.186   0.777
19260W        W90789  10.494   8.203   5.185
19261W        W90790  20.724  18.539  11.871
19262W        W90791  31.907   1.443  11.564
19263W        W90792  20.489  40.004  14.894
19264W        W90793  38.056  29.870   0.378
19265W        W90794  34.769  12.242  10.721
19266W        W90795   4.734  19.830   1.144
19267W        W90796  27.589  42.933  10.935
19268W        W90797  28.470   5.429  14.898
19269W        W90798  11.060  19.033   0.700
19270W        W90799  32.555  10.276  13.348
19271W        W90800   5.490   1.548  11.316
19272W        W90801   5.981  36.983  11.892
19273W        W90802  24.917  30.514  11.140
19274W        W90803  28.918  24.389   1.713
19275W        W90804  22.588  30.948   4.672
19276W        W90805  12.088  26.686  14.227
19277W        W90806  22.075  13.969  13.381
19278W        W90807   2.672  26.937  11.548
19279W        W90808   2.415  23.840   4.052
19280W        W90809  34.968   7.203   1.213
19281W        W90810  43.773  27.923  12.536
19282W        W90811  34.659  27.653  10.721
19283W        W90812   2.742   7.085   3.337
19284W        W90813  39.012  19.884   4.631
19285W        W90814  10.287  29.376   2.319
19286W        W90815  15.830   3.698  13.459
19287W        W90816  13.393  15.102   2.153
19288W        W90817  24.649  41.854   0.402
19289W        W90818  28.375  42.539   2.101
19290W        W90819  14.431  30.410  13.541
19291W        W90820  18.561   6.929  12.010
19292W        W90821   1.781  36.939  14.347
19293W        W90822  22.023  22.587  12.563
19294W        W90823  15.622   5.681  12.859
19295W        W90824   7.385  16.035  14.839
19296W        W90825  41.337  15.292  14.413
19297W        W90826  44.951   6.958  14.470
19298W        W90827   7.910  10.254   5.012
19299W        W90828  29.935  16.680   4.752
19300W        W90829  12.808  27.167  14.010
19301W        W90830  44.773  32.959  14.758
19302W        W90831  40.911   1.036  10.708
19303W        W90832  42.751  41.562  13.953
19304W        W90833  28.787  12.510   1.394
19305W        W90834  37.978  14.367   2.809
19306W        W90835  23.266  39.389  10.866
19307W        W90836  33.116   8.852   3.615
19308W        W90837   1.849  22.124   4.775
19309W        W90838  23.558  27.252  13.047
19310W        W90839  13.895  10.311  14.313
19311W        W90840  21.705  24.604   3.248
19312W        W90841   2.999   7.844   4.627
19313W        W90842   1.329  34.815  13.576
19314W        W90843  42.355  44.562   2.089
19315W        W90844   8.322  18.881   3.783
19316W        W90845  23.705  36.803   3.897
19317W        W90846  10.269  32.060   1.402
19318W        W90847  24.214  32.012   0.469
19319W        W90848  41.045  42.348  13.751
19320W        W90849  23.217  22.242  11.955
19321W        W90850   0.924  19.133   4.908
19322W        W90851   1.430  22.255  14.542
19323W        W90852  22.676  12.389  13.367
19324W        W90853  17.354  44.810  10.992
19325W        W90854  33.558  10.300   3.583
19326W        W90855   4.863  30.095  13.996
19327W        W90856   6.751  18.487  11.292
19328W        W90857  21.602  36.079  12.029
19329W        W90858  41.797  16.574  12.011
19330W        W90859  41.919  26.675  14.288
19331W        W90860  32.504  24.959  12.899
19332W        W90861  10.931  39.508   1.480
19333W        W90862  15.544  14.137   1.358
19334W        W90863   0.908  33.668  11.550
19335W        W90864  16.687  39.043   3.648
19336W        W90865   8.833  11.321  12.538
19337W        W90866  32.884  43.020  14.684
19338W        W90867  20.554  37.884  10.145
19339W        W90868  40.297  22.294   4.299
19340W        W90869   6.285  12.421   4.110
19341W        W90870  34.971  41.652  10.062
19342W        W90871  33.105   4.237   2.663
19343W        W90872  36.867  43.606  13.836
19344W        W90873  43.986  35.308  12.406
19345W        W90874   6.383  28.660   0.858
19346W        W90875  43.221   8.202  11.633
19347W        W90876  22.479  17.631  11.045
19348W        W90877  14.170  36.814   0.767
19349W        W90878   7.770  28.678   3.693
19350W        W90879  35.641  19.819  11.919
19351W        W90880  40.400   3.115   4.373
19352W        W90881  43.334  25.322  10.175
19353W        W90882  10.448  43.811  13.507
19354W        W90883   1.368  13.247   4.714
19355W        W90884  17.527   9.204   2.460
19356W        W90885   4.020  33.888  11.163
19357W        W90886  37.383  22.006  13.013
19358W        W90887   5.201   2.487   2.612
19359W        W90888  21.542  41.771  14.794
19360W        W90889  16.803  31.514  14.322
19361W        W90890  32.341  16.783   2.524
19362W        W90891  10.597  17.243  11.507
19363W        W90892  17.322   6.419  12.556
19364W        W90893  32.624  15.513   5.406
19365W        W90894  40.088  10.802  14.836
19366W        W90895  21.229  15.786  11.044
19367W        W90896  11.248  42.467   1.609
19368W        W90897  26.664  16.043   2.636
19369W        W90898  36.137  34.907  13.432
19370W        W90899   4.784  17.753   5.439
19371W        W90900  20.554   0.425  11.501
19372W        W90901   6.377  13.537   2.817
19373W        W90902  36.463   7.890   2.288
19374W        W90903  16.564  40.947  11.134
19375W        W90904  26.988   2.537  13.074
19376W        W90905  16.693   0.918  11.768
19377W        W90906  40.835  44.238   2.428
19378W        W90907  27.699  17.830   4.812
19379W        W90908   1.649  29.522  14.221
19380W        W90909  30.221  25.491  11.058
19381W        W90910  27.984  33.616   4.189
19382W        W90911  17.563  20.202   0.449
19383W        W90912   0.959  34.478   2.377
19384W        W90913   9.090  20.998  12.994
19385W        W90914  13.274  25.633   2.238
19386W        W90915   0.889   5.848  14.370
19387W        W90916   0.744  20.204  13.451
19388W        W90917  18.866   4.254   1.878
19389W        W90918  12.968   4.496  11.894
19390W        W90919  33.394  24.218  12.916
19391W        W90920   7.257   5.430   3.125
19392W        W90921  38.481   1.681   3.898
19393W        W90922  15.186  15.104  11.960
19394W        W90923  27.390   8.310   2.233
19395W        W90924  33.130  30.636   3.387
19396W        W90925  44.151  23.555   0.429
19397W        W90926  18.371  20.525  12.040
19398W        W90927  17.210  10.837   2.149
19399W        W90928   9.284  10.067   1.413
19400W        W90929  39.329   4.762   0.325
19401W        W90930  27.139  19.199   4.326
19402W        W90931  11.387  30.938  10.627
19403W        W90932  39.856  29.929  13.359
19404W        W90933  22.562   3.308   4.982
19405W        W90934  35.895  18.824   0.901
19406W        W90935   3.385  15.235   1.288
19407W        W90936  29.710  30.548   3.782
19408W        W90937   9.417  36.533  13.965
19409W        W90938  23.694  28.663  11.135
19410W        W90939   0.496   6.663  11.936
19411W        W90940  26.988  43.478  12.462
19412W        W90941  23.724  31.384   1.785
19413W        W90942  21.337  34.146   0.802
19414W        W90943  20.990  16.604   3.650
19415W        W90944  30.505  12.443   5.431
19416W        W90945  38.580   0.401   3.178
19417W        W90946   7.762  21.413  13.361
19418W        W90947  23.084  13.162   0.009
19419W        W90948  16.000  18.620   3.092
19420W        W90949  24.602  27.554  12.656
19421W        W90950  20.620  14.883  12.477
19422W        W90951  20.505   3.072  14.794
19423W        W90952   6.839  36.405  13.587
19424W        W90953  15.865  18.102  14.329
19425W        W90954  12.361  15.532   2.086
19426W        W90955  38.388   0.790   2.278
19427W        W90956  26.098  36.670   2.201
19428W        W90957  42.167  26.618   4.365
19429W        W90958  21.559  37.957   0.443
19430W        W90959  34.028  36.030   0.074
19431W        W90960  18.765  16.084  11.449
19432W        W90961  11.671  38.872  11.021
19433W        W90962  10.339  12.680  11.754
19434W        W90963  38.920  31.438   0.533
19435W        W90964  39.313  24.603  10.919
19436W        W90965   0.951   2.699  14.776
19437W        W90966  21.182  10.933   3.653
19438W        W90967   8.336  38.625   4.501
19439W        W90968  42.170   9.302   0.642
19440W        W90969   0.773  42.349  11.493
19441W        W90970  37.217  13.125   3.776
19442W        W90971   4.540   0.317   2.224
19443W        W90972  20.003  35.060   2.219
19444W        W90973  35.630   3.163  14.970
19445W        W90974  15.423   1.246   3.944
19446W        W90975  29.408  22.977   2.616
19447W        W90976   5.835   4.762   3.587
19448W        W90977  40.513  35.375   0.432
19449W        W90978  18.767   7.884  10.789
19450W        W90979  21.596   2.716   0.365
19451W        W90980  29.149  16.786  11.674
19452W        W90981  24.351  22.614   0.459
19453W        W90982  20.962  27.708   4.201
19454W        W90983  32.126  28.700   2.214
19455W        W90984  15.728  24.962  14.533
19456W        W90985   2.209  36.308   0.947
19457W        W90986  33.122  28.378   0.721
19458W        W90987  35.658  28.153  12.569
19459W        W90988  38.085   8.719   1.399
19460W        W90989  17.099   6.409   4.546
19461W        W90990   7.143  40.426   2.124
19462W        W90991   9.186   5.443   3.903
19463W        W90992   8.971  42.211   4.109
19464W        W90993  38.688  26.192  13.109
19465W        W90994   1.944  11.275  10.591
19466W        W90995  26.426  33.494   2.556
19467W        W90996  28.415  28.937   4.605
19468W        W90997  19.227  25.151   2.332
19469W        W90998  19.220  33.984   3.771
19470W        W90999  15.228   7.519   9.834
19471W        W91000  16.598  17.062  14.920
19472W        W91001  39.419  11.307  12.488
19473W        W91002   9.646  21.082   2.600
19474W        W91003  41.866  29.762   0.776
19475W        W91004  24.564  26.669   1.673
19476W        W91005   4.738  20.733  14.966
19477W        W91006  43.902  16.586  10.922
19478W        W91007   1.001  39.363  11.531
19479W        W91008  16.311  26.883   4.259
19480W        W91009  37.903   9.634  12.012
19481W        W91010  25.038  36.994   0.676
19482W        W91011  26.953   9.295   3.304
19483W        W91012  23.939   8.341  13.977
19484W        W91013  37.810   0.976   1.211
19485W        W91014   3.491  22.771   3.762
19486W        W91015  25.902  33.455  14.814
19487W        W91016  41.003  40.324   0.526
19488W        W91017  13.284  19.422   0.624
19489W        W91018  42.937   3.354  10.335
19490W        W91019  18.245  40.308   3.074
19491W        W91020  42.482   7.207   3.390
19492W        W91021  22.149  19.501  12.772
19493W        W91022  18.086  19.160  13.768
19494W        W91023  11.240  13.268   4.665
19495W        W91024  13.676  41.056   0.198
19496W        W91025  11.894  37.441   0.211
19497W        W91026  37.873  36.966  13.924
19498W        W91027   2.048   7.137   1.106
19499W        W91028  37.792  35.490  12.924
19500W        W91029  31.145   7.230  11.536
19501W        W91030  15.752  21.184   1.069
19502W        W91031  34.322  31.578   1.788
19503W        W91032  38.919  39.467  12.989
19504W        W91033   5.213  44.047   0.858
19505W        W91034  15.960  13.088  13.226
19506W        W91035  21.132   1.553  13.657
19507W        W91036   7.385   2.604  10.946
19508W        W91037  37.958  44.514  13.011
19509W        W91038  14.732   6.717  11.994
19510W        W91039  11.731  11.916  11.242
19511W        W91040  25.479   7.651  10.647
19512W        W91041   7.854  29.138   3.367
19513W        W91042  31.588   4.620  10.550
19514W        W91043  20.510  32.585   0.926
19515W        W91044  27.629  27.580   1.191
19516W        W91045  36.078   2.705  12.664
19517W        W91046   6.452  28.689  13.493
19518W        W91047  17.262  41.854   3.757
19519W        W91048  29.441  32.241  12.588
19520W        W91049  15.755  33.501   2.250
19521W        W91050  13.390  34.834  11.083
19522W        W91051  11.662  29.599  10.170
19523W        W91052   7.569  23.708  13.405
19524W        W91053   8.449  44.065  13.861
19525W        W91054  11.068  20.283   3.587
19526W        W91055  41.082  41.949   0.882
19527W        W91056  17.031  22.597   1.901
19528W        W91057  19.642  34.067   4.146
19529W        W91058  24.314  33.822   4.732
19530W        W91059  41.332   6.384   4.839
19531W        W91060   6.116  36.087  14.480
19532W        W91061   0.912  11.756   4.813
19533W        W91062  43.444  28.282   4.476
19534W        W91063  13.776  31.019  11.479
19535W        W91064  25.260  32.011   0.687
19536W        W91065  16.529   1.721   3.337
19537W        W91066  28.300  16.598   3.142
19538W        W91067   3.625  26.112   1.613
19539W        W91068  31.714   9.214   3.740
19540W        W91069  34.402  22.695   4.678
19541W        W91070  22.308  21.163   4.409
19542W        W91071  25.935   8.703   2.636
19543W        W91072  18.076  44.074  12.464
19544W        W91073  24.549  31.365  12.451
19545W        W91074  27.996  33.675   3.315
19546W        W91075   4.361  40.030   3.864
19547W        W91076  32.582  25.062   4.034
19548W        W91077   0.440  35.494  10.735
19549W        W91078  24.073  30.600   0.440
19550W        W91079  25.291  30.341   2.059
19551W        W91080  28.449  44.878   3.561
19552W        W91081  18.708  41.548  10.507
19553W        W91082   7.492   8.843   0.379
19554W        W91083   9.852  36.126  10.855
19555W        W91084   5.432  16.657  14.495
19556W        W91085  11.140  26.720   4.557
19557W        W91086  28.552  21.637  14.959
19558W        W91087   1.868  10.366  12.641
19559W        W91088  12.453  23.616   2.922
19560W        W91089  30.199  12.903   3.653
19561W        W91090   9.277  17.707  11.379
19562W        W91091  19.486  34.692   4.557
19563W        W91092   4.115  34.887  12.018
19564W        W91093  24.608   4.977  11.722
19565W        W91094  35.191  44.195  14.214
19566W        W91095   4.775  29.667  13.584
19567W        W91096  20.725  34.543   3.064
19568W        W91097  28.894   6.307   4.122
19569W        W91098  33.130  19.195   1.652
19570W        W91099  38.977   6.265   4.901
19571W        W91100  34.817   2.719   2.264
19572W        W91101  21.120  44.974   1.296
19573W        W91102  39.249  33.599  10.136
19574W        W91103   8.268  27.144  11.165
19575W        W91104  38.001  20.702   4.630
19576W        W91105  39.740  39.260   4.165
19577W        W91106  22.198  11.489  14.334
19578W        W91107  16.319  15.032  11.109
19579W        W91108  33.966  22.623  12.888
19580W        W91109  41.748  31.483  14.426
19581W        W91110  44.833  20.724   3.694
19582W        W91111  34.387  32.846  11.664
19583W        W91112  44.005  31.490  14.346
19584W        W91113  23.230  17.625   0.016
19585W        W91114   4.451  37.006  13.877
19586W        W91115   2.405   1.355  14.775
19587W        W91116  36.715   3.827   2.008
19588W        W91117   8.313  25.704  11.798
19589W        W91118  36.925  23.360  13.074
19590W        W91119  41.429   0.448  13.043
19591W        W91120   1.962  12.890  13.941
19592W        W91121  33.738  44.836   2.451
19593W        W91122  22.338   2.131  13.327
19594W        W91123  17.289  25.186   0.922
19595W        W91124  28.113  16.481  13.508
19596W        W91125  42.410  12.075   1.986
19597W        W91126  41.002   0.612  12.193
19598W        W91127   4.438  22.576   3.584
19599W        W91128   6.863  18.626   1.818
19600W        W91129  14.977  43.713  13.059
19601W        W91130  17.133   5.978   2.978
19602W        W91131  15.388   5.218   3.927
19603W        W91132  38.808  16.937  11.860
19604W        W91133   6.829  44.663   3.563
19605W        W91134  39.469  43.701   3.744
19606W        W91135  39.563  28.448   4.100
19607W        W91136   5.394  16.359   1.350
19608W        W91137  15.989  28.883  11.111
19609W        W91138  42.624  20.504  11.116
19610W        W91139  39.379   8.879  11.956
19611W        W91140  20.179  32.482   4.733
19612W        W91141   8.898  11.251  13.939
19613W        W91142  38.819  19.641   0.158
19614W        W91143  43.372  33.592  11.147
19615W        W91144  22.543   1.762   4.124
19616W        W91145  11.616  25.330   1.759
19617W        W91146   9.353  20.706  13.338
19618W        W91147  26.753  32.378   3.278
19619W        W91148  18.566  32.587  13.346
19620W        W91149  42.942  26.609   4.104
19621W        W91150  21.015  40.030   2.226
19622W        W91151  11.863  13.145   1.426
19623W        W91152  28.714  33.415  10.921
19624W        W91153   6.317  36.167   0.337
19625W        W91154  24.059  42.835  13.738
19626W        W91155   7.962  16.334   2.138
19627W        W91156  28.915   7.515  12.662
19628W        W91157  15.064  23.732  12.345
19629W        W91158  31.374  34.089   0.210
19630W        W91159  16.800  25.491   3.370
19631W        W91160  28.180   9.183   0.516
19632W        W91161  31.144  30.487   4.597
19633W        W91162  17.954  26.082  13.042
19634W        W91163  13.526  26.548   1.485
19635W        W91164   7.720   4.433  11.389
19636W        W91165  18.600   7.186   3.816
19637W        W91166  37.310  19.320  11.532
19638W        W91167   9.482  21.448  13.825
19639W        W91168   7.675  16.388  12.159
19640W        W91169  23.429  14.264  11.532
19641W        W91170  29.577  21.206   1.277
19642W        W91171  22.989  20.178   0.267
19643W        W91172  31.461  39.017  14.873
19644W        W91173  26.330  44.929   2.388
19645W        W91174  12.568  25.694   1.862
19646W        W91175  44.684   1.419  12.010
19647W        W91176   9.037  26.525   0.465
19648W        W91177  42.020  11.114   0.015
19649W        W91178  25.193  25.116   0.280
19650W        W91179  37.541  37.301  10.235
19651W        W91180   7.085  32.428   0.751
19652W        W91181   2.437  41.990   2.767
19653W        W91182  34.537  43.707   3.329
19654W        W91183  35.030   1.352  12.039
19655W        W91184  23.135   1.349  11.401
19656W        W91185  31.607  30.680  14.045
19657W        W91186  19.705  39.398   2.472
19658W        W91187  30.475  40.087   1.621
19659W        W91188  15.737  17.163  10.827
19660W        W91189  21.775  25.504  11.094
19661W        W91190  22.678  33.392  12.776
19662W        W91191  14.668  20.769  13.161
19663W        W91192  25.585  43.322  13.082
19664W        W91193   4.690  38.073  11.664
19665W        W91194  13.094  42.250   3.898
19666W        W91195  21.578  21.752  12.126
19667W        W91196  35.484  18.994  12.872
19668W        W91197  40.547  42.272  14.842
19669W        W91198  44.388  31.465  13.915
19670W        W91199  30.870  21.553   3.673
19671W        W91200  40.945  32.051  14.082
19672W        W91201  18.521  42.291   4.655
19673W        W91202   2.679  24.642   1.524
19674W        W91203  14.782  41.811   1.201
19675W        W91204  21.671  21.165   4.802
19676W        W91205   0.040   0.618  12.949
19677W        W91206  35.013  15.850  14.476
19678W        W91207  28.537  26.919  10.522
19679W        W91208  44.992  17.712   2.343
19680W        W91209   4.180  19.792   2.932
19681W        W91210  14.633  34.135  11.917
19682W        W91211  44.920   0.816   3.832
19683W        W91212   8.128  35.618  10.961
19684W        W91213  17.152   1.095   0.352
19685W        W91214  14.128  44.765  10.500
19686W        W91215  20.718  30.091  12.282
19687W        W91216   2.296   1.285   4.062
19688W        W91217  29.721  42.383  14.387
19689W        W91218  33.164  44.199  12.393
19690W        W91219  21.006  44.621  11.367
19691W        W91220  14.763  18.274   0.726
19692W        W91221  42.687  44.898  12.428
19693W        W91222   3.977  29.432  11.975
19694W        W91223  42.920   7.644  12.383
19695W        W91224  36.389  39.842  12.767
19696W        W91225  38.882  19.461  11.106
19697W        W91226  21.053   0.713   0.889
19698W        W91227   1.200   6.714   1.459
19699W        W91228  20.471  33.513  12.403
19700W        W91229  34.293  26.882  14.015
19701W        W91230  21.224   0.840  14.054
19702W        W91231   0.059  18.270   4.954
19703W        W91232  22.513  16.352  11.608
19704W        W91233  43.506  36.401   2.327
19705W        W91234  42.657  29.258  13.953
19706W        W91235   6.621  23.376   3.317
19707W        W91236  22.004  43.358   3.820
19708W        W91237  24.263  26.412   3.234
19709W        W91238  22.222  41.875   3.079
19710W        W91239  43.720  26.756   4.072
19711W        W91240  30.267  30.031   3.122
19712W        W91241   4.245  40.267   1.843
19713W        W91242  39.785   9.504  13.380
19714W        W91243  11.384  14.093   0.958
19715W        W91244   9.919   0.447   1.316
19716W        W91245   7.257   1.732  12.394
19717W        W91246   7.690   3.755   4.312
19718W        W91247  23.143  44.930   3.375
19719W        W91248  30.506  31.426  11.550
19720W        W91249  17.248  28.367  11.208
19721W        W91250  14.209  30.005   2.253
19722W        W91251   3.654  39.962  14.976
19723W        W91252  24.571  18.188   2.919
19724W        W91253  30.142  36.457  10.514
19725W        W91254  23.698  16.769  13.464
19726W        W91255  14.129  28.175   4.108
19727W        W91256  13.347  34.941  11.994
19728W        W91257   0.039   6.662  12.426
19729W        W91258  21.297  24.575  12.135
19730W        W91259  42.502  34.567  12.812
19731W        W91260  33.017  14.049   2.065
19732W        W91261   1.478  10.431  11.081
19733W        W91262  31.002   2.307   3.378
19734W        W91263   1.375  33.410   4.369
19735W        W91264   3.907  39.625   4.752
19736W        W91265  23.200  41.456   0.285
19737W        W91266  12.349   0.346  13.245
19738W        W91267  24.666  34.129   2.814
19739W        W91268  33.485  20.487  13.951
19740W        W91269  38.920  27.203  13.766
19741W        W91270   2.302   0.864   0.011
19742W        W91271  41.209  21.280   3.560
19743W        W91272  35.440  38.023   0.874
19744W        W91273  11.849  19.847  11.145
19745W        W91274  20.082  19.196   4.611
19746W        W91275  24.143   0.475  12.386
19747W        W91276  36.944   0.372   1.965
19748W        W91277   1.906  26.445  11.321
19749W        W91278  38.362  27.056   0.180
19750W        W91279  12.693  15.283   3.719
19751W        W91280  42.820  10.390  10.387
19752W        W91281  12.739  33.509   3.094
19753W        W91282  38.118  28.370  11.107
19754W        W91283  13.536  28.423   2.445
19755W        W91284  36.117  33.438   4.351
19756W        W91285   5.846  40.776   3.469
19757W        W91286   3.357   0.330  11.733
19758W        W91287  17.705  38.894   2.267
19759W        W91288   5.002  43.742  14.363
19760W        W91289  11.920   1.748  12.539
19761W        W91290  22.989  39.170  11.687
19762W        W91291   6.154  27.121   4.516
19763W        W91292  18.164  13.425  13.931
19764W        W91293  12.335   6.732   2.173
19765W        W91294   0.740  38.854  14.070
19766W        W91295  28.726  22.617   4.021
19767W        W91296  29.888  44.989   0.861
19768W        W91297  41.475   2.799   1.552
19769W        W91298  17.098  14.609   3.734
19770W        W91299   1.314  25.999   1.988
19771W        W91300  32.656  14.827  10.970
19772W        W91301  22.947  20.140  14.372
19773W        W91302  10.699  30.602  14.944
19774W        W91303  29.970  11.329  12.452
19775W        W91304   3.635  21.108   3.145
19776W        W91305  28.338  11.074   3.673
19777W        W91306  43.346  15.628   1.699
19778W        W91307  16.765   3.347  12.329
19779W        W91308  16.534  34.974   2.567
19780W        W91309  30.080  43.628  14.144
19781W        W91310  23.551  12.879   2.387
19782W        W91311  11.075  12.669  12.478
19783W        W91312  35.429  39.951   1.843
19784W        W91313  10.692  22.039  10.678
19785W        W91314   4.456   0.803   1.938
19786W        W91315  17.576  42.994   4.151
19787W        W91316  40.996  39.019   1.381
19788W        W91317  11.233   8.380   4.085
19789W        W91318  10.744  12.590  12.078
19790W        W91319   1.407  19.012   3.648
19791W        W91320  11.864  34.315   2.186
19792W        W91321  20.705  37.664  12.651
19793W        W91322   0.873   0.018  11.075
19794W        W91323  10.413  44.481   2.710
19795W        W91324  28.000  38.012   3.896
19796W        W91325  36.204   5.393  14.099
19797W        W91326  26.842  18.819   1.691
19798W        W91327  27.747   1.867   0.553
19799W        W91328   3.351  42.918  10.583
19800W        W91329  28.703  26.206   3.177
19801W        W91330  19.831  27.887  14.928
19802W        W91331  20.872  14.174   3.379
19803W        W91332  16.741  26.747  12.325
19804W        W91333  42.873  20.214  13.473
19805W        W91334  29.093  25.037  10.764
19806W        W91335  21.794  44.800  12.957
19807W        W91336  18.913  17.471  13.574
19808W        W91337  27.727  29.999  13.047
19809W        W91338  16.228  29.171   1.719
19810W        W91339  11.771  12.183  10.682
19811W        W91340  27.870  34.854   5.343
19812W        W91341  28.957  41.102  11.219
19813W        W91342  18.576  42.248   3.300
19814W        W91343  34.544  40.041   1.612
19815W        W91344  32.481  10.288   4.529
19816W        W91345   0.568   3.970   0.311
19817W        W91346  33.057  38.934  13.693
19818W        W91347   6.756  16.291   3.689
19819W        W91348  39.077  12.871   1.445
19820W        W91349   4.093  38.658  11.914
19821W        W91350  26.777  13.330  13.898
19822W        W91351  32.024  22.939   1.915
19823W        W91352  19.281  44.309   1.207
19824W        W91353  43.290  24.783  12.197
19825W        W91354  43.288  33.061  14.272
19826W        W91355   0.165  22.053  14.031
19827W        W91356  30.643  20.351   0.517
19828W        W91357   0.194   6.266   1.279
19829W        W91358  24.211  41.447  11.122
19830W        W91359  34.759  38.084   3.144
19831W        W91360   3.444  13.916  11.570
19832W        W91361  21.069   3.418   0.668
19833W        W91362   2.016   9.904  12.414
19834W        W91363  25.929  10.134   4.700
19835W        W91364  40.434   0.273  14.522
19836W        W91365  19.005  13.359   3.061
19837W        W91366  36.555  44.684   0.063
19838W        W91367  16.314   0.958   1.440
19839W        W91368  19.607  44.738   3.617
19840W        W91369  37.036  22.078  11.683
19841W        W91370   2.961  11.535  11.887
19842W        W91371   6.369   7.972  14.317
19843W        W91372   7.946  27.108  13.296
19844W        W91373  33.605  41.981   4.683
19845W        W91374   1.898  28.930  13.360
19846W        W91375  15.067  10.639   4.052
19847W        W91376  35.108   2.264   1.068
19848W        W91377  36.311  23.064  14.745
19849W        W91378   9.738  24.179   1.674
19850W        W91379  32.790   1.994   0.185
19851W        W91380  27.800  35.471   2.416
19852W        W91381  32.531  24.473   1.843
19853W        W91382  27.746  17.932   1.975
19854W        W91383  16.746  21.702   2.990
19855W        W91384  41.621  16.080   3.637
19856W        W91385   1.830  36.636   2.241
19857W        W91386   3.859   3.937  14.484
19858W        W91387  36.516  25.940  14.366
19859W        W91388   4.833  20.234   4.927
19860W        W91389  19.960  36.948   3.699
19861W        W91390   5.197  38.529   0.486
19862W        W91391   1.029  29.334   2.700
19863W        W91392  43.112  26.095  13.139
19864W        W91393   1.279  17.356   2.846
19865W        W91394  31.654  14.142   2.504
19866W        W91395  27.485  19.748   3.734
19867W        W91396   3.871  25.517   0.858
19868W        W91397  35.908  39.539   0.794
19869W        W91398  27.570  11.541  11.643
19870W        W91399   5.297   5.530   2.807
19871W        W91400   8.647  17.836  11.921
19872W        W91401  41.573  44.278  14.810
19873W        W91402   9.564  30.088   3.819
19874W        W91403  34.307  26.027   5.124
19875W        W91404  28.218   8.294   3.436
19876W        W91405  18.293  21.666  12.656
19877W        W91406  21.275  17.061   3.588
19878W        W91407  20.146  38.052  14.472
19879W        W91408  39.839  36.948  11.066
19880W        W91409   1.962  41.757   4.502
19881W        W91410  10.112  17.365  11.436
19882W        W91411  36.169   2.193  13.988
19883W        W91412   5.884  10.405  12.541
19884W        W91413  36.171   7.835  14.315
19885W        W91414  25.652  43.378   3.297
19886W        W91415   3.329  18.651   0.749
19887W        W91416  27.654  26.811   1.728
19888W        W91417  42.319  11.173  12.612
19889W        W91418  15.495  44.015   1.140
19890W        W91419  11.880  33.541   3.141
19891W        W91420  12.413  37.935   4.056
19892W        W91421  38.444   6.571  12.976
19893W        W91422  26.509  11.805  12.391
19894W        W91423  21.278  33.861   1.340
19895W        W91424  35.593  30.684   4.232
19896W        W91425  16.704  35.680  12.065
19897W        W91426  13.978  25.083   3.272
19898W        W91427  37.391   5.814   1.860
19899W        W91428  30.930   5.401  11.435
19900W        W91429  33.039  20.586  13.028
19901W        W91430  21.764   5.879   4.199
19902W        W91431  33.370   2.471   4.511
19903W        W91432  22.249  19.163   1.419
19904W        W91433  43.376  14.824  13.543
19905W        W91434  13.561   7.792   2.486
19906W        W91435  14.611  24.754   3.064
19907W        W91436   3.458  35.521  11.369
19908W        W91437  34.395  19.139   3.580
19909W        W91438  14.767   2.368   2.249
19910W        W91439  12.353  28.188   4.565
19911W        W91440  44.861  40.360  14.418
19912W        W91441  35.065  30.882  13.943
19913W        W91442  24.047   9.266  12.124
19914W        W91443  37.873   2.982   3.821
19915W        W91444  32.067   1.508   1.115
19916W        W91445  13.954  16.313   3.960
19917W        W91446  36.397  10.860   0.858
19918W        W91447  21.029   3.287  12.499
19919W        W91448  44.507  43.931   0.553
19920W        W91449  28.837  30.650   2.854
19921W        W91450  30.183  18.615  10.635
19922W        W91451  13.177  30.408  10.561
19923W        W91452  19.763   9.672  13.262
19924W        W91453  17.352  30.145  10.683
19925W        W91454  21.125  18.649   5.121
19926W        W91455  36.908  25.168  10.658
19927W        W91456  10.746   9.154   3.578
19928W        W91457   9.997   6.534  12.527
19929W        W91458  24.479  38.479  12.931
19930W        W91459   6.257   5.562   2.079
19931W        W91460  43.754   3.051   2.694
19932W        W91461  11.944  15.629   1.487
19933W        W91462   6.935  29.634   2.345
19934W        W91463  16.291  39.207  14.054
19935W        W91464  37.012  27.121  11.583
19936W        W91465  16.132  10.858  10.946
19937W        W91466  23.887  37.690   5.135
19938W        W91467  15.188  26.477  13.455
19939W        W91468  15.595   7.910   4.597
19940W        W91469  23.481  22.783   0.276
19941W        W91470  27.218  21.123  13.912
19942W        W91471  23.626  23.599   3.150
19943W        W91472  22.537   6.144   4.668
19944W        W91473  38.179  16.888  10.085
19945W        W91474  14.584  19.648  11.555
19946W        W91475  19.519  38.610   1.306
19947W        W91476   1.297  14.972   3.580
19948W        W91477  42.975  17.294  14.802
19949W        W91478   6.986   4.464  11.959
19950W        W91479   6.421  39.905   3.634
19951W        W91480  40.421  43.912   1.684
19952W        W91481  16.637   3.887   2.616
19953W        W91482  44.096   1.908   3.723
19954W        W91483  42.235  17.263  14.465
19955W        W91484   0.724   2.426  14.353
19956W        W91485  36.204  28.075   2.272
19957W        W91486  30.988  10.729   0.378
19958W        W91487   9.836  27.098   1.962
19959W        W91488  44.374  24.696   1.029
19960W        W91489  31.182  33.496  14.748
19961W        W91490   1.929  34.773  13.994
19962W        W91491  13.486   4.192   4.202
19963W        W91492  13.855   5.682  13.343
19964W        W91493  40.832  12.361   3.670
19965W        W91494  37.990  35.775  12.046
19966W        W91495  11.380   4.385   2.762
19967W        W91496  40.551  43.036   3.840
19968W        W91497  15.832  24.612  13.461
19969W        W91498  11.451   6.898  11.055
19970W        W91499   9.760  20.507  10.439
19971W        W91500   4.726  27.045  13.892
19972W        W91501   3.297  17.051   3.930
19973W        W91502  12.344  11.336  11.834
19974W        W91503   4.013   5.926  14.829
19975W        W91504  38.615  11.664   3.599
19976W        W91505  36.294  29.432  13.919
19977W        W91506  22.942  44.878  11.636
19978W        W91507  43.010  12.891   0.244
19979W        W91508  29.582   6.100   3.602
19980W        W91509   8.882   2.800   2.440
19981W        W91510  34.898  21.676  12.556
19982W        W91511  20.669  43.924  12.397
19983W        W91512  16.602  19.082  11.113
19984W        W91513   8.376   6.203   0.490
19985W        W91514  39.780   7.382   0.325
19986W        W91515  34.566  13.491   4.556
19987W        W91516  10.030  29.457  11.531
19988W        W91517  23.978  32.947  12.320
19989W        W91518  19.346   3.383  12.084
19990W        W91519  23.569  26.726   4.886
19991W        W91520  16.363   8.320   0.424
19992W        W91521   0.372   4.802  11.055
19993W        W91522  15.505  43.749   1.634
19994W        W91523  23.114  37.984   0.207
19995W        W91524   5.859   2.162  13.582
19996W        W91525  34.973   0.817   0.438
19997W        W91526  32.214  39.018  13.946
19998W        W91527  42.561  12.146  12.892
19999W        W91528  39.223   5.343  14.493
20000W        W91529  36.351  44.368  12.469
20001W        W91530  32.471  42.085  11.784
20002W        W91531  39.844  22.619  14.900
20003W        W91532  41.600  34.039   2.991
20004W        W91533  39.340  12.307  13.817
20005W        W91534  33.446  15.556  12.395
20006W        W91535   9.963  26.669  10.626
20007W        W91536   6.430  20.319   4.464
20008W        W91537  20.524  24.457   1.063
20009W        W91538  31.483  16.117   2.249
20010W        W91539  21.196  31.441   1.848
20011W        W91540  23.984  32.617  14.395
20012W        W91541  31.488  20.822  10.402
20013W        W91542  12.371  33.822   1.363
20014W        W91543  37.119  43.703  13.375
20015W        W91544  32.658  36.103  11.913
20016W        W91545  42.652  23.998  14.919
20017W        W91546  21.064  40.976  14.838
20018W        W91547  44.901  23.913  13.690
20019W        W91548  29.042   6.298  12.095
20020W        W91549   5.424   2.042  11.463
20021W        W91550  24.769  35.130   3.658
20022W        W91551   6.464   2.925  12.097
20023W        W91552  41.932  29.461  12.917
20024W        W91553  11.786  18.751  12.451
20025W        W91554  26.895  37.488  11.650
20026W        W91555  12.113   5.792   4.617
20027W        W91556  13.318   9.178   4.632
20028W        W91557  44.691  27.052   0.475
20029W        W91558   1.659  43.266   0.387
20030W        W91559  15.263  11.681   2.301
20031W        W91560   1.874  40.670  10.742
20032W        W91561  34.566   4.077  13.342
20033W        W91562  36.415  41.283   3.717
20034W        W91563  28.132   2.908  13.793
20035W        W91564  15.364  31.494   1.932
20036W        W91565  41.390  30.346  14.040
20037W        W91566  38.458   0.743   3.565
20038W        W91567  41.521  42.997  13.275
20039W        W91568  17.285  36.826   4.035
20040W        W91569  33.826  22.961   1.528
20041W        W91570  11.863  40.469  13.056
20042W        W91571  18.665  21.069   0.719
20043W        W91572  16.215   0.209   3.114
20044W        W91573  36.485  39.290  14.489
20045W        W91574  21.664  28.870  13.224
20046W        W91575  14.676  31.634  12.249
20047W        W91576  38.295  27.142   1.355
20048W        W91577   8.687   9.121   1.887
20049W        W91578   9.198  10.894   0.191
20050W        W91579  21.069  16.191   1.143
20051W        W91580  16.899   8.055  10.283
20052W        W91581  29.711  17.701  10.873
20053W        W91582   4.406  19.964  11.162
20054W        W91583  29.113  10.739   0.768
20055W        W91584  44.081  16.123  11.107
20056W        W91585  16.502  34.181  12.056
20057W        W91586  10.673   2.503  12.398
20058W        W91587  15.639   6.885   2.812
20059W        W91588   2.964  10.613  11.871
20060W        W91589  38.560  34.411   2.172
20061W        W91590  38.195   5.611  13.081
20062W        W91591  35.026   8.303   0.761
20063W        W91592  23.746  42.432   0.955
20064W        W91593  17.283  14.283   5.123
20065W        W91594   5.221  13.287   0.055
20066W        W91595   2.374  36.464   2.833
20067W        W91596  42.492  12.162  14.263
20068W        W91597  22.210   7.148   0.161
20069W        W91598   4.965   6.497  11.117
20070W        W91599  10.288  10.058  14.308
20071W        W91600  37.643  19.947   2.748
20072W        W91601  30.027  20.629  13.021
20073W        W91602  17.672  34.587   0.284
20074W        W91603  39.694  30.948  10.676
20075W        W91604   4.920  24.857  11.384
20076W        W91605  44.841   4.894   4.738
20077W        W91606  42.473  21.812  11.614
20078W        W91607   1.850  15.817  14.494
20079W        W91608   5.325  16.298  14.007
20080W        W91609  36.483   5.677   3.731
20081W        W91610  19.016  12.770  13.432
20082W        W91611  31.257  37.615   1.332
20083W        W91612  42.528  34.161  11.100
20084W        W91613  43.917  32.875   1.235
20085W        W91614   3.428  19.534   2.281
20086W        W91615  35.906  38.467   4.457
20087W        W91616  42.487  13.268  11.969
20088W        W91617  39.834   9.387  11.709
20089W        W91618  30.420  30.466  10.609
20090W        W91619  10.340  31.953   3.208
20091W        W91620  41.788   8.342   2.678
20092W        W91621   2.721  14.126   1.211
20093W        W91622  42.770   5.260  11.700
20094W        W91623  42.076  33.497  12.829
20095W        W91624  43.154  24.063  14.913
20096W        W91625  26.566  20.537   3.981
20097W        W91626  43.004   4.715  14.726
20098W        W91627  24.951   6.448   0.734
20099W        W91628  41.760  17.223   4.490
20100W        W91629  25.055  19.263   0.814
20101W        W91630  22.647  42.644  14.094
20102W        W91631  40.344  29.446  12.018
20103W        W91632  12.055  23.481   0.465
20104W        W91633  39.814   8.377  13.021
20105W        W91634  20.253  25.573   0.882
20106W        W91635   2.169  38.351  13.317
20107W        W91636  41.002  32.000   4.490
20108W        W91637  41.500  12.002   2.363
20109W        W91638  30.660   6.409   3.235
20110W        W91639  31.679  38.247  12.804
20111W        W91640  44.787  22.671   4.164
20112W        W91641  31.625  39.117   3.205
20113W        W91642  14.693  25.505   3.002
20114W        W91643  37.574  24.699  13.552
20115W        W91644   7.372  22.860   4.920
20116W        W91645  34.006  40.381   1.796
20117W        W91646   9.572  33.528   2.289
20118W        W91647  44.346  17.607   1.479
20119W        W91648  18.288  39.967  10.725
20120W        W91649   9.164  35.580   4.150
20121W        W91650  37.000  21.940   0.936
20122W        W91651  33.037  18.584  10.595
20123W        W91652   3.002  36.030  10.702
20124W        W91653  24.077  26.668  12.050
20125W        W91654  10.312   6.839  14.473
20126W        W91655  23.863  42.021  13.789
20127W        W91656  17.813  28.096   2.843
20128W        W91657  33.252  24.291  10.182
20129W        W91658  11.732  33.458   4.147
20130W        W91659  30.670  17.029   0.733
20131W        W91660  36.465   5.880  12.421
20132W        W91661  42.322  35.704  11.273
20133W        W91662   1.747  18.620  12.954
20134W        W91663  11.787  11.714  10.312
20135W        W91664  42.596  29.906   1.753
20136W        W91665   1.971  14.206   3.701
20137W        W91666  17.309  17.107  11.075
20138W        W91667  33.064  37.510  13.351
20139W        W91668  17.273  10.714   0.086
20140W        W91669  32.120   4.372   4.903
20141W        W91670  40.321  11.152   2.001
20142W        W91671  27.370   6.283   4.894
20143W        W91672  15.722  16.070   4.130
20144W        W91673  10.571  34.462   2.341
20145W        W91674  36.639   2.450   2.745
20146W        W91675  37.755  34.137   4.505
20147W        W91676   6.858  30.060  11.051
20148W        W91677  28.721  18.303   2.710
20149W        W91678  21.156  36.002   1.440
20150W        W91679  26.979  22.967  13.952
20151W        W91680  27.253  38.521  10.699
20152W        W91681  38.907   6.973  10.655
20153W        W91682   9.197  35.359  11.655
20154W        W91683  12.832   6.877   3.952
20155W        W91684  38.289   1.785  11.382
20156W        W91685  28.486  23.825   3.693
20157W        W91686  12.051  17.780  14.391
20158W        W91687  26.938  18.291  10.495
20159W        W91688  30.048   4.556  11.828
20160W        W91689  11.810  38.523   1.789
20161W        W91690  41.841  13.916  12.807
20162W        W91691  14.739  11.623  14.585
20163W        W91692  21.638  16.681   1.444
20164W        W91693  10.820  33.673   1.958
20165W        W91694   2.830  31.559   3.297
20166W        W91695  43.679   5.480  14.070
20167W        W91696   5.911  36.776  10.648
20168W        W91697   9.440  39.257  12.922
20169W        W91698   0.257  10.086   0.404
20170W        W91699  37.025  21.420   2.054
20171W        W91700  27.981  22.976   2.772
20172W        W91701  32.372  27.601  13.816
20173W        W91702   6.316  44.395  10.214
20174W        W91703  31.571  43.069   3.350
20175W        W91704  17.187  19.993   3.169
20176W        W91705   7.886  44.001  13.342
20177W        W91706  14.231  16.308   4.891
20178W        W91707  38.939   2.513   4.642
20179W        W91708   9.618   8.684  11.997
20180W        W91709  23.254   6.363  11.607
20181W        W91710  30.191   7.661   3.130
20182W        W91711  41.085  14.038  10.671
20183W        W91712  15.858  25.489   4.554
20184W        W91713  27.719  24.267  10.846
20185W        W91714   5.949  24.183  13.640
20186W        W91715   3.487  29.351  14.895
20187W        W91716  43.042  29.037  13.613
20188W        W91717  38.014  14.822   0.683
20189W        W91718  13.027  40.902   4.092
20190W        W91719  14.526  11.117  11.994
20191W        W91720  41.989  37.307   0.069
20192W        W91721  25.620   5.279  11.931
20193W        W91722  29.685  33.219  12.296
20194W        W91723  40.523  34.521  10.622
20195W        W91724  29.521   1.289   2.882
20196W        W91725   1.783  33.514   0.874
20197W        W91726   2.613  20.209   2.289
20198W        W91727  15.145  10.063  13.011
20199W        W91728  15.322  31.027  11.683
20200W        W91729  18.236  33.552   2.377
20201W        W91730   8.787  28.398  13.114
20202W        W91731  16.034   6.819  14.408
20203W        W91732  21.280  15.172   4.659
20204W        W91733  22.254  15.666   1.255
20205W        W91734  30.555  24.000   3.646
20206W        W91735  37.874  28.143  12.357
20207W        W91736  11.024  28.872  14.496
20208W        W91737   8.829  39.144   1.876
20209W        W91738  36.488   7.735  10.683
20210W        W91739   2.932  28.462  13.982
20211W        W91740  19.297   9.388  11.576
20212W        W91741  34.825   8.498  12.893
20213W        W91742  29.836   7.256   2.199
20214W        W91743  32.408   2.181  13.896
20215W        W91744  17.489  14.498  14.883
20216W        W91745  36.336  29.936   2.675
20217W        W91746   3.513  37.298   4.410
20218W        W91747  20.019   9.742  12.435
20219W        W91748  15.869  32.956  12.053
20220W        W91749  32.308  17.634   3.196
20221W        W91750  16.639  12.763   3.631
20222W        W91751  19.045  32.997  12.160
20223W        W91752  44.378   8.157  14.447
20224W        W91753   2.311  13.078   0.460
20225W        W91754   0.834  10.934  13.418
20226W        W91755  37.878  18.805   2.871
20227W        W91756  31.059  23.450  11.605
20228W        W91757  17.773  29.717   0.284
20229W        W91758  22.680  11.359  14.531
20230W        W91759  24.542  43.816   1.768
20231W        W91760  20.650   4.977  13.866
20232W        W91761   6.385  29.405   0.068
20233W        W91762  41.007  14.710   1.303
20234W        W91763   5.448   5.313   0.028
20235W        W91764  36.485   1.611   3.260
20236W        W91765  43.035   4.350   1.350
20237W        W91766  27.176  20.685   1.638
20238W        W91767  19.561  39.908  11.820
20239W        W91768  38.080   2.536   2.322
20240W        W91769   1.686   9.549   4.235
20241W        W91770  14.419  32.121   0.949
20242W        W91771  37.017  44.796  13.520
20243W        W91772  20.094  40.282  12.046
20244W        W91773   2.370  34.547  14.742
20245W        W91774  19.139  18.165   2.743
20246W        W91775  11.412  33.682  10.860
20247W        W91776  43.902  23.584   0.938
20248W        W91777  18.818  37.673  12.902
20249W        W91778  24.196  27.057   4.730
20250W        W91779  30.125  10.071  13.076
20251W        W91780  40.350  10.158  11.638
20252W        W91781  35.264  38.034  11.847
20253W        W91782  43.086   6.996  12.068
20254W        W91783  30.070   5.754   0.183
20255W        W91784  41.117   5.787   0.521
20256W        W91785  37.540   6.966   3.636
20257W        W91786  43.796  36.547  13.864
20258W        W91787  36.909  17.200   4.846
20259W        W91788  12.330  33.509  10.895
20260W        W91789  24.956  17.018   3.188
20261W        W91790   4.371  36.576  12.957
20262W        W91791   7.152   3.891  12.084
20263W        W91792  23.316  40.804   1.564
20264W        W91793  31.128  39.517   3.711
20265W        W91794  12.076  38.102  13.074
20266W        W91795   9.636  24.441   0.332
20267W        W91796  21.289  35.536  14.408
20268W        W91797  24.663  37.030   2.604
20269W        W91798  39.341   7.301  10.642
20270W        W91799  29.339  31.108  14.073
20271W        W91800  32.044   5.769  14.294
20272W        W91801  42.317  16.681  10.673
20273W        W91802  26.820  13.556   4.106
20274W        W91803  34.487  13.252  14.935
20275W        W91804   0.774  25.396  12.588
20276W        W91805  16.766  36.093   1.677
20277W        W91806  12.530  44.428   4.304
20278W        W91807  21.449  30.519   3.176
20279W        W91808  22.618  38.773  14.490
20280W        W91809  24.011  42.419   0.027
20281W        W91810  20.463  12.615   4.132
20282W        W91811  14.251   1.330   0.286
20283W        W91812  21.023  14.385   0.637
20284W        W91813  12.315  30.633  13.300
20285W        W91814  39.998  11.203  12.526
20286W        W91815  10.752  18.463   3.204
20287W        W91816  31.462  31.638  13.792
20288W        W91817  37.173  31.281  11.108
20289W        W91818  40.932  38.809  11.669
20290W        W91819  14.670  36.790   2.758
20291W        W91820  14.793  25.622  13.358
20292W        W91821  26.142  29.905   1.940
20293W        W91822   6.104  31.203  10.711
20294W        W91823  39.755  25.742  11.162
20295W        W91824  42.306  36.569   1.418
20296W        W91825   8.894  37.153   3.753
20297W        W91826   5.895  37.800  14.861
20298W        W91827  35.421  34.935   4.423
20299W        W91828  43.488  41.032  13.390
20300W        W91829  26.405   1.124   2.582
20301W        W91830   8.406  42.937   4.810
20302W        W91831  15.096  37.075   4.694
20303W        W91832  40.111  38.489  13.015
20304W        W91833  41.372  21.825  12.552
20305W        W91834  29.816  11.826  10.733
20306W        W91835  18.511  37.727   0.207
20307W        W91836  44.512  25.655  13.049
20308W        W91837  35.787   1.819  10.689
20309W        W91838   6.005  13.858   4.157
20310W        W91839   5.198  35.570   3.324
20311W        W91840  30.871  29.650   3.924
20312W        W91841  36.723  11.903   2.887
20313W        W91842  27.801  28.088   0.311
20314W        W91843  42.514  36.863  14.020
20315W        W91844  20.932  41.357  11.981
20316W        W91845  32.025  28.978   0.264
20317W        W91846  20.669  30.408   3.743
20318W        W91847   3.073   4.388  12.441
20319W        W91848   0.974  23.077   2.007
20320W        W91849  35.116  34.479  12.842
20321W        W91850  11.621   2.402   2.641
20322W        W91851  30.483  35.678  12.418
20323W        W91852   8.050   8.959   4.927
20324W        W91853  40.305   5.706   2.230
20325W        W91854  15.489   9.880  14.814
20326W        W91855  35.747  32.225   5.036
20327W        W91856  17.610  38.746   0.674
20328W        W91857  36.922  40.945  14.440
20329W        W91858  10.256  27.642   0.695
20330W        W91859  42.040   1.351  14.854
20331W        W91860  32.038   5.120   1.707
20332W        W91861  13.279  40.268  11.168
20333W        W91862  35.085  41.462   0.842
20334W        W91863  35.057  27.696  11.068
20335W        W91864  12.837  38.343  12.000
20336W        W91865  33.396   0.184  10.137
20337W        W91866  21.807  28.801  12.731
20338W        W91867  43.904   1.447   1.014
20339W        W91868  34.880  30.178  12.415
20340W        W91869  19.935  17.144   4.099
20341W        W91870  34.584  39.831  14.854
20342W        W91871  17.259  28.848  13.939
20343W        W91872  44.915  13.603  12.015
20344W        W91873   2.200  42.556  13.148
20345W        W91874   2.820  31.471  12.835
20346W        W91875   9.132  13.642   1.700
20347W        W91876  15.289  16.828  13.925
20348W        W91877  39.899  12.348  13.064
20349W        W91878  25.389  13.229   2.345
20350W        W91879  40.360  13.643  11.361
20351W        W91880  11.805  33.520  13.865
20352W        W91881   4.025  41.997   1.889
20353W        W91882  36.333  14.554   0.162
20354W        W91883   3.997  42.970   1.813
20355W        W91884  10.907  30.654  11.144
20356W        W91885  40.566   9.985  11.151
20357W        W91886  41.486  16.647  14.104
20358W        W91887  16.798  18.604  11.138
20359W        W91888   3.803  17.970  11.086
20360W        W91889  23.751   2.933  12.412
20361W        W91890   8.260  41.432   3.086
20362W        W91891  24.472  30.857   3.157
20363W        W91892  17.145   3.733   0.677
20364W        W91893  29.486  36.494   1.195
20365W        W91894  35.299  30.131   2.691
20366W        W91895  13.159   7.603   2.749
20367W        W91896  22.352  40.121   2.821
20368W        W91897   9.691  25.096  12.985
20369W        W91898  27.910  20.229  12.355
20370W        W91899  16.680  40.576  11.492
20371W        W91900  37.945  20.570  14.498
20372W        W91901   1.796  20.309  11.105
20373W        W91902   3.848   2.944  12.017
20374W        W91903  18.713  18.327   1.918
20375W        W91904  13.062  37.570   1.229
20376W        W91905  23.998  31.013  13.050
20377W        W91906   8.191  26.672   3.717
20378W        W91907  28.591  32.397   1.891
20379W        W91908  21.200   1.513   3.440
20380W        W91909   6.928  13.333  12.922
20381W        W91910  28.033  12.800   3.591
20382W        W91911  26.482  15.260  14.543
20383W        W91912  23.159   9.382   4.553
20384W        W91913   1.678  38.941   1.544
20385W        W91914  35.736  32.897   2.375
20386W        W91915  27.614   9.748   4.352
20387W        W91916  23.155  20.178  13.085
20388W        W91917   8.256  15.160  11.138
20389W        W91918  42.785  37.892  13.592
20390W        W91919   9.951   4.214   2.642
20391W        W91920  32.526  15.956   2.365
20392W        W91921  42.980  29.483   4.970
20393W        W91922  27.732  25.212   3.418
20394W        W91923  35.554  24.742  14.124
20395W        W91924   5.330  42.233  13.469
20396W        W91925  34.086  35.614  12.943
20397W        W91926  41.910  17.637   4.192
20398W        W91927  26.697   1.815  13.460
20399W        W91928  30.605  22.439  14.006
20400W        W91929  40.259  25.146   0.351
20401W        W91930  13.609   6.778  12.022
20402W        W91931  10.730  21.437   4.452
20403W        W91932   5.351  11.353  14.109
20404W        W91933  15.585  44.539  11.629
20405W        W91934  36.027  22.436   1.061
20406W        W91935  10.761  14.180   3.380
20407W        W91936   1.732  30.067  11.320
20408W        W91937  13.691   7.958  14.822
20409W        W91938  40.367   4.177   0.990
20410W        W91939  44.202  16.610   0.289
20411W        W91940  20.217   5.345   3.596
20412W        W91941  28.733  41.028   4.160
20413W        W91942   7.889  36.874   3.267
20414W        W91943  31.681  24.014  11.190
20415W        W91944  26.038   0.973   2.250
20416W        W91945   1.633   6.933  11.972
20417W        W91946   2.406  22.566   1.029
20418W        W91947  28.559   0.089  14.957
20419W        W91948   5.637  10.796   4.215
20420W        W91949   5.323  22.768  10.677
20421W        W91950  10.372   3.476  10.462
20422W        W91951  37.990  16.164  10.613
20423W        W91952  24.472  16.864   3.184
20424W        W91953  11.660  44.775  13.286
20425W        W91954  36.523  38.154   1.826
20426W        W91955  15.714  12.784  14.565
20427W        W91956   5.210  41.234  12.558
20428W        W91957  28.001   6.454  12.135
20429W        W91958  38.612   9.898  12.408
20430W        W91959  28.367  34.463  11.994
20431W        W91960  10.263  12.891   3.608
20432W        W91961  25.931  22.626  13.446
20433W        W91962  19.542   7.264   0.971
20434W        W91963   4.369   2.686  13.031
20435W        W91964   7.353  16.967   3.104
20436W        W91965   6.784  20.231   9.714
20437W        W91966  10.019  10.930  14.489
20438W        W91967  41.328  29.725   4.553
20439W        W91968   5.987   9.805  13.980
20440W        W91969   4.280  43.089  14.926
20441W        W91970  26.912  28.494   0.346
20442W        W91971  24.807  43.392  13.556
20443W        W91972  13.797  24.988   2.769
20444W        W91973  40.003  43.034   2.958
20445W        W91974  14.173   3.092   3.332
20446W        W91975  34.949   4.042   4.312
20447W        W91976  13.393  29.441  12.034
20448W        W91977   4.162   7.958   1.692
20449W        W91978  37.531  23.282  11.555
20450W        W91979  11.816  32.987  13.978
20451W        W91980   0.826  30.583   0.950
20452W        W91981  33.424  10.144  14.410
20453W        W91982  44.998  26.582  12.894
20454W        W91983   4.178  17.592  10.213
20455W        W91984  17.233  42.353   3.073
20456W        W91985  34.290  30.917   2.193
20457W        W91986  42.974  39.280   0.408
20458W        W91987  35.101   1.348   2.400
20459W        W91988  24.479  20.362   4.066
20460W        W91989  10.653  20.565   2.259
20461W        W91990  19.280  12.873  12.980
20462W        W91991  34.914  42.893  10.383
20463W        W91992  37.073  43.944   3.666
20464W        W91993  32.899  37.348   3.689
20465W        W91994   6.359  23.361   0.422
20466W        W91995  31.873  37.717   2.188
20467W        W91996  26.965  28.521  11.975
20468W        W91997  38.234  10.472  14.352
20469W        W91998  11.654   0.046   4.121
20470W        W91999  10.946   4.785   4.627
20471W        W92000  44.441  24.941   2.847
20472W        W92001  25.585  44.759  13.036
20473W        W92002  32.423  14.866   3.407
20474W        W92003  39.356  31.484   3.511
20475W        W92004  22.673   8.486   2.353
20476W        W92005  15.199  26.232   1.400
20477W        W92006   8.105  25.613  10.829
20478W        W92007  21.183  40.805  12.691
20479W        W92008  14.686  20.085   0.224
20480W        W92009  18.785   9.953  13.147
20481W        W92010   8.901  23.611   3.610
20482W        W92011  13.999  18.056  13.920
20483W        W92012  38.479  25.585  11.126
20484W        W92013  14.692  42.580   3.620
20485W        W92014   3.496   2.830   2.220
20486W        W92015  44.717   9.863  12.006
20487W        W92016   8.756  18.261   1.888
20488W        W92017  38.783  11.172   0.474
20489W        W92018   4.867  28.121  13.002
20490W        W92019  31.590  20.185   3.431
20491W        W92020  30.609   0.872   1.659
20492W        W92021  34.519   3.939   2.384
20493W        W92022  12.157  10.768   1.294
20494W        W92023  44.459   2.326  13.562
20495W        W92024  44.027  27.022   3.770
20496W        W92025  11.839  10.396   1.858
20497W        W92026  41.375   7.422  13.106
20498W        W92027  12.848   5.374   2.234
20499W        W92028  40.562   1.408   4.783
20500W        W92029  26.440  21.181   3.219
20501W        W92030  13.559   1.443   5.034
20502W        W92031   2.047  11.425   1.366
20503W        W92032  22.994  42.334  10.561
20504W        W92033   4.403  17.799  13.779
20505W        W92034  41.404  13.372  13.876
20506W        W92035   1.193  39.921  11.557
20507W        W92036  44.390  29.555  11.198
20508W        W92037  42.316  35.103   4.719
20509W        W92038  40.775  10.383  12.421
20510W        W92039  23.972  20.028  11.109
20511W        W92040   8.371   1.340  11.015
20512W        W92041  11.227  38.661   4.738
20513W        W92042  29.513  13.242  10.478
20514W        W92043  42.930  42.664  14.916
20515W        W92044  12.595  11.705  11.569
20516W        W92045  16.938  26.110  13.032
20517W        W92046  30.467   1.800  10.981
20518W        W92047   3.808  22.262  12.992
20519W        W92048  17.886  14.701  13.543
20520W        W92049   2.760  44.680  10.818
20521W        W92050  33.897  40.341  14.310
20522W        W92051  15.886   7.861   3.722
20523W        W92052   5.410  35.314  13.142
20524W        W92053   0.898  17.908  12.259
20525W        W92054   2.199   9.288   4.820
20526W        W92055  24.279   3.154  10.456
20527W        W92056  24.995  35.065   3.189
20528W        W92057  31.604  36.380   3.656
20529W        W92058  20.521  14.591   0.776
20530W        W92059  44.520  42.394   4.200
20531W        W92060   1.440   2.637  10.558
20532W        W92061   8.689   3.403  13.635
20533W        W92062   4.714  38.998   0.415
20534W        W92063  27.367  24.130   1.255
20535W        W92064  27.847  28.652  12.203
20536W        W92065  29.989   1.924   2.953
20537W        W92066  44.051   7.584  12.363
20538W        W92067  43.466   5.002  11.071
20539W        W92068  18.313   2.877  12.434
20540W        W92069  29.152  44.673   3.546
20541W        W92070  42.011   5.886  13.384
20542W        W92071  20.016  14.596  12.140
20543W        W92072  32.313  27.310  12.398
20544W        W92073  44.460  18.905   2.735
20545W        W92074  16.123  40.116   1.343
20546W        W92075  11.610  19.093   2.511
20547W        W92076  14.521  22.824   2.186
20548W        W92077  44.967  16.018   2.862
20549W        W92078  34.554  41.613   2.438
20550W        W92079   6.657  22.111  11.671
20551W        W92080  41.797  43.434   2.208
20552W        W92081  40.270  39.559   1.368
20553W        W92082  32.750   9.755  14.564
20554W        W92083  39.010  16.388   1.857
20555W        W92084  17.708  20.214  10.918
20556W        W92085  27.599  43.025  10.411
20557W        W92086  44.651   6.117  10.346
20558W        W92087   3.798   9.547   3.649
20559W        W92088  11.851  33.522  10.109
20560W        W92089  27.471   0.885  11.833
20561W        W92090  37.304  38.807  11.056
20562W        W92091  11.142   2.407   2.828
20563W        W92092  21.717  17.064  11.983
20564W        W92093   3.242  36.126   4.596
20565W        W92094   4.937  12.806   0.333
20566W        W92095  44.694  17.540  12.499
20567W        W92096  23.510   3.131   3.770
20568W        W92097  26.586  18.592  10.728
20569W        W92098   1.471  14.314  12.560
20570W        W92099   5.919  34.577   0.524
20571W        W92100  23.961   1.367   1.752
20572W        W92101   3.349  43.246   2.802
20573W        W92102  35.916  39.268  11.097
20574W        W92103  15.101   9.260  13.617
20575W        W92104  15.184  43.077   2.339
20576W        W92105  26.066  18.260  15.000
20577W        W92106  41.043   3.414   0.693
20578W        W92107  11.929  38.835  14.380
20579W        W92108  29.634  13.082   1.169
20580W        W92109  11.224  27.704  12.608
20581W        W92110  31.987  16.654   2.155
20582W        W92111  39.622   8.717   1.255
20583W        W92112  15.209  32.670  14.797
20584W        W92113   3.965   5.696  13.983
20585W        W92114  35.051   3.554  11.686
20586W        W92115   8.319  31.476   4.591
20587W        W92116  40.338   4.361   2.883
20588W        W92117  11.555  40.535  13.960
20589W        W92118  30.777  41.050  11.123
20590W        W92119  19.603   4.923  13.453
20591W        W92120  44.982  26.689   3.713
20592W        W92121  15.576  17.488  12.639
20593W        W92122   5.761   8.191  10.984
20594W        W92123  38.473  12.763  10.977
20595W        W92124   4.153  25.724  12.557
20596W        W92125  11.883  37.419   4.586
20597W        W92126  13.518   7.821   1.978
20598W        W92127   0.478   0.211   0.663
20599W        W92128   6.248  35.874  13.051
20600W        W92129  15.310  14.240   2.330
20601W        W92130  24.503  32.061   0.913
20602W        W92131  43.584   0.814  11.447
20603W        W92132  36.055  39.437  12.760
20604W        W92133   7.160   6.297  13.865
20605W        W92134  37.209  28.624   0.296
20606W        W92135  10.232  24.974  10.229
20607W        W92136  13.361  20.962   0.867
20608W        W92137  15.235   7.284  12.307
20609W        W92138  15.760   9.099   2.689
20610W        W92139  26.565  40.817  10.598
20611W        W92140  14.194   2.240   1.232
20612W        W92141  38.344  15.842   3.693
20613W        W92142  10.283  26.146   4.491
20614W        W92143  33.838  43.461  12.138
20615W        W92144  36.177  44.385  10.644
20616W        W92145  44.808  37.876  10.701
20617W        W92146  42.343  32.083   3.316
20618W        W92147  29.949  17.596   2.864
20619W        W92148  16.774  21.928   2.445
20620W        W92149  27.477  36.885   4.330
20621W        W92150  35.885  31.477  13.146
20622W        W92151  19.127   2.049   3.067
20623W        W92152  15.834  13.089  13.722
20624W        W92153  41.252   0.902  11.360
20625W        W92154   1.020  17.666  11.283
20626W        W92155   3.701  19.838   0.176
20627W        W92156   1.148  37.808   1.752
20628W        W92157  16.171  30.256   3.446
20629W        W92158  41.394  21.750   3.649
20630W        W92159  35.480  39.804  10.973
20631W        W92160  38.803  44.616   1.492
20632W        W92161  40.436  35.716  14.874
20633W        W92162  17.845  30.922   3.757
20634W        W92163  22.063   1.364   1.937
20635W        W92164  13.402   7.083   0.761
20636W        W92165  16.791  44.530  11.479
20637W        W92166  28.910  27.145   3.173
20638W        W92167  12.538  25.392  14.681
20639W        W92168  36.647  19.255   1.293
20640W        W92169   2.843  15.994  14.680
20641W        W92170  36.673  14.458   5.166
20642W        W92171  30.267  33.478   1.450
20643W        W92172  40.483  32.018  14.299
20644W        W92173  37.023  26.632  13.322
20645W        W92174   0.755  27.571   0.746
20646W        W92175  37.936  33.493   1.923
20647W        W92176  34.447  38.367  14.163
20648W        W92177   1.258   6.630  11.788
20649W        W92178   8.092  39.849   1.251
20650W        W92179  14.613  30.733   3.925
20651W        W92180  10.206  44.233   0.676
20652W        W92181   4.785  10.392  10.444
20653W        W92182   6.690   8.704   0.946
20654W        W92183  31.016  39.267   4.152
20655W        W92184  16.258  43.030  13.310
20656W        W92185  34.625  14.830  14.965
20657W        W92186  40.880   7.384  13.329
20658W        W92187  31.874   3.842  13.105
20659W        W92188   9.907  17.095   3.265
20660W        W92189  18.447  16.400   0.939
20661W        W92190   7.887  16.084  11.180
20662W        W92191  35.632  25.987  12.414
20663W        W92192  42.330  43.530   2.198
20664W        W92193  31.878  21.695   2.694
20665W        W92194  15.112  27.993   3.684
20666W        W92195  27.527   3.927  14.068
20667W        W92196  23.312   6.760   3.019
20668W        W92197  33.833  18.670   1.677
20669W        W92198  39.658   4.856  14.885
20670W        W92199  21.550   3.285   0.471
20671W        W92200   8.765  32.168   3.191
20672W        W92201  18.227  15.660   0.690
20673W        W92202  42.512  33.435   3.814
20674W        W92203  39.852  43.995  13.015
20675W        W92204  15.644   4.171  14.877
20676W        W92205  24.622  38.429   0.358
20677W        W92206   2.270   4.531   1.065
20678W        W92207   5.208  38.367   2.284
20679W        W92208  34.176  40.013  14.586
20680W        W92209   5.738   6.004   2.160
20681W        W92210  44.881  33.490   3.690
20682W        W92211   9.263   3.024   4.156
20683W        W92212  37.490  40.711   4.162
20684W        W92213  21.062  40.564   4.936
20685W        W92214  23.380  34.994   3.927
20686W        W92215  13.821  39.162   2.057
20687W        W92216  24.207  35.421  11.662
20688W        W92217  16.670   2.774   1.421
20689W        W92218  21.249   2.044  10.789
20690W        W92219   3.296  41.419  14.470
20691W        W92220  22.446   5.001   4.173
20692W        W92221  14.456   9.395  11.479
20693W        W92222  36.541  29.120   2.307
20694W        W92223  27.314  36.517   4.649
20695W        W92224  41.475  37.786   2.787
20696W        W92225  24.013  42.986   0.330
20697W        W92226  15.008  22.689   2.410
20698W        W92227  31.625  21.295   1.910
20699W        W92228  15.671  13.807  14.797
20700W        W92229  22.095  23.583  12.072
20701W        W92230  33.062  20.915   2.673
20702W        W92231   3.298  41.520   0.903
20703W        W92232  20.303  41.344  10.689
20704W        W92233  37.424  35.112   2.959
20705W        W92234  23.462  18.359   3.782
20706W        W92235  42.072  36.453   0.282
20707W        W92236  27.191  38.392  14.192
20708W        W92237  16.654   2.213   0.047
20709W        W92238  42.625  31.483  10.681
20710W        W92239  36.449  32.139   1.371
20711W        W92240  41.285   2.720   3.205
20712W        W92241   2.883  15.099   3.199
20713W        W92242   5.893  44.763  14.463
20714W        W92243  36.303  23.236   1.239
20715W        W92244  41.361  37.550   3.245
20716W        W92245   9.661   4.325   3.072
20717W        W92246  36.044   9.860  13.245
20718W        W92247  33.000   7.401   4.669
20719W        W92248  32.881  22.732   1.602
20720W        W92249  42.834   9.694   5.023
20721W        W92250  16.978  33.889  12.867
20722W        W92251  34.981   4.719  12.967
20723W        W92252  10.879  13.300  13.785
20724W        W92253  44.026  32.915  13.520
20725W        W92254   4.076   6.213  11.202
20726W        W92255  34.050  35.013   4.557
20727W        W92256  38.042  15.817   1.865
20728W        W92257   8.143  15.636  11.003
20729W        W92258   8.226  14.593  13.622
20730W        W92259  14.489   9.438   4.030
20731W        W92260  30.509  42.704  13.361
20732W        W92261  18.255  19.997   2.255
20733W        W92262  10.668  10.853  12.506
20734W        W92263  15.134  44.778  13.905
20735W        W92264   6.260  16.052   4.153
20736W        W92265  27.955  35.611  14.868
20737W        W92266  14.470  34.270  14.709
20738W        W92267  27.087  42.907  10.771
20739W        W92268  20.439  30.672   3.351
20740W        W92269  33.405  28.052  11.000
20741W        W92270  13.751  25.515  14.523
20742W        W92271   8.353  33.533   2.869
20743W        W92272  42.108   5.860  14.279
20744W        W92273   6.458   0.399   2.346
20745W        W92274  15.055   3.245   3.258
20746W        W92275  14.819   3.202   3.714
20747W        W92276  25.008  37.858   1.305
20748W        W92277   5.721  37.424  13.976
20749W        W92278   9.627  29.139   1.953
20750W        W92279  20.245  42.059   4.321
20751W        W92280  10.387  37.980   0.939
20752W        W92281   3.741   2.265   0.814
20753W        W92282  36.997   2.377   3.121
20754W        W92283  37.140  43.094  11.622
20755W        W92284  41.957  27.687  14.482
20756W        W92285   8.813  17.285  13.786
20757W        W92286  17.976   1.740   4.212
20758W        W92287   3.175  21.151  11.107
20759W        W92288  19.188  28.081  10.955
20760W        W92289   8.615  29.757   5.080
20761W        W92290  12.509   5.289  11.508
20762W        W92291  29.920  17.443  14.007
20763W        W92292  31.157  42.946   3.677
20764W        W92293   3.189  19.719   0.894
20765W        W92294  17.637  22.570  12.732
20766W        W92295  16.154  17.044  10.067
20767W        W92296  14.458  28.600  11.599
20768W        W92297  22.464   1.763   3.612
20769W        W92298  19.469   2.702   4.552
20770W        W92299   5.211  37.923  14.346
20771W        W92300  44.555  23.121  11.028
20772W        W92301  15.669  44.931   0.007
20773W        W92302  30.863  40.826  14.810
20774W        W92303  14.855  44.166  10.543
20775W        W92304  43.961  11.264   3.922
20776W        W92305  44.776  44.854   3.466
20777W        W92306   3.974  10.425   2.202
20778W        W92307  23.677  20.613   4.683
20779W        W92308   5.155  22.033  13.524
20780W        W92309  22.159  39.144   2.679
20781W        W92310  20.958  24.695   0.784
20782W        W92311  40.437  38.824   4.548
20783W        W92312  26.137  19.374  12.455
20784W        W92313  20.780  35.338   4.739
20785W        W92314   1.361  18.265  14.310
20786W        W92315  29.588  10.471  12.012
20787W        W92316   2.552  30.466  11.145
20788W        W92317   3.399  43.315   3.882
20789W        W92318   1.821   2.746   2.620
20790W        W92319  39.309  35.419   0.729
20791W        W92320   3.966   0.919  13.480
20792W        W92321   8.739  41.075  11.973
20793W        W92322  29.050  31.677   1.253
20794W        W92323  24.286  14.594  14.294
20795W        W92324  11.306  34.990  11.139
20796W        W92325  23.796  29.178  12.369
20797W        W92326   7.849  40.855  11.900
20798W        W92327  38.929  39.667   1.932
20799W        W92328   3.896  34.407   3.026
20800W        W92329  44.070  30.457  11.594
20801W        W92330  19.220  34.384  12.103
20802W        W92331   8.903  13.666   2.648
20803W        W92332  19.346   4.714  12.984
20804W        W92333  37.115   5.666  12.978
20805W        W92334  12.728   9.645   0.841
20806W        W92335  22.930  28.548   1.360
20807W        W92336  18.054  31.254  14.696
20808W        W92337  26.629  15.501  14.958
20809W        W92338  12.310   3.833   4.358
20810W        W92339  32.092   3.490  10.499
20811W        W92340  10.582  41.777  12.476
20812W        W92341  21.752   0.847  10.645
20813W        W92342   3.370   4.689  10.739
20814W        W92343  23.965   8.836   4.837
20815W        W92344   8.009   0.529   3.369
20816W        W92345  40.975  28.407  13.865
20817W        W92346  34.296  37.845   3.160
20818W        W92347  20.279  22.438  14.671
20819W        W92348  31.876  18.641   1.935
20820W        W92349  41.285  38.088  11.098
20821W        W92350   6.352  20.549  13.094
20822W        W92351  30.542  44.557   2.155
20823W        W92352  24.968  39.074   5.020
20824W        W92353  24.191  38.611   1.451
20825W        W92354  22.262  19.050  13.051
20826W        W92355   1.992  40.990   0.786
20827W        W92356   5.782   4.744  13.240
20828W        W92357  38.068  37.884  10.722
20829W        W92358   0.787  35.335  11.190
20830W        W92359  20.290  11.604  11.127
20831W        W92360  33.995  11.809  10.782
20832W        W92361   9.225  42.747   0.293
20833W        W92362  28.244  42.331  12.955
20834W        W92363   6.387   8.426   2.795
20835W        W92364  41.382  32.834   4.133
20836W        W92365  27.002  35.809  14.575
20837W        W92366  34.959  15.914   4.306
20838W        W92367  43.767  44.931   1.907
20839W        W92368   9.562  10.167  13.140
20840W        W92369  30.540  13.741  14.477
20841W        W92370  13.680  41.423   1.981
20842W        W92371  16.090  12.195   2.214
20843W        W92372  40.551  11.638   2.873
20844W        W92373   2.843  21.025  14.402
20845W        W92374   2.689  37.967  10.949
20846W        W92375  38.826  33.963   2.264
20847W        W92376   2.279  17.117  13.080
20848W        W92377  28.026  37.413   3.570
20849W        W92378  18.769  15.128   3.564
20850W        W92379  18.274  12.188   0.023
20851W        W92380  30.169  41.750   4.286
20852W        W92381  43.911  35.090  11.486
20853W        W92382  35.859   6.650  14.188
20854W        W92383  22.006   1.819  13.605
20855W        W92384  44.030  13.184  10.892
20856W        W92385  43.019  40.726  12.625
20857W        W92386   8.425  27.064   1.955
20858W        W92387  26.059  36.251   2.506
20859W        W92388  30.098  22.635  13.058
20860W        W92389   6.677  21.317   9.649
20861W        W92390  39.375  23.363   1.883
20862W        W92391  43.045  24.221  10.476
20863W        W92392  37.883  10.122  14.567
20864W        W92393  12.887  21.111  10.599
20865W        W92394  25.046  20.540  11.666
20866W        W92395   1.434  43.021  13.789
20867W        W92396  12.631  42.911   0.801
20868W        W92397  22.141   0.238  13.934
20869W        W92398  18.359  16.043   3.729
20870W        W92399  39.863  17.251   3.737
20871W        W92400  18.319   2.923   2.452
20872W        W92401  27.890  19.216   1.393
20873W        W92402  39.883  40.785   1.794
20874W        W92403  20.447  23.006   4.072
20875W        W92404  16.230  44.590  13.440
20876W        W92405  29.456  40.927   0.390
20877W        W92406  43.902  23.887   4.617
20878W        W92407  39.587  34.366  12.440
20879W        W92408  39.042   1.747  14.391
20880W        W92409  17.502  32.401  12.010
20881W        W92410  16.006  42.293   0.516
20882W        W92411  32.222  15.201  12.186
20883W        W92412  31.086  29.227   1.733
20884W        W92413  40.406   2.301   4.412
20885W        W92414  25.999  26.895  11.114
20886W        W92415  26.448  15.269   0.386
20887W        W92416  20.221  24.682  11.266
20888W        W92417  25.445  37.237  10.731
20889W        W92418  22.693  18.589   1.908
20890W        W92419   6.925   5.014   3.211
20891W        W92420  15.796  36.786  12.242
20892W        W92421  17.667  27.491  11.032
20893W        W92422  16.749   8.115   1.022
20894W        W92423  17.303  44.618  14.574
20895W        W92424  12.384  30.525   1.758
20896W        W92425  20.542  17.685  12.368
20897W        W92426  15.165   1.858  11.565
20898W        W92427   5.836  15.391  12.948
20899W        W92428  37.527  22.232  13.909
20900W        W92429   0.866  41.387  13.247
20901W        W92430  35.811  28.908  11.182
20902W        W92431  41.316  26.943  11.010
20903W        W92432  18.522  18.488   4.035
20904W        W92433  37.411  30.057  13.567
20905W        W92434  20.084  12.816   2.683
20906W        W92435   9.308  20.858  11.119
20907W        W92436  26.441  34.330  12.978
20908W        W92437  27.383  29.479  10.729
20909W        W92438  37.161   7.167   1.052
20910W        W92439  18.509  17.803  12.442
20911W        W92440  29.712   8.551   2.454
20912W        W92441   1.868  16.340  14.770
20913W        W92442  15.632  25.152   1.764
20914W        W92443  26.106  11.160   4.772
20915W        W92444  44.783  22.158   1.929
20916W        W92445  43.970  16.562  14.027
20917W        W92446  41.934  28.188  13.403
20918W        W92447  42.345  40.367   2.722
20919W        W92448  21.685  27.520  13.241
20920W        W92449  37.813   3.725   4.684
20921W        W92450  30.591  44.199  13.561
20922W        W92451   7.385  35.912   4.081
20923W        W92452   3.716   0.530  14.401
20924W        W92453  39.511  15.192  12.619
20925W        W92454  24.904   8.246  12.607
20926W        W92455  25.631   4.797   1.619
20927W        W92456   5.663  30.041   1.368
20928W        W92457  25.439  24.644  11.945
20929W        W92458  32.568  22.230  10.624
20930W        W92459  34.032  32.173  12.879
20931W        W92460  35.974  14.846   0.381
20932W        W92461  39.091  34.615   4.076
20933W        W92462  10.605  35.022   4.138
20934W        W92463  26.908   1.379   1.406
20935W        W92464  14.753  26.844   0.404
20936W        W92465  33.692  23.135   3.713
20937W        W92466   5.256   3.927   2.852
20938W        W92467   2.902  27.660   1.922
20939W        W92468  35.418  19.981   4.163
20940W        W92469  36.563  31.407  11.823
20941W        W92470  15.125  25.694  12.941
20942W        W92471   7.041  15.664  14.707
20943W        W92472  20.674  37.626  13.936
20944W        W92473  43.273   0.245  14.337
20945W        W92474  21.621  13.620  10.651
20946W        W92475  17.589   4.905  13.867
20947W        W92476  34.029  43.044  13.833
20948W        W92477  11.884  22.214   2.465
20949W        W92478  18.488  17.555  13.278
20950W        W92479  41.582  11.664   4.569
20951W        W92480   8.367  21.769   1.657
20952W        W92481   7.387  40.867  12.611
20953W        W92482   9.125  42.005   3.350
20954W        W92483   5.506  29.189  12.588
20955W        W92484  39.544   0.409   3.185
20956W        W92485   6.712   2.186  12.350
20957W        W92486  37.678  14.714   4.151
20958W        W92487   0.230   8.248   3.117
20959W        W92488  21.195  22.747   4.662
20960W        W92489  12.605  28.879  12.164
20961W        W92490  19.828  16.854   1.153
20962W        W92491  32.405  36.552   2.308
20963W        W92492  20.908  15.362   1.054
20964W        W92493  15.301  30.732   1.409
20965W        W92494   8.804   7.716  13.902
20966W        W92495  19.517  37.563   0.884
20967W        W92496   0.485  26.414  13.973
20968W        W92497  31.548  40.886  12.048
20969W        W92498  35.843  14.452  13.773
20970W        W92499  44.375   0.537  13.558
20971W        W92500  10.067  22.097   4.879
20972W        W92501  42.746  12.706   3.194
20973W        W92502  12.055  34.854  13.074
20974W        W92503  33.470  14.330  14.954
20975W        W92504   9.074  32.004   2.250
20976W        W92505  29.572   8.314   3.369
20977W        W92506  40.102  39.013   1.869
20978W        W92507  19.347  21.578   3.270
20979W        W92508  26.284  43.287  10.861
20980W        W92509  26.424  36.527   4.868
20981W        W92510  30.618  32.832  12.105
20982W        W92511   0.236  15.096  14.065
20983W        W92512  31.121   1.790   5.021
20984W        W92513  31.917  11.349   1.879
20985W        W92514   1.528  22.340   4.242
20986W        W92515  22.453  42.436   3.706
20987W        W92516   9.865  28.522   3.142
20988W        W92517  41.317  38.991   3.071
20989W        W92518   9.780  24.708   3.656
20990W        W92519   2.953  23.251  11.597
20991W        W92520  25.674   3.744   1.048
20992W        W92521  20.285  19.730   1.779
20993W        W92522  24.929  41.462   2.772
20994W        W92523  25.940   4.210   3.230
20995W        W92524  23.197  31.773   0.406
20996W        W92525  15.193  40.952   4.012
20997W        W92526  37.513  28.867  10.154
20998W        W92527  29.559  40.593  10.708
20999W        W92528   5.653  41.533  11.682
21000W        W92529  25.253  32.090  14.301
21001W        W92530  41.964  38.585   2.859
21002W        W92531  31.115  35.590   1.501
21003W        W92532  16.743   8.495  13.222
21004W        W92533  41.847  24.403  14.885
21005W        W92534  11.867  29.125  10.066
21006W        W92535   4.403  27.362   3.279
21007W        W92536  38.846  36.348  11.674
21008W        W92537  44.043  38.533  13.903
21009W        W92538  19.851   0.752  10.826
21010W        W92539   1.693  28.723  14.866
21011W        W92540   5.706   6.890  13.610
21012W        W92541  20.160  42.362  14.281
21013W        W92542  38.126  35.827  14.483
21014W        W92543  43.063  17.700  12.559
21015W        W92544  25.629  21.137   1.466
21016W        W92545  44.352  34.202  13.245
21017W        W92546  25.396  13.388   5.045
21018W        W92547  21.336  17.876   3.129
21019W        W92548  18.086  42.941   4.919
21020W        W92549  35.038  10.683  14.655
21021W        W92550   9.927  25.703  13.136
21022W        W92551  35.103  40.820  14.799
21023W        W92552   1.018  20.764   2.128
21024W        W92553   5.461  23.606  12.096
21025W        W92554  44.480  29.036   0.438
21026W        W92555  11.379  14.326  10.611
21027W        W92556  13.309  40.930  10.439
21028W        W92557   6.659   8.661  12.444
21029W        W92558  32.455  23.973  13.082
21030W        W92559   9.320  32.202  11.195
21031W        W92560  39.537   2.916   1.325
21032W        W92561  41.041  32.435  11.547
21033W        W92562  11.272  10.778  12.791
21034W        W92563  36.356  18.540   4.900
21035W        W92564   5.644  17.749  14.242
21036W        W92565  31.076  12.521   3.699
21037W        W92566  43.460  41.493  14.519
21038W        W92567  14.175  20.237   1.361
21039W        W92568  34.652  16.478  14.968
21040W        W92569  10.620  10.601   1.262
21041W        W92570   2.894  42.436  12.514
21042W        W92571   2.158  12.218   3.700
21043W        W92572  26.398   2.927   1.650
21044W        W92573  27.148  15.664  10.716
21045W        W92574  43.209  43.239   0.418
21046W        W92575   5.298   7.959   0.865
21047W        W92576  38.729  40.115  14.048
21048W        W92577  29.014  35.354  11.639
21049W        W92578  33.332   5.562   0.382
21050W        W92579  21.294  39.139  12.598
21051W        W92580   5.877  21.279   4.840
21052W        W92581  19.303  38.107  12.080
21053W        W92582  10.368   5.360  13.953
21054W        W92583   3.900  29.393   1.814
21055W        W92584  32.658   6.790  14.565
21056W        W92585   3.806  43.469   1.723
21057W        W92586  27.639  20.623   0.275
21058W        W92587   0.173  37.966   2.833
21059W        W92588   8.827   5.792   0.457
21060W        W92589  43.990  13.171   0.922
21061W        W92590   6.951  26.957  10.802
21062W        W92591  28.136  32.037  10.654
21063W        W92592  41.076   9.799   1.410
21064W        W92593  41.380   6.709  11.964
21065W        W92594  28.097  10.367  11.791
21066W        W92595  14.166  12.348  13.058
21067W        W92596  15.406  24.139  11.006
21068W        W92597  21.219  34.908   2.766
21069W        W92598   0.866  28.982   2.328
21070W        W92599  44.849   3.017   2.880
21071W        W92600   6.307   4.267   1.225
21072W        W92601  35.538  25.409   1.267
21073W        W92602   1.770  44.195   2.072
21074W        W92603  39.979  34.131  12.043
21075W        W92604  27.287  26.512  10.782
21076W        W92605   8.181  12.073   1.498
21077W        W92606   2.990   9.740   3.118
21078W        W92607   0.012  44.460  12.406
21079W        W92608   6.361  21.249  10.476
21080W        W92609  12.075  28.317   2.413
21081W        W92610  18.233  27.137   3.158
21082W        W92611  17.386  28.550  12.436
21083W        W92612  23.510  32.726   3.720
21084W        W92613  16.593  31.374   2.547
21085W        W92614   5.145   7.752  13.484
21086W        W92615  20.020  40.082   3.031
21087W        W92616   4.516  17.795   1.548
21088W        W92617  42.523  31.633   1.468
21089W        W92618  30.672  10.063  14.807
21090W        W92619  22.987  24.529  13.770
21091W        W92620   6.710  32.552  11.650
21092W        W92621   4.899  18.293  12.074
21093W        W92622  31.643  43.135   1.642
21094W        W92623  26.139  16.289   4.823
21095W        W92624  33.281  29.973  14.773
21096W        W92625  29.660  30.912   2.808
21097W        W92626  11.308  20.194  14.434
21098W        W92627  29.031  37.079  13.049
21099W        W92628  31.499  40.569   3.112
21100W        W92629  18.343  42.537  13.894
21101W        W92630   8.756  37.024   4.743
21102W        W92631  11.779   2.322  11.342
21103W        W92632  30.414  28.895  11.944
21104W        W92633  30.493  43.329  13.995
21105W        W92634  27.049  36.774   1.393
21106W        W92635  28.631  19.808  10.678
21107W        W92636  23.997  33.437  14.718
21108W        W92637  24.501  32.647  14.346
21109W        W92638  19.768  17.396   2.357
21110W        W92639  35.941   7.156  12.433
21111W        W92640  16.265  10.586  13.586
21112W        W92641   7.631  19.112  12.901
21113W        W92642  32.474   4.212   3.673
21114W        W92643   5.176   1.318   0.552
21115W        W92644  31.774  40.792   2.743
21116W        W92645  24.695  12.342   3.186
21117W        W92646  35.415   4.526  14.243
21118W        W92647  11.177  23.746  12.948
21119W        W92648  24.386  39.863   4.257
21120W        W92649   6.776  23.537   4.188
21121W        W92650  23.163  33.580   3.254
21122W        W92651   4.600  27.528   3.747
21123W        W92652   5.333  15.405   3.122
21124W        W92653  39.616  15.749  11.455
21125W        W92654   7.096  20.752   3.737
21126W        W92655  30.439  29.900   2.242
21127W        W92656   3.700  38.962  11.063
21128W        W92657  15.990  38.820  12.489
21129W        W92658  13.195  35.119   4.277
21130W        W92659  30.041   8.070   3.398
21131W        W92660  27.030  13.525  11.118
21132W        W92661  42.081   2.994  10.655
21133W        W92662  27.055  32.469  14.092
21134W        W92663  42.024  24.866  12.918
21135W        W92664   4.567   5.191   3.398
21136W        W92665  24.209  27.132  14.394
21137W        W92666   0.244  13.640   4.290
21138W        W92667  41.291  44.383  12.827
21139W        W92668   9.153  39.958   4.453
21140W        W92669  28.139  22.759   0.167
21141W        W92670  32.482   8.792   5.373
21142W        W92671   6.827  25.519  13.748
21143W        W92672  22.709  32.043   1.165
21144W        W92673  27.660   9.332  14.765
21145W        W92674   9.541  10.166   9.943
21146W        W92675  22.199  43.587   1.802
21147W        W92676  15.279  31.485   1.018
21148W        W92677  17.022  41.387   3.807
21149W        W92678  24.036  29.739   4.593
21150W        W92679  24.913  29.246   0.225
21151W        W92680  12.601   4.970   0.404
21152W        W92681  18.743  29.866   3.136
21153W        W92682  29.038  24.735   3.127
21154W        W92683  37.166   0.409   2.465
21155W        W92684   4.750   3.546  14.105
21156W        W92685  21.722  30.473   4.595
21157W        W92686  13.582  36.374  12.706
21158W        W92687  26.189  13.217   3.795
21159W        W92688  40.565  15.747   0.234
21160W        W92689   2.454  30.866   2.352
21161W        W92690  31.402   1.044   2.101
21162W        W92691  27.895  30.461   2.620
21163W        W92692  12.811  18.661  13.426
21164W        W92693   9.690  19.099   0.192
21165W        W92694  24.129  21.993  14.450
21166W        W92695  13.789   2.555  11.962
21167W        W92696  11.688  35.110  13.997
21168W        W92697  13.865   2.709   2.770
21169W        W92698   3.549  23.183   0.817
21170W        W92699  13.858  36.740   2.307
21171W        W92700  14.669  32.094   4.097
21172W        W92701  16.881  38.409  11.233
21173W        W92702  39.435  33.922   3.118
21174W        W92703  13.014   6.896   4.944
21175W        W92704  15.803  24.497   1.382
21176W        W92705   8.228  31.694  11.976
21177W        W92706  27.477  23.117  10.450
21178W        W92707  22.180   0.734   2.324
21179W        W92708  19.103   0.806   4.999
21180W        W92709   7.708  44.874   0.621
21181W        W92710  28.682  39.514  12.363
21182W        W92711  34.938  37.837  12.191
21183W        W92712   6.029  18.698  11.619
21184W        W92713  25.637  34.414   3.681
21185W        W92714  26.221  24.471   0.738
21186W        W92715  25.654  23.006   1.912
21187W        W92716   9.329  20.753   1.462
21188W        W92717  43.533  24.877   1.845
21189W        W92718  36.471   7.096  12.004
21190W        W92719   7.397  43.231   5.111
21191W        W92720  20.127  18.201  13.085
21192W        W92721   5.543  19.846  10.416
21193W        W92722  17.870  37.183   2.327
21194W        W92723   5.074   7.876   3.917
21195W        W92724  39.793  21.512  11.500
21196W        W92725  22.617  19.188   4.627
21197W        W92726  38.526  43.341  11.499
21198W        W92727  17.066  21.678  14.824
21199W        W92728  34.353  19.274  14.989
21200W        W92729  32.066   2.481  10.616
21201W        W92730  43.004  30.360  14.745
21202W        W92731  19.370  35.829  11.640
21203W        W92732  42.884  17.651  10.800
21204W        W92733  35.532  35.101   3.386
21205W        W92734  39.950  14.918   1.812
21206W        W92735  23.058  25.126   2.647
21207W        W92736   4.345   6.206   4.208
21208W        W92737  10.292  38.782   3.033
21209W        W92738  16.668  30.160  14.061
21210W        W92739  42.537  17.784   4.686
21211W        W92740  10.812  42.465   3.719
21212W        W92741   1.371  15.793  10.886
21213W        W92742  41.284  34.975  12.482
21214W        W92743  19.760  41.864  12.626
21215W        W92744  33.293  16.783  14.834
21216W        W92745  34.854  22.845   5.006
21217W        W92746   6.650  25.824  11.870
21218W        W92747   6.810  16.481  14.061
21219W        W92748   6.346   1.896   4.778
21220W        W92749  42.994   4.131  12.623
21221W        W92750  13.858  20.499  13.604
21222W        W92751  31.685  35.287  10.378
21223W        W92752   6.415  10.794  12.876
21224W        W92753   3.496  40.432  11.593
21225W        W92754  29.233  36.067  13.121
21226W        W92755   1.380  34.522   2.795
21227W        W92756   2.850  20.475  14.239
21228W        W92757  28.102  15.795  11.107
21229W        W92758   7.932  25.261   2.647
21230W        W92759  16.972  18.789  12.527
21231W        W92760  26.658  39.391   4.667
21232W        W92761  15.406  26.676   1.180
21233W        W92762  34.752  12.301  12.998
21234W        W92763  42.596   5.877   0.682
21235W        W92764   3.254  15.345   0.796
21236W        W92765   8.179  10.297   3.476
21237W        W92766  32.911  10.334   3.192
21238W        W92767   4.718  31.971  12.047
21239W        W92768   9.396   2.329  10.618
21240W        W92769  32.783   0.470   3.808
21241W        W92770  31.094   5.528   1.004
21242W        W92771  10.650  36.601   1.606
21243W        W92772  38.976   1.988  10.871
21244W        W92773   4.319  39.841   2.502
21245W        W92774  42.361  13.995  13.887
21246W        W92775   8.222  26.240  11.717
21247W        W92776   6.194  24.352  10.659
21248W        W92777  16.669  20.853  12.377
21249W        W92778   3.399  37.882  13.821
21250W        W92779  37.864   6.617   0.298
21251W        W92780  33.783  11.886   2.712
21252W        W92781  38.551  43.511   0.824
21253W        W92782  12.346   8.130  14.848
21254W        W92783  44.786  37.899   0.654
21255W        W92784  40.512  18.523  12.079
21256W        W92785  14.274  40.116  14.107
21257W        W92786  13.660  44.402   1.862
21258W        W92787  15.607  23.739   4.976
21259W        W92788   1.315  22.794   0.815
21260W        W92789  40.951  35.550  14.226
21261W        W92790  34.043  28.184   1.428
21262W        W92791  19.398  12.865  14.236
21263W        W92792  40.897  33.453   2.791
21264W        W92793  44.869   4.173  14.925
21265W        W92794   9.309   3.719   2.746
21266W        W92795  18.712   5.324  10.554
21267W        W92796  27.702  22.082   2.133
21268W        W92797  25.761  12.337  14.897
21269W        W92798  39.036   3.861  13.222
21270W        W92799  16.849  11.699  14.357
21271W        W92800  41.208  20.276  12.543
21272W        W92801   3.308  32.888  13.979
21273W        W92802  33.361  10.053   3.168
21274W        W92803  27.195  29.514  13.432
21275W        W92804   3.910  13.162   2.172
21276W        W92805  27.543  29.396   1.320
21277W        W92806   3.690  42.927   3.065
21278W        W92807  19.321  31.171  14.853
21279W        W92808  27.935  41.334  14.738
21280W        W92809  44.242  31.564   2.819
21281W        W92810  39.860  31.522   1.415
21282W        W92811  19.667   3.925  13.595
21283W        W92812  33.043  16.171  12.032
21284W        W92813  12.757  36.486  10.753
21285W        W92814  23.152  35.545   3.212
21286W        W92815   9.754  12.815  12.860
21287W        W92816  32.160  24.170  11.289
21288W        W92817  26.669   7.701  10.631
21289W        W92818  32.431  34.606  11.645
21290W        W92819  39.955  19.178  13.044
21291W        W92820  12.838   3.445  10.488
21292W        W92821  40.440   2.566  11.617
21293W        W92822  44.278  37.747   5.098
21294W        W92823   9.751  13.226   1.379
21295W        W92824  32.010  14.624   2.250
21296W        W92825  19.214   1.182   0.441
21297W        W92826  29.796  33.654   3.172
21298W        W92827   1.992  25.435   3.671
21299W        W92828   2.725  25.443  12.402
21300W        W92829   6.937  41.167  12.496
21301W        W92830  18.936   7.885   4.068
21302W        W92831  12.100  26.016   4.513
21303W        W92832  37.093  37.271   3.285
21304W        W92833  10.255  21.743  10.521
21305W        W92834  42.845   8.881   2.180
21306W        W92835  43.676  27.703   0.081
21307W        W92836  33.168  16.170  11.067
21308W        W92837  28.828   7.906  11.429
21309W        W92838  40.478  23.990   1.366
21310W        W92839   8.124   3.311  12.417
21311W        W92840  37.051  17.554  10.812
21312W        W92841  16.205  12.108  12.370
21313W        W92842   5.822   9.244  13.510
21314W        W92843  19.673  27.455   1.797
21315W        W92844  25.990  33.067   4.385
21316W        W92845  29.503  20.632  13.568
21317W        W92846  13.852  11.576   4.660
21318W        W92847  43.764  39.807  12.902
21319W        W92848  33.079  42.718   2.610
21320W        W92849  31.527  25.216   1.767
21321W        W92850  13.712   8.798  13.958
21322W        W92851   3.646  37.862  11.613
21323W        W92852  13.729  25.459   2.081
21324W        W92853  25.152  34.303  13.421
21325W        W92854   5.797   2.690   3.825
21326W        W92855  15.629  11.763  11.850
21327W        W92856  38.795   3.553  10.382
21328W        W92857   0.562  34.083  12.443
21329W        W92858   6.388  32.501   2.626
21330W        W92859  41.336   9.130   0.270
21331W        W92860  26.183  40.034  11.473
21332W        W92861   8.270  20.092  13.349
21333W        W92862  39.776  11.559   1.354
21334W        W92863   9.409   5.427   1.282
21335W        W92864  40.855   5.417   3.729
21336W        W92865  31.529  40.832   2.209
21337W        W92866  41.257  38.072   3.209
21338W        W92867  12.675  36.332  12.583
21339W        W92868  12.655  24.443  13.433
21340W        W92869  40.743   1.506  14.328
21341W        W92870  37.847  18.750  10.452
21342W        W92871   2.908   4.966   5.196
21343W        W92872  41.404  11.400  12.486
21344W        W92873  22.488   1.166   2.197
21345W        W92874   1.064  41.284   1.761
21346W        W92875  24.281  18.616   2.885
21347W        W92876  44.398  40.921   1.440
21348W        W92877  27.908   5.268   0.850
21349W        W92878  28.100  32.187  14.978
21350W        W92879  30.505  29.053   4.725
21351W        W92880  39.416  37.159   1.337
21352W        W92881  26.113  24.582   1.779
21353W        W92882  24.376   5.879  14.915
21354W        W92883  39.924  32.626   3.698
21355W        W92884  10.707   2.229   3.180
21356W        W92885   8.305  14.388   4.568
21357W        W92886  41.316  13.805  11.952
21358W        W92887   6.377  23.350  10.720
21359W        W92888  18.341  39.358  12.056
21360W        W92889   4.580  31.684  14.757
21361W        W92890  15.800  11.918   3.879
21362W        W92891  44.004  28.103  14.936
21363W        W92892  17.122  35.041   4.543
21364W        W92893  30.437  27.759   3.224
21365W        W92894  22.060  20.570   2.234
21366W        W92895   8.450   9.393   0.923
21367W        W92896  26.878   6.923  13.112
21368W        W92897  36.401   0.567  13.559
21369W        W92898  10.286  22.734   0.351
21370W        W92899  18.679  34.444   2.578
21371W        W92900   1.470  33.206  12.596
21372W        W92901  34.476  25.217   3.394
21373W        W92902  22.758   0.391  10.670
21374W        W92903  34.505   9.103   1.229
21375W        W92904  33.805  13.766   2.712
21376W        W92905   6.441  26.468  14.526
21377W        W92906   4.984  21.091  12.146
21378W        W92907  11.659   9.110  10.643
21379W        W92908  29.784   0.370   2.676
21380W        W92909  30.460  10.847   1.432
21381W        W92910  43.350   4.124  11.325
21382W        W92911   3.680   9.415   1.798
21383W        W92912  27.593  32.663  11.058
21384W        W92913   1.815  22.631  14.775
21385W        W92914   0.802  13.397  13.538
21386W        W92915  13.354  41.927   4.226
21387W        W92916  11.702   8.570   3.182
21388W        W92917  27.201  38.263   1.252
21389W        W92918  17.358  20.219   2.292
21390W        W92919  34.411  36.899  12.074
21391W        W92920   2.318  28.961   1.937
21392W        W92921  14.035  37.743  14.488
21393W        W92922   1.738  23.145  14.561
21394W        W92923   6.801  43.999  13.261
21395W        W92924   3.341   3.915   4.536
21396W        W92925  42.155  13.087   5.023
21397W        W92926  34.782   2.624   1.268
21398W        W92927   4.451  40.366  11.631
21399W        W92928  19.254  10.713  10.934
21400W        W92929  11.825  40.191   2.621
21401W        W92930  39.212  25.905   3.321
21402W        W92931  11.274  37.059  10.774
21403W        W92932  44.332   7.857   2.259
21404W        W92933   5.742  33.071   2.553
21405W        W92934  34.446  25.631  12.072
21406W        W92935  39.962  15.288  12.903
21407W        W92936  26.189  44.264  11.425
21408W        W92937  17.547   3.707  11.979
21409W        W92938   1.561  12.293   2.277
21410W        W92939  14.786  29.555  13.817
21411W        W92940  27.074   7.411   0.482
21412W        W92941  19.660  22.952   3.822
21413W        W92942  32.495  37.022   3.766
21414W        W92943  16.337  38.778  12.886
21415W        W92944  34.011  14.781  10.638
21416W        W92945   2.272  11.616  11.137
21417W        W92946  13.845   6.306   2.772
21418W        W92947   0.383   2.886   1.323
21419W        W92948  21.673  20.768  10.658
21420W        W92949  35.706  35.178  14.099
21421W        W92950  13.281  35.943   1.304
21422W        W92951  28.123  44.794  10.118
21423W        W92952  35.276  28.135   2.860
21424W        W92953  32.986  12.696  10.499
21425W        W92954  24.589  31.028  11.471
21426W        W92955  25.760  24.257  13.849
21427W        W92956  32.946  33.740  14.775
21428W        W92957  25.974  20.622   4.796
21429W        W92958   0.921  36.555  14.430
21430W        W92959  19.212  18.076   1.677
21431W        W92960   8.472  36.170  13.034
21432W        W92961  31.458  40.184  13.514
21433W        W92962  23.505  33.410   2.450
21434W        W92963   1.178  43.812   1.143
21435W        W92964  11.732  16.878  10.812
21436W        W92965   1.003  25.255  10.106
21437W        W92966   6.333  28.774   3.659
21438W        W92967   8.268  21.189  14.503
21439W        W92968   0.726  38.586   3.189
21440W        W92969  39.895  34.145   3.183
21441W        W92970  13.240   6.862   2.178
21442W        W92971  38.079  38.906   2.773
21443W        W92972  32.574  23.767   3.978
21444W        W92973  18.624   0.009  12.238
21445W        W92974  22.836   3.325  14.745
21446W        W92975  13.617  44.814  13.342
21447W        W92976  30.679  17.320   5.027
21448W        W92977  15.983  27.027   4.640
21449W        W92978  44.632  37.440  11.741
21450W        W92979   2.766  13.165  11.983
21451W        W92980  25.695  18.249  14.275
21452W        W92981  42.665  18.610  11.998
21453W        W92982  34.024  32.038   4.093
21454W        W92983   0.975  27.163   3.256
21455W        W92984  39.056  23.595  11.473
21456W        W92985  27.340  37.403   2.872
21457W        W92986  38.358  36.064   4.782
21458W        W92987  21.678  13.205   4.667
21459W        W92988  25.217  26.607   3.631
21460W        W92989  12.926  40.838  14.075
21461W        W92990  13.115  20.258  12.720
21462W        W92991  36.527  29.036   1.288
21463W        W92992  10.807  10.821   2.658
21464W        W92993   4.878  15.278   1.130
21465W        W92994  35.866  17.921  14.144
21466W        W92995  24.481  23.632   3.691
21467W        W92996  24.798   3.385   3.234
21468W        W92997  31.289   8.223  11.869
21469W        W92998   6.937  15.436   4.057
21470W        W92999  30.465   7.796   2.710
21471W        W93000  15.208  38.381   1.853
21472W        W93001  19.767  29.072   1.374
21473W        W93002  30.324  33.645   3.242
21474W        W93003  19.038  25.484  14.593
21475W        W93004  36.820  36.213  14.239
21476W        W93005   3.665  12.222   0.584
21477W        W93006  16.971  34.406  11.478
21478W        W93007   4.129  39.391  13.857
21479W        W93008  25.535   5.470  14.853
21480W        W93009   9.774  32.566  14.935
21481W        W93010   3.196  43.543  11.794
21482W        W93011  10.280  15.483   3.921
21483W        W93012  38.885  36.245   1.546
21484W        W93013  31.198   6.638   4.077
21485W        W93014   1.123   3.285  14.866
21486W        W93015  28.112  16.653  10.619
21487W        W93016  29.552  24.264  10.719
21488W        W93017  22.916   0.910  12.425
21489W        W93018  28.409  10.694   1.441
21490W        W93019  26.254   2.454  11.091
21491W        W93020  12.919  37.329  14.775
21492W        W93021  30.583  24.180  10.572
21493W        W93022  30.979  27.238   3.247
21494W        W93023  19.226  44.738  13.121
21495W        W93024  42.682   3.719   2.964
21496W        W93025  12.535  37.853  11.208
21497W        W93026  24.943   7.748   1.245
21498W        W93027  25.927  11.657   3.407
21499W        W93028   2.835  12.174   4.518
21500W        W93029  24.697  12.884  11.067
21501W        W93030  28.362   3.318  13.507
21502W        W93031  15.220  26.998   4.911
21503W        W93032   3.680   6.258   3.345
21504W        W93033   5.725  13.830   0.780
21505W        W93034  33.616  13.659   3.187
21506W        W93035  34.113  18.488   2.058
21507W        W93036  38.077  37.882   2.893
21508W        W93037  39.422   8.439  14.291
21509W        W93038  40.869   5.233  12.584
21510W        W93039   3.297  36.604  10.656
21511W        W93040  30.625  27.888   3.684
21512W        W93041   6.514  34.309   2.922
21513W        W93042  30.282   4.601   2.777
21514W        W93043  37.822   9.119   3.179
21515W        W93044  33.067  19.028   2.661
21516W        W93045  40.921  32.420   2.747
21517W        W93046  38.783  10.651  10.784
21518W        W93047   3.217  37.363   0.050
21519W        W93048  40.275  10.691   1.744
21520W        W93049  39.873  26.940  13.449
21521W        W93050  28.025  26.566  11.651
21522W        W93051  10.169  16.273   0.386
21523W        W93052  39.879  10.837  13.890
21524W        W93053  26.021  24.790   1.300
21525W        W93054  17.631  25.180   4.991
21526W        W93055  31.510  41.391   1.014
21527W        W93056   0.453  33.168   0.326
21528W        W93057  29.229  38.944   3.550
21529W        W93058  31.485  10.282  13.325
21530W        W93059   1.208  33.992  13.030
21531W        W93060   6.183   2.394   1.709
21532W        W93061  17.850   0.802  14.347
21533W        W93062  24.255  16.339   0.001
21534W        W93063  31.008   7.871  13.743
21535W        W93064  43.141   2.682  11.134
21536W        W93065  31.166  41.217  14.956
21537W        W93066   2.926   1.023  11.019
21538W        W93067  11.186  14.887   0.794
21539W        W93068   2.053   0.938  12.892
21540W        W93069   0.471  14.880  11.224
21541W        W93070  13.900  39.057   4.533
21542W        W93071   5.722  11.140   1.568
21543W        W93072  17.217   8.782  11.505
21544W        W93073   8.849  36.038   0.753
21545W        W93074  25.536  42.806  10.399
21546W        W93075  20.081   4.402   4.048
21547W        W93076   6.758  26.499  10.620
21548W        W93077   9.220  41.850   0.285
21549W        W93078  26.605  10.547   0.274
21550W        W93079  42.084  32.633  14.634
21551W        W93080  21.746  44.902  13.575
21552W        W93081  28.959  28.858   0.382
21553W        W93082  43.671  14.405   3.176
21554W        W93083  37.352  11.286   0.934
21555W        W93084  31.574  31.714  11.421
21556W        W93085   4.146   5.309  12.911
21557W        W93086  37.455  37.782  13.936
21558W        W93087  10.805  21.185  12.626
21559W        W93088  43.502   3.098   0.389
21560W        W93089  43.258   7.659   3.166
21561W        W93090  26.567  34.535  10.362
21562W        W93091  14.800  38.298   3.685
21563W        W93092  31.172  14.304   1.860
21564W        W93093  18.639  35.648  11.514
21565W        W93094  15.582  40.299  12.648
21566W        W93095  19.596  11.073  13.148
21567W        W93096   3.734  41.906   2.318
21568W        W93097  10.455  16.212  14.953
21569W        W93098  19.101  19.032  13.941
21570W        W93099  43.601   6.728  13.781
21571W        W93100  44.797  35.476   3.615
21572W        W93101  29.915  42.095   4.607
21573W        W93102  11.370  10.511  10.842
21574W        W93103  23.532  32.470  10.507
21575W        W93104   8.897   1.757   1.885
21576W        W93105  12.361   6.850   3.690
21577W        W93106  39.375  25.591  10.830
21578W        W93107   9.182  41.249   2.671
21579W        W93108  10.387  36.899   2.736
21580W        W93109  26.783  10.417  13.839
21581W        W93110   0.086  39.239   3.176
21582W        W93111  19.898  35.640   0.779
21583W        W93112  33.948  37.073  11.940
21584W        W93113  34.006  40.611   4.113
21585W        W93114  38.759  40.010  12.323
21586W        W93115  36.617   2.943  14.502
21587W        W93116  40.865  17.161  14.255
21588W        W93117  23.664  14.055  13.948
21589W        W93118  34.434  25.872   4.466
21590W        W93119  23.889  40.956  14.916
21591W        W93120  13.088  33.413   5.168
21592W        W93121  33.274  32.606  11.962
21593W        W93122  27.595   6.106  10.568
21594W        W93123  39.976   6.792  11.477
21595W        W93124   4.726  43.257  14.748
21596W        W93125   7.096  43.302   4.597
21597W        W93126   7.689  22.024   5.011
21598W        W93127  26.367  31.526  13.001
21599W        W93128  30.302   8.892  11.630
21600W        W93129   6.006   4.253  11.021
21601W        W93130  27.312  34.973  10.249
21602W        W93131  20.713  30.643  13.938
21603W        W93132  10.674  34.734  12.813
21604W        W93133   6.780  42.453   5.095
21605W        W93134  10.383  25.256  11.090
21606W        W93135   8.088  10.339   4.012
21607W        W93136  19.025   1.912  13.360
21608W        W93137  21.488  23.388   1.248
21609W        W93138   1.206  39.329  14.881
21610W        W93139   9.245  22.403  13.490
21611W        W93140  19.063   7.258  13.396
21612W        W93141  25.107   6.606   2.781
21613W        W93142  25.933  33.029  10.673
21614W        W93143  29.055  40.809  14.237
21615W        W93144  41.738  31.562  12.279
21616W        W93145  24.485   6.261   0.957
21617W        W93146  23.269  36.553   4.679
21618W        W93147   1.544  35.886   1.455
21619W        W93148  36.378  19.357  11.154
21620W        W93149  29.975  18.574  11.217
21621W        W93150  30.903  40.842   1.480
21622W        W93151  29.748   1.740   0.303
21623W        W93152  41.356  43.357   4.682
21624W        W93153   3.354   1.221   3.439
21625W        W93154  37.448  18.179   3.692
21626W        W93155  13.060  40.017   0.473
21627W        W93156  30.015  44.772   3.254
21628W        W93157  36.639  42.094   0.585
21629W        W93158  28.395  26.912  12.081
21630W        W93159   2.868  33.923  11.092
21631W        W93160  36.017   6.814  13.223
21632W        W93161   7.659  29.199  11.519
21633W        W93162  22.246  23.065  12.663
21634W        W93163   2.311  28.189   0.321
21635W        W93164  38.810  28.016   3.199
21636W        W93165  41.399  32.082  14.863
21637W        W93166   1.812   4.963  11.569
21638W        W93167   9.846  21.532   2.392
21639W        W93168  18.198  10.106   4.211
21640W        W93169  15.603  35.915  12.865
21641W        W93170  12.794  33.858  12.324
21642W        W93171  22.221  30.817   0.940
21643W        W93172   8.165   6.381   2.503
21644W        W93173   6.874  28.983  13.358
21645W        W93174  21.480  16.748  12.977
21646W        W93175   6.252  41.434   4.561
21647W        W93176   2.968  20.047   4.504
21648W        W93177  26.549  25.398   3.577
21649W        W93178  19.008  11.206  12.456
21650W        W93179   6.892  17.331  13.230
21651W        W93180  40.409   3.342  14.405
21652W        W93181  20.117   1.365  10.839
21653W        W93182   1.678   6.709  13.067
21654W        W93183  44.926  41.045   1.376
21655W        W93184  26.100  41.324   3.767
21656W        W93185   5.268  34.502  14.783
21657W        W93186   2.764   1.383   1.364
21658W        W93187   3.155  36.014  14.535
21659W        W93188  37.624   8.755   1.621
21660W        W93189  28.294  17.277   4.678
21661W        W93190  16.013   5.899  12.582
21662W        W93191  12.265  35.139  13.469
21663W        W93192  13.238  43.986   3.354
21664W        W93193  40.079  30.115   4.527
21665W        W93194  17.877  18.869  13.392
21666W        W93195  32.648   8.049  13.932
21667W        W93196  22.984  12.166  12.323
21668W        W93197  16.275  13.546  10.242
21669W        W93198  12.585  14.247   1.846
21670W        W93199  10.942  11.268  14.811
21671W        W93200  24.279  41.059  12.054
21672W        W93201  14.315  15.536  13.225
21673W        W93202  40.396  40.439   3.390
21674W        W93203   2.849  24.924  12.505
21675W        W93204  24.122  10.564   0.448
21676W        W93205   5.819   4.415   1.329
21677W        W93206  10.948   0.457   0.931
21678W        W93207  38.625  35.999   2.399
21679W        W93208  12.743  20.131   0.386
21680W        W93209   2.753   3.912   0.261
21681W        W93210  29.950   3.303   3.142
21682W        W93211  43.045  36.231  14.154
21683W        W93212  23.568  35.127   0.312
21684W        W93213  44.933  25.663   4.551
21685W        W93214  31.730  36.741   0.275
21686W        W93215   8.353  12.590  11.476
21687W        W93216  17.839  32.067   0.016
21688W        W93217  17.735  25.620   2.882
21689W        W93218  11.377  29.705  11.123
21690W        W93219  13.133  11.546  10.733
21691W        W93220  29.174  35.613  13.403
21692W        W93221   5.371  37.844   2.219
21693W        W93222  10.663  16.650   0.939
21694W        W93223  38.530  21.609  14.431
21695W        W93224   0.890  16.113  10.840
21696W        W93225  21.865  14.234   2.601
21697W        W93226  41.452  39.186   0.915
21698W        W93227  16.221  42.043   4.580
21699W        W93228  21.297  26.667   4.552
21700W        W93229  31.835  21.211  11.114
21701W        W93230  32.543  24.740  12.398
21702W        W93231   0.324   5.493  14.877
21703W        W93232  19.577  38.577  13.036
21704W        W93233   0.386  20.746   1.728
21705W        W93234  33.403  23.478  12.275
21706W        W93235  39.435   7.964   3.688
21707W        W93236   2.244  24.036   2.688
21708W        W93237   2.870  11.632  12.376
21709W        W93238  18.735  35.670  14.006
21710W        W93239  22.755  22.196   2.363
21711W        W93240   3.727  16.137   3.847
21712W        W93241  34.902  19.996  11.874
21713W        W93242   6.973  33.820  11.615
21714W        W93243   3.276  23.681  11.064
21715W        W93244  18.692   2.196  11.489
21716W        W93245  30.236  33.110   4.071
21717W        W93246  30.733  13.816  11.863
21718W        W93247  41.338  42.297  14.524
21719W        W93248   2.926   5.126   1.726
21720W        W93249   8.940  18.672  12.533
21721W        W93250  13.834  16.607  13.845
21722W        W93251   6.341  33.129   0.323
21723W        W93252  41.481  18.789  12.373
21724W        W93253   1.113  33.272   1.950
21725W        W93254  32.182  33.386   1.945
21726W        W93255  12.654  30.756   3.166
21727W        W93256  17.521   6.239  13.964
21728W        W93257  24.973  40.952   2.156
21729W        W93258   6.364  28.918  14.931
21730W        W93259  16.744  22.577  12.965
21731W        W93260  18.888  14.115  14.113
21732W        W93261  39.827  22.251   0.896
21733W        W93262   0.984   5.473  12.820
21734W        W93263   9.177  39.003  14.953
21735W        W93264  36.080  20.682   4.170
21736W        W93265  10.664  44.453  13.573
21737W        W93266   7.169  32.542  10.737
21738W        W93267  21.196  30.216  12.509
21739W        W93268  15.755   0.365  10.680
21740W        W93269  14.312  11.354   4.871
21741W        W93270  30.230  31.466   2.402
21742W        W93271  24.410  19.114   2.758
21743W        W93272  16.311  23.807  10.160
21744W        W93273  27.762  31.819   3.331
21745W        W93274  24.205  21.740   1.354
21746W        W93275  27.996  32.948   2.821
21747W        W93276   6.159   2.251  14.848
21748W        W93277  40.841  40.017  10.798
21749W        W93278  43.750   5.351   2.905
21750W        W93279  11.235  43.589  13.589
21751W        W93280  11.900  11.353   3.572
21752W        W93281  28.873  41.055   3.239
21753W        W93282  10.215  15.557  11.808
21754W        W93283   5.750  12.402   1.866
21755W        W93284  33.373  41.397   2.991
21756W        W93285   3.848  41.312   3.575
21757W        W93286   6.478  33.013   4.304
21758W        W93287  19.162  31.947   1.728
21759W        W93288  30.418  33.103  13.864
21760W        W93289  32.738  31.583  10.617
21761W        W93290   6.623  12.041   1.411
21762W        W93291  26.111  42.555  10.697
21763W        W93292   7.464  36.892  10.675
21764W        W93293  38.736  15.552  12.472
21765W        W93294  33.392  17.562   1.016
21766W        W93295  33.638  15.304   1.977
21767W        W93296  20.041  11.812   2.160
21768W        W93297   8.585  22.094  12.168
21769W        W93298  32.364  27.650  14.342
21770W        W93299  13.873  16.286  11.070
21771W        W93300  24.996  31.378  14.872
21772W        W93301   1.341  37.097  12.550
21773W        W93302  16.700  40.803  11.980
21774W        W93303  11.790  21.694  12.441
21775W        W93304  22.944  33.962   3.810
21776W        W93305  14.672  38.469  12.851
21777W        W93306  34.025  10.611   4.523
21778W        W93307  36.469   4.926  11.251
21779W        W93308   3.997  42.889  13.830
21780W        W93309   9.397   6.332   4.480
21781W        W93310   1.317   2.137  13.941
21782W        W93311  17.582  12.257   4.647
21783W        W93312  11.408   1.776  12.457
21784W        W93313  20.228  37.515  13.572
21785W        W93314  10.290   6.570   4.648
21786W        W93315  41.905  33.010   4.113
21787W        W93316  25.311   6.128   2.786
21788W        W93317  17.022  39.883   3.264
21789W        W93318  31.867  25.647  14.382
21790W        W93319   9.068  10.243   1.883
21791W        W93320  32.828  13.188   4.643
21792W        W93321  43.377  33.643   0.804
21793W        W93322   8.955  25.646  12.898
21794W        W93323  39.916  13.835  11.162
21795W        W93324   4.801  25.562   4.984
21796W        W93325  43.119  20.147   4.130
21797W        W93326  23.037   3.233  12.470
21798W        W93327   3.785   9.583   4.978
21799W        W93328  32.220   0.435  10.538
21800W        W93329   6.946  34.195  11.165
21801W        W93330   5.729  19.538  11.112
21802W        W93331  20.061  39.759  12.078
21803W        W93332  37.198   6.587  12.551
21804W        W93333   5.585  14.619   1.082
21805W        W93334  21.541  25.325   3.724
21806W        W93335  40.234   2.820  14.735
21807W        W93336  36.613  44.340   4.296
21808W        W93337   6.463  20.267  11.862
21809W        W93338  30.602  10.713  12.091
21810W        W93339  18.921  40.193   0.060
21811W        W93340  37.799  15.180  11.417
21812W        W93341   1.433  32.922   4.599
21813W        W93342   1.819  22.116  13.020
21814W        W93343  12.039  15.604  13.402
21815W        W93344  15.635   5.550  13.404
21816W        W93345  19.435  35.439  10.461
21817W        W93346  26.188   5.317  11.037
21818W        W93347   5.346  20.760  12.014
21819W        W93348   1.024  20.510   4.699
21820W        W93349  44.833   7.223   3.822
21821W        W93350   3.030  38.917   5.145
21822W        W93351  38.776  26.981  11.143
21823W        W93352  37.005  31.487   1.764
21824W        W93353  17.264  13.068  12.433
21825W        W93354  27.067   4.277   1.090
21826W        W93355   1.797  39.521  12.045
21827W        W93356   8.425  28.486   0.838
21828W        W93357  25.273  28.276  13.585
21829W        W93358  13.568  34.939   0.904
21830W        W93359  14.834  29.183  12.859
21831W        W93360   9.275  12.593  12.779
21832W        W93361  36.850  27.586  11.702
21833W        W93362  42.970  12.115  13.930
21834W        W93363  28.678  22.299   4.415
21835W        W93364  14.277  21.169   4.359
21836W        W93365  35.815  38.933   2.798
21837W        W93366  19.571   2.850   2.836
21838W        W93367  10.002  18.550  13.767
21839W        W93368  29.026   1.285   2.774
21840W        W93369  23.295  31.400   0.774
21841W        W93370  24.918  36.072   3.867
21842W        W93371  37.962  20.611  13.609
21843W        W93372  34.302  36.160   1.295
21844W        W93373  11.096  18.768   4.432
21845W        W93374  40.857   8.658  13.939
21846W        W93375  10.437  15.919  14.264
21847W        W93376   0.505  43.698   1.828
21848W        W93377  40.276  11.207  12.059
21849W        W93378  11.645  19.114   1.492
21850W        W93379  32.705  12.102   0.200
21851W        W93380  37.762  36.433  13.880
21852W        W93381  11.103   6.649   3.859
21853W        W93382   4.662  22.966  11.355
21854W        W93383  35.912   0.263   1.845
21855W        W93384  19.649  18.358   2.739
21856W        W93385  11.246  13.416  12.004
21857W        W93386  30.554  11.297  11.866
21858W        W93387  17.485  37.415  12.859
21859W        W93388  13.215  10.409  14.921
21860W        W93389  18.709  22.182   4.506
21861W        W93390  26.435  13.757   3.169
21862W        W93391  27.077  11.683  11.523
21863W        W93392  41.538  16.120  10.923
21864W        W93393   9.462  16.793  11.802
21865W        W93394  19.198  13.826   0.786
21866W        W93395  19.068   6.638   0.026
21867W        W93396  21.841  17.671   4.204
21868W        W93397  34.838  13.645   2.802
21869W        W93398   2.884  35.039   3.170
21870W        W93399  22.585  22.848   4.561
21871W        W93400  43.346  27.361  12.024
21872W        W93401  28.767  11.315   4.597
21873W        W93402   8.732  28.095   1.521
21874W        W93403  43.293   9.367  14.424
21875W        W93404   7.351  41.470  12.393
21876W        W93405   1.260  24.058   3.755
21877W        W93406  10.187  21.149   4.378
21878W        W93407  15.999  26.428  14.876
21879W        W93408  22.035  43.788  14.819
21880W        W93409  24.417  34.767  12.812
21881W        W93410  10.779  44.909   2.627
21882W        W93411  15.081   9.759   2.877
21883W        W93412  12.539  19.430  10.368
21884W        W93413  40.614   7.147  11.080
21885W        W93414   7.263  22.495  12.155
21886W        W93415   7.899   7.708   4.399
21887W        W93416  22.606  41.947  10.536
21888W        W93417   4.831  41.092  10.672
21889W        W93418  39.735  26.512   1.475
21890W        W93419  28.177  35.181   3.442
21891W        W93420  30.465  15.063   3.223
21892W        W93421  38.152  23.038   2.194
21893W        W93422  12.796  19.792   2.230
21894W        W93423  29.012  38.506   4.679
21895W        W93424  41.520  24.057   3.172
21896W        W93425   7.277   3.476   3.672
21897W        W93426  17.859   8.203  12.530
21898W        W93427  38.919  16.199  10.689
21899W        W93428  35.342  17.555   2.729
21900W        W93429  23.706  13.054   1.908
21901W        W93430  33.464  13.843   3.762
21902W        W93431   5.391  29.989   3.315
21903W        W93432   8.697  11.211   3.598
21904W        W93433  23.642  31.472   3.125
21905W        W93434  19.492   0.091   1.030
21906W        W93435  44.051   7.357  13.140
21907W        W93436  31.725  23.608   0.759
21908W        W93437  29.961  33.863   1.255
21909W        W93438  39.180  10.233   4.163
21910W        W93439  44.050   0.817   0.559
21911W        W93440   1.520   5.330   0.923
21912W        W93441  29.430  18.487   2.644
21913W        W93442  16.359  30.434   0.826
21914W        W93443  20.517  43.709   3.713
21915W        W93444  32.609  17.328  11.855
21916W        W93445  12.164  29.280  11.592
21917W        W93446  21.536  42.343  10.663
21918W        W93447  37.987  33.625   2.431
21919W        W93448   8.703   4.678   1.960
21920W        W93449   6.882  27.564   4.308
21921W        W93450   2.015  18.542  11.631
21922W        W93451   0.011   1.919   4.157
21923W        W93452  15.638   8.678   4.303
21924W        W93453   9.194  28.546  11.497
21925W        W93454  33.582  32.604   2.926
21926W        W93455  39.443  11.364   2.197
21927W        W93456  20.221  19.754   3.377
21928W        W93457  24.531  11.479   4.179
21929W        W93458  33.069  31.506  14.477
21930W        W93459  11.550  15.093  14.929
21931W        W93460  11.777   9.170  12.549
21932W        W93461   8.942  38.730   0.748
21933W        W93462  19.808  16.514   0.745
21934W        W93463   7.942   0.195  12.294
21935W        W93464  30.382  26.436  12.983
21936W        W93465  12.950  13.083   1.316
21937W        W93466  16.349  33.816   4.107
21938W        W93467   0.328  15.817   1.224
21939W        W93468  41.012  33.919   0.799
21940W        W93469  15.271  38.403  13.594
21941W        W93470  28.680  35.900  11.064
21942W        W93471   7.483  24.235  10.614
21943W        W93472  34.801  22.695   2.743
21944W        W93473  28.180  20.576  10.782
21945W        W93474  15.670  38.891   1.353
21946W        W93475  31.151   9.838  13.427
21947W        W93476  41.515  22.129   3.342
21948W        W93477   2.664  21.078  10.937
21949W        W93478  37.933  11.216   2.842
21950W        W93479   8.914  14.311   4.172
21951W        W93480   9.807  33.217  11.071
21952W        W93481  37.707  17.755  12.114
21953W        W93482  30.331  43.432   0.799
21954W        W93483  39.248  26.298  12.845
21955W        W93484  40.328   9.425   1.452
21956W        W93485  36.454  25.438   0.243
21957W        W93486  31.817  27.972   1.987
21958W        W93487  38.642  35.634   4.917
21959W        W93488  33.309   4.365  13.817
21960W        W93489   8.578   8.967  12.063
21961W        W93490   1.388   8.663   1.441
21962W        W93491  25.237  18.498   3.312
21963W        W93492   7.629  18.659   1.149
21964W        W93493  31.960  20.934  10.619
21965W        W93494  36.308  42.318  10.982
21966W        W93495  26.302  26.520   0.320
21967W        W93496  15.751  44.647   1.934
21968W        W93497  29.535  14.086  13.917
21969W        W93498  26.745  10.607  11.067
21970W        W93499  35.528   0.857  13.119
21971W        W93500  16.591   5.278   3.181
21972W        W93501  18.741  11.388  13.326
21973W        W93502  33.576  41.570  11.109
21974W        W93503   3.077  28.140  14.466
21975W        W93504   7.141  19.704   2.334
21976W        W93505   1.083  34.449  11.240
21977W        W93506   5.084  10.947  12.961
21978W        W93507   7.395  18.102   0.809
21979W        W93508  21.596  18.535   2.685
21980W        W93509  22.247  10.182   1.830
21981W        W93510  33.852   4.433  12.978
21982W        W93511  30.593  37.270  13.933
21983W        W93512  10.811  25.190   3.363
21984W        W93513  30.480  18.350  14.440
21985W        W93514  20.576  18.300   4.072
21986W        W93515  19.521  30.614  10.758
21987W        W93516  29.229  23.748   1.204
21988W        W93517  31.568   1.815   1.875
21989W        W93518  12.628  29.517   0.372
21990W        W93519  30.726  14.253   2.132
21991W        W93520   1.552   2.377  14.782
21992W        W93521  34.443  36.848  11.158
21993W        W93522  28.729  41.894   2.224
21994W        W93523  30.080  39.967   0.031
21995W        W93524   5.109  18.541   3.905
21996W        W93525   9.568  17.138   2.253
21997W        W93526   1.488  31.635   0.053
21998W        W93527  16.725  36.602  12.034
21999W        W93528   8.756  19.726  11.196
22000W        W93529  29.924  38.505  12.414
22001W        W93530  36.803  40.871  13.475
22002W        W93531  39.824  17.766   3.604
22003W        W93532  13.553   6.383   3.189
22004W        W93533  16.667   4.246   0.220
22005W        W93534  38.576   2.039   0.560
22006W        W93535  23.110   4.670   1.299
22007W        W93536   6.302   0.177  12.537
22008W        W93537  21.129   9.383   1.661
22009W        W93538   6.813  29.335  12.386
22010W        W93539  26.406  27.890   1.443
22011W        W93540  41.591  33.981   3.744
22012W        W93541  10.842  20.843   5.115
22013W        W93542  19.673  11.124   0.736
22014W        W93543  39.281  10.592   4.552
22015W        W93544   6.788  27.465  10.856
22016W        W93545  21.597  20.827  12.586
22017W        W93546  14.973  37.420   3.402
22018W        W93547  25.424  10.083   4.884
22019W        W93548  39.548  14.640   4.550
22020W        W93549  43.763  22.089   4.230
22021W        W93550  34.721  19.657   4.582
22022W        W93551  32.549  19.643  12.969
22023W        W93552  14.962  23.520   4.518
22024W        W93553   9.154   4.811  13.919
22025W        W93554  36.828  17.303  12.380
22026W        W93555  42.472  23.961   0.414
22027W        W93556   9.939   6.321   3.743
22028W        W93557  27.969  41.538   2.151
22029W        W93558   5.869   2.925   0.758
22030W        W93559  29.574  11.350  10.797
22031W        W93560  23.953  22.980   0.415
22032W        W93561   5.398   1.390  13.517
22033W        W93562  35.362  17.641   3.266
22034W        W93563  25.953  29.077   3.158
22035W        W93564  20.014  38.785   1.338
22036W        W93565  44.364   7.626   4.606
22037W        W93566   2.371  32.197  13.058
22038W        W93567  27.044  10.563   3.213
22039W        W93568   6.509  12.860   5.015
22040W        W93569  38.997  12.200  11.458
22041W        W93570  25.658   8.745  12.965
22042W        W93571   1.957  40.035   1.208
22043W        W93572   2.869  29.516   2.404
22044W        W93573  29.160   2.512   2.663
22045W        W93574  20.536  26.623   1.313
22046W        W93575  38.863  31.623   4.230
22047W        W93576  37.014  14.242  11.208
22048W        W93577  11.720  10.701   2.314
22049W        W93578  17.288  11.933  14.533
22050W        W93579  21.329  35.941   1.935
22051W        W93580  31.509  28.056  11.850
22052W        W93581   7.162   6.420   2.372
22053W        W93582   2.219  32.630   0.181
22054W        W93583   5.735  13.217   2.183
22055W        W93584  15.604  22.296  13.954
22056W        W93585   7.769  15.963   4.127
22057W        W93586  35.430  22.971  12.221
22058W        W93587  39.432  30.590  10.925
22059W        W93588  18.043  22.617  10.574
22060W        W93589  27.170  12.290  14.465
22061W        W93590  19.677  36.128  13.829
22062W        W93591  16.124  36.414  10.682
22063W        W93592  33.816  19.183  13.753
22064W        W93593  34.868  21.072   3.637
22065W        W93594  31.587   7.207  13.389
22066W        W93595  36.016  26.008   2.388
22067W        W93596  10.421  16.579  13.330
22068W        W93597  44.393  29.873   0.268
22069W        W93598  20.778  34.429  13.450
22070W        W93599  44.849  21.527   3.362
22071W        W93600   5.182  29.574   0.261
22072W        W93601  36.971  14.092   2.714
22073W        W93602   6.462  37.463   0.852
22074W        W93603  18.521  31.580  10.602
22075W        W93604   9.867  39.026   1.916
22076W        W93605  35.883  29.280   1.719
22077W        W93606   2.718   7.755   2.220
22078W        W93607  42.384  28.183   1.106
22079W        W93608  16.314  34.592   0.515
22080W        W93609  31.418  41.738   1.753
22081W        W93610  34.833   2.043  14.052
22082W        W93611   2.508  38.349  14.273
22083W        W93612  28.543  38.140   3.367
22084W        W93613  35.133   8.749  14.325
22085W        W93614   7.708  42.375  10.621
22086W        W93615   7.789  44.432   4.741
22087W        W93616   9.607   5.329   3.621
22088W        W93617  28.435   8.855   4.206
22089W        W93618  36.073  38.732   3.252
22090W        W93619  11.795  37.533  12.471
22091W        W93620  23.400   2.861   2.575
22092W        W93621  25.189   5.431   4.646
22093W        W93622  19.417   8.938   0.175
22094W        W93623  17.284  26.497   0.467
22095W        W93624  14.248   0.793  12.938
22096W        W93625  40.998  27.590   3.357
22097W        W93626  34.420  29.740  14.975
22098W        W93627   7.327  23.841  12.009
22099W        W93628  14.854  19.034  14.487
22100W        W93629  10.885   4.936  13.024
22101W        W93630  16.879  18.805  13.483
22102W        W93631  34.561   4.697  11.078
22103W        W93632  10.855  35.533   3.212
22104W        W93633  37.627  24.614   1.380
22105W        W93634  17.543  42.369   0.458
22106W        W93635  42.073   1.225  11.154
22107W        W93636   8.417   1.530   1.805
22108W        W93637  32.435   9.655   3.202
22109W        W93638  33.862  24.176   1.840
22110W        W93639  37.866  28.845   4.436
22111W        W93640  36.178  30.851  11.158
22112W        W93641  11.275  26.317  10.426
22113W        W93642  10.141  22.214   3.365
22114W        W93643  34.497  28.991  12.941
22115W        W93644  15.789  23.070  10.439
22116W        W93645  29.466  32.021   3.574
22117W        W93646  43.358  34.580   3.342
22118W        W93647  22.469  43.974  12.620
22119W        W93648  20.593  11.040   0.859
22120W        W93649   8.186  18.298  12.691
22121W        W93650  27.129  29.621   4.133
22122W        W93651   6.729  14.274  11.224
22123W        W93652  21.890  19.835  14.812
22124W        W93653  19.738  21.347  12.959
22125W        W93654  36.883  28.720   2.330
22126W        W93655   1.873  38.597  14.930
22127W        W93656  42.043   4.276   3.528
22128W        W93657  40.386   6.933  14.060
22129W        W93658  25.672  28.027   4.612
22130W        W93659  44.747  27.084  11.699
22131W        W93660  15.510  31.011  12.475
22132W        W93661  11.307  33.194  14.731
22133W        W93662   5.822  18.591   1.654
22134W        W93663  36.373  24.296   0.044
22135W        W93664  34.547  13.920  12.453
22136W        W93665  14.224  11.267  14.656
22137W        W93666  26.679  27.496   3.667
22138W        W93667  34.879  36.007  11.963
22139W        W93668   2.496  30.971  14.028
22140W        W93669  27.796   4.789  10.668
22141W        W93670  10.878  35.881  12.686
22142W        W93671   1.321  28.038   2.896
22143W        W93672  17.355   5.857  11.623
22144W        W93673   0.010   4.171  11.582
22145W        W93674   1.245  36.723  11.606
22146W        W93675  39.980   3.993  14.937
22147W        W93676   5.425   4.220  11.913
22148W        W93677  11.916   7.597  14.189
22149W        W93678   0.293  40.532  14.174
22150W        W93679   0.443  26.277  12.362
22151W        W93680   6.120   5.967   2.860
22152W        W93681   7.435  31.051  13.991
22153W        W93682  15.381  31.459   4.595
22154W        W93683  17.629   9.135  11.540
22155W        W93684  44.528  11.000  13.279
22156W        W93685  39.309  23.005   0.450
22157W        W93686  34.607  40.973   2.048
22158W        W93687  29.618  22.883  11.181
22159W        W93688  41.397  35.854   2.494
22160W        W93689   9.612  10.811  10.574
22161W        W93690   0.281   5.939   2.848
22162W        W93691  34.572  17.336  14.475
22163W        W93692  42.884  35.862  14.465
22164W        W93693  27.499  16.106  14.506
22165W        W93694  33.904  37.141   3.739
22166W        W93695  40.370  35.845   1.328
22167W        W93696  27.004  37.846   0.981
22168W        W93697  14.997  22.201  11.243
22169W        W93698   0.030  39.538  10.671
22170W        W93699  31.296  39.977   1.321
22171W        W93700  22.997   1.793  13.813
22172W        W93701   6.950  27.435  12.441
22173W        W93702   0.036   8.769  12.439
22174W        W93703  22.101  17.296   1.804
22175W        W93704  34.042  27.667   3.259
22176W        W93705   3.911  38.417  13.780
22177W        W93706   2.900  38.034  12.835
22178W        W93707  12.369   1.511   0.334
22179W        W93708  16.646  29.025   3.000
22180W        W93709  19.129  37.873   3.170
22181W        W93710   6.032  36.922   0.085
22182W        W93711  12.322  29.894  10.816
22183W        W93712   1.196   7.848   0.902
22184W        W93713   5.349  14.154  12.031
22185W        W93714  25.613  40.867  13.238
22186W        W93715  26.420  33.090   0.368
22187W        W93716  28.200  34.151  13.856
22188W        W93717  39.755   7.407  13.106
22189W        W93718   5.321  41.902  11.507
22190W        W93719  38.066  39.135   3.782
22191W        W93720  19.314  28.549  11.878
22192W        W93721   1.652  23.578  14.217
22193W        W93722  12.199  21.812  11.137
22194W        W93723  11.712   0.332  14.807
22195W        W93724  18.721  23.810  12.979
22196W        W93725  22.595  33.443   2.380
22197W        W93726   1.798  41.451   2.271
22198W        W93727   9.078  28.432   3.541
22199W        W93728  18.628  10.622   0.265
22200W        W93729   7.390   2.870   1.991
22201W        W93730  40.184   8.279  13.899
22202W        W93731   3.030  44.369   3.864
22203W        W93732  44.008  38.677   0.794
22204W        W93733  34.033  18.588  11.171
22205W        W93734  30.504   0.985   2.171
22206W        W93735   8.224   7.645   2.793
22207W        W93736  31.845  13.743   5.511
22208W        W93737  43.497  11.265  11.232
22209W        W93738   9.343   5.721  10.344
22210W        W93739  39.474  44.321   1.432
22211W        W93740  26.015  17.755  13.374
22212W        W93741  30.485  33.591  11.456
22213W        W93742  17.765   8.173  11.270
22214W        W93743   6.819  18.740   0.450
22215W        W93744   9.932  15.198   0.398
22216W        W93745   0.647  17.084   2.396
22217W        W93746  29.153  12.148  13.326
22218W        W93747   4.304  13.099  13.140
22219W        W93748  15.629  20.464   2.888
22220W        W93749  27.071  38.226   3.313
22221W        W93750  42.077   7.407   2.076
22222W        W93751   6.446   2.441   4.217
22223W        W93752  35.535  23.246   2.686
22224W        W93753  22.284  13.693  14.926
22225W        W93754  11.693  34.501  11.477
22226W        W93755   0.424  43.023   3.631
22227W        W93756  23.874  43.423  12.093
22228W        W93757  16.558   1.009   2.841
22229W        W93758  33.369  34.425  12.155
22230W        W93759   0.924  36.928   2.858
22231W        W93760  34.821   0.967   1.403
22232W        W93761  25.178  25.617  12.096
22233W        W93762  16.211  43.926   2.766
22234W        W93763   7.786  44.438   3.278
22235W        W93764  17.733   1.942  12.936
22236W        W93765  26.577  41.100   4.446
22237W        W93766   3.243  13.703   3.332
22238W        W93767  29.869  24.705  10.780
22239W        W93768  42.550  32.650   0.392
22240W        W93769   0.248  38.328  13.246
22241W        W93770  20.089  39.804   1.282
22242W        W93771  29.962  11.019  10.884
22243W        W93772  38.618  23.921   2.421
22244W        W93773  11.888  37.476  13.390
22245W        W93774   3.309  34.903   0.493
22246W        W93775   6.382   4.982  11.998
22247W        W93776   5.178  12.250   2.213
22248W        W93777  25.683  11.250  10.540
22249W        W93778  34.448  21.257   2.178
22250W        W93779  18.301  22.244  10.287
22251W        W93780  20.591  33.211  13.713
22252W        W93781  30.136  37.066   4.635
22253W        W93782   0.200  26.745  11.100
22254W        W93783  12.335   9.130   0.220
22255W        W93784   8.489  20.184  14.231
22256W        W93785   2.994  16.492  13.371
22257W        W93786  36.959   4.386   2.817
22258W        W93787   6.953  28.691   2.396
22259W        W93788   5.210  38.982  10.728
22260W        W93789  31.172   0.474  14.304
22261W        W93790  31.254  33.127   4.044
22262W        W93791  26.652  42.066   3.612
22263W        W93792  27.564  39.390   4.503
22264W        W93793  22.719  41.010   0.884
22265W        W93794  21.282  32.887   0.375
22266W        W93795   9.413  38.086   0.035
22267W        W93796   9.430  44.707   3.786
22268W        W93797  21.216  12.361   0.941
22269W        W93798  30.031  18.635  14.534
22270W        W93799  28.398  13.408  11.024
22271W        W93800   1.994  35.621   1.618
22272W        W93801  35.971   6.506   3.058
22273W        W93802  44.876  14.715  10.442
22274W        W93803  26.851  27.969   1.207
22275W        W93804   3.597   6.386  11.226
22276W        W93805   2.481  21.975   0.286
22277W        W93806   5.475  40.506  10.394
22278W        W93807  43.315  30.382   1.042
22279W        W93808   5.477  34.100  13.970
22280W        W93809  20.090  21.313  10.376
22281W        W93810  36.197  16.107   0.786
22282W        W93811  11.367  23.047  10.795
22283W        W93812  21.172   1.848  14.063
22284W        W93813  20.388  19.396   3.750
22285W        W93814   3.008  15.098  14.101
22286W        W93815  33.699  35.911  14.582
22287W        W93816   7.811  35.971  12.541
22288W        W93817  29.751  37.583   2.339
22289W        W93818  13.251  10.607  13.713
22290W        W93819  32.835  27.445   3.280
22291W        W93820  34.297  28.924   1.799
22292W        W93821  44.706  25.093  10.641
22293W        W93822   0.643   4.172   3.636
22294W        W93823  34.797  22.345  11.909
22295W        W93824  25.734   4.489   4.189
22296W        W93825   9.022  19.976   5.063
22297W        W93826  35.097  32.036   2.719
22298W        W93827   5.899  19.129  12.325
22299W        W93828  24.909  19.211  12.024
22300W        W93829  25.968   8.080   0.471
22301W        W93830  40.805   1.582   2.632
22302W        W93831  13.793  18.120  14.376
22303W        W93832  35.610  16.847   0.444
22304W        W93833  15.782  15.922   0.808
22305W        W93834  30.149  25.172   1.609
22306W        W93835  14.227  13.726  12.596
22307W        W93836   5.754  20.974  14.063
22308W        W93837  24.479  23.999   1.327
22309W        W93838  25.383   8.390  11.712
22310W        W93839  26.194  28.472   1.833
22311W        W93840  30.233  14.645  14.036
22312W        W93841  17.594  16.303  12.912
22313W        W93842  22.632  31.470  10.192
22314W        W93843   6.232  36.981   1.883
22315W        W93844  29.111  36.022  10.272
22316W        W93845  42.442  23.571  10.900
22317W        W93846  43.736  36.024  13.060
22318W        W93847  13.051  41.928   0.873
22319W        W93848  15.849  32.595   0.537
22320W        W93849  25.477  41.836   2.679
22321W        W93850  17.337   2.908   3.741
22322W        W93851  12.182  18.481  13.515
22323W        W93852  34.355   1.914   0.405
22324W        W93853  19.513  34.591  11.745
22325W        W93854  30.476  20.195  14.147
22326W        W93855  41.519  23.565  14.345
22327W        W93856  18.200   3.980  12.495
22328W        W93857   3.006  31.336  13.290
22329W        W93858  29.528  13.318   3.198
22330W        W93859   3.484  28.370   0.932
22331W        W93860  37.124  31.416  13.024
22332W        W93861  35.618  20.761   3.687
22333W        W93862  38.325  27.213  14.290
22334W        W93863  30.140  11.887  14.702
22335W        W93864  40.593  22.715  11.966
22336W        W93865  38.538  21.056  10.202
22337W        W93866  43.919   7.029   1.922
22338W        W93867  18.326  33.374  12.479
22339W        W93868  17.662   1.667  14.843
22340W        W93869  15.069  34.428   3.758
22341W        W93870  15.209   7.839  10.680
22342W        W93871  13.256  34.102  12.376
22343W        W93872   8.217  40.545  10.649
22344W        W93873   7.375  38.342  12.496
22345W        W93874  39.532  25.114  12.189
22346W        W93875  24.437   9.968   1.252
22347W        W93876  15.540  29.285  12.034
22348W        W93877  42.873  21.250   0.885
22349W        W93878  29.688  18.137   0.713
22350W        W93879  32.900  10.656  13.519
22351W        W93880  20.654  32.615  13.019
22352W        W93881  37.570  26.808  12.422
22353W        W93882  19.251  38.825  14.951
22354W        W93883  28.671   2.975  12.924
22355W        W93884  25.507   8.601   1.723
22356W        W93885  42.357  12.904  10.943
22357W        W93886  42.276  37.624   2.801
22358W        W93887  17.649  35.518  14.379
22359W        W93888   0.623   4.713   0.256
22360W        W93889  14.240  33.626   4.460
22361W        W93890  17.109  10.233  13.850
22362W        W93891  36.983  42.459   2.885
22363W        W93892   0.272   8.509   4.642
22364W        W93893  41.058  19.076   3.753
22365W        W93894  28.826  24.197  11.141
22366W        W93895   3.153  20.074   3.988
22367W        W93896  20.346  29.205  13.057
22368W        W93897  35.228  11.933  14.556
22369W        W93898  24.260  27.667  12.027
22370W        W93899   9.644  23.216   2.011
22371W        W93900   5.251  34.083   2.947
22372W        W93901  31.565  34.101   2.779
22373W        W93902   8.352  29.208  12.966
22374W        W93903  36.495   0.704   4.247
22375W        W93904  30.233  10.117  14.457
22376W        W93905  10.287  25.455  13.993
22377W        W93906   9.332   0.977   3.261
22378W        W93907  20.782  39.442  10.793
22379W        W93908  10.667  26.031   1.302
22380W        W93909   0.498  39.339  11.870
22381W        W93910  18.032  41.375   4.597
22382W        W93911   2.806  30.778  12.069
22383W        W93912  37.573  20.329  11.593
22384W        W93913  40.611  29.222   1.429
22385W        W93914  33.229   6.940  14.187
22386W        W93915  44.388   5.657   3.230
22387W        W93916  32.432  44.135  13.984
22388W        W93917  16.634   1.696   0.830
22389W        W93918   8.675  31.873   1.940
22390W        W93919  28.743  37.091   0.739
22391W        W93920  39.019  16.572  11.534
22392W        W93921  16.813   9.426  11.035
22393W        W93922  39.268  14.707   4.119
22394W        W93923  42.173  39.286  13.974
22395W        W93924   4.695   5.277  12.313
22396W        W93925   6.276   4.397  14.327
22397W        W93926   4.208  22.104   0.913
22398W        W93927  39.116  35.782   2.352
22399W        W93928   5.893  33.733   3.860
22400W        W93929  12.843  28.048   3.642
22401W        W93930  30.406  15.569  13.503
22402W        W93931  29.913   7.615  12.984
22403W        W93932  27.300  13.819  13.328
22404W        W93933  12.768   0.914   5.017
22405W        W93934  36.466   9.181   1.375
22406W        W93935  17.251   5.161   1.783
22407W        W93936  32.518  13.785   3.414
22408W        W93937  42.105   2.717   2.938
22409W        W93938  26.592  12.210  13.013
22410W        W93939  18.780  29.492   0.286
22411W        W93940  18.398  36.506  11.818
22412W        W93941  18.773  29.940  12.576
22413W        W93942  16.167  23.558   4.954
22414W        W93943  33.512  34.470   3.049
22415W        W93944  18.238  34.896   1.556
22416W        W93945  17.266  24.280   0.916
22417W        W93946  15.190  15.750  12.815
22418W        W93947  18.566  14.119  13.166
22419W        W93948   2.301  44.968   3.606
22420W        W93949  38.252  35.051   3.274
22421W        W93950  22.926  27.512   4.221
22422W        W93951  42.864  39.057   0.865
22423W        W93952  40.844  44.755   0.102
22424W        W93953  15.585  12.335  13.064
22425W        W93954  22.009  14.947  11.741
22426W        W93955  26.763  21.022  10.940
22427W        W93956  30.565  36.385   1.299
22428W        W93957  30.080  36.460  14.380
22429W        W93958  23.633  38.779   3.386
22430W        W93959  12.180  31.977   4.660
22431W        W93960  26.555  42.500   0.666
22432W        W93961  24.045   3.461   5.197
22433W        W93962   5.168   5.820   4.373
22434W        W93963   9.717  15.550   0.063
22435W        W93964  41.893  13.602  13.214
22436W        W93965  34.736  39.261  12.232
22437W        W93966  16.635  42.328   3.860
22438W        W93967   3.440  27.604   2.675
22439W        W93968  21.832  42.208   1.865
22440W        W93969  33.875   0.945   3.299
22441W        W93970   8.573  37.507   2.950
22442W        W93971   0.018  34.625   4.117
22443W        W93972  31.882  33.738   0.606
22444W        W93973   1.807  43.869   3.520
22445W        W93974  43.471   6.352  14.121
22446W        W93975  24.726  10.675  12.347
22447W        W93976  33.565  10.113  13.478
22448W        W93977   8.139  21.220   0.869
22449W        W93978  42.288  39.042  12.061
22450W        W93979  44.551   2.142   0.021
22451W        W93980  13.652  26.085  10.716
22452W        W93981  27.638  13.137   0.543
22453W        W93982  44.271   3.693   3.416
22454W        W93983   9.084  36.051   1.214
22455W        W93984  31.630  24.725   1.728
22456W        W93985  28.726  31.998   4.478
22457W        W93986  43.713  16.686   2.490
22458W        W93987  10.280   1.467   0.443
22459W        W93988  42.733  10.201  12.460
22460W        W93989  24.938  16.571  10.511
22461W        W93990  28.110  21.792  13.947
22462W        W93991  15.306  36.075   4.754
22463W        W93992   1.998  16.664   2.754
22464W        W93993  43.899  40.842   1.331
22465W        W93994  32.957   1.011  12.836
22466W        W93995  37.652  23.036   3.579
22467W        W93996  12.849  22.382  11.012
22468W        W93997  20.267   6.830   4.507
22469W        W93998  21.263  18.242   1.429
22470W        W93999  32.434  28.141  14.566
22471W        W94000  27.049  25.535  10.831
22472W        W94001   7.310   6.355   1.881
22473W        W94002   7.955  42.828  13.051
22474W        W94003   8.223  11.947  13.581
22475W        W94004  26.233  20.526   1.732
22476W        W94005  17.189  33.422   1.418
22477W        W94006  21.671  29.144   1.268
22478W        W94007   8.206   0.555  14.992
22479W        W94008  20.168  16.073   0.018
22480W        W94009  24.547   5.976  10.678
22481W        W94010   3.759  39.483  14.723
22482W        W94011  17.110  19.035   2.946
22483W        W94012  29.503  14.297  11.976
22484W        W94013  13.392  23.109   0.872
22485W        W94014  10.734  12.927   2.836
22486W        W94015  21.023  29.580   1.255
22487W        W94016   8.079  12.156  11.574
22488W        W94017  28.377   3.095  11.669
22489W        W94018  10.478  42.584  12.468
22490W        W94019  39.457  32.101  11.218
22491W        W94020   4.328  41.555  14.846
22492W        W94021  36.020   3.332   0.918
22493W        W94022   2.483  43.769   4.242
22494W        W94023  29.456  28.690   3.111
22495W        W94024  38.003  39.377   1.815
22496W        W94025   8.621  43.553   2.919
22497W        W94026  20.756  15.123   2.962
22498W        W94027  44.252  19.159   3.135
22499W        W94028  15.135   4.287   4.332
22500W        W94029  39.289  12.710   3.765
22501W        W94030   1.481  42.935   1.145
22502W        W94031  25.982  42.986   4.902
22503W        W94032  32.404  38.741  10.549
22504W        W94033  35.123   5.628  13.020
22505W        W94034  29.810   4.839   1.615
22506W        W94035  28.360  34.950  10.854
22507W        W94036  20.878  30.106  14.502
22508W        W94037  31.670  27.957  13.324
22509W        W94038  20.915  16.209  12.384
22510W        W94039   8.256  14.788   3.197
22511W        W94040  24.562  15.908   3.916
22512W        W94041   5.469  21.327  13.829
22513W        W94042  16.613  35.616   0.373
22514W        W94043  16.253  31.737   1.990
22515W        W94044  21.299  17.157  13.897
22516W        W94045   5.165  17.565  13.369
22517W        W94046   8.362  37.310  14.147
22518W        W94047  24.584   8.818   1.943
22519W        W94048   9.206  27.331   4.515
22520W        W94049  10.368  23.780  13.435
22521W        W94050  32.474  11.989  11.643
22522W        W94051   1.300  24.612  12.062
22523W        W94052   7.275  22.813  13.477
22524W        W94053  25.429   4.393   1.876
22525W        W94054  42.750   4.468  10.750
22526W        W94055  21.147  25.129  11.895
22527W        W94056   8.291  21.728   2.833
22528W        W94057  13.917   2.356  10.650
22529W        W94058  30.557  11.697   3.915
22530W        W94059  42.031  36.652   2.566
22531W        W94060   6.326   3.779   4.846
22532W        W94061  22.407   6.220  13.377
22533W        W94062   4.723  44.705  13.557
22534W        W94063  22.291  42.968  10.477
22535W        W94064  31.531  36.801   3.377
22536W        W94065   5.756  44.821  12.922
22537W        W94066   6.324  24.477   3.045
22538W        W94067  42.836  24.428  10.980
22539W        W94068  35.812   0.038   0.392
22540W        W94069  23.937   4.890   4.485
22541W        W94070  39.943  28.675  14.897
22542W        W94071  26.963  11.185  11.579
22543W        W94072  39.731   1.364   0.130
22544W        W94073  13.054  34.103  10.552
22545W        W94074  44.426  16.879  12.340
22546W        W94075  25.198  29.550   1.934
22547W        W94076  29.212  23.137  11.004
22548W        W94077   4.276  19.590  11.518
22549W        W94078  23.003  43.429   2.190
22550W        W94079  43.880  26.727   1.766
22551W        W94080   6.576  20.132   3.950
22552W        W94081   8.362  20.583  11.640
22553W        W94082  19.009  29.203  11.508
22554W        W94083  16.580  11.402  13.526
22555W        W94084  38.956  23.368   4.159
22556W        W94085  29.580   1.410  13.589
22557W        W94086   9.357   1.475   1.791
22558W        W94087   1.838  27.085   2.356
22559W        W94088   8.748  30.365  12.114
22560W        W94089   1.247  31.539   0.968
22561W        W94090  38.461  10.744   0.485
22562W        W94091  28.717  43.653  12.430
22563W        W94092  23.536  23.597  13.274
22564W        W94093  21.726  19.330  14.060
22565W        W94094  33.907  27.337  14.305
22566W        W94095  10.248  19.049  12.968
22567W        W94096  19.905  19.700  13.724
22568W        W94097  42.831   4.242   3.206
22569W        W94098  28.070  31.131  13.975
22570W        W94099  22.616   1.742   1.313
22571W        W94100  44.762  19.319   2.788
22572W        W94101  35.285   5.837   0.189
22573W        W94102  34.075   7.441   0.969
22574W        W94103  10.991  37.321  10.395
22575W        W94104  14.752  14.874   2.323
22576W        W94105  44.319  43.978   3.726
22577W        W94106  36.919  10.404   1.390
22578W        W94107   6.625  31.348  11.512
22579W        W94108  29.533  39.332   1.663
22580W        W94109  25.719  18.686  14.580
22581W        W94110  38.051   0.514   1.987
22582W        W94111  18.324  31.076   3.772
22583W        W94112  19.184  37.304  11.059
22584W        W94113  13.843  34.557  13.332
22585W        W94114  13.626   8.417  12.468
22586W        W94115   9.383   5.888  13.747
22587W        W94116  26.168  13.557  11.676
22588W        W94117  21.806  37.778   5.024
22589W        W94118  39.046   5.930  14.781
22590W        W94119  33.355  42.789  14.537
22591W        W94120   1.637  20.216   3.143
22592W        W94121  12.095  42.360   0.045
22593W        W94122  18.115  20.182   1.808
22594W        W94123  40.980  41.441  12.787
22595W        W94124  21.719  35.713  13.273
22596W        W94125   6.223   4.665   3.227
22597W        W94126  32.034  43.942   0.743
22598W        W94127  10.659  26.194  14.215
22599W        W94128  20.057   9.610   4.088
22600W        W94129  29.645  25.156  11.599
22601W        W94130  31.399  39.584  11.186
22602W        W94131  12.773  32.214   1.415
22603W        W94132  44.766  36.646   4.532
22604W        W94133  10.793  15.874   2.818
22605W        W94134  11.429  44.330   1.432
22606W        W94135   6.832  41.396  12.977
22607W        W94136  11.863  11.185  11.893
22608W        W94137  14.795  11.749  13.576
22609W        W94138  23.861  24.421   4.228
22610W        W94139  16.744  23.797   1.839
22611W        W94140  18.326  11.994   2.760
22612W        W94141  26.105  14.275  13.449
22613W        W94142  34.288   9.808  12.474
22614W        W94143  27.952  10.041   3.606
22615W        W94144  21.721  38.498   3.393
22616W        W94145   6.863  41.318  14.741
22617W        W94146  34.420  19.307   1.820
22618W        W94147  29.828  30.411   2.906
22619W        W94148  29.036   9.414  11.908
22620W        W94149  28.022  26.663   3.501
22621W        W94150  41.646   8.404  14.863
22622W        W94151   7.896   5.955  12.609
22623W        W94152  22.463  22.240  14.340
22624W        W94153  37.412  44.458   2.286
22625W        W94154   8.453   1.007  14.059
22626W        W94155  17.693  43.629   2.439
22627W        W94156  26.556  26.980   3.676
22628W        W94157  41.753  16.291   2.882
22629W        W94158  17.341   6.759   0.697
22630W        W94159  19.662  21.859  11.663
22631W        W94160  41.511   3.195  12.090
22632W        W94161  22.743  35.328  11.591
22633W        W94162  24.560  30.727   0.737
22634W        W94163  30.014  10.907   0.356
22635W        W94164  28.436  24.955   4.435
22636W        W94165  40.144  29.169   3.750
22637W        W94166  27.919   1.964   9.703
22638W        W94167  26.156  43.324   4.063
22639W        W94168  34.048  35.665  13.798
22640W        W94169  28.187  24.472   2.630
22641W        W94170  39.654  30.405   1.454
22642W        W94171  44.981  40.894   3.974
22643W        W94172  28.608  13.095   0.529
22644W        W94173  30.950  21.427  14.553
22645W        W94174   1.959  43.960   2.951
22646W        W94175  31.970  26.457  12.157
22647W        W94176  42.614  25.981  13.252
22648W        W94177  35.574   6.319   2.131
22649W        W94178  34.004  37.106  11.052
22650W        W94179  21.111  16.680   4.515
22651W        W94180  17.052  18.347  10.779
22652W        W94181  43.091   4.805   0.234
22653W        W94182  41.958  35.557   4.562
22654W        W94183  34.828  43.917   0.041
22655W        W94184  10.924   6.315  10.614
22656W        W94185  25.144  16.582   3.460
22657W        W94186  39.802  14.650   4.106
22658W        W94187   3.422  11.443  14.905
22659W        W94188  16.719  23.078  12.196
22660W        W94189   2.447  36.860  12.749
22661W        W94190   6.070  16.724   0.862
22662W        W94191   7.867  17.460   4.994
22663W        W94192  12.572   3.717  10.861
22664W        W94193  14.332   7.191   4.328
22665W        W94194  43.336  13.575  13.619
22666W        W94195  12.749  42.950  13.864
22667W        W94196   7.196  26.509  12.394
22668W        W94197  14.715  31.480   3.154
22669W        W94198   8.980  40.082  10.325
22670W        W94199  21.725  35.458   3.831
22671W        W94200  11.875  12.962  12.610
22672W        W94201  12.580  32.044  12.528
22673W        W94202  40.314  24.534  10.662
22674W        W94203  33.269  36.585  11.763
22675W        W94204  20.151  22.103   1.155
22676W        W94205  16.288  42.316   0.949
22677W        W94206   2.270   7.306  14.705
22678W        W94207   8.770   2.221  14.499
22679W        W94208  28.485  33.477   4.278
22680W        W94209  21.295  39.115   3.700
22681W        W94210  34.487   9.307   3.703
22682W        W94211  37.290  36.480   4.113
22683W        W94212  43.954  25.490  14.868
22684W        W94213  37.218   9.218  10.698
22685W        W94214  19.332  20.931  14.089
22686W        W94215  39.270  18.105   0.241
22687W        W94216  43.454  13.128   0.309
22688W        W94217  44.696  11.244   0.895
22689W        W94218   7.934  37.904   4.680
22690W        W94219  34.041   1.714  10.986
22691W        W94220  22.757  44.536   4.494
22692W        W94221  28.702  17.405  10.619
22693W        W94222   1.776   9.875  10.896
22694W        W94223   9.286  12.229  13.496
22695W        W94224  12.340  40.111  12.182
22696W        W94225  20.281  41.458   0.033
22697W        W94226  38.154  25.656  14.872
22698W        W94227   3.274  34.031  11.376
22699W        W94228  10.410  35.121  11.277
22700W        W94229  12.796  38.271  11.315
22701W        W94230  25.624  36.532   2.395
22702W        W94231  26.700  12.280   4.420
22703W        W94232  27.025  41.019  14.379
22704W        W94233  21.335  28.784  13.641
22705W        W94234  13.611   4.387  11.449
22706W        W94235  19.201  23.257   2.722
22707W        W94236  31.618  15.380  13.976
22708W        W94237  28.920  29.500   4.174
22709W        W94238   2.514  23.621   4.526
22710W        W94239  24.185   7.879   1.855
22711W        W94240   0.262   0.468   5.064
22712W        W94241  42.976  28.009  14.317
22713W        W94242  44.040  26.148  14.391
22714W        W94243   9.782  29.833   4.232
22715W        W94244   3.738  22.590   1.285
22716W        W94245  35.998  37.696  12.774
22717W        W94246  26.465  20.203  13.574
22718W        W94247   7.708  37.550   2.422
22719W        W94248  20.557  24.033  13.129
22720W        W94249  15.816   7.148   2.287
22721W        W94250  42.240  21.784  12.623
22722W        W94251   9.431  35.297  14.474
22723W        W94252  41.663  36.382  14.921
22724W        W94253  40.979  41.457  13.318
22725W        W94254   3.719  37.343  13.274
22726W        W94255  24.643  40.850  11.033
22727W        W94256  28.522  31.804   1.265
22728W        W94257   9.368  27.054  11.812
22729W        W94258  18.065   6.872  13.575
22730W        W94259   1.274  38.617   3.173
22731W        W94260  30.246  34.987  12.918
22732W        W94261  27.388  11.665   2.220
22733W        W94262  34.833  27.963  12.612
22734W        W94263  20.064  35.347  11.769
22735W        W94264   0.405  13.202  10.950
22736W        W94265  15.701  31.633  11.811
22737W        W94266   8.794  40.436   1.415
22738W        W94267  18.241  16.186   1.772
22739W        W94268  12.655  44.914   4.436
22740W        W94269  38.979   1.627   2.737
22741W        W94270  10.585  17.977   3.325
22742W        W94271  24.168  29.198   1.636
22743W        W94272  13.775  30.103  12.484
22744W        W94273  44.804  34.668   1.232
22745W        W94274  30.078  30.404   0.967
22746W        W94275  40.986  10.771   3.189
22747W        W94276  38.922  14.263   1.447
22748W        W94277  27.584   9.720   3.335
22749W        W94278  32.620  24.181   2.322
22750W        W94279  34.322  24.176  11.210
22751W        W94280  30.456  16.790   1.427
22752W        W94281  33.588  40.766  12.572
22753W        W94282  18.982  35.826  11.969
22754W        W94283  33.054   8.628   1.243
22755W        W94284   5.331  28.883   2.595
22756W        W94285  38.404   0.591  12.379
22757W        W94286  37.228  32.175  13.752
22758W        W94287   6.489   6.211  11.196
22759W        W94288  43.399  37.965  11.154
22760W        W94289  14.976  22.189   0.687
22761W        W94290  38.913   5.701   3.321
22762W        W94291   3.489  12.094  11.587
22763W        W94292  40.941   9.445   2.716
22764W        W94293  16.808   2.334  12.108
22765W        W94294  42.316  34.934  12.499
22766W        W94295   1.348  38.827  13.820
22767W        W94296  19.852  33.122  14.821
22768W        W94297   3.897  21.924  14.470
22769W        W94298   0.959  18.965  10.930
22770W        W94299   0.557   3.219  11.151
22771W        W94300  29.198  44.785   0.330
22772W        W94301  37.671   3.255   1.382
22773W        W94302   2.313  16.110   4.470
22774W        W94303   6.193  32.577  11.620
22775W        W94304   2.443   4.977  14.244
22776W        W94305  21.229   5.974  12.091
22777W        W94306   7.113   3.977  14.244
22778W        W94307  24.441  32.433  11.603
22779W        W94308  20.199  20.284  12.797
22780W        W94309  23.537  37.942  12.927
22781W        W94310  38.994  15.232   0.992
22782W        W94311  36.862  20.064  13.438
22783W        W94312  23.204  11.173   0.895
22784W        W94313   9.385  27.181   3.525
22785W        W94314  18.836   8.496   3.186
22786W        W94315  39.496  18.264   3.133
22787W        W94316  13.886  17.241   4.197
22788W        W94317  38.340  34.846  12.758
22789W        W94318  26.083  11.840   3.881
22790W        W94319  41.274  16.447   3.722
22791W        W94320  39.987  13.543   2.789
22792W        W94321  14.893   3.825   3.270
22793W        W94322   2.523  15.931  13.842
22794W        W94323   2.316  30.409  12.404
22795W        W94324  11.191  37.962  14.134
22796W        W94325  27.210   2.133  11.298
22797W        W94326  31.622  33.434   1.932
22798W        W94327  22.129  31.128   0.097
22799W        W94328  20.178   6.882   2.586
22800W        W94329  26.484   9.897   2.345
22801W        W94330   2.961  24.891  14.422
22802W        W94331  35.646  42.431   2.767
22803W        W94332  15.254  36.019   3.795
22804W        W94333  40.626  40.325   9.714
22805W        W94334   6.291   9.358   3.854
22806W        W94335  34.504  43.388  13.404
22807W        W94336   5.714  23.311   1.089
22808W        W94337   8.807  21.545  10.947
22809W        W94338   2.004  38.175   2.173
22810W        W94339   0.389   4.923  10.544
22811W        W94340   1.309  17.040  14.324
22812W        W94341  23.675  35.087   1.605
22813W        W94342  39.370  34.372  14.046
22814W        W94343  30.420  20.547  11.843
22815W        W94344   0.928  29.866   4.421
22816W        W94345  28.039  31.160   0.434
22817W        W94346  37.231  35.038   4.105
22818W        W94347  20.498  33.879   0.650
22819W        W94348  29.142  14.228   1.938
22820W        W94349  40.659  19.270  11.000
22821W        W94350  32.986  11.237   1.616
22822W        W94351  14.882  39.479   3.625
22823W        W94352  17.656   6.980  12.536
22824W        W94353  42.816  13.656   1.842
22825W        W94354  19.990  18.124   2.169
22826W        W94355  12.097   0.135   3.212
22827W        W94356  18.397  38.902  10.704
22828W        W94357  28.653   4.426   3.889
22829W        W94358  21.764   3.258   0.953
22830W        W94359  21.231  34.105  11.859
22831W        W94360   1.293  25.671  13.839
22832W        W94361  11.702   0.015  12.256
22833W        W94362  13.906  34.883   1.817
22834W        W94363  22.614   2.801   3.777
22835W        W94364  24.426  23.032   4.390
22836W        W94365  23.727  22.747  13.750
22837W        W94366  20.934  28.621  11.188
22838W        W94367  38.705  39.679  11.421
22839W        W94368  14.780  27.929   4.157
22840W        W94369  36.066   7.788   1.402
22841W        W94370  23.459   6.808   4.120
22842W        W94371  34.694  21.153  11.422
22843W        W94372   2.291  33.512   1.948
22844W        W94373   9.569   2.059  13.504
22845W        W94374  27.049   1.484  12.584
22846W        W94375  31.404   3.223   1.297
22847W        W94376   5.531   2.949  11.454
22848W        W94377  21.703  20.782   3.171
22849W        W94378   5.530  34.434   2.719
22850W        W94379  21.209  41.859  10.619
22851W        W94380  21.809  43.329   0.561
22852W        W94381  38.355  10.647   2.229
22853W        W94382  32.988  39.286   3.846
22854W        W94383  31.404  35.792  13.482
22855W        W94384   6.747  18.364  12.086
22856W        W94385  27.699   7.406   3.219
22857W        W94386  27.925  25.257   2.331
22858W        W94387  10.357  18.638   0.503
22859W        W94388  32.735  22.207  13.342
22860W        W94389   8.868  10.891  11.546
22861W        W94390  10.829  38.432  13.659
22862W        W94391  14.172  43.320  14.475
22863W        W94392  29.835   2.215   1.140
22864W        W94393  31.417   0.358   0.774
22865W        W94394   9.216  23.311   2.331
22866W        W94395  31.933  41.253  11.653
22867W        W94396  21.707  19.194  12.851
22868W        W94397  43.585  34.986  14.871
22869W        W94398  38.942  36.971   2.743
22870W        W94399   7.381  27.584  13.045
22871W        W94400  22.806  32.629   1.016
22872W        W94401  18.084  44.126   0.049
22873W        W94402  32.423  37.062  12.783
22874W        W94403  26.592   0.920   0.438
22875W        W94404   9.192  34.365   4.409
22876W        W94405  13.225  29.876   1.327
22877W        W94406  33.649  27.658   9.941
22878W        W94407  41.970  29.471   1.241
22879W        W94408  31.002  43.517  14.003
22880W        W94409  31.079  25.802  12.925
22881W        W94410  37.869  32.235   4.234
22882W        W94411  38.615  17.196   4.310
22883W        W94412   3.333  10.916  12.583
22884W        W94413  13.740  26.239  13.909
22885W        W94414  43.776   3.319  10.727
22886W        W94415  40.295  13.294   3.840
22887W        W94416   7.331  34.244   3.550
22888W        W94417  43.799   1.292  11.577
22889W        W94418   9.793  13.089  13.335
22890W        W94419  22.259  30.659  14.965
22891W        W94420  31.900  23.266  14.866
22892W        W94421   4.739  13.250  11.985
22893W        W94422   9.158  33.360   4.017
22894W        W94423  25.013  13.748  13.902
22895W        W94424  22.767   6.907  10.512
22896W        W94425  30.526  37.059  12.958
22897W        W94426   9.269  34.705   2.574
22898W        W94427  10.193   4.867  12.315
22899W        W94428  34.337  14.383   2.655
22900W        W94429  26.481  10.817   0.716
22901W        W94430  23.719  40.087   0.734
22902W        W94431   6.380  16.422  10.617
22903W        W94432  28.028   1.931   4.177
22904W        W94433  10.067  41.879   5.013
22905W        W94434   9.926  12.520   1.300
22906W        W94435  24.718  13.324  11.552
22907W        W94436   2.406  11.160  11.342
22908W        W94437  17.775   8.415  13.028
22909W        W94438   6.109   5.166   0.743
22910W        W94439  38.392  41.087  11.177
22911W        W94440  41.349  40.664  11.794
22912W        W94441  13.281  32.947  13.969
22913W        W94442  17.097  32.898  11.250
22914W        W94443   3.183   7.877  11.590
22915W        W94444  41.843   4.715   9.905
22916W        W94445  25.893  33.985  11.167
22917W        W94446  16.985  22.366  11.228
22918W        W94447  40.381  28.878  12.864
22919W        W94448  10.812   5.220   0.425
22920W        W94449   6.961   1.063   1.235
22921W        W94450   5.259  23.075   1.157
22922W        W94451  13.186  42.491   4.354
22923W        W94452  44.708  34.994   3.404
22924W        W94453  35.508  17.043  13.506
22925W        W94454  40.378  28.877   1.790
22926W        W94455  41.882  33.502  12.341
22927W        W94456  23.962  22.751   3.256
22928W        W94457  20.560  44.356  13.421
22929W        W94458  31.147  18.092  13.821
22930W        W94459   9.159  10.808   2.625
22931W        W94460  30.107  11.272  11.580
22932W        W94461  30.430  34.076  14.794
22933W        W94462  39.074  43.549  12.957
22934W        W94463  32.290  43.818   3.162
22935W        W94464  10.574  25.676  11.273
22936W        W94465  19.037  19.201   0.750
22937W        W94466  34.470  20.646   2.858
22938W        W94467  31.635  17.266   0.307
22939W        W94468   9.477  12.131  13.968
22940W        W94469  18.440  10.131   2.645
22941W        W94470  14.300  33.025  10.970
22942W        W94471   4.196  36.521  11.085
22943W        W94472  27.253   0.519   0.609
22944W        W94473  44.097   9.316  13.976
22945W        W94474  29.600  27.658  13.922
22946W        W94475   1.442  40.664   1.222
22947W        W94476  40.675  43.406  11.873
22948W        W94477  10.630   9.817  11.779
22949W        W94478  19.325  43.294  13.148
22950W        W94479  12.619  37.636   9.950
22951W        W94480  36.344  19.330   5.112
22952W        W94481   1.920   3.499  10.635
22953W        W94482  17.123  18.581   0.029
22954W        W94483  44.187   0.013   1.080
22955W        W94484  34.218  38.952  12.069
22956W        W94485  27.326  42.721  10.089
22957W        W94486  28.792  18.428   4.921
22958W        W94487  28.667   5.941  11.355
22959W        W94488  43.858  27.786  10.700
22960W        W94489   3.721   4.496  11.062
22961W        W94490  38.831  30.692  14.011
22962W        W94491  33.092   9.275  12.386
22963W        W94492  18.103  16.653  11.535
22964W        W94493  41.455  37.842   1.234
22965W        W94494  10.305  28.087  13.445
22966W        W94495  18.659  11.860   3.276
22967W        W94496   1.531  39.918   3.829
22968W        W94497  21.554  36.499   3.337
22969W        W94498  38.951  29.555  14.604
22970W        W94499   5.780  38.392  13.083
22971W        W94500  44.506  27.115  13.554
22972W        W94501  32.219  18.739  12.030
22973W        W94502  39.562  36.521  12.395
22974W        W94503  39.146  36.568   0.609
22975W        W94504   4.960  14.230  13.317
22976W        W94505  17.728  30.680   4.195
22977W        W94506   0.208  21.132  12.950
22978W        W94507   8.868  23.438  11.609
22979W        W94508  13.234  18.007   4.389
22980W        W94509   7.918  10.353  11.260
22981W        W94510  13.736   4.815  12.719
22982W        W94511   5.125   1.804  11.087
22983W        W94512   7.286  22.284   4.040
22984W        W94513  22.089  35.798  12.878
22985W        W94514  38.864  13.574  10.782
22986W        W94515  25.248  13.725   2.300
22987W        W94516  13.470  24.648   0.225
22988W        W94517  42.051  35.850   3.632
22989W        W94518  19.564  18.566   3.326
22990W        W94519  42.565  25.557   2.974
22991W        W94520  38.493  12.188   0.639
22992W        W94521  42.604  15.858  14.254
22993W        W94522   7.834  31.205  11.613
22994W        W94523  32.526  34.384   3.333
22995W        W94524  12.612   8.284  12.487
22996W        W94525  13.056  18.292  13.744
22997W        W94526   4.401   5.810  12.914
22998W        W94527  22.498  18.323  10.306
22999W        W94528   7.773  28.870   4.748
23000W        W94529  11.338  34.176  10.657
23001W        W94530  18.093  43.935   1.867
23002W        W94531  12.033  41.383   1.488
23003W        W94532  13.501  38.038  13.827
23004W        W94533  11.366  26.391   1.317
23005W        W94534  36.819  25.497  14.391
23006W        W94535  31.167  44.439  10.647
23007W        W94536  12.708   7.346   2.665
23008W        W94537  42.475   9.339   3.350
23009W        W94538  39.477   9.709   3.327
23010W        W94539  14.064  38.306  11.542
23011W        W94540  43.079  24.037  11.700
23012W        W94541  26.237   0.816   3.276
23013W        W94542  33.953   3.916   0.925
23014W        W94543  23.928  14.054   2.379
23015W        W94544  26.197  12.254  12.458
23016W        W94545  36.070   4.187  10.798
23017W        W94546  41.930  32.477   1.626
23018W        W94547   7.817  37.632  12.149
23019W        W94548  15.187  32.130  14.790
23020W        W94549   4.775  14.306   0.814
23021W        W94550  13.650  21.753   3.603
23022W        W94551  12.176  13.280  12.004
23023W        W94552   5.526  43.521   3.326
23024W        W94553  35.731  22.371   2.818
23025W        W94554   0.799  27.411   3.665
23026W        W94555  39.407  24.176  12.186
23027W        W94556   3.763  25.618  11.194
23028W        W94557  11.373  39.283   1.675
23029W        W94558  36.762  36.978  11.965
23030W        W94559  11.398  35.110   4.490
23031W        W94560  33.263  18.130   2.208
23032W        W94561  40.314  25.089   2.882
23033W        W94562  17.729   0.020  11.568
23034W        W94563  33.992   2.705  10.607
23035W        W94564   5.243  33.095   2.718
23036W        W94565  13.735  34.477   4.040
23037W        W94566  37.120   8.757  12.427
23038W        W94567  10.186  28.236  11.578
23039W        W94568  18.145  44.957  13.739
23040W        W94569   4.332  18.710   2.456
23041W        W94570   8.126  20.170  13.845
23042W        W94571  13.482  17.692   0.446
23043W        W94572  18.256  30.049   2.035
23044W        W94573   6.877  25.117  10.419
23045W        W94574   2.220   8.277  14.092
23046W        W94575  42.987   3.148  13.445
23047W        W94576   7.206   4.665   1.411
23048W        W94577  37.069   4.765  10.627
23049W        W94578  33.459   7.179   4.585
23050W        W94579  36.346  42.923   0.257
23051W        W94580   2.749  36.153  11.137
23052W        W94581  14.166  36.344   3.136
23053W        W94582   0.007  40.130   1.273
23054W        W94583   9.449  11.590   1.474
23055W        W94584  23.623  14.836   2.302
23056W        W94585  14.848  43.882  11.459
23057W        W94586  21.013  30.609   0.508
23058W        W94587  21.978  24.691  13.067
23059W        W94588  13.859  12.521   0.683
23060W        W94589  35.672  10.822   0.331
23061W        W94590  23.617  24.816   4.454
23062W        W94591  39.344   6.608  13.062
23063W        W94592  10.858  11.138  13.881
23064W        W94593  42.745   5.191   0.433
23065W        W94594  33.552   9.883  13.027
23066W        W94595  10.425  22.933   4.771
23067W        W94596  22.123   5.302  10.810
23068W        W94597  15.273  37.474  10.092
23069W        W94598  29.075  24.471  10.749
23070W        W94599   6.690  24.026   3.814
23071W        W94600  31.596  21.177   4.860
23072W        W94601  30.145  16.513   9.722
23073W        W94602  35.532  24.515   1.609
23074W        W94603  10.813   5.882  11.555
23075W        W94604  31.060  11.340   1.927
23076W        W94605  24.215  17.151  10.486
23077W        W94606  42.010  31.617   1.607
23078W        W94607  11.687   5.258   3.483
23079W        W94608  43.859   0.898  11.919
23080W        W94609   0.296  12.142   0.585
23081W        W94610  35.023   4.484  10.938
23082W        W94611  21.238  38.650  11.607
23083W        W94612   0.879  17.233   0.043
23084W        W94613  43.778  31.467  14.832
23085W        W94614  20.730   7.365  13.053
23086W        W94615  21.996  29.445  13.768
23087W        W94616   5.804  13.508  14.828
23088W        W94617  11.775  36.582  13.518
23089W        W94618  21.074  32.578   1.768
23090W        W94619  11.934   2.397   1.396
23091W        W94620  31.009  36.782  12.832
23092W        W94621  31.869  16.072  12.070
23093W        W94622  29.956  21.616  11.138
23094W        W94623  22.789  14.196   3.118
23095W        W94624  27.524   5.110   1.319
23096W        W94625  26.583  44.082   2.669
23097W        W94626   6.410  41.350   0.174
23098W        W94627  34.758  20.478   3.276
23099W        W94628  28.733  19.516  14.762
23100W        W94629  43.754  18.610   0.987
23101W        W94630  32.020  11.609   3.177
23102W        W94631  14.771  29.070  14.000
23103W        W94632  18.139  11.187   0.415
23104W        W94633  11.784  23.728   0.832
23105W        W94634  41.768  28.331   1.426
23106W        W94635  12.217  35.138   3.833
23107W        W94636  20.323  28.915   2.610
23108W        W94637   5.976  20.428   2.181
23109W        W94638  32.499  19.108  14.346
23110W        W94639  20.635   4.304   1.985
23111W        W94640  21.875  31.537   4.476
23112W        W94641  24.617   4.773   0.747
23113W        W94642  36.348  34.373  13.500
23114W        W94643  40.851  22.072   3.703
23115W        W94644  28.647  15.120   2.241
23116W        W94645  13.266  34.504   0.983
23117W        W94646  35.013  17.162   2.571
23118W        W94647  30.017  23.032  14.429
23119W        W94648  39.695  16.141  12.119
23120W        W94649  14.098  22.810   2.496
23121W        W94650  27.567   3.051   4.712
23122W        W94651  32.556  42.159  10.438
23123W        W94652  32.842   0.120   3.394
23124W        W94653  13.715  34.940  12.525
23125W        W94654  42.746  41.738  14.836
23126W        W94655  31.430   9.914   4.142
23127W        W94656  43.746  40.770  11.657
23128W        W94657  38.610  32.677  14.830
23129W        W94658   8.340  23.660  12.757
23130W        W94659   6.422  14.368  10.453
23131W        W94660   2.949  25.024  10.303
23132W        W94661   7.987  11.430  12.112
23133W        W94662  43.001   6.850  14.906
23134W        W94663   2.929  35.263   1.833
23135W        W94664  43.597   7.850   4.617
23136W        W94665  29.365  23.675   0.436
23137W        W94666   6.852  28.473  11.976
23138W        W94667  34.923  16.880   3.849
23139W        W94668  24.419  14.567   2.810
23140W        W94669   8.458   8.963  11.152
23141W        W94670  40.564  30.006   4.348
23142W        W94671   0.273  16.161  13.964
23143W        W94672   1.437  18.875   4.163
23144W        W94673  13.866  36.936  11.340
23145W        W94674  41.290  16.560  10.750
23146W        W94675   2.812  34.730  12.291
23147W        W94676  28.757  14.117   3.393
23148W        W94677  35.408  43.436  14.506
23149W        W94678   3.260   0.770   1.216
23150W        W94679  38.118  15.374   2.579
23151W        W94680  32.592  39.283   0.370
23152W        W94681  17.086  13.203   0.881
23153W        W94682  25.202  25.666   4.117
23154W        W94683  22.692  42.526   2.705
23155W        W94684  17.224  24.450   2.313
23156W        W94685  43.500  27.440  13.861
23157W        W94686  41.466  21.249  10.371
23158W        W94687  30.063  42.451  13.272
23159W        W94688   6.365  32.020   1.113
23160W        W94689  16.421  35.921  13.850
23161W        W94690  19.113  26.837  10.217
23162W        W94691  37.159  29.163  13.044
23163W        W94692  10.998  43.911   4.036
23164W        W94693   8.925  12.147   0.712
23165W        W94694  24.693   5.230  14.383
23166W        W94695   5.890  42.498  10.889
23167W        W94696  24.764   0.915  14.406
23168W        W94697  30.513   8.378  10.716
23169W        W94698  10.201  41.827   0.943
23170W        W94699   5.541  16.772  13.148
23171W        W94700  12.715  18.191  10.925
23172W        W94701  12.812  44.136  10.685
23173W        W94702   3.337   5.429   1.231
23174W        W94703  23.762  41.006  12.090
23175W        W94704  23.914   8.805   3.980
23176W        W94705  10.395  35.899   4.357
23177W        W94706   8.955  40.735  12.724
23178W        W94707  20.915   4.245  12.882
23179W        W94708  38.063   7.388   1.028
23180W        W94709  39.979  12.003   0.398
23181W        W94710  19.516  27.013   3.685
23182W        W94711  13.752  14.176   1.783
23183W        W94712  29.622  37.250  12.507
23184W        W94713  44.327  29.622  12.702
23185W        W94714  24.801   5.358   1.262
23186W        W94715  41.955  40.998  13.536
23187W        W94716   7.386  23.449   3.662
23188W        W94717  24.667  31.954  11.354
23189W        W94718  16.564  17.801   3.624
23190W        W94719  19.594  31.538   3.947
23191W        W94720  30.472   6.552  11.898
23192W        W94721  42.576   6.926  11.922
23193W        W94722  38.531  36.679  12.588
23194W        W94723  44.399  42.583   4.672
23195W        W94724  40.352   6.734   3.640
23196W        W94725  34.510   1.760  14.351
23197W        W94726  40.691   0.254   4.302
23198W        W94727   7.919  10.329  14.931
23199W        W94728  24.271   5.893   0.660
23200W        W94729  10.994  34.534   3.284
23201W        W94730  29.535  23.974   3.807
23202W        W94731  11.305   8.272   2.323
23203W        W94732  18.372   3.212  12.011
23204W        W94733  13.808  27.792  12.362
23205W        W94734   6.287  30.148   0.706
23206W        W94735  16.296  36.989   3.856
23207W        W94736  43.904  31.316  13.841
23208W        W94737  37.705  28.584   0.507
23209W        W94738   1.480   6.763  10.513
23210W        W94739  35.962  16.879  14.351
23211W        W94740  40.738  23.488   4.142
23212W        W94741   6.711  20.361   2.777
23213W        W94742  10.639  19.791  12.483
23214W        W94743  17.532  29.404   2.856
23215W        W94744   1.438  24.740  11.132
23216W        W94745  17.307  21.158   2.354
23217W        W94746  35.955   7.863   2.409
23218W        W94747  39.488  28.132  10.679
23219W        W94748   6.916   2.920   3.405
23220W        W94749  41.303  26.625  14.946
23221W        W94750  42.809  29.214   2.378
23222W        W94751  22.499   4.231   3.283
23223W        W94752   4.946   9.581   1.597
23224W        W94753  25.194  38.625  13.337
23225W        W94754  43.023  25.601   1.728
23226W        W94755  41.884  44.184  13.996
23227W        W94756  23.563  33.880  14.940
23228W        W94757  14.083  18.536  14.059
23229W        W94758  40.045   4.498  14.942
23230W        W94759  36.333  12.113   1.371
23231W        W94760  42.478  13.771   4.256
23232W        W94761  11.899  24.101  12.033
23233W        W94762   2.965  27.615  10.526
23234W        W94763  22.188  26.040   1.685
23235W        W94764  25.073   7.170   1.833
23236W        W94765  29.776  33.977   1.960
23237W        W94766  31.365  35.034   2.701
23238W        W94767  40.415  44.211   2.125
23239W        W94768  41.191   0.687  13.460
23240W        W94769  30.517   7.292   1.424
23241W        W94770  14.727  22.252  12.095
23242W        W94771  17.639  19.814  14.350
23243W        W94772   1.704  13.199  14.270
23244W        W94773  19.155  24.899   0.499
23245W        W94774  30.402  27.996  11.093
23246W        W94775  37.247  38.468   4.694
23247W        W94776   7.657  29.653  12.429
23248W        W94777  13.746   5.799   2.776
23249W        W94778  18.061   2.534   1.785
23250W        W94779   0.237  40.978   1.857
23251W        W94780  41.849  16.054  12.489
23252W        W94781  24.160  17.693   4.370
23253W        W94782   1.275   9.850  13.031
23254W        W94783   2.938   8.883  12.028
23255W        W94784  11.486   9.984  12.477
23256W        W94785   0.479  16.777  13.115
23257W        W94786  12.254  36.912  12.142
23258W        W94787  44.441   8.298  12.958
23259W        W94788  34.015  13.738  10.770
23260W        W94789  28.405  23.542   0.773
23261W        W94790  36.070  43.286   0.915
23262W        W94791  12.901  43.505   2.396
23263W        W94792  39.050  11.369   3.708
23264W        W94793  21.265  37.856   1.315
23265W        W94794  39.210   0.236  13.062
23266W        W94795  16.041  28.258  12.627
23267W        W94796  38.789  35.537  12.113
23268W        W94797  14.743   0.489  10.745
23269W        W94798  31.033   4.483   0.274
23270W        W94799  12.778  37.464  11.508
23271W        W94800  10.532  21.066   4.749
23272W        W94801  26.729  14.805  13.627
23273W        W94802  27.661  32.999   1.198
23274W        W94803  34.975  34.842   1.760
23275W        W94804  37.138   3.398   4.338
23276W        W94805   3.862  12.807   0.347
23277W        W94806  15.181  11.827  12.454
23278W        W94807  34.987  39.937  13.978
23279W        W94808   1.790  37.128  14.821
23280W        W94809  23.511  37.191  13.614
23281W        W94810  42.308  40.376   0.978
23282W        W94811  27.694  31.329   0.089
23283W        W94812  27.170  34.081   0.347
23284W        W94813   0.523   6.181  11.179
23285W        W94814   6.098  37.453   0.237
23286W        W94815  13.301  19.496   4.176
23287W        W94816  34.043  43.041   2.185
23288W        W94817  20.012  24.425   1.007
23289W        W94818  29.260  41.502   3.330
23290W        W94819  38.072  15.567  11.586
23291W        W94820   2.696  20.125   3.129
23292W        W94821   8.725  21.645  14.686
23293W        W94822   7.400  31.591   2.158
23294W        W94823  23.648   7.021  14.045
23295W        W94824   4.812  14.652   3.531
23296W        W94825  44.814   6.180  10.824
23297W        W94826  15.517  41.108   3.035
23298W        W94827  37.516  27.940  13.531
23299W        W94828  20.169  41.123   4.092
23300W        W94829  28.194  42.868   3.828
23301W        W94830  44.065   3.801   0.062
23302W        W94831   5.398   2.344   4.906
23303W        W94832  37.096  23.646  12.412
23304W        W94833   3.741  27.653   1.325
23305W        W94834  13.594  14.834  11.851
23306W        W94835   0.882  23.624  14.801
23307W        W94836  22.360  32.027   3.177
23308W        W94837  10.385  10.925  13.959
23309W        W94838  25.780  12.723   2.725
23310W        W94839  32.172  26.105  13.577
23311W        W94840  22.038   8.417   1.547
23312W        W94841  10.589  11.708   3.205
23313W        W94842  22.735   7.146   2.955
23314W        W94843  43.290  23.218  11.575
23315W        W94844  43.819  36.484   0.692
23316W        W94845  36.954  29.491   4.768
23317W        W94846  10.559  35.128   3.349
23318W        W94847  42.147  24.231  13.208
23319W        W94848  28.837  40.372   2.949
23320W        W94849  39.899  19.114   1.168
23321W        W94850  41.852   8.957   1.798
23322W        W94851  26.062  37.401  12.067
23323W        W94852   9.637  28.588  13.873
23324W        W94853   1.541   6.132  13.998
23325W        W94854   2.268   7.609   4.347
23326W        W94855   6.918  24.647   2.279
23327W        W94856  27.884   1.073  12.438
23328W        W94857   3.233  31.154   3.687
23329W        W94858  32.876  19.517   3.664
23330W        W94859  16.694  40.761   1.812
23331W        W94860  41.043  16.408   4.910
23332W        W94861   8.660   6.678   1.875
23333W        W94862  26.152  43.506   2.562
23334W        W94863  35.509  21.018  11.496
23335W        W94864  12.810  24.691   0.845
23336W        W94865   0.486  26.245  14.495
23337W        W94866  10.683  20.744  12.875
23338W        W94867  27.312  36.569   1.775
23339W        W94868  22.202  17.163  12.771
23340W        W94869  14.043  20.208  10.114
23341W        W94870  27.579   3.079  10.318
23342W        W94871  16.685  40.545  10.812
23343W        W94872  12.689  16.165  12.645
23344W        W94873  41.155  22.370   1.692
23345W        W94874  14.220  14.367   1.940
23346W        W94875  41.768  11.572   3.261
23347W        W94876   6.408   7.289   2.723
23348W        W94877  30.919  15.655   0.578
23349W        W94878   0.751  23.489   4.193
23350W        W94879  36.114  22.169   0.632
23351W        W94880   8.679  19.217  12.386
23352W        W94881   3.272  32.215  12.810
23353W        W94882   9.093  18.016   2.266
23354W        W94883   0.707   4.498  12.675
23355W        W94884   1.796  42.568   1.370
23356W        W94885  10.389   6.687  11.499
23357W        W94886   1.801  37.086  13.848
23358W        W94887   9.804   3.661  12.469
23359W        W94888  37.523  11.296   3.801
23360W        W94889  17.198  42.077  13.985
23361W        W94890  32.508  28.442   1.879
23362W        W94891  27.683  25.117   4.820
23363W        W94892  15.148   9.331   0.432
23364W        W94893  14.574   2.002   2.620
23365W        W94894   8.371  38.723  11.827
23366W        W94895   9.818  14.697  14.708
23367W        W94896  22.956  25.999  14.931
23368W        W94897  17.624  26.448  13.839
23369W        W94898  18.699  18.166  12.154
23370W        W94899  43.869  18.812  11.591
23371W        W94900  13.325  15.550  13.484
23372W        W94901  22.566   0.852   4.079
23373W        W94902   4.417   2.065   1.434
23374W        W94903  18.632  26.232  10.549
23375W        W94904  26.056  42.346   0.635
23376W        W94905  16.594   5.442   2.352
23377W        W94906   5.917  38.762  12.528
23378W        W94907   6.598  14.812   0.846
23379W        W94908  11.669   3.839  12.916
23380W        W94909  36.570  31.692  10.549
23381W        W94910   8.215   8.945   2.801
23382W        W94911  17.591  42.881  14.784
23383W        W94912  40.722   6.916   4.463
23384W        W94913  15.102  26.553  10.590
23385W        W94914  39.070  22.100   3.645
23386W        W94915   5.989  35.574  10.451
23387W        W94916  23.697  21.292  14.995
23388W        W94917  33.636  11.906  14.829
23389W        W94918   8.332  37.081   1.061
23390W        W94919  24.422  27.660   1.121
23391W        W94920   1.338  38.315   1.705
23392W        W94921   7.282   9.291   1.286
23393W        W94922  44.936  40.617  14.905
23394W        W94923   6.852  41.932   4.513
23395W        W94924   4.259  21.220   4.367
23396W        W94925  20.010  33.932  13.276
23397W        W94926  43.387  25.675  13.840
23398W        W94927  27.049   2.685  12.554
23399W        W94928  26.991  16.748   3.715
23400W        W94929  25.278  36.423   2.026
23401W        W94930   4.985  14.792  11.577
23402W        W94931  44.843   6.026   0.762
23403W        W94932  29.744  41.401   3.205
23404W        W94933   3.170  42.874   3.119
23405W        W94934  14.735  15.811  14.555
23406W        W94935  44.957   1.334   4.710
23407W        W94936  18.281   0.380   4.218
23408W        W94937  31.856   8.558  12.900
23409W        W94938  19.774  18.829   2.924
23410W        W94939   2.650   8.712  13.853
23411W        W94940  19.382  34.343   1.285
23412W        W94941  42.818  12.526  11.266
23413W        W94942  42.545  12.149   0.115
23414W        W94943   5.083  44.621   0.027
23415W        W94944  30.795  12.602  14.429
23416W        W94945  11.331  42.744  12.951
23417W        W94946  12.066  25.999  12.397
23418W        W94947   8.278  22.403   2.328
23419W        W94948  18.735  26.202   1.528
23420W        W94949   8.852  17.315   3.043
23421W        W94950  26.537  30.089  12.845
23422W        W94951  12.711  28.986  14.590
23423W        W94952  11.416  41.358   2.349
23424W        W94953  19.341  15.768   1.227
23425W        W94954  22.221  28.346  12.152
23426W        W94955  35.645  23.202  12.711
23427W        W94956   4.890  18.960   1.306
23428W        W94957  33.316  19.480   0.503
23429W        W94958  29.023  13.301   3.057
23430W        W94959  39.384  12.292   4.670
23431W        W94960  15.164  28.313  11.096
23432W        W94961  29.864  34.790   3.875
23433W        W94962   9.785  24.509   4.135
23434W        W94963   4.907  25.471  14.724
23435W        W94964   7.216  27.781   2.366
23436W        W94965  39.524  19.960  13.374
23437W        W94966  39.858  19.987   0.012
23438W        W94967  10.666  12.358  12.535
23439W        W94968  26.963  15.334  14.392
23440W        W94969  24.088  43.833   1.326
23441W        W94970  30.235  35.445  14.194
23442W        W94971  42.566   3.859   1.097
23443W        W94972   0.231  11.580  13.380
23444W        W94973  14.747   4.251   2.569
23445W        W94974  18.090   9.884   3.659
23446W        W94975   6.176  37.717   2.614
23447W        W94976  23.091  14.577   2.467
23448W        W94977   2.719  25.134   0.416
23449W        W94978  11.367  23.297   0.242
23450W        W94979  39.094   8.799  14.908
23451W        W94980  10.384  40.392  12.829
23452W        W94981   0.481  39.585  10.912
23453W        W94982  25.669   9.729  10.362
23454W        W94983  39.882  42.945  13.957
23455W        W94984   6.430  24.253  14.754
23456W        W94985  42.949  11.105  11.525
23457W        W94986  40.277  19.362   5.062
23458W        W94987  16.369  39.882   4.497
23459W        W94988  41.217  25.097   0.906
23460W        W94989  33.896  16.685  12.466
23461W        W94990   3.946  36.265  10.722
23462W        W94991  36.885  40.299   1.502
23463W        W94992   5.548  13.867  13.468
23464W        W94993  25.704   5.829  12.566
23465W        W94994  33.058  12.605   2.434
23466W        W94995  14.171  20.049   4.156
23467W        W94996  34.007  17.105   2.281
23468W        W94997  32.596  17.957  11.623
23469W        W94998  17.082  16.753   1.913
23470W        W94999  22.557   5.935  12.456
23471W        W95000  26.473  11.427  11.471
23472W        W95001  23.504   3.357   2.337
23473W        W95002  26.943  34.558   3.792
23474W        W95003  10.764  37.413  11.395
23475W        W95004   2.539   5.386   3.337
23476W        W95005  36.293  30.576   5.013
23477W        W95006  13.176  15.063   0.148
23478W        W95007  34.039  44.473  14.017
23479W        W95008   1.386   4.838  13.628
23480W        W95009  21.685  36.056   1.265
23481W        W95010   5.795  28.104  12.904
23482W        W95011  27.461   9.710  11.557
23483W        W95012  40.107  21.186  13.372
23484W        W95013  35.642  26.503  12.740
23485W        W95014   6.157  29.231  14.130
23486W        W95015  38.105  19.801   2.919
23487W        W95016  18.108  42.777  14.986
23488W        W95017   6.906  33.181  11.028
23489W        W95018  30.035   7.722  13.998
23490W        W95019   1.765  12.800   0.351
23491W        W95020   6.900   8.452   1.373
23492W        W95021   0.380  17.141   0.186
23493W        W95022  17.828  12.738   0.735
23494W        W95023  19.323   2.434  13.954
23495W        W95024   5.914  33.394  14.856
23496W        W95025  18.594  35.894   9.910
23497W        W95026   1.016   7.723   4.166
23498W        W95027  31.610   5.137  12.547
23499W        W95028  12.985  42.041   4.599
23500W        W95029  34.200  12.696   3.315
23501W        W95030  33.669  42.551   3.718
23502W        W95031  23.242  44.279  13.169
23503W        W95032  12.181  26.603  10.710
23504W        W95033   5.710   7.354  12.022
23505W        W95034   5.342   5.244  11.677
23506W        W95035  29.253  41.083   4.051
23507W        W95036  34.250  42.997  12.570
23508W        W95037  40.291  12.483   3.677
23509W        W95038  32.370  19.133  12.888
23510W        W95039  18.459   9.964  12.350
23511W        W95040  12.877   4.665   4.488
23512W        W95041   0.290   9.691  12.870
23513W        W95042   1.857   2.980  13.028
23514W        W95043  23.166  25.504   3.164
23515W        W95044   8.475  12.380  14.810
23516W        W95045  27.866   4.644  13.595
23517W        W95046  19.179  14.069  14.674
23518W        W95047  20.641  33.539   4.614
23519W        W95048  35.482  33.393   0.716
23520W        W95049   5.841  29.948   3.574
23521W        W95050  15.792  29.034  11.584
23522W        W95051  24.787  23.540  13.972
23523W        W95052   1.726  31.199   2.800
23524W        W95053   6.399  14.076  10.869
23525W        W95054  16.294  10.226   5.456
23526W        W95055  22.163  26.546  11.135
23527W        W95056   9.860  20.513  13.304
23528W        W95057  20.309   2.822  13.449
23529W        W95058  41.723  34.424  13.063
23530W        W95059  25.702   9.934   3.743
23531W        W95060   7.635  33.154  13.397
23532W        W95061  38.621  10.224   2.187
23533W        W95062   4.987  12.104  12.488
23534W        W95063  13.802  15.531   3.168
23535W        W95064  23.975  14.256   1.525
23536W        W95065  22.424   9.388   2.221
23537W        W95066  27.897  14.118   3.649
23538W        W95067  26.181   6.993   0.465
23539W        W95068   7.846  36.945   4.638
23540W        W95069  24.656   7.807   2.786
23541W        W95070  13.310  16.929  10.768
23542W        W95071  44.265   0.270  13.142
23543W        W95072   7.286  27.015  12.285
23544W        W95073  12.383  33.451   4.885
23545W        W95074  43.649  24.342  10.547
23546W        W95075   3.125  25.745  12.536
23547W        W95076   3.164   9.440   1.843
23548W        W95077  37.623  13.667  13.896
23549W        W95078  39.600  32.199  14.242
23550W        W95079   6.642   7.289  14.856
23551W        W95080  21.611  44.046  13.919
23552W        W95081  28.768  42.782   4.567
23553W        W95082   4.421  16.816  14.008
23554W        W95083  32.542  24.992  14.063
23555W        W95084  22.580  32.241   4.790
23556W        W95085  15.770  14.055  13.977
23557W        W95086  12.654  11.380  10.605
23558W        W95087  30.882   7.354   0.103
23559W        W95088  31.493  20.014  10.974
23560W        W95089  27.651  10.142  13.526
23561W        W95090  25.954  13.697   1.808
23562W        W95091   5.760  36.602  12.808
23563W        W95092   5.145   1.153   2.359
23564W        W95093   8.661  31.198   3.249
23565W        W95094   9.626  17.647  14.516
23566W        W95095  33.678  14.214  12.390
23567W        W95096   5.965  41.985  13.000
23568W        W95097  37.121  19.752  11.225
23569W        W95098  13.180  30.934  10.609
23570W        W95099  30.013  10.230   2.674
23571W        W95100  16.711  24.646  13.993
23572W        W95101   1.232   7.617  12.567
23573W        W95102  41.016   9.352  10.746
23574W        W95103  26.994  28.483   1.206
23575W        W95104  24.879  16.178   4.780
23576W        W95105  43.000  29.891  13.442
23577W        W95106  32.815  41.419   4.642
23578W        W95107  16.813  35.390  12.497
23579W        W95108  33.041  37.359   0.311
23580W        W95109   2.534   0.413  12.335
23581W        W95110   2.780  44.184  10.655
23582W        W95111  14.766  26.516  12.906
23583W        W95112  33.913  16.333  14.436
23584W        W95113   6.126  33.575  12.990
23585W        W95114  33.108  15.650   0.375
23586W        W95115   6.674  15.275  14.884
23587W        W95116  22.470   6.306  14.944
23588W        W95117  20.327  23.728  11.167
23589W        W95118  44.617  19.331   1.784
23590W        W95119  18.974   2.752   0.131
23591W        W95120  16.737  15.733   4.837
23592W        W95121   4.755   1.468   2.275
23593W        W95122  19.963  38.123  10.678
23594W        W95123  40.405   1.260   3.840
23595W        W95124  16.403  40.328   0.966
23596W        W95125   9.302  23.777   0.710
23597W        W95126   2.294  10.380   4.692
23598W        W95127  10.116  16.878  10.726
23599W        W95128   9.150  12.238   3.060
23600W        W95129  33.043  36.328  12.941
23601W        W95130  24.766  13.142   3.563
23602W        W95131  16.522  37.996  11.482
23603W        W95132   9.223  39.435  11.908
23604W        W95133   6.447  10.704   0.815
23605W        W95134  26.086  25.558   4.345
23606W        W95135  14.631  20.155   3.805
23607W        W95136  13.600  26.574   3.796
23608W        W95137  14.671   9.970  12.792
23609W        W95138  27.099  44.733  11.434
23610W        W95139  32.213   8.204  13.065
23611W        W95140   6.804  37.983   0.848
23612W        W95141  38.613  34.138   0.008
23613W        W95142  21.460  22.608  12.465
23614W        W95143  23.289  13.064  11.183
23615W        W95144  21.382  36.956   2.748
23616W        W95145  12.847  10.507  10.712
23617W        W95146  29.641  28.429   1.235
23618W        W95147  31.916  37.896  12.481
23619W        W95148  26.087  41.262  13.416
23620W        W95149   1.211   3.638  10.588
23621W        W95150  32.539  37.314   0.002
23622W        W95151   1.154  31.437   3.852
23623W        W95152  27.682  42.734  12.116
23624W        W95153   1.206   0.971  12.042
23625W        W95154  14.221  22.732  12.631
23626W        W95155   3.670  10.677  13.614
23627W        W95156  40.135   6.144   2.587
23628W        W95157  21.178  13.572   0.210
23629W        W95158  31.003  32.665  14.443
23630W        W95159  11.716  42.071   2.746
23631W        W95160   9.686   5.934  14.960
23632W        W95161  12.345  19.419  14.866
23633W        W95162   9.190   8.857   1.895
23634W        W95163  33.104  27.410  12.384
23635W        W95164  16.658   3.991  11.057
23636W        W95165  33.794  36.093   1.380
23637W        W95166  23.713  25.244  13.947
23638W        W95167   0.008  33.357   1.978
23639W        W95168  11.013  12.676  13.411
23640W        W95169  36.022   5.479   4.907
23641W        W95170  22.169   4.869   1.584
23642W        W95171  18.075  37.010   0.458
23643W        W95172  16.048   8.708  13.748
23644W        W95173   1.466  36.096  12.391
23645W        W95174  28.593  34.611   3.820
23646W        W95175   0.061  26.039   1.451
23647W        W95176  34.856  11.744   1.678
23648W        W95177  16.671  34.703   1.374
23649W        W95178  35.866  34.741  13.830
23650W        W95179  41.314   5.828   1.288
23651W        W95180   8.229  22.755   1.060
23652W        W95181  23.645  13.892   2.786
23653W        W95182  17.508  32.104   3.294
23654W        W95183  21.984   1.748  12.043
23655W        W95184  23.497  24.565  14.480
23656W        W95185   2.502   4.347  13.979
23657W        W95186  11.786  11.812   3.787
23658W        W95187  39.994   9.661   3.327
23659W        W95188   4.393  35.105   2.315
23660W        W95189   1.890  14.927   4.678
23661W        W95190   3.330   0.709   4.216
23662W        W95191  21.594  15.302   5.062
23663W        W95192   9.242  10.663  13.613
23664W        W95193   9.704   7.632  12.583
23665W        W95194  27.618   4.224  14.521
23666W        W95195  17.813   4.958   1.489
23667W        W95196  30.625   0.022  11.919
23668W        W95197  24.731   0.260  11.476
23669W        W95198  21.023  24.599  13.805
23670W        W95199  21.647  14.738  12.455
23671W        W95200  35.863  40.417   3.612
23672W        W95201   9.252  17.667   2.932
23673W        W95202  20.363  24.430  14.489
23674W        W95203  14.053  37.390  14.099
23675W        W95204  40.282  31.628   0.313
23676W        W95205  13.353   0.209  14.078
23677W        W95206   9.066  15.248   4.544
23678W        W95207  27.373   3.787   0.059
23679W        W95208  19.598   9.651   2.237
23680W        W95209  21.289  40.509  10.640
23681W        W95210  19.623  42.747  11.496
23682W        W95211  39.425   3.340   1.669
23683W        W95212  10.387  42.734   2.209
23684W        W95213  24.842  17.772   2.807
23685W        W95214  20.880   3.482  13.875
23686W        W95215  35.521  16.165  12.393
23687W        W95216  38.052  31.382  10.881
23688W        W95217   9.806  14.688   0.509
23689W        W95218  40.839   0.703  13.069
23690W        W95219  22.507  39.396   2.955
23691W        W95220  19.946  15.140   2.418
23692W        W95221  15.751  34.091   4.719
23693W        W95222  33.676   7.096   3.069
23694W        W95223  37.900  29.263   3.046
23695W        W95224   7.671  11.240   4.643
23696W        W95225  32.862   1.731   1.757
23697W        W95226  21.634  36.103   0.177
23698W        W95227  17.775  10.908   2.284
23699W        W95228  39.094  19.009  11.208
23700W        W95229  31.746  26.032   2.678
23701W        W95230  24.936  12.809   0.763
23702W        W95231  25.071  22.983   0.741
23703W        W95232  17.134  39.052  14.857
23704W        W95233  39.917  27.064   0.320
23705W        W95234  39.883  44.013  13.911
23706W        W95235  22.724  25.556  14.894
23707W        W95236  19.137   3.874  11.945
23708W        W95237  44.897  20.761   1.495
23709W        W95238   1.828  16.660   3.233
23710W        W95239  21.263  23.503  11.080
23711W        W95240  20.291   9.137   4.155
23712W        W95241  30.444  12.589   0.880
23713W        W95242  32.439   4.852   1.448
23714W        W95243  28.745  18.867  10.677
23715W        W95244  32.088  32.522  12.898
23716W        W95245  43.974  11.188  13.880
23717W        W95246  16.016   2.339   0.731
23718W        W95247  12.364  36.914  13.887
23719W        W95248  10.468  44.996  11.925
23720W        W95249  13.303   5.869  11.592
23721W        W95250   5.338  28.883  10.797
23722W        W95251  30.388   4.856   1.443
23723W        W95252  34.345  11.874   4.148
23724W        W95253  43.609   2.097  11.272
23725W        W95254   5.158  31.476   1.252
23726W        W95255  37.006  30.451  11.515
23727W        W95256   2.447   0.205   3.130
23728W        W95257  34.051  29.697  11.924
23729W        W95258  20.117   3.173  11.436
23730W        W95259  36.943   1.873   4.515
23731W        W95260  10.961  43.682  10.229
23732W        W95261   9.432  44.375   2.454
23733W        W95262  10.031  21.156   4.867
23734W        W95263   2.404  12.543  10.694
23735W        W95264  13.173  24.701  14.762
23736W        W95265  29.611  12.387   2.151
23737W        W95266  27.075  18.500   2.714
23738W        W95267   1.743  13.626  11.660
23739W        W95268  36.558  17.795   0.342
23740W        W95269   5.444   9.756   3.869
23741W        W95270  40.830   9.301   0.298
23742W        W95271   0.476  36.986   2.414
23743W        W95272  34.435  20.506   4.193
23744W        W95273  17.392  40.472   2.654
23745W        W95274  10.167   2.321  12.551
23746W        W95275  11.292  34.275  13.863
23747W        W95276  19.501  22.350  11.576
23748W        W95277   4.741   0.684   2.980
23749W        W95278   6.145  34.005  12.283
23750W        W95279  41.317   6.262   2.434
23751W        W95280  10.944  29.167   3.580
23752W        W95281  10.675  38.101  13.294
23753W        W95282  44.792  17.730   3.839
23754W        W95283  37.679   5.976  14.018
23755W        W95284  36.646  18.106   4.524
23756W        W95285  17.983  24.031   3.829
23757W        W95286  20.331   8.918  12.605
23758W        W95287  18.600  30.758   4.539
23759W        W95288  11.190  14.645   2.810
23760W        W95289   7.123  33.396   2.647
23761W        W95290  19.979  17.495   1.350
23762W        W95291  38.893  42.465  10.684
23763W        W95292  22.001   2.536   4.651
23764W        W95293  17.391  15.486   0.852
23765W        W95294  41.860  20.710   0.377
23766W        W95295   6.176  15.097   4.204
23767W        W95296   8.329  25.927   0.845
23768W        W95297  42.982  34.465  13.528
23769W        W95298  32.052  42.469  11.160
23770W        W95299   7.798  23.239  10.959
23771W        W95300  26.453   8.809  14.818
23772W        W95301   5.238  13.415  12.561
23773W        W95302  30.565   8.594   2.176
23774W        W95303  26.946  41.300  13.358
23775W        W95304  25.596  21.814  14.310
23776W        W95305   8.260  38.122  11.452
23777W        W95306  11.760  16.398   3.147
23778W        W95307  39.413  11.639   1.748
23779W        W95308  16.730   0.523   2.863
23780W        W95309  30.050  43.242   3.305
23781W        W95310  23.197  35.943   0.087
23782W        W95311  33.618  32.662   4.619
23783W        W95312  39.840  25.234   4.292
23784W        W95313  40.317  41.029   1.265
23785W        W95314   1.789  24.922   2.667
23786W        W95315  21.094  26.253  14.060
23787W        W95316  28.156  34.021   3.657
23788W        W95317   7.622  39.779   1.455
23789W        W95318  29.838   2.871  13.460
23790W        W95319   8.290   8.246  12.339
23791W        W95320  28.591  43.420  10.366
23792W        W95321  31.555  13.782   2.901
23793W        W95322  26.559  43.340   0.894
23794W        W95323  21.927   0.306  13.030
23795W        W95324  15.666  36.176  10.787
23796W        W95325   2.943  40.079  14.380
23797W        W95326   7.199  29.848   3.721
23798W        W95327   4.661  11.846  12.830
23799W        W95328  41.898   0.032   1.455
23800W        W95329  18.330   5.096  13.014
23801W        W95330  11.749  28.529  12.986
23802W        W95331  37.209  33.171   0.862
23803W        W95332  15.140   0.722  11.156
23804W        W95333  17.729  26.940   1.003
23805W        W95334  11.626  35.768  11.736
23806W        W95335  44.897  30.120   0.067
23807W        W95336  16.536  32.156  12.151
23808W        W95337  35.106  16.617   1.260
23809W        W95338   0.953  32.103  13.880
23810W        W95339  34.782  17.593  12.102
23811W        W95340  39.363  22.016   4.206
23812W        W95341  38.029  16.753   2.431
23813W        W95342  33.731  40.849   1.874
23814W        W95343  31.386   5.002  13.925
23815W        W95344  24.030  25.075  14.808
23816W        W95345  44.252  21.457   2.312
23817W        W95346   8.186  31.875   1.294
23818W        W95347  39.099  28.969   4.632
23819W        W95348  29.025  24.518  11.616
23820W        W95349  26.235   0.635  14.796
23821W        W95350  30.916  17.294  14.688
23822W        W95351  15.305  30.672  10.851
23823W        W95352  36.807  41.479  14.837
23824W        W95353  10.279  36.230   0.859
23825W        W95354  13.473  22.718   1.196
23826W        W95355  38.726  40.148  10.708
23827W        W95356  27.693  25.090   2.903
23828W        W95357   0.888  14.265  10.763
23829W        W95358  43.766  32.871  12.108
23830W        W95359   5.902  33.192  12.108
23831W        W95360  43.736  41.387   4.491
23832W        W95361  29.600  37.638  14.835
23833W        W95362  39.916  14.529   2.757
23834W        W95363  29.646  27.004  14.324
23835W        W95364  20.089   9.825  14.050
23836W        W95365  26.565  37.460   1.430
23837W        W95366  42.585  30.438  11.602
23838W        W95367  32.224  16.057  12.455
23839W        W95368   0.244  36.691   3.329
23840W        W95369  42.408  17.758   4.165
23841W        W95370  41.578  32.142  13.497
23842W        W95371  20.200   9.318   4.624
23843W        W95372  28.314  19.219   1.768
23844W        W95373  22.968  16.692  13.015
23845W        W95374  40.186   1.962  12.458
23846W        W95375  41.985   9.379   2.726
23847W        W95376  23.098  19.003   1.705
23848W        W95377  34.438  29.714  13.063
23849W        W95378  12.574  29.630  11.640
23850W        W95379  18.068  31.792  13.290
23851W        W95380  18.727   6.062  14.332
23852W        W95381  12.842  25.173   0.641
23853W        W95382  21.030   2.998  13.952
23854W        W95383  23.419  35.643  12.108
23855W        W95384  17.692  29.382  13.369
23856W        W95385  18.797  28.699   1.196
23857W        W95386   9.304  37.397  10.768
23858W        W95387   0.173  40.885  12.749
23859W        W95388   8.642  11.120  12.969
23860W        W95389   7.225  40.898   3.720
23861W        W95390  40.804   8.126  13.005
23862W        W95391  24.208  25.964   0.281
23863W        W95392   7.249  13.176  12.532
23864W        W95393   5.410  22.633  12.836
23865W        W95394  33.229  40.987   1.798
23866W        W95395   5.712  12.661  10.789
23867W        W95396  10.734  29.747   0.474
23868W        W95397  25.171  38.483  14.257
23869W        W95398   6.661  42.631  13.134
23870W        W95399  23.892   1.795   0.873
23871W        W95400  42.603  43.599   4.236
23872W        W95401  41.891   9.873   2.790
23873W        W95402  41.775   6.294  13.583
23874W        W95403  17.169  27.371  11.120
23875W        W95404  15.526  20.156   3.292
23876W        W95405  34.546   8.356   0.577
23877W        W95406  23.153  19.507  10.805
23878W        W95407  13.161  29.243  13.468
23879W        W95408  18.158  21.359  11.140
23880W        W95409  20.946   5.130  11.213
23881W        W95410  23.745  18.565  12.629
23882W        W95411  17.573   5.182  12.322
23883W        W95412  39.132   7.079  11.122
23884W        W95413   4.226  16.778   3.318
23885W        W95414  17.095  30.590  10.745
23886W        W95415  11.682   8.257  14.378
23887W        W95416  24.391  14.864  13.026
23888W        W95417   1.320  42.271  13.273
23889W        W95418  16.747  25.169  11.589
23890W        W95419  38.351   0.811  13.773
23891W        W95420  26.437  27.240  12.963
23892W        W95421  33.858   7.864   0.418
23893W        W95422  36.968  37.636  12.737
23894W        W95423  23.755  15.369  12.456
23895W        W95424  30.700  33.392   1.149
23896W        W95425  36.839  16.575  12.052
23897W        W95426  13.194   4.887   4.118
23898W        W95427  43.180   6.379   1.847
23899W        W95428  27.611  26.316   1.896
23900W        W95429  22.746  44.393  11.538
23901W        W95430  27.899  38.640   4.137
23902W        W95431  14.805   5.458   2.243
23903W        W95432   2.926   4.426  10.748
23904W        W95433  35.035  42.712   1.440
23905W        W95434   4.852  15.127   4.586
23906W        W95435   7.300  30.407   0.383
23907W        W95436  36.513  27.972  11.758
23908W        W95437   0.695   7.356   2.799
23909W        W95438   8.177  28.053   2.680
23910W        W95439  32.855  21.538   5.115
23911W        W95440  37.309  39.826  14.794
23912W        W95441  10.425  11.799  10.694
23913W        W95442  17.057  15.300   2.371
23914W        W95443  24.688   0.518  11.018
23915W        W95444  39.286   3.359  10.428
23916W        W95445  38.259   8.233  11.119
23917W        W95446  39.289  15.328   3.764
23918W        W95447  34.260  26.143  13.886
23919W        W95448  13.645  40.282  12.527
23920W        W95449  41.545   4.407   1.874
23921W        W95450  10.722  20.579  11.924
23922W        W95451  13.112   5.393  14.247
23923W        W95452  26.472  17.246   3.398
23924W        W95453   7.738   5.278   2.204
23925W        W95454  13.263  15.221  14.343
23926W        W95455  28.843  15.834  11.611
23927W        W95456  33.542  20.701   2.637
23928W        W95457  10.044  43.464   4.052
23929W        W95458   3.569   5.162   0.320
23930W        W95459  13.982  37.561   2.706
23931W        W95460  35.188  42.964  13.792
23932W        W95461  28.408  11.125  13.248
23933W        W95462   2.036   5.111   4.517
23934W        W95463  32.910   6.997  12.869
23935W        W95464  34.471  29.404  14.594
23936W        W95465  24.494  38.522  14.833
23937W        W95466  44.855  32.057   0.725
23938W        W95467  10.910   6.219   3.645
23939W        W95468  24.780  19.959  14.646
23940W        W95469  34.844  28.909   4.084
23941W        W95470  35.438  15.740  10.903
23942W        W95471  28.068  29.298   3.838
23943W        W95472  29.111   9.130   1.794
23944W        W95473  18.923  42.122  11.662
23945W        W95474  39.381  34.529   0.524
23946W        W95475  28.324   7.839   4.235
23947W        W95476  26.148  28.698   2.349
23948W        W95477   9.111   0.294  14.071
23949W        W95478  41.812   1.065   0.793
23950W        W95479  14.353  24.973  13.155
23951W        W95480  23.005  17.596  14.557
23952W        W95481  34.688  42.499  11.613
23953W        W95482  30.614   1.368  11.880
23954W        W95483  38.107   1.912   0.306
23955W        W95484   0.335  30.331   2.275
23956W        W95485  39.285  28.040   0.015
23957W        W95486   4.179  19.716   4.635
23958W        W95487  39.794  39.287   0.659
23959W        W95488  44.303  16.189  13.924
23960W        W95489  42.939   7.856  14.831
23961W        W95490  37.797  23.249   0.186
23962W        W95491   1.399  16.684  10.704
23963W        W95492  41.429  10.655  14.502
23964W        W95493  16.448  29.202  11.122
23965W        W95494  26.686   5.830  12.614
23966W        W95495  24.941  11.107   4.300
23967W        W95496  14.764  43.841   2.471
23968W        W95497  24.125   1.940   4.463
23969W        W95498  27.161   4.326   0.558
23970W        W95499  40.411  15.636  12.990
23971W        W95500  29.553  31.421   2.723
23972W        W95501  29.469  16.831   0.226
23973W        W95502  10.628  36.341   4.460
23974W        W95503  37.586  44.539  10.454
23975W        W95504  34.016  35.530   2.370
23976W        W95505   0.790   8.319   2.237
23977W        W95506  32.831   9.716  11.077
23978W        W95507  10.796  34.963   2.501
23979W        W95508   4.374  33.681   4.774
23980W        W95509  15.241   3.762  13.780
23981W        W95510  31.170  20.870   0.878
23982W        W95511  40.636  42.572   4.712
23983W        W95512  30.720  13.390  13.959
23984W        W95513  36.643   8.169  10.419
23985W        W95514  17.007  15.649  10.352
23986W        W95515  42.344   4.879   1.390
23987W        W95516  37.908  19.506   3.311
23988W        W95517  43.993   6.181  13.449
23989W        W95518  23.320  19.130   3.831
23990W        W95519  20.154  44.018   1.292
23991W        W95520  32.861  33.547  10.366
23992W        W95521  10.148  21.146   0.812
23993W        W95522  31.851   6.327  13.298
23994W        W95523  12.684  31.149  10.742
23995W        W95524  15.172  32.866  14.322
23996W        W95525   4.243  32.408  12.491
23997W        W95526   2.695  16.187   0.162
23998W        W95527   8.170   8.705   1.162
23999W        W95528  26.484   7.907   4.479
24000W        W95529  38.013  31.249   4.176
24001W        W95530  10.825   6.952  11.325
24002W        W95531  37.079   2.994  14.246
24003W        W95532  16.644  33.493  11.873
24004W        W95533  25.937   5.827   4.693
24005W        W95534  26.392  24.972  13.390
24006W        W95535   2.785  10.943  11.070
24007W        W95536  23.234  13.792  11.601
24008W        W95537  37.494  12.367  14.526
24009W        W95538  36.134  20.722  13.819
24010W        W95539  39.278  32.606  12.094
24011W        W95540  38.450  28.009   0.479
24012W        W95541  11.779  41.622   0.395
24013W        W95542  16.475   8.187   2.822
24014W        W95543  24.335  19.612   4.554
24015W        W95544  13.535   0.809  11.561
24016W        W95545  25.263  16.840  13.339
24017W        W95546  36.014  19.465   4.147
24018W        W95547  43.509  35.396  11.541
24019W        W95548  26.370  33.408  13.347
24020W        W95549  31.053  26.156   2.268
24021W        W95550  14.950  16.365  11.169
24022W        W95551  14.753  23.037   4.585
24023W        W95552  37.408  15.082   5.085
24024W        W95553  29.960  44.360   4.153
24025W        W95554   1.409  29.129  13.488
24026W        W95555  25.610   7.015   4.454
24027W        W95556  13.163  19.212  10.939
24028W        W95557  22.875  31.363   0.429
24029W        W95558  24.929  26.098   4.223
24030W        W95559  24.444  42.227   3.990
24031W        W95560   5.736  40.690  14.750
24032W        W95561   5.223  15.278  11.620
24033W        W95562  33.112  22.091   4.560
24034W        W95563  40.312  32.425  10.993
24035W        W95564  40.146  31.054   4.809
24036W        W95565  28.981  33.119  14.869
24037W        W95566   4.368  42.992   4.277
24038W        W95567  18.698   6.587  12.350
24039W        W95568  17.789  19.700  10.786
24040W        W95569   1.249  29.605   3.099
24041W        W95570  22.472   5.757  14.273
24042W        W95571  15.851   9.965   5.536
24043W        W95572  14.363   9.790  14.093
24044W        W95573  11.427  23.020   3.704
24045W        W95574   9.647  14.265  12.883
24046W        W95575  33.819  28.044  14.414
24047W        W95576  13.712   5.776   3.665
24048W        W95577  28.530  15.152   4.103
24049W        W95578  29.231  10.883   1.879
24050W        W95579  18.949  16.831   4.046
24051W        W95580  22.213  34.795   0.044
24052W        W95581   8.666   0.050  13.864
24053W        W95582   5.848   2.636   4.816
24054W        W95583   8.650  30.475   1.873
24055W        W95584  27.713  38.301   1.244
24056W        W95585   0.806   7.772   4.660
24057W        W95586  22.741  28.081  12.583
24058W        W95587  17.721   4.245  12.473
24059W        W95588  11.400  17.306   2.391
24060W        W95589  29.475  21.374  11.933
24061W        W95590  25.121   4.245  13.017
24062W        W95591  37.476  33.047  14.179
24063W        W95592   2.952   0.761  13.778
24064W        W95593  17.015  12.630  13.145
24065W        W95594  30.126  21.691   0.484
24066W        W95595   7.191  25.978  14.283
24067W        W95596  12.601  44.048   3.549
24068W        W95597  24.177  40.714   2.121
24069W        W95598  44.648  33.283   5.283
24070W        W95599   4.054  19.720   1.126
24071W        W95600  21.786  18.987   1.304
24072W        W95601  44.270  36.932  12.863
24073W        W95602   0.024  37.297   0.460
24074W        W95603   9.638  13.599  14.047
24075W        W95604   9.949   9.748   0.474
24076W        W95605  18.248  21.942   5.107
24077W        W95606   8.486   2.446  14.872
24078W        W95607  32.807  42.860   5.153
24079W        W95608  41.303  40.550  13.069
24080W        W95609   2.592   2.462  14.483
24081W        W95610   1.231  32.451   4.858
24082W        W95611  32.115   0.941  10.582
24083W        W95612  27.533  40.905   2.658
24084W        W95613   9.579  18.201   2.242
24085W        W95614  31.856  27.181  10.657
24086W        W95615  14.420  23.030   3.687
24087W        W95616  29.642  25.131   1.450
24088W        W95617   7.749  27.467   0.364
24089W        W95618  30.678  17.369  11.212
24090W        W95619  35.060  18.180   3.184
24091W        W95620  42.773  15.697   0.531
24092W        W95621  16.267  33.059   1.186
24093W        W95622   7.588  30.149  13.360
24094W        W95623   1.459  36.464  14.414
24095W        W95624  42.914  35.538   1.390
24096W        W95625  29.913   8.655  11.902
24097W        W95626  42.469   8.156   4.116
24098W        W95627  23.272  27.476   1.347
24099W        W95628  14.257   4.252  10.676
24100W        W95629   5.392  36.970  10.551
24101W        W95630  42.564  22.982  14.928
24102W        W95631  33.344  42.990   3.716
24103W        W95632  26.134   4.655   1.377
24104W        W95633  39.839  25.490   0.335
24105W        W95634  36.605   7.914   0.658
24106W        W95635  37.451   8.966  11.604
24107W        W95636  20.298   7.494  13.993
24108W        W95637  26.607  38.871  11.623
24109W        W95638  18.907  39.368  11.213
24110W        W95639   9.803  15.560  12.156
24111W        W95640  25.727  40.065   4.894
24112W        W95641  11.811  39.137  11.455
24113W        W95642  28.821   4.731  10.887
24114W        W95643  22.887  14.987  13.255
24115W        W95644  29.258  36.508   1.661
24116W        W95645   8.919  28.557   1.744
24117W        W95646   0.375  14.246   1.486
24118W        W95647  18.259   9.635   2.752
24119W        W95648  10.263  10.572   0.880
24120W        W95649   9.134  35.882   3.724
24121W        W95650  30.965  17.973   1.869
24122W        W95651  32.505  44.718   4.154
24123W        W95652   0.451  23.165  12.412
24124W        W95653  12.222  42.795   2.801
24125W        W95654   2.196  44.523   0.274
24126W        W95655  14.014  13.060  11.100
24127W        W95656  10.176  38.368   1.265
24128W        W95657  15.271  43.998  12.683
24129W        W95658   4.582  34.815   5.191
24130W        W95659  23.116  38.259  12.878
24131W        W95660  27.045  35.749  12.650
24132W        W95661  20.236  12.801   3.702
24133W        W95662  13.568  38.817   0.288
24134W        W95663  25.639  19.445   0.831
24135W        W95664  32.919   5.611  13.799
24136W        W95665  13.615  43.922   2.778
24137W        W95666  39.950   8.951  14.874
24138W        W95667  20.607  37.941  11.700
24139W        W95668  44.669   0.301  12.827
24140W        W95669  11.922  22.171   4.184
24141W        W95670  42.901  37.347   1.353
24142W        W95671  13.933  42.867   3.723
24143W        W95672   7.284  37.681   3.366
24144W        W95673  32.958  30.585   2.490
24145W        W95674   0.637  14.549  12.916
24146W        W95675  12.657   0.719   1.337
24147W        W95676  17.255  30.616  12.570
24148W        W95677  11.560  43.719  12.128
24149W        W95678  13.636  19.238  13.012
24150W        W95679  26.066  23.723  10.711
24151W        W95680   1.261  44.663   4.518
24152W        W95681   6.746  27.327   0.446
24153W        W95682  18.538  35.313   1.651
24154W        W95683  35.978  10.810  12.055
24155W        W95684  41.902   0.049   0.930
24156W        W95685  22.027  12.795   2.179
24157W        W95686   4.149  41.781  13.900
24158W        W95687  14.350  14.124   2.370
24159W        W95688  42.226   4.144  12.874
24160W        W95689   2.703  31.203   3.718
24161W        W95690   5.437  24.752   4.856
24162W        W95691  25.506  17.087  11.761
24163W        W95692  23.124  10.861  10.637
24164W        W95693  33.842  34.460  10.966
24165W        W95694  22.986  17.203   0.789
24166W        W95695   4.021  37.406   0.859
24167W        W95696  30.379   1.085   3.640
24168W        W95697  40.996   6.254  12.592
24169W        W95698   7.949  44.423   2.372
24170W        W95699  19.298  21.501  11.850
24171W        W95700   3.387   5.874   3.179
24172W        W95701  39.498   0.409   2.288
24173W        W95702  34.586  33.570  14.492
24174W        W95703  22.803  44.698  12.087
24175W        W95704   2.228  11.732  12.504
24176W        W95705   8.631  43.902  14.351
24177W        W95706  26.152  17.527  13.850
24178W        W95707  43.550  28.847  13.796
24179W        W95708  20.732  12.026  13.174
24180W        W95709  39.078   6.667  11.456
24181W        W95710  15.292  39.055   4.848
24182W        W95711  37.035   5.790  14.004
24183W        W95712  33.064  43.351   0.051
24184W        W95713  16.689  10.821  13.871
24185W        W95714   9.440  36.515   2.316
24186W        W95715  37.982  16.277   0.283
24187W        W95716   1.711  33.490  14.598
24188W        W95717  26.922  20.134   4.087
24189W        W95718  30.492   2.677  11.838
24190W        W95719  27.492  10.787   3.277
24191W        W95720  16.164  16.097   4.382
24192W        W95721  14.344   6.863  10.998
24193W        W95722  40.656  24.881  10.806
24194W        W95723  29.964  33.130   0.114
24195W        W95724  27.727  24.457  11.826
24196W        W95725  24.238  24.655  13.502
24197W        W95726  10.127  38.573   0.404
24198W        W95727  40.532   0.195  11.996
24199W        W95728   5.029  43.666   3.271
24200W        W95729  27.185  11.424  11.999
24201W        W95730   3.434  21.039  14.881
24202W        W95731  30.910  17.897   4.464
24203W        W95732  28.000  44.678   4.170
24204W        W95733  12.945  31.075   4.200
24205W        W95734  11.757   8.570   2.254
24206W        W95735  43.020  19.700   3.339
24207W        W95736  16.750  17.558   0.005
24208W        W95737  36.978   5.899   3.723
24209W        W95738  42.533   2.789  12.148
24210W        W95739   5.523  36.001   4.178
24211W        W95740  44.578  29.993  11.973
24212W        W95741  15.938  23.854   4.587
24213W        W95742  26.690  15.627  10.451
24214W        W95743   8.288   0.983  12.677
24215W        W95744  44.236  25.736  13.479
24216W        W95745  23.646  21.471  12.071
24217W        W95746  43.466  32.473   4.089
24218W        W95747  10.898   5.845   3.267
24219W        W95748  20.136  28.861  12.736
24220W        W95749  22.094  33.964   1.853
24221W        W95750   0.173  17.357  11.827
24222W        W95751  22.618  21.813  10.506
24223W        W95752  24.051  32.840   3.668
24224W        W95753  16.721   6.398   2.671
24225W        W95754  32.852  26.377  13.915
24226W        W95755  44.676  16.375   1.972
24227W        W95756  31.115  43.774   2.226
24228W        W95757  22.621   0.468  13.825
24229W        W95758  21.253   0.895   3.724
24230W        W95759  43.549   1.359  12.948
24231W        W95760  40.572   7.551  14.655
24232W        W95761  11.822   0.104   2.772
24233W        W95762  19.297   2.900  14.625
24234W        W95763  11.331  26.922   1.305
24235W        W95764  43.272  20.618   4.245
24236W        W95765  28.940  22.797  13.083
24237W        W95766   4.085   5.309   3.294
24238W        W95767   3.662  16.654  14.163
24239W        W95768   0.444  22.227  14.899
24240W        W95769  41.831   4.308  10.671
24241W        W95770  27.528   6.677   4.572
24242W        W95771  32.058  44.868  11.927
24243W        W95772  17.569   7.315   3.706
24244W        W95773  27.316  27.949   4.626
24245W        W95774   1.801  39.442  13.040
24246W        W95775   9.894  33.990   4.626
24247W        W95776  21.805  10.553  12.205
24248W        W95777   5.925   6.069  11.702
24249W        W95778  16.320   4.125  12.150
24250W        W95779  11.666   7.821   1.763
24251W        W95780  18.014  26.036   4.565
24252W        W95781  16.547  11.040  12.162
24253W        W95782  10.684  18.668  14.823
24254W        W95783  40.797  31.679   2.336
24255W        W95784  22.844  42.316  11.447
24256W        W95785  34.065  18.643  12.623
24257W        W95786   7.930   2.304  10.455
24258W        W95787  25.427  14.602  11.466
24259W        W95788  12.375  41.230  14.255
24260W        W95789   8.404  31.545  14.500
24261W        W95790   8.182  34.075   1.382
24262W        W95791  36.129  19.124  11.526
24263W        W95792  14.156  44.058   1.415
24264W        W95793  35.431  41.091  11.218
24265W        W95794   2.518  40.820  14.512
24266W        W95795  37.962  30.588   2.206
24267W        W95796  11.199  29.216  11.156
24268W        W95797  20.578  21.536  11.630
24269W        W95798  27.557  20.429  11.981
24270W        W95799  36.434  25.966   0.355
24271W        W95800  35.768  29.725   1.454
24272W        W95801  23.827  44.693  11.470
24273W        W95802   0.809   8.397  11.688
24274W        W95803   3.304  41.844   1.335
24275W        W95804  40.715  12.632  12.079
24276W        W95805  13.533  31.682   4.556
24277W        W95806  23.143  28.391  13.361
24278W        W95807  37.957  22.532  11.830
24279W        W95808  10.140   2.439   2.276
24280W        W95809  29.037   7.405   2.612
24281W        W95810  31.330  13.052  12.840
24282W        W95811  20.095  21.212   2.137
24283W        W95812  14.256  15.493   0.244
24284W        W95813  32.793  27.952   1.838
24285W        W95814  24.043  26.007   4.313
24286W        W95815  26.070  22.308   2.700
24287W        W95816   6.079   7.458   9.988
24288W        W95817   9.924  15.533  11.203
24289W        W95818  41.934  14.626  11.641
24290W        W95819  11.197  35.280  13.963
24291W        W95820  20.706   3.737   3.152
24292W        W95821   9.579   3.963  11.550
24293W        W95822   0.126   6.246  13.844
24294W        W95823  19.561   4.901   2.426
24295W        W95824   0.285  37.108   1.925
24296W        W95825  36.019  28.235   4.008
24297W        W95826  12.349  34.989  11.410
24298W        W95827  27.509  21.723  10.700
24299W        W95828  22.460  44.458   2.400
24300W        W95829  21.608  22.473   1.757
24301W        W95830  18.077  39.562  13.373
24302W        W95831   0.947   9.764   0.875
24303W        W95832   5.386   0.904   3.699
24304W        W95833  41.612  25.197  10.453
24305W        W95834  28.226  38.971  14.283
24306W        W95835  38.258  31.157   2.368
24307W        W95836  26.712  41.567  11.117
24308W        W95837  28.555   3.177   1.902
24309W        W95838   1.040   8.155   2.671
24310W        W95839  21.561  13.667   4.841
24311W        W95840  33.123  12.609   0.865
24312W        W95841   1.992   8.424   0.777
24313W        W95842  23.694  25.913   0.337
24314W        W95843  26.432  12.613  11.341
24315W        W95844  32.003  15.314  10.846
24316W        W95845  32.442  14.257  12.629
24317W        W95846   0.370  12.073  11.583
24318W        W95847  44.688  27.202   4.199
24319W        W95848  22.149  42.485   0.822
24320W        W95849  19.746  42.405   4.805
24321W        W95850  30.165  44.832   4.158
24322W        W95851  24.905  36.457  11.728
24323W        W95852  26.065  39.090  12.048
24324W        W95853  15.714  19.430   5.382
24325W        W95854  18.766  17.791   2.762
24326W        W95855  27.545  41.404   2.422
24327W        W95856  28.658  27.068   1.822
24328W        W95857  31.266  22.434  11.913
24329W        W95858  43.259  14.782  12.398
24330W        W95859  17.060  32.151  14.473
24331W        W95860  13.341   7.354  13.499
24332W        W95861  32.072  30.921  13.928
24333W        W95862  35.787  39.017  12.924
24334W        W95863  34.469  13.834  11.512
24335W        W95864  11.596  35.423   0.912
24336W        W95865  38.789  23.082  14.530
24337W        W95866  17.222  27.061   2.746
24338W        W95867  22.738  23.726   0.741
24339W        W95868  14.404  21.878   2.163
24340W        W95869  37.410  10.057  10.686
24341W        W95870  22.651  26.796  12.968
24342W        W95871  33.834  15.044  11.044
24343W        W95872  22.682  10.777   0.297
24344W        W95873  44.897  31.617   3.568
24345W        W95874  14.472  43.528  12.492
24346W        W95875  19.758   8.288   0.056
24347W        W95876   6.353  25.513   0.159
24348W        W95877  27.593  30.163  12.537
24349W        W95878  25.229  19.666  12.090
24350W        W95879  19.473   2.395  13.448
24351W        W95880  30.943   2.809  13.491
24352W        W95881  32.060  37.979   3.613
24353W        W95882   6.734  28.675   3.326
24354W        W95883  40.552  36.008  12.109
24355W        W95884  39.731  44.291  11.683
24356W        W95885   5.515  32.061   4.358
24357W        W95886  40.034   9.854   1.466
24358W        W95887   3.451  42.786  11.606
24359W        W95888   1.958  22.423   3.950
24360W        W95889  22.360   7.879  11.423
24361W        W95890  42.081   5.238   2.289
24362W        W95891  22.702   2.411  14.597
24363W        W95892   9.831   8.913  11.533
24364W        W95893  19.755  19.690   1.597
24365W        W95894  13.222  36.160   5.163
24366W        W95895  28.430  26.255  11.602
24367W        W95896  42.885  10.745   2.145
24368W        W95897  34.840  33.129   0.212
24369W        W95898  27.084  40.063   1.779
24370W        W95899   6.886  25.212  12.488
24371W        W95900  21.092   9.267  13.134
24372W        W95901  13.703  13.938   4.117
24373W        W95902  38.331  10.262  14.815
24374W        W95903   7.275  32.534   3.143
24375W        W95904  33.301   2.880  13.929
24376W        W95905  32.931   0.262  13.379
24377W        W95906  42.760  10.902   0.320
24378W        W95907  44.826  21.699   1.185
24379W        W95908   6.621  22.945  10.950
24380W        W95909  20.503  20.207   1.916
24381W        W95910  26.226  29.103  12.022
24382W        W95911   5.801  24.951   1.772
24383W        W95912  43.912   8.271  12.886
24384W        W95913  18.828  20.690   4.562
24385W        W95914  25.444  40.010  11.973
24386W        W95915  13.747  22.657   3.273
24387W        W95916   7.806  31.904   0.921
24388W        W95917  19.551   4.383  12.169
24389W        W95918  26.474  15.792   0.390
24390W        W95919  13.798  11.703   3.769
24391W        W95920  15.750  39.957  14.943
24392W        W95921  28.000  44.785  12.875
24393W        W95922  19.711  21.059  11.148
24394W        W95923  23.523  11.577  12.629
24395W        W95924  12.622  44.848   2.147
24396W        W95925  41.365  16.011   4.970
24397W        W95926  38.056   8.934   1.877
24398W        W95927   7.559   8.881  12.477
24399W        W95928   1.940  27.735  10.921
24400W        W95929  25.423  11.520  14.705
24401W        W95930   7.760  10.450   3.230
24402W        W95931  41.026  42.483   1.781
24403W        W95932  19.212  21.558   0.300
24404W        W95933  16.073  36.140  12.948
24405W        W95934   4.909  16.686   1.350
24406W        W95935  24.690  16.120   1.204
24407W        W95936  14.491  30.703   2.583
24408W        W95937  40.975  31.988  11.789
24409W        W95938  40.212  10.820   4.295
24410W        W95939  16.599  39.843   1.399
24411W        W95940  25.873  13.723   4.138
24412W        W95941  44.982  23.051   1.456
24413W        W95942  20.291  43.244   3.684
24414W        W95943  27.905  20.490   1.876
24415W        W95944  25.700   5.137  10.126
24416W        W95945  16.672  35.273   2.162
24417W        W95946  27.241  17.541   3.300
24418W        W95947  35.479  15.385  12.989
24419W        W95948  27.482  30.456  14.800
24420W        W95949  10.835  42.790   3.288
24421W        W95950  18.476  29.903  11.177
24422W        W95951   2.061  38.060  12.924
24423W        W95952  44.081  43.422   2.852
24424W        W95953  12.859   8.176  14.807
24425W        W95954  39.062  37.599  11.082
24426W        W95955  21.151  44.196   2.012
24427W        W95956   9.823   1.606  10.846
24428W        W95957  12.659  22.015   0.949
24429W        W95958  18.591   0.926   2.934
24430W        W95959   5.931   3.462   1.310
24431W        W95960   8.200   6.464   4.282
24432W        W95961  21.530  26.565   4.114
24433W        W95962  17.293  25.714  11.620
24434W        W95963   7.168  33.425   1.731
24435W        W95964  35.025  16.701  11.566
24436W        W95965  36.640  33.091   4.619
24437W        W95966   7.106   6.711  10.681
24438W        W95967  30.886   3.504  11.695
24439W        W95968  21.448  22.044   2.035
24440W        W95969   2.368   4.291   2.017
24441W        W95970  25.189   0.875   0.396
24442W        W95971  26.127   2.482  14.954
24443W        W95972  29.481  40.798   1.266
24444W        W95973   6.676  17.493  14.290
24445W        W95974  41.911   2.446  11.606
24446W        W95975  26.277  24.950  14.419
24447W        W95976  34.304  20.944   0.438
24448W        W95977  16.707   9.281  14.740
24449W        W95978  42.715  34.081  14.320
24450W        W95979  44.070  35.634  11.003
24451W        W95980  31.237  17.107   1.830
24452W        W95981  14.371  14.567  13.132
24453W        W95982  25.710  26.674   3.285
24454W        W95983  17.677  35.406  13.838
24455W        W95984  32.548  44.753  12.868
24456W        W95985  36.567  41.927  12.673
24457W        W95986   0.808  13.145  13.078
24458W        W95987  16.080  21.224   2.800
24459W        W95988  23.736  28.555   1.808
24460W        W95989  32.612   3.145   3.712
24461W        W95990  15.203  33.848  10.650
24462W        W95991  32.514   2.466   3.344
24463W        W95992  38.711  13.383  13.381
24464W        W95993  32.913  21.431  11.537
24465W        W95994  19.525  31.404  11.123
24466W        W95995   6.883  35.084  14.988
24467W        W95996   8.908  15.218   0.533
24468W        W95997  41.852   7.273  12.966
24469W        W95998  32.321  25.733   3.150
24470W        W95999  20.864  29.273   5.276
24471W        W96000   5.877  31.422   1.790
24472W        W96001  37.968   7.112   0.432
24473W        W96002  18.586  22.716  12.794
24474W        W96003  40.596  33.612  12.846
24475W        W96004  23.249   4.896   3.775
24476W        W96005  19.669   8.711  11.925
24477W        W96006  15.006  42.791  13.363
24478W        W96007   4.884  28.335  10.914
24479W        W96008  31.027  13.942  10.959
24480W        W96009   8.880  43.468  13.991
24481W        W96010  41.664   0.874  13.574
24482W        W96011  23.133  41.769  14.860
24483W        W96012  11.356  43.409   1.150
24484W        W96013   2.879  40.130   1.164
24485W        W96014  30.975  22.221  13.340
24486W        W96015  38.319  33.900   2.131
24487W        W96016  35.166   9.385   0.008
24488W        W96017   7.671  24.239  12.018
24489W        W96018  36.430  39.027  13.481
24490W        W96019  15.632  17.023   2.757
24491W        W96020  37.839   6.246   2.757
24492W        W96021  12.063  27.851   4.301
24493W        W96022  34.429  26.574   2.697
24494W        W96023  12.307   3.035  14.353
24495W        W96024  19.042  30.387  14.410
24496W        W96025  13.873  18.228  13.054
24497W        W96026  21.490  27.534   0.788
24498W        W96027  27.501  36.963  12.801
24499W        W96028  36.590  17.049  14.595
24500W        W96029   5.886  32.650  12.928
24501W        W96030  20.448  25.067  13.556
24502W        W96031  37.049  24.024   0.901
24503W        W96032  31.418  32.581  11.644
24504W        W96033  38.385  18.470  10.838
24505W        W96034  22.372  26.497   1.880
24506W        W96035   0.889  11.103   2.873
24507W        W96036   4.875  20.764   3.588
24508W        W96037  39.286  10.783  10.787
24509W        W96038  10.274  34.033   4.257
24510W        W96039  21.666  36.670   5.127
24511W        W96040  43.864  24.707   1.160
24512W        W96041  19.283  32.102   0.805
24513W        W96042   6.164   5.512   2.591
24514W        W96043  39.093  20.155  14.388
24515W        W96044   2.425  15.630  10.741
24516W        W96045   4.611   4.027  13.068
24517W        W96046  24.108  20.571   0.494
24518W        W96047  38.846  26.996  13.299
24519W        W96048   1.470   2.712   3.357
24520W        W96049  41.834  42.047   0.160
24521W        W96050   0.041  18.186   3.658
24522W        W96051   7.700  31.933  12.037
24523W        W96052  33.546   5.950   4.224
24524W        W96053  17.729  26.401  11.877
24525W        W96054  14.255   7.919  12.997
24526W        W96055  35.794  32.183  13.857
24527W        W96056  20.263  29.391  11.065
24528W        W96057  32.947  23.423   2.665
24529W        W96058  25.298  39.862   1.700
24530W        W96059  34.299   0.843  13.667
24531W        W96060   4.034  24.301  10.925
24532W        W96061  32.529  11.745  12.540
24533W        W96062  16.051  14.819  12.027
24534W        W96063  20.223  19.711  13.302
24535W        W96064  43.402  42.479  14.228
24536W        W96065   3.510  24.932   1.533
24537W        W96066  40.985  28.520  10.673
24538W        W96067  30.824  28.925  12.267
24539W        W96068  16.677   8.747   1.719
24540W        W96069   2.699  27.285  12.718
24541W        W96070  33.941  24.504   2.760
24542W        W96071   9.219  42.506   3.205
24543W        W96072   2.792   4.234   1.118
24544W        W96073  44.647  15.471   4.196
24545W        W96074   7.811  24.168  12.503
24546W        W96075  11.605  20.980  14.085
24547W        W96076  23.666   7.587   4.618
24548W        W96077  41.096  12.303  13.699
24549W        W96078   1.997  15.761   2.785
24550W        W96079  17.734  23.072   2.868
24551W        W96080  41.092  13.827  14.369
24552W        W96081  32.025  21.326  12.495
24553W        W96082  17.132   7.659   3.169
24554W        W96083   4.184  23.535  11.050
24555W        W96084  17.822  24.509   3.815
24556W        W96085  38.361   7.597  12.964
24557W        W96086  25.416   3.165  14.214
24558W        W96087  33.902   7.415  10.905
24559W        W96088   2.805  33.048  13.828
24560W        W96089  22.573  36.581  12.982
24561W        W96090   8.451  43.596   2.069
24562W        W96091  23.458  17.744   2.694
24563W        W96092   6.409  15.708  14.726
24564W        W96093  35.034   7.201  12.530
24565W        W96094  22.260  23.825   4.088
24566W        W96095   0.774   4.634  10.786
24567W        W96096  12.940  39.487  14.817
24568W        W96097  39.977  33.372  14.949
24569W        W96098  44.555  34.914   4.095
24570W        W96099  11.013  28.735  13.430
24571W        W96100  20.998  42.434   4.923
24572W        W96101  12.562  17.751  14.473
24573W        W96102  41.483  43.424  13.597
24574W        W96103   4.297  41.983  13.440
24575W        W96104   4.215  18.038   3.709
24576W        W96105  40.050   4.801   2.716
24577W        W96106  29.421  19.164  12.436
24578W        W96107   2.462  26.173   4.175
24579W        W96108  26.231  20.663  14.417
24580W        W96109  33.255  44.903  14.840
24581W        W96110   0.045  38.703  12.888
24582W        W96111  32.524   3.201   4.964
24583W        W96112  33.347  32.011  11.179
24584W        W96113  24.832  36.877  14.689
24585W        W96114  13.763  17.146  12.446
24586W        W96115  32.453  33.774   2.133
24587W        W96116  32.314  36.859  13.726
24588W        W96117  25.443  22.819  14.363
24589W        W96118  23.209  42.123  11.752
24590W        W96119  26.440  27.047   2.743
24591W        W96120  29.959  20.783   2.391
24592W        W96121  31.393  11.325   0.291
24593W        W96122  10.707   6.753  12.356
24594W        W96123   7.252  32.890   3.804
24595W        W96124  38.294  41.052   4.126
24596W        W96125   4.267  44.778  12.359
24597W        W96126   8.823  39.287  10.712
24598W        W96127  28.265  19.990  13.278
24599W        W96128  43.495  27.274   2.307
24600W        W96129   4.375  39.514  13.411
24601W        W96130  10.354   5.860  14.097
24602W        W96131  11.351   5.917  14.963
24603W        W96132  29.500  37.285   1.900
24604W        W96133   6.156   1.882   3.113
24605W        W96134   8.785  21.147  13.379
24606W        W96135  28.176  11.196  13.721
24607W        W96136  37.453  42.215  13.558
24608W        W96137  39.699   0.830   2.089
24609W        W96138  43.992   0.379   3.067
24610W        W96139  33.087  17.144  11.871
24611W        W96140  19.035  31.437   1.769
24612W        W96141  28.061   9.383  10.925
24613W        W96142  24.071  13.235  14.974
24614W        W96143  14.847  25.428  10.677
24615W        W96144   4.371  35.466  12.090
24616W        W96145   5.368  33.468   4.607
24617W        W96146   0.754  26.541  14.823
24618W        W96147  29.043  20.489   2.904
24619W        W96148  36.885  34.510   4.653
24620W        W96149  44.825  43.979   2.911
24621W        W96150   4.752  32.190   3.796
24622W        W96151  16.074  29.530   1.246
24623W        W96152  32.572  16.482  14.442
24624W        W96153  14.671   5.149   3.194
24625W        W96154  40.849  37.649   2.388
24626W        W96155  40.412   9.884  14.913
24627W        W96156  28.549  13.146   4.190
24628W        W96157  10.721  25.730   0.866
24629W        W96158  25.748  38.956   4.815
24630W        W96159  26.631   1.782  12.436
24631W        W96160  24.180  28.400  10.414
24632W        W96161  36.035  22.083   4.603
24633W        W96162  44.383  26.199   0.850
24634W        W96163  16.799  19.627   0.893
24635W        W96164  39.752  18.795  14.335
24636W        W96165  31.600   2.858  14.908
24637W        W96166  13.679  18.042   3.164
24638W        W96167  25.044  12.266  10.556
24639W        W96168  40.214  34.008  14.280
24640W        W96169   2.656  42.936   0.292
24641W        W96170   6.865  15.184   2.131
24642W        W96171  28.655  24.526   2.154
24643W        W96172   6.013  32.057   4.198
24644W        W96173  37.817  10.189   4.590
24645W        W96174   7.293  37.046   1.766
24646W        W96175  35.516  19.810   3.234
24647W        W96176  14.251  36.531  13.912
24648W        W96177  38.418  20.711  14.346
24649W        W96178  42.765  35.270   1.800
24650W        W96179   8.448  18.022   3.486
24651W        W96180  39.132   4.863  11.082
24652W        W96181   8.266  39.719  12.280
24653W        W96182  13.426  26.506  12.916
24654W        W96183  36.418  21.386  11.613
24655W        W96184   8.703  40.324   4.007
24656W        W96185  22.695  42.245  10.109
24657W        W96186  24.668  25.651   4.157
24658W        W96187  26.990  41.408  14.732
24659W        W96188  23.316  36.992  14.406
24660W        W96189  36.322  26.937  13.018
24661W        W96190  31.915   7.732   0.958
24662W        W96191  31.900   8.641  10.604
24663W        W96192  38.157  36.011   4.239
24664W        W96193  28.810  40.258   4.479
24665W        W96194  36.565   6.883   2.190
24666W        W96195  37.822   7.147  12.231
24667W        W96196   3.472  36.691   3.236
24668W        W96197  41.383  19.196  13.375
24669W        W96198  23.062  28.810   4.086
24670W        W96199   0.578  22.530   2.729
24671W        W96200  39.347  23.526  13.417
24672W        W96201   6.910   7.246   3.899
24673W        W96202   5.833   1.547  13.111
24674W        W96203   3.979  42.356   2.261
24675W        W96204   8.128  24.052   3.687
24676W        W96205  37.936  10.896  12.003
24677W        W96206  27.743  32.324   3.399
24678W        W96207   3.274  22.257  10.205
24679W        W96208  28.686   4.495  14.045
24680W        W96209  32.380  18.595  14.381
24681W        W96210  21.731  29.394  11.070
24682W        W96211  16.794  33.459   0.772
24683W        W96212  33.021  26.866  14.644
24684W        W96213  42.943  44.576  14.551
24685W        W96214   6.714  25.142  11.386
24686W        W96215  40.495   5.307  11.479
24687W        W96216   5.131  44.238  10.308
24688W        W96217  44.532  26.963   3.783
24689W        W96218  14.229  36.092  11.356
24690W        W96219  20.305   0.981   2.384
24691W        W96220  38.274  38.348  14.881
24692W        W96221  22.369  28.580   3.653
24693W        W96222  27.373   1.125   3.442
24694W        W96223  43.578  16.131  11.034
24695W        W96224  18.438   9.192   4.788
24696W        W96225  40.009  29.952   4.045
24697W        W96226  31.659  25.641   4.398
24698W        W96227  29.244  15.629   1.377
24699W        W96228  26.237   6.434  13.520
24700W        W96229  28.416  25.771   1.427
24701W        W96230   6.766  15.045   1.268
24702W        W96231  22.048   3.041   1.370
24703W        W96232  25.757  25.244   0.217
24704W        W96233  29.890  33.185  13.791
24705W        W96234  28.105   4.782  12.831
24706W        W96235  18.694  26.641  14.001
24707W        W96236   1.429  23.613  14.702
24708W        W96237   3.638  24.601   4.315
24709W        W96238   4.874  11.592   4.579
24710W        W96239  31.479   6.173  11.635
24711W        W96240  13.431  21.955   4.914
24712W        W96241  23.511  20.759  10.777
24713W        W96242  11.488  33.793   3.401
24714W        W96243   9.202  37.110   0.273
24715W        W96244  35.960   4.824  11.172
24716W        W96245  27.761  36.178   0.788
24717W        W96246  18.478  10.437  12.099
24718W        W96247  22.136   4.503  14.806
24719W        W96248  34.818  18.782  10.793
24720W        W96249  41.365  22.859   1.297
24721W        W96250   9.397  26.093  11.262
24722W        W96251   5.100  22.952   0.205
24723W        W96252  27.096  38.551   0.182
24724W        W96253   8.784   0.191   1.788
24725W        W96254  31.598  42.459   0.445
24726W        W96255   7.912  32.114   0.406
24727W        W96256   8.333  26.584   4.770
24728W        W96257  41.822  30.239   2.391
24729W        W96258  40.998  31.650   1.474
24730W        W96259  22.357  18.110   5.044
24731W        W96260  22.750  36.908   1.507
24732W        W96261   7.392   6.278  11.648
24733W        W96262  17.184  28.414  12.898
24734W        W96263  13.919  37.411  11.557
24735W        W96264  17.117  17.284   3.676
24736W        W96265  13.764  20.642  10.136
24737W        W96266  13.317  40.079  12.899
24738W        W96267  14.673  31.534  14.319
24739W        W96268   4.410  16.348   2.789
24740W        W96269  34.035  33.592  13.035
24741W        W96270  35.449  33.139  13.099
24742W        W96271  17.000   6.351   0.972
24743W        W96272  15.803  27.208   1.657
24744W        W96273   2.788   5.607   1.859
24745W        W96274  13.843   6.937   0.977
24746W        W96275  22.721  13.240  14.599
24747W        W96276  16.799  29.463  12.447
24748W        W96277  38.756   8.897   0.305
24749W        W96278   3.905  39.216  10.658
24750W        W96279  31.047  17.611  13.421
24751W        W96280  31.987  43.152   4.940
24752W        W96281  37.567  30.015   0.605
24753W        W96282  21.435  12.256   1.387
24754W        W96283  35.423  34.601   3.541
24755W        W96284  28.028  23.357  11.169
24756W        W96285  36.017  10.312   0.949
24757W        W96286   9.458  15.994  14.909
24758W        W96287  24.134  19.999   2.803
24759W        W96288  39.964  24.050   2.182
24760W        W96289  16.068   1.790  14.048
24761W        W96290  21.108  13.217  12.182
24762W        W96291   7.020  16.734   0.035
24763W        W96292  34.011  38.765   0.305
24764W        W96293   8.798  16.286  11.986
24765W        W96294  17.162   9.301  12.864
24766W        W96295  31.540  25.737  12.550
24767W        W96296  23.990   7.404   0.813
24768W        W96297  31.955  23.070   3.354
24769W        W96298  28.606   1.847  11.817
24770W        W96299  42.965  26.827  12.382
24771W        W96300  18.172  14.197  12.366
24772W        W96301  13.617  43.361   4.612
24773W        W96302  30.036   8.347  12.762
24774W        W96303  15.748   7.764  10.719
24775W        W96304  25.730  32.549   1.819
24776W        W96305  39.887  15.932  10.531
24777W        W96306   5.778  22.515   0.005
24778W        W96307   5.245  17.551  12.513
24779W        W96308  17.791  23.660   4.124
24780W        W96309  42.915  43.553   0.975
24781W        W96310   4.914   1.806  14.313
24782W        W96311  39.300   9.471  13.892
24783W        W96312   1.591  35.838  13.391
24784W        W96313  25.810  11.603   4.649
24785W        W96314  40.347  44.758  12.925
24786W        W96315   9.693  29.891  13.856
24787W        W96316   3.882   3.134   2.011
24788W        W96317  21.661  36.583  12.897
24789W        W96318  43.058  33.427   4.560
24790W        W96319  40.953  25.733  13.085
24791W        W96320  35.896  27.025   0.825
24792W        W96321  25.009  29.651  13.544
24793W        W96322  21.176   5.460  12.160
24794W        W96323  38.510  27.434  11.159
24795W        W96324  32.805  26.875  13.751
24796W        W96325   8.971  38.116   1.817
24797W        W96326  38.804  16.819   0.475
24798W        W96327  44.314   2.242  14.077
24799W        W96328   5.681  19.235   0.296
24800W        W96329  40.341  37.450  14.393
24801W        W96330  22.620  30.654  11.992
24802W        W96331  31.473  15.300   1.703
24803W        W96332  19.263  43.509  14.891
24804W        W96333  38.962  44.449   4.625
24805W        W96334   8.307  13.692  13.988
24806W        W96335  34.037  32.343  14.718
24807W        W96336  35.426  24.115   4.372
24808W        W96337  44.099  20.708   0.432
24809W        W96338  13.575  22.747  13.408
24810W        W96339  42.522  11.183  14.074
24811W        W96340  34.456  11.694  13.822
24812W        W96341   0.986   9.925   4.637
24813W        W96342   2.305  18.143  14.762
24814W        W96343  28.246  43.257  13.849
24815W        W96344  16.946  11.370   4.245
24816W        W96345  35.121  12.893   3.285
24817W        W96346  28.228   6.721  12.553
24818W        W96347  38.868  17.253  11.470
24819W        W96348  29.897  31.692   1.432
24820W        W96349  35.872   4.876   3.836
24821W        W96350   1.923   7.890  12.463
24822W        W96351  29.638  21.617  14.096
24823W        W96352  14.600  42.789   3.112
24824W        W96353  19.337  32.937   3.708
24825W        W96354  16.331  35.401  10.722
24826W        W96355  36.871  11.854   4.063
24827W        W96356   7.301  39.129   1.332
24828W        W96357  10.073  30.525  10.795
24829W        W96358  34.546   8.817   2.422
24830W        W96359  24.071  44.642  14.393
24831W        W96360   9.765  11.621  11.014
24832W        W96361  31.180  27.533  11.757
24833W        W96362  21.609  43.490   2.928
24834W        W96363  20.531  28.525   2.906
24835W        W96364  18.530  41.428  11.075
24836W        W96365  31.982  37.292  12.629
24837W        W96366  20.725   5.186  12.069
24838W        W96367  29.503  28.551   4.500
24839W        W96368  13.327  21.788  13.149
24840W        W96369   3.240  44.874  10.679
24841W        W96370  11.895  19.614  13.847
24842W        W96371  19.608   1.442  13.855
24843W        W96372   8.860  35.159  13.944
24844W        W96373  16.944  41.815  12.168
24845W        W96374  30.943  15.199   1.794
24846W        W96375   1.016  38.849  11.403
24847W        W96376   2.415  11.194  10.326
24848W        W96377  16.824  38.880   1.745
24849W        W96378  35.789  24.624  12.405
24850W        W96379  39.916  13.833   0.472
24851W        W96380  12.281  39.873   2.439
24852W        W96381  40.073  15.966  11.353
24853W        W96382  19.783  38.381   0.327
24854W        W96383  43.831  18.002   1.905
24855W        W96384  19.387  10.254  11.170
24856W        W96385  37.580  20.282  10.687
24857W        W96386  22.153  21.055   2.116
24858W        W96387  28.933  15.769  12.637
24859W        W96388  36.209  30.822  13.841
24860W        W96389  23.471  26.377  10.715
24861W        W96390  43.924  41.270  12.470
24862W        W96391  21.279  29.744   2.173
24863W        W96392  21.896  35.336   3.331
24864W        W96393  21.559   4.202   3.096
24865W        W96394  11.155  22.497  14.926
24866W        W96395  21.202  18.676   0.024
24867W        W96396   5.699   7.654   0.978
24868W        W96397  40.972  21.085  11.574
24869W        W96398  44.503  26.502  13.952
24870W        W96399  25.717  21.442  13.951
24871W        W96400  36.973  20.153   2.197
24872W        W96401  34.513  15.890   3.086
24873W        W96402  42.855  16.147   4.622
24874W        W96403  20.863  31.203  11.608
24875W        W96404  18.474  11.668  10.860
24876W        W96405   3.332  26.204   0.597
24877W        W96406  35.289   6.344   4.573
24878W        W96407  33.120   3.527   0.019
24879W        W96408  43.273  28.078   1.251
24880W        W96409  42.417  34.398  10.640
24881W        W96410   8.907  38.361   4.516
24882W        W96411  27.982  34.800  14.555
24883W        W96412   7.642  38.069   2.577
24884W        W96413  11.657  22.668  10.123
24885W        W96414  20.404   7.297   2.792
24886W        W96415  21.529  30.128   1.247
24887W        W96416   1.503   3.669   1.465
24888W        W96417   7.133  20.697   1.379
24889W        W96418  30.053  20.960   1.379
24890W        W96419   4.394   1.630  12.120
24891W        W96420  36.569  39.015   4.253
24892W        W96421  43.533  42.923   3.153
24893W        W96422  12.315  36.916   4.142
24894W        W96423   4.259  38.187  11.973
24895W        W96424  13.762  27.724   2.040
24896W        W96425  13.569  16.145   1.780
24897W        W96426  25.734  32.189   0.838
24898W        W96427  13.163  11.758   0.343
24899W        W96428  19.356   6.406  12.540
24900W        W96429  41.026  15.172  11.509
24901W        W96430   5.760  23.017  10.618
24902W        W96431   4.323   2.939   3.753
24903W        W96432  39.644  18.571   2.013
24904W        W96433  11.315  30.196   4.129
24905W        W96434  13.126   5.330  13.375
24906W        W96435  36.118   2.147   2.343
24907W        W96436   3.624  12.418   0.102
24908W        W96437  35.385  41.856  13.925
24909W        W96438  16.676  32.550  13.689
24910W        W96439  34.542  35.698   1.282
24911W        W96440   6.744  42.897   0.972
24912W        W96441  25.909  10.250  11.108
24913W        W96442  17.621  36.280  13.969
24914W        W96443   0.739   8.257   4.505
24915W        W96444  10.792  29.324  14.455
24916W        W96445  31.418  42.767   0.818
24917W        W96446   2.253  25.459   1.968
24918W        W96447  16.617  10.914  13.356
24919W        W96448   4.833   8.752   1.781
24920W        W96449  19.311  13.412  12.043
24921W        W96450   0.824  33.691   1.831
24922W        W96451  23.941  43.749  14.227
24923W        W96452  37.561  37.406   4.544
24924W        W96453  39.289   3.990   4.550
24925W        W96454  38.944  38.461  10.547
24926W        W96455  23.085  27.564  13.929
24927W        W96456  11.364   7.746   2.332
24928W        W96457  13.621   6.423   2.328
24929W        W96458   5.742  31.816   0.400
24930W        W96459   1.065  12.089   2.203
24931W        W96460  39.110   5.353  12.111
24932W        W96461  22.606  29.673   4.204
24933W        W96462  42.412  42.210  13.452
24934W        W96463  12.336  43.320   0.296
24935W        W96464  10.932  28.404  12.549
24936W        W96465  33.911   7.717  12.815
24937W        W96466  30.942  27.643  12.835
24938W        W96467  20.538   4.433   2.496
24939W        W96468  25.561  10.738   0.985
24940W        W96469  25.145   4.488   0.895
24941W        W96470   9.699  23.170   3.773
24942W        W96471   7.591  28.986  14.383
24943W        W96472  30.176   6.319  12.677
24944W        W96473  33.062  44.249   3.013
24945W        W96474  27.200  14.600  11.075
24946W        W96475  29.697  22.328   3.098
24947W        W96476  37.591   3.127   4.220
24948W        W96477   8.680  14.918   1.377
24949W        W96478  28.416  21.117  11.012
24950W        W96479  24.923  11.790  10.704
24951W        W96480  23.168  14.777   1.938
24952W        W96481  19.765  42.261   3.289
24953W        W96482  43.376  40.405   1.896
24954W        W96483  13.945  41.901  14.869
24955W        W96484  13.847   0.696  14.270
24956W        W96485   0.729  11.417  13.411
24957W        W96486   7.214  36.811   1.290
24958W        W96487  16.747   9.759  11.879
24959W        W96488  41.998   5.689   2.618
24960W        W96489   9.956  12.139  14.890
24961W        W96490  42.491  32.580   1.319
24962W        W96491   7.429  24.246   1.482
24963W        W96492  13.280   3.227   0.472
24964W        W96493  33.936  17.703   1.477
24965W        W96494   7.639  17.750  10.780
24966W        W96495  27.437  23.875   3.667
24967W        W96496  26.252  24.067   0.383
24968W        W96497  12.887  22.204   2.349
24969W        W96498   9.116  29.149  13.409
24970W        W96499   1.390  32.465   3.803
24971W        W96500  11.166  25.437  10.751
24972W        W96501  32.119   0.934   4.288
24973W        W96502   9.323  34.309   0.863
24974W        W96503  10.450   1.149   0.809
24975W        W96504   8.922  10.458   4.183
24976W        W96505  22.738  18.358  13.565
24977W        W96506  15.213   7.819  14.991
24978W        W96507  40.452  19.654   1.247
24979W        W96508  18.235  40.034  14.038
24980W        W96509   6.727  39.528   3.821
24981W        W96510  43.876  31.484  11.207
24982W        W96511  10.262  34.913   3.714
24983W        W96512  13.716  11.122   1.999
24984W        W96513  16.320   5.549   3.559
24985W        W96514   3.543  34.398   4.072
24986W        W96515  22.044  12.159  14.881
24987W        W96516  38.934  42.655  12.962
24988W        W96517   2.457   5.170   4.232
24989W        W96518   5.763  12.165  14.436
24990W        W96519   3.323  39.157  11.988
24991W        W96520   2.203   1.365  10.730
24992W        W96521  23.765  12.794  10.641
24993W        W96522  11.837   9.879   1.843
24994W        W96523  21.634  12.506  14.898
24995W        W96524  12.157   2.029  13.421
24996W        W96525  19.399   3.345   0.947
24997W        W96526  29.703   2.166   3.360
24998W        W96527  26.467   8.697   1.757
24999W        W96528  21.760  40.774  14.272
25000W        W96529  13.320  42.093   3.374
25001W        W96530  31.931  12.378   2.750
25002W        W96531  19.721  12.602  14.522
25003W        W96532  33.801  28.097  10.182
25004W        W96533  31.987  42.873  14.997
25005W        W96534  14.218  39.047  14.735
25006W        W96535  26.648   0.825   2.213
25007W        W96536  35.409  14.149  13.676
25008W        W96537   9.795   4.444   1.124
25009W        W96538  35.899   5.873  12.012
25010W        W96539   4.337  42.829  12.022
25011W        W96540   1.397  24.619   4.588
25012W        W96541  30.556  30.084   4.003
25013W        W96542   2.433  16.959   4.786
25014W        W96543  29.397  43.508  11.504
25015W        W96544  17.821   1.447  13.012
25016W        W96545  20.668  21.983   2.952
25017W        W96546  39.414   2.078  13.744
25018W        W96547  42.331  20.563   0.714
25019W        W96548  43.631  41.829   1.771
25020W        W96549  13.096  34.053   0.231
25021W        W96550  43.039  28.914   2.861
25022W        W96551   1.793   8.861  10.637
25023W        W96552  44.968  26.066  12.543
25024W        W96553  37.254  33.490   5.075
25025W        W96554  13.185  38.088   3.740
25026W        W96555  23.745  23.520  10.468
25027W        W96556  31.354  44.843   0.835
25028W        W96557   6.440   1.050   1.254
25029W        W96558   7.012  31.194   0.310
25030W        W96559   8.970   7.437   2.667
25031W        W96560   0.806  38.231   4.357
25032W        W96561   6.871   9.525   4.416
25033W        W96562  15.159  34.464  11.608
25034W        W96563  19.698  35.229  12.375
25035W        W96564  40.865  36.823   3.586
25036W        W96565  13.212   1.639   4.683
25037W        W96566   3.622  16.283   0.071
25038W        W96567  21.687  38.829  14.361
25039W        W96568  22.240  28.899   4.505
25040W        W96569  43.838  20.256   3.682
25041W        W96570   8.795  30.516   9.872
25042W        W96571   7.864   9.803   0.246
25043W        W96572  44.815  44.759  13.648
25044W        W96573  42.199  14.303   3.651
25045W        W96574  16.762  30.162   3.665
25046W        W96575  32.949  24.468   2.652
25047W        W96576  40.312  36.358   1.790
25048W        W96577   2.789  29.659   0.920
25049W        W96578  38.135  23.798  11.772
25050W        W96579  16.535  20.621   3.430
25051W        W96580  13.580  43.215   0.767
25052W        W96581  12.209  27.122  12.942
25053W        W96582   0.244  27.688   3.183
25054W        W96583  37.541  44.291   4.387
25055W        W96584  10.186  32.388  12.992
25056W        W96585  28.043  26.036   1.703
25057W        W96586  24.551  41.086   3.287
25058W        W96587  26.196   0.310   1.090
25059W        W96588  14.285  22.171   1.709
25060W        W96589  34.965  27.559  11.545
25061W        W96590  37.416   6.882   2.195
25062W        W96591  22.821  21.270  11.134
25063W        W96592  19.523  23.619  12.496
25064W        W96593   4.349  37.339  10.949
25065W        W96594  16.138  37.816  11.128
25066W        W96595  30.137  36.970  14.276
25067W        W96596  26.215  27.248  12.476
25068W        W96597  30.950  30.029   2.311
25069W        W96598   5.413  40.812  12.846
25070W        W96599   7.739   5.396   3.286
25071W        W96600  42.061  19.382   3.720
25072W        W96601  19.229  18.974   0.326
25073W        W96602  30.914   0.205  14.990
25074W        W96603   8.650  18.806  14.881
25075W        W96604  31.960  13.569  14.483
25076W        W96605  18.310  30.681  12.560
25077W        W96606   0.746  36.514  12.007
25078W        W96607  30.009  35.578   1.334
25079W        W96608  14.180  20.498  10.918
25080W        W96609   8.042  41.325   1.628
25081W        W96610  31.896   5.360   3.962
25082W        W96611  42.159  28.489  12.011
25083W        W96612  34.476  12.431   4.624
25084W        W96613  12.349  40.910   2.159
25085W        W96614   2.862   8.379  12.019
25086W        W96615   7.712  38.484   2.912
25087W        W96616  32.528  36.892   1.302
25088W        W96617  12.118  14.105   2.754
25089W        W96618  21.763  21.178  14.934
25090W        W96619  23.123  18.115  13.857
25091W        W96620  43.373  15.293  12.436
25092W        W96621  10.867  16.075   3.409
25093W        W96622  33.003  37.389  14.733
25094W        W96623   1.838  40.878   3.944
25095W        W96624  24.565  42.752   1.868
25096W        W96625  26.627  28.539  12.510
25097W        W96626  17.956   9.529  11.639
25098W        W96627  12.732  24.280  12.416
25099W        W96628  40.311  39.507   1.885
25100W        W96629  38.041   1.794  14.424
25101W        W96630  37.953   6.914   1.254
25102W        W96631   6.391  43.282   1.234
25103W        W96632  24.083  19.520   4.098
25104W        W96633  13.921  38.933  14.274
25105W        W96634   0.345  21.247  10.140
25106W        W96635  30.099  44.315   2.337
25107W        W96636  25.690   3.689   3.214
25108W        W96637  12.463  17.644   0.329
25109W        W96638  12.228  22.503  13.873
25110W        W96639  34.593   8.742  14.281
25111W        W96640  17.551  23.661   3.085
25112W        W96641  15.794  37.038  14.463
25113W        W96642  12.897  30.515  11.483
25114W        W96643  20.225  36.900   0.822
25115W        W96644   1.432  22.970   4.486
25116W        W96645  18.522  26.062   2.939
25117W        W96646   2.184  41.587   9.665
25118W        W96647  39.319  18.627  10.775
25119W        W96648  20.776  23.232  14.820
25120W        W96649  36.056  38.497  11.498
25121W        W96650   6.068  20.706   5.202
25122W        W96651  15.819  30.484   2.802
25123W        W96652  16.672   2.636  13.750
25124W        W96653  16.112  39.470   2.424
25125W        W96654  42.332   6.731   1.708
25126W        W96655  29.492  18.828   4.349
25127W        W96656  32.371   9.831   4.097
25128W        W96657  35.546  20.137   2.235
25129W        W96658  38.672   9.480   0.953
25130W        W96659  29.350  31.568   1.783
25131W        W96660  40.815  35.093  12.708
25132W        W96661  25.525   7.909   4.085
25133W        W96662  26.608  14.101  11.122
25134W        W96663   4.886  11.647   4.034
25135W        W96664  37.888  17.342   4.701
25136W        W96665  11.899  26.587   2.893
25137W        W96666  20.773  32.961  11.412
25138W        W96667  15.597  16.430  11.332
25139W        W96668  26.952  40.643   0.882
25140W        W96669  15.190  20.971  12.068
25141W        W96670  44.503  23.206   2.936
25142W        W96671  13.678  41.314   1.474
25143W        W96672  39.423  29.202   5.028
25144W        W96673  43.908  10.478   4.599
25145W        W96674  23.153  35.517  12.545
25146W        W96675  13.680  19.225   0.017
25147W        W96676  20.143  27.442  10.566
25148W        W96677  32.031   3.798  14.633
25149W        W96678  34.563  10.707   2.343
25150W        W96679  11.017  19.973  11.062
25151W        W96680  39.519  41.343   1.288
25152W        W96681  38.630  17.647   0.643
25153W        W96682  44.544  41.045   4.249
25154W        W96683  28.098  24.989   9.815
25155W        W96684  44.861  44.411   4.687
25156W        W96685  32.283  32.858  13.284
25157W        W96686  37.352   3.451  14.328
25158W        W96687  43.836  26.337   0.333
25159W        W96688  36.383  44.868  10.691
25160W        W96689  23.060  37.713  13.953
25161W        W96690  28.666  31.492   4.614
25162W        W96691  41.989  17.805   3.692
25163W        W96692  20.476  21.582  10.704
25164W        W96693  30.215  32.153   0.324
25165W        W96694  31.599  39.834  14.756
25166W        W96695  19.926  20.760  14.759
25167W        W96696  26.067  20.549  11.539
25168W        W96697  35.549   2.451  13.820
25169W        W96698  37.161  33.153   3.792
25170W        W96699  18.901   9.119  12.080
25171W        W96700   4.465  35.434   1.758
25172W        W96701  44.616  25.813   4.183
25173W        W96702  31.643  42.594  10.582
25174W        W96703   9.492  18.774   2.904
25175W        W96704   6.249  11.057  11.076
25176W        W96705   9.728  18.341   4.659
25177W        W96706   5.898  25.371   0.890
25178W        W96707  34.993  32.052  10.683
25179W        W96708   1.667  14.396   3.162
25180W        W96709  18.508  23.986  12.074
25181W        W96710  20.543  20.636   0.252
25182W        W96711   6.777  40.755   3.447
25183W        W96712  34.614  43.379  11.542
25184W        W96713  38.930  38.337   0.254
25185W        W96714  38.942  13.952  11.956
25186W        W96715  35.017  23.721   3.714
25187W        W96716   0.472   7.964  11.209
25188W        W96717  40.096  26.344  10.236
25189W        W96718  14.064  17.443   1.782
25190W        W96719   7.624  12.577  13.987
25191W        W96720  39.473  12.563   0.732
25192W        W96721  32.970  28.154  13.314
25193W        W96722   7.458  16.661   4.370
25194W        W96723  40.151  16.025   4.311
25195W        W96724  24.879   3.672   2.356
25196W        W96725  41.031  14.256   3.161
25197W        W96726  24.223  21.526  14.109
25198W        W96727  31.780  11.241   4.381
25199W        W96728  13.903  18.850   1.902
25200W        W96729  14.073  18.098  12.594
25201W        W96730  17.606  36.361  13.481
25202W        W96731   7.148  38.005  13.077
25203W        W96732  21.209  29.185  13.348
25204W        W96733  24.706  35.864  13.925
25205W        W96734  25.717  20.119  12.929
25206W        W96735  25.425  30.529  14.117
25207W        W96736  28.899   1.452   3.265
25208W        W96737  14.439  18.760   4.252
25209W        W96738  31.119  39.306  14.616
25210W        W96739  14.894  12.463  11.118
25211W        W96740  28.387  37.690   1.925
25212W        W96741  15.756  35.355   2.096
25213W        W96742  31.918   7.244  12.007
25214W        W96743  23.581  39.256  13.253
25215W        W96744  42.049  11.699   1.857
25216W        W96745   0.036  20.088  11.067
25217W        W96746  40.853  24.577  13.305
25218W        W96747  17.496   3.101   3.307
25219W        W96748  30.817   5.795   2.624
25220W        W96749  30.686  39.866  11.543
25221W        W96750  12.324  22.580  12.383
25222W        W96751  25.722  43.319   2.301
25223W        W96752  42.722  31.173  13.466
25224W        W96753  41.354  15.347   1.912
25225W        W96754  25.981   2.199  11.481
25226W        W96755  17.718  17.995  14.954
25227W        W96756  15.756  23.303   2.363
25228W        W96757  11.770  28.510   3.766
25229W        W96758   4.551  25.124   1.458
25230W        W96759  33.278  20.686   3.484
25231W        W96760   1.278  11.882  12.649
25232W        W96761   7.603   6.286   4.172
25233W        W96762  25.493   6.617   0.830
25234W        W96763  37.306  22.124   3.222
25235W        W96764  35.939  29.548  10.656
25236W        W96765  29.806  44.997  12.619
25237W        W96766   7.944   9.987  14.000
25238W        W96767  22.691  26.766   4.866
25239W        W96768  10.058  19.448   4.282
25240W        W96769  38.776  21.760  11.532
25241W        W96770   8.234  16.082  12.823
25242W        W96771  21.140  39.234   0.596
25243W        W96772  24.933  11.325  14.717
25244W        W96773  33.510  18.532  13.810
25245W        W96774  43.546  21.608  10.861
25246W        W96775  33.654  14.067  11.005
25247W        W96776  38.054  33.527  14.522
25248W        W96777   6.653  24.096  13.201
25249W        W96778   0.798  37.408  10.770
25250W        W96779  22.649   6.328  13.845
25251W        W96780  29.230   2.995   4.362
25252W        W96781  13.864  44.708   0.198
25253W        W96782  39.368  33.141   3.660
25254W        W96783  18.473   1.178   1.324
25255W        W96784   9.044  22.054  10.077
25256W        W96785   2.625  43.446   0.468
25257W        W96786  39.872  23.526   1.870
25258W        W96787  41.017  18.121   0.334
25259W        W96788   0.422  21.771   4.731
25260W        W96789  22.073  28.960  10.738
25261W        W96790  41.487  42.974   3.842
25262W        W96791  28.490  15.317  10.694
25263W        W96792  33.137  37.459  12.049
25264W        W96793  41.573   3.790   1.277
25265W        W96794  27.398  28.809  12.008
25266W        W96795  19.226  32.910  14.471
25267W        W96796  13.360  22.695  12.709
25268W        W96797  33.672  32.969   4.190
25269W        W96798  16.092  13.421  14.062
25270W        W96799  27.377  22.763   1.658
25271W        W96800  40.510  37.356   2.696
25272W        W96801  10.136   1.253  13.494
25273W        W96802  28.338  13.124  13.984
25274W        W96803  25.762  17.915  13.861
25275W        W96804  19.251  19.516   0.309
25276W        W96805  10.739  12.843   1.643
25277W        W96806  29.779  32.121   3.120
25278W        W96807  29.097  27.021   2.687
25279W        W96808  22.190  17.097  13.361
25280W        W96809  40.645  18.044  10.567
25281W        W96810   7.880   4.445  13.140
25282W        W96811  37.477  24.227  14.881
25283W        W96812   4.521  11.444   2.299
25284W        W96813  42.851  29.139   3.292
25285W        W96814  35.470  19.130   1.875
25286W        W96815  19.753  21.536   0.346
25287W        W96816  11.268  32.972   1.160
25288W        W96817  40.144  22.754  12.995
25289W        W96818  38.448   7.931  10.740
25290W        W96819   9.216  40.978  11.734
25291W        W96820  39.430  16.086   1.741
25292W        W96821  44.513   8.471  11.167
25293W        W96822  37.562  38.077   0.311
25294W        W96823  41.333  22.661   3.483
25295W        W96824  13.851  35.122  11.176
25296W        W96825  35.105  32.352   2.301
25297W        W96826   6.205  12.253   0.724
25298W        W96827  38.413  19.673  11.067
25299W        W96828  11.495   9.186  14.813
25300W        W96829   3.142  31.831   4.533
25301W        W96830  29.955  29.896  14.039
25302W        W96831  18.102  43.209  12.090
25303W        W96832   0.824  31.662   2.350
25304W        W96833   5.143  19.706  11.968
25305W        W96834  14.879  38.073   4.132
25306W        W96835  28.638  13.378   2.675
25307W        W96836   9.666  30.361   4.262
25308W        W96837  40.555  15.343  10.713
25309W        W96838   1.773  18.915   2.605
25310W        W96839   5.280  17.464  11.221
25311W        W96840  34.604  22.527  12.390
25312W        W96841   7.940  10.273  13.555
25313W        W96842  44.842  38.388  12.527
25314W        W96843  12.873  42.495   1.890
25315W        W96844  13.397  36.239  13.831
25316W        W96845  39.741  25.040  12.654
25317W        W96846  25.933  33.337   0.740
25318W        W96847  16.275  10.535  12.320
25319W        W96848   8.193  11.422  13.610
25320W        W96849   0.183  24.618   3.171
25321W        W96850  10.227  31.351  13.094
25322W        W96851  40.393  44.187  11.172
25323W        W96852   3.369  15.367  14.910
25324W        W96853  14.674  20.610   0.469
25325W        W96854  18.754   7.950  12.156
25326W        W96855  15.518   2.741   3.289
25327W        W96856   1.624  16.249   4.842
25328W        W96857   5.887   9.792   4.168
25329W        W96858  37.189  26.685   3.814
25330W        W96859  27.616   2.056   0.075
25331W        W96860   2.796   0.448  11.537
25332W        W96861   8.882  13.608   1.207
25333W        W96862   0.238  38.766  11.064
25334W        W96863   1.315  30.925   2.622
25335W        W96864  23.800  29.546   1.711
25336W        W96865  27.933   1.334  14.384
25337W        W96866  30.994   2.845  11.899
25338W        W96867  35.131   7.774   0.877
25339W        W96868  28.078   0.234   2.397
25340W        W96869  13.002  40.371  13.841
25341W        W96870  24.192  11.367  14.010
25342W        W96871  12.755  25.186  10.602
25343W        W96872  31.472   2.752   2.220
25344W        W96873  20.329  25.013   3.205
25345W        W96874  17.324  15.095   3.700
25346W        W96875  16.204  11.130   2.308
25347W        W96876  38.819  42.139  12.889
25348W        W96877   3.390  15.550   3.701
25349W        W96878   9.627  13.819  12.614
25350W        W96879  24.371  28.556   3.701
25351W        W96880  38.117   1.566   3.562
25352W        W96881  43.285  33.331   2.208
25353W        W96882  33.062  12.506  13.506
25354W        W96883   1.456  33.719  12.565
25355W        W96884  31.047  40.021  12.653
25356W        W96885  18.211  10.757  12.996
25357W        W96886   2.671  14.626  12.807
25358W        W96887   2.799  33.387  10.962
25359W        W96888  24.971  32.755  12.458
25360W        W96889  20.021  40.590  10.357
25361W        W96890  13.567   3.336   4.147
25362W        W96891   8.719  14.646  13.476
25363W        W96892  23.053  20.810   1.173
25364W        W96893  18.048  32.596   4.694
25365W        W96894   4.315  32.540   0.848
25366W        W96895   1.291   9.489   4.661
25367W        W96896   0.276  27.693  14.443
25368W        W96897   3.789  31.489   0.276
25369W        W96898  15.039  39.383   2.143
25370W        W96899  28.049  19.080   4.258
25371W        W96900  14.128  24.316  12.675
25372W        W96901  32.108  30.950  10.505
25373W        W96902  14.580  16.108   1.801
25374W        W96903  14.521  43.807  10.383
25375W        W96904  22.125  27.848   4.329
25376W        W96905  30.384  18.345  13.598
25377W        W96906  35.935  17.751  13.118
25378W        W96907   7.869  14.868   1.006
25379W        W96908  31.047  22.596   1.913
25380W        W96909  22.537   9.735  14.935
25381W        W96910   7.267   3.969   4.540
25382W        W96911  14.591  11.369  13.299
25383W        W96912  30.421  25.904   1.670
25384W        W96913  26.647  14.108   2.184
25385W        W96914  17.563  39.578   4.689
25386W        W96915  26.385  41.918  13.875
25387W        W96916  41.244  22.264  10.803
25388W        W96917  37.867  26.058  14.731
25389W        W96918  22.732   2.979   1.763
25390W        W96919  25.639  34.905   3.859
25391W        W96920   4.901  22.519  11.153
25392W        W96921  36.991  27.063   4.125
25393W        W96922  13.837  28.358   0.729
25394W        W96923   6.249  38.953   2.182
25395W        W96924  14.285   8.628   4.277
25396W        W96925  39.830   2.323   3.217
25397W        W96926   5.337  43.902  10.710
25398W        W96927  18.952  42.010  13.438
25399W        W96928  44.409  13.230  12.884
25400W        W96929  31.859  41.690   1.355
25401W        W96930  23.094   5.802  12.947
25402W        W96931   3.207  13.839   1.770
25403W        W96932  27.128  11.214   2.161
25404W        W96933  22.064  14.356   1.221
25405W        W96934  18.835  28.236  10.213
25406W        W96935   7.683  35.407  14.795
25407W        W96936   4.719  39.455  12.075
25408W        W96937  10.983   8.701  11.046
25409W        W96938  27.082  37.031   1.870
25410W        W96939   6.370  11.260  13.481
25411W        W96940  40.422  17.565   4.821
25412W        W96941  25.472  32.697   0.005
25413W        W96942   5.990  39.108  13.418
25414W        W96943  42.572   1.833  13.761
25415W        W96944  13.737  34.973  11.673
25416W        W96945  20.229  19.616   4.846
25417W        W96946  10.295  24.513  12.385
25418W        W96947  13.786  15.244   2.742
25419W        W96948   2.416   7.206   0.756
25420W        W96949  25.401  42.415   1.991
25421W        W96950   5.093  14.995   9.965
25422W        W96951  37.524  32.959   2.609
25423W        W96952  16.176  44.663   2.223
25424W        W96953   0.061  14.745  10.928
25425W        W96954   6.209  39.251  11.716
25426W        W96955   1.184  10.417   4.590
25427W        W96956   9.311  27.604   0.413
25428W        W96957  32.252  11.172   3.427
25429W        W96958  29.107  20.346   2.404
25430W        W96959  34.913  41.970   0.759
25431W        W96960   5.300  12.061  13.368
25432W        W96961  44.744  26.486   3.236
25433W        W96962  37.078  32.906  12.550
25434W        W96963  14.794   2.055  11.918
25435W        W96964  19.878  11.221   3.881
25436W        W96965   4.573  12.769   5.124
25437W        W96966  21.672  17.635   1.706
25438W        W96967  30.591  37.152   0.933
25439W        W96968  26.126  14.481  14.425
25440W        W96969  43.154  37.042   4.170
25441W        W96970  26.543  27.148  14.848
25442W        W96971  19.165  18.524  13.962
25443W        W96972  26.375  19.163   1.657
25444W        W96973  33.897  14.137  13.992
25445W        W96974   9.126   0.662   3.614
25446W        W96975   0.194  24.756   1.826
25447W        W96976  39.008   4.979  10.539
25448W        W96977  32.844  34.955  11.593
25449W        W96978  18.102  25.409   1.658
25450W        W96979   4.866   0.454  10.709
25451W        W96980   4.696  23.666  10.175
25452W        W96981  29.023  32.685   1.353
25453W        W96982  22.676  31.423   1.556
25454W        W96983  42.449   6.157   2.419
25455W        W96984  27.489   4.342  11.650
25456W        W96985  28.625  29.084  12.372
25457W        W96986  35.353   1.289   0.948
25458W        W96987  23.275  15.368   0.980
25459W        W96988  24.740  31.072   1.124
25460W        W96989  37.369  10.425  12.745
25461W        W96990   1.814  13.622  12.170
25462W        W96991   0.892  16.109  11.354
25463W        W96992  42.394  41.609   3.862
25464W        W96993  30.508   6.036  12.994
25465W        W96994  28.436  19.571  14.069
25466W        W96995  41.830  43.157   4.590
25467W        W96996  38.064   5.430  12.604
25468W        W96997  18.865  10.864   3.165
25469W        W96998  12.065  28.128  12.883
25470W        W96999  16.397  32.514   2.455
25471W        W97000  11.659  18.213   3.358
25472W        W97001  11.374  26.745  11.329
25473W        W97002   9.919  19.664   3.341
25474W        W97003   4.659  31.847   4.544
25475W        W97004  11.780   1.830   4.708
25476W        W97005  18.723  15.069  13.157
25477W        W97006   0.750  24.875  14.880
25478W        W97007  17.747  37.903   2.290
25479W        W97008  37.820  20.891  11.008
25480W        W97009   5.679  27.909  14.605
25481W        W97010  18.869  39.754   3.646
25482W        W97011  15.039  28.643   4.330
25483W        W97012  40.022  43.529   2.765
25484W        W97013   7.224  41.964   0.034
25485W        W97014  25.495  41.976   3.606
25486W        W97015  30.341  42.818   2.383
25487W        W97016  29.701  28.070   4.600
25488W        W97017  27.159   9.763   1.294
25489W        W97018  23.881   7.494  12.531
25490W        W97019   6.001   4.199   4.097
25491W        W97020  36.502  28.631  12.070
25492W        W97021  37.652  35.115   1.043
25493W        W97022  12.242  18.871  14.010
25494W        W97023  39.758  32.555  13.037
25495W        W97024  29.383  26.466   2.400
25496W        W97025  34.435  31.213   0.850
25497W        W97026  37.328   5.672  11.549
25498W        W97027   0.943  16.672  10.908
25499W        W97028  20.249  37.547  11.542
25500W        W97029   6.808  11.977   3.358
25501W        W97030  41.356  31.419  11.052
25502W        W97031   1.847  19.295  13.505
25503W        W97032  25.889  37.520  10.761
25504W        W97033  11.564  33.895  14.458
25505W        W97034  41.019   7.456  14.943
25506W        W97035  34.059  41.118   4.107
25507W        W97036  15.724  16.190  10.570
25508W        W97037  17.243  41.431  12.365
25509W        W97038   8.165  10.745   2.662
25510W        W97039  28.479  34.358   3.385
25511W        W97040  29.141  33.317   3.772
25512W        W97041   8.977  34.286  13.027
25513W        W97042   0.746  38.561  12.179
25514W        W97043  41.589  43.178  11.990
25515W        W97044   3.395  43.981  11.958
25516W        W97045  34.002  18.179  14.497
25517W        W97046  15.673   6.202   3.323
25518W        W97047  24.666  39.203   0.946
25519W        W97048  29.527  43.795   1.491
25520W        W97049  24.182  34.914  11.641
25521W        W97050   1.232  42.974   2.111
25522W        W97051  42.379  15.396  11.636
25523W        W97052   2.720  36.036   4.641
25524W        W97053  34.160  12.394   4.211
25525W        W97054  31.944  42.129   4.092
25526W        W97055  22.001   4.671   4.090
25527W        W97056  20.763  38.626  13.857
25528W        W97057  14.012  25.048  14.519
25529W        W97058   6.307  16.140  13.077
25530W        W97059  15.739  34.624   4.820
25531W        W97060  12.992  44.871  11.465
25532W        W97061  33.022  21.879   1.018
25533W        W97062  20.243  25.430  14.368
25534W        W97063  43.457  11.765  11.341
25535W        W97064  15.185  43.748  14.893
25536W        W97065  24.069  17.792   1.252
25537W        W97066  14.925  15.253  12.998
25538W        W97067  14.983  30.869   1.807
25539W        W97068  16.566  30.849   2.287
25540W        W97069   2.649  34.187   2.679
25541W        W97070  25.724   6.361  13.533
25542W        W97071  33.956  18.174  10.896
25543W        W97072   4.932  32.106   2.924
25544W        W97073  30.978  23.824  11.938
25545W        W97074  26.464  15.249  10.695
25546W        W97075  11.584   8.893   1.865
25547W        W97076  20.660  11.724  14.466
25548W        W97077  44.813  26.214   3.928
25549W        W97078  31.863  25.586  13.539
25550W        W97079   6.187  38.154  10.998
25551W        W97080   7.886  41.590   3.775
25552W        W97081  29.660  40.035  10.709
25553W        W97082  34.462   1.809   4.018
25554W        W97083  30.151  42.960   2.900
25555W        W97084  34.430   1.360   4.280
25556W        W97085  11.755  22.741  11.889
25557W        W97086  37.022  16.208  13.778
25558W        W97087   5.894  26.954  14.360
25559W        W97088  13.647  34.944   0.030
25560W        W97089  28.922  21.813   1.250
25561W        W97090  28.773  25.304   4.635
25562W        W97091  31.440  26.722   0.563
25563W        W97092   4.236  41.499   0.968
25564W        W97093  30.899  16.178   0.425
25565W        W97094   2.818  28.706   4.365
25566W        W97095  19.937   0.085  12.505
25567W        W97096  27.835  32.487   2.269
25568W        W97097  36.043  11.627   0.312
25569W        W97098  32.376  44.486  14.432
25570W        W97099  42.752  37.884  12.032
25571W        W97100  17.431  11.778   4.889
25572W        W97101  16.794  33.438  12.696
25573W        W97102  40.343  14.428   0.254
25574W        W97103   2.523  13.690   2.221
25575W        W97104  23.651  11.195   1.640
25576W        W97105  20.545   2.189  12.052
25577W        W97106  39.033  24.487   0.242
25578W        W97107  16.844  11.066  12.918
25579W        W97108  34.577  17.267   3.361
25580W        W97109  35.115  43.438  11.654
25581W        W97110  14.896   6.189   2.980
25582W        W97111  35.586  43.498   0.918
25583W        W97112  34.123  21.688   0.757
25584W        W97113  21.072  17.592   0.815
25585W        W97114   3.484  13.405   1.891
25586W        W97115   7.475  21.847  14.500
25587W        W97116  24.775  36.449  11.236
25588W        W97117   9.641  31.855  12.411
25589W        W97118  23.646  18.624  10.690
25590W        W97119  16.552   0.942   1.929
25591W        W97120  30.493   0.475  14.008
25592W        W97121  25.508   4.953  14.779
25593W        W97122  44.968  11.965   0.233
25594W        W97123   4.073  20.229  13.734
25595W        W97124  20.386  41.923  14.097
25596W        W97125  25.133  40.018   2.170
25597W        W97126  21.366  14.167  12.740
25598W        W97127   2.398  38.517   4.091
25599W        W97128  13.537  24.251  11.216
25600W        W97129  33.981  28.561  14.264
25601W        W97130   3.673  33.738  11.525
25602W        W97131  31.986  26.214   2.250
25603W        W97132  44.642  30.922   2.244
25604W        W97133  38.631  44.364   0.266
25605W        W97134  39.323  43.541   3.245
25606W        W97135  41.338   2.248   4.106
25607W        W97136  15.945  36.534  11.495
25608W        W97137  26.732   8.808  13.806
25609W        W97138  27.991  36.736  13.995
25610W        W97139  23.711  30.619   4.078
25611W        W97140   0.972  18.974   3.916
25612W        W97141  30.106  31.222   0.418
25613W        W97142  41.238  36.854   1.358
25614W        W97143  29.329  23.489  13.438
25615W        W97144   4.455  10.211  13.150
25616W        W97145  23.317  37.426   4.478
25617W        W97146  19.343  41.566  14.744
25618W        W97147  36.052  39.948  14.511
25619W        W97148  25.682  43.288  13.918
25620W        W97149  19.128  21.641  10.542
25621W        W97150  12.318  24.453   1.880
25622W        W97151  44.488  32.407   0.875
25623W        W97152  33.853  41.572  12.309
25624W        W97153  22.702   7.844   1.613
25625W        W97154  37.787  34.023   1.192
25626W        W97155  11.187  30.552   0.188
25627W        W97156  41.967  44.263   4.666
25628W        W97157  11.308  11.333   1.266
25629W        W97158   6.652   5.938   0.355
25630W        W97159  38.608  37.391   1.763
25631W        W97160   3.918  30.615  10.556
25632W        W97161   3.354  26.468  11.597
25633W        W97162  11.716  44.863  12.767
25634W        W97163  38.033  28.319   0.193
25635W        W97164   9.654  24.920  10.700
25636W        W97165   6.416  35.077   2.254
25637W        W97166   6.902  28.675  12.861
25638W        W97167  26.041  10.464   4.325
25639W        W97168  21.489  41.379   2.139
25640W        W97169  31.250   0.970   0.301
25641W        W97170  25.219  28.025   1.419
25642W        W97171  22.462  22.995   0.375
25643W        W97172   4.706  39.337  12.566
25644W        W97173  25.722   1.582  11.384
25645W        W97174  34.509   1.906  14.883
25646W        W97175  25.654  27.000  14.211
25647W        W97176  40.520  10.795   4.717
25648W        W97177  39.385  42.442  10.645
25649W        W97178  33.902  19.322  10.729
25650W        W97179   6.359  22.196   2.297
25651W        W97180  34.365   2.942  11.750
25652W        W97181  15.869   5.299  11.980
25653W        W97182  14.604  30.021   0.990
25654W        W97183  22.127  14.704  12.683
25655W        W97184  14.998  25.297  14.402
25656W        W97185  14.565  37.333  10.895
25657W        W97186   2.322  34.924   2.349
25658W        W97187  32.531  27.753   1.315
25659W        W97188  20.702   4.206   3.353
25660W        W97189   8.448  10.841   4.549
25661W        W97190   1.179  44.740   3.173
25662W        W97191  16.971  26.121  14.954
25663W        W97192  25.976  13.950   4.953
25664W        W97193  29.008  11.833   4.605
25665W        W97194  12.259  35.199   1.269
25666W        W97195  38.950  29.594  10.030
25667W        W97196  40.359  25.840   4.603
25668W        W97197  33.414  40.767  14.937
25669W        W97198  30.645   4.349  10.769
25670W        W97199   4.299  44.033   0.758
25671W        W97200  34.099  14.597  13.049
25672W        W97201   1.812   4.223  13.299
25673W        W97202   9.163   4.567  12.866
25674W        W97203  17.043   0.449   4.642
25675W        W97204  32.520  13.987   5.169
25676W        W97205   5.623  33.585  13.881
25677W        W97206   5.423  41.678  14.907
25678W        W97207  39.909  37.823   4.977
25679W        W97208   7.905  39.478  14.301
25680W        W97209  31.534   6.895  11.193
25681W        W97210   2.475  15.086  11.900
25682W        W97211  21.608  13.095   4.163
25683W        W97212  38.977  16.318   1.357
25684W        W97213  26.166  44.499   2.104
25685W        W97214  29.634  25.015   4.917
25686W        W97215   0.340  39.769   3.331
25687W        W97216   2.238   7.205  10.839
25688W        W97217  44.479   0.506   3.811
25689W        W97218  30.313  34.339  13.352
25690W        W97219  24.505  34.104   1.860
25691W        W97220  43.021  31.896  12.415
25692W        W97221  29.757  26.475  14.250
25693W        W97222  28.202   2.721  10.392
25694W        W97223  21.031  28.538   3.035
25695W        W97224  27.470  22.444  11.685
25696W        W97225  38.224  16.696   3.018
25697W        W97226  39.420  39.115   0.163
25698W        W97227   7.203  12.849   0.172
25699W        W97228  41.987  27.493   3.801
25700W        W97229  25.023   7.927  11.849
25701W        W97230   5.855  25.009  11.898
25702W        W97231  41.492  20.690   2.789
25703W        W97232  16.343  23.600  11.752
25704W        W97233  22.728  21.279   5.010
25705W        W97234  36.848  12.662  12.018
25706W        W97235  32.492  22.436   1.420
25707W        W97236   9.419  35.875  14.904
25708W        W97237  43.501  28.589  10.677
25709W        W97238   2.734  13.972  13.485
25710W        W97239  23.563   2.166  13.678
25711W        W97240   2.751  17.908  14.912
25712W        W97241  11.853  30.463   0.699
25713W        W97242  13.675  38.360   1.413
25714W        W97243  29.487  12.328  14.945
25715W        W97244  43.315   2.826   1.812
25716W        W97245   8.293  12.701  14.407
25717W        W97246   6.465   7.310   4.174
25718W        W97247  42.379  31.580  13.570
25719W        W97248  12.387  32.778   0.712
25720W        W97249   6.631   3.245  12.454
25721W        W97250  27.645  35.478   3.695
25722W        W97251   1.419  24.210  13.769
25723W        W97252  31.018  41.512   2.669
25724W        W97253  42.576  22.102  14.814
25725W        W97254  15.830  36.457   4.011
25726W        W97255  32.193   3.924   0.456
25727W        W97256  31.084  21.908  14.382
25728W        W97257  16.469  40.821   1.329
25729W        W97258  25.065  28.980   4.112
25730W        W97259  36.281  36.052  10.092
25731W        W97260  19.108   0.328  14.477
25732W        W97261  19.230  10.201  13.484
25733W        W97262  23.515  11.203  10.643
25734W        W97263  39.388  13.229   1.234
25735W        W97264  28.829  22.864  10.765
25736W        W97265   8.336  38.082  10.451
25737W        W97266   3.915  36.600   0.353
25738W        W97267  26.548   6.142  10.639
25739W        W97268   5.172   7.432  13.031
25740W        W97269  13.619  17.373  11.113
25741W        W97270  29.160  14.893  12.564
25742W        W97271  29.936  22.091  10.895
25743W        W97272   0.208  10.904  12.377
25744W        W97273  23.551  39.647  12.028
25745W        W97274  24.738  33.517  12.529
25746W        W97275  18.579  41.904  13.059
25747W        W97276  40.441  42.491  11.940
25748W        W97277  11.069  15.241  14.942
25749W        W97278   5.937   9.252   2.448
25750W        W97279  27.579  37.793  12.439
25751W        W97280  21.462  37.869  12.382
25752W        W97281  33.551  38.704  14.978
25753W        W97282  30.091  27.253   4.121
25754W        W97283  18.291   4.050  11.627
25755W        W97284  16.719  41.296   1.273
25756W        W97285  16.062  12.921  11.145
25757W        W97286   7.815  23.328   4.455
25758W        W97287  22.160  37.617   4.250
25759W        W97288  42.853   7.233   1.222
25760W        W97289  30.373  37.615   0.875
25761W        W97290  16.134  34.343   1.516
25762W        W97291  34.614   3.462   0.189
25763W        W97292  38.679   5.879  10.458
25764W        W97293   0.308  42.323  14.519
25765W        W97294   1.087  28.564   4.029
25766W        W97295  24.126  33.368   0.216
25767W        W97296  37.290  10.176   4.524
25768W        W97297  31.308  24.354   3.219
25769W        W97298  36.659  31.631  14.270
25770W        W97299  43.283   0.016  14.795
25771W        W97300  35.553  42.731   1.415
25772W        W97301  13.107  31.813  12.925
25773W        W97302   2.476  40.219   2.113
25774W        W97303  34.447  27.503   1.410
25775W        W97304   2.450  28.253   3.108
25776W        W97305  30.008  17.815   4.446
25777W        W97306  10.725   7.195  12.617
25778W        W97307  18.827  28.217   0.912
25779W        W97308  35.634  26.006   0.594
25780W        W97309  29.915  24.144  14.976
25781W        W97310  19.168  17.560   0.024
25782W        W97311  17.323  44.290   2.482
25783W        W97312  44.361  43.089   4.605
25784W        W97313  27.054  44.245  11.534
25785W        W97314  30.844  24.992  14.866
25786W        W97315  15.459  19.720   3.913
25787W        W97316  41.680  28.330  11.836
25788W        W97317  10.748  25.147  14.099
25789W        W97318  20.928  15.860   4.076
25790W        W97319  19.750   0.962  14.056
25791W        W97320  11.168   9.880  13.820
25792W        W97321   3.618  39.134   1.573
25793W        W97322  11.745  21.415  14.347
25794W        W97323  16.796  37.504   0.393
25795W        W97324  42.392  33.399   0.828
25796W        W97325  27.130  20.489   2.653
25797W        W97326  27.161  17.820   4.621
25798W        W97327  23.953  11.577   3.428
25799W        W97328   3.241   1.368   0.525
25800W        W97329  19.039   9.245   0.938
25801W        W97330  15.342  44.921  12.494
25802W        W97331  27.302  32.577   2.280
25803W        W97332  27.779   7.230   2.735
25804W        W97333  39.398  16.236   2.752
25805W        W97334  44.321   9.454  13.418
25806W        W97335  12.626   1.257  14.939
25807W        W97336  30.939  28.752  11.074
25808W        W97337  14.320  43.748   4.145
25809W        W97338   2.004  27.879  12.697
25810W        W97339  16.061  24.732  14.195
25811W        W97340  29.202  25.606   4.585
25812W        W97341  16.704   6.880  14.988
25813W        W97342  44.065  18.737  11.088
25814W        W97343  22.246  21.769  14.497
25815W        W97344   5.804  38.561   2.829
25816W        W97345  33.089  37.293   2.792
25817W        W97346  16.395  12.115  10.204
25818W        W97347  41.472  21.567   3.166
25819W        W97348  32.109  28.541   4.220
25820W        W97349  20.021  18.599   0.311
25821W        W97350  22.590  24.060   3.347
25822W        W97351  33.420  26.514   3.660
25823W        W97352  42.011  11.932   2.314
25824W        W97353   5.360  37.056   0.862
25825W        W97354  14.286  24.334   1.661
25826W        W97355  30.036  35.918  14.508
25827W        W97356  18.034  32.076   4.113
25828W        W97357   9.431  10.410  11.420
25829W        W97358   3.213  22.225   0.839
25830W        W97359  40.808  33.700  10.335
25831W        W97360   0.350  15.567   1.711
25832W        W97361  18.847  15.596   1.266
25833W        W97362  20.529  12.644   2.239
25834W        W97363  19.284   3.663   0.233
25835W        W97364   4.362  32.226   0.462
25836W        W97365  37.643  39.801  11.537
25837W        W97366  11.846   9.234  11.637
25838W        W97367  12.377  41.967  14.798
25839W        W97368  10.232  16.510  14.559
25840W        W97369  33.766  44.780  14.971
25841W        W97370  29.422  12.909  14.360
25842W        W97371  42.089  23.403   0.752
25843W        W97372  14.207  16.754  11.949
25844W        W97373  30.146  18.109   1.462
25845W        W97374  26.553  22.085   2.616
25846W        W97375  15.434  43.545  12.812
25847W        W97376  38.286  18.129   0.233
25848W        W97377  23.147   7.455   1.713
25849W        W97378  36.596  42.935  12.469
25850W        W97379  17.692  42.839   0.298
25851W        W97380  10.629  37.281   4.013
25852W        W97381  20.282  17.747  13.342
25853W        W97382  26.531   4.022   2.865
25854W        W97383  23.622  32.456   1.240
25855W        W97384   4.303  34.075  14.056
25856W        W97385   7.639  19.561  12.606
25857W        W97386  17.551   1.787   1.902
25858W        W97387  41.000  18.383  13.306
25859W        W97388  19.491   7.875  13.832
25860W        W97389  18.171  31.438  12.904
25861W        W97390  29.924   9.688  14.477
25862W        W97391  12.743   8.544  12.935
25863W        W97392  25.126  17.458  12.577
25864W        W97393  17.499  28.167   1.307
25865W        W97394  35.678   9.379  14.935
25866W        W97395  28.225  23.667  11.951
25867W        W97396  39.616  43.879   2.328
25868W        W97397   5.800   7.798  14.800
25869W        W97398  36.935  18.463   4.240
25870W        W97399   8.805  16.054  10.668
25871W        W97400   9.620   9.227   4.929
25872W        W97401  37.835   2.226   0.915
25873W        W97402   2.011   5.311  11.226
25874W        W97403  29.012   4.396   1.145
25875W        W97404  29.000   4.368  14.667
25876W        W97405   8.994  12.099  11.100
25877W        W97406  36.650  19.090  11.656
25878W        W97407  34.449   6.917  13.737
25879W        W97408  15.001  36.345   2.687
25880W        W97409   6.100   3.170  12.411
25881W        W97410  36.215  40.755   2.804
25882W        W97411   3.354  23.606  13.837
25883W        W97412  32.570  40.217  14.567
25884W        W97413  27.225  18.585   1.383
25885W        W97414  44.931  10.195  13.573
25886W        W97415  23.906   1.820   3.425
25887W        W97416  24.554   1.501   0.126
25888W        W97417   2.627  10.284   1.290
25889W        W97418  20.145  26.978  14.305
25890W        W97419  30.510  43.230  13.459
25891W        W97420  29.075  12.385   3.298
25892W        W97421  31.725  10.275   0.358
25893W        W97422  36.348  28.609  10.735
25894W        W97423   6.279  18.612  12.885
25895W        W97424  10.697   5.726   0.273
25896W        W97425   5.179  38.367   4.583
25897W        W97426  10.667  11.451   3.648
25898W        W97427   1.376  32.046   1.694
25899W        W97428  29.629   9.313  12.599
25900W        W97429  15.827   1.893  12.391
25901W        W97430  26.163   9.378  13.810
25902W        W97431  42.663  37.451  13.362
25903W        W97432   1.282   7.663  11.669
25904W        W97433   1.490  32.118  13.873
25905W        W97434  10.145  18.054   4.507
25906W        W97435  33.307  17.631   2.316
25907W        W97436  33.046  36.272   2.763
25908W        W97437  20.340  44.497  14.799
25909W        W97438  27.938   3.277   3.558
25910W        W97439  13.149  20.528  14.474
25911W        W97440   8.368  30.695  12.067
25912W        W97441  10.742  39.182  13.063
25913W        W97442  19.784   0.271   4.902
25914W        W97443   3.846  10.431  10.926
25915W        W97444  43.026  33.444  14.536
25916W        W97445  28.397  40.366  13.433
25917W        W97446  10.140  38.077  13.563
25918W        W97447  12.751  10.217  12.576
25919W        W97448  40.713  23.195   1.912
25920W        W97449  29.485  17.981   3.664
25921W        W97450  43.258   9.081  10.439
25922W        W97451  23.019  32.537   3.920
25923W        W97452  42.508  16.936   0.392
25924W        W97453  43.302   1.905   1.137
25925W        W97454   6.208  32.001  12.072
25926W        W97455   8.552  29.640  11.658
25927W        W97456  12.630  23.016  13.029
25928W        W97457  17.287  40.341   3.143
25929W        W97458  22.730  16.833  11.623
25930W        W97459  15.652  14.619   2.356
25931W        W97460  19.777  26.994  11.704
25932W        W97461  31.963  42.092   0.511
25933W        W97462  26.097  29.683   1.382
25934W        W97463  17.745  17.447  11.966
25935W        W97464  15.305  35.024   0.323
25936W        W97465  30.666  39.367  10.756
25937W        W97466  40.968  19.294  14.065
25938W        W97467   1.202  18.000   5.284
25939W        W97468   0.780  25.183   2.682
25940W        W97469   9.435  27.688   1.186
25941W        W97470  44.485   7.863  10.578
25942W        W97471  33.147   8.222   3.369
25943W        W97472   6.258  39.537   3.301
25944W        W97473  34.916  13.678  11.288
25945W        W97474  38.014  11.904  11.947
25946W        W97475  41.916  40.988  11.130
25947W        W97476  10.823  43.219  11.131
25948W        W97477  14.401   5.380  12.954
25949W        W97478   2.382   1.675   3.708
25950W        W97479  35.953   0.709   2.236
25951W        W97480  32.242  13.723  13.271
25952W        W97481  20.545  18.388  14.902
25953W        W97482  18.194  43.533   3.243
25954W        W97483  10.762  11.659   0.178
25955W        W97484  18.047  24.949   1.895
25956W        W97485  34.611  22.027   3.660
25957W        W97486  26.040  24.260   2.645
25958W        W97487  30.852  25.554   2.742
25959W        W97488  24.611   5.643   0.336
25960W        W97489  26.088  19.197   4.522
25961W        W97490  15.132  12.857  13.352
25962W        W97491  31.256  22.644   0.414
25963W        W97492  39.786  33.882  12.442
25964W        W97493  36.979  29.845   3.130
25965W        W97494   8.654  32.499   4.132
25966W        W97495  35.331  37.317  13.066
25967W        W97496   9.215  10.665   1.638
25968W        W97497  43.067  10.888  11.982
25969W        W97498  24.261  17.724  14.065
25970W        W97499  39.899  33.004   4.590
25971W        W97500  35.400  17.807  11.397
25972W        W97501  39.307  21.649  10.603
25973W        W97502  43.417  41.353   4.900
25974W        W97503  32.250  26.903  11.224
25975W        W97504  26.495  36.587  13.374
25976W        W97505  43.718  24.187  11.052
25977W        W97506  17.573   2.306  13.410
25978W        W97507  34.127  28.868   0.836
25979W        W97508   7.914  41.307  13.964
25980W        W97509  41.707   0.524  14.390
25981W        W97510   9.357   3.372  13.819
25982W        W97511  39.304  19.763  11.172
25983W        W97512   0.677  10.312   4.465
25984W        W97513   9.539  30.567  14.330
25985W        W97514   0.474  36.539   3.803
25986W        W97515  22.638  31.976  13.449
25987W        W97516   0.901   3.269  11.532
25988W        W97517  37.490  28.376   0.937
25989W        W97518  21.681  25.624  10.606
25990W        W97519   7.354  31.116   2.839
25991W        W97520  24.021  41.846  11.366
25992W        W97521  10.183  18.534  12.761
25993W        W97522  30.630  17.529   0.760
25994W        W97523  24.661  14.744  11.165
25995W        W97524   9.631  37.414  11.617
25996W        W97525   8.445  42.542  12.063
25997W        W97526   2.421  15.668  14.539
25998W        W97527  36.046  33.937   0.318
25999W        W97528   5.006   7.766  14.501
26000W        W97529  12.339  31.951   1.278
26001W        W97530  35.140  23.107   2.388
26002W        W97531  16.762  15.256   1.586
26003W        W97532  17.331   0.034  12.329
26004W        W97533   7.256   4.531   0.401
26005W        W97534  17.804  34.764  13.459
26006W        W97535   0.824  35.578  10.285
26007W        W97536  33.118  17.698   1.846
26008W        W97537  18.269  20.010  13.191
26009W        W97538  38.917  32.654   3.317
26010W        W97539   0.020   7.519   0.957
26011W        W97540   6.733   7.380  12.084
26012W        W97541  29.324  25.736   9.521
26013W        W97542   2.446  33.773  10.839
26014W        W97543  17.080  28.373  12.020
26015W        W97544  40.548   5.848  13.463
26016W        W97545  25.487   3.951  13.570
26017W        W97546  25.455  21.475   2.692
26018W        W97547  23.833  27.979  14.750
26019W        W97548  41.428  19.130  13.886
26020W        W97549  26.992  41.901  14.517
26021W        W97550  37.392  17.241   4.668
26022W        W97551   0.561  20.535   0.819
26023W        W97552  29.390  34.550  11.984
26024W        W97553  37.540   7.462   3.494
26025W        W97554   2.370  34.381   3.309
26026W        W97555   4.868  26.745  10.580
26027W        W97556  13.586  11.070  12.524
26028W        W97557  36.916  22.175   1.407
26029W        W97558  42.276  27.590   4.631
26030W        W97559   5.277   0.076   0.836
26031W        W97560  14.820   9.022  12.564
26032W        W97561   9.636  14.181   2.375
26033W        W97562  12.284  14.334  12.913
26034W        W97563  34.877  24.119   4.120
26035W        W97564  33.542   2.444  10.723
26036W        W97565  17.536  24.269   2.779
26037W        W97566   7.608   7.755  12.959
26038W        W97567  18.153  26.957   2.646
26039W        W97568  21.284  42.931  12.978
26040W        W97569  13.545  37.803   0.304
26041W        W97570  35.886  25.064   3.063
26042W        W97571  14.078   6.525  13.296
26043W        W97572  22.300  28.161  14.953
26044W        W97573  42.378  26.714   1.413
26045W        W97574   1.024  28.359   0.358
26046W        W97575  13.051  10.172  13.964
26047W        W97576   0.067  42.624   2.723
26048W        W97577  27.544   2.954  11.138
26049W        W97578  43.816   6.844   0.435
26050W        W97579  19.970  27.243   4.552
26051W        W97580  30.534   5.301   1.705
26052W        W97581  17.289  25.626   3.666
26053W        W97582   0.500  16.653  10.646
26054W        W97583  34.785  23.776   9.920
26055W        W97584  38.476  44.819  11.886
26056W        W97585   3.784  44.487   3.394
26057W        W97586  44.698  11.877   2.351
26058W        W97587  30.156  37.944  13.069
26059W        W97588   6.327  26.204   4.275
26060W        W97589  25.524  28.431   1.468
26061W        W97590  44.993  23.376  12.284
26062W        W97591  26.035  20.541  12.931
26063W        W97592  30.799  16.009   3.235
26064W        W97593  34.822  13.189   3.601
26065W        W97594  10.128  35.015   1.892
26066W        W97595  18.585  26.725  10.149
26067W        W97596  32.575  34.860  11.119
26068W        W97597  20.634   5.492  12.996
26069W        W97598   2.357  34.415   2.271
26070W        W97599  37.388  44.014   3.208
26071W        W97600   6.951  22.535   0.153
26072W        W97601  29.951   9.052  12.902
26073W        W97602   5.802  21.088   0.930
26074W        W97603   9.164   2.451   2.190
26075W        W97604  43.290  10.302  14.323
26076W        W97605  14.062  36.549  11.047
26077W        W97606  19.696  32.040   0.429
26078W        W97607  37.949  10.688   3.122
26079W        W97608   3.404  30.943   3.246
26080W        W97609  26.713   5.868   5.109
26081W        W97610   5.436  44.010  14.428
26082W        W97611  11.366  28.911   3.750
26083W        W97612   8.738  31.130  11.579
26084W        W97613  12.809  35.450  10.511
26085W        W97614   4.765  33.969   2.828
26086W        W97615  31.682  44.588  10.742
26087W        W97616  14.803   3.884  12.484
26088W        W97617  20.679  41.006   2.218
26089W        W97618  26.088  40.759  13.430
26090W        W97619  27.908  21.512   2.659
26091W        W97620  15.591  15.795  11.213
26092W        W97621  17.841   2.884   3.743
26093W        W97622  38.591   0.644  10.457
26094W        W97623   6.420  34.313   3.617
26095W        W97624  10.762  15.374   2.797
26096W        W97625  21.479  14.897  12.931
26097W        W97626  32.327   1.931  14.339
26098W        W97627  34.688  15.368  11.084
26099W        W97628  15.591  17.121  12.285
26100W        W97629  13.915  11.823  13.072
26101W        W97630  34.826  27.159  12.385
26102W        W97631  22.047  23.965  13.553
26103W        W97632  28.937  37.428   2.705
26104W        W97633  20.815  16.967  14.379
26105W        W97634  17.283  44.581   0.347
26106W        W97635  14.901   7.833   0.406
26107W        W97636  33.692  27.835   5.453
26108W        W97637  17.270   2.472   4.549
26109W        W97638  20.654  11.702   3.659
26110W        W97639  32.136   2.968  10.443
26111W        W97640   4.489  27.918   2.736
26112W        W97641  18.037  35.465   1.837
26113W        W97642  19.105  30.149   2.908
26114W        W97643   9.796   7.317   3.798
26115W        W97644  18.357   3.485  13.184
26116W        W97645  41.415  27.431  11.579
26117W        W97646  37.565  14.200  12.709
26118W        W97647  11.646  12.162   2.385
26119W        W97648  12.363  26.605  12.881
26120W        W97649  22.549  13.367   3.567
26121W        W97650   9.083  33.033  14.744
26122W        W97651  36.493  17.950  14.400
26123W        W97652  22.974  38.546   1.917
26124W        W97653   8.361  17.807   2.838
26125W        W97654   9.979  10.220   3.658
26126W        W97655  22.432   8.850   4.381
26127W        W97656  20.770   7.372  14.763
26128W        W97657  44.931   4.012  12.503
26129W        W97658  31.435   5.765   5.011
26130W        W97659  34.957  16.851   4.797
26131W        W97660  38.991   2.943   3.065
26132W        W97661  31.378  13.896  13.393
26133W        W97662  38.988   2.799   4.221
26134W        W97663  26.399  23.676  14.514
26135W        W97664  29.421  18.641  11.221
26136W        W97665  14.341   2.694   1.395
26137W        W97666  32.387  33.519  12.460
26138W        W97667  39.852  37.368   0.338
26139W        W97668  13.182  10.324  12.881
26140W        W97669  31.719   7.700  13.520
26141W        W97670   2.969   0.511  11.051
26142W        W97671  40.315  23.988  11.183
26143W        W97672  13.034  28.382   2.318
26144W        W97673  19.719  24.687  13.946
26145W        W97674  25.021   9.112   4.174
26146W        W97675  37.005  36.484   1.655
26147W        W97676  14.059  17.270  11.950
26148W        W97677  22.200  13.782  12.357
26149W        W97678  30.537  24.544  10.170
26150W        W97679  11.877  15.527   3.630
26151W        W97680   1.278  13.402   1.815
26152W        W97681  35.368  30.082   2.181
26153W        W97682  16.052  20.264   4.091
26154W        W97683   5.940  23.688   1.396
26155W        W97684   4.241  18.576   3.774
26156W        W97685  12.764  24.947  13.385
26157W        W97686   3.963  39.810  13.589
26158W        W97687  39.180   2.388   1.382
26159W        W97688  36.394   1.797   2.711
26160W        W97689  24.990  32.163   2.122
26161W        W97690  37.250   8.568   1.288
26162W        W97691  16.762  26.982  13.530
26163W        W97692  18.779  23.074  10.578
26164W        W97693  18.459  18.666  14.485
26165W        W97694  31.943   2.189  11.009
26166W        W97695  18.741  38.496   4.772
26167W        W97696  33.837   3.818   1.848
26168W        W97697   5.784  44.337  12.512
26169W        W97698   4.162   3.755   0.715
26170W        W97699   1.335  31.941   5.061
26171W        W97700  11.147  33.375  13.784
26172W        W97701  25.166  18.361  13.395
26173W        W97702  19.436  24.744  11.967
26174W        W97703   8.501  44.276  11.931
26175W        W97704  21.589   9.411  14.652
26176W        W97705  44.400  20.682   0.005
26177W        W97706  34.496  35.824   3.147
26178W        W97707  38.476  38.793   3.122
26179W        W97708  21.087  12.186  14.503
26180W        W97709  16.058  17.086  12.522
26181W        W97710  31.462   9.424  14.980
26182W        W97711  23.404   0.298   4.283
26183W        W97712  31.256  29.643  11.047
26184W        W97713  16.764  44.871   0.832
26185W        W97714  44.335   3.969   2.430
26186W        W97715  12.812  39.365   1.258
26187W        W97716  34.727  19.473  13.922
26188W        W97717  25.006   8.851   0.435
26189W        W97718  23.965  18.752   3.285
26190W        W97719  43.364  25.084   5.120
26191W        W97720   8.823  11.762  11.450
26192W        W97721   6.313  33.423   3.640
26193W        W97722  16.841  19.324  11.537
26194W        W97723  25.689  34.669   0.830
26195W        W97724  21.227  41.566  14.063
26196W        W97725   4.621  26.673  13.511
26197W        W97726  18.674  33.344  12.836
26198W        W97727  33.843  32.636   3.378
26199W        W97728   6.383  40.871  11.869
26200W        W97729  41.468  39.485   3.209
26201W        W97730  22.720  30.608   5.119
26202W        W97731  11.863  27.589   4.713
26203W        W97732   7.807  25.425   3.602
26204W        W97733  31.947  20.526  13.058
26205W        W97734  22.468  23.140  14.503
26206W        W97735  28.567   6.117  11.842
26207W        W97736  40.424  43.049   4.781
26208W        W97737  19.605  31.277   3.500
26209W        W97738  15.381  44.170  12.177
26210W        W97739  33.017  26.369   2.771
26211W        W97740  43.051  14.175  12.949
26212W        W97741  27.169  34.486   2.837
26213W        W97742   6.329   0.219   2.814
26214W        W97743   6.051   1.014  11.128
26215W        W97744  14.687  16.101   4.671
26216W        W97745  41.773  32.582  13.736
26217W        W97746  12.939  19.665  11.151
26218W        W97747  10.582  38.290  12.824
26219W        W97748   9.482  22.754  13.182
26220W        W97749  18.260  26.730  11.093
26221W        W97750  39.944  42.875   1.013
26222W        W97751  19.150  11.741  13.325
26223W        W97752   7.464   8.657   2.029
26224W        W97753  28.957  29.653   1.345
26225W        W97754  22.153  16.260  11.095
26226W        W97755  14.340  29.843   3.720
26227W        W97756  41.865  44.409  10.702
26228W        W97757  34.279  33.439   3.735
26229W        W97758   1.781  35.374  12.647
26230W        W97759  14.399  16.738   4.608
26231W        W97760  36.987  13.257   0.092
26232W        W97761  11.149   1.486   1.729
26233W        W97762  33.302  14.216  12.808
26234W        W97763  25.219  24.655   0.880
26235W        W97764  38.116  29.175  10.773
26236W        W97765   4.370  42.494  13.429
26237W        W97766  16.846   0.728   4.133
26238W        W97767  10.728  25.415   4.610
26239W        W97768  36.008   1.342  11.538
26240W        W97769  32.488  22.566   1.920
26241W        W97770   5.978   6.949   1.261
26242W        W97771  14.049  15.754   2.737
26243W        W97772  38.710  27.452  13.027
26244W        W97773  16.204  20.911  12.768
26245W        W97774  34.332   5.318  13.095
26246W        W97775  13.081  35.053   0.838
26247W        W97776   4.299  26.859   3.171
26248W        W97777   0.785  21.287   2.684
26249W        W97778  14.319   5.745  14.098
26250W        W97779  28.262  24.191   0.477
26251W        W97780   8.800  16.372  13.219
26252W        W97781   3.856  40.212  12.433
26253W        W97782   5.895  11.435  13.314
26254W        W97783  34.603  11.372   4.653
26255W        W97784  36.756  27.146   1.259
26256W        W97785  12.251   2.293  13.892
26257W        W97786  43.727  15.319   0.016
26258W        W97787   1.797  15.224  14.212
26259W        W97788  36.097  21.484   1.334
26260W        W97789  16.280   8.713  12.029
26261W        W97790  23.974  12.553   3.241
26262W        W97791  23.040  36.940  11.134
26263W        W97792   7.427  22.409   0.368
26264W        W97793   7.397  27.415   4.234
26265W        W97794  23.480  22.077   2.766
26266W        W97795  25.176  20.234   0.519
26267W        W97796   9.206  18.067   3.273
26268W        W97797  33.154  18.150  13.989
26269W        W97798  33.749   4.227  10.639
26270W        W97799  12.091  25.763  11.907
26271W        W97800   0.831  29.152  10.310
26272W        W97801  41.504  38.608  13.065
26273W        W97802  17.123  30.067  11.136
26274W        W97803  20.107   0.326   2.569
26275W        W97804  39.747  13.402  13.155
26276W        W97805  42.015  38.782  13.100
26277W        W97806   3.691   7.527  14.288
26278W        W97807  30.979  25.995  14.218
26279W        W97808  42.927   3.866   0.712
26280W        W97809  17.335  25.749  14.864
26281W        W97810  12.690  16.279  12.128
26282W        W97811  42.269  36.848  12.027
26283W        W97812  36.353  17.490  12.369
26284W        W97813  38.024  40.369   0.273
26285W        W97814  34.683  32.593  13.561
26286W        W97815   2.708  27.667   1.337
26287W        W97816   6.149  17.554  13.398
26288W        W97817   8.192  35.614  12.372
26289W        W97818   0.753  22.563  10.810
26290W        W97819  32.622  37.821   1.444
26291W        W97820  21.710  29.998   0.653
26292W        W97821  42.641   2.752  11.256
26293W        W97822   9.800  44.392  11.739
26294W        W97823  25.517  33.242  10.947
26295W        W97824  28.625  42.328   2.514
26296W        W97825  26.725   2.654   1.283
26297W        W97826  35.061  20.742  14.380
26298W        W97827  24.936  37.337  14.892
26299W        W97828  30.960  34.065   3.605
26300W        W97829  31.621  43.583   3.315
26301W        W97830   3.804  44.841  12.127
26302W        W97831  40.013  44.414  14.863
26303W        W97832   2.230  27.603  13.300
26304W        W97833  33.401  14.043   2.901
26305W        W97834  43.947  29.028  11.503
26306W        W97835   8.192  18.370  14.017
26307W        W97836   6.816  36.447  11.891
26308W        W97837  20.214  38.357   2.679
26309W        W97838  32.037  10.785  10.724
26310W        W97839   7.869  21.240   3.792
26311W        W97840  35.486  32.607  12.990
26312W        W97841  29.459  13.214   0.233
26313W        W97842  20.380  11.764   5.109
26314W        W97843  12.679  44.597   0.462
26315W        W97844  32.598  19.060   0.297
26316W        W97845  20.985  16.798  12.988
26317W        W97846  43.271  29.873   1.025
26318W        W97847   0.489  38.390   2.720
26319W        W97848  21.554  17.836  10.585
26320W        W97849  31.801  31.067  12.995
26321W        W97850  27.008   6.406   4.509
26322W        W97851  39.943  39.128  10.471
26323W        W97852  23.662  33.890  14.069
26324W        W97853  15.497  28.626   4.034
26325W        W97854  33.232  37.402  10.743
26326W        W97855  27.148  26.046   1.210
26327W        W97856  17.168   2.871   0.724
26328W        W97857  12.229  43.459  10.866
26329W        W97858  22.497  37.319   4.033
26330W        W97859   0.822  37.048  11.611
26331W        W97860  33.745  43.555  12.984
26332W        W97861  12.349  32.291   0.893
26333W        W97862  13.889  18.501   1.524
26334W        W97863  42.467  13.037  14.909
26335W        W97864  32.436   5.017  13.149
26336W        W97865  34.091  39.341   0.952
26337W        W97866   2.857  41.205   3.411
26338W        W97867  17.235   1.851   2.867
26339W        W97868  34.378  26.584  13.501
26340W        W97869  31.439  12.253  13.934
26341W        W97870   6.896   3.800  11.517
26342W        W97871  21.772  27.043   4.063
26343W        W97872  35.337  28.262  13.031
26344W        W97873  30.183  43.892   4.144
26345W        W97874  39.728  41.391  12.828
26346W        W97875  38.604  20.529  11.494
26347W        W97876   7.743  44.885  14.263
26348W        W97877  31.707  17.509  14.408
26349W        W97878  27.951  18.803  12.040
26350W        W97879  41.753  35.033  12.088
26351W        W97880  18.760  26.498   5.007
26352W        W97881  22.203  38.391  12.890
26353W        W97882   6.070  13.967  10.452
26354W        W97883   8.668  32.838   3.724
26355W        W97884   5.819   8.590   1.204
26356W        W97885  41.276  28.718   3.687
26357W        W97886   0.163  28.719  14.594
26358W        W97887  16.058   6.315   0.330
26359W        W97888  25.126  23.964  12.561
26360W        W97889  44.257  40.493   3.150
26361W        W97890  15.163  17.075   1.745
26362W        W97891   9.891  10.162  13.969
26363W        W97892  23.583  17.782  13.324
26364W        W97893  27.199  21.328  10.807
26365W        W97894  25.656  37.979  13.561
26366W        W97895  25.433   4.149   3.373
26367W        W97896  16.959  42.001   4.157
26368W        W97897  44.858   1.656  13.033
26369W        W97898  22.163  41.890   4.540
26370W        W97899  39.413  39.050   4.995
26371W        W97900  38.006  14.641  14.468
26372W        W97901  33.987   0.900   0.790
26373W        W97902  17.182  16.258   1.201
26374W        W97903  36.046  34.883  11.163
26375W        W97904   2.830  15.386  12.135
26376W        W97905  24.104  24.064   0.428
26377W        W97906  11.807  14.393   0.911
26378W        W97907  19.647  41.077   4.500
26379W        W97908  10.673  14.670  12.404
26380W        W97909  10.665  29.278   0.276
26381W        W97910   9.882   3.576   4.080
26382W        W97911  31.415  23.734   1.616
26383W        W97912  28.553  27.257   0.369
26384W        W97913   2.994  14.595   3.245
26385W        W97914  24.262  17.623  14.953
26386W        W97915  36.992  18.512  11.791
26387W        W97916  22.118  28.694  14.935
26388W        W97917  13.387  42.741  13.882
26389W        W97918  27.036  10.874  13.179
26390W        W97919  33.163  28.047   4.837
26391W        W97920  41.819  17.531   3.305
26392W        W97921  24.320  24.380  13.079
26393W        W97922  28.670  29.298  14.688
26394W        W97923  35.806  21.337   0.494
26395W        W97924   0.827   9.310   4.417
26396W        W97925  31.586  29.909  14.464
26397W        W97926  18.787  37.483   4.723
26398W        W97927  23.232  18.768   0.838
26399W        W97928  32.493  37.306   3.310
26400W        W97929  14.822  10.909  12.958
26401W        W97930   8.192  13.669  11.472
26402W        W97931   8.436  19.586  12.055
26403W        W97932  15.596  32.494  13.045
26404W        W97933  10.391   4.517  11.883
26405W        W97934   7.388  36.419   0.014
26406W        W97935   4.956  20.171   2.764
26407W        W97936  15.717   9.432   3.085
26408W        W97937  31.739  29.271   4.557
26409W        W97938  14.667   7.283  14.041
26410W        W97939   9.413  29.603  13.447
26411W        W97940  17.815  21.713   4.979
26412W        W97941  24.527  37.783  11.637
26413W        W97942  11.773  41.932   3.765
26414W        W97943   4.793  23.633  11.458
26415W        W97944  37.125   8.150  14.074
26416W        W97945  29.021  31.200  10.758
26417W        W97946  18.101  28.859  13.497
26418W        W97947  34.263  20.754   3.346
26419W        W97948  32.852   8.150   0.455
26420W        W97949  30.064   9.063   1.143
26421W        W97950  44.349  44.439  10.594
26422W        W97951  26.968  29.659  12.168
26423W        W97952   6.452  19.743   4.243
26424W        W97953  11.636   6.863   0.744
26425W        W97954  23.705  27.117  11.020
26426W        W97955  32.444  37.578  12.617
26427W        W97956  20.660  16.985   4.525
26428W        W97957  13.031   8.323  14.221
26429W        W97958  32.954   5.248  13.409
26430W        W97959  39.758  33.085   4.068
26431W        W97960   5.225   5.920   3.849
26432W        W97961  42.730  40.589  13.049
26433W        W97962  26.732  21.457  10.626
26434W        W97963  41.722  24.959   0.893
26435W        W97964  39.932  25.702  12.958
26436W        W97965  14.172  14.870   4.624
26437W        W97966  28.216  44.472   1.413
26438W        W97967  32.411  30.044   3.280
26439W        W97968  22.656  30.972  10.051
26440W        W97969  21.085  34.693  10.699
26441W        W97970   9.300  39.337  12.406
26442W        W97971  26.240   5.776   2.172
26443W        W97972   7.663   1.297  14.529
26444W        W97973  30.191  44.437  10.458
26445W        W97974  13.018  10.764  14.563
26446W        W97975  13.604   2.357   4.933
26447W        W97976  40.249  28.049   1.285
26448W        W97977  42.783  25.919  12.757
26449W        W97978  21.478   5.974   1.348
26450W        W97979  31.818  23.567  11.986
26451W        W97980  14.718  26.977  13.113
26452W        W97981  11.278  14.886  14.088
26453W        W97982  15.794  39.077  10.759
26454W        W97983   7.128  31.474  10.729
26455W        W97984  26.390  32.374   4.949
26456W        W97985   5.241  23.186   4.539
26457W        W97986  30.109  16.646  14.605
26458W        W97987  17.525  36.783  13.847
26459W        W97988  31.416   6.763  14.901
26460W        W97989  20.266   5.417  12.089
26461W        W97990  11.589  17.576  10.705
26462W        W97991  17.502   4.350   3.720
26463W        W97992  34.167  33.186  13.853
26464W        W97993  37.255  29.046  10.994
26465W        W97994  30.356   8.254   1.688
26466W        W97995  38.589  16.969  11.170
26467W        W97996  13.630  19.488  14.403
26468W        W97997  12.639   7.208  13.813
26469W        W97998  32.115   8.102   4.469
26470W        W97999   5.258  21.017   0.930
26471W        W98000  33.282   7.707   2.317
26472W        W98001  22.042   6.593   3.290
26473W        W98002  20.131   5.826   3.371
26474W        W98003  28.479  36.226   1.113
26475W        W98004  15.006   3.380   2.052
26476W        W98005  15.135  39.321  12.709
26477W        W98006  36.507  35.512  10.645
26478W        W98007  33.027  22.088  12.688
26479W        W98008  36.628  38.265   3.595
26480W        W98009  17.262  43.419   4.194
26481W        W98010  31.014   9.854   0.925
26482W        W98011   5.742  13.785   3.352
26483W        W98012  33.421  30.903   4.428
26484W        W98013  31.699  30.598  12.487
26485W        W98014  37.279  24.143  14.392
26486W        W98015  41.621  13.154   0.689
26487W        W98016  28.663  18.420  12.579
26488W        W98017  28.005   9.924  10.027
26489W        W98018  37.682  36.591  11.098
26490W        W98019  41.598  12.667  10.405
26491W        W98020  18.873  22.704   4.967
26492W        W98021  28.282  17.515  10.340
26493W        W98022   3.583  11.666   5.071
26494W        W98023  34.529  13.074   2.341
26495W        W98024  20.569  40.416  11.820
26496W        W98025  15.991  41.153  14.714
26497W        W98026  41.585   2.718   4.781
26498W        W98027  14.298   3.625   5.103
26499W        W98028  30.495  36.138   1.784
26500W        W98029  44.060  29.682  14.565
26501W        W98030  32.709  39.127  14.022
26502W        W98031  37.521   2.382  14.895
26503W        W98032  42.046  29.043   2.741
26504W        W98033  12.194   0.928   1.189
26505W        W98034  20.149  21.871  11.022
26506W        W98035   1.541  31.096  14.326
26507W        W98036  37.854  19.096   4.165
26508W        W98037  27.972   4.793  11.996
26509W        W98038  23.218  40.552  13.405
26510W        W98039  28.722  22.200  13.829
26511W        W98040  12.405  11.955   1.958
26512W        W98041  44.755  14.608  13.451
26513W        W98042  16.444  26.311   0.698
26514W        W98043  23.538  20.109  11.935
26515W        W98044  22.494  32.451   1.408
26516W        W98045   7.439  39.894  10.778
26517W        W98046   0.911  30.800   4.778
26518W        W98047  14.167  12.791   3.409
26519W        W98048  42.080   8.303  13.342
26520W        W98049  40.858  44.961  11.464
26521W        W98050   7.355  32.512   1.569
26522W        W98051   3.468   8.762   4.698
26523W        W98052  10.208   6.214   4.198
26524W        W98053  10.668  41.479   3.829
26525W        W98054  11.166   4.352  14.438
26526W        W98055  17.966  43.434  14.252
26527W        W98056  42.050  42.438  14.299
26528W        W98057  21.699  44.257   4.144
26529W        W98058  20.242   5.646  10.737
26530W        W98059  44.043  34.819  10.642
26531W        W98060  13.779  23.638   3.104
26532W        W98061  32.379   2.304   4.729
26533W        W98062  31.517  20.702   0.087
26534W        W98063  15.587  36.126  11.475
26535W        W98064   0.488  14.082  13.358
26536W        W98065  30.089   7.673   4.293
26537W        W98066  15.645  31.922   4.630
26538W        W98067  21.988  18.567  13.065
26539W        W98068  34.094  19.729   0.925
26540W        W98069  20.289  31.092  14.949
26541W        W98070  13.178  32.945  12.142
26542W        W98071   6.467  42.288   0.373
26543W        W98072   0.932  20.585   0.481
26544W        W98073   2.987  24.513  14.787
26545W        W98074  32.186   9.946  11.998
26546W        W98075  23.107  38.782  14.859
26547W        W98076  30.443  11.154   4.123
26548W        W98077  15.374   1.298  13.391
26549W        W98078  13.904  29.305  11.905
26550W        W98079  29.084  35.759  10.716
26551W        W98080  17.677   1.785  13.412
26552W        W98081  20.731   9.635   0.799
26553W        W98082  14.605  34.435   1.968
26554W        W98083  16.692  13.939   3.416
26555W        W98084  23.126   8.859  13.804
26556W        W98085  18.077  29.690  12.581
26557W        W98086  41.263  16.314  12.845
26558W        W98087  22.236  11.218  13.887
26559W        W98088  23.428  28.689  13.027
26560W        W98089  13.340  34.663   0.475
26561W        W98090  40.327   9.146   1.890
26562W        W98091  30.819  32.012   1.362
26563W        W98092  11.352  22.014  14.963
26564W        W98093  30.035  43.816  14.755
26565W        W98094  28.522   5.847  13.606
26566W        W98095  39.839  21.614   1.155
26567W        W98096  36.677  20.828   1.443
26568W        W98097   1.462  32.501  14.321
26569W        W98098  16.877   7.346   1.238
26570W        W98099  19.505   4.984   3.232
26571W        W98100  37.723  33.563  10.107
26572W        W98101  28.934  27.965  12.828
26573W        W98102   2.386   2.191   2.987
26574W        W98103  27.303  12.806  14.594
26575W        W98104  14.154  18.145   2.386
26576W        W98105  27.048  19.552  13.947
26577W        W98106  34.460  39.575   3.918
26578W        W98107  17.688  41.089   0.775
26579W        W98108  39.244  11.225  11.043
26580W        W98109  31.840  29.524  11.627
26581W        W98110  28.458  23.438   0.239
26582W        W98111   3.380  23.190   2.408
26583W        W98112  33.575  34.926  11.000
26584W        W98113  39.998   2.050   1.939
26585W        W98114  12.846  41.763   1.360
26586W        W98115  14.144  14.760   3.753
26587W        W98116  24.439  13.763  12.454
26588W        W98117  40.288   1.552   2.427
26589W        W98118  18.093  14.580   1.260
26590W        W98119  22.023  27.541   2.893
26591W        W98120  20.279  27.963   2.633
26592W        W98121  17.391  35.818  13.978
26593W        W98122   8.255  27.994   1.687
26594W        W98123  35.311  23.312  14.831
26595W        W98124   5.867  16.165  11.237
26596W        W98125  23.119  19.202   4.327
26597W        W98126  12.278  19.969   1.550
26598W        W98127   4.828   2.931  10.483
26599W        W98128  25.598  18.193  11.677
26600W        W98129  30.429  40.194   2.127
26601W        W98130   5.857  34.473  13.990
26602W        W98131  31.946  35.418  11.600
26603W        W98132  40.839   2.187   2.426
26604W        W98133  24.152  13.760   0.200
26605W        W98134  14.243  32.268   0.497
26606W        W98135  16.450  10.247   4.654
26607W        W98136  42.596  12.597  12.535
26608W        W98137  18.195  21.375  12.023
26609W        W98138  37.205  28.579  13.600
26610W        W98139   3.279  16.267   1.814
26611W        W98140  12.158   6.467   3.989
26612W        W98141   2.028   4.351   0.619
26613W        W98142  38.428  28.221  14.559
26614W        W98143  35.941  15.648   0.714
26615W        W98144  11.268  44.033   3.155
26616W        W98145   4.192  10.100  11.151
26617W        W98146  18.224  20.349   3.347
26618W        W98147  16.167  18.149   5.148
26619W        W98148  22.152  14.825  11.262
26620W        W98149   1.228  35.130  12.580
26621W        W98150  24.479   2.431  12.156
26622W        W98151  12.534  43.985   4.034
26623W        W98152  19.559  12.733   2.353
26624W        W98153  28.521  11.169  11.787
26625W        W98154  25.724  29.587   1.808
26626W        W98155  24.193   6.899   4.901
26627W        W98156  36.059   9.556   0.266
26628W        W98157   7.890   6.348  11.080
26629W        W98158   8.845  44.376   1.054
26630W        W98159  19.293  15.133  10.777
26631W        W98160   1.722  29.529   4.601
26632W        W98161   0.762  33.361  13.884
26633W        W98162  40.688  24.661   1.764
26634W        W98163   6.763  21.819   4.658
26635W        W98164  42.967  32.569   0.050
26636W        W98165  23.189  18.206  11.059
26637W        W98166  29.184  38.455   3.675
26638W        W98167   1.351  34.003  11.602
26639W        W98168  33.486  44.019   3.727
26640W        W98169  15.384  44.625  14.383
26641W        W98170  34.303  11.203  13.671
26642W        W98171  23.662  31.894   3.648
26643W        W98172  14.625  27.129  11.029
26644W        W98173  22.509   9.396   4.122
26645W        W98174  10.015   7.450  11.792
26646W        W98175  24.285  15.189  11.289
26647W        W98176  12.066  26.805   3.781
26648W        W98177  42.920  27.116  10.590
26649W        W98178  20.063  35.394  14.485
26650W        W98179   2.968  17.823   2.026
26651W        W98180  12.205  42.220  12.442
26652W        W98181  26.942  12.359   1.179
26653W        W98182  32.140   9.737   1.290
26654W        W98183  10.078  32.193   4.207
26655W        W98184   3.544   7.774  12.399
26656W        W98185  20.841  26.634  12.950
26657W        W98186  44.612  39.299   1.333
26658W        W98187   0.999  11.186  10.787
26659W        W98188   6.642  33.426  11.758
26660W        W98189  33.378   7.195  12.976
26661W        W98190  11.872   6.295  13.997
26662W        W98191  36.984  37.256  12.383
26663W        W98192   0.773   6.934  11.604
26664W        W98193  16.660  12.779  14.978
26665W        W98194  10.925  24.732  14.854
26666W        W98195  39.244  42.685  14.515
26667W        W98196   8.501   4.523   2.410
26668W        W98197  40.055   7.462  14.856
26669W        W98198  32.486   6.948  11.641
26670W        W98199  21.877  34.939  10.626
26671W        W98200   0.933  13.747   1.987
26672W        W98201  12.784  17.801   1.273
26673W        W98202   5.479  13.086   1.032
26674W        W98203  37.077  35.008  13.427
26675W        W98204  13.920  24.690  12.061
26676W        W98205  25.946  34.226  14.409
26677W        W98206  27.241  29.930   0.331
26678W        W98207   8.134  10.982  11.906
26679W        W98208  25.386   6.790  14.562
26680W        W98209  42.807  30.816  11.165
26681W        W98210  26.460  23.252   0.764
26682W        W98211  29.504   1.775   3.075
26683W        W98212  36.541   4.699   1.351
26684W        W98213  31.746   9.163   2.384
26685W        W98214  23.634  22.226  14.351
26686W        W98215  31.614   7.887  12.614
26687W        W98216  42.513   4.357  11.430
26688W        W98217  43.600  23.135  14.979
26689W        W98218  27.730  36.278   1.723
26690W        W98219  30.919  22.960  14.916
26691W        W98220  11.214  36.273   2.897
26692W        W98221  38.131  26.454  11.939
26693W        W98222   7.645  23.548   0.920
26694W        W98223  41.910  11.709   4.161
26695W        W98224  38.149  23.745   1.351
26696W        W98225  15.379  40.276   1.804
26697W        W98226  34.443  35.245   2.571
26698W        W98227  32.965   0.296   2.909
26699W        W98228  38.792  13.922  11.171
26700W        W98229  37.627  31.546  14.049
26701W        W98230   0.333  40.771  12.261
26702W        W98231  23.279  25.488   4.041
26703W        W98232  14.988  34.249  14.818
26704W        W98233  42.366  10.772   2.948
26705W        W98234  21.267   4.363   2.686
26706W        W98235   5.450  32.571   2.672
26707W        W98236  20.631  11.392   2.673
26708W        W98237  27.472  31.184   0.543
26709W        W98238  11.890  32.621   3.562
26710W        W98239  22.425  13.789   3.313
26711W        W98240   4.762  15.124   3.726
26712W        W98241  32.963  11.134   2.116
26713W        W98242  19.945  27.238   2.176
26714W        W98243   6.322  40.734  11.401
26715W        W98244   1.894  26.652   2.625
26716W        W98245  31.875  30.966  11.556
26717W        W98246  23.413  13.633  13.369
26718W        W98247   5.010  30.301   3.634
26719W        W98248  29.654  24.499   3.751
26720W        W98249  29.078  15.730   4.458
26721W        W98250  30.796   3.972   3.178
26722W        W98251   6.874  10.950   3.338
26723W        W98252  17.157   8.384   1.241
26724W        W98253  10.310   2.382  13.994
26725W        W98254  42.713  37.470   4.070
26726W        W98255  19.765   9.155   4.196
26727W        W98256  14.113   8.529  11.005
26728W        W98257   4.183  21.577  11.954
26729W        W98258   2.873  29.608  12.730
26730W        W98259  20.128  18.167  14.000
26731W        W98260   9.407  32.230  13.363
26732W        W98261  18.904  32.076  11.123
26733W        W98262  17.708  44.106  13.332
26734W        W98263   6.892  35.913   2.338
26735W        W98264  15.588  19.316   4.837
26736W        W98265  32.992   8.356  13.558
26737W        W98266  23.498  23.193   2.849
26738W        W98267   6.459  20.556  14.361
26739W        W98268  43.510  24.109  11.964
26740W        W98269   0.713  12.271   0.899
26741W        W98270  41.096  13.584  12.373
26742W        W98271  24.238  12.850  10.860
26743W        W98272  19.054   9.810   0.460
26744W        W98273   0.704  44.196   1.839
26745W        W98274   2.674  23.090  14.096
26746W        W98275   8.254  37.154   4.883
26747W        W98276  15.997   0.749   0.342
26748W        W98277  29.180   0.282   1.339
26749W        W98278  36.093  26.466  13.009
26750W        W98279  11.083  42.536  11.649
26751W        W98280  21.183  10.196  11.709
26752W        W98281  18.413   9.189  12.914
26753W        W98282  36.832  15.982   1.559
26754W        W98283  10.258  43.031  12.819
26755W        W98284  24.952   7.804  10.448
26756W        W98285   9.195  20.525  12.801
26757W        W98286  15.153   0.314  14.015
26758W        W98287  31.077  20.268  12.424
26759W        W98288   4.810  30.331  12.867
26760W        W98289  36.589  34.898   0.901
26761W        W98290  25.026  41.482  13.037
26762W        W98291  35.817   3.262   3.674
26763W        W98292  17.077   2.847  11.095
26764W        W98293  35.453  30.791   3.268
26765W        W98294  32.093  18.117   5.088
26766W        W98295  29.168  38.309  11.085
26767W        W98296  12.172  32.689  14.511
26768W        W98297   1.882  21.041  11.646
26769W        W98298   2.752  10.658  10.645
26770W        W98299  15.817  23.323   4.624
26771W        W98300  44.203  35.465   2.210
26772W        W98301  42.473  22.587  12.351
26773W        W98302  39.027   1.441   4.593
26774W        W98303   1.010  37.416  11.251
26775W        W98304  11.906   6.758   3.434
26776W        W98305  35.452  27.984   4.593
26777W        W98306  26.326  10.721  13.002
26778W        W98307  19.927  39.526  14.471
26779W        W98308   0.039   5.382   4.750
26780W        W98309  14.725  20.505  14.272
26781W        W98310  31.625  29.934  11.945
26782W        W98311  42.584  38.276  11.179
26783W        W98312  31.889  10.350   0.844
26784W        W98313  40.746   6.907   0.389
26785W        W98314  21.446   1.740  11.157
26786W        W98315   9.488  42.482  12.452
26787W        W98316  35.922  37.009   4.915
26788W        W98317   7.139  12.166   4.615
26789W        W98318  33.829   3.945  10.068
26790W        W98319   4.682  25.900   4.581
26791W        W98320   5.317  28.592  13.879
26792W        W98321   0.017  18.119   1.026
26793W        W98322  24.577  44.420  14.611
26794W        W98323  44.459  31.259   0.342
26795W        W98324  32.609  11.391   3.768
26796W        W98325  30.893  16.176   2.213
26797W        W98326   0.170  23.483  13.835
26798W        W98327  42.061  38.279  13.871
26799W        W98328  18.201   9.498  10.241
26800W        W98329  22.636  42.178   3.282
26801W        W98330   3.342  23.648   2.672
26802W        W98331  26.258  25.665   0.184
26803W        W98332  35.828  42.310   0.714
26804W        W98333   9.758  18.174   1.696
26805W        W98334  13.689  39.841  14.328
26806W        W98335  31.482  21.432   3.238
26807W        W98336  21.574  14.481  10.948
26808W        W98337   0.800   7.332  10.661
26809W        W98338  42.704   7.158  12.367
26810W        W98339   6.173  28.571   0.391
26811W        W98340  24.253  34.615   0.007
26812W        W98341  33.359  19.675  11.542
26813W        W98342  31.169  29.231  14.786
26814W        W98343   5.306  42.005   4.261
26815W        W98344  29.220   3.832  14.681
26816W        W98345  36.637  25.012  13.378
26817W        W98346   2.537  13.352   2.635
26818W        W98347  28.427   3.381  11.254
26819W        W98348  34.859   1.857   1.296
26820W        W98349  29.506   3.966   2.121
26821W        W98350  22.775   8.546   4.642
26822W        W98351  11.108  22.096   2.736
26823W        W98352  10.883  26.501   1.392
26824W        W98353  16.633  34.391   4.756
26825W        W98354  21.973  16.104  12.467
26826W        W98355  36.628   3.432   4.269
26827W        W98356  18.538  20.765  14.732
26828W        W98357  33.411  37.479   2.188
26829W        W98358  33.130  29.419  12.029
26830W        W98359  38.082   3.671   0.514
26831W        W98360   6.628   9.672  12.566
26832W        W98361  35.027  29.370  10.353
26833W        W98362  18.837  22.646   1.327
26834W        W98363  40.166  35.292   4.547
26835W        W98364  26.957  20.559  14.898
26836W        W98365  28.416  44.100  13.311
26837W        W98366   8.001  38.270   4.255
26838W        W98367  33.431   0.209  10.690
26839W        W98368  17.165   3.880  13.449
26840W        W98369  19.926   5.273   0.467
26841W        W98370  15.820  30.510   4.162
26842W        W98371  35.153   1.430   5.075
26843W        W98372  40.907   1.642  12.164
26844W        W98373  43.067  20.772  11.016
26845W        W98374   4.302  10.937   0.382
26846W        W98375  36.542   6.204   3.703
26847W        W98376  21.327  37.368  14.511
26848W        W98377   5.717  32.144  13.451
26849W        W98378   0.164  14.280   2.493
26850W        W98379  14.167  25.438  14.812
26851W        W98380  31.373  23.234  14.820
26852W        W98381  13.797   0.277   1.802
26853W        W98382  19.770  29.100  13.032
26854W        W98383  23.132  23.213   1.809
26855W        W98384   8.393  21.430   2.044
26856W        W98385   7.604   9.865  13.410
26857W        W98386  23.522  39.348   1.506
26858W        W98387  25.987  32.089   1.278
26859W        W98388  36.482  20.322   2.213
26860W        W98389  39.659  19.907  13.851
26861W        W98390   7.872  12.623  11.726
26862W        W98391  36.066  22.651   0.414
26863W        W98392   5.051  29.579   3.278
26864W        W98393  27.488  11.858   3.318
26865W        W98394   0.708  28.304  10.594
26866W        W98395  19.337   1.802   2.661
26867W        W98396  44.592  10.375  12.023
26868W        W98397  15.729   2.395  14.758
26869W        W98398  12.692  15.322   4.624
26870W        W98399  12.729  33.673  13.995
26871W        W98400   8.226  16.279   1.706
26872W        W98401  44.008  25.120   4.583
26873W        W98402  20.535  37.355   0.724
26874W        W98403  12.557  33.472   1.671
26875W        W98404   5.785   4.442   2.260
26876W        W98405   3.219   7.771   2.045
26877W        W98406  39.463  11.091  12.952
26878W        W98407  20.474  23.806   3.668
26879W        W98408  24.670  24.639   3.980
26880W        W98409  24.949  33.344  11.624
26881W        W98410  10.409  38.514  10.210
26882W        W98411  15.563  21.465   1.984
26883W        W98412  10.211   9.321  13.896
26884W        W98413  32.291   1.791   4.617
26885W        W98414  25.993   9.217   2.708
26886W        W98415  32.334  33.175  12.878
26887W        W98416  12.365   8.897  14.502
26888W        W98417  11.199  39.512   3.024
26889W        W98418  24.582  42.747  13.042
26890W        W98419  35.056  17.266   3.072
26891W        W98420  25.431  12.452   3.614
26892W        W98421  33.393  17.029   3.279
26893W        W98422  12.370  30.483  13.808
26894W        W98423  27.739  32.075   4.719
26895W        W98424  16.293  13.124  14.879
26896W        W98425  14.070  37.087   4.477
26897W        W98426   6.315  28.742   4.606
26898W        W98427  38.342  19.003  10.808
26899W        W98428  32.574  19.134   4.950
26900W        W98429   5.214  26.168  12.089
26901W        W98430  30.098   0.916   0.827
26902W        W98431  26.852  34.665  14.719
26903W        W98432  34.466  38.955   1.731
26904W        W98433  39.213   3.591   0.743
26905W        W98434  24.302   0.846  11.954
26906W        W98435  29.495  44.779  14.493
26907W        W98436  14.940  29.230   3.442
26908W        W98437   3.415   7.314  10.716
26909W        W98438   0.593  13.854   1.172
26910W        W98439   5.422  30.668   4.501
26911W        W98440  16.811  35.558   2.710
26912W        W98441  33.883  33.414  10.754
26913W        W98442   5.776   8.619   1.711
26914W        W98443   5.022  35.536   1.156
26915W        W98444  17.138  29.414  12.052
26916W        W98445   0.526  34.906   3.621
26917W        W98446   1.978   5.438  11.713
26918W        W98447  23.674   6.898   0.414
26919W        W98448  35.195  10.823  11.457
26920W        W98449  34.547  43.349  14.495
26921W        W98450   9.383  11.493  13.188
26922W        W98451  44.677   4.360  11.188
26923W        W98452   2.457  43.340   2.878
26924W        W98453  21.940  27.100  14.034
26925W        W98454  10.405   4.701   1.058
26926W        W98455   7.928  32.972   2.861
26927W        W98456  25.495  19.587  13.996
26928W        W98457  10.659  31.560   0.077
26929W        W98458  26.398  32.908   4.851
26930W        W98459  34.639  19.140   2.282
26931W        W98460  35.960  14.558   1.415
26932W        W98461  22.577  25.706   4.585
26933W        W98462   8.423  31.226  11.988
26934W        W98463  17.830  41.895   2.309
26935W        W98464  11.436  24.481   0.018
26936W        W98465  14.039   0.425   1.286
26937W        W98466  34.270  29.057  11.161
26938W        W98467  21.711  17.026  11.102
26939W        W98468  18.191  20.319   1.034
26940W        W98469  11.616  23.996   2.800
26941W        W98470  16.121  23.184  14.896
26942W        W98471  22.656  25.580  11.553
26943W        W98472   2.004  14.362   4.224
26944W        W98473  14.957  14.175  14.274
26945W        W98474  17.885   5.405   1.801
26946W        W98475  35.688  36.570   2.211
26947W        W98476  19.046  22.964  12.943
26948W        W98477  19.659  39.843  12.434
26949W        W98478  10.817  38.906   2.240
26950W        W98479  31.759  22.590   0.348
26951W        W98480  25.623   6.749  12.723
26952W        W98481  16.533  20.647   1.263
26953W        W98482   5.188  33.391  10.797
26954W        W98483  11.612   2.078   5.144
26955W        W98484  42.412  21.071   2.351
26956W        W98485  20.652  44.500  10.540
26957W        W98486  38.912  23.144   3.657
26958W        W98487   4.969  21.169  13.607
26959W        W98488  22.006  19.645  13.767
26960W        W98489  23.682  34.719  11.663
26961W        W98490  21.727  10.385  11.730
26962W        W98491  27.639   1.763   2.892
26963W        W98492  43.015  12.717   2.215
26964W        W98493  35.084  21.479  12.121
26965W        W98494   2.320  24.612   4.682
26966W        W98495   4.491  21.100   3.704
26967W        W98496   9.623  20.056   3.171
26968W        W98497  25.504  32.117   2.230
26969W        W98498  24.051  33.644  13.274
26970W        W98499  11.620  27.934  13.764
26971W        W98500   8.099   0.614  14.039
26972W        W98501   0.333  40.909  10.849
26973W        W98502  43.817  21.740   3.783
26974W        W98503  27.934  17.804  14.379
26975W        W98504  23.268  13.342   1.921
26976W        W98505  27.706  13.809   1.638
26977W        W98506   2.979  30.090  12.576
26978W        W98507  38.811  13.630   3.569
26979W        W98508  27.603  20.899   1.852
26980W        W98509  29.662  20.792   3.579
26981W        W98510  37.645  28.630   1.824
26982W        W98511  35.666  30.305  11.931
26983W        W98512  28.872  12.872   1.774
26984W        W98513  23.031  43.566   0.370
26985W        W98514  40.765  38.540   0.251
26986W        W98515  23.974   3.384   3.688
26987W        W98516  14.157  37.131   0.285
26988W        W98517  22.555  43.989  13.139
26989W        W98518  44.988  22.546  11.320
26990W        W98519  33.540  40.557  14.018
26991W        W98520  42.035  34.521   4.036
26992W        W98521  11.095  27.451   2.201
26993W        W98522  36.768  12.283   0.415
26994W        W98523  43.206   3.803   4.127
26995W        W98524  29.003   2.466  14.361
26996W        W98525  10.287   9.319  12.508
26997W        W98526   1.449  31.086   4.098
26998W        W98527  23.172  14.368  11.094
26999W        W98528  42.452  18.635   3.089
27000W        W98529  37.093  41.716  10.689
27001W        W98530   5.818  11.082   2.090
27002W        W98531  21.216  33.341   3.820
27003W        W98532  11.622  20.682  11.058
27004W        W98533  14.777  34.359  12.426
27005W        W98534  42.470  20.029   2.618
27006W        W98535  22.283  15.309   0.871
27007W        W98536  18.268  22.593   1.273
27008W        W98537  34.705   0.136  13.032
27009W        W98538   6.744  40.080   2.066
27010W        W98539   5.160  39.506  13.811
27011W        W98540  11.119   2.933   1.911
27012W        W98541  17.084  15.083   0.966
27013W        W98542  16.237   9.038  10.412
27014W        W98543  13.294   3.062   2.124
27015W        W98544  10.589   1.890   0.429
27016W        W98545  37.812  12.670  12.452
27017W        W98546   3.288   3.293  10.566
27018W        W98547  14.530  42.945  13.356
27019W        W98548  13.378  27.109   0.947
27020W        W98549  20.534  14.529  14.828
27021W        W98550  22.428  27.394   4.234
27022W        W98551   0.532  14.123  11.605
27023W        W98552  18.740  25.555  10.287
27024W        W98553  38.581  15.803   4.181
27025W        W98554  39.040  28.097  11.630
27026W        W98555  42.539  26.229  12.109
27027W        W98556  25.007  29.156   1.648
27028W        W98557  13.637  25.697   0.575
27029W        W98558  32.086  40.020   4.101
27030W        W98559  35.990  42.442   3.743
27031W        W98560  23.811   8.873  13.999
27032W        W98561  24.624   1.790   4.649
27033W        W98562  31.215   4.330   4.059
27034W        W98563  29.051  41.536  10.923
27035W        W98564  39.506   8.700   2.249
27036W        W98565  44.776   0.494   2.589
27037W        W98566   1.387  20.390   1.398
27038W        W98567   3.880  13.080   4.184
27039W        W98568  32.902  14.266   4.660
27040W        W98569  41.478  21.030   4.378
27041W        W98570  38.938  44.522  11.158
27042W        W98571  10.497  32.454   2.202
27043W        W98572  34.460  20.993  10.546
27044W        W98573  34.791   1.300   3.322
27045W        W98574  17.034  12.642  12.633
27046W        W98575  34.601  28.677  13.331
27047W        W98576  15.036  25.546   0.407
27048W        W98577  32.857  21.210   2.284
27049W        W98578  38.367  17.614   0.220
27050W        W98579   3.395  13.567   4.784
27051W        W98580  23.234  35.333  13.579
27052W        W98581   7.238  16.069  13.093
27053W        W98582  17.141  20.485  12.218
27054W        W98583   3.073  39.111  14.426
27055W        W98584  29.429  18.880   3.305
27056W        W98585  34.304  17.708   2.569
27057W        W98586  19.237  41.151  12.627
27058W        W98587  19.226  17.621   2.609
27059W        W98588  27.138  35.643  14.074
27060W        W98589  35.487  42.979  14.241
27061W        W98590   9.266  44.857   2.262
27062W        W98591  24.390  37.567  10.754
27063W        W98592  39.518   4.762   2.153
27064W        W98593   8.861  43.409   1.478
27065W        W98594  11.308   9.135   3.656
27066W        W98595  21.410   9.906  14.632
27067W        W98596   9.955  11.986  10.688
27068W        W98597  13.782   6.304  12.109
27069W        W98598   1.377   7.184  11.226
27070W        W98599  42.822  43.749   2.966
27071W        W98600  25.600  35.351  13.935
27072W        W98601  43.449  14.567   4.334
27073W        W98602  39.622  19.034  13.468
27074W        W98603  11.679   3.392  10.315
27075W        W98604  15.271   4.972   2.748
27076W        W98605  42.884  19.793   3.821
27077W        W98606  43.554  34.516  10.734
27078W        W98607  28.213   3.756   0.892
27079W        W98608  42.623  37.611  11.601
27080W        W98609  27.755  27.072   0.358
27081W        W98610   5.700  32.717  13.874
27082W        W98611  29.381  19.805   1.335
27083W        W98612  15.822   3.123   1.791
27084W        W98613   8.986   0.411   0.901
27085W        W98614  35.734  21.304  12.527
27086W        W98615  15.505   7.075   9.791
27087W        W98616  33.407   0.493  13.538
27088W        W98617  15.314  25.647  10.638
27089W        W98618  34.887  44.848   3.938
27090W        W98619  23.709  41.395  11.134
27091W        W98620  18.738  19.548   1.045
27092W        W98621  35.567  39.932   0.268
27093W        W98622   0.471  27.508   0.317
27094W        W98623   6.677  42.387   3.240
27095W        W98624  15.890   7.302   5.417
27096W        W98625  17.380  24.948  14.485
27097W        W98626  34.748   7.890   3.640
27098W        W98627  37.473  21.011   2.816
27099W        W98628  43.917  19.519   2.989
27100W        W98629  37.185   0.347   3.695
27101W        W98630  18.732   6.250  11.039
27102W        W98631  13.742   5.987  12.515
27103W        W98632  33.208  14.568   0.812
27104W        W98633  19.647   9.839  13.749
27105W        W98634  30.053  19.071  12.985
27106W        W98635  21.868   7.804  12.609
27107W        W98636   2.559   4.831   3.823
27108W        W98637  14.654   7.752  14.931
27109W        W98638  18.986   8.795  13.825
27110W        W98639  30.109   1.431  13.503
27111W        W98640   5.645  19.658  12.934
27112W        W98641  29.873  16.864   0.568
27113W        W98642  33.984  32.869  14.212
27114W        W98643  32.325  27.018   3.260
27115W        W98644  25.892  28.242  11.102
27116W        W98645   7.243  35.520   3.782
27117W        W98646  15.631  18.186  11.402
27118W        W98647  28.429  17.220  13.133
27119W        W98648  33.452  13.130   3.104
27120W        W98649  11.866  18.710  10.066
27121W        W98650   0.608  43.087   1.398
27122W        W98651  44.686  35.823  14.867
27123W        W98652   8.171  43.307   3.073
27124W        W98653  28.074  21.180   0.555
27125W        W98654  24.812   2.757   3.656
27126W        W98655   6.619  28.315  10.443
27127W        W98656  34.155  11.705   2.413
27128W        W98657  24.616   2.915   0.706
27129W        W98658   3.893  27.630  12.184
27130W        W98659  27.621  39.665  13.543
27131W        W98660  29.626  20.318  13.957
27132W        W98661  12.805  44.897  13.796
27133W        W98662  35.596   1.268  14.946
27134W        W98663  20.326   4.273   1.571
27135W        W98664  42.758   8.330   2.730
27136W        W98665  28.565   6.937  11.576
27137W        W98666  18.260  33.530   3.282
27138W        W98667  15.824  27.942   3.243
27139W        W98668   7.908   4.354  10.906
27140W        W98669   2.710  11.798  13.864
27141W        W98670  22.299   3.787   0.341
27142W        W98671   5.206  38.425  14.510
27143W        W98672  40.287   6.086  10.791
27144W        W98673   6.842   9.512   3.077
27145W        W98674   5.394  27.744   3.205
27146W        W98675  35.870  40.304   3.079
27147W        W98676  39.969  23.979  13.531
27148W        W98677  15.759  19.432  13.312
27149W        W98678  20.640  20.970  14.872
27150W        W98679  18.747  18.506  14.904
27151W        W98680   5.378  30.684   1.754
27152W        W98681   6.278  28.760  13.973
27153W        W98682  39.759  18.157   0.323
27154W        W98683  35.418  34.340   2.337
27155W        W98684   1.676   6.333   2.277
27156W        W98685   1.177  25.525   4.166
27157W        W98686  40.060   6.179  14.351
27158W        W98687   4.565  44.558  14.846
27159W        W98688  35.403  33.940   4.253
27160W        W98689  34.797  15.322  14.911
27161W        W98690   6.460  22.872   0.302
27162W        W98691  19.071  21.871  13.898
27163W        W98692   4.859  43.809   2.754
27164W        W98693   8.659   7.743  14.965
27165W        W98694  39.426  28.386  12.176
27166W        W98695  32.119  24.231  13.578
27167W        W98696  25.531   6.491   4.510
27168W        W98697  24.141  27.561   4.656
27169W        W98698  21.865  33.716  10.216
27170W        W98699   8.220  18.721   2.424
27171W        W98700  33.413  37.541   1.683
27172W        W98701  37.323  36.303   2.305
27173W        W98702  35.653  16.310  13.890
27174W        W98703  16.537  42.006  11.905
27175W        W98704   1.886   8.386  12.628
27176W        W98705  17.528  17.666  10.736
27177W        W98706  44.110  15.159  14.060
27178W        W98707   2.852  34.475   3.986
27179W        W98708   1.990  13.822   4.277
27180W        W98709  17.920  40.091   3.407
27181W        W98710  40.283   7.902   4.521
27182W        W98711  24.725  15.739  12.566
27183W        W98712  43.043  12.879  12.528
27184W        W98713  44.877  22.499   0.548
27185W        W98714  37.961  17.085   0.707
27186W        W98715  24.728   4.778   3.562
27187W        W98716  43.270  20.006   0.933
27188W        W98717   2.042  32.549  12.117
27189W        W98718  26.978  35.686   4.466
27190W        W98719  31.750  26.932  11.095
27191W        W98720   7.437  11.560   3.896
27192W        W98721  30.215  10.661  13.564
27193W        W98722  22.647  22.835  12.043
27194W        W98723  44.499  39.318   2.758
27195W        W98724  19.606  18.828  13.943
27196W        W98725  44.945  23.842  11.871
27197W        W98726  25.432  39.755  10.802
27198W        W98727  43.104  27.585   4.839
27199W        W98728  20.158  27.511  10.037
27200W        W98729  31.393   0.757  11.040
27201W        W98730   4.236   7.276   0.500
27202W        W98731  42.778  18.533   4.267
27203W        W98732  37.946  33.008   4.694
27204W        W98733  25.713  34.191   4.556
27205W        W98734  12.324  25.526  10.627
27206W        W98735  27.800  31.585  11.171
27207W        W98736  40.804  10.213  12.911
27208W        W98737   5.246  43.927  13.930
27209W        W98738  36.738   5.219  12.126
27210W        W98739  24.975  14.836   4.641
27211W        W98740  11.337   7.269  14.956
27212W        W98741   3.728  23.252   2.002
27213W        W98742   5.103  37.360   1.470
27214W        W98743  22.532  36.577  11.838
27215W        W98744  26.133  30.389  13.638
27216W        W98745  11.640   7.054   3.086
27217W        W98746  22.638  27.328   2.085
27218W        W98747  19.353  31.194   4.747
27219W        W98748  21.101  41.399   1.783
27220W        W98749  37.664  11.881   0.269
27221W        W98750  25.589   0.569  11.502
27222W        W98751  42.145   1.156   4.988
27223W        W98752  42.257  41.717  13.293
27224W        W98753  23.659  13.907   0.298
27225W        W98754  34.571  17.329   2.330
27226W        W98755  14.114  27.011   2.332
27227W        W98756  10.636  30.210  11.201
27228W        W98757  41.271  33.858   0.275
27229W        W98758  11.806  35.377   3.623
27230W        W98759  27.195  38.868  13.473
27231W        W98760  42.832  32.413   0.942
27232W        W98761  38.052  27.063   0.756
27233W        W98762  38.408  37.003  12.203
27234W        W98763  15.245   5.203   0.228
27235W        W98764  28.682  25.149   3.151
27236W        W98765  30.598  13.692  12.779
27237W        W98766  40.973  30.909   3.868
27238W        W98767  34.524  28.711  10.838
27239W        W98768   2.969  14.656  11.429
27240W        W98769  11.059  29.477  10.741
27241W        W98770  32.870   6.690   2.206
27242W        W98771  41.920  41.450  10.932
27243W        W98772  21.769  32.247  12.727
27244W        W98773  34.629  35.077   2.083
27245W        W98774   8.349   0.742   0.474
27246W        W98775  25.671  13.686   4.628
27247W        W98776   2.403  15.821   3.676
27248W        W98777  39.587  35.868   3.647
27249W        W98778  10.705   8.899  11.418
27250W        W98779  43.930   5.268  14.461
27251W        W98780  29.398  37.349  13.402
27252W        W98781  13.656  42.585  12.122
27253W        W98782   3.308   1.479  13.997
27254W        W98783  17.530  41.435   4.674
27255W        W98784   1.319  21.856   4.184
27256W        W98785  34.893   8.672   1.468
27257W        W98786   4.519  29.577  10.735
27258W        W98787  13.899  44.906   0.666
27259W        W98788  33.889   1.865  12.522
27260W        W98789   0.541  26.633  12.916
27261W        W98790  38.903  39.558   3.327
27262W        W98791  26.581   4.836   1.642
27263W        W98792  10.316   7.244   1.712
27264W        W98793  35.957  29.682   3.238
27265W        W98794  39.309  18.064  14.472
27266W        W98795  15.078  12.192  10.722
27267W        W98796  27.747   4.782  11.560
27268W        W98797  21.295  23.336  14.588
27269W        W98798  17.319  19.492   3.107
27270W        W98799   2.450  34.757  12.872
27271W        W98800   2.024   6.720  10.565
27272W        W98801  17.512   6.363   3.801
27273W        W98802  13.915  21.743   4.946
27274W        W98803  44.129  15.515  12.825
27275W        W98804  23.729  40.609   1.297
27276W        W98805  33.395  23.694  10.798
27277W        W98806  37.288   4.980  12.471
27278W        W98807  31.988  28.660  10.691
27279W        W98808  36.064  24.030   2.737
27280W        W98809  37.460   6.761   1.221
27281W        W98810   4.885  20.759  10.854
27282W        W98811  14.732  21.659  12.099
27283W        W98812  14.669  25.018   1.900
27284W        W98813  36.004  19.516  12.132
27285W        W98814  13.206  15.626   3.677
27286W        W98815  31.024  22.772   4.122
27287W        W98816  10.441   9.839   3.496
27288W        W98817  26.431  27.663  11.565
27289W        W98818  26.161   3.326   3.097
27290W        W98819  23.587  27.145   2.843
27291W        W98820  16.177  24.053   1.866
27292W        W98821   4.656  41.928  11.229
27293W        W98822   1.699  10.348  13.494
27294W        W98823  31.196  14.580  11.261
27295W        W98824  34.127   5.398   3.886
27296W        W98825  27.097  26.714  12.586
27297W        W98826   6.788  35.987   0.489
27298W        W98827  29.671  13.853  11.757
27299W        W98828  43.901  21.993  13.327
27300W        W98829  18.489  33.223  11.113
27301W        W98830   8.787   3.343  11.202
27302W        W98831  12.351  19.615   3.676
27303W        W98832  40.042  14.393   1.719
27304W        W98833   3.744  31.508  11.889
27305W        W98834  24.518   4.940  13.435
27306W        W98835  19.121  41.188  13.830
27307W        W98836  15.654   1.693   3.881
27308W        W98837   5.676  19.627  13.506
27309W        W98838  33.554   6.921  13.385
27310W        W98839  29.509  35.749   0.182
27311W        W98840  26.228   3.192  12.951
27312W        W98841  35.257  34.515  12.048
27313W        W98842   9.719  26.142  13.564
27314W        W98843  41.516   4.216   3.408
27315W        W98844  18.244  39.889   0.571
27316W        W98845   4.863   4.114  12.604
27317W        W98846  26.136  39.353   4.691
27318W        W98847  42.110  30.083   1.940
27319W        W98848  35.136  41.065   4.618
27320W        W98849  14.136  17.215   2.724
27321W        W98850   8.621  13.663   1.651
27322W        W98851  13.861  12.089   4.601
27323W        W98852   2.876  11.667  12.883
27324W        W98853   9.084  20.496  14.519
27325W        W98854  43.730  19.111   3.259
27326W        W98855   8.602  33.870  11.988
27327W        W98856  30.821  21.457   2.817
27328W        W98857   6.175  30.648   1.404
27329W        W98858  15.094  22.588  10.860
27330W        W98859   7.888  44.231   1.389
27331W        W98860  22.407  37.806  14.474
27332W        W98861  13.266  11.868   0.895
27333W        W98862  16.868  44.534   2.773
27334W        W98863  18.348  32.135  13.582
27335W        W98864  12.798  18.781   1.241
27336W        W98865  19.534  16.929   3.130
27337W        W98866  28.880  17.564  11.063
27338W        W98867  39.294   2.525   1.861
27339W        W98868  12.223  20.828  13.610
27340W        W98869  24.724  18.472  14.330
27341W        W98870   7.699  42.358   2.339
27342W        W98871   3.801  30.028  10.349
27343W        W98872  10.646  43.732  12.100
27344W        W98873   1.901  44.796  10.400
27345W        W98874  18.763   9.154   2.568
27346W        W98875  40.079  28.997   0.283
27347W        W98876  36.093   5.359   3.905
27348W        W98877  34.985   9.730   3.947
27349W        W98878  35.024  41.382  14.347
27350W        W98879  26.976   5.937  13.926
27351W        W98880  16.875  28.063  14.269
27352W        W98881  22.975  44.835   1.326
27353W        W98882  39.310  15.644   1.476
27354W        W98883   0.326  11.081  13.484
27355W        W98884   4.245  32.052   3.680
27356W        W98885  28.157  33.784   2.200
27357W        W98886  35.024  41.804   4.117
27358W        W98887  27.591  42.976   2.244
27359W        W98888  31.004  26.906   1.758
27360W        W98889  13.084  23.609  13.017
27361W        W98890  17.752   1.394   2.369
27362W        W98891  17.396  30.544   0.653
27363W        W98892  28.366  14.285  11.597
27364W        W98893  30.340  31.870  13.571
27365W        W98894  41.021   3.879  11.910
27366W        W98895  35.110  23.761  14.398
27367W        W98896  32.002  27.119   9.803
27368W        W98897   9.952  20.377  11.563
27369W        W98898   8.181  34.370   4.170
27370W        W98899  33.845  18.472   3.105
27371W        W98900  14.742  23.197  11.249
27372W        W98901  17.032  20.637  12.706
27373W        W98902  14.956   5.321  14.270
27374W        W98903  19.915   5.338   3.188
27375W        W98904  12.721  19.061   2.675
27376W        W98905  22.685   1.323  11.146
27377W        W98906  41.931   5.329  14.608
27378W        W98907  36.486  36.650   1.845
27379W        W98908  39.981  38.812  14.414
27380W        W98909  28.501  30.912  13.772
27381W        W98910   8.429  39.646  10.395
27382W        W98911  39.374   1.528   1.517
27383W        W98912   3.720  23.501  13.451
27384W        W98913  10.873  37.032   2.916
27385W        W98914  44.004  18.682   3.141
27386W        W98915  21.565  15.811  12.813
27387W        W98916  30.657  31.755   3.109
27388W        W98917  42.883  33.141  10.690
27389W        W98918  16.220  18.553  10.018
27390W        W98919  20.797  39.239  11.289
27391W        W98920  30.050  35.404  10.614
27392W        W98921  33.957  39.340   1.947
27393W        W98922  24.594  31.123  11.970
27394W        W98923  10.638   8.352  11.158
27395W        W98924  12.002  33.694  14.314
27396W        W98925  14.853  40.909  11.679
27397W        W98926  37.600  19.497  11.160
27398W        W98927  39.082  19.593  12.828
27399W        W98928  18.232  44.275  10.667
27400W        W98929  36.573  32.789  13.499
27401W        W98930  18.752  30.176   2.186
27402W        W98931   4.206   4.808   0.706
27403W        W98932  40.854  32.953  12.440
27404W        W98933  14.263  36.007   0.183
27405W        W98934  20.718   9.719  12.006
27406W        W98935  25.475  12.214   1.262
27407W        W98936   3.997  30.005  13.303
27408W        W98937   0.903  11.635  10.282
27409W        W98938  26.296  34.043   3.173
27410W        W98939  38.259   2.135   3.714
27411W        W98940  29.588  14.529   0.730
27412W        W98941  38.391  26.619   2.770
27413W        W98942  14.270  10.700   4.510
27414W        W98943  31.866   0.583   0.859
27415W        W98944  29.435  43.918   4.643
27416W        W98945   6.349  17.637   4.092
27417W        W98946  16.394  36.845   1.409
27418W        W98947  43.339  14.328  14.965
27419W        W98948  34.985  20.672   2.857
27420W        W98949  17.730  35.326  11.825
27421W        W98950  25.772  25.107  14.407
27422W        W98951  32.047  43.327   3.185
27423W        W98952  44.953  31.669   4.674
27424W        W98953  26.849   9.261  13.553
27425W        W98954  23.595  31.023  12.108
27426W        W98955  38.998  10.347  12.989
27427W        W98956  18.234  16.548   3.751
27428W        W98957   2.346  19.175   4.232
27429W        W98958  32.014  43.496   1.719
27430W        W98959  18.514   3.397   1.353
27431W        W98960   3.267   9.644   0.636
27432W        W98961   1.892  28.225   3.430
27433W        W98962  36.373  42.783   3.825
27434W        W98963  12.633  43.748  13.049
27435W        W98964  35.048  37.659  10.936
27436W        W98965  27.115  44.546   0.773
27437W        W98966  28.114  42.144   1.860
27438W        W98967  40.021  11.875   1.686
27439W        W98968  14.582  23.794  12.124
27440W        W98969  19.694  15.251   4.897
27441W        W98970  30.057  23.068   0.494
27442W        W98971  20.967  30.456  12.949
27443W        W98972   3.701  37.489   3.614
27444W        W98973  27.495  35.035   2.232
27445W        W98974  19.492  43.007   3.709
27446W        W98975  16.834  37.339  10.395
27447W        W98976  42.306   8.761   3.833
27448W        W98977  16.264  44.073  13.399
27449W        W98978   9.916   4.804  14.630
27450W        W98979  31.367  41.934  13.790
27451W        W98980  25.051  25.637  14.341
27452W        W98981  25.525   2.002  11.662
27453W        W98982  25.574  36.561   0.340
27454W        W98983  13.905  39.878   0.898
27455W        W98984  30.511  33.176  12.620
27456W        W98985   5.439   7.989   3.560
27457W        W98986  35.186  11.071   0.432
27458W        W98987  42.995  38.344  12.007
27459W        W98988   3.940  42.389   3.841
27460W        W98989   9.348  30.993  13.548
27461W        W98990  35.947  33.874  12.835
27462W        W98991  31.568  32.916  12.002
27463W        W98992  34.572  23.178   4.288
27464W        W98993  29.690   8.071  13.074
27465W        W98994  39.399  18.872  12.516
27466W        W98995  27.047  44.507   1.789
27467W        W98996  12.308  35.358   3.180
27468W        W98997  21.096  26.233  14.595
27469W        W98998   2.266  24.052  12.551
27470W        W98999  13.404  26.124   2.442
27471W        W99000  37.840  39.831   1.610
27472W        W99001  37.539   1.026  14.328
27473W        W99002  21.290   1.041   2.350
27474W        W99003  24.505   9.416  13.535
27475W        W99004   4.243   0.017   1.007
27476W        W99005  35.970  31.299   3.782
27477W        W99006  28.040  38.384   4.603
27478W        W99007  18.591  39.578  13.351
27479W        W99008   7.372  15.872  10.604
27480W        W99009   4.331   4.662  14.217
27481W        W99010   2.746  33.555  11.442
27482W        W99011  40.193  22.621   0.820
27483W        W99012  11.780  18.030  13.971
27484W        W99013  43.966  18.139   0.397
27485W        W99014  17.552  21.531  14.705
27486W        W99015  19.155  25.975   2.286
27487W        W99016  15.150  33.842   4.797
27488W        W99017  41.236  31.901   1.882
27489W        W99018  25.482  33.094  11.456
27490W        W99019  35.454  15.414  13.825
27491W        W99020   6.950   1.580   1.205
27492W        W99021  44.835  14.037  14.287
27493W        W99022  23.432   8.333   1.485
27494W        W99023  18.530  40.837  11.124
27495W        W99024   0.557  16.053   1.739
27496W        W99025  44.573  27.984  13.509
27497W        W99026  30.903  28.685   0.797
27498W        W99027  31.115   7.276   1.997
27499W        W99028  12.044  28.928   0.437
27500W        W99029  33.533  39.825  12.235
27501W        W99030  40.355  31.397  11.983
27502W        W99031  35.919  43.032  12.950
27503W        W99032  41.684  42.353   3.219
27504W        W99033  43.424   0.290   3.699
27505W        W99034  35.376  29.611  14.021
27506W        W99035  36.689  44.936   0.835
27507W        W99036   4.423  19.085  10.529
27508W        W99037   7.696  30.686  12.465
27509W        W99038  18.715  36.568   2.641
27510W        W99039   1.052  26.361   5.126
27511W        W99040  13.272  41.068  14.879
27512W        W99041  38.893  40.528   4.198
27513W        W99042  25.801  10.383   1.770
27514W        W99043  22.724  20.022  13.912
27515W        W99044   9.058  40.006  13.899
27516W        W99045  13.298  27.409   3.522
27517W        W99046   1.839  42.297  13.481
27518W        W99047  35.800  13.635   2.712
27519W        W99048  44.879  28.061   3.168
27520W        W99049  36.404  20.091   3.744
27521W        W99050  24.301  41.829   4.327
27522W        W99051  24.184   6.252   2.739
27523W        W99052  11.418  25.538   2.208
27524W        W99053   9.431  14.894   4.678
27525W        W99054  16.709   5.746  12.834
27526W        W99055   1.197   9.413   2.800
27527W        W99056  30.165  37.456   1.373
27528W        W99057  43.935  43.315  13.498
27529W        W99058   8.615  18.093  10.601
27530W        W99059  17.349   0.750   0.710
27531W        W99060  44.953   4.730  10.764
27532W        W99061   7.048  31.137  12.440
27533W        W99062  29.272  10.175   0.253
27534W        W99063  31.876  44.407  14.344
27535W        W99064  14.373  10.184   4.483
27536W        W99065  25.107  34.045   3.309
27537W        W99066  44.769   8.754  12.892
27538W        W99067  35.457  30.569   0.384
27539W        W99068   3.414  39.424   4.129
27540W        W99069   5.669  37.919  12.987
27541W        W99070  40.986  16.656  11.145
27542W        W99071  15.679  40.134   3.192
27543W        W99072  12.817  35.526   3.111
27544W        W99073  30.936  39.926   0.245
27545W        W99074   2.881   6.839   4.658
27546W        W99075  27.443  23.131  12.340
27547W        W99076  36.862   5.176   3.185
27548W        W99077  38.592  27.495   4.038
27549W        W99078  15.416   3.419   0.403
27550W        W99079  18.215  24.371  11.860
27551W        W99080  10.348  23.256  13.467
27552W        W99081  10.034  37.472  11.298
27553W        W99082  24.411   8.345   1.985
27554W        W99083  39.952  13.961  13.956
27555W        W99084  13.201  25.606   0.297
27556W        W99085   4.270  26.675   4.082
27557W        W99086  41.739  23.196   2.774
27558W        W99087  34.946  31.051   2.760
27559W        W99088  34.166  23.684  14.504
27560W        W99089  35.572  15.555  11.795
27561W        W99090  22.944  31.896   4.606
27562W        W99091   8.302  21.732   0.916
27563W        W99092  30.392  35.131  11.528
27564W        W99093  20.256  22.353   2.778
27565W        W99094  34.577   8.155   2.142
27566W        W99095   2.418  20.052  12.452
27567W        W99096  34.130  14.832  12.148
27568W        W99097  30.781   4.868  14.831
27569W        W99098  27.959  24.597  10.149
27570W        W99099  22.624  28.552   0.027
27571W        W99100  37.898  30.705   0.775
27572W        W99101  19.777  13.801   0.188
27573W        W99102  20.216   9.203   1.708
27574W        W99103   6.233   6.891   4.408
27575W        W99104   3.346  18.993   0.354
27576W        W99105  17.581   0.410   3.883
27577W        W99106   6.881  16.310  12.252
27578W        W99107   8.736  34.186   1.272
27579W        W99108   9.093  44.019   2.283
27580W        W99109  29.016  31.159  13.081
27581W        W99110   4.844  42.310   1.932
27582W        W99111  19.525   8.692   4.364
27583W        W99112  13.661  16.868  12.011
27584W        W99113  15.130   4.680  11.016
27585W        W99114  44.989  28.025  10.022
27586W        W99115   6.476  33.120  13.871
27587W        W99116  11.113  27.239   4.504
27588W        W99117  29.737  12.835   5.322
27589W        W99118  34.244  26.409  14.717
27590W        W99119  10.811  32.156   3.301
27591W        W99120  31.955  20.644   1.284
27592W        W99121  38.176  25.451   0.793
27593W        W99122  37.915  38.670   4.006
27594W        W99123  30.839  24.205   4.037
27595W        W99124   4.223  16.098  14.431
27596W        W99125  37.449  35.976   0.857
27597W        W99126   8.884  39.609   4.162
27598W        W99127   1.272  20.256  10.786
27599W        W99128  32.650  17.571   4.052
27600W        W99129  33.095   0.292   0.187
27601W        W99130  21.113  17.352  11.139
27602W        W99131  36.815  26.261  13.640
27603W        W99132   7.274  34.484   1.411
27604W        W99133  11.074   2.971   4.697
27605W        W99134   7.869  22.659   0.256
27606W        W99135  11.392   5.657   1.466
27607W        W99136  21.731   2.975  10.801
27608W        W99137  29.955  41.969  12.445
27609W        W99138  20.724  42.936   1.966
27610W        W99139  22.678   7.949  14.054
27611W        W99140   2.050  41.854   3.677
27612W        W99141  43.691  10.110   0.313
27613W        W99142  32.917  22.437  11.673
27614W        W99143   9.269  35.867   1.655
27615W        W99144   7.377  41.983  12.611
27616W        W99145   7.876   9.602   1.974
27617W        W99146  26.037   0.295   4.101
27618W        W99147   8.852  27.642   1.290
27619W        W99148  10.429  42.593  13.745
27620W        W99149  20.661  42.612   4.527
27621W        W99150   5.302  17.169  14.434
27622W        W99151   1.435   6.798   3.185
27623W        W99152  34.465   4.332   2.016
27624W        W99153  36.048  11.387   0.866
27625W        W99154  10.824   8.400   0.168
27626W        W99155  32.642  16.241  11.102
27627W        W99156  32.881   7.937  11.589
27628W        W99157  28.978  29.094   1.421
27629W        W99158  15.912   6.787   5.477
27630W        W99159  33.645  23.726  14.475
27631W        W99160  26.646  42.453   1.720
27632W        W99161  23.619   2.426  14.118
27633W        W99162  26.179   6.702   3.749
27634W        W99163  43.333   0.306  12.057
27635W        W99164  37.031   7.739   1.448
27636W        W99165  10.868  37.355  10.898
27637W        W99166  24.380   0.974  10.223
27638W        W99167  31.931   1.991  13.992
27639W        W99168  11.686   3.541  14.968
27640W        W99169   4.636   1.688  11.214
27641W        W99170  25.321   3.424  12.054
27642W        W99171  12.301  29.315  14.515
27643W        W99172  17.595  36.927   4.436
27644W        W99173  36.816   1.787  10.666
27645W        W99174  13.565  24.142   1.886
27646W        W99175  19.823   7.732   3.351
27647W        W99176   2.240  36.590  12.312
27648W        W99177  36.081  43.542  12.061
27649W        W99178   6.063  25.212  14.306
27650W        W99179  32.029  37.597  14.573
27651W        W99180  44.928  16.013  14.365
27652W        W99181   8.431  12.828   1.096
27653W        W99182   7.942  34.567  10.918
27654W        W99183  43.702  18.648   3.557
27655W        W99184  42.569   8.325   3.637
27656W        W99185  41.967  36.017  13.437
27657W        W99186  15.140  35.070   3.124
27658W        W99187  31.970  12.129  13.989
27659W        W99188  43.839  24.988  11.726
27660W        W99189  27.996  15.316   4.215
27661W        W99190  36.876  43.412  14.332
27662W        W99191  16.327  41.128  12.513
27663W        W99192  35.353  40.317  14.956
27664W        W99193  44.331  36.627  10.378
27665W        W99194   7.602  31.128   2.379
27666W        W99195  31.400   7.764   1.852
27667W        W99196  27.424   6.233  13.970
27668W        W99197  41.749  33.114   0.401
27669W        W99198  40.978  19.286  12.014
27670W        W99199  30.408  25.304   0.909
27671W        W99200  28.206  24.403  14.504
27672W        W99201  26.986  23.266  12.123
27673W        W99202  34.523   5.804   4.653
27674W        W99203  41.359   3.238  14.524
27675W        W99204  24.420  21.222  13.469
27676W        W99205  42.887  22.903  12.447
27677W        W99206  21.290  38.427  13.449
27678W        W99207   2.684  23.386   0.738
27679W        W99208  22.026  14.749  10.758
27680W        W99209  12.584  37.596  10.504
27681W        W99210   6.213  16.596   1.768
27682W        W99211  12.876  32.861  14.805
27683W        W99212  32.407  22.987  14.800
27684W        W99213  40.024  21.212   4.161
27685W        W99214   8.355  34.347   3.339
27686W        W99215  20.955  39.363  14.417
27687W        W99216   2.643   5.792  11.123
27688W        W99217  27.065  38.517   3.730
27689W        W99218   5.299  20.813  13.838
27690W        W99219  38.215  35.471   2.742
27691W        W99220   2.472  27.408   0.895
27692W        W99221   8.192  39.137   4.474
27693W        W99222  37.678  15.042   1.864
27694W        W99223  15.981   4.725  13.511
27695W        W99224   3.877  42.275  13.344
27696W        W99225  32.917  24.738  12.025
27697W        W99226  38.427  29.330   0.960
27698W        W99227  15.581  30.369   5.122
27699W        W99228  36.538  44.345   2.911
27700W        W99229  31.511  27.341  10.307
27701W        W99230   0.823  32.630  11.622
27702W        W99231   3.814  34.775   2.182
27703W        W99232  38.511   3.730   2.319
27704W        W99233  38.630  29.815  12.102
27705W        W99234  20.704   5.190   3.550
27706W        W99235   8.584  39.570  13.130
27707W        W99236  10.989  31.842   3.665
27708W        W99237  13.839  21.212  13.046
27709W        W99238  40.597  30.467   4.566
27710W        W99239  34.376  22.466  10.586
27711W        W99240  16.287   3.191  12.131
27712W        W99241  21.691   2.396   4.232
27713W        W99242  20.209  16.023  11.842
27714W        W99243  17.161  36.648  14.719
27715W        W99244   3.383  10.609  12.172
27716W        W99245  31.526  38.415  11.412
27717W        W99246  40.937   3.753  10.395
27718W        W99247  39.392  19.002  11.640
27719W        W99248   2.515   6.034  13.394
27720W        W99249   0.639  40.456  10.829
27721W        W99250  22.328  10.209   0.949
27722W        W99251  28.678  33.460   0.787
27723W        W99252  42.713  24.746   0.311
27724W        W99253  38.992  38.853   2.765
27725W        W99254   6.780  37.047   1.013
27726W        W99255  19.178  31.188  13.995
27727W        W99256   4.667  17.069   1.693
27728W        W99257   7.404  15.186  13.501
27729W        W99258  10.184  19.410  13.839
27730W        W99259  18.285  29.882  13.542
27731W        W99260   9.159   7.317   3.151
27732W        W99261   1.593  18.381   1.765
27733W        W99262   3.177  22.436  14.923
27734W        W99263  15.322   0.736   4.128
27735W        W99264  14.723  34.880   4.321
27736W        W99265  22.190  11.655  12.676
27737W        W99266  15.545  12.559   1.474
27738W        W99267  15.860  29.928  10.827
27739W        W99268  32.617  18.197  12.104
27740W        W99269  35.949  24.590   3.326
27741W        W99270  20.476  35.950   4.194
27742W        W99271  36.618  34.149   2.721
27743W        W99272   4.558  21.543  13.897
27744W        W99273  44.300  43.870  12.077
27745W        W99274  38.906  41.352  11.127
27746W        W99275  25.905  39.429   0.532
27747W        W99276  24.183  12.051   3.292
27748W        W99277  19.249  11.674   1.776
27749W        W99278  37.478   8.903   4.602
27750W        W99279  37.038   7.916  12.625
27751W        W99280  33.195  13.689  12.909
27752W        W99281  10.244   9.702  13.310
27753W        W99282  27.435  14.196   2.739
27754W        W99283  11.395   1.638   4.985
27755W        W99284  13.889   7.313  12.215
27756W        W99285  33.304   2.791  14.963
27757W        W99286   5.025   4.404  12.189
27758W        W99287  23.474  30.612   1.309
27759W        W99288   8.408   3.223   3.960
27760W        W99289  15.723  28.427  11.171
27761W        W99290  12.590  23.531  12.998
27762W        W99291  23.693  38.402  14.139
27763W        W99292  36.003  17.594  10.746
27764W        W99293  30.378  38.141  11.560
27765W        W99294   2.954  17.125  13.881
27766W        W99295  16.129  24.964   1.871
27767W        W99296  41.972  18.516  12.963
27768W        W99297  29.535  34.029   1.004
27769W        W99298  43.551  42.900  11.642
27770W        W99299   4.650   4.075  11.375
27771W        W99300  33.404  33.681   2.456
27772W        W99301  11.156  10.866   4.209
27773W        W99302  34.865  19.810  10.604
27774W        W99303  38.367  16.289   3.937
27775W        W99304  15.215  31.817   3.714
27776W        W99305   8.488  27.541   4.768
27777W        W99306  34.224  13.743  13.233
27778W        W99307   7.795   2.745   4.806
27779W        W99308   7.237  29.896  12.636
27780W        W99309   0.020   5.160  12.829
27781W        W99310  18.782  38.464  11.281
27782W        W99311   1.174  14.144   2.266
27783W        W99312  18.634  27.178  13.419
27784W        W99313   1.136  32.893  14.477
27785W        W99314  16.977  24.725  11.482
27786W        W99315   4.313  13.270  12.615
27787W        W99316  36.342  24.520  14.574
27788W        W99317   2.863   8.480  13.412
27789W        W99318  10.217  22.169  10.960
27790W        W99319  42.225  30.020   4.556
27791W        W99320  22.968   2.430  10.544
27792W        W99321  15.548   4.741   2.332
27793W        W99322  19.534  29.527  13.794
27794W        W99323  31.850  22.748  10.692
27795W        W99324  44.924  20.953  13.353
27796W        W99325  44.550  14.727  10.861
27797W        W99326   9.983   7.830  12.150
27798W        W99327  17.394   7.323  11.650
27799W        W99328  41.074  43.788   3.297
27800W        W99329  10.082   6.283  14.301
27801W        W99330  20.349  33.026  14.970
27802W        W99331  11.024  39.385  10.862
27803W        W99332  22.138   1.700   4.438
27804W        W99333  32.707  28.215   3.560
27805W        W99334  43.246  37.272   2.811
27806W        W99335  21.688  41.074   3.678
27807W        W99336  24.741   7.868   3.611
27808W        W99337   1.732  30.542   4.904
27809W        W99338  37.837  25.468   1.220
27810W        W99339  32.748  11.011  12.420
27811W        W99340  28.194  18.515  12.392
27812W        W99341   9.644  13.195   3.280
27813W        W99342   2.517   6.663   4.018
27814W        W99343   0.771   1.600  11.233
27815W        W99344  34.737  27.997  10.340
27816W        W99345   6.172  12.291  13.434
27817W        W99346  37.581  39.333  12.567
27818W        W99347  36.815  29.594   2.258
27819W        W99348   1.922  39.625   3.993
27820W        W99349  26.260  34.498   2.873
27821W        W99350  14.406  13.288   1.520
27822W        W99351  38.996  32.384  11.217
27823W        W99352  36.281  16.217  10.632
27824W        W99353  12.249  21.518  12.347
27825W        W99354   6.688  24.365   1.877
27826W        W99355  20.664  22.742   2.697
27827W        W99356  31.823   3.804   0.114
27828W        W99357  33.071  44.222  14.807
27829W        W99358  33.304   8.068  11.853
27830W        W99359  36.630  20.672   0.676
27831W        W99360  42.493   4.701  13.572
27832W        W99361  43.480  12.333  14.958
27833W        W99362   2.158  15.882  13.412
27834W        W99363  40.550  18.594   3.154
27835W        W99364   4.262  31.240  11.833
27836W        W99365  38.880   3.396   0.397
27837W        W99366  22.373  32.580   4.439
27838W        W99367  25.505   2.764   4.819
27839W        W99368   9.351  35.501  13.463
27840W        W99369  29.172  28.187  14.975
27841W        W99370  38.354  33.128  14.806
27842W        W99371  42.435  42.559  13.010
27843W        W99372  27.168  42.982   3.008
27844W        W99373  22.666  16.058   0.459
27845W        W99374  26.215  20.930  13.909
27846W        W99375  13.065  31.410   3.777
27847W        W99376  38.480  12.631  14.405
27848W        W99377  24.659  39.343   2.868
27849W        W99378  29.687  38.149  13.946
27850W        W99379  39.880  31.777   0.845
27851W        W99380  18.685  21.264  14.739
27852W        W99381  26.739  23.577   2.876
27853W        W99382  35.089   0.993  12.881
27854W        W99383   6.758  40.989  11.475
27855W        W99384  17.708  10.300  14.288
27856W        W99385  36.422   2.511  12.321
27857W        W99386  19.021  29.588   3.592
27858W        W99387  30.757  19.013   3.258
27859W        W99388  44.946   9.094   0.192
27860W        W99389  29.695  15.917  10.309
27861W        W99390  11.699  19.542   0.686
27862W        W99391  21.426   5.117  10.167
27863W        W99392  20.535   7.701   4.572
27864W        W99393  16.208  39.825  12.431
27865W        W99394  11.224  22.802   0.365
27866W        W99395  25.727  21.605  12.446
27867W        W99396  18.039  26.161  10.388
27868W        W99397  43.636  15.658  12.744
27869W        W99398  24.122   5.204  12.219
27870W        W99399  18.048  10.260  11.696
27871W        W99400   8.641   0.534  13.998
27872W        W99401   6.362  33.531   2.150
27873W        W99402  26.692  18.709   2.996
27874W        W99403  42.213  14.085   0.245
27875W        W99404  20.281  27.036   0.355
27876W        W99405   1.492  10.607  12.356
27877W        W99406  32.262  28.019   4.276
27878W        W99407  13.202  11.364   0.942
27879W        W99408   4.398  26.804   5.082
27880W        W99409  13.121  24.504  10.995
27881W        W99410  34.940  15.828   2.347
27882W        W99411  37.278  36.066  14.455
27883W        W99412  31.917  28.090   1.408
27884W        W99413  12.188  17.949  12.642
27885W        W99414   4.745  29.149   0.877
27886W        W99415  33.494  24.137   2.717
27887W        W99416  44.959   5.740  12.134
27888W        W99417  11.642  23.948   4.696
27889W        W99418   4.199   1.465  11.108
27890W        W99419  31.681  39.609  12.851
27891W        W99420  32.232  22.544  14.497
27892W        W99421  13.355  17.270   2.208
27893W        W99422  21.932   7.502   3.159
27894W        W99423   5.706  27.102   3.139
27895W        W99424   4.884  12.531   4.192
27896W        W99425  25.051  23.528  11.525
27897W        W99426  35.105  30.070   0.360
27898W        W99427  23.230  36.855   1.325
27899W        W99428  10.124  27.630  10.235
27900W        W99429  23.137  31.872  12.214
27901W        W99430  23.218  32.054  10.690
27902W        W99431  38.220  33.540  13.064
27903W        W99432   0.230  32.935  12.062
27904W        W99433   4.088  33.520  11.786
27905W        W99434   4.315  39.475   3.941
27906W        W99435  13.120   0.803   5.414
27907W        W99436  30.640   7.815   1.330
27908W        W99437  22.815  14.877   3.607
27909W        W99438  36.062  11.983   3.514
27910W        W99439   2.195  33.871  12.995
27911W        W99440  34.277  12.483  12.987
27912W        W99441  31.583   0.392  13.980
27913W        W99442  17.757   4.152   2.386
27914W        W99443  33.571  17.253   2.836
27915W        W99444  17.465  42.061   4.195
27916W        W99445  24.201   7.627   0.371
27917W        W99446  19.778   6.797   0.964
27918W        W99447   0.186  41.750  12.405
27919W        W99448  22.638  25.246   0.858
27920W        W99449  16.169   0.372   0.656
27921W        W99450  23.487  20.649   0.920
27922W        W99451  27.892  40.023   1.209
27923W        W99452  44.255  28.176  12.549
27924W        W99453  43.047  26.394   2.642
27925W        W99454  22.545  25.020   2.762
27926W        W99455   1.886   6.352  11.543
27927W        W99456  21.086  29.217   0.911
27928W        W99457  40.315  34.016   4.280
27929W        W99458  26.663  20.673   2.294
27930W        W99459   6.137  16.012   2.862
27931W        W99460  12.569  12.220  11.646
27932W        W99461  24.658  18.207  13.405
27933W        W99462   9.865   8.622   1.511
27934W        W99463  28.404  33.583   1.284
27935W        W99464   0.382  28.709  11.288
27936W        W99465  37.906  17.720   2.787
27937W        W99466  29.420  17.759  11.847
27938W        W99467  22.090   9.858   0.186
27939W        W99468  20.506  21.703   1.173
27940W        W99469  26.954  39.188  11.095
27941W        W99470   4.907  42.935   4.499
27942W        W99471  24.472  32.505  13.503
27943W        W99472  11.916  39.992   2.096
27944W        W99473   2.748   4.751   0.959
27945W        W99474   6.990  38.489   0.896
27946W        W99475   9.332  34.813   3.679
27947W        W99476  37.334  33.322  14.596
27948W        W99477  21.141   1.283   0.796
27949W        W99478  29.458   6.924   2.346
27950W        W99479  22.939  16.864   4.541
27951W        W99480   0.331  13.158   3.720
27952W        W99481  21.535   4.880   4.289
27953W        W99482  42.355  23.178  14.501
27954W        W99483  30.641  22.006   2.262
27955W        W99484  15.065  26.895   0.832
27956W        W99485  10.842  34.498  13.269
27957W        W99486  40.348  26.710  13.385
27958W        W99487  29.215  20.049  12.008
27959W        W99488   0.053  32.423  14.350
27960W        W99489  40.766  25.175   1.163
27961W        W99490  29.237   6.736  11.167
27962W        W99491   3.853   8.362  14.424
27963W        W99492  21.743  10.872   4.720
27964W        W99493  33.964  35.387   4.187
27965W        W99494  34.167  28.115   2.242
27966W        W99495  20.622  25.573  13.534
27967W        W99496  19.900  43.804  11.234
27968W        W99497  22.980  24.392   3.243
27969W        W99498  25.541  34.819   2.857
27970W        W99499   4.269  29.713   3.256
27971W        W99500  34.859  26.110   9.888
27972W        W99501  19.892  17.514   4.999
27973W        W99502  19.251  16.411  13.283
27974W        W99503  30.702   1.420   3.830
27975W        W99504  19.264  28.211  11.482
27976W        W99505   1.806  19.628   1.917
27977W        W99506   1.592  24.356  14.958
27978W        W99507   9.634  10.613   2.530
27979W        W99508  44.809  19.850   0.650
27980W        W99509   0.825  36.066   4.708
27981W        W99510  38.012  27.403   0.337
27982W        W99511  15.322  17.027  10.565
27983W        W99512  31.447  42.757  14.304
27984W        W99513  32.613  14.583   4.308
27985W        W99514  27.006  21.561   0.997
27986W        W99515  33.568  34.915  12.042
27987W        W99516  33.790  41.236  12.687
27988W        W99517  41.611  26.542  12.058
27989W        W99518   1.773  36.617   1.214
27990W        W99519  29.851  41.909  10.705
27991W        W99520   3.560  20.597   1.313
27992W        W99521  26.102  31.007  10.816
27993W        W99522   7.132  10.637   4.212
27994W        W99523  43.009   2.156   2.302
27995W        W99524   1.836  20.135   1.277
27996W        W99525  16.821  19.277  12.415
27997W        W99526  21.671  42.997  11.968
27998W        W99527  28.631   3.821   2.742
27999W        W99528  44.776  23.842  12.406
28000W        W99529  22.710  35.436   3.524
28001W        W99530  33.611  39.221   4.995
28002W        W99531  30.231   9.858   2.251
28003W        W99532  10.284  14.186  14.102
28004W        W99533  14.091  22.429  11.826
28005W        W99534  26.457   1.357   0.159
28006W        W99535  11.840  21.758  10.714
28007W        W99536  22.472   3.681  14.874
28008W        W99537   3.169   5.821   0.417
28009W        W99538  39.452  12.025  11.615
28010W        W99539  34.843  26.124  12.718
28011W        W99540  23.153  30.046   2.641
28012W        W99541  10.743  13.184  13.296
28013W        W99542  36.340  22.150  14.353
28014W        W99543  38.703  44.876   2.340
28015W        W99544  38.639  19.644   0.801
28016W        W99545  15.388   1.021   5.118
28017W        W99546  19.460  27.399  11.696
28018W        W99547  27.315  19.633   5.087
28019W        W99548  17.604  27.890  13.620
28020W        W99549   6.320   0.763  13.041
28021W        W99550  24.614  30.431  12.636
28022W        W99551   7.963   0.483   0.829
28023W        W99552  22.135   1.362   3.744
28024W        W99553   0.184  35.131   3.292
28025W        W99554  38.529  40.838   1.690
28026W        W99555  23.562  36.432  10.945
28027W        W99556   7.603  35.789  14.052
28028W        W99557  24.562  17.014   1.184
28029W        W99558  27.027   9.885   0.815
28030W        W99559  32.877  19.516   0.210
28031W        W99560  18.855  27.427  12.532
28032W        W99561  38.918  34.141  11.375
28033W        W99562   5.241  28.016   9.974
28034W        W99563  29.405  35.628   3.883
28035W        W99564   3.935   1.965   3.657
28036W        W99565  25.308  15.816   1.959
28037W        W99566  44.450  36.353  11.494
28038W        W99567   2.063   9.559   2.193
28039W        W99568  37.342  36.521   2.770
28040W        W99569  16.083   9.854   2.883
28041W        W99570  43.075  22.091  14.926
28042W        W99571   6.988  19.562   1.844
28043W        W99572   7.334  24.118  11.575
28044W        W99573  30.093  21.952   4.112
28045W        W99574  23.040   5.474  13.549
28046W        W99575  44.997  12.208  14.768
28047W        W99576   8.251  15.672   1.371
28048W        W99577   0.006   8.077   1.842
28049W        W99578  29.981  14.609   2.268
28050W        W99579   9.682  12.707  11.143
28051W        W99580  11.447  44.020  13.332
28052W        W99581  30.049  24.487  14.615
28053W        W99582  20.873  12.546   4.916
28054W        W99583  34.377  10.329   3.272
28055W        W99584  18.492  41.257   2.116
28056W        W99585  42.060   1.240   3.121
28057W        W99586   4.084  32.549  13.172
28058W        W99587  14.822  40.195  12.975
28059W        W99588  11.541  25.248  14.214
28060W        W99589  29.616  38.900   1.398
28061W        W99590  30.265  19.810  12.509
28062W        W99591  30.664  27.958  11.518
28063W        W99592   1.259  34.152   1.558
28064W        W99593  22.746  23.220   0.759
28065W        W99594  38.564   4.267  11.572
28066W        W99595  11.051  33.030   0.144
28067W        W99596   6.529  24.561  12.634
28068W        W99597  18.351   9.721   4.616
28069W        W99598  25.796  35.346   3.620
28070W        W99599  34.241   4.756   2.812
28071W        W99600  19.271  43.788  12.392
28072W        W99601  36.825  32.568  11.462
28073W        W99602  43.933  43.558  11.953
28074W        W99603  41.848  42.569  12.374
28075W        W99604  32.955   6.715  11.593
28076W        W99605  26.707  33.578  11.403
28077W        W99606  21.673  12.001  12.336
28078W        W99607  38.465  37.351  11.403
28079W        W99608  12.742   1.648   4.389
28080W        W99609  41.067  31.433   4.740
28081W        W99610  38.874  27.648   4.459
28082W        W99611   5.956   0.412   2.498
28083W        W99612  25.286  32.357  12.457
28084W        W99613  19.260   6.370   4.628
28085W        W99614  18.585  13.736  13.960
28086W        W99615   8.927  30.940   0.469
28087W        W99616  24.030  13.701  12.769
28088W        W99617  41.256  41.843  13.826
28089W        W99618  24.974  28.648   2.350
28090W        W99619  20.519   8.905   3.690
28091W        W99620  12.722   3.192   3.649
28092W        W99621  17.110  16.985  13.537
28093W        W99622   6.854  44.777   1.174
28094W        W99623  34.340  37.044  14.073
28095W        W99624   9.693   4.217  14.821
28096W        W99625   2.771  32.310  14.538
28097W        W99626  31.564   5.393  12.084
28098W        W99627   5.996  35.041   0.304
28099W        W99628  19.045  16.728   3.169
28100W        W99629   6.239  26.654  10.202
28101W        W99630  23.249  13.753   1.228
28102W        W99631  17.137  34.435  14.552
28103W        W99632   2.283  22.185  14.836
28104W        W99633  11.218  10.402   3.090
28105W        W99634  11.295  16.858  11.387
28106W        W99635  29.493   8.714  14.332
28107W        W99636  43.911   8.042   3.380
28108W        W99637  27.433  18.906  12.136
28109W        W99638  32.164  40.337  11.867
28110W        W99639  35.828   1.836  11.572
28111W        W99640  20.293  10.643  12.014
28112W        W99641  11.808   0.259  13.122
28113W        W99642  33.441  44.363   0.661
28114W        W99643  35.077  10.565   4.855
28115W        W99644   5.906  25.863  14.961
28116W        W99645  35.855  41.275  12.426
28117W        W99646   1.533   2.908   2.175
28118W        W99647   1.370  16.074   2.897
28119W        W99648  13.199  23.803  14.636
28120W        W99649   0.329   7.659   3.729
28121W        W99650  34.978  32.616   3.240
28122W        W99651  37.262  12.410   1.172
28123W        W99652  16.469  44.521   4.662
28124W        W99653  41.835  19.798   1.517
28125W        W99654  20.967  23.662   3.691
28126W        W99655  38.286  21.620   4.681
28127W        W99656  11.736   4.932  14.286
28128W        W99657  38.107  38.538   1.187
28129W        W99658  28.761  28.444   5.112
28130W        W99659   9.336   8.275   3.255
28131W        W99660  34.490  23.700   0.498
28132W        W99661  13.051  12.136   2.785
28133W        W99662  21.696   3.841  13.771
28134W        W99663  18.935  14.994   4.053
28135W        W99664   9.189  33.320   1.004
28136W        W99665  44.853  41.831  11.195
28137W        W99666  21.115  17.833   4.508
28138W        W99667  34.340  29.583   3.732
28139W        W99668   4.792  27.558   0.471
28140W        W99669   3.461   7.890  14.567
28141W        W99670  14.622  18.138   2.640
28142W        W99671  10.090   5.129  12.864
28143W        W99672   4.227  10.750   0.859
28144W        W99673  23.970  17.171  14.953
28145W        W99674  23.614  10.645   0.348
28146W        W99675  28.627  31.904  10.784
28147W        W99676  32.020   7.777   4.087
28148W        W99677  15.114  18.079   2.854
28149W        W99678  21.920  17.996  12.452
28150W        W99679  43.428  11.581  13.542
28151W        W99680  42.880  22.465  12.682
28152W        W99681  22.497  31.490  11.674
28153W        W99682  27.758   4.718   4.147
28154W        W99683   0.436  30.736  11.617
28155W        W99684  18.056  32.518  14.858
28156W        W99685  27.161  38.217  11.113
28157W        W99686  23.186  35.111   2.910
28158W        W99687  32.017   1.669   1.624
28159W        W99688  14.380  31.492  11.633
28160W        W99689  26.595  19.807   2.853
28161W        W99690  33.266  23.026  12.440
28162W        W99691   7.596  16.230  14.352
28163W        W99692  26.701  14.289   0.347
28164W        W99693  16.689  12.918   1.721
28165W        W99694  44.748  15.318  11.543
28166W        W99695  23.758  21.472   1.404
28167W        W99696  11.664  26.381   5.066
28168W        W99697  17.496  37.397   0.914
28169W        W99698   9.437  32.351   0.861
28170W        W99699  24.992  40.534   0.988
28171W        W99700  29.330   3.741   1.665
28172W        W99701  22.632  30.979   1.266
28173W        W99702  23.557  26.196   3.545
28174W        W99703   2.418  28.793  13.040
28175W        W99704  21.095  22.076   4.071
28176W        W99705  33.054  26.682   1.970
28177W        W99706  29.588  36.186  13.914
28178W        W99707  22.721  13.144  13.191
28179W        W99708  14.781   0.851   1.423
28180W        W99709  13.029  38.842  12.072
28181W        W99710  40.233  13.180  10.619
28182W        W99711  10.439  21.050   2.246
28183W        W99712  31.454  25.784   3.963
28184W        W99713   3.297  27.047  10.331
28185W        W99714  29.332  40.383  13.447
28186W        W99715  23.028  12.866   0.743
28187W        W99716  18.476  12.155  11.522
28188W        W99717  43.596   2.217  13.529
28189W        W99718  14.365  20.747   1.392
28190W        W99719  19.228  10.476   2.378
28191W        W99720  15.685  22.042  14.415
28192W        W99721  37.305   4.664  11.342
28193W        W99722  39.462  43.060  14.269
28194W        W99723  13.686  21.300   1.777
28195W        W99724  31.897  43.827  13.039
28196W        W99725  38.482  28.393  13.279
28197W        W99726  17.517  34.165  10.775
28198W        W99727   3.216  17.116  14.339
28199W        W99728  38.960   4.409   4.495
28200W        W99729  35.563   6.274   0.285
28201W        W99730   8.389  25.400  14.888
28202W        W99731   0.385   5.487   2.590
28203W        W99732   2.306  39.019  13.855
28204W        W99733   9.521   6.871   3.829
28205W        W99734  26.851  10.155  11.923
28206W        W99735  41.231  22.677  14.014
28207W        W99736  16.434   4.760   4.761
28208W        W99737  34.111  38.005  13.979
28209W        W99738   9.115  43.459  13.290
28210W        W99739  27.711  19.498   4.125
28211W        W99740  38.837  13.649   3.059
28212W        W99741  39.806  43.824  10.546
28213W        W99742  13.753  26.158   0.813
28214W        W99743   3.938  12.749   3.783
28215W        W99744   5.318   8.014  13.979
28216W        W99745  42.418  14.083   1.443
28217W        W99746  30.048  13.274   3.279
28218W        W99747  37.689  10.730  12.436
28219W        W99748  38.039  20.526  10.712
28220W        W99749  10.769  19.542  11.169
28221W        W99750  31.068  38.909   0.536
28222W        W99751   1.479  15.257  10.790
28223W        W99752  32.379   4.712   3.754
28224W        W99753  25.548   3.517  13.849
28225W        W99754  41.262  31.230   3.118
28226W        W99755  37.080  31.530  10.619
28227W        W99756  42.708  41.812   4.282
28228W        W99757  16.544   2.839  12.866
28229W        W99758  33.495  27.543   1.200
28230W        W99759  14.186   1.289  13.807
28231W        W99760  40.422  42.551   5.195
28232W        W99761  10.720  35.350  13.338
28233W        W99762  22.516  21.116   0.933
28234W        W99763  26.986  18.166  12.295
28235W        W99764  15.618  42.544  13.697
28236W        W99765  11.248  38.304  14.550
28237W        W99766   8.194  27.044   2.994
28238W        W99767  42.276  40.519  13.483
28239W        W99768  10.408  13.217   5.057
28240W        W99769  30.947  14.008   3.711
28241W        W99770   6.748  15.785   0.109
28242W        W99771  19.033   6.851  14.028
28243W        W99772  20.944  26.630   1.948
28244W        W99773  28.489  44.393   3.359
28245W        W99774  17.807  44.537  10.698
28246W        W99775   3.539  38.279   0.011
28247W        W99776   7.461   5.917  13.137
28248W        W99777  44.408  24.122   4.584
28249W        W99778  42.895  31.059   4.139
28250W        W99779   5.400  24.017   4.203
28251W        W99780  27.596  13.197   2.389
28252W        W99781  18.756  43.715   4.179
28253W        W99782  37.973  14.765   3.183
28254W        W99783   9.190  12.478  10.817
28255W        W99784   0.358   4.271   3.231
28256W        W99785  26.025  23.461  14.240
28257W        W99786  39.507  21.531   2.885
28258W        W99787  29.665  11.291  13.886
28259W        W99788  42.511   9.712   1.438
28260W        W99789   3.607  20.135   1.908
28261W        W99790   5.817  42.027  11.649
28262W        W99791  23.029  29.194  11.853
28263W        W99792  19.510  29.741   3.643
28264W        W99793  38.126  21.610   3.357
28265W        W99794   1.494  23.432  10.746
28266W        W99795  28.887  33.691   4.026
28267W        W99796  14.542  32.925  12.604
28268W        W99797  40.584  41.792   0.773
28269W        W99798  43.918   2.654   4.142
28270W        W99799   3.929  33.137   1.956
28271W        W99800  15.331  42.440  11.721
28272W        W99801  27.462   5.750  13.780
28273W        W99802  29.925  38.316   1.848
28274W        W99803  20.313  28.055  13.486
28275W        W99804  33.336  20.645  11.507
28276W        W99805  28.005  24.599  12.629
28277W        W99806   4.413  35.718   2.932
28278W        W99807  31.812   5.237   3.159
28279W        W99808  20.578  27.516  11.380
28280W        W99809  20.552  21.107   2.397
28281W        W99810  27.147   8.379  14.370
28282W        W99811  20.079  41.101   0.441
28283W        W99812  18.034  10.444   2.434
28284W        W99813  21.669  43.893  10.594
28285W        W99814  20.306  32.918  11.601
28286W        W99815   0.402  30.004   2.673
28287W        W99816   4.628   8.556  13.922
28288W        W99817   1.661  32.082  14.735
28289W        W99818   1.980  11.206   2.381
28290W        W99819  33.039   0.295   1.367
28291W        W99820   4.733  19.671  13.429
28292W        W99821  23.578  18.541   2.366
28293W        W99822  37.341  26.648   2.818
28294W        W99823   2.315  37.541   4.200
28295W        W99824  19.152  28.219   1.715
28296W        W99825  17.745  28.142   5.580
28297W        W99826  31.556  39.210   4.826
28298W        W99827  16.226  31.172  11.173
28299W        W99828   7.497  33.124   0.700
28300W        W99829  41.855  42.248   4.135
28301W        W99830  24.922  36.896  11.013
28302W        W99831  24.414   0.502  14.364
28303W        W99832  11.621   6.396   1.429
28304W        W99833  16.311  37.950   2.485
28305W        W99834  39.589  33.623  10.596
28306W        W99835   9.902  38.521   2.138
28307W        W99836   1.405  42.443   3.906
28308W        W99837  27.655  33.972   2.162
28309W        W99838  17.587  44.328  11.114
28310W        W99839   9.209  31.885  12.116
28311W        W99840  31.678  11.625  11.137
28312W        W99841  36.633  39.257   2.860
28313W        W99842  23.859  34.567   1.434
28314W        W99843  33.390  21.266   2.843
28315W        W99844  40.920  44.109   0.933
28316W        W99845  21.222  42.765  14.868
28317W        W99846  21.810  36.560   1.283
28318W        W99847  11.271  24.541   4.821
28319W        W99848  15.781  38.998   5.024
28320W        W99849  24.158   5.855   3.239
28321W        W99850  22.240  35.026  12.410
28322W        W99851  22.675  24.815   2.319
28323W        W99852  20.830  40.725  14.144
28324W        W99853  24.738   8.851   2.940
28325W        W99854   8.391  27.136  12.979
28326W        W99855   0.823  35.892   1.862
28327W        W99856  16.359  21.067   3.179
28328W        W99857  30.544  13.423   2.055
28329W        W99858   3.010  17.400   1.686
28330W        W99859  36.373  13.416   4.723
28331W        W99860  37.498  31.030  14.468
28332W        W99861  27.653  12.614   0.434
28333W        W99862  23.167   1.803  14.507
28334W        W99863  32.913  43.721  10.647
28335W        W99864   2.881  38.573   4.767
28336W        W99865  11.120  32.179  13.844
28337W        W99866  27.407   9.976  11.080
28338W        W99867  19.569   6.879   1.967
28339W        W99868  11.657  26.393  11.581
28340W        W99869  42.037  18.253   0.424
28341W        W99870  27.466  35.865   2.413
28342W        W99871   8.866   4.955  13.509
28343W        W99872  19.945  41.066   3.624
28344W        W99873  21.457  40.093  11.983
28345W        W99874  41.059  29.913  12.177
28346W        W99875  30.067   6.437  12.195
28347W        W99876  26.092  20.706  10.852
28348W        W99877  23.913  17.341  13.985
28349W        W99878  20.244  27.955   3.161
28350W        W99879   6.204  27.320  14.780
28351W        W99880  26.968  14.087  12.009
28352W        W99881  43.970  42.178   4.875
28353W        W99882   9.344  38.947   1.949
28354W        W99883  37.582  43.872   3.669
28355W        W99884  39.112  15.703  11.499
28356W        W99885  11.497   5.722   4.153
28357W        W99886  34.342  44.410  14.450
28358W        W99887  25.859  34.489  14.851
28359W        W99888  25.278  43.624  12.171
28360W        W99889  25.399  23.365  10.247
28361W        W99890  26.133  26.916   0.042
28362W        W99891   0.726  44.419   2.834
28363W        W99892  16.814  10.628  12.000
28364W        W99893  37.243  22.061   1.844
28365W        W99894   3.375  43.438  13.938
28366W        W99895   7.743   6.272   2.166
28367W        W99896  37.952  18.314  14.364
28368W        W99897  33.915   5.610  10.742
28369W        W99898  40.740  37.802   3.913
28370W        W99899   7.226   9.350   3.730
28371W        W99900  43.400  25.931   1.925
28372W        W99901  20.540  26.560  11.540
28373W        W99902  29.247   4.698  11.194
28374W        W99903  40.358   3.293  14.942
28375W        W99904  39.096  22.401   3.173
28376W        W99905  30.825  31.143   0.793
28377W        W99906  41.786  11.608   1.421
28378W        W99907   0.393  28.512   3.803
28379W        W99908   8.028   4.393   2.289
28380W        W99909  32.442  15.267  11.123
28381W        W99910  38.486   9.806  10.880
28382W        W99911   2.165  23.865  10.281
28383W        W99912  22.019  36.915  14.262
28384W        W99913  32.618   2.750  10.409
28385W        W99914  43.268  31.699  14.828
28386W        W99915  11.912  29.089  12.454
28387W        W99916  38.447  17.094   3.304
28388W        W99917   3.911  15.095  11.344
28389W        W99918   5.045  36.433   2.330
28390W        W99919  21.613  31.968  11.906
28391W        W99920  17.150  40.407   4.626
28392W        W99921  24.985  28.441  11.069
28393W        W99922  33.088  10.184  11.149
28394W        W99923  37.892   5.290   3.439
28395W        W99924  31.034  24.225   2.385
28396W        W99925  15.003   0.211  11.151
28397W        W99926  31.095  34.470  10.365
28398W        W99927  10.327  15.637   2.907
28399W        W99928  24.172  40.248   2.399
28400W        W99929  26.972  36.121  14.164
28401W        W99930  43.373  10.311  10.300
28402W        W99931  31.537  44.337   0.850
28403W        W99932  40.802  29.076  13.088
28404W        W99933  26.910  39.245   3.210
28405W        W99934   4.161   8.740   0.317
28406W        W99935  12.834  39.564  11.104
28407W        W99936  36.769  11.426   1.861
28408W        W99937  34.014  26.110   4.247
28409W        W99938  10.183  27.611   1.642
28410W        W99939  20.725  41.703  14.494
28411W        W99940  32.760  44.073  10.268
28412W        W99941  37.342   0.108  12.543
28413W        W99942  42.447  38.108   1.214
28414W        W99943   0.496  43.457  13.049
28415W        W99944   8.800  27.686  11.580
28416W        W99945  13.165   3.868   3.269
28417W        W99946  27.179  33.873   1.273
28418W        W99947  30.606  31.412   0.387
28419W        W99948   2.297   8.264  13.088
28420W        W99949  15.062  16.513  13.508
28421W        W99950  38.942  28.458  12.024
28422W        W99951  10.334  34.898  10.785
28423W        W99952  12.382  31.668  11.203
28424W        W99953   9.700  11.322  14.335
28425W        W99954  29.159  41.274  11.766
28426W        W99955  22.666  44.566  11.065
28427W        W99956  23.424  15.596  11.629
28428W        W99957   7.121   5.948   0.551
28429W        W99958   6.811  14.566   1.417
28430W        W99959  42.568   1.897   4.717
28431W        W99960  28.105  29.883   0.897
28432W        W99961  11.767  42.737  12.098
28433W        W99962  30.961  41.555   3.674
28434W        W99963  25.926  38.253   4.589
28435W        W99964  43.621   1.933   4.544
28436W        W99965  39.446   8.293   4.116
28437W        W99966  11.602   8.670  14.728
28438W        W99967  36.305   5.809  13.319
28439W        W99968  13.368  36.026  11.105
28440W        W99969   7.241   2.733  14.477
28441W        W99970  26.238   0.472   2.224
28442W        W99971   8.118  44.802   3.147
28443W        W99972   7.782  27.732  11.529
28444W        W99973  20.652   7.696   3.700
28445W        W99974  31.441  38.827  12.180
28446W        W99975  33.243  29.135  13.566
28447W        W99976   7.804   7.280  14.085
28448W        W99977   0.332  18.862  14.520
28449W        W99978  43.433   9.959   2.527
28450W        W99979  27.729  41.903   2.573
28451W        W99980   3.799   8.622   3.223
28452W        W99981  35.419  21.714  12.650
28453W        W99982  11.271  43.729   3.585
28454W        W99983  12.785  21.567  10.374
28455W        W99984  37.827  33.544   0.488
28456W        W99985  23.928  36.313  11.562
28457W        W99986  19.159  35.987  12.409
28458W        W99987   6.780  30.546   3.182
28459W        W99988   6.455  40.949   2.787
28460W        W99989  30.674  26.987   2.455
28461W        W99990  35.062  39.963  10.678
28462W        W99991   7.426  11.379  10.531
28463W        W99992  16.781   1.945  12.899
28464W        W99993  29.426  32.537   5.011
28465W        W99994  36.492   6.417   3.199
28466W        W99995  14.862  42.937  11.736
28467W        W99996  29.216  23.117  11.515
28468W        W99997  28.334  23.005   4.132
28469W        W99998  25.057  37.827  14.816
28470W        W99999  16.455  28.102  12.348
28471W        W    0   1.194  11.023   1.752
28472W        W    1  27.954  24.706  13.123
28473W        W    2  15.042  24.707   1.211
28474W        W    3  14.601  23.916  10.364
28475W        W    4  37.806  38.056  14.847
28476W        W    5  41.252  38.037   0.748
28477W        W    6  43.768  28.888  12.834
28478W        W    7  28.479  28.294  11.073
28479W        W    8  23.592  14.031  11.107
28480W        W    9   3.822  15.744   1.337
28481W        W   10   2.791   7.878  12.048
28482W        W   11  14.780  39.545   4.147
28483W        W   12  11.373  25.401  14.743
28484W        W   13  38.419  44.420  13.743
28485W        W   14  35.265   8.315   4.761
28486W        W   15  11.953  44.202   1.412
28487W        W   16  42.358  38.945  14.905
28488W        W   17   4.384  32.873   2.710
28489W        W   18  17.463  10.396  14.727
28490W        W   19  31.969  31.487  11.716
28491W        W   20  44.489  21.169  11.738
28492W        W   21  29.597   6.723  13.561
28493W        W   22   4.278   1.235  14.582
28494W        W   23  34.594  33.526   1.851
28495W        W   24  14.762   2.227  11.165
28496W        W   25  21.087   5.179  11.702
28497W        W   26  32.848  10.365  11.608
28498W        W   27   2.283  25.660   4.533
28499W        W   28  20.551   2.701  12.969
28500W        W   29  41.122   1.967   2.826
28501W        W   30   7.299  13.682   1.833
28502W        W   31  25.201   2.642  10.467
28503W        W   32  21.501   3.707   0.819
28504W        W   33  16.218   1.984   2.676
28505W        W   34  34.624  12.684   4.158
28506W        W   35  16.657   3.294  13.616
28507W        W   36   6.284  41.458  10.885
28508W        W   37  42.251  28.159  10.993
28509W        W   38  20.579  42.703  14.346
28510W        W   39  21.556  12.860  12.220
28511W        W   40  16.545   5.759   1.361
28512W        W   41  32.768  25.115   3.552
28513W        W   42  15.811  35.191  11.433
28514W        W   43  32.150  21.770   2.250
28515W        W   44  42.488  39.036  11.586
28516W        W   45  13.144   6.086   1.357
28517W        W   46  20.616   0.673   1.912
28518W        W   47  13.428  16.621  11.608
28519W        W   48  36.855  10.027   1.001
28520W        W   49  29.757  20.512   0.294
28521W        W   50  43.522  39.353  13.018
28522W        W   51   2.292  20.229  11.056
28523W        W   52  17.639  27.014  13.605
28524W        W   53   9.739  41.681   1.094
28525W        W   54   2.910  34.415   2.282
28526W        W   55  10.429  16.689   4.428
28527W        W   56  16.166  13.024   1.828
28528W        W   57   1.264  39.874  14.949
28529W        W   58  11.402   9.692   1.221
28530W        W   59  25.129  31.669   4.627
28531W        W   60  33.998  41.424  13.299
28532W        W   61  24.076   8.802   3.489
28533W        W   62  41.377  17.488   4.725
28534W        W   63   5.049  34.591  12.404
28535W        W   64  10.343   4.966   0.641
28536W        W   65  31.988  30.651   4.803
28537W        W   66  22.934  18.274  12.369
28538W        W   67  31.905  29.914   1.188
28539W        W   68  17.061  12.679   4.069
28540W        W   69  41.830  22.185   2.778
28541W        W   70  17.124   1.497  11.260
28542W        W   71  17.351  20.493  11.252
28543W        W   72  17.598  44.557   2.146
28544W        W   73  31.136  35.103  12.441
28545W        W   74  30.432  27.204  14.058
28546W        W   75  31.872  25.457   0.850
28547W        W   76   0.498  13.528   3.329
28548W        W   77  27.627  19.397  12.078
28549W        W   78  40.580  31.507   2.774
28550W        W   79   4.324  38.849   2.187
28551W        W   80  21.305  15.587   2.156
28552W        W   81   4.347  24.030  13.012
28553W        W   82  14.810   6.659   2.781
28554W        W   83  29.490  13.683  11.289
28555W        W   84  12.477   8.826  11.417
28556W        W   85  30.085   6.592  11.243
28557W        W   86  31.330   6.324   0.474
28558W        W   87  21.155  34.667   1.858
28559W        W   88   4.723   1.319   0.274
28560W        W   89  23.653   7.326   1.702
28561W        W   90  18.261  25.165  14.335
28562W        W   91  38.383  37.536  10.510
28563W        W   92  19.814   3.436  10.643
28564W        W   93  20.510  40.859  10.614
28565W        W   94  20.997  36.793  12.606
28566W        W   95  44.239  18.208  13.125
28567W        W   96  26.097  22.038  13.459
28568W        W   97  28.939  39.064   0.155
28569W        W   98  43.865  36.849  10.672
28570W        W   99  14.264   7.462  11.860
28571W        W  100   4.853  40.930   3.669
28572W        W  101   9.326  20.425   0.554
28573W        W  102  17.216  28.693   1.317
28574W        W  103   5.870  30.895   1.759
28575W        W  104   9.419  19.652   4.959
28576W        W  105   4.510  28.481   2.722
28577W        W  106  40.446  32.185  11.562
28578W        W  107  28.730  34.505  14.544
28579W        W  108   5.690  38.162  14.524
28580W        W  109  37.846  18.226  12.468
28581W        W  110   8.173   1.997   4.326
28582W        W  111   9.406  10.827   3.071
28583W        W  112  33.230  34.567   4.633
28584W        W  113  14.216  14.173   3.221
28585W        W  114  43.979  36.250  14.736
28586W        W  115   9.171  38.190  11.042
28587W        W  116   5.919  27.020  12.386
28588W        W  117  11.204  43.512  11.379
28589W        W  118   7.659  32.577   4.423
28590W        W  119  30.385   3.492  11.597
28591W        W  120  34.025   6.467   2.709
28592W        W  121  37.768  43.233  13.552
28593W        W  122  34.110  40.437  11.560
28594W        W  123  33.765  28.524   0.254
28595W        W  124  28.099   3.305  14.174
28596W        W  125  35.102  33.065  11.864
28597W        W  126  41.424  13.273   1.154
28598W        W  127  36.472  35.092   4.875
28599W        W  128  38.300  30.991  13.144
28600W        W  129  17.084  31.910  10.938
28601W        W  130  29.614   9.215  11.133
28602W        W  131  12.241  11.567  12.518
28603W        W  132   5.313  27.997   2.307
28604W        W  133  30.646  43.549  11.610
28605W        W  134  19.936  22.552  12.425
28606W        W  135   9.884  39.919   5.082
28607W        W  136  13.135  32.419   2.809
28608W        W  137  24.444   6.665   0.611
28609W        W  138  38.254  15.724  12.582
28610W        W  139   4.772  19.866   3.645
28611W        W  140  28.218   3.249  12.899
28612W        W  141  11.808  43.913  14.915
28613W        W  142  44.270   1.214  13.937
28614W        W  143  36.447  31.338   0.077
28615W        W  144   6.362  35.882   3.904
28616W        W  145  28.531   7.419   3.924
28617W        W  146  35.102  39.854   0.842
28618W        W  147  12.838  38.290   4.120
28619W        W  148  12.174  11.631   2.372
28620W        W  149  15.553   4.681  10.651
28621W        W  150   9.771  18.780  12.940
28622W        W  151   7.135   9.195   1.846
28623W        W  152  18.744  28.115  14.445
28624W        W  153   2.303  13.162   3.049
28625W        W  154  38.049  29.339   0.405
28626W        W  155   4.959  15.600   2.264
28627W        W  156  41.863  39.387   3.551
28628W        W  157  41.935  21.909  14.061
28629W        W  158  39.363  21.281  14.053
28630W        W  159  19.592  26.472  14.514
28631W        W  160  39.452  43.504  14.573
28632W        W  161   3.836  27.369   4.756
28633W        W  162   5.760  28.346   1.307
28634W        W  163  32.145  38.442  12.669
28635W        W  164  30.595  27.163   0.836
28636W        W  165  14.282   6.939   3.092
28637W        W  166  36.985   8.143   4.898
28638W        W  167  41.941   9.838  12.405
28639W        W  168  39.113  38.051   4.628
28640W        W  169  30.903  34.563   4.002
28641W        W  170  35.908  28.134  14.889
28642W        W  171  26.109  19.926  11.091
28643W        W  172   7.671  12.839  13.058
28644W        W  173  17.538  22.634  10.497
28645W        W  174  41.064  43.537   0.896
28646W        W  175   9.679  39.331  13.845
28647W        W  176  16.746   6.677  10.685
28648W        W  177  14.648  41.244   3.220
28649W        W  178  41.534  24.355   0.411
28650W        W  179  15.064   3.499   0.009
28651W        W  180  24.462  39.429   3.318
28652W        W  181  34.780  18.822   4.228
28653W        W  182  40.874   2.330  13.955
28654W        W  183  37.383  13.384  13.526
28655W        W  184  21.156  23.339   4.546
28656W        W  185  37.920   3.194   0.029
28657W        W  186  25.730  38.662  11.952
28658W        W  187  31.535   6.742   1.397
28659W        W  188  44.782   0.010   2.144
28660W        W  189   8.664   2.523   1.430
28661W        W  190  28.594  35.146   3.799
28662W        W  191  28.992  18.706   0.753
28663W        W  192  41.444  38.046   4.610
28664W        W  193  19.672  16.166   3.805
28665W        W  194  35.320  41.337  12.422
28666W        W  195  27.839  41.728   0.241
28667W        W  196  17.234  13.157  14.933
28668W        W  197  40.103  31.498   1.879
28669W        W  198  44.028  40.383  10.436
28670W        W  199  24.197   4.512   2.868
28671W        W  200   0.743   1.012   1.723
28672W        W  201  22.340  38.838   1.395
28673W        W  202   6.509   0.391  12.113
28674W        W  203  13.705  10.433   1.308
28675W        W  204   1.622   8.952  13.822
28676W        W  205  38.565   7.172  13.873
28677W        W  206  27.926  14.995   5.021
28678W        W  207   8.582  17.991   2.313
28679W        W  208  36.577  24.693   1.480
28680W        W  209  38.847  33.194   4.203
28681W        W  210  36.875   5.894   1.783
28682W        W  211  31.347   1.240  10.213
28683W        W  212  16.534  33.946   0.771
28684W        W  213  22.505  16.352   3.205
28685W        W  214   4.417   5.364   4.621
28686W        W  215  39.014  11.319   2.732
28687W        W  216  40.837  19.529   0.246
28688W        W  217  42.955  33.150   3.784
28689W        W  218  13.365  30.067   1.803
28690W        W  219  27.744  37.757   0.477
28691W        W  220  44.367  22.285  10.410
28692W        W  221  14.506  37.290   3.292
28693W        W  222  35.859   7.269  11.510
28694W        W  223   8.464  31.912  14.886
28695W        W  224   6.947  37.977  13.959
28696W        W  225  28.477  33.278   3.024
28697W        W  226  32.675  23.988   0.886
28698W        W  227  41.526  11.168   1.393
28699W        W  228   9.667  40.079   0.283
28700W        W  229  41.048  35.482  11.578
28701W        W  230  28.481   4.834   4.742
28702W        W  231  29.068  19.678  13.790
28703W        W  232  21.139  15.693   2.624
28704W        W  233  44.935  26.853  10.605
28705W        W  234   7.310  22.786   3.963
28706W        W  235  42.550  34.815  12.055
28707W        W  236  13.159  42.895   1.711
28708W        W  237  13.697  10.791  12.107
28709W        W  238  32.161  19.526  14.613
28710W        W  239  18.848   3.341   1.739
28711W        W  240  44.597  10.684   0.226
28712W        W  241  33.944   6.515  11.812
28713W        W  242  32.357   2.377  11.218
28714W        W  243  25.478   7.891  11.111
28715W        W  244  16.613  27.956   1.883
28716W        W  245  11.542  18.615   4.199
28717W        W  246  25.498  12.017  14.585
28718W        W  247  38.581  30.044  12.558
28719W        W  248   5.145  30.887  10.811
28720W        W  249  28.256  37.841   0.421
28721W        W  250   7.529  41.777   2.727
28722W        W  251  32.602   7.155  11.199
28723W        W  252   1.276  18.066   0.306
28724W        W  253  18.252  13.713   0.720
28725W        W  254  10.424  28.544   3.204
28726W        W  255  13.835  11.575  13.823
28727W        W  256  15.342  30.343   4.137
28728W        W  257  41.364  21.639  13.428
28729W        W  258  20.028  11.516  14.820
28730W        W  259  12.372  43.174  14.805
28731W        W  260  19.195  40.987   0.233
28732W        W  261  16.377  31.523  13.838
28733W        W  262  39.490  41.436  14.836
28734W        W  263  24.249  20.613  14.992
28735W        W  264  41.945  27.457  13.092
28736W        W  265  14.528  12.842  11.084
28737W        W  266  13.087   2.341  14.921
28738W        W  267   1.253  22.511  10.980
28739W        W  268  11.577  38.052  10.807
28740W        W  269  27.370  21.138   1.443
28741W        W  270  22.610   4.828  12.881
28742W        W  271  32.611   3.430   3.271
28743W        W  272  13.775  17.250  13.448
28744W        W  273  24.408  35.508  12.176
28745W        W  274  37.294  23.045  14.330
28746W        W  275  20.659  11.559   0.804
28747W        W  276  10.183   5.163  11.348
28748W        W  277   8.564  13.733  13.515
28749W        W  278   9.141  17.554   3.416
28750W        W  279   7.818  19.979  10.137
28751W        W  280  25.764  20.035  13.822
28752W        W  281  29.695  11.878  12.127
28753W        W  282   9.202  29.433   3.518
28754W        W  283  16.637  18.348   2.336
28755W        W  284  24.400   4.104  11.593
28756W        W  285  12.088   0.125  11.899
28757W        W  286   0.261   9.668   3.412
28758W        W  287  38.518  40.781   4.514
28759W        W  288   2.904  40.021  11.090
28760W        W  289  31.350  15.370   0.292
28761W        W  290  28.434  41.870  12.636
28762W        W  291  24.072  12.333   0.585
28763W        W  292  28.109  15.577   3.535
28764W        W  293  39.454   3.942  14.232
28765W        W  294  27.439  19.101  11.651
28766W        W  295   1.226  26.002  10.650
28767W        W  296  22.099  32.575   1.088
28768W        W  297   0.267   2.213   3.821
28769W        W  298  22.185  39.247   1.709
28770W        W  299  15.549  44.453   4.695
28771W        W  300  33.602  21.599  13.941
28772W        W  301  36.667  19.506  13.978
28773W        W  302   9.790  44.389   3.358
28774W        W  303   2.647  32.102   2.406
28775W        W  304  26.209  30.039   2.521
28776W        W  305  28.076  14.401  13.753
28777W        W  306   8.742  17.803   0.706
28778W        W  307  11.699  41.072   1.956
28779W        W  308  33.468  34.525   0.911
28780W        W  309   6.196   9.602  13.410
28781W        W  310  27.418  12.280   2.113
28782W        W  311  13.328  28.686  10.481
28783W        W  312  33.037  36.781   2.782
28784W        W  313   6.955   5.890  13.063
28785W        W  314  33.020   0.846   1.323
28786W        W  315  26.535  37.901   2.126
28787W        W  316  16.741  21.098   1.435
28788W        W  317  29.091  41.941   4.096
28789W        W  318   7.617  39.949   4.859
28790W        W  319  35.860  20.671  12.842
28791W        W  320  44.698  39.374   0.821
28792W        W  321  40.821  23.126   0.474
28793W        W  322  21.771  38.355  13.192
28794W        W  323  30.145  27.620   1.406
28795W        W  324  13.800  35.616   1.493
28796W        W  325  27.416   8.838   0.056
28797W        W  326  11.576  16.184  13.946
28798W        W  327  36.412  19.049   1.725
28799W        W  328  22.792  23.737  11.982
28800W        W  329  10.540  27.211   0.154
28801W        W  330  12.182   4.871   4.101
28802W        W  331   1.899  34.272  13.876
28803W        W  332   0.926  33.290   4.585
28804W        W  333  26.372  11.388   0.086
28805W        W  334  37.146  19.010  14.696
28806W        W  335   6.928  36.429  11.406
28807W        W  336  13.248  33.336  11.799
28808W        W  337   5.197   5.379  12.169
28809W        W  338  16.763   6.182   1.789
28810W        W  339  42.007   1.177  12.938
28811W        W  340  16.624  43.431  14.745
28812W        W  341  25.171  36.397  12.147
28813W        W  342  33.519  30.477  11.188
28814W        W  343  10.918   3.977   2.693
28815W        W  344  19.736  12.619   0.829
28816W        W  345  15.121  21.670  14.960
28817W        W  346  16.875   8.402  11.476
28818W        W  347  15.300  32.381  13.450
28819W        W  348  38.250  39.365   0.745
28820W        W  349  22.642  19.289  12.736
28821W        W  350  24.564  10.589  10.581
28822W        W  351  40.916   1.473   0.910
28823W        W  352   5.750  17.350  12.888
28824W        W  353   1.766  15.014  12.388
28825W        W  354  18.756   6.757  12.865
28826W        W  355   1.315  10.914   4.784
28827W        W  356  33.679  10.381   4.071
28828W        W  357   9.872  37.171  14.568
28829W        W  358  11.229  32.493  12.325
28830W        W  359  13.828  25.553  12.119
28831W        W  360  19.179   3.847  11.432
28832W        W  361  19.947  34.278   0.379
28833W        W  362   2.916  36.544  12.883
28834W        W  363  19.699  18.749  10.343
28835W        W  364   0.715   3.858  12.119
28836W        W  365   0.031  18.604   3.285
28837W        W  366  13.632  23.648  10.756
28838W        W  367   9.282  30.015   4.255
28839W        W  368  21.518  12.425  12.618
28840W        W  369   8.059   4.167  12.169
28841W        W  370  27.146  18.037   3.257
28842W        W  371  41.955   3.263  12.964
28843W        W  372  16.173  44.323  13.904
28844W        W  373  38.534   3.751   0.119
28845W        W  374  10.709  43.985   3.618
28846W        W  375   8.291  35.435   0.265
28847W        W  376  12.761  36.045  11.158
28848W        W  377  41.938  13.321   2.812
28849W        W  378  12.027  17.722  10.983
28850W        W  379  27.397   2.944   4.211
28851W        W  380  16.125  28.051  13.790
28852W        W  381  42.306  26.645   4.869
28853W        W  382  24.617   7.579  11.190
28854W        W  383   7.836  37.723  12.830
28855W        W  384  35.594  31.533  12.066
28856W        W  385  22.001  29.352   3.025
28857W        W  386  41.507  21.196   2.657
28858W        W  387  25.177  32.313  10.705
28859W        W  388  25.057   5.162  14.806
28860W        W  389  44.016  18.282  14.677
28861W        W  390  20.161  44.486   5.345
28862W        W  391   5.147  28.480  13.383
28863W        W  392  20.720  24.537   2.407
28864W        W  393  19.180   2.892  10.733
28865W        W  394  43.440  42.427  13.718
28866W        W  395  11.217  39.771   4.408
28867W        W  396  18.016  40.290  10.399
28868W        W  397  31.685  41.752  11.101
28869W        W  398   1.947  25.627  11.935
28870W        W  399   6.787  29.708  14.897
28871W        W  400  22.585   7.561   2.249
28872W        W  401   7.516  29.094   0.250
28873W        W  402  33.386  38.677   3.617
28874W        W  403   6.502  20.709   4.849
28875W        W  404  29.675  37.449  12.030
28876W        W  405   5.695  31.568   1.319
28877W        W  406   2.739  41.018   1.379
28878W        W  407  44.962   1.718  14.782
28879W        W  408  39.349  38.079  11.131
28880W        W  409  27.233  41.071   0.669
28881W        W  410  22.254  25.609   4.190
28882W        W  411  20.356  38.527   1.681
28883W        W  412   6.817   4.721   0.652
28884W        W  413  31.920  43.800  10.437
28885W        W  414  21.097  33.800   4.737
28886W        W  415  33.568  20.201  11.625
28887W        W  416   6.524  19.651  12.622
28888W        W  417   6.341  23.970  12.463
28889W        W  418   4.866  12.336   1.778
28890W        W  419  35.459  24.630   3.157
28891W        W  420  42.015  13.573  10.726
28892W        W  421   1.774  24.730   1.631
28893W        W  422   6.902  10.972  11.597
28894W        W  423  17.170  20.685   2.162
28895W        W  424  35.326  43.061  11.971
28896W        W  425  16.629  25.472  12.035
28897W        W  426   0.435  41.314   2.744
28898W        W  427  18.829   0.266   1.435
28899W        W  428  13.332  44.752  13.839
28900W        W  429  21.656  30.027   0.132
28901W        W  430  42.813  27.273   0.193
28902W        W  431  16.897  15.145  13.792
28903W        W  432  20.163  10.404   3.258
28904W        W  433  44.299  36.814   1.804
28905W        W  434  30.594  38.126  12.043
28906W        W  435  29.812   0.694  11.153
28907W        W  436  36.048   1.062  11.100
28908W        W  437  28.498  10.651  11.648
28909W        W  438  20.371  32.017   4.631
28910W        W  439  32.550   7.275  14.369
28911W        W  440  19.320  13.289   2.152
28912W        W  441  42.923  14.032  10.762
28913W        W  442   4.174  17.657   3.308
28914W        W  443   9.257   9.641  13.040
28915W        W  444  18.155   7.839   3.274
28916W        W  445  30.329  24.950   2.221
28917W        W  446   2.808  15.653   1.435
28918W        W  447  24.787  11.382   3.732
28919W        W  448   7.854   9.247   2.381
28920W        W  449  37.889  30.642   1.696
28921W        W  450  26.007  29.892  13.567
28922W        W  451  34.837  31.350   4.056
28923W        W  452  35.781  17.797   1.000
28924W        W  453  17.329  26.549   4.139
28925W        W  454  22.280   7.598   1.823
28926W        W  455  13.180  21.997   0.934
28927W        W  456  33.068  28.944  12.942
28928W        W  457  41.357  37.266  11.552
28929W        W  458  13.637  33.079   4.093
28930W        W  459  42.961  41.100   0.886
28931W        W  460  35.011  26.596   0.912
28932W        W  461  34.854   0.241  10.737
28933W        W  462  33.399  31.935  14.408
28934W        W  463  25.176  29.360   5.055
28935W        W  464  39.344  15.718   2.503
28936W        W  465   8.235  41.604  12.520
28937W        W  466  25.579   1.769   4.544
28938W        W  467  16.367   7.402   4.954
28939W        W  468  24.034  20.284  13.103
28940W        W  469   4.821  13.262   4.518
28941W        W  470   9.815  21.154  12.474
28942W        W  471  36.180  20.986   1.464
28943W        W  472   1.069  29.972  13.145
28944W        W  473   5.734   9.248   3.898
28945W        W  474  27.982  22.448   1.916
28946W        W  475  21.615  31.356   0.768
28947W        W  476   5.126  37.346   3.093
28948W        W  477  32.842   2.858   0.402
28949W        W  478  39.318   7.913  14.301
28950W        W  479   3.378  19.448   3.190
28951W        W  480   6.201  38.458   1.407
28952W        W  481  35.016  37.899   1.760
28953W        W  482  27.171  33.201  14.987
28954W        W  483  22.689  22.178   0.816
28955W        W  484  27.964  27.389   0.021
28956W        W  485  40.073  27.281  14.877
28957W        W  486  44.917  33.042   2.735
28958W        W  487  19.744   5.741  14.343
28959W        W  488  36.056  20.701   3.195
28960W        W  489  32.000   5.584   2.729
28961W        W  490  37.504   2.966   0.963
28962W        W  491   9.268  19.639  13.372
28963W        W  492  38.549  20.108   0.283
28964W        W  493   1.750  40.088  14.835
28965W        W  494  34.957   4.550   4.233
28966W        W  495  37.951   4.860   2.646
28967W        W  496  35.023  14.521   1.740
28968W        W  497  39.389  12.193  11.138
28969W        W  498   7.762  40.257   1.260
28970W        W  499  27.262  36.072   0.947
28971W        W  500  41.869  21.028   4.040
28972W        W  501  18.664  26.434  11.020
28973W        W  502  18.708   6.322  14.770
28974W        W  503  13.542  20.117  14.966
28975W        W  504  36.623  27.445  13.549
28976W        W  505  38.102  22.051   4.496
28977W        W  506  11.832  30.170   2.420
28978W        W  507  31.071  40.570   4.940
28979W        W  508  34.936  40.563  11.969
28980W        W  509  28.980  34.061  14.806
28981W        W  510   6.314  12.616  14.356
28982W        W  511  26.178  23.906  13.942
28983W        W  512  24.980  23.653  13.461
28984W        W  513  37.311  28.228   1.787
28985W        W  514  39.423   5.424   1.394
28986W        W  515   7.132   5.772  14.490
28987W        W  516  18.410  17.996  11.476
28988W        W  517  37.900  10.232  13.566
28989W        W  518  35.040  33.930  12.948
28990W        W  519  34.410  13.938   3.754
28991W        W  520  31.067  13.651  12.578
28992W        W  521  16.353  30.910   1.726
28993W        W  522  35.618  29.004  12.173
28994W        W  523  20.707   4.308  11.865
28995W        W  524  38.089  40.037   2.040
28996W        W  525  11.171  42.284   4.328
28997W        W  526  26.301  24.699  11.489
28998W        W  527  23.857  29.212  14.340
28999W        W  528  22.129  31.958  14.293
29000W        W  529  30.196  26.699  11.586
29001W        W  530  24.999  22.808   3.689
29002W        W  531  37.535   3.028  14.518
29003W        W  532  26.023  44.653  13.858
29004W        W  533  17.181  42.924  14.446
29005W        W  534  34.443   0.959   0.502
29006W        W  535  14.121   5.485   4.521
29007W        W  536   7.863   5.690  12.150
29008W        W  537  41.089  37.930  14.319
29009W        W  538  42.673  25.125   0.854
29010W        W  539   2.266  10.609  14.529
29011W        W  540  43.015  31.432   3.689
29012W        W  541  35.438   1.006   3.474
29013W        W  542  14.169   4.492   4.639
29014W        W  543  36.677   8.781   3.724
29015W        W  544  34.320  19.660   3.630
29016W        W  545   5.469  10.627   3.750
29017W        W  546  27.620  23.491   2.387
29018W        W  547  41.360  19.920  14.428
29019W        W  548  35.495  23.939   0.231
29020W        W  549  32.384  42.255   0.803
29021W        W  550   0.023   4.283   1.963
29022W        W  551  32.097  34.594   1.647
29023W        W  552  34.374  29.872   2.299
29024W        W  553   3.658   4.538   0.772
29025W        W  554   8.278  33.610  14.018
29026W        W  555  40.782  34.322  13.944
29027W        W  556  26.223  25.702  13.885
29028W        W  557  43.079  19.509  13.258
29029W        W  558  11.328  41.969  14.895
29030W        W  559  35.889  24.699   4.380
29031W        W  560  10.539  33.652   3.317
29032W        W  561  27.220  19.173   4.863
29033W        W  562  20.133  19.443   1.333
29034W        W  563  11.236  36.576  13.413
29035W        W  564  40.951  21.157  13.176
29036W        W  565  32.414  41.370  13.512
29037W        W  566  17.485   6.721  10.947
29038W        W  567  17.442  25.227  13.544
29039W        W  568   7.135  40.398   3.598
29040W        W  569  17.210  26.608  13.091
29041W        W  570  33.488  13.404   1.453
29042W        W  571  44.814  37.547   1.415
29043W        W  572  31.138  22.337  12.417
29044W        W  573  19.520  25.643  11.405
29045W        W  574  24.467  17.977  12.975
29046W        W  575   8.641  11.012   3.122
29047W        W  576   7.102  38.369  12.069
29048W        W  577  23.440  25.311   1.234
29049W        W  578   8.805  37.602  13.027
29050W        W  579  35.104  10.834  10.596
29051W        W  580   6.914   1.480  10.511
29052W        W  581  38.288  23.107   0.341
29053W        W  582   6.446  24.407   3.560
29054W        W  583  24.097  42.869  14.254
29055W        W  584  11.993  28.438   0.180
29056W        W  585  19.217  40.560   4.626
29057W        W  586  35.442  13.151  14.848
29058W        W  587  33.166  42.235   0.741
29059W        W  588  44.267  43.814   1.424
29060W        W  589   4.272  37.002   1.468
29061W        W  590   3.177  20.321   0.998
29062W        W  591  39.478  17.732   1.858
29063W        W  592  31.939  32.428  13.394
29064W        W  593  20.138  37.453   1.754
29065W        W  594   6.170  11.800   1.345
29066W        W  595  20.334  34.253  10.345
29067W        W  596  41.988  43.080  10.189
29068W        W  597   3.273  17.285  12.660
29069W        W  598   8.386  14.273  10.631
29070W        W  599  20.690  13.348   4.608
29071W        W  600  38.452   3.478   2.803
29072W        W  601  16.871  21.862  11.790
29073W        W  602  41.941   0.720   2.878
29074W        W  603   8.947   3.759  10.923
29075W        W  604  41.435  18.540   4.518
29076W        W  605  24.459  20.276  13.417
29077W        W  606  37.021  38.865   4.062
29078W        W  607  35.345  32.559  14.316
29079W        W  608   6.931  38.324   3.235
29080W        W  609  17.237   8.386  14.869
29081W        W  610  17.295   9.901  14.827
29082W        W  611  28.054  12.115  14.871
29083W        W  612  18.649  27.252  14.938
29084W        W  613  34.836  15.683   3.846
29085W        W  614  33.996  25.442   0.880
29086W        W  615  31.026  38.378  13.329
29087W        W  616   6.498  35.416   0.857
29088W        W  617   6.594  19.749  10.743
29089W        W  618  19.190  36.930  12.893
29090W        W  619  37.879  31.412  12.368
29091W        W  620   9.839  13.312   4.593
29092W        W  621   4.807  14.688   4.030
29093W        W  622   6.133  19.238  13.984
29094W        W  623  30.347  33.153   1.852
29095W        W  624  23.037   1.159  11.923
29096W        W  625  39.841   1.121   1.673
29097W        W  626   3.792  17.452  12.956
29098W        W  627  43.292  22.509   2.866
29099W        W  628  12.317  17.318  14.281
29100W        W  629  35.782  38.280  11.082
29101W        W  630   0.691  10.993   2.414
29102W        W  631  34.429   6.209   2.936
29103W        W  632  10.637   0.730   0.556
29104W        W  633  31.681  14.685  14.238
29105W        W  634  32.526  24.198  12.352
29106W        W  635  16.311   8.231  13.465
29107W        W  636  15.155  11.885  14.304
29108W        W  637   8.341  18.598  14.452
29109W        W  638   3.390  39.071  14.834
29110W        W  639  40.228  22.211  10.782
29111W        W  640  33.065  30.083   3.544
29112W        W  641  22.260  26.536   3.684
29113W        W  642  43.804  17.890  14.947
29114W        W  643  17.273  17.739   2.909
29115W        W  644  16.240   1.248   3.249
29116W        W  645  31.305  35.981   1.874
29117W        W  646   5.590   3.425  13.551
29118W        W  647  24.414   8.252  12.457
29119W        W  648  44.740  15.983   4.235
29120W        W  649  39.004  19.281  14.325
29121W        W  650  10.064  24.836   1.171
29122W        W  651   3.008  19.181  11.690
29123W        W  652   9.262  21.077   3.781
29124W        W  653   1.495  31.125   4.600
29125W        W  654   2.677  44.924   2.015
29126W        W  655  29.790  16.083   4.061
29127W        W  656   5.251  18.108  11.237
29128W        W  657  36.585  40.264   3.780
29129W        W  658  37.240  43.473   1.403
29130W        W  659  42.768  41.285  11.550
29131W        W  660  16.591  29.866  11.667
29132W        W  661  30.599  15.342   3.680
29133W        W  662  35.930  31.903   2.293
29134W        W  663  41.084  19.036   0.346
29135W        W  664  34.331   5.200  11.647
29136W        W  665   4.436  19.122  11.973
29137W        W  666  28.739  12.659  12.542
29138W        W  667  13.321   3.673  10.738
29139W        W  668   8.258  37.810  12.371
29140W        W  669  24.689   7.768  12.667
29141W        W  670  25.130  17.140   1.031
29142W        W  671  23.080  28.168   3.428
29143W        W  672   2.628  15.959  11.101
29144W        W  673  44.524  44.117   1.051
29145W        W  674   2.504  39.507  11.891
29146W        W  675   6.397   6.827   3.916
29147W        W  676  28.632  18.078   2.223
29148W        W  677  24.651  18.070   1.152
29149W        W  678  31.109  38.056  12.098
29150W        W  679  29.085   6.937   0.110
29151W        W  680  18.289  14.208  10.874
29152W        W  681  44.423  41.436   1.503
29153W        W  682  19.696   3.416   0.461
29154W        W  683  25.035  29.079   2.670
29155W        W  684  28.346  37.035  10.439
29156W        W  685  20.754  29.452  13.402
29157W        W  686   6.048   1.791  10.692
29158W        W  687  33.127  26.418  14.371
29159W        W  688  35.071  27.591   2.895
29160W        W  689  30.561  23.974  13.098
29161W        W  690  31.686  42.536  12.098
29162W        W  691  37.437  29.730   4.826
29163W        W  692  39.359  37.484  12.942
29164W        W  693  39.618  39.424  11.417
29165W        W  694   6.763  30.110   3.858
29166W        W  695  32.361  13.390   0.746
29167W        W  696  33.908  28.413  14.758
29168W        W  697  44.453  25.467   3.828
29169W        W  698  18.301   6.284  12.464
29170W        W  699  29.917  29.605   3.056
29171W        W  700  25.904  20.034   4.146
29172W        W  701  19.229  11.242  13.445
29173W        W  702  20.977  44.870  10.358
29174W        W  703  35.692  28.496   0.405
29175W        W  704  43.407  12.647   4.575
29176W        W  705  31.452  18.020   3.176
29177W        W  706  21.056   8.134  13.913
29178W        W  707  44.019   4.049   4.232
29179W        W  708   1.146  21.437  14.931
29180W        W  709  12.867  28.509   3.239
29181W        W  710  39.516  16.590   1.863
29182W        W  711  21.116  13.193   0.545
29183W        W  712  31.988  13.276   0.413
29184W        W  713  35.488   8.898  13.904
29185W        W  714  40.562  42.582   3.602
29186W        W  715  14.138  26.509   0.757
29187W        W  716  12.639  39.532  13.010
29188W        W  717  25.690   6.939  11.205
29189W        W  718  20.683  29.124   2.302
29190W        W  719  25.667  43.866  12.421
29191W        W  720  16.644  26.923   0.304
29192W        W  721  44.911   0.288  10.664
29193W        W  722  29.840  30.863  12.579
29194W        W  723  23.167  39.808  14.912
29195W        W  724  19.765  24.038  13.299
29196W        W  725   2.806  31.873  11.977
29197W        W  726  42.869  32.569  11.604
29198W        W  727  37.614  38.033  10.909
29199W        W  728   9.648  28.684  10.713
29200W        W  729   8.592  10.309   0.484
29201W        W  730  25.456  11.286   4.348
29202W        W  731  41.505  25.463   3.818
29203W        W  732  22.584  32.172  14.338
29204W        W  733  29.892  40.033   3.326
29205W        W  734  22.936  22.171   1.878
29206W        W  735  17.139  44.041   1.507
29207W        W  736  26.905   3.023   4.120
29208W        W  737  36.084   4.951  13.870
29209W        W  738  36.507   9.167   3.172
29210W        W  739  28.405   8.883   0.959
29211W        W  740   6.347  34.527  14.097
29212W        W  741  12.158  40.640   0.787
29213W        W  742  25.201  34.703   3.625
29214W        W  743  42.875  11.394   0.309
29215W        W  744   6.614  25.867   2.717
29216W        W  745  14.103  26.150  13.562
29217W        W  746  22.643  39.271  14.492
29218W        W  747   8.822   2.952  13.362
29219W        W  748  33.050  37.613  11.183
29220W        W  749  15.214  30.244   1.271
29221W        W  750  43.965  13.633  14.938
29222W        W  751   5.465  12.974  12.608
29223W        W  752   3.527  14.555   0.482
29224W        W  753   5.720  41.467   2.933
29225W        W  754  13.690  14.173  10.674
29226W        W  755  17.226  15.566  11.150
29227W        W  756  40.247   2.383   4.912
29228W        W  757  42.750  20.678   2.232
29229W        W  758  28.466  12.376  11.143
29230W        W  759  22.285  42.407   4.934
29231W        W  760  13.061  15.978   4.228
29232W        W  761  11.134  15.211   1.346
29233W        W  762  33.647  44.014   2.296
29234W        W  763   0.170   8.723   2.869
29235W        W  764  32.773  18.140   0.069
29236W        W  765  26.516   3.432   1.649
29237W        W  766   5.321  16.237   4.317
29238W        W  767  44.809  20.298   1.695
29239W        W  768   3.775   8.829   2.746
29240W        W  769  30.692   8.698   3.110
29241W        W  770   0.045   9.401  14.231
29242W        W  771  11.700  22.328   1.485
29243W        W  772  14.203   2.349   2.695
29244W        W  773  21.669  25.004   0.877
29245W        W  774  22.168  32.469  14.422
29246W        W  775  10.305  12.922  10.363
29247W        W  776  22.870  28.252   5.058
29248W        W  777  22.235  13.193   0.973
29249W        W  778  17.170  36.030   2.000
29250W        W  779   0.891   4.237   2.324
29251W        W  780  29.894  30.826   4.753
29252W        W  781  39.483   2.057   1.659
29253W        W  782  10.728   6.149  11.048
29254W        W  783  32.533  25.967  13.906
29255W        W  784   0.860  19.670   1.032
29256W        W  785  17.122   3.364  13.316
29257W        W  786   6.608   3.616   1.481
29258W        W  787  25.035  24.056  10.657
29259W        W  788  10.777  39.777   2.824
29260W        W  789  37.915  34.762  11.923
29261W        W  790   8.399   1.458  12.353
29262W        W  791   6.396  16.221   0.801
29263W        W  792   8.149  19.501   1.453
29264W        W  793  27.465  36.426   1.258
29265W        W  794  30.398  22.421   3.222
29266W        W  795   5.828  32.710  14.808
29267W        W  796  17.836  26.539   0.683
29268W        W  797  24.226  20.661   4.801
29269W        W  798  24.371  16.479   0.925
29270W        W  799  37.236  29.423   3.876
29271W        W  800   0.428   6.238  12.229
29272W        W  801  35.074  13.421   3.221
29273W        W  802  25.566  17.154  10.812
29274W        W  803  28.114  31.700  12.961
29275W        W  804  26.545  33.004   1.252
29276W        W  805  29.007  43.819   1.485
29277W        W  806  18.579  30.753  10.892
29278W        W  807  44.820  35.214  12.933
29279W        W  808  28.989  19.964   4.105
29280W        W  809   8.703  17.527   3.709
29281W        W  810  35.456  41.725   2.338
29282W        W  811  14.764  23.601   0.861
29283W        W  812  23.820  21.227  10.127
29284W        W  813  12.894  14.096  14.052
29285W        W  814   8.159   5.358  12.963
29286W        W  815  16.670   4.307   1.671
29287W        W  816  22.353  33.578   0.942
29288W        W  817  26.703  11.651   3.124
29289W        W  818   7.213  31.924  11.019
29290W        W  819   2.467  16.979  12.147
29291W        W  820  30.432  18.747  11.058
29292W        W  821  40.781  39.181  11.117
29293W        W  822  28.295  19.286  14.491
29294W        W  823  41.029  37.775  13.822
29295W        W  824  34.686  28.116  11.635
29296W        W  825   6.425  29.582   2.266
29297W        W  826   6.833   6.289  11.626
29298W        W  827  44.298  38.870   2.593
29299W        W  828  38.350  32.073  13.935
29300W        W  829  10.711  23.042  12.583
29301W        W  830  25.525  26.020  13.434
29302W        W  831  34.417  24.742  12.570
29303W        W  832  31.923  17.759   0.959
29304W        W  833  10.304  39.239   3.291
29305W        W  834  44.687  14.114   2.585
29306W        W  835  17.499  34.036  12.860
29307W        W  836  41.510  21.396   3.992
29308W        W  837  37.267  11.244   4.620
29309W        W  838   5.285  19.150   9.292
29310W        W  839  34.867  13.048   1.943
29311W        W  840  26.689  44.714  13.507
29312W        W  841   3.828  43.001  10.816
29313W        W  842   2.353  38.980   3.734
29314W        W  843  15.831   0.834   1.295
29315W        W  844   7.837   1.445   0.512
29316W        W  845  27.481   4.037   4.991
29317W        W  846  28.679  21.722  10.752
29318W        W  847  33.989  13.126   0.054
29319W        W  848  40.861  19.763  14.327
29320W        W  849  31.863  14.318   0.388
29321W        W  850   9.328  23.567   1.171
29322W        W  851  19.164   1.782   1.704
29323W        W  852  34.466  28.931   0.272
29324W        W  853   7.814  26.726  11.767
29325W        W  854  37.694   5.487  11.844
29326W        W  855  18.054  12.654  12.107
29327W        W  856  42.159  12.500  13.804
29328W        W  857  41.610  41.168   0.922
29329W        W  858   9.587  26.947  10.838
29330W        W  859  43.828   5.325  12.276
29331W        W  860  16.243  43.255  13.823
29332W        W  861   5.865  30.633   2.750
29333W        W  862  17.583  15.322   0.361
29334W        W  863  36.867  42.989   0.263
29335W        W  864  15.985  16.106   2.389
29336W        W  865  18.024   9.055  11.846
29337W        W  866  35.281   0.210   3.742
29338W        W  867  22.228  16.059   2.308
29339W        W  868   1.163  37.114   1.694
29340W        W  869  44.360  24.680  10.678
29341W        W  870  39.832  40.335   2.781
29342W        W  871  14.239  15.347   2.979
29343W        W  872  34.898  12.931  14.917
29344W        W  873   6.764  37.117   3.801
29345W        W  874  12.277  28.601   1.773
29346W        W  875  13.330   5.660  12.449
29347W        W  876   8.313  14.872  11.974
29348W        W  877  12.328  33.450   3.458
29349W        W  878  21.326  23.178  12.678
29350W        W  879  14.871  41.263  12.119
29351W        W  880   8.657  33.956  13.283
29352W        W  881  40.485  12.961  12.714
29353W        W  882  37.910  29.906   4.630
29354W        W  883  11.368  30.394  14.334
29355W        W  884  27.960  26.050  13.056
29356W        W  885  35.431  28.461  14.421
29357W        W  886  10.022  21.600   3.296
29358W        W  887  25.463   3.561   3.659
29359W        W  888  37.590   1.805   0.720
29360W        W  889   8.049   6.096   0.870
29361W        W  890  18.986  37.586   0.850
29362W        W  891  32.939  27.048   1.624
29363W        W  892   2.879  25.002   0.915
29364W        W  893  12.574   5.369  12.872
29365W        W  894  42.341  23.072   3.359
29366W        W  895  36.558  30.145   4.783
29367W        W  896  22.189  20.757  12.985
29368W        W  897  43.808   4.521  13.716
29369W        W  898  17.842  42.807  10.517
29370W        W  899  41.608  43.397   4.154
29371W        W  900  27.180  34.159   2.271
29372W        W  901  12.624  40.415  13.463
29373W        W  902   9.176  29.575   0.805
29374W        W  903  18.004  24.732   3.390
29375W        W  904  14.447  43.041   3.581
29376W        W  905   8.747   5.873  11.159
29377W        W  906  22.139  38.974   4.405
29378W        W  907  42.001  23.062   3.772
29379W        W  908  20.608   1.676  12.044
29380W        W  909  17.257   1.909   3.738
29381W        W  910  13.532   8.692  13.458
29382W        W  911  44.540  18.691   0.590
29383W        W  912   1.874  41.330   0.374
29384W        W  913  34.969  43.929   3.835
29385W        W  914  10.836   2.541   5.057
29386W        W  915  30.571   9.193  12.353
29387W        W  916  31.431  11.492  12.048
29388W        W  917  41.898  14.281   4.617
29389W        W  918   8.446  38.340  12.486
29390W        W  919  33.518  38.855   1.376
29391W        W  920  38.824  15.686  11.018
29392W        W  921  18.256  23.578  13.899
29393W        W  922   0.467  17.629   0.386
29394W        W  923  35.017  23.763  13.461
29395W        W  924  19.377  11.171   1.855
29396W        W  925  12.098   6.181   1.411
29397W        W  926   2.830  34.999   4.105
29398W        W  927  29.484   3.496  14.366
29399W        W  928  27.683  29.635  13.478
29400W        W  929   2.131  11.073   3.765
29401W        W  930   9.265   2.452  13.790
29402W        W  931  36.709  34.107  12.085
29403W        W  932  41.303  36.727   2.737
29404W        W  933  14.115  23.122   4.147
29405W        W  934  14.323  26.992   0.635
29406W        W  935  28.002   5.221  10.915
29407W        W  936  20.729  42.401  12.194
29408W        W  937  16.343  33.475   2.402
29409W        W  938  10.362  40.199  10.334
29410W        W  939  40.150   4.395   2.381
29411W        W  940  12.390  12.808   3.998
29412W        W  941   0.210  24.935  11.483
29413W        W  942  34.809  29.630   4.639
29414W        W  943   4.266  29.460  13.099
29415W        W  944  30.960  10.851   4.193
29416W        W  945  26.440  40.558  13.118
29417W        W  946   8.493  30.027   2.833
29418W        W  947  44.456  30.341  14.975
29419W        W  948  34.171  31.629  11.171
29420W        W  949  41.777  34.423   1.796
29421W        W  950  44.198  24.730  11.355
29422W        W  951  13.896  13.194   3.219
29423W        W  952  43.076   7.876   3.648
29424W        W  953  33.475  22.915   0.687
29425W        W  954  18.045  33.331   0.228
29426W        W  955  43.307   5.886  11.208
29427W        W  956  13.422  38.564   3.653
29428W        W  957  32.656  21.704   2.423
29429W        W  958   6.190  41.380   2.695
29430W        W  959  10.148  26.234   1.703
29431W        W  960  24.510  17.992   4.631
29432W        W  961  15.097   3.962   2.821
29433W        W  962  30.539  40.079  12.527
29434W        W  963   7.351   3.934  13.776
29435W        W  964  10.087  22.119  14.446
29436W        W  965  31.668   8.166   1.654
29437W        W  966  41.517  24.247   2.671
29438W        W  967   6.752  21.231  11.181
29439W        W  968  20.805  15.267  13.867
29440W        W  969  16.179  19.543  14.412
29441W        W  970  42.869  23.659   2.817
29442W        W  971   7.162  20.607   2.741
29443W        W  972  15.933   6.146  14.832
29444W        W  973   8.717  29.215   3.891
29445W        W  974  37.605  23.900   2.183
29446W        W  975  41.435  38.085  13.062
29447W        W  976  16.118  27.620   3.546
29448W        W  977  31.616   4.847   2.852
29449W        W  978  17.728   9.594   2.729
29450W        W  979  18.171  30.391   4.947
29451W        W  980  17.838  19.757   1.360
29452W        W  981  34.394  27.387  13.880
29453W        W  982   2.053  23.951  14.216
29454W        W  983  24.761  19.686  11.109
29455W        W  984  37.334  17.767   4.609
29456W        W  985  43.754   3.288  11.468
29457W        W  986   0.469  39.394   1.645
29458W        W  987   7.881  28.551   1.985
29459W        W  988  30.758  32.254   3.292
29460W        W  989   2.466  13.626  12.971
29461W        W  990  14.905  30.073   3.333
29462W        W  991   7.081  43.732  14.380
29463W        W  992  10.609   6.992  14.032
29464W        W  993  29.152  27.222  14.854
29465W        W  994  14.308  10.446   0.459
29466W        W  995  24.947   9.645  11.475
29467W        W  996  26.871  22.943   4.138
29468W        W  997   2.302  14.136  10.287
29469W        W  998  39.244  42.250   2.307
29470W        W  999  41.660  21.045   9.606
29471W        W 1000   1.505  22.285  11.553
29472W        W 1001  39.142  39.148   1.018
29473W        W 1002  38.898  23.480   2.318
29474W        W 1003   1.011  11.205  13.001
29475W        W 1004  26.116   5.679  12.830
29476W        W 1005  41.908   8.887  14.014
29477W        W 1006   7.785   7.257  10.703
29478W        W 1007   3.811  32.097  10.350
29479W        W 1008   8.626  20.532   0.194
29480W        W 1009  10.357  26.138   2.185
29481W        W 1010   7.108  22.265  11.388
29482W        W 1011   0.575  10.601   0.356
29483W        W 1012  27.378  38.534  13.060
29484W        W 1013  35.398  44.468  13.271
29485W        W 1014  19.688  13.333  11.670
29486W        W 1015  15.107  22.388  11.712
29487W        W 1016  40.413  17.581  10.652
29488W        W 1017  13.365  15.350  13.000
29489W        W 1018   7.702  29.535  14.921
29490W        W 1019  41.705   4.216   3.931
29491W        W 1020   5.856  18.716   0.369
29492W        W 1021  18.109  10.909  12.490
29493W        W 1022   8.700  24.541   4.089
29494W        W 1023  38.533  27.202  12.344
29495W        W 1024  36.392   2.481  14.379
29496W        W 1025  27.509  37.396   2.344
29497W        W 1026  16.566  33.671   1.196
29498W        W 1027  26.232  11.741   4.371
29499W        W 1028  42.806  23.041   0.376
29500W        W 1029  35.110   1.773  13.407
29501W        W 1030  16.835   9.724   2.120
29502W        W 1031  25.207  12.051   4.017
29503W        W 1032  14.617  42.447  14.532
29504W        W 1033  36.120  39.690  13.639
29505W        W 1034  44.394  34.339   1.331
29506W        W 1035  39.342  41.753   3.201
29507W        W 1036  22.992  32.401  11.504
29508W        W 1037   4.338  21.242   1.016
29509W        W 1038  37.992  33.980   1.720
29510W        W 1039  10.935  34.442  12.371
29511W        W 1040  20.545  25.301  13.091
29512W        W 1041  26.541   9.956   3.740
29513W        W 1042  15.737  11.355   4.626
29514W        W 1043  30.564  18.227   2.722
29515W        W 1044  13.805   2.809  13.993
29516W        W 1045  27.612   5.051   1.862
29517W        W 1046   4.970  16.149  10.774
29518W        W 1047   1.857  15.870   0.003
29519W        W 1048  34.164  28.256  13.364
29520W        W 1049  39.447  10.335  12.568
29521W        W 1050  19.002  11.187  13.903
29522W        W 1051  29.960  24.605  10.274
29523W        W 1052  14.624   1.648  13.046
29524W        W 1053  26.564   2.602   2.710
29525W        W 1054  29.260  19.451  13.350
29526W        W 1055   3.518  44.526   4.474
29527W        W 1056  11.536  15.345   1.701
29528W        W 1057  20.009  34.599  13.054
29529W        W 1058  27.179  26.472   3.114
29530W        W 1059   3.491   3.483   1.950
29531W        W 1060   3.136  40.769  13.379
29532W        W 1061  32.269  39.552   1.684
29533W        W 1062  43.866  11.561   2.648
29534W        W 1063  18.682  37.424  11.936
29535W        W 1064  30.153  38.308   2.748
29536W        W 1065  18.767  20.507  11.147
29537W        W 1066   6.438  24.627  13.135
29538W        W 1067  18.285  34.390   4.015
29539W        W 1068  30.236   5.929  14.306
29540W        W 1069   4.767   8.663   4.497
29541W        W 1070  31.035  42.458   4.800
29542W        W 1071  24.834  43.381  12.098
29543W        W 1072  20.066  35.381  12.691
29544W        W 1073  38.416  43.813  11.632
29545W        W 1074  43.336  16.149   1.468
29546W        W 1075  14.138  24.630   2.882
29547W        W 1076   0.186  33.168   3.211
29548W        W 1077  19.078  20.194   4.547
29549W        W 1078   2.966  22.718   3.646
29550W        W 1079  29.575  25.589  10.301
29551W        W 1080  41.932  11.901   0.477
29552W        W 1081  12.013  15.851   0.160
29553W        W 1082  28.153  13.164   2.322
29554W        W 1083  44.615   4.495   1.108
29555W        W 1084  12.653  18.701  12.420
29556W        W 1085  28.959  43.818  10.405
29557W        W 1086  43.827  42.050  11.197
29558W        W 1087   5.284  30.498   3.252
29559W        W 1088   5.742  15.223   0.832
29560W        W 1089  25.999  34.833   2.564
29561W        W 1090  17.708  40.028   0.272
29562W        W 1091  18.207  18.653  13.075
29563W        W 1092  43.799  28.248   4.076
29564W        W 1093   1.229  24.139   2.395
29565W        W 1094  13.222  11.312   3.215
29566W        W 1095  18.001  10.572   4.053
29567W        W 1096  21.609  15.276  14.706
29568W        W 1097  41.769  13.895   3.733
29569W        W 1098  10.766  29.145   1.323
29570W        W 1099  28.112  14.867   0.430
29571W        W 1100   4.478   6.589  12.531
29572W        W 1101  34.341  26.125  12.584
29573W        W 1102  12.696  38.341   0.659
29574W        W 1103  15.588   2.426  12.474
29575W        W 1104  43.469  17.598   0.894
29576W        W 1105  29.889  13.336   2.794
29577W        W 1106  31.553  34.401  14.839
29578W        W 1107   9.893  36.350   2.728
29579W        W 1108  43.542   6.096  10.163
29580W        W 1109  31.381   5.422  11.198
29581W        W 1110  35.549   8.007   1.338
29582W        W 1111   5.067  36.463  14.154
29583W        W 1112  16.255  35.675   4.535
29584W        W 1113  43.457  22.989  10.725
29585W        W 1114  36.677  26.925  12.595
29586W        W 1115  24.129  32.093   1.352
29587W        W 1116   2.528  26.021   0.621
29588W        W 1117  18.052  28.495   3.546
29589W        W 1118  15.544  35.581   1.146
29590W        W 1119   2.975   3.824   1.417
29591W        W 1120  26.595  36.838   4.139
29592W        W 1121  16.184  11.400  11.147
29593W        W 1122  42.181  13.810   4.719
29594W        W 1123  29.435  37.795   0.983
29595W        W 1124  38.042  10.433   0.441
29596W        W 1125  15.271   5.737  14.428
29597W        W 1126  15.999  18.242   2.757
29598W        W 1127  28.333  15.106   4.576
29599W        W 1128  18.564   6.557   0.200
29600W        W 1129   5.685   2.469   0.965
29601W        W 1130  13.621  34.454   1.789
29602W        W 1131  29.952  39.057   2.384
29603W        W 1132  44.292  34.872   5.055
29604W        W 1133  35.802  34.426   4.971
29605W        W 1134  30.129  14.072  10.762
29606W        W 1135  35.384  20.884   1.882
29607W        W 1136  35.318  39.861   2.813
29608W        W 1137  22.928  21.538  12.537
29609W        W 1138  31.157  11.799  11.161
29610W        W 1139  40.746  20.782  14.123
29611W        W 1140  27.529   3.952   0.510
29612W        W 1141   1.052   4.472  13.437
29613W        W 1142   8.439  17.038   3.240
29614W        W 1143  42.870   9.199  11.631
29615W        W 1144  32.584  28.500   2.381
29616W        W 1145  20.217  35.156   2.692
29617W        W 1146  13.210  35.619  12.587
29618W        W 1147  39.188  32.930  11.022
29619W        W 1148  25.718  39.044   1.509
29620W        W 1149  18.799  42.860  11.974
29621W        W 1150  34.286   4.163  13.799
29622W        W 1151  36.385  44.372   0.436
29623W        W 1152  20.488  30.200  14.110
29624W        W 1153  11.355  13.814   2.292
29625W        W 1154  43.760  22.842  11.577
29626W        W 1155  21.758   6.685   1.767
29627W        W 1156  38.448  44.993   4.104
29628W        W 1157  26.730  37.808   4.094
29629W        W 1158  36.303   2.779  11.409
29630W        W 1159  22.520  37.478   3.109
29631W        W 1160  15.267  40.520  14.396
29632W        W 1161  20.531  10.634   2.142
29633W        W 1162  21.691  25.816  11.485
29634W        W 1163  43.541  17.240  11.957
29635W        W 1164  10.750   2.290   4.085
29636W        W 1165  28.293  29.234  11.086
29637W        W 1166  23.066  22.499   0.428
29638W        W 1167  42.513   1.276   4.105
29639W        W 1168  39.098  42.855  13.429
29640W        W 1169   0.002  33.143  12.533
29641W        W 1170   4.791  21.969  14.193
29642W        W 1171  35.318  27.142  14.833
29643W        W 1172  13.083   4.363   3.145
29644W        W 1173  37.468  44.433   1.214
29645W        W 1174  10.233  11.830  11.170
29646W        W 1175  37.634   1.011   1.688
29647W        W 1176  43.435   2.787  12.598
29648W        W 1177   7.434  13.736   3.764
29649W        W 1178   7.623  13.031  14.890
29650W        W 1179  15.064  27.429   2.654
29651W        W 1180  36.853  43.536   4.197
29652W        W 1181   5.137  12.443  11.106
29653W        W 1182  28.460  23.601   1.676
29654W        W 1183  33.532  23.965  11.581
29655W        W 1184  31.165   4.771  13.140
29656W        W 1185  44.873  16.573   0.544
29657W        W 1186  20.198  11.205  10.770
29658W        W 1187  19.633  12.821  10.542
29659W        W 1188   6.716  12.934   2.328
29660W        W 1189  13.124  35.989  13.419
29661W        W 1190  40.101  22.686  14.460
29662W        W 1191  29.072  11.928   1.022
29663W        W 1192  28.962  17.503   2.944
29664W        W 1193  27.532  13.792  12.345
29665W        W 1194   9.631  20.493  11.979
29666W        W 1195  26.108  20.309   2.207
29667W        W 1196  20.477  42.437  10.853
29668W        W 1197  12.116  28.040  11.972
29669W        W 1198  35.752  11.299  14.591
29670W        W 1199  10.062   9.238  14.821
29671W        W 1200  40.297   9.669   1.907
29672W        W 1201  12.613  24.718  13.898
29673W        W 1202  26.045   8.933  10.642
29674W        W 1203   0.234  24.191   3.987
29675W        W 1204  12.535  10.163  13.830
29676W        W 1205   7.725  17.139  12.861
29677W        W 1206  19.879  20.972   5.036
29678W        W 1207  34.312   5.208  14.856
29679W        W 1208  41.005  44.529   3.805
29680W        W 1209  25.314   3.320  12.919
29681W        W 1210  26.992  41.572   3.672
29682W        W 1211  41.013   2.877   1.828
29683W        W 1212  44.720  44.439   2.677
29684W        W 1213  11.236  21.135   1.686
29685W        W 1214  31.665   4.230   1.183
29686W        W 1215  33.460  22.758   4.567
29687W        W 1216   3.374   5.206  10.780
29688W        W 1217   9.140  30.400   3.675
29689W        W 1218  17.534  40.303  10.637
29690W        W 1219   1.181   8.250   4.176
29691W        W 1220  17.160   8.547   1.734
29692W        W 1221  29.444   0.712  13.502
29693W        W 1222   2.182  38.905   1.750
29694W        W 1223  24.122  27.332  12.639
29695W        W 1224  37.047  35.971   0.297
29696W        W 1225  28.718  23.405   4.510
29697W        W 1226  28.621  17.825  13.766
29698W        W 1227  41.487   6.336  12.795
29699W        W 1228  26.890   9.922   4.122
29700W        W 1229  15.633  10.194  11.959
29701W        W 1230  32.145  35.406  13.065
29702W        W 1231  40.764  17.070  11.312
29703W        W 1232  44.489   9.965  13.397
29704W        W 1233   8.568   6.968   0.915
29705W        W 1234  43.080  35.676  11.613
29706W        W 1235  38.472  39.855   3.224
29707W        W 1236  14.469  28.288  13.929
29708W        W 1237  26.616  39.289   3.709
29709W        W 1238  40.408  41.996  10.414
29710W        W 1239  39.963   3.394   3.360
29711W        W 1240   6.508  40.390  14.334
29712W        W 1241  32.125  32.159   0.679
29713W        W 1242  12.996  15.451   4.124
29714W        W 1243   5.797   3.355  12.017
29715W        W 1244  42.644  27.559  10.589
29716W        W 1245  15.601  17.189   1.460
29717W        W 1246  29.942   3.485   0.831
29718W        W 1247  38.549   6.487   0.710
29719W        W 1248  25.308  44.315  13.022
29720W        W 1249  20.646  27.159  10.597
29721W        W 1250  13.159  20.119   1.321
29722W        W 1251  32.549  23.969   0.046
29723W        W 1252  22.984  11.742  14.807
29724W        W 1253   6.041  25.097   1.315
29725W        W 1254   3.786  26.154   3.628
29726W        W 1255  27.079  38.071   4.762
29727W        W 1256  24.883  14.915   0.407
29728W        W 1257   0.965  14.029  14.272
29729W        W 1258  27.107  21.221  11.285
29730W        W 1259   8.760  22.219   0.597
29731W        W 1260  19.021  35.428   3.395
29732W        W 1261  11.607  41.685  13.588
29733W        W 1262   0.970  16.737   3.739
29734W        W 1263  33.948  22.023  11.170
29735W        W 1264  26.979  17.006   5.179
29736W        W 1265  43.279  18.821   4.195
29737W        W 1266  31.679  40.801   3.579
29738W        W 1267  36.068   1.965  11.114
29739W        W 1268   6.911  19.307  11.471
29740W        W 1269  15.745  30.434   1.315
29741W        W 1270  36.717  21.691   4.618
29742W        W 1271  42.825  36.646  10.751
29743W        W 1272  27.604  13.782   4.580
29744W        W 1273  37.099  33.627  10.539
29745W        W 1274   3.261  17.765  14.098
29746W        W 1275  16.143  17.129   3.324
29747W        W 1276  44.269  36.420   0.972
29748W        W 1277  20.595  27.444   0.930
29749W        W 1278  28.909  30.408   0.393
29750W        W 1279  29.897  23.637  11.624
29751W        W 1280  39.712  36.903   4.077
29752W        W 1281  39.711  32.186   3.925
29753W        W 1282  33.872   6.297  14.342
29754W        W 1283  41.183  42.620   3.077
29755W        W 1284  21.081  31.461   3.713
29756W        W 1285  14.270   5.247   1.334
29757W        W 1286  42.501  15.160   3.991
29758W        W 1287   4.643  34.577   0.243
29759W        W 1288  25.597  15.712   4.907
29760W        W 1289  32.100  20.769  11.081
29761W        W 1290  17.231   9.141  14.555
29762W        W 1291  40.667  20.220  12.541
29763W        W 1292  38.963  18.210  11.623
29764W        W 1293  28.059  39.122   2.470
29765W        W 1294  34.111   3.305   0.238
29766W        W 1295  27.071  29.499   2.294
29767W        W 1296  23.646   4.411  14.109
29768W        W 1297  21.334   7.564   4.768
29769W        W 1298  23.085  42.446   3.348
29770W        W 1299   1.715  37.894   3.673
29771W        W 1300  40.344  30.870   2.162
29772W        W 1301  27.160  39.957  13.540
29773W        W 1302  14.203  12.906   4.863
29774W        W 1303  32.008   9.884   3.381
29775W        W 1304  25.056  10.212   2.820
29776W        W 1305   4.591  17.696  10.581
29777W        W 1306   4.920  10.649   4.596
29778W        W 1307  16.540  13.793   1.333
29779W        W 1308  25.586  15.603   4.395
29780W        W 1309   8.334   8.868   3.725
29781W        W 1310  16.593  33.878   3.335
29782W        W 1311  18.187   1.192   2.136
29783W        W 1312  34.140   9.465  13.503
29784W        W 1313  42.304   3.473  10.464
29785W        W 1314   0.234  21.860   2.043
29786W        W 1315  20.346  41.974   0.461
29787W        W 1316  10.384  40.853  11.503
29788W        W 1317  18.321  28.971   3.600
29789W        W 1318  24.077   1.495  12.452
29790W        W 1319  25.959  18.262   4.587
29791W        W 1320  22.608  16.265   0.977
29792W        W 1321   7.614   7.120   0.038
29793W        W 1322  42.068  42.421   4.578
29794W        W 1323   5.259   6.265  10.712
29795W        W 1324   3.847  16.332   2.895
29796W        W 1325  18.643  16.709   1.838
29797W        W 1326   2.454  13.060  10.712
29798W        W 1327   7.648   2.715  10.534
29799W        W 1328  22.883  38.414   0.370
29800W        W 1329  41.075  33.993   3.719
29801W        W 1330  28.622  43.444   0.266
29802W        W 1331   5.921  24.673   4.159
29803W        W 1332  40.909  27.974  11.609
29804W        W 1333  10.618   3.791  11.268
29805W        W 1334  11.678  42.347   2.230
29806W        W 1335  32.663  43.237  10.741
29807W        W 1336  25.172  14.746  11.025
29808W        W 1337  44.947   4.611  13.991
29809W        W 1338  32.179  11.208  11.975
29810W        W 1339   6.358  31.664   4.080
29811W        W 1340   1.977   5.300   0.290
29812W        W 1341   4.965  38.395   0.921
29813W        W 1342  14.100   2.367   1.751
29814W        W 1343  34.987  18.702   2.223
29815W        W 1344  27.581  27.600   0.287
29816W        W 1345  31.535  42.297   4.784
29817W        W 1346   4.681   2.966   4.196
29818W        W 1347  15.738  44.769  13.416
29819W        W 1348   7.157  42.392  11.073
29820W        W 1349  24.694   4.554  10.847
29821W        W 1350  42.256  28.600   2.531
29822W        W 1351  41.345   1.923  12.067
29823W        W 1352  44.440   8.647   3.690
29824W        W 1353   1.215   0.077  14.114
29825W        W 1354  27.613  27.811  11.031
29826W        W 1355  44.606  20.624   9.984
29827W        W 1356  20.077  35.042   4.265
29828W        W 1357   3.901  30.553   2.235
29829W        W 1358  39.837  11.620   3.058
29830W        W 1359  26.656   9.833   1.831
29831W        W 1360  10.349   9.609  14.579
29832W        W 1361  17.323   5.664   1.165
29833W        W 1362  29.656  44.495   2.113
29834W        W 1363  39.749  42.712   2.051
29835W        W 1364  38.593  40.581   3.661
29836W        W 1365  26.708  20.673  13.564
29837W        W 1366  12.349  37.195   4.549
29838W        W 1367   8.847   8.306   0.808
29839W        W 1368   1.339  43.435   1.884
29840W        W 1369  12.697  13.579  11.208
29841W        W 1370  22.626   9.919   4.163
29842W        W 1371  26.089   6.870   4.279
29843W        W 1372  16.053  44.892  13.847
29844W        W 1373   2.886   6.284   3.778
29845W        W 1374  20.057  21.239   0.672
29846W        W 1375  27.217   8.824   2.361
29847W        W 1376   1.427  43.918  14.322
29848W        W 1377  41.735   0.012  14.942
29849W        W 1378  23.138  26.281  11.108
29850W        W 1379  42.306  10.666   1.385
29851W        W 1380  19.248  35.489  12.337
29852W        W 1381   0.365   6.749   1.233
29853W        W 1382  12.279  13.608  13.406
29854W        W 1383  27.916  23.172   3.274
29855W        W 1384   1.956   6.446  13.980
29856W        W 1385  38.468  27.536   1.659
29857W        W 1386  30.125  15.573   1.371
29858W        W 1387  30.523  13.117  10.728
29859W        W 1388  25.605  11.160   4.841
29860W        W 1389  21.339  26.020   3.388
29861W        W 1390   4.394  16.055  13.325
29862W        W 1391  15.892  25.739   3.566
29863W        W 1392  17.127  18.073   5.029
29864W        W 1393  16.564  18.167  10.846
29865W        W 1394   5.369  16.965   3.607
29866W        W 1395   7.781  21.804   2.800
29867W        W 1396   5.836  44.730   3.106
29868W        W 1397  22.770  11.280  13.973
29869W        W 1398  12.607  36.485   1.236
29870W        W 1399  19.160  40.026   0.516
29871W        W 1400   4.240  40.712   1.607
29872W        W 1401  38.478  13.230  10.770
29873W        W 1402   7.667  44.393  11.068
29874W        W 1403  40.900  20.991  13.675
29875W        W 1404  28.785  32.052   2.242
29876W        W 1405  40.517  31.891  11.990
29877W        W 1406  44.966  32.549   4.638
29878W        W 1407  39.590  22.473  11.072
29879W        W 1408  33.088   2.850   4.753
29880W        W 1409  20.036  12.679   1.249
29881W        W 1410  11.918   7.881   4.075
29882W        W 1411  39.470  10.627  12.108
29883W        W 1412  36.066  25.814   1.471
29884W        W 1413  38.942  17.036  13.337
29885W        W 1414  28.219  12.658   2.254
29886W        W 1415  41.442  32.312   4.577
29887W        W 1416  21.073  33.141   3.349
29888W        W 1417  22.198  42.286  14.812
29889W        W 1418  23.114  21.961   1.005
29890W        W 1419  21.289   7.161   2.113
29891W        W 1420  40.815  30.631   2.231
29892W        W 1421  44.284  44.425  13.800
29893W        W 1422   5.190   5.719  11.551
29894W        W 1423  21.820  25.645   1.508
29895W        W 1424  22.423   4.007   1.329
29896W        W 1425  32.029  16.027   1.349
29897W        W 1426  39.390  36.046   0.220
29898W        W 1427  42.352  20.210  13.457
29899W        W 1428  35.336   2.453  14.598
29900W        W 1429  10.604  19.495  10.321
29901W        W 1430  31.830  38.877   2.587
29902W        W 1431  23.156  17.555  13.551
29903W        W 1432  41.942  10.566   4.989
29904W        W 1433  31.443  18.548  11.240
29905W        W 1434  42.795  43.999   4.684
29906W        W 1435  31.841  36.435  11.445
29907W        W 1436   0.247  40.016  10.659
29908W        W 1437   6.285  30.070   2.114
29909W        W 1438  37.528   7.923  13.833
29910W        W 1439  43.954  16.923  12.523
29911W        W 1440  21.282  44.301  12.757
29912W        W 1441  15.786  39.034   4.096
29913W        W 1442  39.424  44.378  13.078
29914W        W 1443  38.570  39.743   4.553
29915W        W 1444  16.089  19.271  14.837
29916W        W 1445  20.599   1.386  10.672
29917W        W 1446  11.770  43.691   0.933
29918W        W 1447  25.230  16.682   0.756
29919W        W 1448   4.753  18.793  11.673
29920W        W 1449  22.714  20.008   2.152
29921W        W 1450  23.995   7.812   3.341
29922W        W 1451  23.915  13.309   2.298
29923W        W 1452  33.964  14.408   0.766
29924W        W 1453  30.453  18.006   4.189
29925W        W 1454  14.187  18.235   4.875
29926W        W 1455  42.777  19.203   0.868
29927W        W 1456   6.510  31.452  14.432
29928W        W 1457   1.801  25.236   1.809
29929W        W 1458  41.779  21.063   1.331
29930W        W 1459  13.275  28.994  11.570
29931W        W 1460  10.146  24.439   5.224
29932W        W 1461  11.411   1.472   5.470
29933W        W 1462  19.569   3.409  13.467
29934W        W 1463  18.866  11.711  12.386
29935W        W 1464  31.401  35.043  10.732
29936W        W 1465  35.051  29.960  13.849
29937W        W 1466   9.944   5.494  12.502
29938W        W 1467  38.526  23.557  14.499
29939W        W 1468  32.406  44.345  12.581
29940W        W 1469  15.891   5.791  10.909
29941W        W 1470   1.342  23.799   0.590
29942W        W 1471  43.956  26.599  13.151
29943W        W 1472   6.380  41.146  13.005
29944W        W 1473  35.876  16.248   0.309
29945W        W 1474  20.697   1.313  13.505
29946W        W 1475  23.804  37.365  11.034
29947W        W 1476  10.385  18.810  12.378
29948W        W 1477  32.841  42.772   4.624
29949W        W 1478   8.402  41.490  13.874
29950W        W 1479  12.599  29.388   0.900
29951W        W 1480  17.794  16.201  13.410
29952W        W 1481  36.038  22.911   0.890
29953W        W 1482   7.991  12.623  14.837
29954W        W 1483  11.959  16.274   0.910
29955W        W 1484   2.437  40.238   2.679
29956W        W 1485  28.099  17.464  12.455
29957W        W 1486  30.166  38.934   0.643
29958W        W 1487   6.168  42.591   2.108
29959W        W 1488  29.210   4.791   0.852
29960W        W 1489  26.541   4.997   3.178
29961W        W 1490  20.081  35.828  13.609
29962W        W 1491   4.628  11.592   1.511
29963W        W 1492   0.996   5.386   3.209
29964W        W 1493  32.980  16.596  13.489
29965W        W 1494  32.892  35.801  14.332
29966W        W 1495  34.076  31.127   1.765
29967W        W 1496  14.850  28.716   0.787
29968W        W 1497  18.258  29.852   3.948
29969W        W 1498  31.542  38.417  14.164
29970W        W 1499  20.040   9.166  13.232
29971W        W 1500  36.418  24.443   1.913
29972W        W 1501  10.829  12.165  14.986
29973W        W 1502  11.237  27.962  14.498
29974W        W 1503  21.868  15.196  12.622
29975W        W 1504  13.730  25.624  13.116
29976W        W 1505  22.378  12.738   1.787
29977W        W 1506  32.616  43.925   4.552
29978W        W 1507  40.566   9.768  11.933
29979W        W 1508  30.069  40.352  10.872
29980W        W 1509   5.463   0.967  12.460
29981W        W 1510  11.446   9.808   2.244
29982W        W 1511  18.035  40.602  12.486
29983W        W 1512  41.012  15.045  13.020
29984W        W 1513  11.889   5.942  13.332
29985W        W 1514  41.146   4.751   4.189
29986W        W 1515  34.027  32.104   0.226
29987W        W 1516  15.374   3.867  11.415
29988W        W 1517  17.032  19.102  11.951
29989W        W 1518  28.234   8.241   4.907
29990W        W 1519  14.864  21.710  12.798
29991W        W 1520  37.479  43.083   1.637
29992W        W 1521  26.197   1.866  13.384
29993W        W 1522  10.778  38.621   3.718
29994W        W 1523  15.393   4.215   0.990
29995W        W 1524  44.579  21.027   2.277
29996W        W 1525   4.849  17.618   4.940
29997W        W 1526   0.377   3.710  11.140
29998W        W 1527  33.643  28.117   5.013
29999W        W 1528   4.420  43.617   4.146
30000W        W 1529  42.829   4.242   1.818
30001W        W 1530  21.215   0.574   3.143
30002W        W 1531  27.376  33.407   1.331
30003W        W 1532   4.451  35.711  13.548
30004W        W 1533  38.618  35.199  12.501
30005W        W 1534  11.115  25.576   2.714
30006W        W 1535  10.998   7.432   2.174
30007W        W 1536  23.134   3.859   2.755
30008W        W 1537  22.709   6.269   2.992
30009W        W 1538   4.400  44.171   4.092
30010W        W 1539  14.809  15.394  11.083
30011W        W 1540  29.967  20.832  13.512
30012W        W 1541  35.583  34.187   3.816
30013W        W 1542  37.159  43.701  11.091
30014W        W 1543  20.132  30.141   1.914
30015W        W 1544  11.677  44.979   1.785
30016W        W 1545   3.411   1.854   4.971
30017W        W 1546  10.413  39.817   2.419
30018W        W 1547  11.305   4.846   0.956
30019W        W 1548   3.497  17.074   4.679
30020W        W 1549   8.035  38.032  14.261
30021W        W 1550  12.321   8.399  12.074
30022W        W 1551  41.561  39.486  14.784
30023W        W 1552  39.904  15.581  10.133
30024W        W 1553  32.246  20.713   3.354
30025W        W 1554  42.042  30.608   1.789
30026W        W 1555  33.873  33.260  13.430
30027W        W 1556   4.330  40.465  13.382
30028W        W 1557  27.685  21.183  10.965
30029W        W 1558  13.164  37.078   4.617
30030W        W 1559   8.445   0.403  14.470
30031W        W 1560  44.574  22.216  11.486
30032W        W 1561  13.509  34.726  12.956
30033W        W 1562  26.642  24.539  14.306
30034W        W 1563  36.586  22.597  14.795
30035W        W 1564  32.851  19.216  12.027
30036W        W 1565  36.881   7.948   1.955
30037W        W 1566  43.391  33.395   1.269
30038W        W 1567  29.218   8.954  12.054
30039W        W 1568  28.007  15.714  14.870
30040W        W 1569  23.980  26.383  13.835
30041W        W 1570  33.962  44.965   2.925
30042W        W 1571   8.318   2.821  11.804
30043W        W 1572  28.678  14.579   2.274
30044W        W 1573  21.691  23.468  13.431
30045W        W 1574  22.127  32.593  11.887
30046W        W 1575   3.293  42.367  13.951
30047W        W 1576  15.323  15.594   3.327
30048W        W 1577  34.800  34.920  13.847
30049W        W 1578   1.757  37.476   3.361
30050W        W 1579   7.235  14.856  14.034
30051W        W 1580  21.695  13.806  14.495
30052W        W 1581  42.069  19.504  12.096
30053W        W 1582   3.157  43.815  10.686
30054W        W 1583  44.414  40.566  14.270
30055W        W 1584  36.035   1.017  12.887
30056W        W 1585   5.607  20.899   5.054
30057W        W 1586  36.920   2.123   1.715
30058W        W 1587  44.871   3.505  12.594
30059W        W 1588   4.302   1.147  14.063
30060W        W 1589  20.634  25.179  11.690
30061W        W 1590  10.316  18.220   4.987
30062W        W 1591   9.180  36.537   4.156
30063W        W 1592  30.334  38.268  12.692
30064W        W 1593   7.468   5.242  13.361
30065W        W 1594  39.021  29.568   2.298
30066W        W 1595   8.837  39.922   4.857
30067W        W 1596   5.740  43.221   0.489
30068W        W 1597  36.058  26.167   4.742
30069W        W 1598  22.366  26.366   1.342
30070W        W 1599   0.776  13.804   0.157
30071W        W 1600   5.351   2.470   3.599
30072W        W 1601  17.537  42.767   1.241
30073W        W 1602  23.593   8.621   2.326
30074W        W 1603  43.885  35.183   3.624
30075W        W 1604  14.138  28.693   4.109
30076W        W 1605  37.395  25.416  10.708
30077W        W 1606  14.341  40.318  13.092
30078W        W 1607  31.983  31.829  14.588
30079W        W 1608  27.185  42.476  14.549
30080W        W 1609   1.465  35.003  13.095
30081W        W 1610  14.065  17.673  14.292
30082W        W 1611  13.815  41.517  11.040
30083W        W 1612   5.953  29.473  12.396
30084W        W 1613  26.020  35.135  12.666
30085W        W 1614  36.067  31.696  10.476
30086W        W 1615  10.697  11.555  11.054
30087W        W 1616  28.178  24.452   1.004
30088W        W 1617  17.868  20.134   5.168
30089W        W 1618  44.051  26.262  12.292
30090W        W 1619  36.820  10.529  14.496
30091W        W 1620  26.321  10.436  12.540
30092W        W 1621  10.225   3.421   0.954
30093W        W 1622   6.563   0.774   4.876
30094W        W 1623  39.472  39.322  10.415
30095W        W 1624   2.271  19.993   4.904
30096W        W 1625  24.208  30.942  10.674
30097W        W 1626  31.112  27.188   0.700
30098W        W 1627  35.974  32.066  10.833
30099W        W 1628   1.392  21.244  11.597
30100W        W 1629   4.471  23.527  12.884
30101W        W 1630  21.708   1.086   3.787
30102W        W 1631  20.964   3.145   2.124
30103W        W 1632  13.668  17.846  12.766
30104W        W 1633  41.370  11.711  14.400
30105W        W 1634  26.673  20.271   2.631
30106W        W 1635   4.952   3.299   3.203
30107W        W 1636  24.396   0.003   2.442
30108W        W 1637  33.087  32.172   0.755
30109W        W 1638  35.318   1.455   3.267
30110W        W 1639  34.492   7.003   1.247
30111W        W 1640  19.287  30.726   0.810
30112W        W 1641  24.616   4.456  11.898
30113W        W 1642  33.957   6.231   3.172
30114W        W 1643  20.006  34.873  12.606
30115W        W 1644  35.951  13.297  14.809
30116W        W 1645  43.446  25.723  11.353
30117W        W 1646  14.986  43.324   0.822
30118W        W 1647  25.458  42.925   3.108
30119W        W 1648  11.822  27.458  13.862
30120W        W 1649  11.715  13.788  11.351
30121W        W 1650  14.272  21.101  10.621
30122W        W 1651  21.497   8.618  11.055
30123W        W 1652  22.561  28.373   4.588
30124W        W 1653  12.379  17.994  11.239
30125W        W 1654  37.423   9.404   0.327
30126W        W 1655   6.965   8.681   1.848
30127W        W 1656   8.140   4.061   3.610
30128W        W 1657  18.592  38.959  11.187
30129W        W 1658   6.840   0.349  10.965
30130W        W 1659  27.668  12.873  12.260
30131W        W 1660  12.280  29.917   2.318
30132W        W 1661   4.870   5.931  14.355
30133W        W 1662  42.884  23.373  13.820
30134W        W 1663   8.360   1.448  12.861
30135W        W 1664  23.120   4.856  14.684
30136W        W 1665  18.024  19.214   3.525
30137W        W 1666  14.431  29.340   3.679
30138W        W 1667  30.631  18.089  13.991
30139W        W 1668  25.727   1.710  10.635
30140W        W 1669  11.407  17.701   2.698
30141W        W 1670  36.843  38.545   1.682
30142W        W 1671  23.747  19.913  14.805
30143W        W 1672   8.171  34.063   3.742
30144W        W 1673  25.020  25.650  10.727
30145W        W 1674   1.834   7.208   0.114
30146W        W 1675  19.784  31.869   4.320
30147W        W 1676   9.738  35.649   2.390
30148W        W 1677  35.845  29.470  14.190
30149W        W 1678  17.745  10.310  10.120
30150W        W 1679  20.082  24.426   0.342
30151W        W 1680   8.368  23.837  12.260
30152W        W 1681  25.489  12.038   2.172
30153W        W 1682   4.452  41.971   2.737
30154W        W 1683  31.665  26.733  11.630
30155W        W 1684   6.772   5.238   3.657
30156W        W 1685  12.847  32.622   3.214
30157W        W 1686  30.212   8.860  13.623
30158W        W 1687  42.289  23.996   2.314
30159W        W 1688  39.034  25.266  14.744
30160W        W 1689   5.171  16.699   4.459
30161W        W 1690  36.267  20.113  12.680
30162W        W 1691  32.407   1.522  12.529
30163W        W 1692  42.855   4.933  13.882
30164W        W 1693   8.457  44.713  14.888
30165W        W 1694   6.022  13.699  12.102
30166W        W 1695  14.680  28.983   1.259
30167W        W 1696  35.589  11.795   2.156
30168W        W 1697  16.692  24.514   2.394
30169W        W 1698   0.823  38.184  13.493
30170W        W 1699  15.535  16.057   2.636
30171W        W 1700  36.862  39.493  11.130
30172W        W 1701  23.766  38.396   3.818
30173W        W 1702  27.082  31.386   2.414
30174W        W 1703  14.319  20.318   2.328
30175W        W 1704  32.154   7.330  11.558
30176W        W 1705  34.502  22.111  14.853
30177W        W 1706  18.239   5.721   1.434
30178W        W 1707  31.475  19.132   1.202
30179W        W 1708  10.924   5.742   0.725
30180W        W 1709  35.398  38.947  10.429
30181W        W 1710  23.745  13.178  13.388
30182W        W 1711   7.436  41.359  11.071
30183W        W 1712  26.419  33.680   3.688
30184W        W 1713  34.533  40.842  14.097
30185W        W 1714  25.936  29.160   2.140
30186W        W 1715  37.362  11.465   0.205
30187W        W 1716  11.732  34.133  14.882
30188W        W 1717  24.856  44.235  11.192
30189W        W 1718  31.337  44.220  11.984
30190W        W 1719  44.694  11.825  11.255
30191W        W 1720  44.901  43.792   0.881
30192W        W 1721  14.124  19.378  12.992
30193W        W 1722  36.283  12.093  13.101
30194W        W 1723  11.427  43.371  14.979
30195W        W 1724  22.180  27.551   3.415
30196W        W 1725   3.764   3.860   1.734
30197W        W 1726   2.609  10.230  14.536
30198W        W 1727  16.685  42.443  12.126
30199W        W 1728  36.838   2.875   3.636
30200W        W 1729   5.578  43.233   1.389
30201W        W 1730  19.523  18.337   2.225
30202W        W 1731  43.348  13.546   4.023
30203W        W 1732   8.134  16.202  14.334
30204W        W 1733   0.099  42.374   0.854
30205W        W 1734  25.038  29.132   2.173
30206W        W 1735  19.424  21.808   2.784
30207W        W 1736   0.275   7.301  10.688
30208W        W 1737   4.208  37.833  10.767
30209W        W 1738  40.817  20.581  11.469
30210W        W 1739   6.351  34.275  14.574
30211W        W 1740  13.042  37.786  13.028
30212W        W 1741  27.962  28.342  12.578
30213W        W 1742  21.190  31.826  10.573
30214W        W 1743   0.921   1.511   3.930
30215W        W 1744  42.205  41.348  12.764
30216W        W 1745  34.942  32.611   1.185
30217W        W 1746   3.422   9.865   1.652
30218W        W 1747   4.971  43.540  10.582
30219W        W 1748   6.958  32.536  12.140
30220W        W 1749  23.175   2.455  11.017
30221W        W 1750  28.370  44.486  14.130
30222W        W 1751  29.688  41.762  13.340
30223W        W 1752  21.069  19.784   2.908
30224W        W 1753  12.713  34.853   4.531
30225W        W 1754   2.972  33.268  10.492
30226W        W 1755   4.922  32.623  10.966
30227W        W 1756  11.057   0.827  12.386
30228W        W 1757  34.825  36.529   4.221
30229W        W 1758  19.182  26.311  14.815
30230W        W 1759   2.751   7.326  12.606
30231W        W 1760  29.439   9.090  13.027
30232W        W 1761  17.124  35.769  14.446
30233W        W 1762  20.137  36.339  13.719
30234W        W 1763  33.563  22.605  12.379
30235W        W 1764  16.396   1.492   2.788
30236W        W 1765   7.178  17.233   2.696
30237W        W 1766  30.329   1.393  10.695
30238W        W 1767   9.684  33.164   1.076
30239W        W 1768  36.561  27.611   4.654
30240W        W 1769  14.063   9.384  12.787
30241W        W 1770   1.902  43.529  13.007
30242W        W 1771  22.916  31.461  14.106
30243W        W 1772  32.533  33.703   0.461
30244W        W 1773   9.890  32.199   2.861
30245W        W 1774  10.633  15.241   3.626
30246W        W 1775  40.242  19.509   3.848
30247W        W 1776  14.775  18.730   1.450
30248W        W 1777  21.549  26.744   1.355
30249W        W 1778  26.194  13.128   0.272
30250W        W 1779  38.756  30.080   3.088
30251W        W 1780  40.074  27.470  11.901
30252W        W 1781  14.752  42.261   3.200
30253W        W 1782   4.000   5.357   2.790
30254W        W 1783   5.641  37.072   4.804
30255W        W 1784  14.383  30.084  10.713
30256W        W 1785  31.026  29.161   4.752
30257W        W 1786  43.708   7.480  11.107
30258W        W 1787  27.029   7.674   1.896
30259W        W 1788  21.944  21.441  13.589
30260W        W 1789  12.614  26.653  14.260
30261W        W 1790  25.110  10.493   4.970
30262W        W 1791  31.831   9.807   2.890
30263W        W 1792  31.009  42.602  11.619
30264W        W 1793  15.462  36.609  11.391
30265W        W 1794  41.831  10.182   4.059
30266W        W 1795  24.569  29.667   4.622
30267W        W 1796   7.666   7.711   2.660
30268W        W 1797   9.044  10.092   3.716
30269W        W 1798  35.145  14.032   1.889
30270W        W 1799  44.421  17.913  10.884
30271W        W 1800  34.098  10.086   2.751
30272W        W 1801  30.599   9.819  13.127
30273W        W 1802  12.856   1.402  10.723
30274W        W 1803  21.842  26.685  14.790
30275W        W 1804  38.292  15.063   0.315
30276W        W 1805  38.952  21.288  11.471
30277W        W 1806  25.162  43.745   0.420
30278W        W 1807  13.360  36.745  13.756
30279W        W 1808  41.611  18.930  14.508
30280W        W 1809  22.644   7.396  10.285
30281W        W 1810  10.129  36.637  11.149
30282W        W 1811  21.514  36.101   2.404
30283W        W 1812   4.256   7.387  12.947
30284W        W 1813  14.745   1.454  10.686
30285W        W 1814  38.355   8.591   2.565
30286W        W 1815  42.330  19.512  14.283
30287W        W 1816  40.766  32.359   0.914
30288W        W 1817  34.672  25.138  12.811
30289W        W 1818  41.063  38.523   2.958
30290W        W 1819  10.855   8.832   1.389
30291W        W 1820  18.816  32.651   1.356
30292W        W 1821  43.969   4.924   3.635
30293W        W 1822   4.205  18.993   4.642
30294W        W 1823  20.974  18.300  10.253
30295W        W 1824   4.267  23.637  13.344
30296W        W 1825  39.810  22.979   0.810
30297W        W 1826   9.873  12.933   2.863
30298W        W 1827  13.924  39.415  11.548
30299W        W 1828  10.659  38.147   1.332
30300W        W 1829  33.911  44.828   0.892
30301W        W 1830  16.700  11.360   0.412
30302W        W 1831  39.725  18.156   1.729
30303W        W 1832  30.219  27.546  10.329
30304W        W 1833   2.043   1.534  11.175
30305W        W 1834  37.451   3.406  14.867
30306W        W 1835   2.644  27.105   1.394
30307W        W 1836  11.128   0.023   4.079
30308W        W 1837  42.360  34.391  11.854
30309W        W 1838  33.266   5.964   1.449
30310W        W 1839  20.848   4.689   2.803
30311W        W 1840   9.861  43.450  12.114
30312W        W 1841  17.785  29.973   1.771
30313W        W 1842  13.751   5.796   1.828
30314W        W 1843  13.360  15.704   1.951
30315W        W 1844  29.855   4.054  12.981
30316W        W 1845  44.955  38.442   3.795
30317W        W 1846  10.253  40.876  10.975
30318W        W 1847  29.929  35.105   4.876
30319W        W 1848  10.107   1.912   0.234
30320W        W 1849  27.247  36.979  12.371
30321W        W 1850  38.275  15.087  13.242
30322W        W 1851  27.516  13.720   3.679
30323W        W 1852  38.513  39.827   0.801
30324W        W 1853  11.692  24.791  12.554
30325W        W 1854  36.593  26.670   1.378
30326W        W 1855  18.004  19.075  12.836
30327W        W 1856  44.258  28.970  10.343
30328W        W 1857   4.895   8.168  12.641
30329W        W 1858  20.437  13.300   3.761
30330W        W 1859  37.486  38.293  11.743
30331W        W 1860  16.215   0.404  13.801
30332W        W 1861  44.937  41.568  11.625
30333W        W 1862   8.864  40.941  14.719
30334W        W 1863  17.321  27.896   3.282
30335W        W 1864  26.473  11.328  12.746
30336W        W 1865  24.139  38.552  12.549
30337W        W 1866  11.873   5.778   2.306
30338W        W 1867  26.703  13.645  11.975
30339W        W 1868  35.896   9.757   1.858
30340W        W 1869  42.495  26.589  11.617
30341W        W 1870  29.031  34.159  12.922
30342W        W 1871  17.704  28.521  12.921
30343W        W 1872  37.874  18.468  11.533
30344W        W 1873   9.779  27.616  14.412
30345W        W 1874   7.550  36.977  11.576
30346W        W 1875   6.486  31.399   3.655
30347W        W 1876   6.997  22.212   4.449
30348W        W 1877  11.282   8.540   2.778
30349W        W 1878  38.539  28.868   1.941
30350W        W 1879  31.856  22.677   2.312
30351W        W 1880   2.791   6.875  11.180
30352W        W 1881  24.378   6.273  12.942
30353W        W 1882   2.976   7.805   1.134
30354W        W 1883   8.426   5.656  13.279
30355W        W 1884   4.611  23.256   0.871
30356W        W 1885  19.020  30.871  12.169
30357W        W 1886  34.627   1.123  11.582
30358W        W 1887   2.238  22.134  13.815
30359W        W 1888  30.643  10.401  13.886
30360W        W 1889   6.666   0.353  13.914
30361W        W 1890   5.819  30.325  13.979
30362W        W 1891   8.371  28.997   1.128
30363W        W 1892   2.221  39.055  14.764
30364W        W 1893   2.245  32.349   4.674
30365W        W 1894  11.959   3.701  11.392
30366W        W 1895  18.636  25.621  12.974
30367W        W 1896  43.652  15.706   2.159
30368W        W 1897  23.166  23.763   1.459
30369W        W 1898  14.097  38.938  12.936
30370W        W 1899   7.008  37.484   1.758
30371W        W 1900  21.488  38.083   2.215
30372W        W 1901  34.214  12.901   2.844
30373W        W 1902   2.399  41.227   3.123
30374W        W 1903  27.193  37.714   3.287
30375W        W 1904  15.087  28.679   1.281
30376W        W 1905  29.178  15.162   1.149
30377W        W 1906  40.206   6.634   1.235
30378W        W 1907  37.556  40.852  14.887
30379W        W 1908  24.218  11.431   1.709
30380W        W 1909  41.387   4.574   0.938
30381W        W 1910  36.443   5.616  11.544
30382W        W 1911   7.879  25.104  12.353
30383W        W 1912  34.002   0.823  12.492
30384W        W 1913   1.430  22.303  12.402
30385W        W 1914  14.051   2.366  14.228
30386W        W 1915  16.811   2.196   4.567
30387W        W 1916  23.787  15.704   3.598
30388W        W 1917  10.055   0.988  13.036
30389W        W 1918  43.865  20.065   0.865
30390W        W 1919  41.905   4.284   3.047
30391W        W 1920   9.571  22.573   0.714
30392W        W 1921  41.763  44.016   4.241
30393W        W 1922  13.697  44.702  10.788
30394W        W 1923  39.403  19.511  11.614
30395W        W 1924  21.886  25.019  10.939
30396W        W 1925  39.815   5.889   2.219
30397W        W 1926  37.062  22.178   3.693
30398W        W 1927   0.966  20.110  14.503
30399W        W 1928   2.263   5.296  13.060
30400W        W 1929  27.420  19.546  14.319
30401W        W 1930  30.749  39.331   1.729
30402W        W 1931  42.042   3.860   4.142
30403W        W 1932  28.477  24.885   0.326
30404W        W 1933  17.883  41.057   0.286
30405W        W 1934   1.483   0.046  10.646
30406W        W 1935   6.433  38.503  14.987
30407W        W 1936   8.357   9.021  10.262
30408W        W 1937  24.052  37.399   1.663
30409W        W 1938  15.218  28.173   4.185
30410W        W 1939  43.367  22.687  14.805
30411W        W 1940   7.218  17.423  10.734
30412W        W 1941  44.553  14.256   4.941
30413W        W 1942  26.937   6.973   2.257
30414W        W 1943  10.291  43.643   3.628
30415W        W 1944  37.582  27.592  10.467
30416W        W 1945  18.187  10.745  11.588
30417W        W 1946  13.352  12.904   2.418
30418W        W 1947  17.179  21.946   2.732
30419W        W 1948  19.188  28.039   3.722
30420W        W 1949  23.982  31.883  12.304
30421W        W 1950  34.612   4.836   2.169
30422W        W 1951  10.666  20.149  13.049
30423W        W 1952  26.518  29.716  13.824
30424W        W 1953  21.888  42.078  13.472
30425W        W 1954   6.303  11.902  10.354
30426W        W 1955  31.091  32.157   5.014
30427W        W 1956  17.784  39.956  13.209
30428W        W 1957  29.069  19.707   0.133
30429W        W 1958   7.353  25.088   0.890
30430W        W 1959  36.476  29.948   1.171
30431W        W 1960  41.707   0.379   0.314
30432W        W 1961  14.519  31.569   2.698
30433W        W 1962   5.885   0.233  10.626
30434W        W 1963   4.926  22.719  12.057
30435W        W 1964   3.747  29.376  13.022
30436W        W 1965  27.853   0.405   5.079
30437W        W 1966   9.675  42.907   2.376
30438W        W 1967  26.258   5.409  13.801
30439W        W 1968  24.287  19.351  10.535
30440W        W 1969  23.777  43.470   4.833
30441W        W 1970  39.583  10.728  14.770
30442W        W 1971  21.560  11.991  14.707
30443W        W 1972  25.625   6.306  14.517
30444W        W 1973  17.486  26.874  14.075
30445W        W 1974  27.968  42.789  12.981
30446W        W 1975   6.690  12.215  11.073
30447W        W 1976   5.490  26.138  12.527
30448W        W 1977  19.218   8.350  14.018
30449W        W 1978   8.873   4.786  12.166
30450W        W 1979  15.860   3.311   4.640
30451W        W 1980  44.507  16.254   2.965
30452W        W 1981  37.720  19.744  12.539
30453W        W 1982  30.570  12.111  12.478
30454W        W 1983  40.948   1.319  13.890
30455W        W 1984  35.052  10.133  11.043
30456W        W 1985  27.084   0.439   1.451
30457W        W 1986  17.789  38.135   3.786
30458W        W 1987  29.533   7.237   2.779
30459W        W 1988  30.927   7.644   1.708
30460W        W 1989  22.110  44.940   4.007
30461W        W 1990   1.234  16.273   1.225
30462W        W 1991   3.397  13.609  10.765
30463W        W 1992  42.366   3.323  12.373
30464W        W 1993  22.387  10.707   0.739
30465W        W 1994   3.978  21.477  14.223
30466W        W 1995  26.193   2.776   3.289
30467W        W 1996  16.057  15.768   1.455
30468W        W 1997  24.141   9.913   0.668
30469W        W 1998  41.301  27.611  10.594
30470W        W 1999   7.321  29.722   2.696
30471W        W 2000  40.962  17.126   1.781
30472W        W 2001  42.444  24.460  11.670
30473W        W 2002  19.091  19.785  10.256
30474W        W 2003  26.494  30.315  10.875
30475W        W 2004  20.545  11.829  11.523
30476W        W 2005  44.324  34.609  12.342
30477W        W 2006  39.097  23.551  13.880
30478W        W 2007  29.707   4.389  12.632
30479W        W 2008  43.980   0.405  11.287
30480W        W 2009  26.544  34.564  12.215
30481W        W 2010  19.640  38.860   1.805
30482W        W 2011   8.144  24.605   0.337
30483W        W 2012   1.898   4.621   4.629
30484W        W 2013  17.872  22.737   2.182
30485W        W 2014  21.534   8.300  14.921
30486W        W 2015  28.399   1.177  10.661
30487W        W 2016   0.821   2.942  14.326
30488W        W 2017  42.019  23.583  14.498
30489W        W 2018  23.144  37.333  14.849
30490W        W 2019  10.810  23.923  12.205
30491W        W 2020  10.940  11.245   2.370
30492W        W 2021  30.823  42.377  14.797
30493W        W 2022   0.880  28.582  14.891
30494W        W 2023  35.359  24.353  11.027
30495W        W 2024  35.525   4.418  10.767
30496W        W 2025  15.070  41.427   4.808
30497W        W 2026  40.774  19.606  11.455
30498W        W 2027  32.837  11.786   4.166
30499W        W 2028  41.321  24.761  13.469
30500W        W 2029  15.111  35.854   1.864
30501W        W 2030  39.721  28.392   2.465
30502W        W 2031  44.267   4.435  12.064
30503W        W 2032  30.749  24.012   0.019
30504W        W 2033  38.906  37.237   1.384
30505W        W 2034  36.795  20.212  14.757
30506W        W 2035  18.751  44.751  11.220
30507W        W 2036  17.386   2.402   0.841
30508W        W 2037  15.607   9.250   2.200
30509W        W 2038  25.746  31.673   0.784
30510W        W 2039   2.786  41.922   1.358
30511W        W 2040  35.338  18.739  13.858
30512W        W 2041  24.057  36.489  12.571
30513W        W 2042  19.375  33.124   2.857
30514W        W 2043  10.127   4.715   0.124
30515W        W 2044  29.114  35.483   0.663
30516W        W 2045  35.460   9.940   1.186
30517W        W 2046   5.126   6.812  10.597
30518W        W 2047  18.666  20.668  11.636
30519W        W 2048   1.799  21.637  12.844
30520W        W 2049   2.747   7.589   3.360
30521W        W 2050  29.482  11.658   0.861
30522W        W 2051  13.504  10.947   4.120
30523W        W 2052  25.752  28.632   2.714
30524W        W 2053   2.873  32.685  10.734
30525W        W 2054  29.318  26.187  11.510
30526W        W 2055  18.496  17.184  13.619
30527W        W 2056  42.618  14.200   0.530
30528W        W 2057  35.689  43.009   3.204
30529W        W 2058  32.663  42.963   1.306
30530W        W 2059  22.403  18.068  11.589
30531W        W 2060  23.887  35.152  14.275
30532W        W 2061  30.200  30.045  10.788
30533W        W 2062  36.509  36.130  13.206
30534W        W 2063  16.345   9.686   2.002
30535W        W 2064  14.759  11.698  10.702
30536W        W 2065  43.281  39.366   0.855
30537W        W 2066  17.106  21.671   1.792
30538W        W 2067  43.456  31.617  12.430
30539W        W 2068  27.003   0.524  12.444
30540W        W 2069  36.595  30.040  12.889
30541W        W 2070  44.403   8.135   4.661
30542W        W 2071  17.530  41.889  11.899
30543W        W 2072   0.417  41.916   0.265
30544W        W 2073  36.817  11.117   3.672
30545W        W 2074  19.658  17.704   0.017
30546W        W 2075  39.075  42.892  12.377
30547W        W 2076  34.932  12.337   2.283
30548W        W 2077  34.083  37.237   4.213
30549W        W 2078  13.795  42.908   1.443
30550W        W 2079   7.328  18.284   2.680
30551W        W 2080  16.863   0.794  13.546
30552W        W 2081  22.270  24.393   1.130
30553W        W 2082  20.229   3.575   0.312
30554W        W 2083  16.316   2.848  11.505
30555W        W 2084  31.982  21.401   4.572
30556W        W 2085  28.063   8.919  10.683
30557W        W 2086  19.529  44.387  13.433
30558W        W 2087   7.650  44.748  10.683
30559W        W 2088   1.285  28.152   3.412
30560W        W 2089  41.509  26.548  10.733
30561W        W 2090  41.325  38.900  13.481
30562W        W 2091   3.843  13.755   3.403
30563W        W 2092  36.327  21.799  13.388
30564W        W 2093  44.028  29.105  12.442
30565W        W 2094   0.399   0.237   4.361
30566W        W 2095  38.804   4.384  12.010
30567W        W 2096  32.147   8.161   4.983
30568W        W 2097  24.563  27.183   0.804
30569W        W 2098   6.398   8.908   3.606
30570W        W 2099  38.793  30.532  12.630
30571W        W 2100  39.924  31.527  13.755
30572W        W 2101  41.781   6.917  12.441
30573W        W 2102  21.580   9.146   0.686
30574W        W 2103   3.818  13.766  11.042
30575W        W 2104   1.776  28.318  12.498
30576W        W 2105  30.041  21.731   4.589
30577W        W 2106  18.543   3.714   4.862
30578W        W 2107  41.653   4.682   4.119
30579W        W 2108   1.556  34.318  12.003
30580W        W 2109  36.473  38.825   0.836
30581W        W 2110  13.226   4.435   2.259
30582W        W 2111   1.006  28.021   4.623
30583W        W 2112  18.163  12.630  11.227
30584W        W 2113  27.543  21.618   2.289
30585W        W 2114   4.857  19.632   1.880
30586W        W 2115  16.648  15.752  12.721
30587W        W 2116   4.936   6.228  11.574
30588W        W 2117  13.103  39.114   2.831
30589W        W 2118  20.212  20.918   1.096
30590W        W 2119  14.611   6.126  12.082
30591W        W 2120  31.317  12.328   0.411
30592W        W 2121  18.518   6.340   4.004
30593W        W 2122  21.725  44.520  14.935
30594W        W 2123  33.044  42.037  11.378
30595W        W 2124  27.694  43.866   4.826
30596W        W 2125  44.532  26.097   1.401
30597W        W 2126  11.718  22.212  13.311
30598W        W 2127  31.426  36.465  11.959
30599W        W 2128  21.603  18.040  11.062
30600W        W 2129  26.338  36.855  12.517
30601W        W 2130  16.053  16.664  13.515
30602W        W 2131   1.158  28.628   2.598
30603W        W 2132   8.799  10.581  14.997
30604W        W 2133  36.063  35.829  14.463
30605W        W 2134  39.988   0.684  10.694
30606W        W 2135  34.447  27.478  12.212
30607W        W 2136  32.496  28.911  13.083
30608W        W 2137   8.371  15.800  10.575
30609W        W 2138  31.092  40.680  11.591
30610W        W 2139  24.532  18.253  14.763
30611W        W 2140   0.776  32.426   9.805
30612W        W 2141  25.067  10.677   0.153
30613W        W 2142   0.927  28.799   1.163
30614W        W 2143  27.071  31.910   2.233
30615W        W 2144   5.595  24.397   0.915
30616W        W 2145  14.638  26.012   3.784
30617W        W 2146  13.623   1.645   1.837
30618W        W 2147  36.214  35.720   3.304
30619W        W 2148  12.459   5.759   3.137
30620W        W 2149   6.451  17.124  11.110
30621W        W 2150  30.564   4.905   4.249
30622W        W 2151  33.045  17.155   4.706
30623W        W 2152   6.800  28.954  13.891
30624W        W 2153  27.437  10.465   1.471
30625W        W 2154  15.229  17.576   0.661
30626W        W 2155  35.933   0.812  11.538
30627W        W 2156  27.064   4.625   1.716
30628W        W 2157  11.272  42.994  10.585
30629W        W 2158   4.246  27.374  11.438
30630W        W 2159  35.353   0.268  14.876
30631W        W 2160   3.328   6.324   1.445
30632W        W 2161   4.765   3.443  10.540
30633W        W 2162  26.643  21.960  14.737
30634W        W 2163   3.818  32.430   0.770
30635W        W 2164  33.493   7.110  14.885
30636W        W 2165  44.401  43.586   0.956
30637W        W 2166  20.504  44.219  11.946
30638W        W 2167   9.298  35.824  12.992
30639W        W 2168  21.756  42.844   4.371
30640W        W 2169  16.630  20.800  14.631
30641W        W 2170  31.499  28.081  14.312
30642W        W 2171   3.775  41.417   0.666
30643W        W 2172  13.274   8.266   1.801
30644W        W 2173  39.047  34.246   3.208
30645W        W 2174  42.892  30.307  11.190
30646W        W 2175  39.948  41.123   3.236
30647W        W 2176  21.998  39.117   0.204
30648W        W 2177   5.958  11.826  12.387
30649W        W 2178  33.037  18.338   0.792
30650W        W 2179   1.405  43.519  13.967
30651W        W 2180   9.101  17.534  14.418
30652W        W 2181  16.723  26.945   3.545
30653W        W 2182  14.605  21.022   0.176
30654W        W 2183  14.425   6.071   3.170
30655W        W 2184   8.550  34.431   2.092
30656W        W 2185  33.505  13.918   1.332
30657W        W 2186  34.137  33.926   3.601
30658W        W 2187  43.453  32.907   0.284
30659W        W 2188  11.147  10.409   0.513
30660W        W 2189   0.707  16.336   0.331
30661W        W 2190  37.553  32.947   0.469
30662W        W 2191  11.770  39.212   0.806
30663W        W 2192  32.320   2.242   2.914
30664W        W 2193   2.760   8.742   0.240
30665W        W 2194  34.518   4.409   3.486
30666W        W 2195  32.202  23.023  13.818
30667W        W 2196  38.339  29.172   2.345
30668W        W 2197  34.001  42.394   1.013
30669W        W 2198   0.956  28.514   2.108
30670W        W 2199  34.100  39.304   2.443
30671W        W 2200   3.885  13.216  14.438
30672W        W 2201  12.687   0.067  12.913
30673W        W 2202  14.699   9.466  13.351
30674W        W 2203  11.792   4.870   5.028
30675W        W 2204  28.687   9.716  10.498
30676W        W 2205  33.025  30.467  12.965
30677W        W 2206   2.164  35.395  13.944
30678W        W 2207  38.026  35.939  13.061
30679W        W 2208  11.359   7.347   1.766
30680W        W 2209  39.590  26.169  11.449
30681W        W 2210  37.530  17.298  12.992
30682W        W 2211  31.908  26.765  12.995
30683W        W 2212  30.131  42.006   0.983
30684W        W 2213  10.932  16.192   0.959
30685W        W 2214  44.426  15.565  12.078
30686W        W 2215  35.661  10.619   1.679
30687W        W 2216  11.652  33.409   2.107
30688W        W 2217  43.938  13.235  13.105
30689W        W 2218  41.731   9.756  14.944
30690W        W 2219   1.944   7.961  13.773
30691W        W 2220  38.310  28.841   0.868
30692W        W 2221  28.607  22.107   3.918
30693W        W 2222   1.255  36.549   4.644
30694W        W 2223  18.582  19.131  12.008
30695W        W 2224  31.907   1.968   3.202
30696W        W 2225  18.004  30.125  13.948
30697W        W 2226  14.130   1.057   3.133
30698W        W 2227  18.825   5.719   2.782
30699W        W 2228  43.988  13.921   1.334
30700W        W 2229  10.306  35.644  13.503
30701W        W 2230  36.430  30.836   0.898
30702W        W 2231   1.314   5.746  11.647
30703W        W 2232  38.559  40.348   1.405
30704W        W 2233  23.147  42.956   3.437
30705W        W 2234  25.481  39.870   1.187
30706W        W 2235   3.453   2.711  14.436
30707W        W 2236   9.821  16.553  12.056
30708W        W 2237   4.158  37.935   4.220
30709W        W 2238   7.015  36.604   3.734
30710W        W 2239  17.768  18.049  14.382
30711W        W 2240  25.786   7.852  12.482
30712W        W 2241  23.973   4.273   2.070
30713W        W 2242   0.340  14.804  14.475
30714W        W 2243  34.564  29.491  11.173
30715W        W 2244  35.113  19.852   0.794
30716W        W 2245  30.026  14.166   1.683
30717W        W 2246  25.027  19.887  12.521
30718W        W 2247  16.851  31.184  13.051
30719W        W 2248  12.658  16.666   1.878
30720W        W 2249   5.273  39.738   2.190
30721W        W 2250  32.593  42.259  14.999
30722W        W 2251   3.942  35.897  12.056
30723W        W 2252   0.460   1.319   0.928
30724W        W 2253  37.583  32.994   4.040
30725W        W 2254  24.286  43.326   1.429
30726W        W 2255  37.812  39.968  12.145
30727W        W 2256  24.601   5.649   4.666
30728W        W 2257  21.142  43.710  12.496
30729W        W 2258  34.410   8.928   3.357
30730W        W 2259  36.678   4.939   4.244
30731W        W 2260   5.420   9.174   2.422
30732W        W 2261   6.614  16.632  11.030
30733W        W 2262  22.622  21.278   2.221
30734W        W 2263   5.970  21.009  12.008
30735W        W 2264  22.624  13.713   2.854
30736W        W 2265  40.049  44.355   1.329
30737W        W 2266  27.539  16.308  11.671
30738W        W 2267  38.534   6.302   4.630
30739W        W 2268  36.217  15.833   0.323
30740W        W 2269  41.790  43.195   3.061
30741W        W 2270   7.720  26.602  13.980
30742W        W 2271   9.335  27.009   4.017
30743W        W 2272  28.221  29.022  10.621
30744W        W 2273  22.877  24.496   4.551
30745W        W 2274  37.203  32.453  14.220
30746W        W 2275   7.187  13.642   2.338
30747W        W 2276  33.246   1.370   3.058
30748W        W 2277  26.813  44.268   5.034
30749W        W 2278   3.168  19.228   1.903
30750W        W 2279  43.320  23.389  12.746
30751W        W 2280  26.787   5.467  13.839
30752W        W 2281  42.433  27.201   3.169
30753W        W 2282  21.429  10.421   4.226
30754W        W 2283  15.135  36.823   0.892
30755W        W 2284  42.007  34.596  12.177
30756W        W 2285  30.218   0.614   2.894
30757W        W 2286  24.733  16.219   0.181
30758W        W 2287  11.951  13.911  12.839
30759W        W 2288  20.952   7.975  13.379
30760W        W 2289  26.723  11.775   4.573
30761W        W 2290  39.935  12.636   2.309
30762W        W 2291  12.647  17.696   1.772
30763W        W 2292  22.426   0.363   3.962
30764W        W 2293  17.522   2.276   2.754
30765W        W 2294   4.151  12.406   0.485
30766W        W 2295  42.408   7.045  13.698
30767W        W 2296  28.157  20.682  14.363
30768W        W 2297  36.017  40.440  11.486
30769W        W 2298  34.548  39.609  13.455
30770W        W 2299   8.609  38.738   3.232
30771W        W 2300   8.193  16.491  11.133
30772W        W 2301  22.269   6.162  10.943
30773W        W 2302  20.960  23.201   2.772
30774W        W 2303   2.663   0.026  13.442
30775W        W 2304  27.492  16.626  10.537
30776W        W 2305  41.822  28.518   0.011
30777W        W 2306  12.736  15.010   4.177
30778W        W 2307  24.069  39.353  14.329
30779W        W 2308  17.676  33.699   2.353
30780W        W 2309  42.385  38.758   2.005
30781W        W 2310  41.228  34.613  11.515
30782W        W 2311  12.132  13.285   4.080
30783W        W 2312  39.884  43.458  12.339
30784W        W 2313   8.793   6.353  10.993
30785W        W 2314   8.444  41.036   0.985
30786W        W 2315   1.522  29.035   4.610
30787W        W 2316  34.834  23.324   1.694
30788W        W 2317  10.293   8.304   0.947
30789W        W 2318  19.990  16.251   3.322
30790W        W 2319   9.785  36.666  14.884
30791W        W 2320  20.790  42.748   0.659
30792W        W 2321  33.108   9.288  14.656
30793W        W 2322   6.852   9.689   3.901
30794W        W 2323  11.626  24.560   2.161
30795W        W 2324  17.210  35.992  13.513
30796W        W 2325  22.567  17.640   4.690
30797W        W 2326  30.483  14.896  12.394
30798W        W 2327   2.279  27.905  14.184
30799W        W 2328  22.617  39.044  14.032
30800W        W 2329   4.481  17.553  11.488
30801W        W 2330  25.492   8.065   3.274
30802W        W 2331  16.079  11.194  13.880
30803W        W 2332  44.964  18.409   0.383
30804W        W 2333  40.937  27.062   0.470
30805W        W 2334  32.635   7.387   5.051
30806W        W 2335   7.783  30.405  12.901
30807W        W 2336  43.117  22.023  12.572
30808W        W 2337  38.682  38.743  12.077
30809W        W 2338  36.070  17.367  11.955
30810W        W 2339   7.233  28.459   3.242
30811W        W 2340  40.879  21.085  12.104
30812W        W 2341  27.143  28.528   3.346
30813W        W 2342  34.371   6.289   4.753
30814W        W 2343  21.355  17.811   4.043
30815W        W 2344  33.045  12.784  13.082
30816W        W 2345  16.517  16.119  10.986
30817W        W 2346  24.645   1.761   1.462
30818W        W 2347  15.512   1.872  13.535
30819W        W 2348  16.700  35.618   1.369
30820W        W 2349  12.174  44.033   2.358
30821W        W 2350   2.282  35.946  11.074
30822W        W 2351  18.306  39.957  13.049
30823W        W 2352  15.752   5.641  13.915
30824W        W 2353  36.497  24.438  11.834
30825W        W 2354  25.987   2.104  13.916
30826W        W 2355   9.758   9.886  14.413
30827W        W 2356  28.989  14.900   4.007
30828W        W 2357  29.452   7.789  12.071
30829W        W 2358  23.498  26.215  13.903
30830W        W 2359  29.695  30.916   0.394
30831W        W 2360   8.643  16.572   4.233
30832W        W 2361  41.378  10.551   0.335
30833W        W 2362  23.468   1.642   3.213
30834W        W 2363  30.871  21.971   2.746
30835W        W 2364  15.101  25.919   0.749
30836W        W 2365   8.591  26.681  13.926
30837W        W 2366  41.570   7.571   4.834
30838W        W 2367  40.316   4.744   1.730
30839W        W 2368  24.690   2.308   1.396
30840W        W 2369   0.846  38.289   0.334
30841W        W 2370   0.298  29.516  14.504
30842W        W 2371   0.055  27.547  14.003
30843W        W 2372  31.854   1.446   4.111
30844W        W 2373  21.975  26.151  14.847
30845W        W 2374  30.495  42.931   4.343
30846W        W 2375  32.003   0.747  13.961
30847W        W 2376  30.485  42.659  11.605
30848W        W 2377  39.819  23.113  14.358
30849W        W 2378  17.186  40.352   4.102
30850W        W 2379  24.082  27.190  12.146
30851W        W 2380  18.645  11.589   2.704
30852W        W 2381  15.138  32.574  13.896
30853W        W 2382   4.909  41.291  13.484
30854W        W 2383  17.156  14.369  13.130
30855W        W 2384  29.196  16.169   0.223
30856W        W 2385  29.168  22.019  13.493
30857W        W 2386  14.495  25.842  10.591
30858W        W 2387  19.741  18.249   1.726
30859W        W 2388  28.136  27.632   0.421
30860W        W 2389  38.588  42.403  11.081
30861W        W 2390   8.440   3.919   0.656
30862W        W 2391   3.755   3.325   0.992
30863W        W 2392  42.963  39.859   2.361
30864W        W 2393  20.807  40.426  14.974
30865W        W 2394  37.411   1.532   2.748
30866W        W 2395  31.046   5.669   4.102
30867W        W 2396   8.810   7.322   4.155
30868W        W 2397  13.224  38.327   0.967
30869W        W 2398   3.982  15.881   4.193
30870W        W 2399  19.579  13.361   5.082
30871W        W 2400   9.106  36.645  11.992
30872W        W 2401  36.943  42.581   2.202
30873W        W 2402  18.208  44.716   4.041
30874W        W 2403   3.805   1.436  14.800
30875W        W 2404  25.559  44.811   4.318
30876W        W 2405  32.596  20.572  14.121
30877W        W 2406  10.702  26.968   0.645
30878W        W 2407  30.689  20.761   0.192
30879W        W 2408   5.295  12.453  14.295
30880W        W 2409  43.941  32.130  10.422
30881W        W 2410  22.166   8.983  14.973
30882W        W 2411   8.630  14.283  12.884
30883W        W 2412  24.685   4.794   2.705
30884W        W 2413  10.025  36.780   3.491
30885W        W 2414  30.946   0.672   2.009
30886W        W 2415  15.411  29.384  13.368
30887W        W 2416  12.265  28.949   3.180
30888W        W 2417  22.931  13.208   3.862
30889W        W 2418  27.794   2.827  10.713
30890W        W 2419   4.447  11.630   0.821
30891W        W 2420   2.197  10.881  12.995
30892W        W 2421  28.433  38.378   3.814
30893W        W 2422  28.870  28.942  11.940
30894W        W 2423  21.495  14.280  12.241
30895W        W 2424   8.754  17.268  13.286
30896W        W 2425  29.070  32.713  13.048
30897W        W 2426   5.214  18.657   2.557
30898W        W 2427  18.501   5.279  11.980
30899W        W 2428  21.584  21.268   3.253
30900W        W 2429  16.235  41.438   1.431
30901W        W 2430   9.841  15.755   0.510
30902W        W 2431   8.067  16.701   0.982
30903W        W 2432  33.525  38.124   2.736
30904W        W 2433  32.489   3.172  14.123
30905W        W 2434  26.621  28.029  12.517
30906W        W 2435  32.575  26.659   2.876
30907W        W 2436   0.724   6.396  10.711
30908W        W 2437  40.794  20.853   0.474
30909W        W 2438  32.167  44.369  11.636
30910W        W 2439  29.071   0.474  12.422
30911W        W 2440  16.818  19.563   3.212
30912W        W 2441  41.730  40.712  14.754
30913W        W 2442  41.348  23.704  13.365
30914W        W 2443   3.841  37.601   0.375
30915W        W 2444  12.528  41.045  11.106
30916W        W 2445   8.691   2.053   3.175
30917W        W 2446  22.175  31.684  10.332
30918W        W 2447  22.201  10.312   4.925
30919W        W 2448   4.758  28.016   3.527
30920W        W 2449  29.571  18.934   3.843
30921W        W 2450  37.511  40.478   1.683
30922W        W 2451  23.689  42.956   4.704
30923W        W 2452   0.502   8.954  13.672
30924W        W 2453   8.250  33.538   4.449
30925W        W 2454  31.858  31.689  14.122
30926W        W 2455   7.454   0.322   0.713
30927W        W 2456  19.735   9.712   3.624
30928W        W 2457  24.386  37.326  10.265
30929W        W 2458  35.599  29.424   1.054
30930W        W 2459  42.277   2.532   4.166
30931W        W 2460  13.668  42.206   0.813
30932W        W 2461  14.591  36.774   3.629
30933W        W 2462  16.375   4.774  14.823
30934W        W 2463  41.879  21.982   4.540
30935W        W 2464  18.100  41.291  14.411
30936W        W 2465   7.091  31.568   2.580
30937W        W 2466  26.264   8.377  14.185
30938W        W 2467  31.006  43.779  11.360
30939W        W 2468  31.131  26.640  10.493
30940W        W 2469  20.512  25.681   3.844
30941W        W 2470  13.949   0.886  14.735
30942W        W 2471  43.390  17.430   9.546
30943W        W 2472  23.620  25.770   4.525
30944W        W 2473   4.598  34.882  14.144
30945W        W 2474  12.160  37.460   4.129
30946W        W 2475  18.936  40.124   1.449
30947W        W 2476  44.745  36.501  13.410
30948W        W 2477  44.726  26.634   4.680
30949W        W 2478   0.701  21.774   3.970
30950W        W 2479   7.948  25.024   1.880
30951W        W 2480  19.793  35.010  14.834
30952W        W 2481  44.083  29.583   1.934
30953W        W 2482  21.062  39.076  13.929
30954W        W 2483  32.100  36.903  11.486
30955W        W 2484  27.633   0.847  13.341
30956W        W 2485  36.672  38.402  10.689
30957W        W 2486   6.722  11.725  13.053
30958W        W 2487  43.262  25.573   0.304
30959W        W 2488  41.930  34.425  11.550
30960W        W 2489  26.983   0.933  12.115
30961W        W 2490  16.231  40.961  14.313
30962W        W 2491   4.314  31.625  12.896
30963W        W 2492   6.232  13.546  10.688
30964W        W 2493  40.606   8.772   3.105
30965W        W 2494  40.002  41.561  14.803
30966W        W 2495   5.280  17.194  12.997
30967W        W 2496  27.484  19.769   0.719
30968W        W 2497  27.175  21.545  10.332
30969W        W 2498  31.402  30.279   3.232
30970W        W 2499  11.906  33.071  10.403
30971W        W 2500  23.110   8.954   1.762
30972W        W 2501  41.278  40.425  12.554
30973W        W 2502   8.205  22.147  13.059
30974W        W 2503  16.528  26.639   3.188
30975W        W 2504  30.186   0.504  10.772
30976W        W 2505  36.064  17.190   1.716
30977W        W 2506  16.509   7.750  12.947
30978W        W 2507  40.467   1.154  14.041
30979W        W 2508  31.900  26.163  12.625
30980W        W 2509  23.379  29.108  12.724
30981W        W 2510  21.314  41.092   5.467
30982W        W 2511  38.039  43.902   0.749
30983W        W 2512  37.819   0.321  11.244
30984W        W 2513  25.989  27.260   2.868
30985W        W 2514   7.188  39.828  11.222
30986W        W 2515  41.381  34.527   4.635
30987W        W 2516   8.262  30.183   3.323
30988W        W 2517  16.596   6.362  12.047
30989W        W 2518  38.297  35.468   3.618
30990W        W 2519  34.589   5.922  11.944
30991W        W 2520   6.150   7.254   3.212
30992W        W 2521   1.785  39.410  11.123
30993W        W 2522  13.165  36.561   3.376
30994W        W 2523  43.212  22.544  10.710
30995W        W 2524  37.934   1.025  14.004
30996W        W 2525   7.462   1.953  12.794
30997W        W 2526  39.087   5.914  10.787
30998W        W 2527  39.037  38.810  14.950
30999W        W 2528   6.519  18.933  11.409
31000W        W 2529  17.670   6.876   4.013
31001W        W 2530  28.668  18.478   3.984
31002W        W 2531  36.803  14.381   4.638
31003W        W 2532   4.329  34.410  13.538
31004W        W 2533   6.950  40.180  14.481
31005W        W 2534  15.833  40.396   4.125
31006W        W 2535  18.771  23.552  12.031
31007W        W 2536  34.641  28.909  11.973
31008W        W 2537   7.682  11.980  11.202
31009W        W 2538  26.937  23.646   3.614
31010W        W 2539  42.909   1.479  10.711
31011W        W 2540   5.734  37.535  11.167
31012W        W 2541  18.664   8.739  11.675
31013W        W 2542  17.690  25.413   3.889
31014W        W 2543  21.548  19.232  10.541
31015W        W 2544  18.738  40.326  14.583
31016W        W 2545  16.586  17.561  13.715
31017W        W 2546  44.915  13.136  14.127
31018W        W 2547  19.547  39.461   3.829
31019W        W 2548  15.119  24.633  12.878
31020W        W 2549  10.248  39.923  12.992
31021W        W 2550   7.957  28.211  14.830
31022W        W 2551  36.614  33.652  10.753
31023W        W 2552   6.977  27.225  14.389
31024W        W 2553  26.099  16.256   4.289
31025W        W 2554  27.026  38.065   1.936
31026W        W 2555  12.911   5.864  13.513
31027W        W 2556  10.341   4.218  13.802
31028W        W 2557  26.617  34.917  11.818
31029W        W 2558  40.283  18.767  14.273
31030W        W 2559  32.704  32.122   4.568
31031W        W 2560  25.237  26.739  13.401
31032W        W 2561  40.793   8.651   0.973
31033W        W 2562   7.824   7.149   0.914
31034W        W 2563  33.300  10.120   0.910
31035W        W 2564   1.621  36.359  13.018
31036W        W 2565  28.878  41.947  13.590
31037W        W 2566  35.920  22.697  14.921
31038W        W 2567  36.851   4.275  14.394
31039W        W 2568   6.848  25.628   2.312
31040W        W 2569  11.787  21.195  12.574
31041W        W 2570   3.165  10.659  13.694
31042W        W 2571  31.294  13.328   4.681
31043W        W 2572   9.813  16.306   4.677
31044W        W 2573  21.653  32.024   0.205
31045W        W 2574  26.705  13.869  13.301
31046W        W 2575  29.180  33.853   3.644
31047W        W 2576  15.113   2.028  14.327
31048W        W 2577   5.814  40.747  10.729
31049W        W 2578  34.132   5.766   0.052
31050W        W 2579   1.888  28.097  11.700
31051W        W 2580  20.389  24.506   3.055
31052W        W 2581   9.807  17.781  13.108
31053W        W 2582   0.864  42.285  14.439
31054W        W 2583  25.854   8.558  11.594
31055W        W 2584  14.018  14.526  14.494
31056W        W 2585  13.167  41.386   4.252
31057W        W 2586  36.862  21.301  12.059
31058W        W 2587  36.856   1.602  13.842
31059W        W 2588  40.985  30.655  10.520
31060W        W 2589  40.402  43.718  13.005
31061W        W 2590  20.106  27.416   5.020
31062W        W 2591  18.766  29.014  14.968
31063W        W 2592  24.863  29.304  13.909
31064W        W 2593  23.556   0.531   0.652
31065W        W 2594  27.701   1.917   3.740
31066W        W 2595  29.587   8.822   3.624
31067W        W 2596  17.771  27.444   0.849
31068W        W 2597  34.797  33.101   3.337
31069W        W 2598  41.108   1.290   2.285
31070W        W 2599  15.305  11.597  12.925
31071W        W 2600  39.002  19.262   0.847
31072W        W 2601  13.177   8.892  12.948
31073W        W 2602  13.762   3.962  10.679
31074W        W 2603  23.752  23.206  14.972
31075W        W 2604  25.265  18.807  11.122
31076W        W 2605   8.322  39.450  13.965
31077W        W 2606  35.872   5.509  13.178
31078W        W 2607  21.852  32.105   3.195
31079W        W 2608  18.067  21.442  13.900
31080W        W 2609   6.098  35.910   2.203
31081W        W 2610  27.643   7.974   0.011
31082W        W 2611  18.977  18.647  14.428
31083W        W 2612   9.187  41.325  13.052
31084W        W 2613  22.168  10.785   2.776
31085W        W 2614  33.598   0.222   2.129
31086W        W 2615  28.233  10.248  10.847
31087W        W 2616   4.463   6.795   4.736
31088W        W 2617   2.234  26.644  11.651
31089W        W 2618  40.434  26.722  11.497
31090W        W 2619  38.588  33.427  12.085
31091W        W 2620  11.544  19.542   3.300
31092W        W 2621  42.373  11.937   4.296
31093W        W 2622   7.780  31.554   4.774
31094W        W 2623  27.781  17.338   4.613
31095W        W 2624  29.175  42.102  11.559
31096W        W 2625  14.766  43.076   1.755
31097W        W 2626   8.599  11.704   2.713
31098W        W 2627  40.882  32.423  12.449
31099W        W 2628  28.451   3.039  12.459
31100W        W 2629  18.760  41.106  10.758
31101W        W 2630   5.067  24.059  14.092
31102W        W 2631   0.951  35.146   0.620
31103W        W 2632  23.088  25.768  11.116
31104W        W 2633  24.450  24.905  11.928
31105W        W 2634  20.477   1.926   1.755
31106W        W 2635  14.807   2.831   1.267
31107W        W 2636  41.511  33.329   4.212
31108W        W 2637   5.097  23.387   4.998
31109W        W 2638   1.305  21.494   4.547
31110W        W 2639  21.781   6.717   2.747
31111W        W 2640   5.071  15.680   3.749
31112W        W 2641   0.060  25.630  12.207
31113W        W 2642  34.337  23.746  12.773
31114W        W 2643   9.803  28.084   2.162
31115W        W 2644  10.430   2.894   3.397
31116W        W 2645  40.049   4.821  14.541
31117W        W 2646  39.209   2.971   0.048
31118W        W 2647  39.313  15.573   4.698
31119W        W 2648  40.326  13.299  13.957
31120W        W 2649   9.715  44.914  11.666
31121W        W 2650  22.008  35.622   1.412
31122W        W 2651  42.895  33.526   2.518
31123W        W 2652  26.212   3.038   3.743
31124W        W 2653   0.665  15.159  13.787
31125W        W 2654  28.458  31.270   2.338
31126W        W 2655   0.897   4.201   1.421
31127W        W 2656  33.338   6.883  12.543
31128W        W 2657   8.685  38.869   1.210
31129W        W 2658  21.307   8.920  10.668
31130W        W 2659  34.866   8.852  12.515
31131W        W 2660  33.046  41.395  11.995
31132W        W 2661   5.648   1.908   1.157
31133W        W 2662  41.475  31.576   1.253
31134W        W 2663  28.185  21.974   0.663
31135W        W 2664  27.453   4.682  12.030
31136W        W 2665   0.351   7.148   3.652
31137W        W 2666  15.156  10.269  10.743
31138W        W 2667  26.586   1.338   3.604
31139W        W 2668  34.896  27.582   3.909
31140W        W 2669  28.640  41.381   1.449
31141W        W 2670  43.743  44.522   0.973
31142W        W 2671  26.272  21.113  11.089
31143W        W 2672  29.434   1.849  13.850
31144W        W 2673  32.426  15.120  10.595
31145W        W 2674  37.782  13.237  14.608
31146W        W 2675  42.295   6.416  14.966
31147W        W 2676  39.147  22.601  12.949
31148W        W 2677  10.349  31.945   0.512
31149W        W 2678  43.466  19.928  10.450
31150W        W 2679  36.473   0.315  11.880
31151W        W 2680  33.784  11.794   3.226
31152W        W 2681  28.088  38.551   2.637
31153W        W 2682   1.252  14.622  11.579
31154W        W 2683   6.657  22.214   2.734
31155W        W 2684  34.905  21.139  14.063
31156W        W 2685  29.191  31.643  14.800
31157W        W 2686  30.004  34.359  11.684
31158W        W 2687  28.585   0.721  14.540
31159W        W 2688  19.262  31.605   2.209
31160W        W 2689   6.590   5.788  14.344
31161W        W 2690  24.097   1.796   0.238
31162W        W 2691  22.728  10.065   9.979
31163W        W 2692  35.737  17.169  10.625
31164W        W 2693  37.951  32.496  12.388
31165W        W 2694  10.066  17.402  14.309
31166W        W 2695  23.053  26.990   0.804
31167W        W 2696  28.897  18.040  10.638
31168W        W 2697  38.166  17.642  13.938
31169W        W 2698  13.759  17.231  13.985
31170W        W 2699  36.136   8.203   3.739
31171W        W 2700  43.318  44.853   0.925
31172W        W 2701  15.884  31.081  10.506
31173W        W 2702  10.228  20.652   3.683
31174W        W 2703  44.030  25.447  11.983
31175W        W 2704  29.101  19.065   3.675
31176W        W 2705  35.201  20.877  13.545
31177W        W 2706  44.709  23.818   3.560
31178W        W 2707  27.826  10.576  12.944
31179W        W 2708  33.824  14.400   1.688
31180W        W 2709  28.680  40.485   1.312
31181W        W 2710  15.301  13.131  13.811
31182W        W 2711  12.301  42.078  11.146
31183W        W 2712  20.079  41.693  13.753
31184W        W 2713  23.207  44.136  10.467
31185W        W 2714  14.676  16.513  11.913
31186W        W 2715  20.607   9.613   2.373
31187W        W 2716  39.004  19.996   2.735
31188W        W 2717   5.935  16.652   9.902
31189W        W 2718  26.301  12.559   4.557
31190W        W 2719  24.631  21.701  13.321
31191W        W 2720   2.550  23.721  14.392
31192W        W 2721   3.817  11.287   0.329
31193W        W 2722  27.560  17.443   1.916
31194W        W 2723  23.866  20.981   1.214
31195W        W 2724  18.204  44.834   2.996
31196W        W 2725   7.870  32.219  11.642
31197W        W 2726  30.287  26.440   2.808
31198W        W 2727  35.670  37.770  11.117
31199W        W 2728  18.960  26.358  12.514
31200W        W 2729  14.418  35.692  11.674
31201W        W 2730  44.067  17.821  14.301
31202W        W 2731  23.274   2.785  12.450
31203W        W 2732  16.921   0.061   2.756
31204W        W 2733  22.410   0.002   0.126
31205W        W 2734  13.649  23.503  13.988
31206W        W 2735  33.211   0.906  10.651
31207W        W 2736  38.130  31.105   1.726
31208W        W 2737   2.432  17.083   1.146
31209W        W 2738  31.095  36.511  13.510
31210W        W 2739  25.114  11.882   1.438
31211W        W 2740  10.844  19.818   4.832
31212W        W 2741  14.824  20.217   2.227
31213W        W 2742  13.815   8.624   4.091
31214W        W 2743   4.225   1.700   3.299
31215W        W 2744  41.307  19.642   2.230
31216W        W 2745  37.582  13.716   1.535
31217W        W 2746   0.578  14.043   3.379
31218W        W 2747  15.313  16.060  11.570
31219W        W 2748   2.455  17.883   2.296
31220W        W 2749  44.476  11.849   0.767
31221W        W 2750   8.087   5.784   4.861
31222W        W 2751  26.998  34.547   0.517
31223W        W 2752   2.196  19.711   2.677
31224W        W 2753  30.357  18.630   1.282
31225W        W 2754   4.704  25.296   2.049
31226W        W 2755  44.486  15.692   0.228
31227W        W 2756   6.743   8.357  11.128
31228W        W 2757  22.148   2.018   4.837
31229W        W 2758  38.871   0.876   0.002
31230W        W 2759  31.057  16.313   3.593
31231W        W 2760  29.987   4.213  14.222
31232W        W 2761  24.149  30.356  10.560
31233W        W 2762  43.653  31.039   3.034
31234W        W 2763  26.398  28.859   3.352
31235W        W 2764  24.120  35.866  14.354
31236W        W 2765  30.363   3.831   1.735
31237W        W 2766   2.267  39.952  11.671
31238W        W 2767  16.136  31.676  12.990
31239W        W 2768  17.272  11.407  14.535
31240W        W 2769   6.262  20.110  14.492
31241W        W 2770  41.260  34.857   0.240
31242W        W 2771   8.228  28.945  12.514
31243W        W 2772  14.037   7.302  11.002
31244W        W 2773  24.699  12.606  13.483
31245W        W 2774   9.949  30.857  14.367
31246W        W 2775   9.604  13.579  13.515
31247W        W 2776   1.923  23.520   0.467
31248W        W 2777  44.374   4.181   3.565
31249W        W 2778  44.351  34.282   4.606
31250W        W 2779  31.624  37.495   3.102
31251W        W 2780  41.807  16.157  13.716
31252W        W 2781  26.249  26.431  12.181
31253W        W 2782   0.458  42.708  13.677
31254W        W 2783  19.710  43.940  13.295
31255W        W 2784   5.638  33.123  10.769
31256W        W 2785  28.752   8.286   3.595
31257W        W 2786  35.098  44.411   1.263
31258W        W 2787  20.029  15.655  10.505
31259W        W 2788  17.109  23.966   4.920
31260W        W 2789   7.447  15.265  14.355
31261W        W 2790  33.481  16.751  13.480
31262W        W 2791   9.427  18.252   2.823
31263W        W 2792  22.780  11.706  12.055
31264W        W 2793   0.272  25.036   3.953
31265W        W 2794  42.465  19.080   3.881
31266W        W 2795  33.040  24.546  11.571
31267W        W 2796  44.842  27.719   1.683
31268W        W 2797  10.007   1.695   3.277
31269W        W 2798  20.637   3.098   3.040
31270W        W 2799  18.046   1.440  11.406
31271W        W 2800  15.581  42.070  13.372
31272W        W 2801  39.216  36.477  12.008
31273W        W 2802   1.415  21.059   4.097
31274W        W 2803   5.131  29.039  13.007
31275W        W 2804  32.971  26.927   0.143
31276W        W 2805  33.048  29.942  13.058
31277W        W 2806  32.159  30.245   3.716
31278W        W 2807  29.054  36.575  13.070
31279W        W 2808  26.719  44.724   3.857
31280W        W 2809  23.627  28.743  12.085
31281W        W 2810   9.665  17.267  14.894
31282W        W 2811  15.045  26.393   0.941
31283W        W 2812  36.241  29.452  14.927
31284W        W 2813  20.376  10.932   1.768
31285W        W 2814  10.055   1.807  13.334
31286W        W 2815  41.494   3.961   2.950
31287W        W 2816  40.816   1.373   1.876
31288W        W 2817   6.748   6.880   4.290
31289W        W 2818  27.578   5.979  11.092
31290W        W 2819  24.700  25.359  13.668
31291W        W 2820  22.607  21.654   0.964
31292W        W 2821  11.439  32.392  10.680
31293W        W 2822   9.442   9.388  14.430
31294W        W 2823  42.837  37.870  13.072
31295W        W 2824  41.702   7.954  11.143
31296W        W 2825   8.013  33.497   0.446
31297W        W 2826  41.442  28.534  14.040
31298W        W 2827  11.322  15.750   2.748
31299W        W 2828  29.892  25.393  14.152
31300W        W 2829  20.789  24.006   1.277
31301W        W 2830  23.491  13.206   4.859
31302W        W 2831   2.322  36.469  11.001
31303W        W 2832  15.363  17.351  13.942
31304W        W 2833   1.255  14.760   3.076
31305W        W 2834  25.104  33.337   1.718
31306W        W 2835  23.948  30.742  11.478
31307W        W 2836  43.905   5.829   3.101
31308W        W 2837  16.314  21.405  14.204
31309W        W 2838  29.090  32.893   2.363
31310W        W 2839  35.818   7.744  13.377
31311W        W 2840   7.438  19.927   4.238
31312W        W 2841  31.521  29.429  10.664
31313W        W 2842   3.638  26.679  11.102
31314W        W 2843  42.869  42.030  12.076
31315W        W 2844  21.453  42.896   0.738
31316W        W 2845  25.020  35.380   2.753
31317W        W 2846  12.017   4.137  14.451
31318W        W 2847  26.779   9.711   2.728
31319W        W 2848  29.406  29.175  13.928
31320W        W 2849  32.955  28.335   0.192
31321W        W 2850  23.262  33.545  14.012
31322W        W 2851  38.221  30.621  12.805
31323W        W 2852  20.762  33.473   2.876
31324W        W 2853  21.014  24.509  12.925
31325W        W 2854  16.229  13.390   2.813
31326W        W 2855  43.757  32.054   3.317
31327W        W 2856  33.392   5.732  12.688
31328W        W 2857  14.801  16.415   1.275
31329W        W 2858  17.171  21.860   0.845
31330W        W 2859  39.566  11.700  12.186
31331W        W 2860  11.585  28.728   0.303
31332W        W 2861   5.348   3.488   3.568
31333W        W 2862  14.179   8.418  12.963
31334W        W 2863  24.928  31.094   3.765
31335W        W 2864  42.484   7.790  11.530
31336W        W 2865   2.017   2.741   1.277
31337W        W 2866  43.283   4.798   1.759
31338W        W 2867  19.550   4.432   4.065
31339W        W 2868  37.649  16.323   3.168
31340W        W 2869  27.580  32.822  12.626
31341W        W 2870  13.543   9.298   2.139
31342W        W 2871  15.585  35.370  13.627
31343W        W 2872  35.876  30.132   1.144
31344W        W 2873  18.562  23.768   3.691
31345W        W 2874  26.753  16.201  12.446
31346W        W 2875   2.652  37.905  11.459
31347W        W 2876  25.580  21.993  12.115
31348W        W 2877  39.462  30.628  13.429
31349W        W 2878  14.883  20.736   2.233
31350W        W 2879   1.660   6.270   3.163
31351W        W 2880  10.348  20.084   0.831
31352W        W 2881  37.478  44.007  11.725
31353W        W 2882  10.248  37.502  14.369
31354W        W 2883  12.571   5.435   0.630
31355W        W 2884  14.238  36.395   2.243
31356W        W 2885  25.676  15.158  12.649
31357W        W 2886   5.825  43.752  14.222
31358W        W 2887  15.587  28.730   3.044
31359W        W 2888  42.489   7.424   1.543
31360W        W 2889  25.657  31.889   0.341
31361W        W 2890   0.058  14.596   1.686
31362W        W 2891  26.969   6.138  14.857
31363W        W 2892  39.910  20.455   3.737
31364W        W 2893  28.853  15.721  13.145
31365W        W 2894  43.226   6.429   5.182
31366W        W 2895  29.154  22.602  12.658
31367W        W 2896   7.923   2.948   1.402
31368W        W 2897  44.001   0.623  10.223
31369W        W 2898  41.455  26.101  10.435
31370W        W 2899  31.790  37.258   0.520
31371W        W 2900  43.800   4.509   4.301
31372W        W 2901  21.913  30.381   0.954
31373W        W 2902  39.858  36.554  13.067
31374W        W 2903  42.028   1.949  10.718
31375W        W 2904  39.606   2.930   1.889
31376W        W 2905  15.017   2.384  11.584
31377W        W 2906  14.814  44.825   3.210
31378W        W 2907  43.500  14.841  14.899
31379W        W 2908  20.435  31.842   1.677
31380W        W 2909  31.488   9.417  14.259
31381W        W 2910   4.157  36.120  12.459
31382W        W 2911  35.713  35.144  11.498
31383W        W 2912   2.340  38.459   3.579
31384W        W 2913   5.154  40.116   0.373
31385W        W 2914   1.327  13.116  14.855
31386W        W 2915  17.064  40.059   1.371
31387W        W 2916   9.752  22.067   2.110
31388W        W 2917  20.910  15.821  14.889
31389W        W 2918  39.032  13.285  13.778
31390W        W 2919  10.271   4.371  12.403
31391W        W 2920  29.711  29.687  12.956
31392W        W 2921  32.206  30.537   3.228
31393W        W 2922  36.542  30.527  11.695
31394W        W 2923  24.796  30.129   4.538
31395W        W 2924  21.297  23.780  14.288
31396W        W 2925  11.764   7.537   3.137
31397W        W 2926  36.572  35.454   4.510
31398W        W 2927  34.707  36.949   2.106
31399W        W 2928  18.638  14.156  11.772
31400W        W 2929  35.092  39.589  11.968
31401W        W 2930  44.204  17.554   1.976
31402W        W 2931  27.458  36.397  11.654
31403W        W 2932  42.976   4.962   4.436
31404W        W 2933   9.793  38.874  10.693
31405W        W 2934  41.026  39.755   3.450
31406W        W 2935  21.480  44.061  12.361
31407W        W 2936  30.580  24.501  13.073
31408W        W 2937  29.690   5.282  12.368
31409W        W 2938  18.591   3.735   2.461
31410W        W 2939  39.110   3.824   1.510
31411W        W 2940  27.371  30.647   4.496
31412W        W 2941  38.727  10.586  11.655
31413W        W 2942  30.567  26.159  13.937
31414W        W 2943  28.195  17.773   3.402
31415W        W 2944  12.776  42.589  13.464
31416W        W 2945  26.400  37.417   0.937
31417W        W 2946   6.862  10.042   4.277
31418W        W 2947  27.439  26.600  10.300
31419W        W 2948  42.362  12.102   4.814
31420W        W 2949  10.184  19.097   0.664
31421W        W 2950  21.071   5.013  14.828
31422W        W 2951  34.169  43.009   4.217
31423W        W 2952  27.025  28.839  14.790
31424W        W 2953  44.040  25.000   0.767
31425W        W 2954   2.299  36.930  13.755
31426W        W 2955  41.508  29.779  12.813
31427W        W 2956  41.340  37.539   0.805
31428W        W 2957  36.307   8.840   4.068
31429W        W 2958  25.209  42.412   3.716
31430W        W 2959  11.637  30.114   1.521
31431W        W 2960  24.621  41.577   4.666
31432W        W 2961  43.394  37.176   1.166
31433W        W 2962  18.256  37.000  12.550
31434W        W 2963  35.998  39.822  13.145
31435W        W 2964  29.109  35.867  14.816
31436W        W 2965  16.578  24.433  12.478
31437W        W 2966  21.087   0.059   2.354
31438W        W 2967  28.157  25.965  12.494
31439W        W 2968  22.247  14.124   0.228
31440W        W 2969  40.843  15.073  12.534
31441W        W 2970   2.934   9.797   4.589
31442W        W 2971   8.925  15.267   3.190
31443W        W 2972  23.984  15.507  14.449
31444W        W 2973  28.251   0.299  14.582
31445W        W 2974   6.768  33.830   2.401
31446W        W 2975  29.211  40.268   3.778
31447W        W 2976  27.930   4.632  14.540
31448W        W 2977  21.272  13.658  12.809
31449W        W 2978  19.113   0.654  11.921
31450W        W 2979   6.779  28.103  12.794
31451W        W 2980  28.514  32.401  10.679
31452W        W 2981  40.987  36.312  13.849
31453W        W 2982  43.341  39.798  12.581
31454W        W 2983  22.541  11.591  10.044
31455W        W 2984  17.962  36.135  11.012
31456W        W 2985   1.983   7.930  11.057
31457W        W 2986  38.820  43.373   4.166
31458W        W 2987  19.042  23.303  11.679
31459W        W 2988  29.477  25.148   2.389
31460W        W 2989   3.993  15.712  13.038
31461W        W 2990  35.216  32.851   2.435
31462W        W 2991  20.656  31.118   3.159
31463W        W 2992  10.063  20.078   4.705
31464W        W 2993  20.481  22.536  11.593
31465W        W 2994  33.366   8.191  11.139
31466W        W 2995  12.355  20.491  10.675
31467W        W 2996  36.417  15.537   4.036
31468W        W 2997  30.973  27.988  11.968
31469W        W 2998  28.568  29.408  13.772
31470W        W 2999  20.070  44.681   4.511
31471W        W 3000  15.687  13.156  14.197
31472W        W 3001  18.785   4.918  13.838
31473W        W 3002   2.679   7.957  13.371
31474W        W 3003  43.525   0.983  13.302
31475W        W 3004   6.118  33.984  11.773
31476W        W 3005  34.943  15.137   1.242
31477W        W 3006  19.192  26.836   2.197
31478W        W 3007  42.614  15.591  12.602
31479W        W 3008   1.509   8.640  11.506
31480W        W 3009   5.566  39.110  12.409
31481W        W 3010  32.184  44.457   1.667
31482W        W 3011   2.520  30.987   0.815
31483W        W 3012  32.123  41.537  14.812
31484W        W 3013  18.026  43.966   1.284
31485W        W 3014  44.028  20.532  11.137
31486W        W 3015  42.060  19.718  13.888
31487W        W 3016  25.224  18.531  11.568
31488W        W 3017   2.705  24.280   2.699
31489W        W 3018  44.267   8.925  12.020
31490W        W 3019  37.591  25.073   2.903
31491W        W 3020  43.337  12.092  13.550
31492W        W 3021  40.092  41.357   3.672
31493W        W 3022  29.167  25.013  11.531
31494W        W 3023  38.936  16.000   2.713
31495W        W 3024   8.544  41.301  14.545
31496W        W 3025  36.865  36.028  10.665
31497W        W 3026   3.449  39.916   4.739
31498W        W 3027  43.719  31.957  14.351
31499W        W 3028  27.619   7.283   1.254
31500W        W 3029  19.289  36.074  12.878
31501W        W 3030  27.976  18.368  13.741
31502W        W 3031  18.822  36.215   1.223
31503W        W 3032  36.085   5.140  12.174
31504W        W 3033  19.093  34.318  14.779
31505W        W 3034  25.881  39.017  11.154
31506W        W 3035  26.152  10.904   1.162
31507W        W 3036  18.528   3.446  14.910
31508W        W 3037   8.096  34.923   1.498
31509W        W 3038  28.275  21.195  14.349
31510W        W 3039  42.134   5.042   0.010
31511W        W 3040  19.703  39.012   2.818
31512W        W 3041   1.215  41.870   2.097
31513W        W 3042  28.858  41.544  12.435
31514W        W 3043  37.310  10.763   0.933
31515W        W 3044   7.534  19.928   1.000
31516W        W 3045  25.737  30.996   2.720
31517W        W 3046   2.153  18.082   4.599
31518W        W 3047  23.292   2.823  10.678
31519W        W 3048   5.505  34.875   3.591
31520W        W 3049   9.795  27.893  11.607
31521W        W 3050  32.568   8.632   1.876
31522W        W 3051  21.100  41.911  12.330
31523W        W 3052   5.577  37.527   0.163
31524W        W 3053   9.974  10.069  11.084
31525W        W 3054  12.730  25.631   3.251
31526W        W 3055  28.641  39.978  10.655
31527W        W 3056  18.148  26.057   2.337
31528W        W 3057  38.178  42.962  11.667
31529W        W 3058   0.049  15.275   3.377
31530W        W 3059  23.573  10.149   4.510
31531W        W 3060   5.262  22.276   1.843
31532W        W 3061  31.433  26.176   0.525
31533W        W 3062  37.017  40.328  12.589
31534W        W 3063  23.247   3.270   0.479
31535W        W 3064  10.829  26.251   4.082
31536W        W 3065  28.434  10.272  14.882
31537W        W 3066  25.608  17.596   1.810
31538W        W 3067   2.324  17.347   2.344
31539W        W 3068  30.554  32.477   1.283
31540W        W 3069   4.320   1.727   2.392
31541W        W 3070   1.721  27.452  14.443
31542W        W 3071   5.624   0.835  14.318
31543W        W 3072  15.803  34.720   1.357
31544W        W 3073  29.510  39.333   1.148
31545W        W 3074  21.129   2.052   1.134
31546W        W 3075  37.192  44.838   1.015
31547W        W 3076   8.211   2.749   0.218
31548W        W 3077  27.030  31.443   2.948
31549W        W 3078  43.706  28.148   0.346
31550W        W 3079  10.662  33.972  14.703
31551W        W 3080  32.934  35.283   0.887
31552W        W 3081  22.710  33.906   0.122
31553W        W 3082   1.200  30.123  11.266
31554W        W 3083  35.224   5.906  11.057
31555W        W 3084  25.576   4.669   2.639
31556W        W 3085   1.881   8.365  11.264
31557W        W 3086  13.347  38.433  11.998
31558W        W 3087   3.151   8.741   1.120
31559W        W 3088  16.149  36.327   0.795
31560W        W 3089  21.672   1.231   1.130
31561W        W 3090   6.382  10.950  11.612
31562W        W 3091  18.384   8.964   0.438
31563W        W 3092  23.489   0.766   3.402
31564W        W 3093  12.755  18.153   4.612
31565W        W 3094   7.108  36.842  13.619
31566W        W 3095  34.103  10.846  10.675
31567W        W 3096  34.030  28.026  11.151
31568W        W 3097  20.645   1.170  12.031
31569W        W 3098  22.422  32.457  13.403
31570W        W 3099  13.814  30.983   0.045
31571W        W 3100  40.950  43.722  11.578
31572W        W 3101  41.487   4.666  13.519
31573W        W 3102  15.604  22.200   4.268
31574W        W 3103  33.470   5.211  14.367
31575W        W 3104  36.440  18.300   0.363
31576W        W 3105  42.828  41.376   2.163
31577W        W 3106  30.896   7.560   2.889
31578W        W 3107  15.134  38.294   3.245
31579W        W 3108  33.976  43.318  11.223
31580W        W 3109  28.894   5.177   0.732
31581W        W 3110   0.469   0.308  11.231
31582W        W 3111  20.201  17.377   2.019
31583W        W 3112  39.008  38.820   4.159
31584W        W 3113  23.607   2.930   2.091
31585W        W 3114  11.600  10.126  11.110
31586W        W 3115  25.089  41.713   3.433
31587W        W 3116  23.498  17.652   2.153
31588W        W 3117  22.725  27.454  11.906
31589W        W 3118   7.076   0.838   3.374
31590W        W 3119  22.269  29.048  13.945
31591W        W 3120  13.098  18.101   3.896
31592W        W 3121   4.346  32.917  12.597
31593W        W 3122  27.918  39.349  13.970
31594W        W 3123  42.262  35.328   0.786
31595W        W 3124   7.485  16.047  13.541
31596W        W 3125  44.275  30.015   1.267
31597W        W 3126   0.713  12.379   2.573
31598W        W 3127  44.365  18.729  11.529
31599W        W 3128  22.260  24.592   2.606
31600W        W 3129   1.722   3.824  12.975
31601W        W 3130  44.698   6.530  14.413
31602W        W 3131  34.105  31.265   2.961
31603W        W 3132  42.397  22.457  12.847
31604W        W 3133  12.665  18.283   1.190
31605W        W 3134  22.087  42.641  11.963
31606W        W 3135  15.748  28.651   0.981
31607W        W 3136   8.665   7.893   4.215
31608W        W 3137  24.147  26.929   1.442
31609W        W 3138  26.916  38.990   4.975
31610W        W 3139  11.353  35.150   3.640
31611W        W 3140  28.847  37.439   1.940
31612W        W 3141  35.230  23.021   4.681
31613W        W 3142   0.883  23.089   3.823
31614W        W 3143  39.356   6.897   3.609
31615W        W 3144  32.945  18.577  14.845
31616W        W 3145  27.940   2.877   0.448
31617W        W 3146  21.600  42.380   4.139
31618W        W 3147  27.023  44.291   2.833
31619W        W 3148   1.873  39.476   4.482
31620W        W 3149  17.007  44.410   0.742
31621W        W 3150  43.735   8.373   2.615
31622W        W 3151  35.356   9.320   3.196
31623W        W 3152  15.198  12.737   3.490
31624W        W 3153   1.182  24.509   3.202
31625W        W 3154  40.517   0.263  12.945
31626W        W 3155  37.497  33.874   1.590
31627W        W 3156  26.505  39.890   1.556
31628W        W 3157   9.128  15.928  12.373
31629W        W 3158  25.491  19.214  11.420
31630W        W 3159   0.120   5.505   2.115
31631W        W 3160  25.986  20.339   0.820
31632W        W 3161  13.083  37.309  11.992
31633W        W 3162  31.663  21.891   1.488
31634W        W 3163  18.849  43.812  12.108
31635W        W 3164  20.296  30.452  13.686
31636W        W 3165  18.039  17.583  10.695
31637W        W 3166  34.412   3.710  11.148
31638W        W 3167  36.104  14.784   4.945
31639W        W 3168  42.369  20.546  12.973
31640W        W 3169  11.195  43.929  10.617
31641W        W 3170   3.013  32.158   1.316
31642W        W 3171   1.194  34.531   1.197
31643W        W 3172  27.798  12.393   4.971
31644W        W 3173  43.797  34.142   4.059
31645W        W 3174   5.966  30.727  14.346
31646W        W 3175  22.362  22.478   4.272
31647W        W 3176  25.399  27.370   2.030
31648W        W 3177   3.640  27.776  14.368
31649W        W 3178  24.241  12.668   4.444
31650W        W 3179  35.606  18.116  14.568
31651W        W 3180   1.722  31.410   1.403
31652W        W 3181  10.450  28.641  13.412
31653W        W 3182  43.221  27.550  14.896
31654W        W 3183  16.701  35.152   1.659
31655W        W 3184   6.779  30.100  14.566
31656W        W 3185  37.640   8.904   4.101
31657W        W 3186  12.508   0.408   3.708
31658W        W 3187  21.481   9.144  11.120
31659W        W 3188  31.102  34.407   0.562
31660W        W 3189  40.463  16.620  12.050
31661W        W 3190  21.751  44.803  11.868
31662W        W 3191  14.138  16.606   2.226
31663W        W 3192  35.615  18.732   3.774
31664W        W 3193  19.778  15.982  13.415
31665W        W 3194  28.525  39.307   3.700
31666W        W 3195  39.325  43.362   4.095
31667W        W 3196  39.049  17.986  10.354
31668W        W 3197  11.810   8.161  14.878
31669W        W 3198   4.745  26.464   2.816
31670W        W 3199  38.533   2.466   2.758
31671W        W 3200  13.839  30.940   4.434
31672W        W 3201  25.500  44.057   2.789
31673W        W 3202  34.081  12.014  11.271
31674W        W 3203   4.541  34.557   3.801
31675W        W 3204  20.065  42.636  12.570
31676W        W 3205  37.582  15.861  10.708
31677W        W 3206  21.581  34.016   3.561
31678W        W 3207  17.599  40.867   2.398
31679W        W 3208  43.428  27.986   1.744
31680W        W 3209  16.242   8.953  12.470
31681W        W 3210  29.128  28.632   1.238
31682W        W 3211   4.472  39.427  11.607
31683W        W 3212  27.566   4.315   0.887
31684W        W 3213  14.885  40.728   3.646
31685W        W 3214  35.283  37.019  12.242
31686W        W 3215   7.161  44.968   3.833
31687W        W 3216  43.873   4.163   0.406
31688W        W 3217  42.457  39.575  11.572
31689W        W 3218  13.423  36.838  12.879
31690W        W 3219   0.681  11.906  13.379
31691W        W 3220  40.824  31.502  11.074
31692W        W 3221   6.410  34.406  12.023
31693W        W 3222  20.313  23.264   0.008
31694W        W 3223  44.630  36.742   2.775
31695W        W 3224  34.364  27.001  12.594
31696W        W 3225  42.123   6.875   2.171
31697W        W 3226  40.342  33.919   3.296
31698W        W 3227  15.556   5.737  10.495
31699W        W 3228  28.781  20.520  13.977
31700W        W 3229  43.561  19.812   0.535
31701W        W 3230   4.997  30.966  14.362
31702W        W 3231   1.857  24.965  13.956
31703W        W 3232  14.043   0.309  14.577
31704W        W 3233   3.192   8.319   3.790
31705W        W 3234  16.627   9.121   2.895
31706W        W 3235   6.271  13.231   2.301
31707W        W 3236  24.523   7.478   2.370
31708W        W 3237   2.115  44.998  13.964
31709W        W 3238  22.684  29.004  12.170
31710W        W 3239  36.545  15.794  11.683
31711W        W 3240  42.032   1.302   1.219
31712W        W 3241  11.829   2.958   4.084
31713W        W 3242   5.074  14.273   3.770
31714W        W 3243  25.202  41.892  11.475
31715W        W 3244  31.288  25.468   0.876
31716W        W 3245  42.903  17.987   2.796
31717W        W 3246  10.324  31.614   5.041
31718W        W 3247  13.243  16.084   4.812
31719W        W 3248  36.507  21.191  10.274
31720W        W 3249   3.477  39.032   3.456
31721W        W 3250  38.064  14.160  13.557
31722W        W 3251  22.943  36.153   1.687
31723W        W 3252  44.507  29.178   1.255
31724W        W 3253  25.666  41.765   1.176
31725W        W 3254  15.085  10.663  14.779
31726W        W 3255  43.810  32.647  11.141
31727W        W 3256  11.106   0.030   3.303
31728W        W 3257  43.410  40.819  12.304
31729W        W 3258   1.903  26.787   1.090
31730W        W 3259  41.970  34.117   4.740
31731W        W 3260  43.587  19.743  11.565
31732W        W 3261  34.893  42.423   1.034
31733W        W 3262  35.514   7.421   2.854
31734W        W 3263  11.905  25.006   4.593
31735W        W 3264  44.322  44.946  12.720
31736W        W 3265  37.864  37.642   1.312
31737W        W 3266  18.115   2.451  14.844
31738W        W 3267  13.837  21.007  13.550
31739W        W 3268   4.236   9.774  13.370
31740W        W 3269  25.275   0.692   4.201
31741W        W 3270   8.808  16.567  10.572
31742W        W 3271  44.818  37.024  14.981
31743W        W 3272   3.728  17.324   1.259
31744W        W 3273  18.329  23.319  14.376
31745W        W 3274  14.224  33.603  14.947
31746W        W 3275  14.314  13.173  13.838
31747W        W 3276   7.348   1.312  10.744
31748W        W 3277  25.710   6.741  11.689
31749W        W 3278  20.288  16.700   0.876
31750W        W 3279  14.809  27.131   3.776
31751W        W 3280  11.434  29.281  12.408
31752W        W 3281  31.687  38.269   3.808
31753W        W 3282  18.852   0.557  13.217
31754W        W 3283  34.396   1.461  10.716
31755W        W 3284   8.697   1.996   0.044
31756W        W 3285  21.474  27.131   2.299
31757W        W 3286  36.338  43.438  13.136
31758W        W 3287  33.156  13.755  11.767
31759W        W 3288  18.535  17.493  11.561
31760W        W 3289  35.152  18.835  11.186
31761W        W 3290  15.161  16.955  12.512
31762W        W 3291  23.912   0.857   1.445
31763W        W 3292  35.463  19.449   4.135
31764W        W 3293  15.779   7.218  11.541
31765W        W 3294  19.545  28.441   1.987
31766W        W 3295   1.512  20.680   3.351
31767W        W 3296   3.905  12.183  10.717
31768W        W 3297  39.505  37.042   4.565
31769W        W 3298  36.971  29.148   2.026
31770W        W 3299  30.730  17.279  10.694
31771W        W 3300  28.941  40.994   0.427
31772W        W 3301  37.187  39.940   2.259
31773W        W 3302  35.554  31.362  13.537
31774W        W 3303  36.636  34.933   2.330
31775W        W 3304   0.482  19.280  13.358
31776W        W 3305  34.847  13.108   2.838
31777W        W 3306   3.421  41.433   2.216
31778W        W 3307  32.888  39.980   0.812
31779W        W 3308  24.680  44.356  14.097
31780W        W 3309  35.892  42.024  12.130
31781W        W 3310  37.579  22.611  12.162
31782W        W 3311  31.755  34.351  14.377
31783W        W 3312   4.267  41.933   1.292
31784W        W 3313  30.589  14.618  10.262
31785W        W 3314  23.360  41.301  14.789
31786W        W 3315  18.075  11.596  11.215
31787W        W 3316  32.645   3.666   2.033
31788W        W 3317   2.551  19.034   2.364
31789W        W 3318   5.807  30.017   4.647
31790W        W 3319  24.469   7.940   1.377
31791W        W 3320  36.690  38.906   2.470
31792W        W 3321   3.835  33.007  11.947
31793W        W 3322  36.321  36.931  13.770
31794W        W 3323   0.009  11.329  12.580
31795W        W 3324  23.907   5.539  11.474
31796W        W 3325   5.684   1.237  10.789
31797W        W 3326  38.938  24.788   4.193
31798W        W 3327   1.229  38.404  12.198
31799W        W 3328  30.189   4.214  10.524
31800W        W 3329   0.847  16.336  13.158
31801W        W 3330  17.599  32.386   4.891
31802W        W 3331   8.679  27.908   2.809
31803W        W 3332  16.726  14.631   0.360
31804W        W 3333   2.205  41.168   5.053
31805W        W 3334   9.922  28.635  13.409
31806W        W 3335  19.049  29.630  14.852
31807W        W 3336  25.673  17.026  12.562
31808W        W 3337  44.985  36.038  13.298
31809W        W 3338  41.995  35.038   4.117
31810W        W 3339  34.046  37.727   4.414
31811W        W 3340  36.087   2.344   3.375
31812W        W 3341  32.993   7.172   1.240
31813W        W 3342   8.829  40.622  11.769
31814W        W 3343  21.021  25.653   2.205
31815W        W 3344  19.524  13.667  14.726
31816W        W 3345  25.614   7.091  12.111
31817W        W 3346  44.785  12.082   2.825
31818W        W 3347  14.322  36.364   0.540
31819W        W 3348   7.425  22.892   2.986
31820W        W 3349  41.920  12.719  11.216
31821W        W 3350   4.261  22.450   4.086
31822W        W 3351   2.526  18.103  12.912
31823W        W 3352  14.368  37.772  10.713
31824W        W 3353   4.432  44.839  14.394
31825W        W 3354  32.881   4.480  11.550
31826W        W 3355  15.292  11.639   0.702
31827W        W 3356  43.222  20.263  10.793
31828W        W 3357   6.892  20.291  11.579
31829W        W 3358  20.996  37.314   0.991
31830W        W 3359  17.135  35.603  11.179
31831W        W 3360  22.556  32.418   2.918
31832W        W 3361  43.402  16.866   4.159
31833W        W 3362  32.335  41.976  14.554
31834W        W 3363  34.542   3.288  13.278
31835W        W 3364   5.674  37.268  11.616
31836W        W 3365  42.746   7.682   1.905
31837W        W 3366  44.418   0.221   2.846
31838W        W 3367  20.147  19.247  12.019
31839W        W 3368  40.358  28.172  13.647
31840W        W 3369  27.826  36.528   4.574
31841W        W 3370  33.363   0.570   2.702
31842W        W 3371  27.496   7.600   1.675
31843W        W 3372  34.462   9.893   4.693
31844W        W 3373   2.994  27.790   4.304
31845W        W 3374  40.474  29.071  14.065
31846W        W 3375  10.802   7.617  12.335
31847W        W 3376   2.230  40.529   3.819
31848W        W 3377  26.105  28.753   4.312
31849W        W 3378   6.161  12.294   2.175
31850W        W 3379  27.982  34.409  13.020
31851W        W 3380  16.605   4.710  11.496
31852W        W 3381  43.558  35.888   5.073
31853W        W 3382   0.752  33.856  10.685
31854W        W 3383  28.397  20.427  14.825
31855W        W 3384  19.916  20.195  12.370
31856W        W 3385  19.726  17.607  14.527
31857W        W 3386  19.732   0.393   1.372
31858W        W 3387  43.748  39.643   0.808
31859W        W 3388   5.713  18.697  11.207
31860W        W 3389  21.876  38.479  10.572
31861W        W 3390  29.435  24.451   1.797
31862W        W 3391  20.316  36.550   0.222
31863W        W 3392  34.827  33.486   1.364
31864W        W 3393  16.681  34.412  14.829
31865W        W 3394  25.595   4.529  12.866
31866W        W 3395  16.223  26.532  12.621
31867W        W 3396  10.212  18.681  11.104
31868W        W 3397  18.200  32.117   2.786
31869W        W 3398  16.338  25.952  14.001
31870W        W 3399  38.340   0.315  11.946
31871W        W 3400  22.145   8.879  14.063
31872W        W 3401  19.667  44.223  10.037
31873W        W 3402  41.954  37.988   4.031
31874W        W 3403  10.794  19.795   1.750
31875W        W 3404  16.997  38.988   4.608
31876W        W 3405  37.042   3.736   0.412
31877W        W 3406  11.793  35.893   4.603
31878W        W 3407  27.030  20.480  13.053
31879W        W 3408  34.875  12.286  12.130
31880W        W 3409  40.795  28.083  11.097
31881W        W 3410  30.631  34.451   2.753
31882W        W 3411  32.082  32.076   5.054
31883W        W 3412  28.224  16.565   4.016
31884W        W 3413  34.177  23.994   0.817
31885W        W 3414  44.966  36.147   2.390
31886W        W 3415  37.706  17.852  13.714
31887W        W 3416  39.381  25.531   2.659
31888W        W 3417  27.223  16.552   4.150
31889W        W 3418  17.568  10.438  13.794
31890W        W 3419  35.024  32.617   4.561
31891W        W 3420  43.336  21.588   4.574
31892W        W 3421  31.026   1.687  12.607
31893W        W 3422  41.356   0.909  12.377
31894W        W 3423   5.366  26.548  10.663
31895W        W 3424  34.521  26.162  14.329
31896W        W 3425   3.907  41.438   0.156
31897W        W 3426   1.741  24.663  12.997
31898W        W 3427  16.598  34.440  10.756
31899W        W 3428  27.654   0.857  14.450
31900W        W 3429   1.469  44.772   1.405
31901W        W 3430  36.132   7.185   0.375
31902W        W 3431  32.404  40.572  13.229
31903W        W 3432   5.884  44.004  12.018
31904W        W 3433  12.117  14.052  13.848
31905W        W 3434  31.091   2.398  14.388
31906W        W 3435  11.173  37.973  12.588
31907W        W 3436  41.513  29.885  13.768
31908W        W 3437  15.911   8.801   2.309
31909W        W 3438   5.241  42.287  12.598
31910W        W 3439  35.378  31.208  10.723
31911W        W 3440  29.660   0.269  14.438
31912W        W 3441  31.041  26.746  14.746
31913W        W 3442  15.623   7.540   1.865
31914W        W 3443  35.325  25.989  12.828
31915W        W 3444  15.896  40.995   3.422
31916W        W 3445  19.032  25.754   1.351
31917W        W 3446  20.546  11.688   2.240
31918W        W 3447   8.387  19.198  13.539
31919W        W 3448  10.773  31.621   3.226
31920W        W 3449   9.573  24.019   4.160
31921W        W 3450  33.039  30.437  10.535
31922W        W 3451  43.825  23.767   3.313
31923W        W 3452  29.427  36.245   2.085
31924W        W 3453  13.635  36.338   3.247
31925W        W 3454  40.634  37.982   1.395
31926W        W 3455   6.658  25.889   0.979
31927W        W 3456  27.993   0.869   4.188
31928W        W 3457  32.385   1.955   5.114
31929W        W 3458  32.077  31.862   0.240
31930W        W 3459  32.143  26.007   1.771
31931W        W 3460   2.317  12.073  10.889
31932W        W 3461  34.521  29.933  12.122
31933W        W 3462   0.909  26.904   3.712
31934W        W 3463  37.002  12.772  12.907
31935W        W 3464  37.020  40.791   1.625
31936W        W 3465  23.612  35.477  10.656
31937W        W 3466   4.479   3.713  11.682
31938W        W 3467  40.553  26.371   2.583
31939W        W 3468  27.546  40.876   3.582
31940W        W 3469   9.829  18.647  14.254
31941W        W 3470  42.776  20.576   4.157
31942W        W 3471  41.936  31.961   4.046
31943W        W 3472   8.332   8.158  13.350
31944W        W 3473   0.736   0.944   0.706
31945W        W 3474  16.090   5.259   0.660
31946W        W 3475  39.569  23.501   1.395
31947W        W 3476   5.174  43.761  11.538
31948W        W 3477  21.182  32.032   0.513
31949W        W 3478  21.109  13.156  14.529
31950W        W 3479  20.060  43.437   2.259
31951W        W 3480   5.885   3.420   2.231
31952W        W 3481  40.782  15.796  10.877
31953W        W 3482  32.469  20.100  10.976
31954W        W 3483  32.922   7.873   4.520
31955W        W 3484  30.283   3.354  12.453
31956W        W 3485  17.125  44.008  13.983
31957W        W 3486   8.716  25.019   3.904
31958W        W 3487  36.806  38.785  11.008
31959W        W 3488  40.359  17.763   1.364
31960W        W 3489  23.667   7.865   1.592
31961W        W 3490  13.350  16.157  11.955
31962W        W 3491  16.684  43.021  11.564
31963W        W 3492   9.620  13.324   2.177
31964W        W 3493  21.332   3.457   3.126
31965W        W 3494  31.635  31.799  11.938
31966W        W 3495  10.415  14.330   3.046
31967W        W 3496   2.553  25.090   1.321
31968W        W 3497  10.275  17.570  13.077
31969W        W 3498  14.111  10.554  14.728
31970W        W 3499   2.133  21.508   3.871
31971W        W 3500  27.916  42.200   1.363
31972W        W 3501  10.702   7.141   4.286
31973W        W 3502  15.969   8.993  14.750
31974W        W 3503  27.986  28.122  13.893
31975W        W 3504  40.044  25.907  11.589
31976W        W 3505  18.519  26.498  14.907
31977W        W 3506   8.221   9.170  12.405
31978W        W 3507  29.235  40.332  11.409
31979W        W 3508  25.201   9.849  12.031
31980W        W 3509   2.145  23.455  13.982
31981W        W 3510  26.457  16.147  13.753
31982W        W 3511  26.668   0.356  10.854
31983W        W 3512   2.274  39.554  11.123
31984W        W 3513  37.068  41.774   1.436
31985W        W 3514  15.140  18.961   2.201
31986W        W 3515  42.988  14.113   0.902
31987W        W 3516   0.827  29.418   3.665
31988W        W 3517  37.903  44.219  14.437
31989W        W 3518  12.703  40.729   3.314
31990W        W 3519   6.677  22.449   3.230
31991W        W 3520   0.305  20.226   1.653
31992W        W 3521  22.582  25.894  11.071
31993W        W 3522   8.410  35.836   4.240
31994W        W 3523  19.436  26.049   3.572
31995W        W 3524  18.326   0.377  13.996
31996W        W 3525  30.858  16.901  11.158
31997W        W 3526   6.755   0.978  13.256
31998W        W 3527  26.867  10.841   2.419
31999W        W 3528  15.642   5.632  14.808
32000W        W 3529  17.644  30.158  12.811
32001W        W 3530  26.426   1.584   1.441
32002W        W 3531  18.041  22.138   3.772
32003W        W 3532   4.357  43.461  11.036
32004W        W 3533  42.374   3.781   0.591
32005W        W 3534  16.639  27.970  13.786
32006W        W 3535   3.224  28.892   3.403
32007W        W 3536  44.554  26.176  11.114
32008W        W 3537  24.752   1.312   4.902
32009W        W 3538  23.842  38.760   4.294
32010W        W 3539  22.974  20.454  14.782
32011W        W 3540  16.720  34.636  13.246
32012W        W 3541  23.481  32.582  14.476
32013W        W 3542   5.232  15.863   4.643
32014W        W 3543  33.884  21.719   3.140
32015W        W 3544  28.583  43.506   3.233
32016W        W 3545  31.348   4.951   4.611
32017W        W 3546  28.977  25.811   3.357
32018W        W 3547  29.069   4.818  12.932
32019W        W 3548  33.365  36.945  13.028
32020W        W 3549  35.999  29.555   2.737
32021W        W 3550   8.097  38.944  14.291
32022W        W 3551   5.836  21.783   4.692
32023W        W 3552  40.312  17.560   0.884
32024W        W 3553  17.650  20.644  11.686
32025W        W 3554  30.188  44.020   0.770
32026W        W 3555   5.909   2.440   4.318
32027W        W 3556  38.160   9.870  12.780
32028W        W 3557   0.009  14.175   0.752
32029W        W 3558  29.891  35.625   0.489
32030W        W 3559  38.731  15.101  10.313
32031W        W 3560  19.048  29.264   4.063
32032W        W 3561  18.996  24.778   3.334
32033W        W 3562  19.539  44.014  14.745
32034W        W 3563  35.836  17.330   3.676
32035W        W 3564   8.974  39.505   0.044
32036W        W 3565   1.109   0.017   0.930
32037W        W 3566  22.073  23.942   3.239
32038W        W 3567  40.589  11.940   4.476
32039W        W 3568  36.022   0.914   5.021
32040W        W 3569   6.919   6.290  13.399
32041W        W 3570  38.061  24.086   0.764
32042W        W 3571   8.584  42.047   0.703
32043W        W 3572   2.783  28.664   1.810
32044W        W 3573  35.139   2.358   2.109
32045W        W 3574  21.985   0.240  14.420
32046W        W 3575  33.582  40.356   4.271
32047W        W 3576  39.067  26.197  11.558
32048W        W 3577  23.696   7.372   4.152
32049W        W 3578  23.948  28.198   3.768
32050W        W 3579   8.417   7.693  13.545
32051W        W 3580  38.415   0.802  14.758
32052W        W 3581  21.099  43.011   0.324
32053W        W 3582  21.692  23.514   3.166
32054W        W 3583  22.929  19.531  13.937
32055W        W 3584  29.133   2.437  14.934
32056W        W 3585  16.324  18.225   0.726
32057W        W 3586   0.787  15.006  14.277
32058W        W 3587  26.717   5.881   3.789
32059W        W 3588   8.184  35.293  14.777
32060W        W 3589  32.637  44.208   4.115
32061W        W 3590  15.310   6.017  12.366
32062W        W 3591  16.094  19.072  11.085
32063W        W 3592   2.119  26.179  13.475
32064W        W 3593   9.626   6.863  11.406
32065W        W 3594  26.608  22.361  11.608
32066W        W 3595  27.614  42.438   4.918
32067W        W 3596  11.338  26.236  11.192
32068W        W 3597  25.635  27.484  14.029
32069W        W 3598   0.886   2.924  13.471
32070W        W 3599  31.559   4.925  11.197
32071W        W 3600  18.665   7.432  12.058
32072W        W 3601   3.003   7.310   3.730
32073W        W 3602  30.032  20.783  11.601
32074W        W 3603  37.573   7.327   1.956
32075W        W 3604   0.744  33.862  11.999
32076W        W 3605  24.099  28.889   1.241
32077W        W 3606  30.537   9.692   3.184
32078W        W 3607  43.768   7.214  12.617
32079W        W 3608  15.667  37.994  10.752
32080W        W 3609  30.736  25.517  11.459
32081W        W 3610  15.541  44.897  10.663
32082W        W 3611  29.089  28.641  10.600
32083W        W 3612  11.669  13.332   2.897
32084W        W 3613  16.824  43.593  13.336
32085W        W 3614  20.148  43.910  13.063
32086W        W 3615  44.353  44.794   1.897
32087W        W 3616  14.998   4.150  11.154
32088W        W 3617  15.136  31.372  12.529
32089W        W 3618   1.622  27.628   1.231
32090W        W 3619  39.456  25.952   4.836
32091W        W 3620  23.047  10.873  13.761
32092W        W 3621   1.380  34.313  13.422
32093W        W 3622  18.702  30.382   4.859
32094W        W 3623  19.810  23.562  11.226
32095W        W 3624  20.852   0.397   0.480
32096W        W 3625  14.856  25.072  14.872
32097W        W 3626  23.170  15.095  10.536
32098W        W 3627  10.589  36.638   0.230
32099W        W 3628  20.381  37.040  13.375
32100W        W 3629  41.689   6.090   4.531
32101W        W 3630   2.413  12.250   0.111
32102W        W 3631  24.234   1.480   4.176
32103W        W 3632  23.249   4.489  11.996
32104W        W 3633   0.027   8.762  11.589
32105W        W 3634  31.581  22.576  12.939
32106W        W 3635  41.647  13.820   4.684
32107W        W 3636  28.508  41.907  12.126
32108W        W 3637  27.601  22.534  13.036
32109W        W 3638   1.494   9.268  11.919
32110W        W 3639  26.465  19.287  13.498
32111W        W 3640  33.705  15.153  12.156
32112W        W 3641  31.380  27.121   1.497
32113W        W 3642   8.226  22.220  12.534
32114W        W 3643  42.887  11.844  14.389
32115W        W 3644  11.743  32.586  12.414
32116W        W 3645  14.613  34.939  14.254
32117W        W 3646   2.239  37.216  12.449
32118W        W 3647  16.305  19.606   3.276
32119W        W 3648  35.253   3.403  12.136
32120W        W 3649  29.949   4.850   3.078
32121W        W 3650  14.145  37.316  13.608
32122W        W 3651   1.796  27.583   4.735
32123W        W 3652  44.722  36.465   4.070
32124W        W 3653  44.118   2.076  11.128
32125W        W 3654   2.218  12.375  12.360
32126W        W 3655   8.918   5.303   2.771
32127W        W 3656  38.833   0.282   0.319
32128W        W 3657   5.393   7.723   0.317
32129W        W 3658  10.335  38.489  11.122
32130W        W 3659  21.454   3.293   2.214
32131W        W 3660  16.362  17.595   1.219
32132W        W 3661  30.378  24.546   3.624
32133W        W 3662  37.270  17.562   3.230
32134W        W 3663  33.486  36.043   0.902
32135W        W 3664  38.267  27.619  13.966
32136W        W 3665  16.751  30.699  11.602
32137W        W 3666  21.010  28.563  13.999
32138W        W 3667   3.333   0.989  10.709
32139W        W 3668  30.467  19.134  10.702
32140W        W 3669   0.897  10.126  12.177
32141W        W 3670   9.068  33.622   9.800
32142W        W 3671  35.433  33.595  14.748
32143W        W 3672   0.533  12.171  13.839
32144W        W 3673   6.759  19.837  13.076
32145W        W 3674  44.850  20.537  11.199
32146W        W 3675  12.315  13.752   2.123
32147W        W 3676  24.773  31.488  12.904
32148W        W 3677  40.284  36.081  11.655
32149W        W 3678  35.531  16.805  14.021
32150W        W 3679  21.232  11.767  14.026
32151W        W 3680  35.856  38.043   0.511
32152W        W 3681  28.237  39.270  11.073
32153W        W 3682  17.641  14.105  13.928
32154W        W 3683  27.312  11.794  12.821
32155W        W 3684  43.088  34.406   1.485
32156W        W 3685  26.343  42.258   4.584
32157W        W 3686  33.318  21.064  10.353
32158W        W 3687  16.538   0.740  10.767
32159W        W 3688  29.785  26.252   4.099
32160W        W 3689  40.534   4.393   3.375
32161W        W 3690  31.503  26.393   0.986
32162W        W 3691  44.227   7.939  14.905
32163W        W 3692   0.009  42.087   2.710
32164W        W 3693  34.929  30.392  13.056
32165W        W 3694  30.946   7.813  14.867
32166W        W 3695  21.581  27.667   1.312
32167W        W 3696  15.141  13.784  14.585
32168W        W 3697  27.087  12.493  10.986
32169W        W 3698  38.527  35.077   2.837
32170W        W 3699  12.560  15.798   0.275
32171W        W 3700  35.516   6.959   3.819
32172W        W 3701   6.815  13.558  11.437
32173W        W 3702  26.665   7.146   1.835
32174W        W 3703  44.071  44.079  10.994
32175W        W 3704  35.536   3.855   1.398
32176W        W 3705  10.511   4.894   2.224
32177W        W 3706  14.090   2.406  14.777
32178W        W 3707   1.034  34.338  12.081
32179W        W 3708  27.556   8.189  10.565
32180W        W 3709  31.364  14.293  14.273
32181W        W 3710  11.568  28.107  11.215
32182W        W 3711  43.908  14.587   4.680
32183W        W 3712   6.443  32.586   2.057
32184W        W 3713  37.906  40.503  14.790
32185W        W 3714  31.522  30.305   4.211
32186W        W 3715  22.030  10.937  11.157
32187W        W 3716  27.207  11.354  13.961
32188W        W 3717   7.797  32.128   4.622
32189W        W 3718  13.389  13.621   3.784
32190W        W 3719  32.232   6.427  13.762
32191W        W 3720   0.530  12.017   3.034
32192W        W 3721   1.373   3.081  11.445
32193W        W 3722  10.009  40.414  12.149
32194W        W 3723  11.075  15.352  14.073
32195W        W 3724   7.702  36.464  10.906
32196W        W 3725  21.103   7.794   2.768
32197W        W 3726  13.967  23.214   2.820
32198W        W 3727  43.110   1.908  11.669
32199W        W 3728  22.626  29.625   1.726
32200W        W 3729   9.635  26.753   2.324
32201W        W 3730   4.967  23.492   1.222
32202W        W 3731  21.772  12.917  12.694
32203W        W 3732   6.342  36.223  11.190
32204W        W 3733  15.625  33.140   3.817
32205W        W 3734  15.383  35.175  11.143
32206W        W 3735  35.466  10.315   3.893
32207W        W 3736   5.232   1.397  12.626
32208W        W 3737  24.931  13.120   2.735
32209W        W 3738  26.430  30.735  13.935
32210W        W 3739   7.654  42.779  10.283
32211W        W 3740   6.896   6.209  14.298
32212W        W 3741  32.389  36.396  13.489
32213W        W 3742   4.292  20.333   3.249
32214W        W 3743  41.783  39.061  12.237
32215W        W 3744  40.861  35.464  14.715
32216W        W 3745  34.479  30.426   3.587
32217W        W 3746  13.607  22.564  11.998
32218W        W 3747   3.284   8.454  12.900
32219W        W 3748  40.829  23.158  12.192
32220W        W 3749   0.693  31.437   2.823
32221W        W 3750  14.419  21.814   4.960
32222W        W 3751  27.441   2.828  14.025
32223W        W 3752  26.722  13.201  10.692
32224W        W 3753  29.765   3.747  13.972
32225W        W 3754  25.346  23.021   3.306
32226W        W 3755  20.059   3.960   1.954
32227W        W 3756  31.111  16.510  12.659
32228W        W 3757  33.072  17.334   2.670
32229W        W 3758   2.395  30.850  11.457
32230W        W 3759  10.616  19.174   0.960
32231W        W 3760  10.601   7.119   3.371
32232W        W 3761   2.754  28.074   2.290
32233W        W 3762  37.617  14.713  14.832
32234W        W 3763  35.643   0.782  12.617
32235W        W 3764   6.320   7.317   4.672
32236W        W 3765   5.299  22.018  11.199
32237W        W 3766   8.720  42.071  12.075
32238W        W 3767  26.596  21.872  10.344
32239W        W 3768   9.172  29.457   0.255
32240W        W 3769  10.818  40.654   0.746
32241W        W 3770  37.133   2.487   3.863
32242W        W 3771  11.249  15.801   0.770
32243W        W 3772   0.509  13.300  11.903
32244W        W 3773  35.340  41.292   3.682
32245W        W 3774  22.057  17.330   2.887
32246W        W 3775  36.416   8.159  11.423
32247W        W 3776  32.823  26.927   3.287
32248W        W 3777  15.768  30.787  11.532
32249W        W 3778   1.030   8.334   0.961
32250W        W 3779  34.020   1.910  11.659
32251W        W 3780  38.455  19.543  11.573
32252W        W 3781  32.810  30.135  11.625
32253W        W 3782   4.899  30.845  12.872
32254W        W 3783  18.545   4.726  13.394
32255W        W 3784  13.126   0.556   1.478
32256W        W 3785  43.101   5.378   3.690
32257W        W 3786  28.061  14.762  11.578
32258W        W 3787   7.880  34.943   4.054
32259W        W 3788  22.123   7.055  11.188
32260W        W 3789   9.683  26.893   2.828
32261W        W 3790   4.397  38.094   3.813
32262W        W 3791  12.081  24.372  11.146
32263W        W 3792  11.783  16.011  11.153
32264W        W 3793  36.434   4.756   2.314
32265W        W 3794  15.097  19.296  14.873
32266W        W 3795  13.648  35.530   2.727
32267W        W 3796  29.019  35.146  10.108
32268W        W 3797  19.473  18.766   4.200
32269W        W 3798  12.396  10.508   4.574
32270W        W 3799   0.093  43.099  13.874
32271W        W 3800  25.423   1.304  12.333
32272W        W 3801  37.515  23.467   1.867
32273W        W 3802  31.530  11.761   1.275
32274W        W 3803  34.388  21.652   3.379
32275W        W 3804  25.607  35.213   2.537
32276W        W 3805  13.441  39.823  11.397
32277W        W 3806  11.767  44.841   2.283
32278W        W 3807  28.605   8.405   3.123
32279W        W 3808  33.031  38.504  12.099
32280W        W 3809  11.661   2.374   3.575
32281W        W 3810  14.161  18.744   4.689
32282W        W 3811  30.823  34.397   2.283
32283W        W 3812  26.748   9.273   0.044
32284W        W 3813  14.569  38.006   4.539
32285W        W 3814  38.571  29.995   3.664
32286W        W 3815  34.705  40.257   2.686
32287W        W 3816  39.047  21.745  14.502
32288W        W 3817   7.262   7.383   1.683
32289W        W 3818  29.718   7.347  12.125
32290W        W 3819  26.991  33.389  14.130
32291W        W 3820  19.592  15.605   0.734
32292W        W 3821  27.745  32.990   2.357
32293W        W 3822   4.736  12.593   2.227
32294W        W 3823   1.915  23.285   2.353
32295W        W 3824  25.627  35.815  14.811
32296W        W 3825   4.897  33.673  13.301
32297W        W 3826   7.238  37.332   1.301
32298W        W 3827   5.711  31.627  13.436
32299W        W 3828  22.923  30.131   0.742
32300W        W 3829  10.302   8.273  14.555
32301W        W 3830  26.912   5.863   3.228
32302W        W 3831  40.318  32.556  13.702
32303W        W 3832  44.276  28.393   2.594
32304W        W 3833  13.984  44.114  12.819
32305W        W 3834   6.742  12.159  11.921
32306W        W 3835  11.572  40.333  13.468
32307W        W 3836  26.213  28.701  14.371
32308W        W 3837   4.017  10.101  14.849
32309W        W 3838   7.769   6.377   1.208
32310W        W 3839   0.855   0.549   3.759
32311W        W 3840  11.338  30.782  11.924
32312W        W 3841  23.506  24.265  12.726
32313W        W 3842  37.882  13.384  12.885
32314W        W 3843  21.947  43.310   0.056
32315W        W 3844  29.850  13.664  14.017
32316W        W 3845   9.181  20.231  13.606
32317W        W 3846  38.115  14.039   1.834
32318W        W 3847  37.571  23.771  12.605
32319W        W 3848  15.864  40.455  11.940
32320W        W 3849  14.658  39.436   1.799
32321W        W 3850  42.870  28.388  11.257
32322W        W 3851  22.500  14.700   3.235
32323W        W 3852  32.586  12.637  12.350
32324W        W 3853  21.174  34.692   3.271
32325W        W 3854  20.185  38.335  13.140
32326W        W 3855  22.637  38.543  13.137
32327W        W 3856   3.528  19.174  11.602
32328W        W 3857  18.754  10.286   2.269
32329W        W 3858   8.418  23.561   1.888
32330W        W 3859  18.130  21.433  13.085
32331W        W 3860  40.087   9.451  14.761
32332W        W 3861  34.266  18.806  13.494
32333W        W 3862  41.689  12.588  12.887
32334W        W 3863   6.877  36.944   2.556
32335W        W 3864  29.546  28.528  11.186
32336W        W 3865  19.035  22.941  12.038
32337W        W 3866  37.991  42.295   0.751
32338W        W 3867  23.414   9.380   1.842
32339W        W 3868  13.127  21.088  13.555
32340W        W 3869  19.525  20.524   0.487
32341W        W 3870  28.698  35.642   3.823
32342W        W 3871   4.642   6.934  10.398
32343W        W 3872  27.133  12.963   3.423
32344W        W 3873  30.652   9.571  14.991
32345W        W 3874   0.731   3.705  10.752
32346W        W 3875  13.725   1.960  12.649
32347W        W 3876  43.337  26.853  11.984
32348W        W 3877  17.789  34.807  11.954
32349W        W 3878  43.506  43.765  11.695
32350W        W 3879  15.217  30.487  10.365
32351W        W 3880  41.524  27.416   3.239
32352W        W 3881  43.078  11.343   3.349
32353W        W 3882  36.936  31.475   0.280
32354W        W 3883  12.361  17.135   4.522
32355W        W 3884  39.805  35.062   3.301
32356W        W 3885  44.246   0.693  14.061
32357W        W 3886  39.992  44.198   1.839
32358W        W 3887   5.838  26.524   1.611
32359W        W 3888  20.580  42.551   0.243
32360W        W 3889   7.679   8.262   3.283
32361W        W 3890   9.494  33.591   1.357
32362W        W 3891  31.400   0.252  12.461
32363W        W 3892  38.204  33.089  14.309
32364W        W 3893   8.431  39.843   3.993
32365W        W 3894  41.177  25.479   4.207
32366W        W 3895  13.307  28.689   4.509
32367W        W 3896   8.121  20.645  12.091
32368W        W 3897  26.048  36.520   1.244
32369W        W 3898  14.805  42.896   0.258
32370W        W 3899  17.155   2.238   2.359
32371W        W 3900  27.466  36.330   0.297
32372W        W 3901  40.992   8.800   0.476
32373W        W 3902   6.995  39.394   0.954
32374W        W 3903  26.476  10.057   0.349
32375W        W 3904  31.996  30.733  14.428
32376W        W 3905  44.332  28.914  12.072
32377W        W 3906  11.889  11.027  11.408
32378W        W 3907  44.315   8.255   0.300
32379W        W 3908   0.001  16.314   2.389
32380W        W 3909  31.138  35.019  10.303
32381W        W 3910   3.211  26.388  12.955
32382W        W 3911  15.252  29.300   1.813
32383W        W 3912  32.930  33.609  11.820
32384W        W 3913   8.097  30.164  13.266
32385W        W 3914  16.120  29.681   1.736
32386W        W 3915  20.579  39.961   3.183
32387W        W 3916   6.580  31.038  12.793
32388W        W 3917  33.941  28.061   2.725
32389W        W 3918  30.883   2.565   0.802
32390W        W 3919  31.366  25.680  13.473
32391W        W 3920  26.647   6.827   4.544
32392W        W 3921   5.808  43.779  14.761
32393W        W 3922  42.279  37.082   1.274
32394W        W 3923  43.328  34.870   0.326
32395W        W 3924  12.387   5.744  11.696
32396W        W 3925   1.819   3.843  11.137
32397W        W 3926  21.602  29.850  12.112
32398W        W 3927   8.851   1.084   3.591
32399W        W 3928  27.443  35.506  14.768
32400W        W 3929  40.725  44.598  11.136
32401W        W 3930  26.612  17.301  14.471
32402W        W 3931   7.072  11.012  14.490
32403W        W 3932   3.448  30.192   1.514
32404W        W 3933  19.225   7.751   3.144
32405W        W 3934  22.581   9.184  14.254
32406W        W 3935  39.432   0.254   3.790
32407W        W 3936  37.488   5.423  11.098
32408W        W 3937   3.486   4.241  11.579
32409W        W 3938  41.533   9.589   3.048
32410W        W 3939  22.548  18.208   2.741
32411W        W 3940   3.693  29.691  11.620
32412W        W 3941   9.273  37.125  11.881
32413W        W 3942  19.007  38.055   1.716
32414W        W 3943  29.541  38.948  14.412
32415W        W 3944  33.051  22.771   1.113
32416W        W 3945  20.883  40.682   3.762
32417W        W 3946  32.499  15.783   0.710
32418W        W 3947  15.595  26.842  13.412
32419W        W 3948  42.032  19.312   2.374
32420W        W 3949  43.975  14.003   3.163
32421W        W 3950   1.831  35.947   4.978
32422W        W 3951  15.587  37.099  10.251
32423W        W 3952  11.606  12.207  12.908
32424W        W 3953  31.347  35.579   4.137
32425W        W 3954  44.229  16.346  13.013
32426W        W 3955  22.099  36.313  12.897
32427W        W 3956   8.910  32.545  12.565
32428W        W 3957  25.120  13.149  10.763
32429W        W 3958  26.298  33.939  11.619
32430W        W 3959   3.795   3.586   5.101
32431W        W 3960  22.582   0.671   2.021
32432W        W 3961  34.243  15.133  14.803
32433W        W 3962  33.485   0.182  12.174
32434W        W 3963  38.538  21.840   4.220
32435W        W 3964  19.116  35.484  11.338
32436W        W 3965   5.058  42.315   1.393
32437W        W 3966  29.525  32.881   1.320
32438W        W 3967  32.888  17.719  14.818
32439W        W 3968  18.329  13.590  14.391
32440W        W 3969  31.435  28.892  13.863
32441W        W 3970   2.865  12.899   1.351
32442W        W 3971  22.529  15.768   0.852
32443W        W 3972  19.983  20.721   3.513
32444W        W 3973   3.985   4.323   1.756
32445W        W 3974  14.765  19.682   0.776
32446W        W 3975   0.393  37.352  13.538
32447W        W 3976  17.933   3.265   0.746
32448W        W 3977  24.407  28.864  10.516
32449W        W 3978  21.526  24.485   4.116
32450W        W 3979  41.044  44.363   4.887
32451W        W 3980  24.481  14.369  13.054
32452W        W 3981  40.058  32.989   1.953
32453W        W 3982  33.632  24.006   0.843
32454W        W 3983  12.843  23.065  14.411
32455W        W 3984  16.830  39.981  10.695
32456W        W 3985  18.619  30.727  14.354
32457W        W 3986  23.029  16.286  14.452
32458W        W 3987  37.321  10.747   2.288
32459W        W 3988  25.962   1.917   2.524
32460W        W 3989  39.890  29.216   2.810
32461W        W 3990  22.444  37.490  11.670
32462W        W 3991  34.593  27.427   1.949
32463W        W 3992  30.220  13.285   1.667
32464W        W 3993   1.673  21.497   4.100
32465W        W 3994   4.678  13.716   4.886
32466W        W 3995  24.183  15.317  13.078
32467W        W 3996  39.406  44.349   2.331
32468W        W 3997  33.450  19.972  13.860
32469W        W 3998  44.346  18.847   5.025
32470W        W 3999   1.123  27.691   2.214
32471W        W 4000  32.861  22.682  14.991
32472W        W 4001  39.308  35.006  13.178
32473W        W 4002  39.009  40.644  11.662
32474W        W 4003  23.603  42.005   4.748
32475W        W 4004  21.185  25.605  14.772
32476W        W 4005   8.785  37.348   1.372
32477W        W 4006  21.557  40.795   5.039
32478W        W 4007  17.641  30.141   3.285
32479W        W 4008   6.086  26.441  13.077
32480W        W 4009  30.384  44.928   1.798
32481W        W 4010   8.040  19.642   9.808
32482W        W 4011   7.678  42.915  11.668
32483W        W 4012  32.874  19.271   0.697
32484W        W 4013  33.829  32.631  11.933
32485W        W 4014  18.225  43.552   1.549
32486W        W 4015  26.077  13.708   3.632
32487W        W 4016  39.853  23.758  11.044
32488W        W 4017  20.354  28.907  10.728
32489W        W 4018  31.938  26.999   1.772
32490W        W 4019  30.651  16.258   2.793
32491W        W 4020  35.092  25.780   2.785
32492W        W 4021  13.364  32.656   3.227
32493W        W 4022   1.850   4.331   1.839
32494W        W 4023  16.127  41.882   2.361
32495W        W 4024  21.483  32.427   0.471
32496W        W 4025  29.088  38.571   2.689
32497W        W 4026  18.483  24.630  14.959
32498W        W 4027  39.968   8.545  13.484
32499W        W 4028  22.617  11.444   4.091
32500W        W 4029  26.210   8.314  14.746
32501W        W 4030  39.858  24.258  11.202
32502W        W 4031  31.031   5.966   0.226
32503W        W 4032  24.596   7.264   0.258
32504W        W 4033  33.911  42.067  10.693
32505W        W 4034  11.364  19.655   2.820
32506W        W 4035   3.912  44.492   4.865
32507W        W 4036  27.292  28.013   0.412
32508W        W 4037  12.562  44.336   0.890
32509W        W 4038  38.447  41.962   4.129
32510W        W 4039  28.093  12.865  11.628
32511W        W 4040  36.029  41.457   1.248
32512W        W 4041  17.221  15.015   1.450
32513W        W 4042   3.976  32.428  14.446
32514W        W 4043  35.618  29.985  14.272
32515W        W 4044  21.942   5.168   0.936
32516W        W 4045  33.330  15.072   0.486
32517W        W 4046  42.356  27.247  13.350
32518W        W 4047  26.323   3.147  12.128
32519W        W 4048  23.977  43.361   2.258
32520W        W 4049  42.935  40.085  11.027
32521W        W 4050  26.690  11.380  13.904
32522W        W 4051  38.988  10.896  13.118
32523W        W 4052   7.603   7.308   4.626
32524W        W 4053  17.041  14.163  14.746
32525W        W 4054  20.576  27.395   4.428
32526W        W 4055   6.846   1.334   1.668
32527W        W 4056  26.658  19.512  12.168
32528W        W 4057  16.710  39.635   4.161
32529W        W 4058  39.340  33.941   2.161
32530W        W 4059  29.856  33.191   1.595
32531W        W 4060  22.200  20.443   1.318
32532W        W 4061   7.249  37.811   2.344
32533W        W 4062   9.925  15.389   2.270
32534W        W 4063  16.545  16.518  13.718
32535W        W 4064  20.651  44.972  10.752
32536W        W 4065  40.570  17.235  12.968
32537W        W 4066   5.216  33.300   1.672
32538W        W 4067  23.218   8.846   4.550
32539W        W 4068  37.222   9.885  12.843
32540W        W 4069  24.975  27.559  13.050
32541W        W 4070  17.756  35.508  12.821
32542W        W 4071  29.154  40.074   0.287
32543W        W 4072  38.207  40.861   3.217
32544W        W 4073  40.886   2.267   0.056
32545W        W 4074  40.578  31.889   4.974
32546W        W 4075  37.896   2.734   0.283
32547W        W 4076  27.694  21.071  14.118
32548W        W 4077  15.437  43.801  11.273
32549W        W 4078  35.333   2.259  13.377
32550W        W 4079  36.186  41.397   0.719
32551W        W 4080  22.059  25.225   3.847
32552W        W 4081  44.764   8.302  11.623
32553W        W 4082   5.115  16.823   3.123
32554W        W 4083  13.341  22.039   3.290
32555W        W 4084  33.605  25.511   2.759
32556W        W 4085  24.520  28.816   3.265
32557W        W 4086  20.995  12.920   9.961
32558W        W 4087  16.825  30.691  12.867
32559W        W 4088  29.674  29.059  11.345
32560W        W 4089  23.982  37.327   2.178
32561W        W 4090  13.204  28.492  11.412
32562W        W 4091  21.239  10.680   4.686
32563W        W 4092   1.311  19.985  13.051
32564W        W 4093  16.390  19.688  11.882
32565W        W 4094  32.759  40.493   4.520
32566W        W 4095  32.058  20.718   3.920
32567W        W 4096  32.547  25.097  11.975
32568W        W 4097  39.550  35.196  14.955
32569W        W 4098  34.131  15.261  11.838
32570W        W 4099   0.147   3.931   2.912
32571W        W 4100  15.059  29.540   4.178
32572W        W 4101  20.741  26.190  12.401
32573W        W 4102  10.390  11.322   1.429
32574W        W 4103  40.234  21.008  12.906
32575W        W 4104  37.263   7.727  10.336
32576W        W 4105  27.003   8.282   1.886
32577W        W 4106  15.623  41.919  10.733
32578W        W 4107  28.618   9.291  12.637
32579W        W 4108  24.144  34.294   2.781
32580W        W 4109  25.408  43.054   0.764
32581W        W 4110  30.564   0.980  13.857
32582W        W 4111  31.884  36.945   0.969
32583W        W 4112  14.085  18.769  11.431
32584W        W 4113  11.238  42.635  13.454
32585W        W 4114  11.050   0.735  11.457
32586W        W 4115  17.501  16.636  13.543
32587W        W 4116  36.989   6.618   2.305
32588W        W 4117  29.488  32.407  13.074
32589W        W 4118  17.159  15.918   3.189
32590W        W 4119  43.269   3.884  13.317
32591W        W 4120  14.575  40.252   1.385
32592W        W 4121  15.248  21.150   1.586
32593W        W 4122  41.386  28.407  12.557
32594W        W 4123   4.371  12.544   1.830
32595W        W 4124  28.219  25.484  10.686
32596W        W 4125   9.931  30.939   0.430
32597W        W 4126  21.391  10.985   0.354
32598W        W 4127  10.617  26.546   0.945
32599W        W 4128  18.605  38.928   2.793
32600W        W 4129   2.480  44.014  14.579
32601W        W 4130  36.551  17.008   1.756
32602W        W 4131  22.143  37.074  13.376
32603W        W 4132   9.182   3.006   2.069
32604W        W 4133  32.730   7.674  11.173
32605W        W 4134   3.485   9.925  10.599
32606W        W 4135   1.287  16.314  11.083
32607W        W 4136  31.603  37.933  12.048
32608W        W 4137  35.115   3.564   1.372
32609W        W 4138  42.449  42.173   1.361
32610W        W 4139  24.069   7.242   2.497
32611W        W 4140  12.224  16.185  11.891
32612W        W 4141  30.989   6.511  13.490
32613W        W 4142  40.264  14.387  10.404
32614W        W 4143   9.587   9.657   3.211
32615W        W 4144   3.671  39.654   1.392
32616W        W 4145  17.136  13.084  13.345
32617W        W 4146  19.569   6.229  14.309
32618W        W 4147  30.016  44.879  14.553
32619W        W 4148  11.090   1.724  12.854
32620W        W 4149  13.428   6.572   1.196
32621W        W 4150   8.725  24.994  11.570
32622W        W 4151  35.534   3.745  11.890
32623W        W 4152  24.763   0.060  10.644
32624W        W 4153  13.909   1.515   3.662
32625W        W 4154  35.974  32.096   3.175
32626W        W 4155  14.137   8.054  11.206
32627W        W 4156  11.448  44.797   0.025
32628W        W 4157   1.768   7.319   1.492
32629W        W 4158   8.705   4.906  11.685
32630W        W 4159  38.329  26.978  13.310
32631W        W 4160   2.308   9.452  13.326
32632W        W 4161  35.276  31.664  10.450
32633W        W 4162  14.139  22.743  13.429
32634W        W 4163  30.390   6.120   1.923
32635W        W 4164   8.704  44.727  13.473
32636W        W 4165  12.008   7.882  12.393
32637W        W 4166  44.013  29.063   3.684
32638W        W 4167  14.633  25.185   4.838
32639W        W 4168  14.178  18.100   2.935
32640W        W 4169  37.707  35.060   4.280
32641W        W 4170  33.447  22.792  12.863
32642W        W 4171  12.708  21.362  13.356
32643W        W 4172  34.821  27.810   0.808
32644W        W 4173  16.207  22.543   2.260
32645W        W 4174  23.431   8.357   4.042
32646W        W 4175  30.535  37.471   4.586
32647W        W 4176   7.267   1.966   1.338
32648W        W 4177  12.603   9.273   4.589
32649W        W 4178  28.500  39.256  13.288
32650W        W 4179  25.001  26.692   1.960
32651W        W 4180  40.030   4.334   3.310
32652W        W 4181  18.968   3.770  14.207
32653W        W 4182  16.219  44.890   0.853
32654W        W 4183  43.915   2.739   0.474
32655W        W 4184  25.450  38.567  13.794
32656W        W 4185   2.992  34.103  13.402
32657W        W 4186  39.337  36.856  11.163
32658W        W 4187  22.100   8.473   0.093
32659W        W 4188  31.374  35.272  13.542
32660W        W 4189   8.226  19.297   0.657
32661W        W 4190   1.758  23.603  12.081
32662W        W 4191  18.691  13.252  14.586
32663W        W 4192  21.478  13.314   3.717
32664W        W 4193  23.094  44.030   1.901
32665W        W 4194  41.804  13.371  14.595
32666W        W 4195  12.310   7.882   0.992
32667W        W 4196   1.278  23.734  13.862
32668W        W 4197  17.890  21.091  11.514
32669W        W 4198  13.343  18.481   4.149
32670W        W 4199  39.497  17.038  14.520
32671W        W 4200   4.389  18.319  13.731
32672W        W 4201  24.000  26.126  13.339
32673W        W 4202   6.297  40.572  10.672
32674W        W 4203  17.594   6.696   1.684
32675W        W 4204   7.451   8.359  12.492
32676W        W 4205   4.459  39.316   4.405
32677W        W 4206  17.646  32.446   4.381
32678W        W 4207  35.600  30.439  13.357
32679W        W 4208   5.571  15.662   3.543
32680W        W 4209  15.517  25.491  11.089
32681W        W 4210  41.222   1.294   0.238
32682W        W 4211  36.356  12.745   0.684
32683W        W 4212  31.386  25.699   0.305
32684W        W 4213  12.666  30.622   4.178
32685W        W 4214  29.445  18.508  12.488
32686W        W 4215  33.386   5.433  10.712
32687W        W 4216  29.154  15.528  11.352
32688W        W 4217  31.528  42.876  10.989
32689W        W 4218  22.266   1.859   1.881
32690W        W 4219  33.980   7.445  11.407
32691W        W 4220   5.520   0.359   2.131
32692W        W 4221   7.160  12.155  13.346
32693W        W 4222  21.955  30.006   3.754
32694W        W 4223  21.689  44.421  10.734
32695W        W 4224  32.477  22.938   2.881
32696W        W 4225  20.935  40.280  13.626
32697W        W 4226  32.700  10.930   3.568
32698W        W 4227   8.749   6.327   3.136
32699W        W 4228   8.201  38.468  14.516
32700W        W 4229  42.594  42.669   1.284
32701W        W 4230  29.708  36.745  12.570
32702W        W 4231  17.656  14.292   3.746
32703W        W 4232  36.123  14.725   3.869
32704W        W 4233  36.044  37.840   4.281
32705W        W 4234  31.700  24.923   2.180
32706W        W 4235  35.296  21.581  10.852
32707W        W 4236  10.135  43.859   1.078
32708W        W 4237   7.859  14.714  11.670
32709W        W 4238  40.778  16.143   2.896
32710W        W 4239  20.740  25.433  10.834
32711W        W 4240  16.189  35.119  12.020
32712W        W 4241   6.267   1.304  13.823
32713W        W 4242  24.654   0.234   3.713
32714W        W 4243  34.553   4.192  14.226
32715W        W 4244   8.746   1.305  13.605
32716W        W 4245  17.214  26.114   1.263
32717W        W 4246  14.204  32.135  14.745
32718W        W 4247  24.281  20.109  14.805
32719W        W 4248   4.401  34.970   1.387
32720W        W 4249  41.465  20.241  14.830
32721W        W 4250  40.861  11.789   0.428
32722W        W 4251   9.313  28.275   4.332
32723W        W 4252  20.601  15.793  12.450
32724W        W 4253   2.948   6.126   4.266
32725W        W 4254  20.139  31.517   4.159
32726W        W 4255  27.445  34.469  10.235
32727W        W 4256  27.584  23.992   4.537
32728W        W 4257  36.984  17.522  11.690
32729W        W 4258  42.364  22.260   3.904
32730W        W 4259  37.110   6.086  11.131
32731W        W 4260  39.301  30.222   3.108
32732W        W 4261   0.797  19.604  10.602
32733W        W 4262  17.842   8.838   2.231
32734W        W 4263  15.881  28.038  11.502
32735W        W 4264   2.695   7.850   4.210
32736W        W 4265   2.895  28.024  10.862
32737W        W 4266   6.595  33.404   2.634
32738W        W 4267  16.360  29.917   3.099
32739W        W 4268   9.557   0.004  14.007
32740W        W 4269  11.051  38.996   1.281
32741W        W 4270  44.865   3.218   0.275
32742W        W 4271  36.845  12.619   0.811
32743W        W 4272  11.584   3.388   4.241
32744W        W 4273  22.887  12.930   1.795
32745W        W 4274  20.550  14.049  11.955
32746W        W 4275  19.788  13.621  12.082
32747W        W 4276  37.857  29.748  13.984
32748W        W 4277  11.937  19.057   0.117
32749W        W 4278  31.572  39.240   3.718
32750W        W 4279  42.284   8.811  13.539
32751W        W 4280  37.526  29.593  14.347
32752W        W 4281   3.858   1.069   2.605
32753W        W 4282   2.930   8.124  13.825
32754W        W 4283  34.613  15.808  13.311
32755W        W 4284  34.587  29.432   3.261
32756W        W 4285  24.492  22.763  14.625
32757W        W 4286   1.325  32.508  11.655
32758W        W 4287  19.139  18.827  11.516
32759W        W 4288  12.214  40.857   0.277
32760W        W 4289   4.838  44.088   3.826
32761W        W 4290   9.885  40.057  11.509
32762W        W 4291  18.715  27.322   0.814
32763W        W 4292  12.235   2.724   4.885
32764W        W 4293  44.991   2.280  13.599
32765W        W 4294  10.867  35.879   4.654
32766W        W 4295  26.119  39.975  14.802
32767W        W 4296   1.685  11.614  12.452
32768W        W 4297  22.746  37.793   1.471
32769W        W 4298  17.112  44.358  13.609
32770W        W 4299  28.523  38.084   4.231
32771W        W 4300  27.648  23.610   3.278
32772W        W 4301  11.265  11.686   0.011
32773W        W 4302  16.942   9.897   1.204
32774W        W 4303  17.407  22.107  13.529
32775W        W 4304  13.805  31.553   0.378
32776W        W 4305  36.030  30.503   0.784
32777W        W 4306   5.372  22.507   2.300
32778W        W 4307  23.013  32.589   3.125
32779W        W 4308  17.299  40.539  14.950
32780W        W 4309   2.465  10.841  12.571
32781W        W 4310   1.129  20.087   3.036
32782W        W 4311  39.428  22.381   2.774
32783W        W 4312  38.970  29.965  14.299
32784W        W 4313   7.882  17.036   3.195
32785W        W 4314  11.791  31.539  13.759
32786W        W 4315  13.973  32.278  12.021
32787W        W 4316  11.006  24.218  14.966
32788W        W 4317  40.868  41.877  10.640
32789W        W 4318  29.196  19.296   0.434
32790W        W 4319  19.531   4.411   0.303
32791W        W 4320  35.124   7.363   0.253
32792W        W 4321  36.051  36.107   4.134
32793W        W 4322  31.917  42.867   0.572
32794W        W 4323  29.568  32.801   0.289
32795W        W 4324  17.247   7.431  13.336
32796W        W 4325  14.082  17.728   4.723
32797W        W 4326  31.842  38.780   4.468
32798W        W 4327  34.907  39.812   4.088
32799W        W 4328  11.164  29.179  13.210
32800W        W 4329   8.099  28.003  11.186
32801W        W 4330  24.905  24.570  10.671
32802W        W 4331  24.531  35.488  11.012
32803W        W 4332   2.735  36.584  12.407
32804W        W 4333  38.301  42.990  13.101
32805W        W 4334  18.750  21.187   0.236
32806W        W 4335  13.288  12.882  13.469
32807W        W 4336  44.865  29.442  11.461
32808W        W 4337  11.693  28.928   0.839
32809W        W 4338  38.832   3.820  11.553
32810W        W 4339  23.200  28.970  12.276
32811W        W 4340  11.796   3.650   3.087
32812W        W 4341  16.053  41.795  13.325
32813W        W 4342  44.952  15.519  14.268
32814W        W 4343  15.138  13.842   1.549
32815W        W 4344  38.989  25.809  13.273
32816W        W 4345  24.002  21.428   0.943
32817W        W 4346  37.784  31.221   0.812
32818W        W 4347  43.354  40.686  10.487
32819W        W 4348  21.664  12.314  13.132
32820W        W 4349   5.351  42.397   2.703
32821W        W 4350  42.492   8.421  11.095
32822W        W 4351   8.414  23.611   2.746
32823W        W 4352  22.157   8.367   2.377
32824W        W 4353  37.591  36.445   3.706
32825W        W 4354  37.502  19.204  12.371
32826W        W 4355  33.043  31.356   0.501
32827W        W 4356  16.036  17.360  12.055
32828W        W 4357  24.143  27.901  11.314
32829W        W 4358  23.492  22.165   1.819
32830W        W 4359  38.839  32.164  10.768
32831W        W 4360  12.344  26.587  13.790
32832W        W 4361  41.614  12.147  14.240
32833W        W 4362  14.609   2.547   4.390
32834W        W 4363  36.656  18.829   3.420
32835W        W 4364  37.946  34.433   3.696
32836W        W 4365  36.814   5.880  10.740
32837W        W 4366  40.921  33.717  11.112
32838W        W 4367   5.471  12.192  10.784
32839W        W 4368  39.521   7.546  11.650
32840W        W 4369  43.404  40.077   2.276
32841W        W 4370  26.013  24.120  13.039
32842W        W 4371  31.395   3.146  13.456
32843W        W 4372  30.263   4.848  14.919
32844W        W 4373   3.860  26.602   3.155
32845W        W 4374  37.735   5.528   4.976
32846W        W 4375  18.376   9.253   3.089
32847W        W 4376  39.309  24.193   3.252
32848W        W 4377  12.907  13.657   3.959
32849W        W 4378  16.795  28.638   2.132
32850W        W 4379  19.572  31.192  14.375
32851W        W 4380   0.387  29.938  14.219
32852W        W 4381   8.486  17.377  12.440
32853W        W 4382  32.103   2.401  14.303
32854W        W 4383   8.788  21.680   2.643
32855W        W 4384  15.762  37.147   2.044
32856W        W 4385  37.903  43.062   1.320
32857W        W 4386  27.164  33.426  10.979
32858W        W 4387  23.871  14.605  12.467
32859W        W 4388   2.641  26.783   3.625
32860W        W 4389  13.772   8.640  14.456
32861W        W 4390  13.620   0.464  12.328
32862W        W 4391  37.087  16.227  13.278
32863W        W 4392   9.044   2.934  13.830
32864W        W 4393   7.892  23.707   9.962
32865W        W 4394  28.660   0.389  12.712
32866W        W 4395  36.034  38.523  12.406
32867W        W 4396   2.386  13.314  11.162
32868W        W 4397  10.143  10.376  10.687
32869W        W 4398  19.729   9.000  11.396
32870W        W 4399   4.610   6.180  12.098
32871W        W 4400   0.092  15.669  11.376
32872W        W 4401  19.413  19.744  13.485
32873W        W 4402   3.376  37.413  11.624
32874W        W 4403  40.505  23.730   5.006
32875W        W 4404  41.956  28.993  13.254
32876W        W 4405  41.597  13.900  10.707
32877W        W 4406  38.081  42.089  13.925
32878W        W 4407  14.840  37.305   2.876
32879W        W 4408   3.269  22.901  10.620
32880W        W 4409  44.782  31.976  14.350
32881W        W 4410  11.221  15.480   9.920
32882W        W 4411  14.772  10.533   4.462
32883W        W 4412  22.810  29.675  10.762
32884W        W 4413  39.637  13.955   3.338
32885W        W 4414  20.235  42.826   0.543
32886W        W 4415  39.183  36.331  13.296
32887W        W 4416   2.878  31.326  14.714
32888W        W 4417  19.278  23.222   0.679
32889W        W 4418  36.013  22.467  13.604
32890W        W 4419  36.465   3.000  12.529
32891W        W 4420  21.343  20.253   4.093
32892W        W 4421  25.781  33.834  13.862
32893W        W 4422  12.894  17.101  13.123
32894W        W 4423  12.699  35.544  12.027
32895W        W 4424  38.903  18.521  13.348
32896W        W 4425   4.132  43.433  12.792
32897W        W 4426  24.744  32.932   2.641
32898W        W 4427  23.297   7.206   4.427
32899W        W 4428  24.402  36.112   3.709
32900W        W 4429  43.515   6.829  12.303
32901W        W 4430  39.976   7.292  11.629
32902W        W 4431  14.115  33.288   4.104
32903W        W 4432  10.683  21.164   2.682
32904W        W 4433   5.709  25.628   2.367
32905W        W 4434  37.127  20.003  10.729
32906W        W 4435   0.367  42.922   0.042
32907W        W 4436  40.728  36.744  10.935
32908W        W 4437   3.411  25.206  10.001
32909W        W 4438  34.732  41.317   3.017
32910W        W 4439  11.262   1.513  12.039
32911W        W 4440  29.706  32.387  11.150
32912W        W 4441  13.644  26.636   0.500
32913W        W 4442   8.685  44.929  14.367
32914W        W 4443  43.909  15.665  10.514
32915W        W 4444  20.293   0.934  13.514
32916W        W 4445   7.645  36.498   1.285
32917W        W 4446  37.533   8.453  13.893
32918W        W 4447  26.672  26.607   4.855
32919W        W 4448   1.116  22.595  10.453
32920W        W 4449  26.873   2.852  14.863
32921W        W 4450   5.739  43.939  13.745
32922W        W 4451   0.277  35.529   1.191
32923W        W 4452   5.193  14.868   1.330
32924W        W 4453  29.401  26.495   5.047
32925W        W 4454  14.090  40.122   3.687
32926W        W 4455  15.185  33.631  13.875
32927W        W 4456  30.701   9.584  13.570
32928W        W 4457  23.466   8.163  11.996
32929W        W 4458  17.849  25.880  14.868
32930W        W 4459  43.015  10.161   3.230
32931W        W 4460  30.219  14.700  11.577
32932W        W 4461  27.790  21.384   1.825
32933W        W 4462  11.794  16.970   2.314
32934W        W 4463   5.971   5.293  14.076
32935W        W 4464   9.316  41.115  12.600
32936W        W 4465  11.541  31.009  14.489
32937W        W 4466  36.244  34.918  12.008
32938W        W 4467   0.649  44.801   3.184
32939W        W 4468  42.338  29.239   0.366
32940W        W 4469  34.122  12.594  11.566
32941W        W 4470   9.209  25.455   3.621
32942W        W 4471   6.182  19.608  13.024
32943W        W 4472   6.336  35.478  12.703
32944W        W 4473  34.024  42.343   4.626
32945W        W 4474  39.837  13.454   3.320
32946W        W 4475  42.903  14.598  14.271
32947W        W 4476   9.404  19.957   0.976
32948W        W 4477  32.058  36.433  13.937
32949W        W 4478  14.764  33.289   1.474
32950W        W 4479  25.534  11.295  13.008
32951W        W 4480   3.866  31.351   4.254
32952W        W 4481  34.449  24.623  10.571
32953W        W 4482  42.535   4.794  11.676
32954W        W 4483  28.985  33.336   4.390
32955W        W 4484  35.940  18.909   1.953
32956W        W 4485  23.801  43.841   3.124
32957W        W 4486  22.722  28.675  10.042
32958W        W 4487  35.106  34.382   3.178
32959W        W 4488  20.674  22.911  12.042
32960W        W 4489  27.635  29.598   3.075
32961W        W 4490  25.925   6.115   0.496
32962W        W 4491  15.190  25.501   1.750
32963W        W 4492  42.334  23.571   2.815
32964W        W 4493  37.128  23.077   3.625
32965W        W 4494  16.260  13.990  12.907
32966W        W 4495  16.792   5.181  12.997
32967W        W 4496  25.154   6.396   1.217
32968W        W 4497  19.121   5.019   4.067
32969W        W 4498  22.309  29.011   2.743
32970W        W 4499  25.482  14.053   4.163
32971W        W 4500   3.340  33.233  12.009
32972W        W 4501   5.221  23.728   1.857
32973W        W 4502  37.677   0.066   0.841
32974W        W 4503   5.315  15.181  12.914
32975W        W 4504   6.288  44.922  10.469
32976W        W 4505   8.725  22.928  11.556
32977W        W 4506  27.751  35.657   0.850
32978W        W 4507   4.969   9.782   3.611
32979W        W 4508   0.694  24.043  12.431
32980W        W 4509  16.945   1.728   2.461
32981W        W 4510  28.242  32.457  11.833
32982W        W 4511  37.136  40.613   4.551
32983W        W 4512  28.711  27.409   2.769
32984W        W 4513   7.073  28.918  14.364
32985W        W 4514  21.165  36.487   5.054
32986W        W 4515  33.833  13.262   2.772
32987W        W 4516   9.287  44.355   3.463
32988W        W 4517   4.662  25.229  11.657
32989W        W 4518  34.658  30.979   0.323
32990W        W 4519  42.753  25.436  10.966
32991W        W 4520  41.426  27.945  11.565
32992W        W 4521  42.213   8.626   2.767
32993W        W 4522  43.245  33.264   3.369
32994W        W 4523  17.427  17.297   5.184
32995W        W 4524  34.414  32.701  11.141
32996W        W 4525  17.796  23.783  13.335
32997W        W 4526   1.527  41.854   0.007
32998W        W 4527   7.148  13.157   3.165
32999W        W 4528  11.571  32.097  12.452
33000W        W 4529  13.631  20.724  14.015
33001W        W 4530  13.196   4.753  12.627
33002W        W 4531  27.917   1.513  10.627
33003W        W 4532  19.753   8.737  13.385
33004W        W 4533  40.990  26.668  10.699
33005W        W 4534  44.705  34.354  12.116
33006W        W 4535  23.669  31.025  10.691
33007W        W 4536  33.319  40.262  13.565
33008W        W 4537  25.586  17.472   2.328
33009W        W 4538   4.118  44.941   2.808
33010W        W 4539   8.355  18.983   0.274
33011W        W 4540   4.843  42.766   1.677
33012W        W 4541  25.042  18.999  11.557
33013W        W 4542  14.271  35.852   1.450
33014W        W 4543  19.687   3.942   0.444
33015W        W 4544  20.473  19.045  14.026
33016W        W 4545  30.923  28.151  12.894
33017W        W 4546  36.436  25.897  13.479
33018W        W 4547  23.952   2.196  14.895
33019W        W 4548  11.713   7.197   4.577
33020W        W 4549  25.084   2.364  14.774
33021W        W 4550  36.755  13.721   3.076
33022W        W 4551  41.335   8.278  13.075
33023W        W 4552  37.779  20.065   4.171
33024W        W 4553  11.773  19.055  12.873
33025W        W 4554  36.680  14.684  13.890
33026W        W 4555  43.049  19.632  10.262
33027W        W 4556  28.228  30.241   4.783
33028W        W 4557  33.777  10.605  10.989
33029W        W 4558  42.433  39.082   4.626
33030W        W 4559  22.751  26.728   3.275
33031W        W 4560  15.811  31.020   2.905
33032W        W 4561  31.735  39.638  12.331
33033W        W 4562  44.941  26.181   4.427
33034W        W 4563   3.713  25.041   2.470
33035W        W 4564  24.297  16.672   3.639
33036W        W 4565   0.081  15.303  13.115
33037W        W 4566  21.339  10.641  11.972
33038W        W 4567  20.705  39.782   3.658
33039W        W 4568  33.526  37.596   2.676
33040W        W 4569   6.514  19.630   3.739
33041W        W 4570  11.381   9.634   0.321
33042W        W 4571  44.879  21.455   2.210
33043W        W 4572  30.496  18.260   4.634
33044W        W 4573   1.481   0.016   0.543
33045W        W 4574  30.175   0.021  12.218
33046W        W 4575  19.309  23.139  12.446
33047W        W 4576  43.430  15.342  13.537
33048W        W 4577   0.947  32.691   1.333
33049W        W 4578  22.197  36.167   1.359
33050W        W 4579  28.851  40.736  12.009
33051W        W 4580  24.536  25.309   4.613
33052W        W 4581  29.392  31.003   4.627
33053W        W 4582  44.215  23.757   3.647
33054W        W 4583   4.785  37.717  13.435
33055W        W 4584  16.750  29.929   2.749
33056W        W 4585   9.707  39.407  10.681
33057W        W 4586  12.308  39.384   4.140
33058W        W 4587  40.331  38.954   4.050
33059W        W 4588  35.656  22.586  12.476
33060W        W 4589   0.449  42.776   1.017
33061W        W 4590   2.320  29.208  13.312
33062W        W 4591  24.087  36.160   3.240
33063W        W 4592  29.140   7.372   1.028
33064W        W 4593  26.564  23.409   3.330
33065W        W 4594   4.151  40.448  10.762
33066W        W 4595  16.109  30.423   4.584
33067W        W 4596   1.300  17.077  13.409
33068W        W 4597  16.859  22.018   3.371
33069W        W 4598  21.092  20.693   4.325
33070W        W 4599  10.361   2.909   2.879
33071W        W 4600  30.660  15.729   2.814
33072W        W 4601  28.555  40.624   3.333
33073W        W 4602  26.967   5.738   1.736
33074W        W 4603  39.886   3.727  14.491
33075W        W 4604   4.083   3.199  10.560
33076W        W 4605   8.618   7.947  11.787
33077W        W 4606  42.507   5.858  10.596
33078W        W 4607   6.827   4.070   1.417
33079W        W 4608  41.480  18.859   0.992
33080W        W 4609  28.043  43.323   4.621
33081W        W 4610  37.964  27.511  12.623
33082W        W 4611  30.365  37.179  10.806
33083W        W 4612  29.618  15.101  12.399
33084W        W 4613   7.692  31.111   4.183
33085W        W 4614  34.852   8.800   0.954
33086W        W 4615   8.777  21.843  14.163
33087W        W 4616  29.308  25.653  11.536
33088W        W 4617  26.118  35.361   1.315
33089W        W 4618  19.318  40.614   2.271
33090W        W 4619  22.451  27.171  10.627
33091W        W 4620  28.474  42.567   4.171
33092W        W 4621  30.742   9.404   3.744
33093W        W 4622   5.254  23.478   0.791
33094W        W 4623  25.502  44.756  13.939
33095W        W 4624  11.794  32.999   4.378
33096W        W 4625  17.962  23.604  12.498
33097W        W 4626  29.385  19.826  12.944
33098W        W 4627  33.101  28.447   1.249
33099W        W 4628  28.702  22.122   3.372
33100W        W 4629  32.545  39.733  14.409
33101W        W 4630  20.181  44.447   2.211
33102W        W 4631  34.309   3.493   4.564
33103W        W 4632  28.892  15.919   3.207
33104W        W 4633  12.081  15.112   2.324
33105W        W 4634  17.263  36.461   4.395
33106W        W 4635  34.301  21.230   4.569
33107W        W 4636  23.929  19.185   0.715
33108W        W 4637  22.808   7.620   2.726
33109W        W 4638  36.520   0.680  11.310
33110W        W 4639  26.841  38.322   4.170
33111W        W 4640  26.684  12.411  12.490
33112W        W 4641   5.725  40.446   3.865
33113W        W 4642  24.936  44.699  14.389
33114W        W 4643  27.725  13.180   3.763
33115W        W 4644   3.445  30.448  12.429
33116W        W 4645   0.376  11.621   1.314
33117W        W 4646  39.960  28.500   0.418
33118W        W 4647  34.596  24.662  14.426
33119W        W 4648  37.280  28.514   3.637
33120W        W 4649   0.677  24.533   3.258
33121W        W 4650  42.990  15.275   3.858
33122W        W 4651  29.719  31.387   5.311
33123W        W 4652   7.753  18.741   1.757
33124W        W 4653   5.289  16.925  10.680
33125W        W 4654  23.152  42.707  13.936
33126W        W 4655  26.130  38.110   0.433
33127W        W 4656   1.861  17.946   4.191
33128W        W 4657  11.808  20.602  13.805
33129W        W 4658  43.371  11.830  15.000
33130W        W 4659  15.896   9.592  11.319
33131W        W 4660  33.946  28.031  12.895
33132W        W 4661   9.757  13.301   0.682
33133W        W 4662  16.871  36.878  12.459
33134W        W 4663  23.146   6.436   2.607
33135W        W 4664  19.674  42.043   4.047
33136W        W 4665  14.700  13.139  10.681
33137W        W 4666   0.989  24.946   1.168
33138W        W 4667   1.033  34.763  10.848
33139W        W 4668   6.972   8.473  12.035
33140W        W 4669   8.763  22.741   0.484
33141W        W 4670  44.296  29.148   1.736
33142W        W 4671   4.295   0.375  10.691
33143W        W 4672  22.649  31.926   2.740
33144W        W 4673  13.893  20.698  14.950
33145W        W 4674  12.336  39.918  12.774
33146W        W 4675  38.768  33.960   1.290
33147W        W 4676  35.471  17.210   2.347
33148W        W 4677  18.776  17.128  11.891
33149W        W 4678  35.988   2.289   3.882
33150W        W 4679  37.286   1.614  10.794
33151W        W 4680  27.898  44.786  11.523
33152W        W 4681   7.257  21.026  14.020
33153W        W 4682  21.298  35.841  12.435
33154W        W 4683  16.143  12.033   3.173
33155W        W 4684   2.317  19.213  12.270
33156W        W 4685  27.101  21.732  11.157
33157W        W 4686   4.000  24.701  11.687
33158W        W 4687   0.291  26.740   4.150
33159W        W 4688  20.487  16.718  13.941
33160W        W 4689  25.925  29.350   0.849
33161W        W 4690  30.098   2.919   3.778
33162W        W 4691  18.081  28.468   2.576
33163W        W 4692  27.058   7.826   3.254
33164W        W 4693  18.348   8.338   3.254
33165W        W 4694  44.179  33.033  11.095
33166W        W 4695  44.433  28.678   1.240
33167W        W 4696   2.565  44.464  14.280
33168W        W 4697  18.733  11.817   0.019
33169W        W 4698   4.298   6.492   2.849
33170W        W 4699  44.570  37.989   0.163
33171W        W 4700  25.934  17.778  14.316
33172W        W 4701   0.244  13.116  14.555
33173W        W 4702  41.717   6.173   1.265
33174W        W 4703  21.677   7.751  10.753
33175W        W 4704  21.901  43.348   1.441
33176W        W 4705  15.507  40.503  14.920
33177W        W 4706   0.480  24.573   2.772
33178W        W 4707  23.116   5.252   0.024
33179W        W 4708  32.757  30.886  12.801
33180W        W 4709  32.875  10.170  12.455
33181W        W 4710  23.391  35.879   3.564
33182W        W 4711  26.776  11.738  11.942
33183W        W 4712   0.424  28.741   1.321
33184W        W 4713  39.941   0.603   1.713
33185W        W 4714  33.991   0.238   4.513
33186W        W 4715  43.851  15.567  13.860
33187W        W 4716  29.084  36.879   1.300
33188W        W 4717  24.723  38.879   4.577
33189W        W 4718  12.008  42.794   1.380
33190W        W 4719   4.040  14.993   1.678
33191W        W 4720   5.928  28.668   4.276
33192W        W 4721  16.830  25.091   0.167
33193W        W 4722  14.082  19.545   2.678
33194W        W 4723   5.845   0.726   4.318
33195W        W 4724  29.413  40.699  13.002
33196W        W 4725   0.781  31.537  12.513
33197W        W 4726   1.356  23.566   3.647
33198W        W 4727  37.006  12.131   2.275
33199W        W 4728  17.587  40.056  11.099
33200W        W 4729   1.458  41.918   1.030
33201W        W 4730  11.629  39.257  14.479
33202W        W 4731  43.288  41.405  11.460
33203W        W 4732   1.507   1.677  14.065
33204W        W 4733  41.535  25.611  10.754
33205W        W 4734   6.159  44.297   3.778
33206W        W 4735  21.025  38.123  12.512
33207W        W 4736   5.389  11.474   4.692
33208W        W 4737  30.850  13.387  14.700
33209W        W 4738  14.071   7.914   4.807
33210W        W 4739  26.986   1.383  13.439
33211W        W 4740  14.265  17.243   4.538
33212W        W 4741  36.951  14.561  12.163
33213W        W 4742   7.907  25.681   0.736
33214W        W 4743  40.790  33.453  13.834
33215W        W 4744  22.690  30.969  14.966
33216W        W 4745  29.609  11.006   4.556
33217W        W 4746  28.531  17.020  12.011
33218W        W 4747  24.491   7.691  14.950
33219W        W 4748  33.943   5.151   4.285
33220W        W 4749  21.718  32.609   3.479
33221W        W 4750  44.180   3.027  14.943
33222W        W 4751   8.743   4.562  13.178
33223W        W 4752   6.619   3.721   2.818
33224W        W 4753  15.230  19.458   5.164
33225W        W 4754  33.485   5.182   1.698
33226W        W 4755  29.073  27.839  14.570
33227W        W 4756  10.197   3.313  14.857
33228W        W 4757  14.679  39.806   2.187
33229W        W 4758  36.373  27.467  12.974
33230W        W 4759  15.088   0.496   0.292
33231W        W 4760  14.563  17.693  14.434
33232W        W 4761  12.335  41.998  14.173
33233W        W 4762  10.903  16.003   4.555
33234W        W 4763  16.174  16.749  14.936
33235W        W 4764   1.057  33.034  10.797
33236W        W 4765  11.223  28.215   4.893
33237W        W 4766  44.168   4.349   4.662
33238W        W 4767  22.078  10.713  12.645
33239W        W 4768   3.323  14.074  10.999
33240W        W 4769  18.652  26.862  11.971
33241W        W 4770  18.270  27.736   1.933
33242W        W 4771  33.066  27.136  13.350
33243W        W 4772  15.066  27.894   1.737
33244W        W 4773  12.078  20.276  13.494
33245W        W 4774  18.234   8.638   0.851
33246W        W 4775  35.787  40.447   0.928
33247W        W 4776   1.971  34.008  13.447
33248W        W 4777  11.407  30.534   3.747
33249W        W 4778  28.030  33.879   0.876
33250W        W 4779  28.966   2.961  12.462
33251W        W 4780  14.197   8.881  14.290
33252W        W 4781  11.855  41.933  14.878
33253W        W 4782  39.028  33.381  14.794
33254W        W 4783  22.488   6.220   2.449
33255W        W 4784  18.475  42.802   4.564
33256W        W 4785  22.747  19.675  11.584
33257W        W 4786   6.316  36.384   2.060
33258W        W 4787   8.313  17.804  11.498
33259W        W 4788  24.916   4.924  11.146
33260W        W 4789   1.991   3.660   1.294
33261W        W 4790  35.248  43.910  14.713
33262W        W 4791  11.248   9.136  10.307
33263W        W 4792  11.075  32.021  12.500
33264W        W 4793   1.883   0.234  13.526
33265W        W 4794   1.328  10.337   0.795
33266W        W 4795  35.313  32.666  11.619
33267W        W 4796  37.938  36.830  12.447
33268W        W 4797  23.869  37.906  12.550
33269W        W 4798  15.388  26.971   1.936
33270W        W 4799  31.080  31.472  11.462
33271W        W 4800  42.521  44.669  12.879
33272W        W 4801  16.174  36.984  11.490
33273W        W 4802   9.839  14.860   2.974
33274W        W 4803   9.264   4.617   4.541
33275W        W 4804  24.162   4.493  14.321
33276W        W 4805  29.504  20.219   2.894
33277W        W 4806  15.131  25.556   2.679
33278W        W 4807  20.504  27.935   4.176
33279W        W 4808  14.232  11.739  10.693
33280W        W 4809  20.253  28.876  11.230
33281W        W 4810  22.857  14.996  12.725
33282W        W 4811  23.444  12.464   3.258
33283W        W 4812  35.481  15.710  13.400
33284W        W 4813  39.482  42.580   3.331
33285W        W 4814  17.898  31.023   0.142
33286W        W 4815   9.539   5.229   2.369
33287W        W 4816   3.462  18.257  14.068
33288W        W 4817  14.086   9.915  10.245
33289W        W 4818  20.750  43.886   2.478
33290W        W 4819  26.900  27.003   1.344
33291W        W 4820   7.164  30.131   2.371
33292W        W 4821  41.517  17.241   2.493
33293W        W 4822  22.988  35.890  11.938
33294W        W 4823  25.471  19.665  12.940
33295W        W 4824  30.029  40.764  10.556
33296W        W 4825  43.433  17.809   3.295
33297W        W 4826  24.282  33.813   4.217
33298W        W 4827  12.050  20.886   1.291
33299W        W 4828  39.001  29.146   1.835
33300W        W 4829   6.351  36.944  14.633
33301W        W 4830  22.298  14.859  14.594
33302W        W 4831  44.347  28.846   2.853
33303W        W 4832   6.888  21.207  12.168
33304W        W 4833  28.634  33.938   1.000
33305W        W 4834  19.067  36.462  11.794
33306W        W 4835  29.730  14.591   4.228
33307W        W 4836   2.755  19.680  11.677
33308W        W 4837  32.412  11.366  10.600
33309W        W 4838   0.730  13.766   4.312
33310W        W 4839  12.194  30.929  12.886
33311W        W 4840  32.463   4.892  10.757
33312W        W 4841  12.741  31.203  13.432
33313W        W 4842  11.010  40.795   2.739
33314W        W 4843  41.275  27.623   1.955
33315W        W 4844   5.470  27.208   1.845
33316W        W 4845  24.420  37.181  14.814
33317W        W 4846  27.812  37.105  10.403
33318W        W 4847   9.276  19.061   1.444
33319W        W 4848  41.023   6.480   2.793
33320W        W 4849   1.025   8.945  12.619
33321W        W 4850  10.190  40.454   4.016
33322W        W 4851  22.546  32.535  10.694
33323W        W 4852  26.965  17.790   3.687
33324W        W 4853  17.130  25.041   1.907
33325W        W 4854  32.227   3.820  12.672
33326W        W 4855  34.611  25.015  11.440
33327W        W 4856  24.968  20.607  13.050
33328W        W 4857   8.234  33.592   1.833
33329W        W 4858  32.682   4.367   1.490
33330W        W 4859  33.169  35.112  14.959
33331W        W 4860  32.865  32.981   1.501
33332W        W 4861  19.568  22.638  10.779
33333W        W 4862  25.525  34.544   4.214
33334W        W 4863  15.081   4.875  12.336
33335W        W 4864  36.496  22.555  12.869
33336W        W 4865   0.436  32.857  12.531
33337W        W 4866  39.359  19.537   3.834
33338W        W 4867  43.283   2.029  12.156
33339W        W 4868  22.921  43.830   0.944
33340W        W 4869  29.819  11.617  14.335
33341W        W 4870  34.061  12.091   0.062
33342W        W 4871  28.528  41.768   0.888
33343W        W 4872  28.479  40.755  11.149
33344W        W 4873  15.718  40.331  11.058
33345W        W 4874  21.578   2.336   2.951
33346W        W 4875  44.824  43.372   1.178
33347W        W 4876  35.006  40.930   0.741
33348W        W 4877   3.802   8.312   2.727
33349W        W 4878  22.667  31.866  12.441
33350W        W 4879  39.379  38.796   2.409
33351W        W 4880  14.061  32.926   2.215
33352W        W 4881  36.378  29.273  10.685
33353W        W 4882  15.755  11.458   3.623
33354W        W 4883  14.633  17.836  13.443
33355W        W 4884  11.098  36.914  14.294
33356W        W 4885  16.281   5.860   0.502
33357W        W 4886  27.693   7.244  12.878
33358W        W 4887  12.003  39.448   2.137
33359W        W 4888  15.678  35.756   5.144
33360W        W 4889   6.800   7.940   1.305
33361W        W 4890  17.717  31.449   0.424
33362W        W 4891  10.338  14.862   0.338
33363W        W 4892  19.597   5.402  13.278
33364W        W 4893  19.192   9.352  10.702
33365W        W 4894  27.502  25.394  11.535
33366W        W 4895  14.591  24.579  12.811
33367W        W 4896   5.705   5.624  11.582
33368W        W 4897  16.047  32.837  14.310
33369W        W 4898  24.501  20.137  12.300
33370W        W 4899  25.482   9.589   2.433
33371W        W 4900  23.019  33.387  10.857
33372W        W 4901  43.283   3.487   0.651
33373W        W 4902   6.160   4.677  10.744
33374W        W 4903  13.460  31.187   4.780
33375W        W 4904  30.308  35.524   2.153
33376W        W 4905   2.260  27.439  14.495
33377W        W 4906  33.710  19.735   4.597
33378W        W 4907  42.516  28.710  13.043
33379W        W 4908  16.067  33.021   0.209
33380W        W 4909  39.392   3.730  11.497
33381W        W 4910   3.938  16.245  10.717
33382W        W 4911  38.399  21.853   0.683
33383W        W 4912  28.198   2.086   3.719
33384W        W 4913  18.511  22.756   0.399
33385W        W 4914   4.511  24.257  14.954
33386W        W 4915  44.089  42.995   2.224
33387W        W 4916  15.639  10.576   0.343
33388W        W 4917  42.598   1.915  11.571
33389W        W 4918   0.306  37.823  11.933
33390W        W 4919   4.689   3.688  11.013
33391W        W 4920  42.558   1.697   0.425
33392W        W 4921  13.841  44.461   1.383
33393W        W 4922  23.108  31.985  13.217
33394W        W 4923  38.312  25.148   1.933
33395W        W 4924  17.259  23.563  14.433
33396W        W 4925  41.221  32.733  14.555
33397W        W 4926  26.598  17.099  11.546
33398W        W 4927  44.688  25.885  10.498
33399W        W 4928  40.564  14.061   3.235
33400W        W 4929  18.201  13.408  10.744
33401W        W 4930   6.783  37.143   4.573
33402W        W 4931  24.131  21.070   0.274
33403W        W 4932  36.316   3.269  11.284
33404W        W 4933   9.757  42.958  14.429
33405W        W 4934  40.570  30.878   0.786
33406W        W 4935   7.940  21.753   3.751
33407W        W 4936  10.808   1.782  12.028
33408W        W 4937  35.802  40.095  12.163
33409W        W 4938  14.831  30.381  11.576
33410W        W 4939  32.018  21.374  13.342
33411W        W 4940  38.078   4.200  12.919
33412W        W 4941  25.738  20.085   3.607
33413W        W 4942  30.465  17.079   4.002
33414W        W 4943  21.435   5.274   3.155
33415W        W 4944  41.214  15.982   3.961
33416W        W 4945  16.143  16.078   3.841
33417W        W 4946   2.265  15.631   0.593
33418W        W 4947  21.933  43.837  11.070
33419W        W 4948   4.749  26.862   3.415
33420W        W 4949  27.446   9.639  13.950
33421W        W 4950  40.794  39.107   4.277
33422W        W 4951  24.494   3.189  13.794
33423W        W 4952   0.529   9.727   4.794
33424W        W 4953  17.405  25.048  11.207
33425W        W 4954  24.181  26.415   2.337
33426W        W 4955  43.719   4.249  13.172
33427W        W 4956  26.712  10.440   3.754
33428W        W 4957  36.979  24.512   3.219
33429W        W 4958   5.857  26.524  12.198
33430W        W 4959  33.869  27.033   1.750
33431W        W 4960   9.776  24.510   2.626
33432W        W 4961  27.692  13.284   2.885
33433W        W 4962  33.298   7.329   3.738
33434W        W 4963  44.944  33.045   1.220
33435W        W 4964   4.240  26.277  11.228
33436W        W 4965  23.766  15.721  13.578
33437W        W 4966  22.578  31.684  10.669
33438W        W 4967  24.717  37.969   3.348
33439W        W 4968  13.199  27.377  14.300
33440W        W 4969  28.002   9.134   2.359
33441W        W 4970   8.967  14.776  14.353
33442W        W 4971  30.496  40.887  13.982
33443W        W 4972  26.991  37.416  14.393
33444W        W 4973   6.236  29.514   0.529
33445W        W 4974  24.872  40.060  12.322
33446W        W 4975  38.066  27.015   2.390
33447W        W 4976  28.430  18.259  13.458
33448W        W 4977   0.451  11.702  12.937
33449W        W 4978   3.495  41.026   0.896
33450W        W 4979  28.344  26.659   2.275
33451W        W 4980   1.216  21.134  11.096
33452W        W 4981  35.652   3.770  12.863
33453W        W 4982   2.945   5.426  10.948
33454W        W 4983  43.545  40.689   2.929
33455W        W 4984  15.848  34.820   0.831
33456W        W 4985  33.810  31.908  12.495
33457W        W 4986  41.349  29.407  14.506
33458W        W 4987  38.376  12.705   0.750
33459W        W 4988  13.428   3.734  13.557
33460W        W 4989  22.059   3.644  13.440
33461W        W 4990  42.488  39.461  14.432
33462W        W 4991   1.350  10.596  11.560
33463W        W 4992  44.593  38.494  12.975
33464W        W 4993   0.680  36.667   4.660
33465W        W 4994   8.953  36.975  12.467
33466W        W 4995  10.867  26.599  10.561
33467W        W 4996   0.957   3.409   3.331
33468W        W 4997  21.946  30.157  13.023
33469W        W 4998  24.987  42.453   1.685
33470W        W 4999  12.725  34.783   3.617
33471W        W 5000  23.014  16.703   0.053
33472W        W 5001  40.368   5.820   0.715
33473W        W 5002   9.281  30.619   1.430
33474W        W 5003  32.231   9.771  14.469
33475W        W 5004  13.591  24.539  10.727
33476W        W 5005  44.523  44.758   3.028
33477W        W 5006  14.655  43.457  14.858
33478W        W 5007  18.373  33.973  14.619
33479W        W 5008  41.033  25.611   3.116
33480W        W 5009  37.539  12.788  12.898
33481W        W 5010  37.505  24.388  10.454
33482W        W 5011  41.441  22.058   4.799
33483W        W 5012  30.714  39.992  13.085
33484W        W 5013  37.928  19.367   0.205
33485W        W 5014   5.568  13.189   4.089
33486W        W 5015  27.550  22.408  14.423
33487W        W 5016  15.671  33.672   3.568
33488W        W 5017   5.832   5.744  14.286
33489W        W 5018  32.934  31.865   0.353
33490W        W 5019  17.798  31.724  14.612
33491W        W 5020  42.960   6.832   2.008
33492W        W 5021  38.524  34.506  10.998
33493W        W 5022  25.813  27.212   0.321
33494W        W 5023  10.134  43.422   1.404
33495W        W 5024  22.263  33.020  12.818
33496W        W 5025  17.635  10.304   1.604
33497W        W 5026  43.598  25.558   3.931
33498W        W 5027  12.357   1.245  11.166
33499W        W 5028   4.933  29.848   4.565
33500W        W 5029  19.436   0.314  10.194
33501W        W 5030  12.599  33.848   2.712
33502W        W 5031  25.663  40.706  11.584
33503W        W 5032  27.037  19.292   1.920
33504W        W 5033   1.287  28.477  11.039
33505W        W 5034  30.649  12.804   2.830
33506W        W 5035  39.320  30.423   4.132
33507W        W 5036  43.058  36.069   3.808
33508W        W 5037  21.183  11.608  11.908
33509W        W 5038  30.436  42.353  12.407
33510W        W 5039  22.107  44.528   0.817
33511W        W 5040  35.794  34.161   3.094
33512W        W 5041  18.601  33.419  13.342
33513W        W 5042  29.812  17.152  12.412
33514W        W 5043  23.312  37.016   4.154
33515W        W 5044  41.080   4.500  13.967
33516W        W 5045   3.004   2.449  12.927
33517W        W 5046  26.042  32.950  11.556
33518W        W 5047  19.092  25.514   1.955
33519W        W 5048   8.717   6.350   2.608
33520W        W 5049  26.604  35.897   0.212
33521W        W 5050  34.294   7.324   3.778
33522W        W 5051  28.056  20.196  14.482
33523W        W 5052  20.406  32.652   1.418
33524W        W 5053  25.955  18.640  12.082
33525W        W 5054   8.004  36.906  14.450
33526W        W 5055  13.196  43.263  11.102
33527W        W 5056  18.562  40.571  12.467
33528W        W 5057  42.357  40.936  10.321
33529W        W 5058  30.753  22.268  11.192
33530W        W 5059   8.439  39.324  12.585
33531W        W 5060  30.626  18.783   0.430
33532W        W 5061  12.190  22.256   1.307
33533W        W 5062  23.691  15.584  14.870
33534W        W 5063  14.061  43.220  12.468
33535W        W 5064  31.519  33.544  13.483
33536W        W 5065  14.579   1.071  11.583
33537W        W 5066  27.228   3.781   3.377
33538W        W 5067  41.865   4.059   2.586
33539W        W 5068  10.630   7.117  10.778
33540W        W 5069  28.181  27.570  11.515
33541W        W 5070   7.910  13.290  12.899
33542W        W 5071  44.282  23.568   4.428
33543W        W 5072   5.417  25.635  10.687
33544W        W 5073   5.413  17.331  13.911
33545W        W 5074  16.748  10.631  14.388
33546W        W 5075   7.297  12.719  13.451
33547W        W 5076  39.377   8.815  10.649
33548W        W 5077   0.210   8.398  13.893
33549W        W 5078  26.401  41.855  10.817
33550W        W 5079  30.668  32.667  11.144
33551W        W 5080  37.435  31.827   2.431
33552W        W 5081  31.204  11.166  13.040
33553W        W 5082  27.865  40.510   2.707
33554W        W 5083   6.599   7.364   2.242
33555W        W 5084  12.757  28.194  14.048
33556W        W 5085  26.875  21.140  12.712
33557W        W 5086  14.252   8.380   1.935
33558W        W 5087  26.346  29.907  11.142
33559W        W 5088  18.140  14.733   2.601
33560W        W 5089  19.254  19.081  14.461
33561W        W 5090  28.080  23.047  10.778
33562W        W 5091   1.509   3.605  15.000
33563W        W 5092  21.051  20.806   2.841
33564W        W 5093  24.594  36.161  14.380
33565W        W 5094  25.737  13.622  11.996
33566W        W 5095   2.884  36.371   2.957
33567W        W 5096  13.333   8.771  14.925
33568W        W 5097  16.044   1.072   2.790
33569W        W 5098  30.990  28.141  14.426
33570W        W 5099  26.182  33.921   4.129
33571W        W 5100  23.686  33.271   1.790
33572W        W 5101  29.876  14.232   2.607
33573W        W 5102  34.225  42.921  13.391
33574W        W 5103  33.791   7.769   2.262
33575W        W 5104  38.352  41.903   0.884
33576W        W 5105  44.340   1.456   4.245
33577W        W 5106  20.055  17.351  14.854
33578W        W 5107  14.855  30.020   4.169
33579W        W 5108  12.933  11.550  13.843
33580W        W 5109  22.613   0.171  11.914
33581W        W 5110  17.853  20.620   1.732
33582W        W 5111  25.596  18.642  10.747
33583W        W 5112  25.036  27.000   2.845
33584W        W 5113   5.227   5.907  12.436
33585W        W 5114   4.506  40.366   0.293
33586W        W 5115  19.158  33.582   0.946
33587W        W 5116   1.764  11.920  13.954
33588W        W 5117  35.443  28.148  13.969
33589W        W 5118  37.021   0.535  12.969
33590W        W 5119  43.283  35.622   2.934
33591W        W 5120  13.622  14.857   0.403
33592W        W 5121  28.651  24.482  14.245
33593W        W 5122  10.963  37.962   2.745
33594W        W 5123  33.476  18.690   2.813
33595W        W 5124  11.881   8.789   1.381
33596W        W 5125  11.691  16.341   1.827
33597W        W 5126   6.616  37.083  11.613
33598W        W 5127  11.107  13.218  12.929
33599W        W 5128  44.085  42.533   1.927
33600W        W 5129  37.009  43.828   1.798
33601W        W 5130   3.155   8.812   5.097
33602W        W 5131  14.165   4.580  12.570
33603W        W 5132  15.581   4.381  12.455
33604W        W 5133   4.134  28.422   3.624
33605W        W 5134  22.571  33.457   0.370
33606W        W 5135   9.176  40.764   3.692
33607W        W 5136  32.351  15.664   3.619
33608W        W 5137  18.688  44.524  12.443
33609W        W 5138  22.472  30.015  14.856
33610W        W 5139  35.453   5.355   0.379
33611W        W 5140  44.751  22.527   1.452
33612W        W 5141  27.810  18.272  12.184
33613W        W 5142  36.419  33.547   3.401
33614W        W 5143  27.195  37.094  11.506
33615W        W 5144   7.321  30.181  12.150
33616W        W 5145  12.223  42.576  11.175
33617W        W 5146  23.009   6.173  12.024
33618W        W 5147  15.825   9.611   1.871
33619W        W 5148  11.824   8.269   3.718
33620W        W 5149  42.090  35.608  12.408
33621W        W 5150  35.045  39.317   0.859
33622W        W 5151  27.029  33.446   2.692
33623W        W 5152  12.314  10.933   1.813
33624W        W 5153  28.709   0.286   2.637
33625W        W 5154  24.892   6.933   0.517
33626W        W 5155  11.230  28.110   4.367
33627W        W 5156  13.660  11.604  12.500
33628W        W 5157  33.164  30.460   3.868
33629W        W 5158  27.919  39.317  10.657
33630W        W 5159  44.697  20.293  14.699
33631W        W 5160  39.735   2.494  12.053
33632W        W 5161  11.684  38.601   4.162
33633W        W 5162   3.420  29.852  13.774
33634W        W 5163  11.141  28.457   1.273
33635W        W 5164   8.199  16.301   2.665
33636W        W 5165  38.109  41.863  13.367
33637W        W 5166  43.312   4.970   3.446
33638W        W 5167   6.640  14.524  13.803
33639W        W 5168   6.186  44.967  12.089
33640W        W 5169  14.911  27.307  13.915
33641W        W 5170  25.737   6.651  10.708
33642W        W 5171  39.088  12.758  13.170
33643W        W 5172  27.743   9.410   0.248
33644W        W 5173  10.210   0.766  14.850
33645W        W 5174  27.123   4.266  12.007
33646W        W 5175  27.967  30.895  12.443
33647W        W 5176  11.206   5.195  13.314
33648W        W 5177  18.786   9.849  13.660
33649W        W 5178  31.220  33.957  12.916
33650W        W 5179  23.753  25.967  12.547
33651W        W 5180  26.586   7.228  10.381
33652W        W 5181   6.600  30.941   2.402
33653W        W 5182   7.845  23.151   0.383
33654W        W 5183  17.245  38.352   0.725
33655W        W 5184  35.363  24.561  10.522
33656W        W 5185   6.435  32.431  11.195
33657W        W 5186  16.234  29.442  13.878
33658W        W 5187  38.023  40.509   2.286
33659W        W 5188  37.470  28.326  12.074
33660W        W 5189  23.520  44.755   2.065
33661W        W 5190  12.886   6.566   1.330
33662W        W 5191  31.225  40.564  14.433
33663W        W 5192  44.741  41.087  11.561
33664W        W 5193  13.136  17.589   0.861
33665W        W 5194  36.149  41.432  13.864
33666W        W 5195   3.462  38.733  14.431
33667W        W 5196  44.858  43.989  11.504
33668W        W 5197  40.572  41.052  14.046
33669W        W 5198  43.873  15.379   4.225
33670W        W 5199  17.146  32.630   4.462
33671W        W 5200  15.151  22.141  14.238
33672W        W 5201   6.268  28.567  11.259
33673W        W 5202  29.041  44.244   4.673
33674W        W 5203  14.321   3.344   3.776
33675W        W 5204  31.120  28.615  10.607
33676W        W 5205   2.994  40.989  14.331
33677W        W 5206  27.448   7.862  13.582
33678W        W 5207   1.831  27.226  10.982
33679W        W 5208  37.443  10.718   3.202
33680W        W 5209  15.879   9.131   1.222
33681W        W 5210  40.011   1.838  10.734
33682W        W 5211  20.426  40.305  12.844
33683W        W 5212  44.992  14.164  13.365
33684W        W 5213   5.418  23.793  14.379
33685W        W 5214  30.395  43.356   4.076
33686W        W 5215  26.866  21.494   4.161
33687W        W 5216   4.410  37.875  14.821
33688W        W 5217  39.900   4.351  10.756
33689W        W 5218  22.279   4.877  14.397
33690W        W 5219  25.888  20.836   0.754
33691W        W 5220   8.631  28.480   2.754
33692W        W 5221  26.892   5.215   0.024
33693W        W 5222  11.372  38.121   0.907
33694W        W 5223  26.057  27.515   1.423
33695W        W 5224   6.898  11.618  11.927
33696W        W 5225   4.189   3.699  13.109
33697W        W 5226  20.051   9.305  14.189
33698W        W 5227  27.579  39.130  12.099
33699W        W 5228  39.259  38.034   1.831
33700W        W 5229   5.314  44.518  12.469
33701W        W 5230   6.169   2.396   1.163
33702W        W 5231  16.831  35.407   4.148
33703W        W 5232   1.024  29.757  10.966
33704W        W 5233  33.454  39.904   2.971
33705W        W 5234  44.021  17.127   1.709
33706W        W 5235  15.678  27.882   1.481
33707W        W 5236  17.470  14.614   3.353
33708W        W 5237  37.044  30.996  13.548
33709W        W 5238   5.659   9.230  11.491
33710W        W 5239  13.232  16.690  13.176
33711W        W 5240  39.818  28.689  12.033
33712W        W 5241  22.066   9.757   2.951
33713W        W 5242  10.399  30.691  11.157
33714W        W 5243  33.107  26.782  11.383
33715W        W 5244  39.931  42.319  11.827
33716W        W 5245  16.604  17.858   2.135
33717W        W 5246   1.406  37.449  13.873
33718W        W 5247   0.089   3.802  13.799
33719W        W 5248  13.764  25.888  11.718
33720W        W 5249  25.047  36.694   2.429
33721W        W 5250  24.530  17.474   4.680
33722W        W 5251  35.498  25.954  13.347
33723W        W 5252  29.813   1.858   5.134
33724W        W 5253  42.969  21.979  13.976
33725W        W 5254  30.549   5.183  12.155
33726W        W 5255  22.719  21.969   3.237
33727W        W 5256  36.940  36.503   0.259
33728W        W 5257  22.343  34.279   0.069
33729W        W 5258  42.421  12.220  10.605
33730W        W 5259  15.520   1.854  14.060
33731W        W 5260  12.588  15.174  12.538
33732W        W 5261  13.229  10.702  11.370
33733W        W 5262   3.974  18.635  14.783
33734W        W 5263  35.573   3.235   2.127
33735W        W 5264  43.749   5.961  13.891
33736W        W 5265  27.080  26.440  13.045
33737W        W 5266  32.553  20.271  13.408
33738W        W 5267  11.081   7.224  13.864
33739W        W 5268  19.271   5.137  13.795
33740W        W 5269  21.602   2.892  14.000
33741W        W 5270  39.817   4.756  11.661
33742W        W 5271  38.472  28.403   3.222
33743W        W 5272   8.180  24.537   1.704
33744W        W 5273   0.069  32.160   2.680
33745W        W 5274  43.801  11.863  14.396
33746W        W 5275  44.305  38.469   2.084
33747W        W 5276  35.215  35.948  13.564
33748W        W 5277   9.967  44.873  14.316
33749W        W 5278  43.282  23.265   0.437
33750W        W 5279   1.766  18.936   0.787
33751W        W 5280  41.059  24.574  12.355
33752W        W 5281   6.649  44.272   3.919
33753W        W 5282   4.381   4.529   2.808
33754W        W 5283  39.398   9.583   2.018
33755W        W 5284  17.707  24.650  11.131
33756W        W 5285  44.266  40.928  14.585
33757W        W 5286  12.724  16.233   2.175
33758W        W 5287  29.782  17.270  10.024
33759W        W 5288   5.727  41.719  13.413
33760W        W 5289  44.181   8.397  12.456
33761W        W 5290  32.590  35.505  11.698
33762W        W 5291  43.390  33.196  14.858
33763W        W 5292  25.675   9.181  13.923
33764W        W 5293  24.852   0.701   4.981
33765W        W 5294  42.025   4.207  14.084
33766W        W 5295  17.167  39.846   4.040
33767W        W 5296  42.399  35.550   1.247
33768W        W 5297  14.719  33.899  13.559
33769W        W 5298  30.512  13.896  11.125
33770W        W 5299  27.300   0.405   2.931
33771W        W 5300  18.323  16.565   1.414
33772W        W 5301  30.171  15.741   4.530
33773W        W 5302   7.974  24.928  11.510
33774W        W 5303  15.594  35.756  11.103
33775W        W 5304  23.929  22.489   1.773
33776W        W 5305  42.894  36.319  12.862
33777W        W 5306  22.009  15.861   1.682
33778W        W 5307  29.225  26.203  14.867
33779W        W 5308  41.399  30.384  13.033
33780W        W 5309  33.517  36.759   4.385
33781W        W 5310  18.320  18.713   0.881
33782W        W 5311   2.677  29.058   0.139
33783W        W 5312  15.927  27.238   2.714
33784W        W 5313  36.864   7.896  11.252
33785W        W 5314  15.500  28.484  13.499
33786W        W 5315   9.610   0.007   0.337
33787W        W 5316  38.303   3.760   4.580
33788W        W 5317  34.869  42.515  13.734
33789W        W 5318  43.929  22.615   0.749
33790W        W 5319  28.501  16.379   1.653
33791W        W 5320   3.550   4.206   4.126
33792W        W 5321  29.360  43.414   4.168
33793W        W 5322  33.828  29.626   3.756
33794W        W 5323  25.948  10.893  10.801
33795W        W 5324  28.634  27.784   0.369
33796W        W 5325  43.168  17.537   2.927
33797W        W 5326   7.621  36.522  14.562
33798W        W 5327  30.490  21.211   0.340
33799W        W 5328  35.408  39.223  11.759
33800W        W 5329   2.838  36.487  10.396
33801W        W 5330  42.869  24.497  14.863
33802W        W 5331  20.465   7.962  12.382
33803W        W 5332  30.503  24.573   0.395
33804W        W 5333   2.136  11.466   3.417
33805W        W 5334   7.489  37.096  13.863
33806W        W 5335   2.697  38.161   3.816
33807W        W 5336  24.276  29.609   1.943
33808W        W 5337  26.169   7.648   1.369
33809W        W 5338  27.471  32.343  11.446
33810W        W 5339  24.835  30.499   1.884
33811W        W 5340  36.922   7.246   0.063
33812W        W 5341   2.827  26.616  10.889
33813W        W 5342  11.088  43.345   0.367
33814W        W 5343  31.960  36.785  12.866
33815W        W 5344  43.014  21.271  11.090
33816W        W 5345   9.149   4.713  14.449
33817W        W 5346  22.812   8.721  10.803
33818W        W 5347  16.965   5.380  13.474
33819W        W 5348  31.826  41.312  14.459
33820W        W 5349   4.144   0.340   1.884
33821W        W 5350  24.240  43.472   0.411
33822W        W 5351  43.218  30.859  13.524
33823W        W 5352  29.129  26.103   4.845
33824W        W 5353   2.198  28.770   0.030
33825W        W 5354  27.109  28.085   2.635
33826W        W 5355  39.416  17.174   3.108
33827W        W 5356  14.496  20.114   3.302
33828W        W 5357  33.139   6.225   2.369
33829W        W 5358  42.443  23.534   4.558
33830W        W 5359  38.816  39.938  12.826
33831W        W 5360  16.630  24.017   5.130
33832W        W 5361   9.675   2.584  13.442
33833W        W 5362  22.212   5.703  12.113
33834W        W 5363  26.890  42.852   4.295
33835W        W 5364  21.324  34.576   4.119
33836W        W 5365  23.954  37.939  11.642
33837W        W 5366  35.024   8.127   3.269
33838W        W 5367  43.378   5.380  12.526
33839W        W 5368  29.560  17.308   2.316
33840W        W 5369  19.899  33.319   2.693
33841W        W 5370  34.046  28.872  10.708
33842W        W 5371  16.715   4.814   4.324
33843W        W 5372  29.524  37.352   4.463
33844W        W 5373  21.997   8.695   2.749
33845W        W 5374   5.486  24.115  11.147
33846W        W 5375   9.189  27.134  13.324
33847W        W 5376  11.760  16.167  12.124
33848W        W 5377  41.387  12.444  12.484
33849W        W 5378  44.329  28.479  11.117
33850W        W 5379  23.010  37.197  13.907
33851W        W 5380  37.341   9.819   3.008
33852W        W 5381  28.773   1.942   0.101
33853W        W 5382  44.903   8.823  13.744
33854W        W 5383  39.156  19.802  13.733
33855W        W 5384  25.629  42.392  13.805
33856W        W 5385   8.828  10.794  13.346
33857W        W 5386  25.704  39.072   2.390
33858W        W 5387  20.511  29.394  11.527
33859W        W 5388   3.919   7.376  11.986
33860W        W 5389  39.869  38.777   0.912
33861W        W 5390  38.105  34.376  11.248
33862W        W 5391   9.588  41.951  12.591
33863W        W 5392  22.174  37.796  14.968
33864W        W 5393  33.148   9.664  10.652
33865W        W 5394  26.750  22.746  13.044
33866W        W 5395  41.649  14.170   9.676
33867W        W 5396  13.316  22.417  10.778
33868W        W 5397  26.446   0.345   3.208
33869W        W 5398  17.806  29.614   4.121
33870W        W 5399   2.162  32.164  14.950
33871W        W 5400  23.979  18.668  12.164
33872W        W 5401  41.857  11.178   2.762
33873W        W 5402  24.453  10.492  14.308
33874W        W 5403   6.395  21.187  14.861
33875W        W 5404  39.775  16.453  10.728
33876W        W 5405  21.998  44.422   2.190
33877W        W 5406   8.460  28.392  10.955
33878W        W 5407  34.581  43.932  14.580
33879W        W 5408  27.116  34.813   4.196
33880W        W 5409  39.604   3.513  13.760
33881W        W 5410  28.710   0.507   4.377
33882W        W 5411  41.378   4.227   0.503
33883W        W 5412  22.135  38.351  11.919
33884W        W 5413   9.275   8.990  11.554
33885W        W 5414  16.139  14.109   3.684
33886W        W 5415  32.948  44.562   0.638
33887W        W 5416  42.434  18.748  11.546
33888W        W 5417  42.015  36.103  12.527
33889W        W 5418  17.348  26.784  10.210
33890W        W 5419  11.505  17.261  12.621
33891W        W 5420  16.214  31.431  12.545
33892W        W 5421  26.538  34.310   5.017
33893W        W 5422  10.295  41.328  11.712
33894W        W 5423  20.464  10.017  14.856
33895W        W 5424   5.642   7.878   2.278
33896W        W 5425  14.345  16.996   1.899
33897W        W 5426   9.817  35.510   4.879
33898W        W 5427  10.946  39.673   0.970
33899W        W 5428  24.526  37.430  13.506
33900W        W 5429   0.374  40.327  14.984
33901W        W 5430  12.805   9.259  12.676
33902W        W 5431   6.688   4.703   4.522
33903W        W 5432  11.351  43.037  10.031
33904W        W 5433  24.296  19.031  11.008
33905W        W 5434  41.894  31.146   4.823
33906W        W 5435  24.772  33.072  14.440
33907W        W 5436  44.949  22.327  12.789
33908W        W 5437  22.573  12.203  11.985
33909W        W 5438  26.586   3.511   2.848
33910W        W 5439   2.423  32.196  12.093
33911W        W 5440  16.286   8.188   3.285
33912W        W 5441  23.098  24.227   1.890
33913W        W 5442  27.507  26.230  12.857
33914W        W 5443   3.240  12.167  14.426
33915W        W 5444   8.834  18.376   3.575
33916W        W 5445  13.586  43.242  11.645
33917W        W 5446  33.702   4.491  11.070
33918W        W 5447  40.703  27.264   2.791
33919W        W 5448  28.123  43.769  12.993
33920W        W 5449  17.095  16.052  12.022
33921W        W 5450  10.623   8.432  11.659
33922W        W 5451   4.332  22.539  13.011
33923W        W 5452  10.707  27.909   0.705
33924W        W 5453  34.055  33.813   4.626
33925W        W 5454  22.210  14.575   2.341
33926W        W 5455  30.606  26.636   1.044
33927W        W 5456  39.836  26.997  12.127
33928W        W 5457  23.545  17.039  11.172
33929W        W 5458  35.553  11.641   3.617
33930W        W 5459  33.858  36.427   2.187
33931W        W 5460  27.966  14.192  12.961
33932W        W 5461  21.186   9.901   3.690
33933W        W 5462  30.153  42.315   4.200
33934W        W 5463  40.144   7.835   1.321
33935W        W 5464   5.451  19.734   0.358
33936W        W 5465  33.861  27.782  13.334
33937W        W 5466  18.539  18.306  12.629
33938W        W 5467  12.619  30.455  11.900
33939W        W 5468  30.145  10.346  14.000
33940W        W 5469   4.449  41.765  12.071
33941W        W 5470  41.002  36.839  13.791
33942W        W 5471   2.796  43.833   1.315
33943W        W 5472  20.657  33.003   1.688
33944W        W 5473  42.518  22.564   0.773
33945W        W 5474  42.548  28.974   2.780
33946W        W 5475   2.899  26.233   0.290
33947W        W 5476   2.976  44.184  14.443
33948W        W 5477   4.379   4.578  12.134
33949W        W 5478   2.684  36.974  10.513
33950W        W 5479   4.644  23.455   4.075
33951W        W 5480   4.205  39.877  14.934
33952W        W 5481   8.410  43.341   1.203
33953W        W 5482  40.816   6.708   3.210
33954W        W 5483  40.774  28.112   1.329
33955W        W 5484   0.524  25.577   2.898
33956W        W 5485  16.055   6.828   3.099
33957W        W 5486   3.432  18.064   3.391
33958W        W 5487  43.817  38.130   1.745
33959W        W 5488  25.909  19.511   1.724
33960W        W 5489  27.744  41.959   0.741
33961W        W 5490  42.252  15.179  13.315
33962W        W 5491  44.376  34.624   0.331
33963W        W 5492  43.426  26.200   2.372
33964W        W 5493  23.675  44.479  11.986
33965W        W 5494  26.481   2.772   0.264
33966W        W 5495  15.539  14.745  12.330
33967W        W 5496   8.285  21.810  14.913
33968W        W 5497  28.146  27.967   3.543
33969W        W 5498  44.544   1.142   3.373
33970W        W 5499  28.093  21.795   3.183
33971W        W 5500  26.982  38.011   0.238
33972W        W 5501   2.818  18.131   2.653
33973W        W 5502  22.164  18.677  10.498
33974W        W 5503   8.209  17.647   2.365
33975W        W 5504  24.541  27.079  12.426
33976W        W 5505  43.811  19.104  10.695
33977W        W 5506  41.014  31.125   4.333
33978W        W 5507  18.966  31.629  10.876
33979W        W 5508  35.281  25.605   2.349
33980W        W 5509  22.768  36.241  14.306
33981W        W 5510   3.099  24.657  10.673
33982W        W 5511   4.946  20.181  13.427
33983W        W 5512  28.817   9.702   4.569
33984W        W 5513  29.561  24.999  14.256
33985W        W 5514  21.868  20.639  11.676
33986W        W 5515  21.131  35.400  12.674
33987W        W 5516   8.658  26.747  14.919
33988W        W 5517  14.521   6.683  12.458
33989W        W 5518  43.042  43.272   4.212
33990W        W 5519  15.463  18.954   5.325
33991W        W 5520  20.018   0.587  12.451
33992W        W 5521  15.676  28.023  11.985
33993W        W 5522  18.893  22.747  10.189
33994W        W 5523  34.234   9.684   4.272
33995W        W 5524  24.775  40.094  14.953
33996W        W 5525  25.286  30.241   4.746
33997W        W 5526  41.523  21.605  11.165
33998W        W 5527  33.859  38.930  12.507
33999W        W 5528   8.095  14.698  12.475
34000W        W 5529   4.284   1.204   3.277
34001W        W 5530  33.353  38.014   4.929
34002W        W 5531  33.044  13.569   2.333
34003W        W 5532  30.568  26.677  13.990
34004W        W 5533  39.856  20.911  14.949
34005W        W 5534  19.139  41.537   0.253
34006W        W 5535  18.785  42.997  10.981
34007W        W 5536   9.079  33.105   1.799
34008W        W 5537  12.635  26.258   2.397
34009W        W 5538   9.011   9.542   2.901
34010W        W 5539  29.332  15.824  11.768
34011W        W 5540  31.330   6.957   2.335
34012W        W 5541  33.779   8.888  11.657
34013W        W 5542  14.931   8.721   2.342
34014W        W 5543   5.843  10.693  10.769
34015W        W 5544  17.727  34.999   1.697
34016W        W 5545   5.663  39.754   0.957
34017W        W 5546  40.793   3.337   0.259
34018W        W 5547  26.020  12.650  10.604
34019W        W 5548  42.947   0.662   1.478
34020W        W 5549   5.209  17.025  13.505
34021W        W 5550  44.870  35.413  12.459
34022W        W 5551  25.567   9.283  12.937
34023W        W 5552  35.919  21.706  12.811
34024W        W 5553  22.528  36.096  12.034
34025W        W 5554  10.703   6.867   4.725
34026W        W 5555   4.940  21.588   0.809
34027W        W 5556  10.709  13.936   2.911
34028W        W 5557  44.478  30.105   2.367
34029W        W 5558  29.570  18.155   4.553
34030W        W 5559  17.992   9.295   0.283
34031W        W 5560  11.854   9.090   2.273
34032W        W 5561   9.785  41.271  11.888
34033W        W 5562   4.365  41.514  10.966
34034W        W 5563  40.531  14.638   4.796
34035W        W 5564   4.011   7.884   3.648
34036W        W 5565  24.778  10.823   4.744
34037W        W 5566  37.054  31.908  12.832
34038W        W 5567   6.484  18.813  11.906
34039W        W 5568   5.057  22.403   0.106
34040W        W 5569   3.941   0.096  11.405
34041W        W 5570  23.547  30.882   0.036
34042W        W 5571  44.399   4.738  11.465
34043W        W 5572   3.240  32.441   3.047
34044W        W 5573  23.341  20.106   3.856
34045W        W 5574  16.164  36.920  10.800
34046W        W 5575   4.355  27.500   2.141
34047W        W 5576  10.699  39.285   2.939
34048W        W 5577  17.858   7.099   2.876
34049W        W 5578  12.607  25.200  12.372
34050W        W 5579  25.146  21.874   2.878
34051W        W 5580  27.212  19.906  11.558
34052W        W 5581   5.298   8.250  10.651
34053W        W 5582   5.322  10.720   3.262
34054W        W 5583  41.388  12.975  12.451
34055W        W 5584  34.364  39.950  11.557
34056W        W 5585  35.515  15.233  10.814
34057W        W 5586   3.585  38.389   2.303
34058W        W 5587  28.534  28.387   2.895
34059W        W 5588  35.663  21.988   0.465
34060W        W 5589  25.956  44.984   4.741
34061W        W 5590   2.024  11.476  14.551
34062W        W 5591  15.057  43.499   3.793
34063W        W 5592   2.245  25.000  10.806
34064W        W 5593  25.185   3.086   4.569
34065W        W 5594   1.930   5.923   0.006
34066W        W 5595  16.057  34.616   2.582
34067W        W 5596  44.469  37.613   2.319
34068W        W 5597  15.099   1.437  12.940
34069W        W 5598  41.879  37.371   4.833
34070W        W 5599  26.348  42.863   1.910
34071W        W 5600  19.975  14.009   3.188
34072W        W 5601  23.795  28.959  14.797
34073W        W 5602  41.112   7.357  11.048
34074W        W 5603  43.549  20.177  12.830
34075W        W 5604  34.378  15.640  14.810
34076W        W 5605  30.187   2.852  12.330
34077W        W 5606   4.072  22.614  12.555
34078W        W 5607   3.682  12.914   1.204
34079W        W 5608   0.262  28.539  12.177
34080W        W 5609   9.289  36.854   4.582
34081W        W 5610  24.264  35.057  13.918
34082W        W 5611  23.465   2.286   0.073
34083W        W 5612  30.730  12.396   1.278
34084W        W 5613  35.243  36.146   5.086
34085W        W 5614  34.934   0.610  14.806
34086W        W 5615  32.588  20.605  10.929
34087W        W 5616  43.367  25.268  12.089
34088W        W 5617  12.213   6.165  12.981
34089W        W 5618  29.461  21.733  11.554
34090W        W 5619   0.319  42.204   2.237
34091W        W 5620  34.650  36.515   4.729
34092W        W 5621  43.559  30.098   4.069
34093W        W 5622   7.231  26.699   1.348
34094W        W 5623   9.484   2.462   4.124
34095W        W 5624   1.242  35.857  10.564
34096W        W 5625  10.693  31.141  11.168
34097W        W 5626   9.122   1.243  14.370
34098W        W 5627  38.446   0.495   1.215
34099W        W 5628  19.604  18.160  11.628
34100W        W 5629  18.074  19.360  11.956
34101W        W 5630  19.214  10.092   1.368
34102W        W 5631   1.281   2.791   4.245
34103W        W 5632   6.467  43.632  11.316
34104W        W 5633  28.073  32.056  13.934
34105W        W 5634  29.484   2.479  13.536
34106W        W 5635  33.302  41.390   0.302
34107W        W 5636  17.741  12.785   4.713
34108W        W 5637  14.775  17.678   2.408
34109W        W 5638  11.973  15.344   0.809
34110W        W 5639  26.968  43.478  11.965
34111W        W 5640  36.362  10.248   4.119
34112W        W 5641  31.181  28.401   0.469
34113W        W 5642  18.654   0.426   1.901
34114W        W 5643  42.918  11.573   5.069
34115W        W 5644  10.654  29.535   0.949
34116W        W 5645  43.976  33.454  10.512
34117W        W 5646  38.096   3.693  12.900
34118W        W 5647  44.773   1.340  13.440
34119W        W 5648  44.818  16.073  10.771
34120W        W 5649  25.047  19.761   0.979
34121W        W 5650   5.970   6.284  11.248
34122W        W 5651  35.427  15.108   2.311
34123W        W 5652  29.137  39.439   4.288
34124W        W 5653  10.224  44.337  14.811
34125W        W 5654  33.003   0.236  12.387
34126W        W 5655  40.517   8.377  12.047
34127W        W 5656   4.188  27.885  14.282
34128W        W 5657  43.470  13.308  12.881
34129W        W 5658  38.092  40.390   4.533
34130W        W 5659  23.720  40.757  13.353
34131W        W 5660  30.657   9.459   5.123
34132W        W 5661   4.944  30.897   4.443
34133W        W 5662  33.430  43.796  10.620
34134W        W 5663  40.690   8.623   4.963
34135W        W 5664  26.361  22.879  12.503
34136W        W 5665  23.240  17.146   0.320
34137W        W 5666  41.615  26.267   3.778
34138W        W 5667  18.941  10.066   2.724
34139W        W 5668  19.099  11.817   4.076
34140W        W 5669  41.529  13.444  12.664
34141W        W 5670   0.811  40.063  14.756
34142W        W 5671   8.199   8.446   2.554
34143W        W 5672  15.011   0.002  14.420
34144W        W 5673  35.393  23.151  13.163
34145W        W 5674  24.666  36.919  13.842
34146W        W 5675   3.696   0.938   4.532
34147W        W 5676   8.667  42.814   2.291
34148W        W 5677  42.879  40.287   0.258
34149W        W 5678  35.428  17.567  12.303
34150W        W 5679  14.709  14.191   1.694
34151W        W 5680   2.382  29.599  13.636
34152W        W 5681  29.501   3.137  13.997
34153W        W 5682  23.791  33.541  12.689
34154W        W 5683   4.761  23.075  14.297
34155W        W 5684  23.666   0.308   2.908
34156W        W 5685  41.825  40.305   4.211
34157W        W 5686  19.987  19.275  14.942
34158W        W 5687   0.576  31.107   1.998
34159W        W 5688  27.218  29.395   4.581
34160W        W 5689  23.266  16.738  14.594
34161W        W 5690  34.111   9.870  11.526
34162W        W 5691  17.626  19.069   1.858
34163W        W 5692  28.082  15.694   1.679
34164W        W 5693   6.388  24.237  12.019
34165W        W 5694  43.439  25.137   2.348
34166W        W 5695  24.196  24.892  13.053
34167W        W 5696  24.010   6.377   0.692
34168W        W 5697  15.252   2.574   1.275
34169W        W 5698  32.039  39.861  13.206
34170W        W 5699  34.654  16.819   2.175
34171W        W 5700  31.490   6.437  12.949
34172W        W 5701  28.520  12.072   1.369
34173W        W 5702  40.585  30.524   1.768
34174W        W 5703  15.996  41.510  11.389
34175W        W 5704   1.858   8.262  13.386
34176W        W 5705  21.082  23.125  11.771
34177W        W 5706  41.460  41.779   2.834
34178W        W 5707   6.183  18.749   4.018
34179W        W 5708  31.529   4.010  13.956
34180W        W 5709   8.300   7.428   0.944
34181W        W 5710   5.012  44.342  12.106
34182W        W 5711  10.610  11.228   0.429
34183W        W 5712  21.034  26.556   3.230
34184W        W 5713  13.500  34.276  11.183
34185W        W 5714  11.368   5.754  11.584
34186W        W 5715  44.931  19.280  11.642
34187W        W 5716  16.014  39.499   1.919
34188W        W 5717  22.688  22.030   1.331
34189W        W 5718  34.097  33.343   1.905
34190W        W 5719  29.147  21.446  14.327
34191W        W 5720  13.610  24.710   4.205
34192W        W 5721  11.706  44.327  12.962
34193W        W 5722  13.881  25.917   3.131
34194W        W 5723  34.119  38.530   4.680
34195W        W 5724  37.628  23.037   2.209
34196W        W 5725   6.506   7.462  14.358
34197W        W 5726  19.193  18.694  10.476
34198W        W 5727  32.392  35.506   4.238
34199W        W 5728  44.788  37.620   1.919
34200W        W 5729  27.595  15.829  10.426
34201W        W 5730  21.809  28.886   1.705
34202W        W 5731   7.328   9.757  11.253
34203W        W 5732  22.434   0.275   2.343
34204W        W 5733   6.129   1.979   4.242
34205W        W 5734  32.579  44.330  10.675
34206W        W 5735  33.106   0.936   1.899
34207W        W 5736   8.308   7.509  11.668
34208W        W 5737  17.242  26.631  12.571
34209W        W 5738  14.388  26.457  11.135
34210W        W 5739   1.371  21.737  14.562
34211W        W 5740   4.647  30.685  14.854
34212W        W 5741  25.786  35.307  13.086
34213W        W 5742  20.685  19.062   3.181
34214W        W 5743  17.142  32.544  11.652
34215W        W 5744  15.708  40.998   3.927
34216W        W 5745  40.845  33.564   0.039
34217W        W 5746  15.097  17.699   4.612
34218W        W 5747  35.370   0.553  13.963
34219W        W 5748   1.326   2.956  14.230
34220W        W 5749  33.141  11.176  14.669
34221W        W 5750   0.920  39.903   1.626
34222W        W 5751  41.102  16.091  10.602
34223W        W 5752  13.545  28.100  12.906
34224W        W 5753  19.782  12.116   0.928
34225W        W 5754  44.909  41.907   0.198
34226W        W 5755  38.090  32.253  13.375
34227W        W 5756  17.898  25.926   1.240
34228W        W 5757   4.934  25.948   1.495
34229W        W 5758   9.456  16.742   4.708
34230W        W 5759  33.790  22.529  11.230
34231W        W 5760   6.360   0.878  12.042
34232W        W 5761  35.991  36.938   3.734
34233W        W 5762  21.079  41.355   2.907
34234W        W 5763   5.915  37.968   4.637
34235W        W 5764  41.837  11.376   0.461
34236W        W 5765  14.048  25.296  12.890
34237W        W 5766  14.379  11.064   2.384
34238W        W 5767  36.564  36.808   1.329
34239W        W 5768  17.420  19.462  11.041
34240W        W 5769  40.994  16.691  13.790
34241W        W 5770  27.054   1.091   4.657
34242W        W 5771  33.084  38.568   0.209
34243W        W 5772  41.444  22.023   1.967
34244W        W 5773   9.400   3.662   1.329
34245W        W 5774  27.499   3.257   3.266
34246W        W 5775  42.836  39.981  14.834
34247W        W 5776  17.257  40.015   0.008
34248W        W 5777   8.237  31.584  11.034
34249W        W 5778   4.460  16.614   9.753
34250W        W 5779  31.690   6.377  13.781
34251W        W 5780   1.062  31.314  14.343
34252W        W 5781  37.950  16.266   2.189
34253W        W 5782   9.791  43.273  11.146
34254W        W 5783  17.522  27.100  10.578
34255W        W 5784   0.653   1.830  12.160
34256W        W 5785   9.165  21.735  12.546
34257W        W 5786  21.536   4.755  13.728
34258W        W 5787   6.177   3.381   2.785
34259W        W 5788  27.004   5.282  11.465
34260W        W 5789   7.434   5.971   3.602
34261W        W 5790   0.347  44.520  13.920
34262W        W 5791   9.604  26.973   0.031
34263W        W 5792  43.249  22.234  11.151
34264W        W 5793  12.595  13.325  13.110
34265W        W 5794  19.795  31.989   0.937
34266W        W 5795  38.849  33.495   2.007
34267W        W 5796  22.702  34.455   4.568
34268W        W 5797  34.922  31.845   3.603
34269W        W 5798  14.104  42.604   2.828
34270W        W 5799  13.904  40.060  11.274
34271W        W 5800  24.353  19.019   0.375
34272W        W 5801   1.750   6.970  13.871
34273W        W 5802  41.889  32.109  13.926
34274W        W 5803   9.648  39.004   3.396
34275W        W 5804   3.373  12.246   4.498
34276W        W 5805   4.660  34.737  12.741
34277W        W 5806  32.045   6.845   1.387
34278W        W 5807  28.053  27.097  10.663
34279W        W 5808  13.848  33.119   3.626
34280W        W 5809   3.744  32.604  10.496
34281W        W 5810  39.469  43.459  12.643
34282W        W 5811  23.575  32.573   0.397
34283W        W 5812  16.265  24.873   2.946
34284W        W 5813  44.816  16.879   2.020
34285W        W 5814  31.657   6.655   3.318
34286W        W 5815  39.518   0.284   1.779
34287W        W 5816   2.438   6.717  10.862
34288W        W 5817  44.483   7.179   0.261
34289W        W 5818   0.309  10.152   1.292
34290W        W 5819   8.244  20.263  10.319
34291W        W 5820  19.054  43.315  12.191
34292W        W 5821  17.682  28.461   4.181
34293W        W 5822  20.351  39.983   1.674
34294W        W 5823   6.901  24.190  14.488
34295W        W 5824  25.312  32.584   2.247
34296W        W 5825  29.164  36.074   1.380
34297W        W 5826  21.339  44.875   4.681
34298W        W 5827  11.185  44.228   3.620
34299W        W 5828   7.181  44.339   0.869
34300W        W 5829  40.519  18.351  10.956
34301W        W 5830  42.841   7.529  10.204
34302W        W 5831  37.703  14.181  14.431
34303W        W 5832  29.980  22.117  12.294
34304W        W 5833   2.873  13.757   2.623
34305W        W 5834  37.651  36.902   3.943
34306W        W 5835   2.200  33.918   2.756
34307W        W 5836  14.323  40.153  13.601
34308W        W 5837  23.284   2.757  11.583
34309W        W 5838   9.203  17.410   0.493
34310W        W 5839  39.363  31.120   0.620
34311W        W 5840  38.462  10.126  14.018
34312W        W 5841  27.100   3.508   4.145
34313W        W 5842   9.269  12.997   1.927
34314W        W 5843  41.356  18.247   1.765
34315W        W 5844  25.111  22.468  13.939
34316W        W 5845  37.531  27.703   1.191
34317W        W 5846  20.725   9.783  11.089
34318W        W 5847   9.659  17.280   1.316
34319W        W 5848  29.633   0.716   1.860
34320W        W 5849  39.339  32.398   0.362
34321W        W 5850  40.338  22.830  13.884
34322W        W 5851  27.652  26.830   0.816
34323W        W 5852   3.926  18.356  14.321
34324W        W 5853  33.317   4.500   3.405
34325W        W 5854  25.728   7.595  12.023
34326W        W 5855   1.709  14.668   3.681
34327W        W 5856  25.742  13.745  14.890
34328W        W 5857   8.233  37.779   3.323
34329W        W 5858  11.150  38.182  10.400
34330W        W 5859  13.889  18.143  10.689
34331W        W 5860  18.334  42.308   1.685
34332W        W 5861  38.688  34.423  10.029
34333W        W 5862  10.615  10.822  14.837
34334W        W 5863  37.462  26.433  10.560
34335W        W 5864  19.616  38.954   9.797
34336W        W 5865   3.391  35.566  12.995
34337W        W 5866  18.679   2.045   3.738
34338W        W 5867  36.488  25.653   4.948
34339W        W 5868  29.721  17.067  14.303
34340W        W 5869   4.274  30.543  13.977
34341W        W 5870  36.075  40.438  14.374
34342W        W 5871   9.259  38.580   4.177
34343W        W 5872  11.271   4.731   1.990
34344W        W 5873  12.644  39.455  14.372
34345W        W 5874  36.862  26.315  14.174
34346W        W 5875  40.332  28.596  14.540
34347W        W 5876  10.535  20.110   4.490
34348W        W 5877  25.732  28.972   3.614
34349W        W 5878  15.510  23.656  12.073
34350W        W 5879  27.861   0.408  14.252
34351W        W 5880  36.360   4.296   1.670
34352W        W 5881   1.946   0.272  10.618
34353W        W 5882   9.267  35.079   2.225
34354W        W 5883  23.499  41.575  13.080
34355W        W 5884   1.037  37.046   4.565
34356W        W 5885  41.469  30.139   0.839
34357W        W 5886  25.000  40.589   5.013
34358W        W 5887   7.629  33.901   3.164
34359W        W 5888  15.919   5.311  13.044
34360W        W 5889  10.204   1.425   1.197
34361W        W 5890  14.666  10.683   3.708
34362W        W 5891  10.365  42.513   1.230
34363W        W 5892  37.942  38.312  14.408
34364W        W 5893  15.219  29.009   2.708
34365W        W 5894  20.238  12.762  12.926
34366W        W 5895  19.798   0.753   2.428
34367W        W 5896   1.235   1.939   3.793
34368W        W 5897  36.728  12.718  13.931
34369W        W 5898   5.398  40.630   1.205
34370W        W 5899  25.070  10.751  13.550
34371W        W 5900  17.393   1.212  14.900
34372W        W 5901  35.043   9.786   0.364
34373W        W 5902  22.586  27.673  10.600
34374W        W 5903  23.913  19.050  12.495
34375W        W 5904  37.954   5.372  13.971
34376W        W 5905  40.190  17.066  12.102
34377W        W 5906   8.875  18.306  11.038
34378W        W 5907   2.397  12.666   1.316
34379W        W 5908  15.018   7.346  10.683
34380W        W 5909  20.037  40.515  12.506
34381W        W 5910   3.225  40.514  14.357
34382W        W 5911  19.478  18.663  11.861
34383W        W 5912   4.768  11.198  11.415
34384W        W 5913  38.598  21.208   5.174
34385W        W 5914   8.128  41.804  14.825
34386W        W 5915  11.882  16.052   3.584
34387W        W 5916  35.599  22.884   0.347
34388W        W 5917  26.945  18.324   4.534
34389W        W 5918  27.831  17.611   0.983
34390W        W 5919  41.903  42.790  11.161
34391W        W 5920   8.395  15.708   3.722
34392W        W 5921  40.524  24.183  14.304
34393W        W 5922   0.135  34.625   0.230
34394W        W 5923  14.301  35.792   3.876
34395W        W 5924   8.845  19.685   0.312
34396W        W 5925  27.288  18.693  14.958
34397W        W 5926  21.584  41.302   1.586
34398W        W 5927  43.891  26.970   2.225
34399W        W 5928  25.128   4.695  13.857
34400W        W 5929  31.092   0.488   0.388
34401W        W 5930  26.747  26.009   0.904
34402W        W 5931  42.637   5.853  14.252
34403W        W 5932  12.885  16.015  14.910
34404W        W 5933  24.936  16.898   4.956
34405W        W 5934  40.950  33.849  12.043
34406W        W 5935  20.795  28.033   2.152
34407W        W 5936  20.775   2.594   3.268
34408W        W 5937   1.475  35.329  13.505
34409W        W 5938  32.522   0.715  12.806
34410W        W 5939  27.892  27.079   3.794
34411W        W 5940   0.308  42.505   3.605
34412W        W 5941  15.656  34.051  13.233
34413W        W 5942  26.937  38.492   1.652
34414W        W 5943  33.333  15.175   3.271
34415W        W 5944  14.056  14.377  13.501
34416W        W 5945  33.989   1.785   3.373
34417W        W 5946   3.454   4.339   2.176
34418W        W 5947  24.576  25.903  13.492
34419W        W 5948  31.087  23.693   1.221
34420W        W 5949   9.294  12.674   0.866
34421W        W 5950  14.298  11.798  14.806
34422W        W 5951  23.688  36.299   3.748
34423W        W 5952  35.567   9.771   0.292
34424W        W 5953  38.616   9.783   2.470
34425W        W 5954  27.968  11.583  14.375
34426W        W 5955  43.635  24.288   4.848
34427W        W 5956  18.254  21.405   0.482
34428W        W 5957   0.135  17.092   3.695
34429W        W 5958  19.529  22.701  14.039
34430W        W 5959   4.985  11.554   3.492
34431W        W 5960  36.882  23.536   4.476
34432W        W 5961   6.861  13.573   1.560
34433W        W 5962   3.493  25.607  10.739
34434W        W 5963  17.704   8.245   0.571
34435W        W 5964   7.636   2.910  13.424
34436W        W 5965  23.497  24.751  12.914
34437W        W 5966  43.269   3.195   2.808
34438W        W 5967  42.930  13.732   3.731
34439W        W 5968  14.655  32.920  13.097
34440W        W 5969   0.662  18.612  13.916
34441W        W 5970  37.438  35.961   3.580
34442W        W 5971  20.806  19.121  14.449
34443W        W 5972  22.683  15.200  13.897
34444W        W 5973  24.559  32.558   4.664
34445W        W 5974  29.549  12.763   4.319
34446W        W 5975  16.335  14.826   1.278
34447W        W 5976  14.099  10.071   4.927
34448W        W 5977  16.219  41.090   4.807
34449W        W 5978  21.122  25.607   3.173
34450W        W 5979  42.047  36.507  14.445
34451W        W 5980  37.329  12.782   0.804
34452W        W 5981  18.183  36.840   1.455
34453W        W 5982  11.206  37.948  13.106
34454W        W 5983  30.164   3.313   2.672
34455W        W 5984   5.946  18.316   3.843
34456W        W 5985  37.936   9.310   4.262
34457W        W 5986  33.971  30.024  12.976
34458W        W 5987  42.720  43.841  12.108
34459W        W 5988  12.561  28.003  12.885
34460W        W 5989  16.711  24.279  14.710
34461W        W 5990  11.816  13.863  14.604
34462W        W 5991  40.141  11.110   3.618
34463W        W 5992  43.671  24.189  12.896
34464W        W 5993  12.023   9.198  14.801
34465W        W 5994  17.881  26.558   2.868
34466W        W 5995  40.501  34.598  14.297
34467W        W 5996  39.091  36.919  12.903
34468W        W 5997   6.407  44.581  11.772
34469W        W 5998  38.966   5.547   4.341
34470W        W 5999  17.917   8.708   0.408
34471W        W 6000  15.029  24.897  11.557
34472W        W 6001   7.819  14.046  14.933
34473W        W 6002  23.402  36.504   2.741
34474W        W 6003   0.761  21.604   1.204
34475W        W 6004  13.614   9.467   1.007
34476W        W 6005   7.282  27.935  11.567
34477W        W 6006  30.080  25.592   3.394
34478W        W 6007   1.225  19.695   4.809
34479W        W 6008   5.383  16.118   1.821
34480W        W 6009   5.403  32.238   3.108
34481W        W 6010   8.337  15.232   4.042
34482W        W 6011  23.783  25.523  14.939
34483W        W 6012  43.802  42.213   0.543
34484W        W 6013  20.542  43.956   4.579
34485W        W 6014  19.487  29.526  12.754
34486W        W 6015  41.320   8.724  13.363
34487W        W 6016  24.258  23.432  14.027
34488W        W 6017  25.204  40.263   1.388
34489W        W 6018  27.749  38.876   2.121
34490W        W 6019   8.273  17.136   4.716
34491W        W 6020  13.791  15.289  12.072
34492W        W 6021  21.612  32.084   2.734
34493W        W 6022  10.671  34.667  11.285
34494W        W 6023  21.833  34.433   0.027
34495W        W 6024   6.119  17.138   1.780
34496W        W 6025  33.123   3.266   2.508
34497W        W 6026  42.980  30.408  13.408
34498W        W 6027  24.685  25.701  12.153
34499W        W 6028  22.497   8.434  11.809
34500W        W 6029   5.157  25.708  11.141
34501W        W 6030  35.571  42.891  10.651
34502W        W 6031  15.828   6.631   1.934
34503W        W 6032  38.446  14.431   1.625
34504W        W 6033  28.961  33.609  12.828
34505W        W 6034  21.637  25.607  14.507
34506W        W 6035  37.401   1.754   2.267
34507W        W 6036  17.522  11.147  13.347
34508W        W 6037  11.822  43.312  13.853
34509W        W 6038  17.158  15.898  13.860
34510W        W 6039  23.531  20.149   2.278
34511W        W 6040   8.413  10.256  13.985
34512W        W 6041  25.110  32.528  12.925
34513W        W 6042  34.986  30.457   0.834
34514W        W 6043  10.194   5.010  11.828
34515W        W 6044  21.076   5.822   4.903
34516W        W 6045   1.414  33.231  11.151
34517W        W 6046  38.784  10.135   1.701
34518W        W 6047   3.277  19.729  14.465
34519W        W 6048  32.578  18.255   4.883
34520W        W 6049  30.078  37.961   2.190
34521W        W 6050  24.763  41.461   0.075
34522W        W 6051  13.116   7.157   1.753
34523W        W 6052  32.065  39.652  14.613
34524W        W 6053  25.326  40.267  12.518
34525W        W 6054   5.801   1.827  12.064
34526W        W 6055  25.702  13.122   0.420
34527W        W 6056  26.416  43.128   2.813
34528W        W 6057  40.523  10.083  10.326
34529W        W 6058  39.395   1.371  10.598
34530W        W 6059  36.278  33.797   2.294
34531W        W 6060   7.920  26.171  14.601
34532W        W 6061  40.322  37.021  10.285
34533W        W 6062   2.522  20.146  11.550
34534W        W 6063  14.032  37.269   1.790
34535W        W 6064  22.272  41.320  11.108
34536W        W 6065  16.574  39.985   3.815
34537W        W 6066   2.737  33.147   2.667
34538W        W 6067  26.240  28.714  11.505
34539W        W 6068  21.729  43.052  13.819
34540W        W 6069  24.107  10.094   3.978
34541W        W 6070  36.407  31.308  11.332
34542W        W 6071   8.345  44.587  11.561
34543W        W 6072  33.967  33.042   0.442
34544W        W 6073   5.340  27.484  14.745
34545W        W 6074  12.234  21.317  11.067
34546W        W 6075  26.511  39.931   3.015
34547W        W 6076  25.660  24.889   3.288
34548W        W 6077  37.935  14.147   4.991
34549W        W 6078   2.998  14.128  11.386
34550W        W 6079  27.815  40.834   4.502
34551W        W 6080  38.430   3.843  10.671
34552W        W 6081  40.352  20.656  12.515
34553W        W 6082  20.930  37.972   2.303
34554W        W 6083  11.622  15.901   3.151
34555W        W 6084   1.396   2.457   1.909
34556W        W 6085  42.973  26.623  10.439
34557W        W 6086  32.444  34.542  12.182
34558W        W 6087  40.522  43.372  13.975
34559W        W 6088   4.752   8.245   3.269
34560W        W 6089  20.254  14.716  11.673
34561W        W 6090  37.594   3.869   2.373
34562W        W 6091   1.021  27.048  13.491
34563W        W 6092   1.179   1.402  11.476
34564W        W 6093  27.530  37.483  10.613
34565W        W 6094  27.104  18.711  11.644
34566W        W 6095  40.953   5.563  12.030
34567W        W 6096   5.181  16.607   1.779
34568W        W 6097  16.132  11.172   3.769
34569W        W 6098   8.666  10.715   2.694
34570W        W 6099  11.591  23.065  14.829
34571W        W 6100  42.004  25.360  13.815
34572W        W 6101  43.857  17.721   1.238
34573W        W 6102  15.646   1.775   3.382
34574W        W 6103  18.530  29.526  12.349
34575W        W 6104  12.297   2.468  11.208
34576W        W 6105  13.696  38.598  12.961
34577W        W 6106  37.119  10.712  13.136
34578W        W 6107   1.576   7.858   0.005
34579W        W 6108  24.215  38.768  12.069
34580W        W 6109  13.644  38.056  14.320
34581W        W 6110   5.741  38.664  13.509
34582W        W 6111  13.727  26.557   2.373
34583W        W 6112   8.065  22.268   1.854
34584W        W 6113  15.330   6.423  14.065
34585W        W 6114  42.048  30.606   4.159
34586W        W 6115  11.455   7.192   2.265
34587W        W 6116  17.142  26.915   3.238
34588W        W 6117   8.942  20.564  14.020
34589W        W 6118  25.489  43.231   1.825
34590W        W 6119  33.553  39.840  10.031
34591W        W 6120  43.434  24.521  14.838
34592W        W 6121   3.004  12.509  13.416
34593W        W 6122  35.064  41.844   1.236
34594W        W 6123  36.514  40.944  12.941
34595W        W 6124   7.525  19.685   1.964
34596W        W 6125  42.272  30.433  11.202
34597W        W 6126  33.076  13.632  10.419
34598W        W 6127  42.400  10.736   1.923
34599W        W 6128  24.193  37.982   3.424
34600W        W 6129   6.240   0.114   4.170
34601W        W 6130  26.466  30.034  13.376
34602W        W 6131  37.035  13.588   1.723
34603W        W 6132  43.729  30.234   0.713
34604W        W 6133  38.470  13.529   3.976
34605W        W 6134  12.068  37.944  12.569
34606W        W 6135  28.897  36.915  12.141
34607W        W 6136  15.006  36.070  12.093
34608W        W 6137  22.243  28.696  13.533
34609W        W 6138  35.096  18.591   0.409
34610W        W 6139   5.261   8.684  11.955
34611W        W 6140  43.565  41.830  11.598
34612W        W 6141  24.324   9.440  11.701
34613W        W 6142   7.357  10.331  14.925
34614W        W 6143   1.499  23.561  11.614
34615W        W 6144   0.392   2.848   3.203
34616W        W 6145  41.526  16.996  10.567
34617W        W 6146  42.263  13.273  13.056
34618W        W 6147  38.612  26.051   4.195
34619W        W 6148  18.284  39.442  14.794
34620W        W 6149  36.425   2.073  12.581
34621W        W 6150  34.271  14.326   4.502
34622W        W 6151  14.607  35.546   0.659
34623W        W 6152   0.236  31.867   4.308
34624W        W 6153  34.971  37.420   2.035
34625W        W 6154  33.433  20.340   3.848
34626W        W 6155  28.033   3.823   4.488
34627W        W 6156   9.482  10.349   0.729
34628W        W 6157  33.830  25.476  11.223
34629W        W 6158  14.645   7.601   1.833
34630W        W 6159   5.864   5.172  13.566
34631W        W 6160  16.278   5.829  14.583
34632W        W 6161  39.002   0.175  12.587
34633W        W 6162  21.697  27.090  14.500
34634W        W 6163  20.375  20.185   4.277
34635W        W 6164   8.309  19.102   4.249
34636W        W 6165  34.846  34.448  13.264
34637W        W 6166  14.401  25.210  10.569
34638W        W 6167  24.965   5.175  12.513
34639W        W 6168  25.031  11.483  13.015
34640W        W 6169  33.047  28.714   2.190
34641W        W 6170  42.664  41.432  13.111
34642W        W 6171  34.593   9.144   1.767
34643W        W 6172   0.299  36.790  14.930
34644W        W 6173   7.755  12.968   3.129
34645W        W 6174  36.476   7.223  12.882
34646W        W 6175  34.746   5.839   3.289
34647W        W 6176  21.621  11.224   3.894
34648W        W 6177  10.182  15.850   2.064
34649W        W 6178  23.299  11.645   4.784
34650W        W 6179   1.380  22.446  12.889
34651W        W 6180  14.118  39.642   2.897
34652W        W 6181  39.513  13.861  11.928
34653W        W 6182   2.880   5.832   4.858
34654W        W 6183  21.952  44.347  11.169
34655W        W 6184  43.365  14.294   2.219
34656W        W 6185   5.803  44.283  14.142
34657W        W 6186  40.937  30.544  12.835
34658W        W 6187   2.634  30.137   0.740
34659W        W 6188  42.300   3.369   2.827
34660W        W 6189  44.566  14.663   4.565
34661W        W 6190  22.579   9.576  11.112
34662W        W 6191  26.880  34.978   1.999
34663W        W 6192  17.501   7.225  10.805
34664W        W 6193  27.354  12.077  14.019
34665W        W 6194  24.205  13.558   4.692
34666W        W 6195  23.470  37.055   4.814
34667W        W 6196  29.416  42.231   3.805
34668W        W 6197  23.741   3.499   0.669
34669W        W 6198  37.979  17.183   3.091
34670W        W 6199  28.562   4.175   3.145
34671W        W 6200   2.815  39.770  10.655
34672W        W 6201  30.625  35.777   4.550
34673W        W 6202  12.676  34.638   2.176
34674W        W 6203  11.220  26.673   1.763
34675W        W 6204  22.691  18.068  13.075
34676W        W 6205  40.596   7.424   4.517
34677W        W 6206  34.882  39.878  11.552
34678W        W 6207  25.961  12.771   1.905
34679W        W 6208  10.146  40.329  13.566
34680W        W 6209  39.856  38.460   3.176
34681W        W 6210  32.507  23.067   1.749
34682W        W 6211  31.644  19.635   1.205
34683W        W 6212  43.336  18.098  11.422
34684W        W 6213   0.714   8.506  13.890
34685W        W 6214  41.001   6.678   4.076
34686W        W 6215  16.179  34.586   4.526
34687W        W 6216  17.167  38.327  14.379
34688W        W 6217  35.457  21.764  14.384
34689W        W 6218  39.988  43.012  11.603
34690W        W 6219   8.740   7.339  13.038
34691W        W 6220  10.145   1.995  11.905
34692W        W 6221  17.984  13.154  11.162
34693W        W 6222  17.152  11.846  11.041
34694W        W 6223  41.793   2.739   3.413
34695W        W 6224  39.318  30.556  11.419
34696W        W 6225   2.869  13.617  12.590
34697W        W 6226  28.425   0.858   2.695
34698W        W 6227  42.465  16.582   2.613
34699W        W 6228  44.636  15.151   1.545
34700W        W 6229  39.234  44.387  13.566
34701W        W 6230  15.262  39.372   4.067
34702W        W 6231  27.151  28.098   4.164
34703W        W 6232  13.523   5.593   4.121
34704W        W 6233   1.809  15.405   4.845
34705W        W 6234  44.577  18.055   1.290
34706W        W 6235  27.382  29.175  14.950
34707W        W 6236  24.187   0.541  13.425
34708W        W 6237   5.400  43.037  13.156
34709W        W 6238  15.638  36.615  13.522
34710W        W 6239  16.659  31.588  12.789
34711W        W 6240  34.409   6.753   0.233
34712W        W 6241   1.318  37.612  12.531
34713W        W 6242  21.595   8.522   1.321
34714W        W 6243  35.375  36.786  11.258
34715W        W 6244   5.218  20.298  13.876
34716W        W 6245  42.813  36.511  13.784
34717W        W 6246   0.372  15.294   1.259
34718W        W 6247  13.257   9.343  14.377
34719W        W 6248  17.106   9.482   2.751
34720W        W 6249  34.449  42.072  11.341
34721W        W 6250   9.314  23.546  11.867
34722W        W 6251   4.614   0.004  10.555
34723W        W 6252  43.088   7.827   4.646
34724W        W 6253  37.596  31.279   4.510
34725W        W 6254  11.724   4.997   2.001
34726W        W 6255  43.876   3.785   1.303
34727W        W 6256  31.375  16.696  11.013
34728W        W 6257  42.584  29.442  11.187
34729W        W 6258  35.776  34.348  11.216
34730W        W 6259  36.450  11.285   1.194
34731W        W 6260  43.940  38.016   4.786
34732W        W 6261  26.887   2.168   2.719
34733W        W 6262   5.229  42.546  13.075
34734W        W 6263  22.711   1.787  12.417
34735W        W 6264  33.858  23.494  12.062
34736W        W 6265   1.682  11.830  11.407
34737W        W 6266   8.645  43.852   2.467
34738W        W 6267  10.092  41.358  13.047
34739W        W 6268  37.933  15.332   0.637
34740W        W 6269  43.959  32.429  13.151
34741W        W 6270  10.410  21.632   3.642
34742W        W 6271   8.705  28.714  11.710
34743W        W 6272  14.843  19.794  14.769
34744W        W 6273   9.227  21.265   4.326
34745W        W 6274  25.317  20.328  12.585
34746W        W 6275   9.840  22.568   1.910
34747W        W 6276  23.588  24.191   1.720
34748W        W 6277  41.493  23.015  14.807
34749W        W 6278  43.333  20.032   3.655
34750W        W 6279  10.940  12.110  12.135
34751W        W 6280  10.452  36.842   3.775
34752W        W 6281  18.008   4.676   4.690
34753W        W 6282  24.482  36.217  12.666
34754W        W 6283  23.701   2.973  13.346
34755W        W 6284  42.439  33.370   2.758
34756W        W 6285  39.700   6.312  14.009
34757W        W 6286  13.066  35.782  10.806
34758W        W 6287   3.502  19.572  12.486
34759W        W 6288  29.718   3.253  11.250
34760W        W 6289  11.142  16.137  13.658
34761W        W 6290  16.563  12.669  14.453
34762W        W 6291   5.978  20.100  14.931
34763W        W 6292  27.137   6.813  10.639
34764W        W 6293   9.107   4.197  13.233
34765W        W 6294  40.612  19.657  10.643
34766W        W 6295  44.196  17.565   2.882
34767W        W 6296  11.413  14.160  13.584
34768W        W 6297  30.736  23.642  12.728
34769W        W 6298  12.212   7.877   2.426
34770W        W 6299  31.682  13.522   5.026
34771W        W 6300  18.378  26.576   2.957
34772W        W 6301   5.367   8.932  12.919
34773W        W 6302  17.597  42.974   4.691
34774W        W 6303  14.622  36.191  11.703
34775W        W 6304  37.766  35.949   3.154
34776W        W 6305   8.109  29.411  11.606
34777W        W 6306  39.995  14.120   0.012
34778W        W 6307  34.539  44.658  12.065
34779W        W 6308   4.728  43.172  12.199
34780W        W 6309  27.272   8.363  12.364
34781W        W 6310  13.764  29.788  11.995
34782W        W 6311  30.137  41.315  10.637
34783W        W 6312  17.359   7.325  14.254
34784W        W 6313  15.207  10.566  12.923
34785W        W 6314  19.668  14.559   0.795
34786W        W 6315  39.837   0.805  11.574
34787W        W 6316  12.582   0.941  12.660
34788W        W 6317  31.818   2.300   2.829
34789W        W 6318  22.507  33.167   4.542
34790W        W 6319  12.757  36.706  12.135
34791W        W 6320  23.469   2.252  10.645
34792W        W 6321   8.984  43.355  12.774
34793W        W 6322  26.953  36.238   1.375
34794W        W 6323  33.589  29.634  11.636
34795W        W 6324  39.140  25.714   0.007
34796W        W 6325   3.423  12.422  11.988
34797W        W 6326  38.942  10.302  12.462
34798W        W 6327  29.573  19.672   4.943
34799W        W 6328  19.562  31.662   4.824
34800W        W 6329  16.643   3.699  13.960
34801W        W 6330  34.523   6.279   1.966
34802W        W 6331  27.246  22.913  13.087
34803W        W 6332  21.044  39.406  12.126
34804W        W 6333   4.303  23.053   1.233
34805W        W 6334   0.157  37.954   1.419
34806W        W 6335  13.839   1.841   1.374
34807W        W 6336   1.748   1.713   2.748
34808W        W 6337   2.279  31.674  11.979
34809W        W 6338  25.569   9.927   1.650
34810W        W 6339   9.383  11.641  12.707
34811W        W 6340  25.595   8.979  12.495
34812W        W 6341  10.431  20.629  11.502
34813W        W 6342  31.902  26.256  11.691
34814W        W 6343  43.826  11.933  13.434
34815W        W 6344  35.583  37.519   4.406
34816W        W 6345  17.166  29.896  12.954
34817W        W 6346  41.546   8.975  11.987
34818W        W 6347  41.751  14.168  11.959
34819W        W 6348   7.238  13.758  11.632
34820W        W 6349  23.213  41.542   4.353
34821W        W 6350  13.113   7.117   3.575
34822W        W 6351  33.026  15.865  10.538
34823W        W 6352  31.638  17.219  13.002
34824W        W 6353   2.806  36.105  12.225
34825W        W 6354  10.894  44.966  12.883
34826W        W 6355  12.643  22.674   0.785
34827W        W 6356  38.253   9.331   3.326
34828W        W 6357  17.035   6.957  13.322
34829W        W 6358  44.549   4.109   0.751
34830W        W 6359  15.241  34.091  11.109
34831W        W 6360  10.782  13.433   2.908
34832W        W 6361  38.160  19.505  13.816
34833W        W 6362  29.373  33.111  11.082
34834W        W 6363   8.001  41.525   2.650
34835W        W 6364  14.603   7.288   1.390
34836W        W 6365  38.558   0.091   0.739
34837W        W 6366  22.146   8.947   3.660
34838W        W 6367  12.818  17.339   2.197
34839W        W 6368   8.427   8.603   0.299
34840W        W 6369  11.301   8.008   2.788
34841W        W 6370   9.602   4.907  13.664
34842W        W 6371  17.587  19.196  13.097
34843W        W 6372  42.422  34.879   3.867
34844W        W 6373   7.482  22.702  10.714
34845W        W 6374  16.739  29.443   2.363
34846W        W 6375  41.519  42.788   0.931
34847W        W 6376   7.160  29.974  10.655
34848W        W 6377   8.472  13.231  10.653
34849W        W 6378  31.189  33.513   4.371
34850W        W 6379  12.311  14.638  13.341
34851W        W 6380   9.902  10.917   2.856
34852W        W 6381  27.439  27.600  12.875
34853W        W 6382  26.344  23.254   0.228
34854W        W 6383  41.603  14.710   4.830
34855W        W 6384   7.323   5.383   3.630
34856W        W 6385  37.114  27.673   3.012
34857W        W 6386   3.758  30.634  14.727
34858W        W 6387   9.443  15.177   4.162
34859W        W 6388  31.539  19.278   2.835
34860W        W 6389  29.127   1.236   0.683
34861W        W 6390  41.388   9.199   4.459
34862W        W 6391  39.608  26.478  13.305
34863W        W 6392  17.671   9.257   4.284
34864W        W 6393  39.259   9.811  11.745
34865W        W 6394  19.132  26.490   0.765
34866W        W 6395  18.384  12.374  10.825
34867W        W 6396  20.650   9.242   2.006
34868W        W 6397  43.037  37.036  12.461
34869W        W 6398  23.743  26.373   3.095
34870W        W 6399   9.128  26.597   2.265
34871W        W 6400  23.141   7.197   1.236
34872W        W 6401  35.027  41.566   2.666
34873W        W 6402  25.562   8.241  14.525
34874W        W 6403  18.234  26.247  11.878
34875W        W 6404  11.309   5.302  14.293
34876W        W 6405  36.335   5.778   1.889
34877W        W 6406  10.446  27.319   3.769
34878W        W 6407  32.425  30.505  11.678
34879W        W 6408  23.003   4.679   4.703
34880W        W 6409  23.464  40.889  12.508
34881W        W 6410   6.683   2.711   2.578
34882W        W 6411  33.852  39.979  11.515
34883W        W 6412   6.281  31.007   0.963
34884W        W 6413   5.661  14.765   2.381
34885W        W 6414  12.663  26.237  13.963
34886W        W 6415   8.264  35.946   0.330
34887W        W 6416  26.621   0.810   4.562
34888W        W 6417   6.772  27.170   1.313
34889W        W 6418  20.735  13.072   4.158
34890W        W 6419  34.550  37.120  13.584
34891W        W 6420  23.473   6.210   4.714
34892W        W 6421  44.592  43.526   2.781
34893W        W 6422   0.275  10.645   2.391
34894W        W 6423  22.569  17.546   1.654
34895W        W 6424  15.812   1.896   4.654
34896W        W 6425   8.829   6.857   4.392
34897W        W 6426  40.924  38.601  12.523
34898W        W 6427  13.113  32.091  12.488
34899W        W 6428  32.012  22.457   1.718
34900W        W 6429  44.237  31.966  14.403
34901W        W 6430   7.297  26.628  11.893
34902W        W 6431   4.792  16.382   0.595
34903W        W 6432  34.918  10.919   0.886
34904W        W 6433   9.922  34.926  13.934
34905W        W 6434   6.905  40.338   1.624
34906W        W 6435  10.918  44.943   0.900
34907W        W 6436  37.634  39.344  13.564
34908W        W 6437  39.476  19.288   4.282
34909W        W 6438  39.757  30.498   3.850
34910W        W 6439  10.658  31.138   3.418
34911W        W 6440  38.278  33.098  11.249
34912W        W 6441  28.876  20.596  14.880
34913W        W 6442  37.842  27.894  13.938
34914W        W 6443  42.507  14.743  13.402
34915W        W 6444  31.798   6.738   2.358
34916W        W 6445  33.950  17.640  11.577
34917W        W 6446  25.463  21.499  12.009
34918W        W 6447   5.194   4.509  12.682
34919W        W 6448  15.826  32.478  12.600
34920W        W 6449  16.812  43.287  11.100
34921W        W 6450  16.594  23.766   3.541
34922W        W 6451   9.097  24.137   4.726
34923W        W 6452  38.547   1.281   3.552
34924W        W 6453   2.488   7.242   3.784
34925W        W 6454  26.900   2.404   3.630
34926W        W 6455   9.399  22.124  11.609
34927W        W 6456  14.276  12.295   4.348
34928W        W 6457  37.987  27.603  13.532
34929W        W 6458  25.786   1.734   4.053
34930W        W 6459  29.920  12.578   0.954
34931W        W 6460  24.087  25.484   0.955
34932W        W 6461  32.323  12.352  13.650
34933W        W 6462  18.518  14.827  14.833
34934W        W 6463  33.048  39.988  10.688
34935W        W 6464  41.016   9.189   2.260
34936W        W 6465  40.630  31.638   3.750
34937W        W 6466   3.826  42.284   0.716
34938W        W 6467  14.556  42.563   2.595
34939W        W 6468  24.774  29.438   4.195
34940W        W 6469  17.834  34.772   1.232
34941W        W 6470  20.682  20.175  14.944
34942W        W 6471  28.745  12.100  12.568
34943W        W 6472   2.851  21.071   2.436
34944W        W 6473  29.382  33.449  10.691
34945W        W 6474  13.175  30.901   1.245
34946W        W 6475  18.228  27.942   5.632
34947W        W 6476  12.447  21.768   4.187
34948W        W 6477   1.200  32.922  11.934
34949W        W 6478  22.567   0.843  12.860
34950W        W 6479  40.920  34.245  11.195
34951W        W 6480  41.936  26.685   0.250
34952W        W 6481  13.145   3.750  13.014
34953W        W 6482  12.569  13.575   3.059
34954W        W 6483  41.997  19.774   0.526
34955W        W 6484   0.041   2.048  10.708
34956W        W 6485  37.138  23.977  13.909
34957W        W 6486  24.492   7.735  14.138
34958W        W 6487   9.416  27.546  13.112
34959W        W 6488  19.154  22.209   1.423
34960W        W 6489  27.880  38.557   1.680
34961W        W 6490  34.922   5.337  13.438
34962W        W 6491  28.308   4.705  10.715
34963W        W 6492   4.602  12.872  12.788
34964W        W 6493   3.045  42.175  12.059
34965W        W 6494  27.039  35.024   0.705
34966W        W 6495   0.835  12.217  12.795
34967W        W 6496   5.120  12.861  12.033
34968W        W 6497  11.382   0.814  10.685
34969W        W 6498  22.762  27.126   2.915
34970W        W 6499  38.089  19.829  14.967
34971W        W 6500  13.969  16.228   0.859
34972W        W 6501   2.282  17.629   1.298
34973W        W 6502  22.134  21.273  12.988
34974W        W 6503  33.825  22.033  12.031
34975W        W 6504  33.775  38.217  12.536
34976W        W 6505  12.588  10.265  11.099
34977W        W 6506  27.653  28.028  10.539
34978W        W 6507   0.033   4.974   2.910
34979W        W 6508  29.645   5.974  11.639
34980W        W 6509  10.894  25.250   0.913
34981W        W 6510  29.617  30.787  13.802
34982W        W 6511   4.341  27.696   4.223
34983W        W 6512   4.340  15.844  11.533
34984W        W 6513  40.510  26.905   0.764
34985W        W 6514   4.524  18.748   4.183
34986W        W 6515  44.419   7.752   1.287
34987W        W 6516  40.111   0.417  11.747
34988W        W 6517  29.945  25.370   0.668
34989W        W 6518  21.833  11.839   0.813
34990W        W 6519  19.210  30.921   0.330
34991W        W 6520   8.460  36.917  12.377
34992W        W 6521  44.059  30.494  12.536
34993W        W 6522  37.100  10.263   2.248
34994W        W 6523   8.467  19.732   3.818
34995W        W 6524  21.256  13.648  14.702
34996W        W 6525  29.917  22.656   4.768
34997W        W 6526  29.478  18.484   3.614
34998W        W 6527  33.488  22.925  10.973
34999W        W 6528  43.791  36.513   4.819
35000W        W 6529  34.932   5.939   3.789
35001W        W 6530  34.438  29.692  13.592
35002W        W 6531  42.262   4.288  10.990
35003W        W 6532  40.491  15.273  11.626
35004W        W 6533   7.296  44.739  14.436
35005W        W 6534  42.885   6.871   3.801
35006W        W 6535  42.498  15.597   3.684
35007W        W 6536  15.271  43.759   0.750
35008W        W 6537  17.316  21.228   0.086
35009W        W 6538  14.216  18.556  12.875
35010W        W 6539  10.301  30.459  14.380
35011W        W 6540  40.231  25.652   2.014
35012W        W 6541  10.255  36.748  11.940
35013W        W 6542   5.933  44.564   2.260
35014W        W 6543  35.379  35.434   4.216
35015W        W 6544  39.461  22.751   3.587
35016W        W 6545  19.664  43.458   2.681
35017W        W 6546  26.707  38.368   1.217
35018W        W 6547   7.132  26.150   2.285
35019W        W 6548  34.621  30.900  14.240
35020W        W 6549  12.163  14.409   0.269
35021W        W 6550  27.919  40.877   1.588
35022W        W 6551  12.436  44.900  11.562
35023W        W 6552  16.196  21.489   1.705
35024W        W 6553  33.184  12.485  10.955
35025W        W 6554  17.600  10.447   2.728
35026W        W 6555  20.590  29.393   1.435
35027W        W 6556   0.760  10.934  14.454
35028W        W 6557  24.428   3.168  11.038
35029W        W 6558  34.638  19.173  13.491
35030W        W 6559  35.319   3.555  10.933
35031W        W 6560  39.127  11.595  13.891
35032W        W 6561   6.316  19.653   0.694
35033W        W 6562  40.606  35.988  14.031
35034W        W 6563  25.045  28.474   3.232
35035W        W 6564  28.511  38.016  14.511
35036W        W 6565  23.459   4.018   0.043
35037W        W 6566  12.866   5.293  13.822
35038W        W 6567   8.754  22.382  14.161
35039W        W 6568  18.653  43.255   2.414
35040W        W 6569   6.609  18.997   3.629
35041W        W 6570  17.037  25.551   0.303
35042W        W 6571  41.446  16.701   2.770
35043W        W 6572  10.572  26.695   4.106
35044W        W 6573   0.344   6.776   0.720
35045W        W 6574  39.590  13.518   1.877
35046W        W 6575  38.181  36.911   4.176
35047W        W 6576  34.490  22.020   4.348
35048W        W 6577  18.310  17.702   1.912
35049W        W 6578  28.428  25.015  12.018
35050W        W 6579  42.296  15.636  13.014
35051W        W 6580  10.827  16.311   1.796
35052W        W 6581  44.592  34.913  14.923
35053W        W 6582  33.046   1.374  14.505
35054W        W 6583  25.611  30.148  10.645
35055W        W 6584  21.794  10.366  13.483
35056W        W 6585  35.853  29.844  11.078
35057W        W 6586  29.662  34.581   0.033
35058W        W 6587  10.176  10.239  12.958
35059W        W 6588   6.665   6.118  14.756
35060W        W 6589  39.418  33.191  13.530
35061W        W 6590  33.402  23.274  14.369
35062W        W 6591   8.360   7.124   2.732
35063W        W 6592  37.007  42.137   2.491
35064W        W 6593  33.540  20.253   4.630
35065W        W 6594  28.097  27.947  11.132
35066W        W 6595  43.726  17.651   0.427
35067W        W 6596  14.795  39.984  11.059
35068W        W 6597  38.404  30.179  11.185
35069W        W 6598   4.377  37.846   0.368
35070W        W 6599   9.077  17.664  13.314
35071W        W 6600  13.508  44.303   4.953
35072W        W 6601  36.952   8.841  11.536
35073W        W 6602   6.303  15.782   1.355
35074W        W 6603   2.799  44.515   2.859
35075W        W 6604  27.732  37.381   1.367
35076W        W 6605  30.247  20.189   3.586
35077W        W 6606  31.079  12.233   2.303
35078W        W 6607  40.827   5.823  13.910
35079W        W 6608  43.765   1.735  13.319
35080W        W 6609  26.690  11.361  10.642
35081W        W 6610   3.764   6.087  12.735
35082W        W 6611  16.785  12.646  11.187
35083W        W 6612   4.838   2.264   0.252
35084W        W 6613   9.162  36.598   0.378
35085W        W 6614  31.385  31.087   3.690
35086W        W 6615  15.374  37.476  14.374
35087W        W 6616  17.661  35.987   1.805
35088W        W 6617  22.129  36.493  11.533
35089W        W 6618  37.009   5.382   0.921
35090W        W 6619   7.773  27.108  13.792
35091W        W 6620  34.691  14.734   2.869
35092W        W 6621  21.578  43.329   1.024
35093W        W 6622  19.981   9.462  13.682
35094W        W 6623  30.274  29.386   0.739
35095W        W 6624  24.690  18.579   0.315
35096W        W 6625  13.284  15.185   1.195
35097W        W 6626   0.080  27.872  13.575
35098W        W 6627  39.348  22.771   0.903
35099W        W 6628  44.359  25.353  12.639
35100W        W 6629  31.014   9.693  14.313
35101W        W 6630  18.863  15.200   4.954
35102W        W 6631  14.574  27.459  12.944
35103W        W 6632  20.257  17.083   2.433
35104W        W 6633  26.992  33.956   1.821
35105W        W 6634  20.037  44.401   3.585
35106W        W 6635   1.833  12.358  14.250
35107W        W 6636  20.815  19.737  12.447
35108W        W 6637  26.711  43.168  13.538
35109W        W 6638   3.124  13.567  14.542
35110W        W 6639  11.621   7.428   4.081
35111W        W 6640   6.372  10.158  11.264
35112W        W 6641  15.737  34.898  11.890
35113W        W 6642   3.925  26.919   4.387
35114W        W 6643  14.829  23.036  10.772
35115W        W 6644  43.674  14.381   0.355
35116W        W 6645   1.444  36.878  12.085
35117W        W 6646  23.025   7.501  14.458
35118W        W 6647  35.128  18.759   4.594
35119W        W 6648  44.180  41.480   3.521
35120W        W 6649  36.552  29.164   4.512
35121W        W 6650   4.361  11.596  10.280
35122W        W 6651  21.200  21.197   3.596
35123W        W 6652  13.893   5.255  12.964
35124W        W 6653  37.451  35.449   3.841
35125W        W 6654  21.488  12.603   4.172
35126W        W 6655  41.708  33.423   3.359
35127W        W 6656  23.664  40.775   3.263
35128W        W 6657  40.884  43.202  13.266
35129W        W 6658  14.077   3.348   0.865
35130W        W 6659  23.130  18.035  13.344
35131W        W 6660  33.023  38.689   1.275
35132W        W 6661  22.815  26.491  14.889
35133W        W 6662  39.141  11.349  13.378
35134W        W 6663  26.413   3.347  14.265
35135W        W 6664  23.063  33.545   2.169
35136W        W 6665  17.031   7.720  11.590
35137W        W 6666  28.563  44.053   4.610
35138W        W 6667  22.148  25.124   0.757
35139W        W 6668  24.623  41.373   3.703
35140W        W 6669  30.298  33.654  14.437
35141W        W 6670  22.973  22.044   3.685
35142W        W 6671  13.987   5.433   0.904
35143W        W 6672  28.300  29.482   1.768
35144W        W 6673   4.876   1.696   3.642
35145W        W 6674  33.481  33.640   3.411
35146W        W 6675  39.979  37.398  10.370
35147W        W 6676  11.217  13.045   3.611
35148W        W 6677   2.288   6.206  11.257
35149W        W 6678  16.521   4.214   3.615
35150W        W 6679  32.104  42.867  12.986
35151W        W 6680  27.333  30.184  11.074
35152W        W 6681  13.769  39.545   1.678
35153W        W 6682  35.101  31.840   4.088
35154W        W 6683   7.944  38.928   1.761
35155W        W 6684  42.057   8.815   0.434
35156W        W 6685  26.885  35.520  10.767
35157W        W 6686  20.660  44.296   2.116
35158W        W 6687   8.058  42.664   3.877
35159W        W 6688  16.560  13.919  10.531
35160W        W 6689  44.501  19.492  14.351
35161W        W 6690  34.942  41.885  14.268
35162W        W 6691  43.440  42.857  11.155
35163W        W 6692   0.997  23.187   2.508
35164W        W 6693  43.969  40.804  14.153
35165W        W 6694   5.867  16.400  14.937
35166W        W 6695  43.832  36.885   1.314
35167W        W 6696  31.641   3.242  11.791
35168W        W 6697   1.531  22.013   3.395
35169W        W 6698  28.072  44.169   5.148
35170W        W 6699   7.325  16.864  10.658
35171W        W 6700  42.853   6.163  11.662
35172W        W 6701   2.371  32.093   1.927
35173W        W 6702  13.255   6.886  13.284
35174W        W 6703  11.756  25.688   0.963
35175W        W 6704  24.788  29.969  12.361
35176W        W 6705  23.605  34.939   2.581
35177W        W 6706  33.541  24.662   9.929
35178W        W 6707   9.509  43.971  13.056
35179W        W 6708  22.405  18.967  11.813
35180W        W 6709  36.925  22.551  12.534
35181W        W 6710  18.157  16.821   3.297
35182W        W 6711  13.891  11.483  11.184
35183W        W 6712  17.329  26.547   0.975
35184W        W 6713  29.827  14.358  13.530
35185W        W 6714   5.490  23.637  13.009
35186W        W 6715  40.005  42.936   2.448
35187W        W 6716   5.922  40.931  12.911
35188W        W 6717  22.739  27.062  14.472
35189W        W 6718  39.788   6.277   1.280
35190W        W 6719  30.253   3.349  14.596
35191W        W 6720  37.617  23.200   4.545
35192W        W 6721   1.999  33.990  11.020
35193W        W 6722  23.652  34.164  11.574
35194W        W 6723  29.493  38.151  14.903
35195W        W 6724  36.298  14.686   2.196
35196W        W 6725  13.451  16.791   0.097
35197W        W 6726  33.059  41.575  11.113
35198W        W 6727  25.221  44.324  14.034
35199W        W 6728   5.418  36.791   2.216
35200W        W 6729   7.275   6.276   0.963
35201W        W 6730  18.831   0.713  13.719
35202W        W 6731  42.400   5.151   3.248
35203W        W 6732  40.458  39.953   2.655
35204W        W 6733  18.021  22.162  12.622
35205W        W 6734   0.051   2.955  10.816
35206W        W 6735  28.629  43.051   2.365
35207W        W 6736  42.807  28.645   4.666
35208W        W 6737  11.471  16.529  13.320
35209W        W 6738  41.085  38.905  12.918
35210W        W 6739  10.825  27.517  12.342
35211W        W 6740  37.350   0.893   2.634
35212W        W 6741   5.786  35.495  13.867
35213W        W 6742  38.971  12.157  12.020
35214W        W 6743  39.837  10.278  14.788
35215W        W 6744  41.935  21.852   3.205
35216W        W 6745  28.576  34.947  14.342
35217W        W 6746  42.984  37.017  13.816
35218W        W 6747  37.353   2.999  10.606
35219W        W 6748   0.126  40.938   4.473
35220W        W 6749   9.415  20.528  11.511
35221W        W 6750  35.616  43.949   0.686
35222W        W 6751  11.710  26.204   4.184
35223W        W 6752  19.743  31.619   2.985
35224W        W 6753  32.733  43.688   4.107
35225W        W 6754  42.257  41.428  11.664
35226W        W 6755  29.315  26.091   1.120
35227W        W 6756  19.373   1.491   1.315
35228W        W 6757  12.546  39.823   1.317
35229W        W 6758  44.795  19.179   4.562
35230W        W 6759  14.220  19.249   3.556
35231W        W 6760  19.233  30.411   0.287
35232W        W 6761  10.313  26.964   1.015
35233W        W 6762  14.037  25.094   2.300
35234W        W 6763  39.758   7.830   4.591
35235W        W 6764  12.591  38.984   2.912
35236W        W 6765  28.489  15.810  10.766
35237W        W 6766  20.167  42.669   4.993
35238W        W 6767  19.323  43.265  13.999
35239W        W 6768  42.731  30.956  10.664
35240W        W 6769  42.516  21.436   2.690
35241W        W 6770  19.943  37.302   4.074
35242W        W 6771   6.805  13.293   4.294
35243W        W 6772  24.575   9.671   4.517
35244W        W 6773  32.634  25.969  13.361
35245W        W 6774  43.775  18.682   2.315
35246W        W 6775  41.044  25.608  11.646
35247W        W 6776   8.592  44.546  10.636
35248W        W 6777  29.597  14.855  12.847
35249W        W 6778  25.988   3.501   3.810
35250W        W 6779  10.103  44.996  12.304
35251W        W 6780   4.191  10.134  11.686
35252W        W 6781  13.933   3.965  11.418
35253W        W 6782  37.562  34.536   2.287
35254W        W 6783  15.124  26.290  11.610
35255W        W 6784  44.449   8.960   0.774
35256W        W 6785   1.830  33.335  11.781
35257W        W 6786   3.698  22.775  13.009
35258W        W 6787  34.338  24.755   1.510
35259W        W 6788  44.684  18.168  14.050
35260W        W 6789  44.189   3.396   4.412
35261W        W 6790  13.783  20.071   4.577
35262W        W 6791  32.143  34.646   0.624
35263W        W 6792  25.063  11.843  14.896
35264W        W 6793   0.521  16.102  13.495
35265W        W 6794  11.019  11.366   0.837
35266W        W 6795   6.363  10.531   2.578
35267W        W 6796  39.569  15.380  14.006
35268W        W 6797   7.197  12.717   2.248
35269W        W 6798   9.027  37.843  14.333
35270W        W 6799  41.345  30.478   4.740
35271W        W 6800  17.559  38.487  12.075
35272W        W 6801  44.528   5.467  11.977
35273W        W 6802  43.992  30.856  11.244
35274W        W 6803  42.422   5.382  12.873
35275W        W 6804  35.519  34.162  12.939
35276W        W 6805  22.205   3.329   2.751
35277W        W 6806  10.628   1.779  11.103
35278W        W 6807  34.613  41.772  11.701
35279W        W 6808  24.950  41.094  11.376
35280W        W 6809  30.897  27.068   1.266
35281W        W 6810  26.093  41.357   0.278
35282W        W 6811   4.223  25.294   1.849
35283W        W 6812  19.469  25.475  14.273
35284W        W 6813  18.574  38.784   2.247
35285W        W 6814  32.033  38.877  13.467
35286W        W 6815  14.195  26.395  14.420
35287W        W 6816  44.822  18.217  14.911
35288W        W 6817  43.345  43.472  14.064
35289W        W 6818  11.620   1.240   2.184
35290W        W 6819  23.615  10.012   2.865
35291W        W 6820  33.928  33.041  11.556
35292W        W 6821  38.849  39.224  14.694
35293W        W 6822  26.568  33.173  13.935
35294W        W 6823  36.561  40.746  12.012
35295W        W 6824  17.044  13.367  12.914
35296W        W 6825  20.312  38.525  13.592
35297W        W 6826  27.011  30.976   3.238
35298W        W 6827   9.248  19.208   3.808
35299W        W 6828  23.518  24.604   0.030
35300W        W 6829  44.862  32.446  14.838
35301W        W 6830  19.484  25.592   1.618
35302W        W 6831  11.674  10.048  14.049
35303W        W 6832   9.981  38.382  10.761
35304W        W 6833  12.630   0.087   0.299
35305W        W 6834  35.179  14.654  11.450
35306W        W 6835  15.054  32.944   2.434
35307W        W 6836   6.924   7.120  14.420
35308W        W 6837   3.776  16.764  10.637
35309W        W 6838   1.413  38.372  10.870
35310W        W 6839  21.822  34.378  11.690
35311W        W 6840  32.362  31.919  11.291
35312W        W 6841  42.588  19.672  10.708
35313W        W 6842  11.932  29.972   0.531
35314W        W 6843  40.779  42.121  11.088
35315W        W 6844   9.127   0.999  10.572
35316W        W 6845  20.297  24.113   0.711
35317W        W 6846  32.612  11.398  13.840
35318W        W 6847  19.205  33.222  14.080
35319W        W 6848  41.768   5.131   0.388
35320W        W 6849  42.888  22.978  13.436
35321W        W 6850  19.296  10.209  12.526
35322W        W 6851  17.356  17.747   1.407
35323W        W 6852  29.474  13.022   2.792
35324W        W 6853  27.510  18.625   0.437
35325W        W 6854  32.942  37.573  12.493
35326W        W 6855  34.874  10.188   4.585
35327W        W 6856   9.581  13.629   4.273
35328W        W 6857  34.052  32.998  10.499
35329W        W 6858  14.745  15.908   2.289
35330W        W 6859  31.609  17.629  13.514
35331W        W 6860  32.942  37.029   3.251
35332W        W 6861  37.801   7.337   1.482
35333W        W 6862  44.889   5.836   1.319
35334W        W 6863  29.577  26.971   1.786
35335W        W 6864  33.310  10.154   2.283
35336W        W 6865  34.402  32.463   3.973
35337W        W 6866  23.691  10.981   0.748
35338W        W 6867  10.875   8.630  12.875
35339W        W 6868  24.880  43.228   2.694
35340W        W 6869   4.873   3.449  10.040
35341W        W 6870  44.038  36.617  11.581
35342W        W 6871  39.565   1.057  13.798
35343W        W 6872   2.892  41.696  14.841
35344W        W 6873   5.510  30.836   0.413
35345W        W 6874  35.621  22.591  14.376
35346W        W 6875   0.708  12.205  14.653
35347W        W 6876  26.760   8.265  13.970
35348W        W 6877  17.638  39.957   2.613
35349W        W 6878  35.876  14.055   1.427
35350W        W 6879   6.444  22.897   3.281
35351W        W 6880  28.472  17.085  14.935
35352W        W 6881  13.222   6.137  12.553
35353W        W 6882  15.195   8.416   1.834
35354W        W 6883   9.354   8.435  11.613
35355W        W 6884  16.663  34.900   4.791
35356W        W 6885  35.970  38.789  13.380
35357W        W 6886  28.014   7.767   3.413
35358W        W 6887   4.296  12.863  14.504
35359W        W 6888   4.934  17.302   3.011
35360W        W 6889  14.773   9.217   3.636
35361W        W 6890   0.121  32.936  14.328
35362W        W 6891  18.482   6.388   0.671
35363W        W 6892  27.745  37.528   4.925
35364W        W 6893  24.025   9.002   9.825
35365W        W 6894  44.020  10.265   1.733
35366W        W 6895  22.544  15.534   0.390
35367W        W 6896  37.633  41.731  13.534
35368W        W 6897   9.341  39.275   2.725
35369W        W 6898   5.707   7.889  12.013
35370W        W 6899  32.468   5.436   2.496
35371W        W 6900  17.806  32.001   4.586
35372W        W 6901  37.846  40.603  13.866
35373W        W 6902   0.220   5.100  11.542
35374W        W 6903  34.353  27.765  13.502
35375W        W 6904  21.874  21.055  12.027
35376W        W 6905  34.337  33.410   4.751
35377W        W 6906  28.737  15.610   1.355
35378W        W 6907   5.393   0.038   3.189
35379W        W 6908  17.598  42.574   1.737
35380W        W 6909  44.399  41.383  10.713
35381W        W 6910  10.477  34.161  12.447
35382W        W 6911  34.914  13.557   4.151
35383W        W 6912  41.853   1.702  11.167
35384W        W 6913  39.163   6.290  12.122
35385W        W 6914  28.569   5.924   1.862
35386W        W 6915  16.759  20.203   1.436
35387W        W 6916   3.551  25.464  14.960
35388W        W 6917   6.308  31.579  13.956
35389W        W 6918  36.554  34.120   0.278
35390W        W 6919  19.039  17.835   4.075
35391W        W 6920   5.104  29.628  11.501
35392W        W 6921  16.602   1.442  11.154
35393W        W 6922  35.477  12.468  13.307
35394W        W 6923   3.486  16.292   4.263
35395W        W 6924   7.420  31.954   1.324
35396W        W 6925  29.140  16.190   4.229
35397W        W 6926  26.004  32.048   2.294
35398W        W 6927  18.271  42.484  13.052
35399W        W 6928   3.140  16.363  14.944
35400W        W 6929  29.477   9.428  12.128
35401W        W 6930  13.223  12.870  12.621
35402W        W 6931  35.913  11.516   3.263
35403W        W 6932  41.339  28.352  13.509
35404W        W 6933  37.380  12.864  13.427
35405W        W 6934  12.600   5.440  13.395
35406W        W 6935  16.316  32.985   2.664
35407W        W 6936  20.251  13.212  12.672
35408W        W 6937  26.216   8.892   2.183
35409W        W 6938  19.543  13.795  12.967
35410W        W 6939  24.189  38.619  11.437
35411W        W 6940  26.676  31.368   3.314
35412W        W 6941  17.291  37.440   1.377
35413W        W 6942  31.938  35.802  13.356
35414W        W 6943  40.717  21.308  14.051
35415W        W 6944  37.994  41.585  13.901
35416W        W 6945  39.835  13.972   5.061
35417W        W 6946  38.103  18.745   1.264
35418W        W 6947  24.705  10.624   0.857
35419W        W 6948  28.971   0.030   1.748
35420W        W 6949   8.171  33.570   3.937
35421W        W 6950  23.432  38.626   2.169
35422W        W 6951  36.994  33.934   0.514
35423W        W 6952  14.551  43.488  11.199
35424W        W 6953  32.385  43.366   2.209
35425W        W 6954  33.873  10.383  10.532
35426W        W 6955  31.718  22.894   4.963
35427W        W 6956  36.369  43.257  11.239
35428W        W 6957  14.290  32.019   2.729
35429W        W 6958  26.931  39.520  10.609
35430W        W 6959  28.028  33.962   2.678
35431W        W 6960  18.654  17.429  12.741
35432W        W 6961   2.350  26.646   1.390
35433W        W 6962  38.082   7.519   1.888
35434W        W 6963  12.512  36.362   2.583
35435W        W 6964  16.212  21.359   0.859
35436W        W 6965   2.291  35.352   3.135
35437W        W 6966  24.769  38.421   2.724
35438W        W 6967  25.665   6.319  13.019
35439W        W 6968  34.801   3.191  11.960
35440W        W 6969  20.258  14.724   2.211
35441W        W 6970   2.062  31.673   1.895
35442W        W 6971   6.228  21.716   0.015
35443W        W 6972  39.636   4.740  12.143
35444W        W 6973  10.672  16.359   2.737
35445W        W 6974  37.202  35.894   3.107
35446W        W 6975  17.818   8.240   3.384
35447W        W 6976   3.816   6.490  10.759
35448W        W 6977   2.868  25.486  13.372
35449W        W 6978  11.195  33.092   0.655
35450W        W 6979  27.130  34.681   2.356
35451W        W 6980  44.987  13.888   2.203
35452W        W 6981  20.244  36.837  13.820
35453W        W 6982  28.595  29.993   0.262
35454W        W 6983  21.735   7.791   0.808
35455W        W 6984   3.809  33.126  10.491
35456W        W 6985   0.751  41.708   1.657
35457W        W 6986  22.653  18.855  13.541
35458W        W 6987  25.384  38.866  14.543
35459W        W 6988  28.320   6.329   0.134
35460W        W 6989  37.319  28.481  11.585
35461W        W 6990  24.802  38.502   4.067
35462W        W 6991  22.909  11.142  12.981
35463W        W 6992   2.081   4.687  12.432
35464W        W 6993   8.812   2.490   3.636
35465W        W 6994  44.460   5.652  11.512
35466W        W 6995  30.110  28.106   4.972
35467W        W 6996  10.411   8.485   0.468
35468W        W 6997   7.237  20.478  14.143
35469W        W 6998   4.317   1.973   2.855
35470W        W 6999   5.190   5.411   4.058
35471W        W 7000  36.023  15.677   2.885
35472W        W 7001  27.586  15.615   3.377
35473W        W 7002  15.249  40.948  10.643
35474W        W 7003  30.500  21.646   4.280
35475W        W 7004   0.558  39.024  12.282
35476W        W 7005   3.808  17.531   1.719
35477W        W 7006  37.502  22.773  11.687
35478W        W 7007  21.555   9.389  13.346
35479W        W 7008  33.885  14.187   2.407
35480W        W 7009  19.577   7.352  13.449
35481W        W 7010  20.277  42.401  11.905
35482W        W 7011   8.312  41.085   2.702
35483W        W 7012  30.953  26.002   0.447
35484W        W 7013  13.788  40.798   2.663
35485W        W 7014  18.831  38.430   2.697
35486W        W 7015   0.897  39.797   1.121
35487W        W 7016  26.052  25.125   3.587
35488W        W 7017  34.421  44.520   4.569
35489W        W 7018  25.091   0.455  12.277
35490W        W 7019   0.722  24.758  11.576
35491W        W 7020  32.111  22.707  11.151
35492W        W 7021  14.224  37.352   4.074
35493W        W 7022  11.871  39.981  11.920
35494W        W 7023  41.278  19.584  11.384
35495W        W 7024  18.501  37.985   1.806
35496W        W 7025  23.135  28.108  14.018
35497W        W 7026  41.754  32.137  12.914
35498W        W 7027  15.433  21.700   2.438
35499W        W 7028  19.984  24.972   4.979
35500W        W 7029  27.485  31.593  14.106
35501W        W 7030  43.723  24.571  12.014
35502W        W 7031  36.220  18.858  11.078
35503W        W 7032  38.192  11.793   4.475
35504W        W 7033  26.216   3.100   4.250
35505W        W 7034  18.697  22.805  11.018
35506W        W 7035   4.243  27.879  12.564
35507W        W 7036  21.299  31.884  12.922
35508W        W 7037   2.349  28.425   4.379
35509W        W 7038  11.092   8.712   1.843
35510W        W 7039  22.498   1.375   4.698
35511W        W 7040  12.098  37.343  13.832
35512W        W 7041  41.895  27.653   0.540
35513W        W 7042  42.496  38.858  13.977
35514W        W 7043  12.864  38.102   1.629
35515W        W 7044  14.695   1.269   2.125
35516W        W 7045  11.072  36.449   2.010
35517W        W 7046   4.725  25.147   2.530
35518W        W 7047  21.370  39.642  12.586
35519W        W 7048  23.552  37.456   4.019
35520W        W 7049  21.028  40.967  10.705
35521W        W 7050  27.003  20.295  10.620
35522W        W 7051  43.004   8.468  11.173
35523W        W 7052  12.649  34.531   3.101
35524W        W 7053  23.244  36.006  10.930
35525W        W 7054   4.499   0.724   4.059
35526W        W 7055  25.712   2.739  14.268
35527W        W 7056   0.598  26.573   2.334
35528W        W 7057  22.622  12.721   4.819
35529W        W 7058  16.104  34.917  10.668
35530W        W 7059  25.440  14.144   9.829
35531W        W 7060  22.526  15.774  10.124
35532W        W 7061  16.029  22.271  11.621
35533W        W 7062  28.774  36.182  12.893
35534W        W 7063   8.692  42.574   4.552
35535W        W 7064   7.865  10.654  10.581
35536W        W 7065  23.114   2.980   0.889
35537W        W 7066  28.199   6.135  11.465
35538W        W 7067   6.666  31.925  13.147
35539W        W 7068   3.392  36.389  14.974
35540W        W 7069   6.491  34.652   1.962
35541W        W 7070  34.142  34.523   4.335
35542W        W 7071   2.187   7.636   0.974
35543W        W 7072  30.318  10.175   3.092
35544W        W 7073  36.198   3.858   1.918
35545W        W 7074  29.496  34.089  14.959
35546W        W 7075  39.011  34.139  11.900
35547W        W 7076  44.353  22.721  10.723
35548W        W 7077  41.766  34.023   0.253
35549W        W 7078  33.439   3.664   0.876
35550W        W 7079  15.122  42.804   4.646
35551W        W 7080  23.731  25.523   2.074
35552W        W 7081   4.360  18.157  12.780
35553W        W 7082  17.582  37.834   0.163
35554W        W 7083  33.618  21.563  14.868
35555W        W 7084   8.202   2.788  14.180
35556W        W 7085  10.633   8.933   4.098
35557W        W 7086  28.109   6.763   1.808
35558W        W 7087   9.942  13.444  11.635
35559W        W 7088  20.987  31.444  13.925
35560W        W 7089  29.798  17.001  13.765
35561W        W 7090  12.919  27.987   0.760
35562W        W 7091  23.239   6.782  11.270
35563W        W 7092  42.873  13.667  14.762
35564W        W 7093   8.872  17.229  11.106
35565W        W 7094   3.901  39.588   0.241
35566W        W 7095  19.003   5.468   2.270
35567W        W 7096  16.192  10.707  14.081
35568W        W 7097  11.787  44.811  13.946
35569W        W 7098   6.464  29.623  13.941
35570W        W 7099  33.002   0.080   0.636
35571W        W 7100  24.737   6.743  10.931
35572W        W 7101  11.578  36.220  13.836
35573W        W 7102  39.260  28.802  14.438
35574W        W 7103  37.843  23.686   4.574
35575W        W 7104  43.461   6.826   4.581
35576W        W 7105  13.820  13.795  13.008
35577W        W 7106   6.732  11.282   1.871
35578W        W 7107  43.994  16.003  12.630
35579W        W 7108  11.814   8.835  12.165
35580W        W 7109  16.624  30.947   3.281
35581W        W 7110  43.960  32.589   4.151
35582W        W 7111  16.700   4.061  13.551
35583W        W 7112  14.246  10.153   0.010
35584W        W 7113  42.850   3.222  12.558
35585W        W 7114  38.736  15.260   1.949
35586W        W 7115  41.906  14.813   0.298
35587W        W 7116   4.802   6.648  11.839
35588W        W 7117  43.447  16.014   3.860
35589W        W 7118  38.541   1.816   3.392
35590W        W 7119  20.309   0.878  11.025
35591W        W 7120  25.242  25.535   3.063
35592W        W 7121   3.054  16.174   2.281
35593W        W 7122   8.726  39.893  12.415
35594W        W 7123  28.075  44.948  11.057
35595W        W 7124  32.385  15.569   1.439
35596W        W 7125  16.773  24.032   3.133
35597W        W 7126  17.090  26.501  14.047
35598W        W 7127  23.941  16.084   1.880
35599W        W 7128  19.735  18.804  14.860
35600W        W 7129  20.016  40.918  10.748
35601W        W 7130  27.247  43.365  10.550
35602W        W 7131  15.660  26.257  13.451
35603W        W 7132  16.147  33.495  10.011
35604W        W 7133   9.674  44.700  12.139
35605W        W 7134  14.564  12.183  11.650
35606W        W 7135  20.469  29.718  13.046
35607W        W 7136   6.350  18.263  13.878
35608W        W 7137  16.637  22.664  10.676
35609W        W 7138  42.246  14.825   3.333
35610W        W 7139  19.624  43.848   1.440
35611W        W 7140  16.022  12.182  13.848
35612W        W 7141  35.075  17.806   3.815
35613W        W 7142  20.457  19.348  12.976
35614W        W 7143  20.912  42.449   1.658
35615W        W 7144  36.027   7.657  12.491
35616W        W 7145  10.302  42.898   3.055
35617W        W 7146  34.570  29.584   4.186
35618W        W 7147  39.603  35.575   0.322
35619W        W 7148  37.732  17.736  12.641
35620W        W 7149  22.275   8.831  13.047
35621W        W 7150  24.856  10.664  14.023
35622W        W 7151  10.223  24.970  14.883
35623W        W 7152  26.988   6.437  12.855
35624W        W 7153  19.666   0.259   2.299
35625W        W 7154  40.927   6.796  10.818
35626W        W 7155  28.072  28.155   2.643
35627W        W 7156  31.548  11.831   3.088
35628W        W 7157  36.760  38.998  12.780
35629W        W 7158  14.883  22.755   1.245
35630W        W 7159   2.573  29.073  14.273
35631W        W 7160  40.610  19.152   4.710
35632W        W 7161  12.291   7.930  11.064
35633W        W 7162  30.951  34.140   0.980
35634W        W 7163  41.826  30.378  12.056
35635W        W 7164  39.864  20.814   0.865
35636W        W 7165  15.602  40.206   1.231
35637W        W 7166   0.488  38.847   2.454
35638W        W 7167   2.797  39.454  11.063
35639W        W 7168   2.870   2.409  10.881
35640W        W 7169  22.960  37.451  10.793
35641W        W 7170  31.976  11.853  11.524
35642W        W 7171   1.625  15.050  11.605
35643W        W 7172   7.494  33.028   4.241
35644W        W 7173  27.692   5.773   3.544
35645W        W 7174  16.115   6.439   3.451
35646W        W 7175  40.424  33.226  12.542
35647W        W 7176  39.799  43.895   1.455
35648W        W 7177  36.887  27.625  11.199
35649W        W 7178  15.421  19.334   2.806
35650W        W 7179  21.843   1.914   2.849
35651W        W 7180   5.334  37.301   2.180
35652W        W 7181   9.312  33.085  14.277
35653W        W 7182  14.685   7.599   0.941
35654W        W 7183  21.391  43.399   1.539
35655W        W 7184  37.235  33.317  10.113
35656W        W 7185   5.009  16.989  14.831
35657W        W 7186  16.529  26.694  11.515
35658W        W 7187  41.193  32.366   4.136
35659W        W 7188  26.740   7.231  14.801
35660W        W 7189  17.636  35.814  11.980
35661W        W 7190  10.057  41.727  11.945
35662W        W 7191  35.020  41.132   0.260
35663W        W 7192  23.041   9.183  11.937
35664W        W 7193   1.896   0.970   0.317
35665W        W 7194  44.425   2.756   3.653
35666W        W 7195  44.126  36.708   3.677
35667W        W 7196  41.533   5.047   3.224
35668W        W 7197  32.561   7.661  12.512
35669W        W 7198   5.326  31.588   4.183
35670W        W 7199  38.827  20.563   4.624
35671W        W 7200  10.615  11.631   2.263
35672W        W 7201  44.542  42.830  14.705
35673W        W 7202  44.446  41.133   1.938
35674W        W 7203  27.465  42.263   3.390
35675W        W 7204  23.926  34.160   4.075
35676W        W 7205  30.174  17.141   3.114
35677W        W 7206   3.989  25.751   1.780
35678W        W 7207  41.782  33.441  13.272
35679W        W 7208  23.495  33.236   3.575
35680W        W 7209  15.092  16.047   1.872
35681W        W 7210  38.899  14.861  11.508
35682W        W 7211   6.300  21.598   4.844
35683W        W 7212  17.668  42.212  11.176
35684W        W 7213   7.217  25.127  12.962
35685W        W 7214   0.331   3.768   0.759
35686W        W 7215  10.326  37.647   2.339
35687W        W 7216  30.324   7.132   2.360
35688W        W 7217  20.088  17.252   2.865
35689W        W 7218   0.565  25.039   0.857
35690W        W 7219   6.842   9.123  13.372
35691W        W 7220  19.353   3.452  12.968
35692W        W 7221  40.420  40.054   0.761
35693W        W 7222  23.676   9.849   4.087
35694W        W 7223  37.030   0.472  12.050
35695W        W 7224  23.705  33.053  14.504
35696W        W 7225  38.518  27.541   0.275
35697W        W 7226  24.423  40.780   3.767
35698W        W 7227  15.637  20.559  14.891
35699W        W 7228  41.723  19.694  11.157
35700W        W 7229   1.813  19.490  10.695
35701W        W 7230  35.159  21.612  13.948
35702W        W 7231  38.793  29.474  13.583
35703W        W 7232  25.371  24.685  14.492
35704W        W 7233   2.212  20.192  11.965
35705W        W 7234   2.261  18.548  12.939
35706W        W 7235  13.158  10.951  14.086
35707W        W 7236   3.723  26.153  11.166
35708W        W 7237   4.912  14.371  11.881
35709W        W 7238  19.740  23.698   3.258
35710W        W 7239  41.344  19.301  12.379
35711W        W 7240  38.404   5.447  10.890
35712W        W 7241   2.420   1.889  14.729
35713W        W 7242  42.497  11.793   2.432
35714W        W 7243  34.146   4.262   0.181
35715W        W 7244  19.637  18.209   3.740
35716W        W 7245  19.488  16.335  11.909
35717W        W 7246   1.477  25.518  13.353
35718W        W 7247  14.897   8.225  14.878
35719W        W 7248  37.463  16.109   4.934
35720W        W 7249   6.283   3.714   2.424
35721W        W 7250   8.201   4.188   1.463
35722W        W 7251  20.573  29.965   1.678
35723W        W 7252  40.910  40.373  13.807
35724W        W 7253  27.936  22.661  11.625
35725W        W 7254  40.081  10.128   4.443
35726W        W 7255  29.738  26.756  13.798
35727W        W 7256  42.040  24.910  10.555
35728W        W 7257  41.069   7.053  12.924
35729W        W 7258  14.709  31.112   0.464
35730W        W 7259   0.434   7.412  11.168
35731W        W 7260  15.193  31.990  10.311
35732W        W 7261  37.940  28.947   2.625
35733W        W 7262   2.254  16.085  14.276
35734W        W 7263  26.220  19.932   3.367
35735W        W 7264   8.317   5.477   4.489
35736W        W 7265  43.166  12.604  13.875
35737W        W 7266  12.687  32.645   4.362
35738W        W 7267  31.523  44.902  13.596
35739W        W 7268  17.293  23.905  11.531
35740W        W 7269  20.490  15.140   2.368
35741W        W 7270  23.089  20.264   1.910
35742W        W 7271  35.836  36.620   0.816
35743W        W 7272  22.052  42.036  11.815
35744W        W 7273  29.775   6.676  12.568
35745W        W 7274  27.836   0.999   0.967
35746W        W 7275  32.978  44.915   4.334
35747W        W 7276  31.446  24.562   0.361
35748W        W 7277  28.484  21.799   1.520
35749W        W 7278   4.479   7.306   4.626
35750W        W 7279  21.592   8.283   2.579
35751W        W 7280  10.829   3.317  11.167
35752W        W 7281  36.475  39.485   1.469
35753W        W 7282   4.950   0.010   0.401
35754W        W 7283  11.851  28.376   1.605
35755W        W 7284  17.581  27.767  14.120
35756W        W 7285  25.541  31.328   3.905
35757W        W 7286   9.736  35.128   4.537
35758W        W 7287  17.343   9.713   4.164
35759W        W 7288  18.492  24.203  14.313
35760W        W 7289  36.946  25.573   4.708
35761W        W 7290  10.679   0.843   4.153
35762W        W 7291  37.502  25.227   3.938
35763W        W 7292  28.530  26.751  11.617
35764W        W 7293  16.027  44.976   4.018
35765W        W 7294  23.206  22.175  10.948
35766W        W 7295  32.661   0.915  14.474
35767W        W 7296  13.420  42.822   3.899
35768W        W 7297  10.190  22.138   1.361
35769W        W 7298   8.881  36.536   4.584
35770W        W 7299   6.990  31.055   1.469
35771W        W 7300  34.877   4.206  12.949
35772W        W 7301  32.597  29.454   2.223
35773W        W 7302  37.875  14.723  11.118
35774W        W 7303  15.870  20.052  13.915
35775W        W 7304  28.924  30.644   1.881
35776W        W 7305   5.955  24.664   0.009
35777W        W 7306  42.831  19.190  12.561
35778W        W 7307  32.001  29.382  14.900
35779W        W 7308  42.220  30.546   2.280
35780W        W 7309  10.869   5.808  14.804
35781W        W 7310  35.470  30.743  12.014
35782W        W 7311   2.061  42.313   2.328
35783W        W 7312  12.249  42.188   4.575
35784W        W 7313  19.103  35.598  13.425
35785W        W 7314  40.046  17.672  14.075
35786W        W 7315   0.722  29.094  12.690
35787W        W 7316  10.550  31.568   2.761
35788W        W 7317  20.546  30.889   1.699
35789W        W 7318  22.782  28.119   2.547
35790W        W 7319   6.814  21.102   1.092
35791W        W 7320   8.362   0.570  10.779
35792W        W 7321  26.535   3.250  13.389
35793W        W 7322  24.108  23.617  11.742
35794W        W 7323  41.397  36.027   3.708
35795W        W 7324  25.088  25.008   1.813
35796W        W 7325   5.756  31.690   2.751
35797W        W 7326   5.907  30.462  11.495
35798W        W 7327  15.033  36.460   3.560
35799W        W 7328  10.638  16.243  10.496
35800W        W 7329  24.867   4.805  12.164
35801W        W 7330   1.708  29.342  12.418
35802W        W 7331   9.839  34.016   1.256
35803W        W 7332   9.720  20.434   4.500
35804W        W 7333  31.663  27.965   0.282
35805W        W 7334  44.548  24.506  13.010
35806W        W 7335  31.206  27.550  10.667
35807W        W 7336   1.268  20.699   0.117
35808W        W 7337   4.393  13.106   2.872
35809W        W 7338  40.234   9.767  13.548
35810W        W 7339   7.650  43.313   4.632
35811W        W 7340   1.245  44.172   4.279
35812W        W 7341  43.732  41.656  14.059
35813W        W 7342  29.426  19.490  11.575
35814W        W 7343  17.085  20.998  12.082
35815W        W 7344  37.495   9.445  13.774
35816W        W 7345  29.449  36.418  10.245
35817W        W 7346   5.896  19.594  12.038
35818W        W 7347   3.635   0.785   3.596
35819W        W 7348  43.646  42.785  12.420
35820W        W 7349  37.910  12.590   2.809
35821W        W 7350   1.774  40.927  12.143
35822W        W 7351  17.184  16.355  14.237
35823W        W 7352  19.007  37.771   4.135
35824W        W 7353  10.757   9.863   4.792
35825W        W 7354  33.437  21.454   9.924
35826W        W 7355  34.935  13.414  11.739
35827W        W 7356   9.757  34.418  13.921
35828W        W 7357   0.469  20.209  14.377
35829W        W 7358  13.334  44.452   2.280
35830W        W 7359   2.498  37.408   2.179
35831W        W 7360  33.291  16.698   2.114
35832W        W 7361  26.249  21.612  12.372
35833W        W 7362  19.831  43.882   2.424
35834W        W 7363   3.435  15.762  10.352
35835W        W 7364  14.186   8.899  13.770
35836W        W 7365  35.411   4.059   0.184
35837W        W 7366  43.938   8.754  10.754
35838W        W 7367  13.937  36.065  13.882
35839W        W 7368  27.328  34.909  14.746
35840W        W 7369  20.518  12.254  13.609
35841W        W 7370   9.678  27.335   4.284
35842W        W 7371   7.290  16.285  13.937
35843W        W 7372  28.226   0.437  11.827
35844W        W 7373  15.844  25.892  11.169
35845W        W 7374  38.875  28.572   1.242
35846W        W 7375  42.702  38.749  12.093
35847W        W 7376  33.259   5.818  11.281
35848W        W 7377  27.466  18.250   4.582
35849W        W 7378  44.320  17.014  10.073
35850W        W 7379  10.732  33.589   2.458
35851W        W 7380  39.985   5.750   3.675
35852W        W 7381  28.845  28.541   1.670
35853W        W 7382  38.046   2.564  13.959
35854W        W 7383  29.616   7.319   4.187
35855W        W 7384  40.742  28.879   3.197
35856W        W 7385  22.602  37.805   0.976
35857W        W 7386  34.860  40.324   3.933
35858W        W 7387   7.349  25.728   0.095
35859W        W 7388   0.522   0.788  13.957
35860W        W 7389  21.071  32.666   4.550
35861W        W 7390  11.231  31.660  13.868
35862W        W 7391   9.392  42.825  11.040
35863W        W 7392  36.581   4.653  13.782
35864W        W 7393  29.537   0.797  11.828
35865W        W 7394  40.530  26.247  13.511
35866W        W 7395  38.610   9.372   2.825
35867W        W 7396  17.291   8.408  11.130
35868W        W 7397   2.400   6.185  13.862
35869W        W 7398  27.593  33.371   3.259
35870W        W 7399   7.362   9.347  12.075
35871W        W 7400   0.639  21.385   5.019
35872W        W 7401  44.301  28.192   1.028
35873W        W 7402  43.432  11.669   1.321
35874W        W 7403   7.732  33.517   4.567
35875W        W 7404  11.397  43.955  11.677
35876W        W 7405  30.323  29.619  13.413
35877W        W 7406   9.411  28.501  12.376
35878W        W 7407  35.086  38.677   0.236
35879W        W 7408  15.815   2.756  11.484
35880W        W 7409  13.623  14.088   0.823
35881W        W 7410   5.666  32.292   0.581
35882W        W 7411  10.251   3.285   1.487
35883W        W 7412  16.851  37.122   1.375
35884W        W 7413  38.406   3.511   1.717
35885W        W 7414   7.298  13.859   3.207
35886W        W 7415  29.471  30.744  12.231
35887W        W 7416  15.079  20.260  14.930
35888W        W 7417  20.981  34.231   0.054
35889W        W 7418   0.226  16.818  11.095
35890W        W 7419  18.566  41.360   4.591
35891W        W 7420  13.388  15.664  13.982
35892W        W 7421  38.660   4.826   0.907
35893W        W 7422  19.626   3.942  11.215
35894W        W 7423  21.511  23.777  14.768
35895W        W 7424  24.226  15.428  10.812
35896W        W 7425   0.786  43.062  12.105
35897W        W 7426  38.901   9.284  12.585
35898W        W 7427  30.092  44.754  11.318
35899W        W 7428  33.322  21.306   4.334
35900W        W 7429  23.023  33.430   3.725
35901W        W 7430  20.236  39.941  14.441
35902W        W 7431  18.668  24.664   4.874
35903W        W 7432  16.246  33.842  11.681
35904W        W 7433  24.081  20.624   3.309
35905W        W 7434  34.185  27.738  14.184
35906W        W 7435  11.739  24.969  11.581
35907W        W 7436  13.627   2.942  10.506
35908W        W 7437  22.239  10.783   3.277
35909W        W 7438  35.513  31.194   0.214
35910W        W 7439   4.744   6.839   1.913
35911W        W 7440  26.594   0.285   4.662
35912W        W 7441  12.305  11.611   0.435
35913W        W 7442   7.706  38.250   1.216
35914W        W 7443  43.448  35.138   3.297
35915W        W 7444  25.361  33.134  11.945
35916W        W 7445  25.550  26.964   2.876
35917W        W 7446  36.869  41.423  12.600
35918W        W 7447   2.767  22.800   4.131
35919W        W 7448  24.105   9.351   2.660
35920W        W 7449  26.145  30.330  12.617
35921W        W 7450  30.855  20.667  10.394
35922W        W 7451   3.275   2.498  12.457
35923W        W 7452   2.991  26.730  11.890
35924W        W 7453  31.870  12.605  14.844
35925W        W 7454  26.849  28.808  12.896
35926W        W 7455  15.248  36.511  10.816
35927W        W 7456  23.477  20.748   2.399
35928W        W 7457  23.638  29.150  13.181
35929W        W 7458  26.346  44.027  13.041
35930W        W 7459  38.200  24.112   4.245
35931W        W 7460   4.899  16.056   2.047
35932W        W 7461  42.105  11.655   4.654
35933W        W 7462  22.053  11.355   0.909
35934W        W 7463  12.028  17.100   0.027
35935W        W 7464  41.824  22.583  14.883
35936W        W 7465  44.984  43.973  14.298
35937W        W 7466  11.801  35.408  13.461
35938W        W 7467  41.492  17.521   2.924
35939W        W 7468   7.190  38.557   3.627
35940W        W 7469  12.165   5.311   3.277
35941W        W 7470  14.674  15.589  11.549
35942W        W 7471   6.302  31.187   2.013
35943W        W 7472  13.093  15.719   5.171
35944W        W 7473  41.330   6.479   3.733
35945W        W 7474   7.174  35.301   2.885
35946W        W 7475  38.427  24.665  13.208
35947W        W 7476  30.854  41.991  13.984
35948W        W 7477  19.595  23.122   2.391
35949W        W 7478   0.329   0.004   4.826
35950W        W 7479   1.390  17.688  10.864
35951W        W 7480  19.287   2.882  12.190
35952W        W 7481   3.313  28.945   3.898
35953W        W 7482   1.780  20.115  12.903
35954W        W 7483   6.787  16.792   4.752
35955W        W 7484  10.158  41.265  14.918
35956W        W 7485  28.215  27.405   2.888
35957W        W 7486   9.679  18.810  14.756
35958W        W 7487  27.669  17.270   3.277
35959W        W 7488  38.553  41.528   5.045
35960W        W 7489   7.608  20.186  13.878
35961W        W 7490  32.995  32.418   0.303
35962W        W 7491  12.208   9.299  11.273
35963W        W 7492  36.967  19.708   1.955
35964W        W 7493  37.809  23.438  11.934
35965W        W 7494  37.432  38.473  13.134
35966W        W 7495  31.899  11.857   2.702
35967W        W 7496  43.841  13.691   3.851
35968W        W 7497  14.543  36.812   0.411
35969W        W 7498  13.475  28.189  10.609
35970W        W 7499   0.522  21.788  14.406
35971W        W 7500  44.647  17.251   3.675
35972W        W 7501  27.004  36.632  11.621
35973W        W 7502  29.649  25.920  14.945
35974W        W 7503  32.630  44.480   1.319
35975W        W 7504  26.217  13.140  13.030
35976W        W 7505  31.105  38.034   0.248
35977W        W 7506  41.213  43.692  14.427
35978W        W 7507  10.251  14.296   1.920
35979W        W 7508   6.414  10.879   3.949
35980W        W 7509  42.224  36.039   1.384
35981W        W 7510  10.000  35.776  14.319
35982W        W 7511  42.859  43.531   3.796
35983W        W 7512  42.711   1.242  12.552
35984W        W 7513   6.155  20.539  12.189
35985W        W 7514  43.286  28.490   0.552
35986W        W 7515  30.562   4.271  12.612
35987W        W 7516  38.056  18.907  11.730
35988W        W 7517  40.483   5.131   1.435
35989W        W 7518  44.542   8.699  13.353
35990W        W 7519  26.709  34.615   2.646
35991W        W 7520  38.241   4.945  13.899
35992W        W 7521   6.456  43.039   3.357
35993W        W 7522  32.605  29.542   0.258
35994W        W 7523  43.968   7.956  13.280
35995W        W 7524  21.776   1.858  12.514
35996W        W 7525  19.219  34.458  13.461
35997W        W 7526  27.630  31.407   3.085
35998W        W 7527  24.539  12.191   2.330
35999W        W 7528  12.592  35.087  13.066
36000W        W 7529  30.980  25.967  13.694
36001W        W 7530  23.221  36.379  12.979
36002W        W 7531   3.224  23.529   4.132
36003W        W 7532  43.409  41.369   0.889
36004W        W 7533  36.686  31.080   1.855
36005W        W 7534  10.829  10.602  13.991
36006W        W 7535   5.178  19.202   1.835
36007W        W 7536  16.584  15.941  12.099
36008W        W 7537  44.544   3.854  12.876
36009W        W 7538   2.736  11.763   4.194
36010W        W 7539   9.346  17.564   0.980
36011W        W 7540  34.847   9.208   4.048
36012W        W 7541  14.025  24.808  12.748
36013W        W 7542  23.153  16.827   1.796
36014W        W 7543  13.362  24.043  13.041
36015W        W 7544  20.556  10.718  14.410
36016W        W 7545  12.101  26.146  12.893
36017W        W 7546   8.112  22.720   1.575
36018W        W 7547  10.664  29.714   2.400
36019W        W 7548  34.967   2.676   4.675
36020W        W 7549  21.325  21.611   2.297
36021W        W 7550  16.479  42.900  11.115
36022W        W 7551   7.640  35.977   5.063
36023W        W 7552  40.941  37.784   4.737
36024W        W 7553  35.986  25.660  10.991
36025W        W 7554  38.123  22.015   3.661
36026W        W 7555  12.763  32.201   2.318
36027W        W 7556   3.302   4.890   4.330
36028W        W 7557  22.500  38.395   1.679
36029W        W 7558  12.156  30.213   4.533
36030W        W 7559  11.061  22.213  14.498
36031W        W 7560   9.866  14.748   1.486
36032W        W 7561  25.308  19.123  13.792
36033W        W 7562   1.102  30.008   0.974
36034W        W 7563  40.993  23.361   3.218
36035W        W 7564  37.817  24.539   0.854
36036W        W 7565  33.636  19.997   4.164
36037W        W 7566   0.666  27.744   1.233
36038W        W 7567  15.905  38.847  10.316
36039W        W 7568  14.861  23.375   1.887
36040W        W 7569   0.228  28.210   2.027
36041W        W 7570  35.465  23.608   4.610
36042W        W 7571  18.800  16.377  13.546
36043W        W 7572  31.159  31.942  11.212
36044W        W 7573  20.385  11.911  14.844
36045W        W 7574  29.097  43.347   0.048
36046W        W 7575   0.278  41.021  14.374
36047W        W 7576  15.155  10.564  11.149
36048W        W 7577  22.150   7.489  13.313
36049W        W 7578   3.637  15.667  12.113
36050W        W 7579  27.641  30.634  11.046
36051W        W 7580   5.428  14.673  12.750
36052W        W 7581   4.240  38.750  10.800
36053W        W 7582  15.670  24.134   1.761
36054W        W 7583  41.479  29.247  12.906
36055W        W 7584  18.041  37.886  10.722
36056W        W 7585  31.863   7.783  11.515
36057W        W 7586  12.807  40.035  12.909
36058W        W 7587  38.206   5.840  14.013
36059W        W 7588  22.484  42.465  10.542
36060W        W 7589  12.733  21.971  10.695
36061W        W 7590  28.106   5.295  11.922
36062W        W 7591  42.246  16.832   3.644
36063W        W 7592  28.450  40.214  11.085
36064W        W 7593  14.411  38.336  11.154
36065W        W 7594  27.975  25.777   3.217
36066W        W 7595  19.680  14.363  13.871
36067W        W 7596  33.042  23.897  12.380
36068W        W 7597   0.149  20.499  10.773
36069W        W 7598  23.051  39.518   4.111
36070W        W 7599   3.490  15.631  13.019
36071W        W 7600  37.781  15.205  14.756
36072W        W 7601  32.882  38.056  12.608
36073W        W 7602   4.617  17.167   5.056
36074W        W 7603  15.192  21.120   2.092
36075W        W 7604  18.847  22.783  14.859
36076W        W 7605   6.924  34.583   4.486
36077W        W 7606  36.329  26.995  12.143
36078W        W 7607  14.106  17.809  11.905
36079W        W 7608  40.754  39.561   2.153
36080W        W 7609  10.720   3.332   0.788
36081W        W 7610  35.741  14.936   2.939
36082W        W 7611  28.623  19.678   4.582
36083W        W 7612  21.974   3.438   3.673
36084W        W 7613  30.248  12.928   5.367
36085W        W 7614  28.317  19.740   2.313
36086W        W 7615  14.213   1.291   1.888
36087W        W 7616  42.379  44.267   0.805
36088W        W 7617  18.688  40.262  12.854
36089W        W 7618   1.448  42.414   4.421
36090W        W 7619  42.973  43.054  10.212
36091W        W 7620   3.470  30.173  11.448
36092W        W 7621  16.557  18.308   3.690
36093W        W 7622  10.237   7.166  12.821
36094W        W 7623  19.112  28.697  11.430
36095W        W 7624   0.239  32.414   0.840
36096W        W 7625  32.517  22.473   4.634
36097W        W 7626  18.149  19.730   0.940
36098W        W 7627  44.912  14.379   1.228
36099W        W 7628  34.513  17.861  12.478
36100W        W 7629  12.676  29.139  11.713
36101W        W 7630  34.901  30.467   3.895
36102W        W 7631  31.036  43.578   0.685
36103W        W 7632  15.592  23.282  14.984
36104W        W 7633   4.557  28.588  11.930
36105W        W 7634  15.537  41.806  12.098
36106W        W 7635   8.751  32.695   0.291
36107W        W 7636  28.480   9.623  11.469
36108W        W 7637  36.411  34.116  14.342
36109W        W 7638  15.440  25.189   3.064
36110W        W 7639  39.750  22.544  11.612
36111W        W 7640  24.187  38.349  14.255
36112W        W 7641  36.108  21.632  11.290
36113W        W 7642  42.850  34.110  10.709
36114W        W 7643   3.447   8.183   2.328
36115W        W 7644  12.652  37.308   4.106
36116W        W 7645  37.860  21.742   0.339
36117W        W 7646  37.346   7.775   2.639
36118W        W 7647  41.473  32.547   3.707
36119W        W 7648   4.768   9.700   2.100
36120W        W 7649   8.167  26.803  14.160
36121W        W 7650   8.924   1.953   4.823
36122W        W 7651  35.008  19.195  13.109
36123W        W 7652  14.391  22.488  13.047
36124W        W 7653  26.077   6.827  12.484
36125W        W 7654  10.094  15.128  12.149
36126W        W 7655   1.616  41.407  12.065
36127W        W 7656  25.231  37.633  13.693
36128W        W 7657  23.932  39.057  10.105
36129W        W 7658  16.032   7.895  13.107
36130W        W 7659  40.463  28.512   4.080
36131W        W 7660  19.264  18.665   2.876
36132W        W 7661  43.332  32.983  10.478
36133W        W 7662  40.489  28.363  10.642
36134W        W 7663   5.625   3.325   4.004
36135W        W 7664  28.179   8.857  13.281
36136W        W 7665  24.703  34.853   0.002
36137W        W 7666  18.030  23.056   1.240
36138W        W 7667  10.698  19.715  13.353
36139W        W 7668   3.716  24.494   4.818
36140W        W 7669  29.523  26.360  13.400
36141W        W 7670  12.586  17.192   1.682
36142W        W 7671  27.476   1.839   2.416
36143W        W 7672  42.495  43.183  13.119
36144W        W 7673  26.592  26.915   0.936
36145W        W 7674   9.095  42.033  14.812
36146W        W 7675   2.783  29.543  11.494
36147W        W 7676  44.518  40.264   0.932
36148W        W 7677   9.406   9.493  11.516
36149W        W 7678  19.316  44.860  14.460
36150W        W 7679  32.435  27.421   9.779
36151W        W 7680   6.304  35.693   1.287
36152W        W 7681  34.958  42.556   3.655
36153W        W 7682  10.498   9.432   4.026
36154W        W 7683  44.345  23.699   3.126
36155W        W 7684  20.192  42.866   0.024
36156W        W 7685  30.596  35.862   1.220
36157W        W 7686  11.719  18.603   0.202
36158W        W 7687  19.709  33.413  11.196
36159W        W 7688   1.654  36.397  11.621
36160W        W 7689   9.558  37.667  11.140
36161W        W 7690  39.011   7.715   3.885
36162W        W 7691  39.341   9.190   3.313
36163W        W 7692  29.412   5.208   2.790
36164W        W 7693  33.840  35.352   0.849
36165W        W 7694  15.234  38.631   2.856
36166W        W 7695  21.226   3.895   4.774
36167W        W 7696  31.038  38.745  14.687
36168W        W 7697   3.278  29.013   2.279
36169W        W 7698  18.480  23.835   2.827
36170W        W 7699  25.460  11.659  12.423
36171W        W 7700  10.248  25.253  11.983
36172W        W 7701  21.240  28.898  14.329
36173W        W 7702  33.302   2.195  11.127
36174W        W 7703  33.855  25.228  12.492
36175W        W 7704  17.251   6.928  11.924
36176W        W 7705  25.494  42.357  10.694
36177W        W 7706  32.520  14.048  14.017
36178W        W 7707   7.719  38.452  14.339
36179W        W 7708   1.218  23.918   0.082
36180W        W 7709  12.035  28.403  11.561
36181W        W 7710   7.290  36.072  12.568
36182W        W 7711  27.944  16.262  11.274
36183W        W 7712  37.576  41.592   3.211
36184W        W 7713  24.211  41.292  10.198
36185W        W 7714   3.843  17.993  10.195
36186W        W 7715  23.348  15.219   0.014
36187W        W 7716  28.575   6.280  13.308
36188W        W 7717  29.175  12.582   2.800
36189W        W 7718  40.385  20.994  14.904
36190W        W 7719   4.443   3.199  14.326
36191W        W 7720  41.701  30.729  10.681
36192W        W 7721  10.823  43.359   1.481
36193W        W 7722   9.286  10.597  13.117
36194W        W 7723  29.336  34.484  12.485
36195W        W 7724  18.667  17.596  14.837
36196W        W 7725  23.290   5.973  13.397
36197W        W 7726  21.178  40.505  11.635
36198W        W 7727  24.954   8.316   0.411
36199W        W 7728   2.293  29.155   0.471
36200W        W 7729  29.938  15.732  12.385
36201W        W 7730  37.046  23.740   1.377
36202W        W 7731  36.292  24.143   1.501
36203W        W 7732  14.940  42.181  14.842
36204W        W 7733  19.853  11.045   2.755
36205W        W 7734  28.265  10.113   3.201
36206W        W 7735  21.655  37.300   4.853
36207W        W 7736  22.741  12.842  14.267
36208W        W 7737  31.524  43.795   0.861
36209W        W 7738  19.492  27.064   4.587
36210W        W 7739   8.876  38.584  14.794
36211W        W 7740   4.308  24.295   1.964
36212W        W 7741  21.394  17.191   1.730
36213W        W 7742  32.230  20.583  13.774
36214W        W 7743  40.968  32.358   1.819
36215W        W 7744  17.670  15.634   3.877
36216W        W 7745  17.820  24.368  12.582
36217W        W 7746  37.373  10.287   1.798
36218W        W 7747  41.435  44.982  12.103
36219W        W 7748  11.273  37.758   1.809
36220W        W 7749  43.541  32.202   2.768
36221W        W 7750  38.373  33.371   2.184
36222W        W 7751   5.666  17.725  13.399
36223W        W 7752   7.960   2.802  12.613
36224W        W 7753  35.333  12.689  11.454
36225W        W 7754  12.409  23.075  12.542
36226W        W 7755  18.334  32.521  12.596
36227W        W 7756  17.124  15.092  12.060
36228W        W 7757   9.363  25.931  12.647
36229W        W 7758   2.269  41.969   4.131
36230W        W 7759  20.808  44.954   1.750
36231W        W 7760  31.686   8.688   1.733
36232W        W 7761   5.546  17.748  11.590
36233W        W 7762  28.712  28.060   0.800
36234W        W 7763  10.109  26.622  13.313
36235W        W 7764  30.676  34.696  13.552
36236W        W 7765   9.952  39.078   0.470
36237W        W 7766  39.795   2.324  10.785
36238W        W 7767  22.927  17.544   0.415
36239W        W 7768  43.305  32.445  11.903
36240W        W 7769  34.036  13.632  14.982
36241W        W 7770  15.828   8.209  13.757
36242W        W 7771  44.527  36.435   2.341
36243W        W 7772   4.227  43.834   3.727
36244W        W 7773   3.595  40.116  13.821
36245W        W 7774  16.886  44.105   0.344
36246W        W 7775  25.882   6.436   4.119
36247W        W 7776  34.341   0.527   4.750
36248W        W 7777  44.450   7.350   3.153
36249W        W 7778  16.387  39.890  11.553
36250W        W 7779  31.073  34.652   1.084
36251W        W 7780  20.126   9.702  14.554
36252W        W 7781  16.627  20.586  11.444
36253W        W 7782  42.087   3.882   1.290
36254W        W 7783   7.386  25.930   3.288
36255W        W 7784   2.392   4.966   2.428
36256W        W 7785  26.067  18.419  11.575
36257W        W 7786   3.794  28.266  14.302
36258W        W 7787  18.041   6.481   4.821
36259W        W 7788  27.138   3.350  14.950
36260W        W 7789   5.683  43.505   3.810
36261W        W 7790   6.363  16.193  11.076
36262W        W 7791  21.718  38.353  14.165
36263W        W 7792  10.119  37.171  13.474
36264W        W 7793  16.730   4.422  11.984
36265W        W 7794  38.803  26.960  14.220
36266W        W 7795   2.646  36.229  13.796
36267W        W 7796   0.372  24.614  14.517
36268W        W 7797  15.752   7.845   0.803
36269W        W 7798   6.461  35.370  14.950
36270W        W 7799   6.177  12.733   1.885
36271W        W 7800  13.267  12.671   1.465
36272W        W 7801   2.808  28.246   3.588
36273W        W 7802  18.224  32.127  12.307
36274W        W 7803  30.148   2.784   2.458
36275W        W 7804  30.549  11.553  14.865
36276W        W 7805  41.863   3.131   1.696
36277W        W 7806  14.255  31.363  13.035
36278W        W 7807  18.932  24.174  11.141
36279W        W 7808  22.470  24.587  12.904
36280W        W 7809  22.930  32.554   1.744
36281W        W 7810  20.322  24.760  11.779
36282W        W 7811  20.757  39.547  14.895
36283W        W 7812   3.749  42.788   3.555
36284W        W 7813  13.729  42.072  12.058
36285W        W 7814   3.639   8.771   0.453
36286W        W 7815  37.058  34.677   3.685
36287W        W 7816  31.041  33.052   3.591
36288W        W 7817  37.845  24.025   2.665
36289W        W 7818  29.431  15.019   1.705
36290W        W 7819  42.721  42.096  11.105
36291W        W 7820  17.834  22.631   3.639
36292W        W 7821  38.224  12.186   2.754
36293W        W 7822   0.116   4.506  12.636
36294W        W 7823   9.170  25.246  11.474
36295W        W 7824  34.914  13.267  13.079
36296W        W 7825  44.072  37.028   0.354
36297W        W 7826  10.817   1.351   4.275
36298W        W 7827  20.857  18.048   3.151
36299W        W 7828   4.704   3.376   5.067
36300W        W 7829  35.109  28.491  12.558
36301W        W 7830  40.169  24.670  11.177
36302W        W 7831   7.388   8.374   2.843
36303W        W 7832  17.212  33.189   0.930
36304W        W 7833  29.486  36.545   4.368
36305W        W 7834  33.391  24.777   1.376
36306W        W 7835  18.067  35.191  13.497
36307W        W 7836  18.088  38.120  13.931
36308W        W 7837   2.870  14.595  12.333
36309W        W 7838   2.474  13.585  10.721
36310W        W 7839  19.771   4.858  12.047
36311W        W 7840  28.943  35.135   3.126
36312W        W 7841  23.752   9.921  14.511
36313W        W 7842  36.482  32.187   3.166
36314W        W 7843  41.491   7.894   1.147
36315W        W 7844  20.150  29.173   3.179
36316W        W 7845  18.714  10.362  13.449
36317W        W 7846  22.110  21.757   2.845
36318W        W 7847  10.313  26.953   4.959
36319W        W 7848   2.264  35.438  12.468
36320W        W 7849  20.249  36.377   4.825
36321W        W 7850  31.215   8.674  13.308
36322W        W 7851  24.165  22.981  10.590
36323W        W 7852  18.461  24.041   4.556
36324W        W 7853  15.670  43.473  10.483
36325W        W 7854  19.733   6.544  12.906
36326W        W 7855   8.138  40.853   1.369
36327W        W 7856  17.107  38.391   2.149
36328W        W 7857  44.797  32.135   4.405
36329W        W 7858  23.441  12.084  12.562
36330W        W 7859   7.939  19.679   0.456
36331W        W 7860   7.151  40.476  12.052
36332W        W 7861  13.313  28.378   4.076
36333W        W 7862  25.924  19.122   0.365
36334W        W 7863  42.378  25.212  13.075
36335W        W 7864  31.416  32.673  12.442
36336W        W 7865   0.325   3.491   0.283
36337W        W 7866  32.732   7.634  14.718
36338W        W 7867  33.937  44.457   3.125
36339W        W 7868   3.316  20.026   0.483
36340W        W 7869  44.869  28.133  11.852
36341W        W 7870  28.605  21.620   3.314
36342W        W 7871  31.494   6.688  13.400
36343W        W 7872  11.739   7.331  13.067
36344W        W 7873  40.446  14.605  10.922
36345W        W 7874   6.169  38.510  12.169
36346W        W 7875  40.485  22.830  14.763
36347W        W 7876  26.475  23.734   0.984
36348W        W 7877  39.846  20.563   0.386
36349W        W 7878  37.345  35.140   4.652
36350W        W 7879  15.296  42.897  11.485
36351W        W 7880  33.605   9.081  12.646
36352W        W 7881  29.950  44.957  11.760
36353W        W 7882   2.487  44.755  12.993
36354W        W 7883  36.428  39.742  14.226
36355W        W 7884  41.914  34.588   4.531
36356W        W 7885   0.051  36.352  14.256
36357W        W 7886  27.955  38.463   3.646
36358W        W 7887  39.838  20.678  12.680
36359W        W 7888  37.246  16.328   0.763
36360W        W 7889  34.377  13.937  13.698
36361W        W 7890   6.663  37.807  12.935
36362W        W 7891  44.870  30.653  10.408
36363W        W 7892  21.309  16.159  10.669
36364W        W 7893  26.545   3.673   0.084
36365W        W 7894  33.365  20.537  14.794
36366W        W 7895  19.405  40.335  12.041
36367W        W 7896  19.934  25.068  13.426
36368W        W 7897  35.196  25.796   1.274
36369W        W 7898  42.757  28.634   3.228
36370W        W 7899  15.562  41.735  11.216
36371W        W 7900  28.606  43.836  11.983
36372W        W 7901   6.945  22.549   4.888
36373W        W 7902  26.740  23.215  10.542
36374W        W 7903  40.243  39.523   0.474
36375W        W 7904  43.162  40.350  11.430
36376W        W 7905  43.372  19.003  11.835
36377W        W 7906  19.055  20.048   2.920
36378W        W 7907  20.055  30.096  12.069
36379W        W 7908  28.910   3.216   3.258
36380W        W 7909  26.608  21.558   0.675
36381W        W 7910  14.152  36.363  14.393
36382W        W 7911   1.401  31.109   1.665
36383W        W 7912  15.391  31.522  13.838
36384W        W 7913  19.046  19.681   4.279
36385W        W 7914  24.909  29.396  12.540
36386W        W 7915  29.053  42.075  11.067
36387W        W 7916  13.715  41.297   2.492
36388W        W 7917  17.250  37.467   4.595
36389W        W 7918   8.605   2.903   0.531
36390W        W 7919  24.012  33.484  10.061
36391W        W 7920  25.108  13.110   4.111
36392W        W 7921   0.347  42.564   0.450
36393W        W 7922  31.501  28.388  10.869
36394W        W 7923  23.615  42.009   2.255
36395W        W 7924  43.758   5.788   4.667
36396W        W 7925  40.961  41.602  11.955
36397W        W 7926  42.768  43.336  11.440
36398W        W 7927  40.757  25.595   2.136
36399W        W 7928  24.759   5.785   0.928
36400W        W 7929  14.035   2.499  11.516
36401W        W 7930   0.861  37.054  14.319
36402W        W 7931  27.218  37.924  10.689
36403W        W 7932  16.151  30.610  10.311
36404W        W 7933  36.834   3.018   4.543
36405W        W 7934  40.051  41.046  14.038
36406W        W 7935  35.123  28.111   0.427
36407W        W 7936  32.518  30.976   2.911
36408W        W 7937  24.545  26.497   4.473
36409W        W 7938   7.769  41.713   1.355
36410W        W 7939   3.815  43.138   2.595
36411W        W 7940   3.879   7.896  11.027
36412W        W 7941  33.871  10.230  12.352
36413W        W 7942  16.239  17.835  13.978
36414W        W 7943  30.092   1.350  11.148
36415W        W 7944  37.843  25.179  10.632
36416W        W 7945  42.987  15.067   0.714
36417W        W 7946  43.896  20.850  14.512
36418W        W 7947  20.345  42.990   2.329
36419W        W 7948  30.129  11.175   1.192
36420W        W 7949   8.189  32.468   2.142
36421W        W 7950   4.643  12.052   1.262
36422W        W 7951  11.730  31.746   3.510
36423W        W 7952   7.728  39.609  13.317
36424W        W 7953  32.686   7.436   4.040
36425W        W 7954  34.340  22.009   1.125
36426W        W 7955  11.083  15.958  11.916
36427W        W 7956  42.058  12.032  14.015
36428W        W 7957  24.698   5.321   2.837
36429W        W 7958  22.641  11.397  12.521
36430W        W 7959  13.320   0.782  12.030
36431W        W 7960  40.327   8.441   4.643
36432W        W 7961   4.207  39.184  11.080
36433W        W 7962  44.399  16.253  14.455
36434W        W 7963  20.179  28.407  10.593
36435W        W 7964   2.703  20.584   2.706
36436W        W 7965  42.844   0.944  11.690
36437W        W 7966  21.863  34.948   3.684
36438W        W 7967  41.456  30.655   1.008
36439W        W 7968  35.120  36.076  14.463
36440W        W 7969  15.323  28.956  14.670
36441W        W 7970  11.450  25.128  13.402
36442W        W 7971   4.902   6.694  12.830
36443W        W 7972  32.000  44.950   4.643
36444W        W 7973  13.757  23.152  14.356
36445W        W 7974   6.164  33.360   1.683
36446W        W 7975   2.299  13.147  13.625
36447W        W 7976   3.116  31.416  11.121
36448W        W 7977   1.808  15.398   4.326
36449W        W 7978  38.231   6.485   1.123
36450W        W 7979  40.237   9.161  11.450
36451W        W 7980  30.370  43.213  12.354
36452W        W 7981  18.064   0.445  13.529
36453W        W 7982  33.746   9.755   2.880
36454W        W 7983  20.494  30.305   4.903
36455W        W 7984  15.869  18.344  14.780
36456W        W 7985  29.228  10.287   4.218
36457W        W 7986  17.809   2.551  10.960
36458W        W 7987  16.765  33.674   0.313
36459W        W 7988  41.855  10.207  11.177
36460W        W 7989  24.547  10.358   4.667
36461W        W 7990  26.987  12.753   1.840
36462W        W 7991   3.323  27.147   2.252
36463W        W 7992  11.365   6.758   3.413
36464W        W 7993  19.568  35.237  14.390
36465W        W 7994   2.467  24.897   3.386
36466W        W 7995  10.266  35.779   4.830
36467W        W 7996  42.284   1.885   0.911
36468W        W 7997  24.036  17.658  11.111
36469W        W 7998  41.041  14.075  12.525
36470W        W 7999  33.936  15.807   0.845
36471W        W 8000  42.453  16.107   4.266
36472W        W 8001  28.932  32.018  13.367
36473W        W 8002  11.262  17.374  11.201
36474W        W 8003  39.169  44.383   3.250
36475W        W 8004   4.276  20.140   0.415
36476W        W 8005  16.170   5.021   3.335
36477W        W 8006  23.711   2.656   1.635
36478W        W 8007  36.897  19.685  12.169
36479W        W 8008  11.560  26.537   3.782
36480W        W 8009   6.974  27.165  11.265
36481W        W 8010  16.689  31.900   0.794
36482W        W 8011  14.242   8.361  14.335
36483W        W 8012   0.759  43.765  11.650
36484W        W 8013  40.471  19.068  13.879
36485W        W 8014  15.114  24.395   2.727
36486W        W 8015  26.182   5.159   1.384
36487W        W 8016  39.690  43.102  11.992
36488W        W 8017   0.547  24.643   1.450
36489W        W 8018  42.452  35.254   4.253
36490W        W 8019  36.129  10.585   1.396
36491W        W 8020  13.331   7.867  12.839
36492W        W 8021  16.802  35.137   1.130
36493W        W 8022   6.397   6.822   1.950
36494W        W 8023  21.022  26.380   2.751
36495W        W 8024  27.190  20.324   0.324
36496W        W 8025  39.376  17.567   3.414
36497W        W 8026  26.692  14.733  11.937
36498W        W 8027  35.478  39.091   1.256
36499W        W 8028   6.061  38.009  12.159
36500W        W 8029   4.256  43.405  14.466
36501W        W 8030  24.996   6.916  13.140
36502W        W 8031  35.005  31.909   0.022
36503W        W 8032  27.067  16.170   1.007
36504W        W 8033  22.126   9.400  14.127
36505W        W 8034  11.247  17.464   1.731
36506W        W 8035  22.986  34.622  11.095
36507W        W 8036  12.916  20.337   4.355
36508W        W 8037  11.134  18.850   3.920
36509W        W 8038   3.770   0.222   0.835
36510W        W 8039  18.678  25.458  10.859
36511W        W 8040  15.643  33.669  13.585
36512W        W 8041   2.409   9.896   0.657
36513W        W 8042   2.849  19.174   4.342
36514W        W 8043  10.319  23.623  14.939
36515W        W 8044  15.367  22.786  13.941
36516W        W 8045  24.261  18.762  14.434
36517W        W 8046   0.984  10.675   3.182
36518W        W 8047  17.593  26.983   4.609
36519W        W 8048  11.705  26.072  13.759
36520W        W 8049  12.827   2.288   3.585
36521W        W 8050  44.646  21.780   4.374
36522W        W 8051  30.696  15.408  13.923
36523W        W 8052  43.555  15.751  14.791
36524W        W 8053  37.390   8.074   1.292
36525W        W 8054   9.327  43.958   3.132
36526W        W 8055  31.010   1.486  11.553
36527W        W 8056  19.598  10.936   4.197
36528W        W 8057   9.962  38.398  12.139
36529W        W 8058  35.269  23.799  13.900
36530W        W 8059   9.347   1.211  11.494
36531W        W 8060  19.070  38.538   2.241
36532W        W 8061  14.310  38.826  11.499
36533W        W 8062   6.221  14.676   0.524
36534W        W 8063  42.892  31.920   1.978
36535W        W 8064  39.096  30.005  12.322
36536W        W 8065  31.352  17.689   4.929
36537W        W 8066  16.558   3.814   1.209
36538W        W 8067  41.539  18.010  13.585
36539W        W 8068  41.781  12.663   0.853
36540W        W 8069   0.131   8.898  13.284
36541W        W 8070  28.152   0.190  10.577
36542W        W 8071  26.564   9.709  14.841
36543W        W 8072  12.051   9.305  13.038
36544W        W 8073  32.398   4.703  13.816
36545W        W 8074   3.721   5.958  14.405
36546W        W 8075  30.654   4.304  14.968
36547W        W 8076  16.820  37.846  13.598
36548W        W 8077  18.815  14.865  14.413
36549W        W 8078  14.460  43.900  12.899
36550W        W 8079  19.028  39.288  13.425
36551W        W 8080  41.582  11.791   3.756
36552W        W 8081  36.406  19.747  12.303
36553W        W 8082  33.906   5.337  13.415
36554W        W 8083   3.456  44.370  11.392
36555W        W 8084  33.195  21.979  13.171
36556W        W 8085  43.825   9.323  14.441
36557W        W 8086   1.739  16.246  12.870
36558W        W 8087  30.878  22.078   1.776
36559W        W 8088  16.958  12.226  11.930
36560W        W 8089   6.656  36.234   3.709
36561W        W 8090  23.313  25.492  13.128
36562W        W 8091   3.806  20.021  13.323
36563W        W 8092  25.569  11.182  12.106
36564W        W 8093  31.387  25.627   2.671
36565W        W 8094   1.122  26.166   0.299
36566W        W 8095  16.645   0.643  12.596
36567W        W 8096   6.184  17.656   1.826
36568W        W 8097  10.451  27.613  13.676
36569W        W 8098   4.465  17.116  12.632
36570W        W 8099  37.781  36.189  14.353
36571W        W 8100  40.378   0.761  13.279
36572W        W 8101  17.694  21.982  11.621
36573W        W 8102  13.861   1.183   2.703
36574W        W 8103  41.862  40.575  13.828
36575W        W 8104  33.166  36.833   0.496
36576W        W 8105  10.348  38.833  12.907
36577W        W 8106  14.289   5.463   0.430
36578W        W 8107  30.720  33.404  14.211
36579W        W 8108  28.954  11.419  14.287
36580W        W 8109  41.937   5.393  13.582
36581W        W 8110  19.284   5.678  10.860
36582W        W 8111   6.310  29.445  13.093
36583W        W 8112   2.222   9.696   2.671
36584W        W 8113  40.954  13.103  14.007
36585W        W 8114  41.214  27.602   2.859
36586W        W 8115  42.049  37.514  14.599
36587W        W 8116  33.423  21.683   1.544
36588W        W 8117  24.442  42.467   2.281
36589W        W 8118   1.278  16.277  11.617
36590W        W 8119  38.010  44.495  14.915
36591W        W 8120   2.924  27.895  11.349
36592W        W 8121   9.281  40.405  11.921
36593W        W 8122  10.223   0.934   2.920
36594W        W 8123  44.953  21.211  10.485
36595W        W 8124  18.067  43.289  10.581
36596W        W 8125   9.887  34.088  12.993
36597W        W 8126  42.277  32.482  13.657
36598W        W 8127  26.203  26.552   1.857
36599W        W 8128  35.766  15.073  14.761
36600W        W 8129   7.266  32.510   2.626
36601W        W 8130  30.420  40.380   1.195
36602W        W 8131  42.802  18.707   0.753
36603W        W 8132  25.009  27.053   1.020
36604W        W 8133  44.608   6.476  12.137
36605W        W 8134  42.130  39.005  14.425
36606W        W 8135  16.023  10.713   3.037
36607W        W 8136  36.434  38.445  11.152
36608W        W 8137   7.775  25.962  11.573
36609W        W 8138  14.054  39.006  12.058
36610W        W 8139   0.831  23.905  11.196
36611W        W 8140  21.474  27.052  12.028
36612W        W 8141   2.970  37.811   4.079
36613W        W 8142  18.048  17.032   3.752
36614W        W 8143  11.245  13.670  13.457
36615W        W 8144  42.735  42.183   5.046
36616W        W 8145  37.665   7.427  11.128
36617W        W 8146  22.421  12.788  11.175
36618W        W 8147  39.290   7.599  12.935
36619W        W 8148  22.978  33.453  14.421
36620W        W 8149  44.064   5.295   4.587
36621W        W 8150  34.013  32.505   4.329
36622W        W 8151  32.814   4.570   3.511
36623W        W 8152  23.034  16.030  13.451
36624W        W 8153  42.013   6.265   0.837
36625W        W 8154  20.695  27.060   1.750
36626W        W 8155  10.270  30.827  14.748
36627W        W 8156  14.939  11.844   9.987
36628W        W 8157  22.772   2.818   4.856
36629W        W 8158  28.547  17.277   1.804
36630W        W 8159  33.860  43.212   2.627
36631W        W 8160  23.491  29.535   3.280
36632W        W 8161  29.264   2.281   3.121
36633W        W 8162  29.125  20.007   3.613
36634W        W 8163  31.464   2.619  13.560
36635W        W 8164  31.611   4.438   1.648
36636W        W 8165  32.477  13.675   2.909
36637W        W 8166  17.818  15.032  11.217
36638W        W 8167  27.451  41.328   4.413
36639W        W 8168  19.521  17.263   1.326
36640W        W 8169  41.031  44.728   2.436
36641W        W 8170  21.216  26.205  10.702
36642W        W 8171  41.925  19.300   1.413
36643W        W 8172  23.801  37.482  13.988
36644W        W 8173  39.066  31.637   1.881
36645W        W 8174  44.037  18.476   1.880
36646W        W 8175   3.003  10.098   4.162
36647W        W 8176  44.277   5.753  13.312
36648W        W 8177  25.564  18.094   3.120
36649W        W 8178  26.864  10.802   4.101
36650W        W 8179  43.113  10.762  14.492
36651W        W 8180  42.394   9.854   2.923
36652W        W 8181  16.625   3.502   0.805
36653W        W 8182  39.671  41.045   3.664
36654W        W 8183  39.781  22.573  12.408
36655W        W 8184   2.769  23.643  14.876
36656W        W 8185  36.633  14.385   1.946
36657W        W 8186  42.315   1.359   0.787
36658W        W 8187  27.559  35.935  11.896
36659W        W 8188   7.703   1.470   3.683
36660W        W 8189  34.130  14.638  11.133
36661W        W 8190  30.364  32.926  13.060
36662W        W 8191  42.460  12.701  14.398
36663W        W 8192  12.772  44.789   9.892
36664W        W 8193  17.765  26.124   0.347
36665W        W 8194   1.780  27.484   3.661
36666W        W 8195  33.063  21.422  14.047
36667W        W 8196   2.520   8.939  13.322
36668W        W 8197  12.868  41.516  11.965
36669W        W 8198  24.431  23.978  11.889
36670W        W 8199  30.618  26.905   3.681
36671W        W 8200  15.594  12.694   2.803
36672W        W 8201  11.008   3.476   4.842
36673W        W 8202  33.357  27.149   0.433
36674W        W 8203   3.694   5.639   4.815
36675W        W 8204  25.173  37.794  11.775
36676W        W 8205  44.867   4.254   3.378
36677W        W 8206  44.395   9.716   3.723
36678W        W 8207  15.619   4.174  10.623
36679W        W 8208   0.297  32.853   4.093
36680W        W 8209  28.704  23.605   1.213
36681W        W 8210  24.557  23.827   0.836
36682W        W 8211  14.138   5.436   2.728
36683W        W 8212  15.083  31.592   4.170
36684W        W 8213  35.142  36.373   4.604
36685W        W 8214  44.499  22.239   0.282
36686W        W 8215  44.766  34.013   3.719
36687W        W 8216  29.178  11.870  12.051
36688W        W 8217  41.150   5.931   4.599
36689W        W 8218  25.879  38.982  14.409
36690W        W 8219  36.381  43.832  11.463
36691W        W 8220   5.306  42.560  14.465
36692W        W 8221  38.085   2.893  11.978
36693W        W 8222  26.766  39.160  13.352
36694W        W 8223  18.526  29.384  10.933
36695W        W 8224  21.285  41.452  12.980
36696W        W 8225  28.912  22.404   1.863
36697W        W 8226   1.070  35.643  11.533
36698W        W 8227   7.874   8.008  12.584
36699W        W 8228  27.613  29.739   3.564
36700W        W 8229  43.420  44.903   2.655
36701W        W 8230   0.488  35.523   4.584
36702W        W 8231  31.468  21.932   4.099
36703W        W 8232  17.894   9.916   4.874
36704W        W 8233  44.846   2.717   0.474
36705W        W 8234  36.271  19.022   4.228
36706W        W 8235  44.489  17.983   2.832
36707W        W 8236  16.486  19.954  14.332
36708W        W 8237   1.931  42.797   3.615
36709W        W 8238  28.131   1.313  10.204
36710W        W 8239  36.212  35.420  11.082
36711W        W 8240  21.056   9.653   4.165
36712W        W 8241  31.662  14.771   2.788
36713W        W 8242  16.109  11.617  14.929
36714W        W 8243   2.534  28.667   3.427
36715W        W 8244  29.243   0.425  14.698
36716W        W 8245  10.501  31.620  11.960
36717W        W 8246  12.644  25.520   0.961
36718W        W 8247  22.573  27.895  13.372
36719W        W 8248  25.063  14.649   3.196
36720W        W 8249  43.638   5.219   1.243
36721W        W 8250   9.225   0.871   0.231
36722W        W 8251  12.298   6.934  13.513
36723W        W 8252  32.176   0.085   2.258
36724W        W 8253   7.981  14.326   1.800
36725W        W 8254   4.257  27.788  13.729
36726W        W 8255  11.243  21.684   2.440
36727W        W 8256  19.056   8.719   4.583
36728W        W 8257  25.280  20.974   1.803
36729W        W 8258  28.429  18.556   2.388
36730W        W 8259  33.001   9.183   3.242
36731W        W 8260  44.223   9.448   2.370
36732W        W 8261  44.301  40.715   2.281
36733W        W 8262  33.825   3.783   2.918
36734W        W 8263  39.116  22.609   4.942
36735W        W 8264  10.885   4.477  14.889
36736W        W 8265  20.711  10.880   3.241
36737W        W 8266   9.987  12.299  13.966
36738W        W 8267  25.155  17.158   0.474
36739W        W 8268  43.586   1.565   2.563
36740W        W 8269  36.549  10.372  12.554
36741W        W 8270  38.453  18.159   3.127
36742W        W 8271  39.979  34.527  14.318
36743W        W 8272  29.974  36.539   4.620
36744W        W 8273   7.349  25.117   3.584
36745W        W 8274  35.838   5.952   4.188
36746W        W 8275  43.222  10.827  13.064
36747W        W 8276  28.808  16.486   3.257
36748W        W 8277   7.760  42.987   3.103
36749W        W 8278  21.528  13.204   0.898
36750W        W 8279  14.684  37.028  12.850
36751W        W 8280  26.683  28.183   2.365
36752W        W 8281   1.668   6.051   0.444
36753W        W 8282  18.771  12.389  11.180
36754W        W 8283  33.265  24.522   3.590
36755W        W 8284  35.349  15.843  11.434
36756W        W 8285  40.003  35.768  12.959
36757W        W 8286  42.407  38.298   1.692
36758W        W 8287  35.114  42.345   4.093
36759W        W 8288   6.139  36.613   4.201
36760W        W 8289   5.922  41.932   4.400
36761W        W 8290  32.679  22.240   2.330
36762W        W 8291  34.689  40.562  14.535
36763W        W 8292  28.668  33.153   2.551
36764W        W 8293  11.253  19.109  13.413
36765W        W 8294  23.925  29.730  14.512
36766W        W 8295   8.305  21.713  14.396
36767W        W 8296  21.568  29.108  12.404
36768W        W 8297   7.896  11.109  14.237
36769W        W 8298   9.589  42.178   0.953
36770W        W 8299  12.690  19.145  13.278
36771W        W 8300  18.482   0.902   1.761
36772W        W 8301  26.740  31.081   2.719
36773W        W 8302  22.917  20.751   3.811
36774W        W 8303  15.805  15.669  14.470
36775W        W 8304   5.446   5.799  11.987
36776W        W 8305  33.251   1.893   3.440
36777W        W 8306  19.546  14.850  13.814
36778W        W 8307  22.781  38.696  10.345
36779W        W 8308   0.685  13.623  10.985
36780W        W 8309  27.526  41.283  12.670
36781W        W 8310  10.153  25.285  12.845
36782W        W 8311   6.493  37.289  12.880
36783W        W 8312   5.779  17.672  11.138
36784W        W 8313  22.042   0.840  13.046
36785W        W 8314  31.058  38.937   1.939
36786W        W 8315  22.594  35.870   4.279
36787W        W 8316  30.531  32.058  14.009
36788W        W 8317   1.029   6.316   1.781
36789W        W 8318  22.531   2.984  12.874
36790W        W 8319  33.830  43.284  13.421
36791W        W 8320  42.392  14.868   0.970
36792W        W 8321  16.079  11.681  14.083
36793W        W 8322  10.244   6.808  13.704
36794W        W 8323  18.487  26.481  12.328
36795W        W 8324  24.515   5.939  13.965
36796W        W 8325  31.517  40.988  10.710
36797W        W 8326  16.134   7.587  11.663
36798W        W 8327   6.328  43.677  14.912
36799W        W 8328  34.015  24.902   1.114
36800W        W 8329  18.798   8.321  14.997
36801W        W 8330  23.510  13.832  14.402
36802W        W 8331   9.714  19.045  10.680
36803W        W 8332  21.139  32.664  11.673
36804W        W 8333   4.049  22.632  10.824
36805W        W 8334  17.139  41.455   1.707
36806W        W 8335  39.823  21.352  12.910
36807W        W 8336   2.780  34.674   3.516
36808W        W 8337  30.000  37.558   4.487
36809W        W 8338   0.617  15.710  10.673
36810W        W 8339  28.602  28.071   4.287
36811W        W 8340   2.430  32.089   3.390
36812W        W 8341  23.544  26.628  11.166
36813W        W 8342  23.595  39.054  14.485
36814W        W 8343  37.963  44.885  12.029
36815W        W 8344  32.369  44.033   1.419
36816W        W 8345  22.621  36.367   4.422
36817W        W 8346  19.098  34.045  11.110
36818W        W 8347  22.752  15.707  13.810
36819W        W 8348  22.334  35.567   0.609
36820W        W 8349   9.116   9.838  11.998
36821W        W 8350  39.953  23.269   0.409
36822W        W 8351   3.954  44.984   0.406
36823W        W 8352  21.183  21.218  11.326
36824W        W 8353  33.838   1.815   2.309
36825W        W 8354  43.849  16.319  14.966
36826W        W 8355  39.364  40.011   1.940
36827W        W 8356  37.928  21.344  13.860
36828W        W 8357   5.405  34.892   1.379
36829W        W 8358  43.516   4.178   1.217
36830W        W 8359  27.735  19.041   2.679
36831W        W 8360  34.996  25.260   2.685
36832W        W 8361   2.459   0.927   0.493
36833W        W 8362  41.249  16.209   2.698
36834W        W 8363  36.868  13.144   2.394
36835W        W 8364  30.597  12.841  10.288
36836W        W 8365  21.895  24.294   2.892
36837W        W 8366  13.441  37.626  12.381
36838W        W 8367  41.275  44.256   2.138
36839W        W 8368  39.547   2.830   0.402
36840W        W 8369  20.277  21.104   3.273
36841W        W 8370  32.400  43.906  12.894
36842W        W 8371  34.073   3.153   2.166
36843W        W 8372  13.670   2.173   2.661
36844W        W 8373   9.371  22.534   3.667
36845W        W 8374   5.979  14.377  10.751
36846W        W 8375  35.884   3.179  12.551
36847W        W 8376   4.679  17.816   3.691
36848W        W 8377  43.581  30.385   1.501
36849W        W 8378  42.517  13.165   0.969
36850W        W 8379   2.232  21.308  11.946
36851W        W 8380   8.255  29.950  14.892
36852W        W 8381   9.219  15.168  11.695
36853W        W 8382  19.004   0.157  11.884
36854W        W 8383  43.768   0.015  10.948
36855W        W 8384  29.963  38.395   4.077
36856W        W 8385   0.185   3.905  10.708
36857W        W 8386  37.150  37.780   0.416
36858W        W 8387  27.488   8.416  11.047
36859W        W 8388   0.006  43.448   0.169
36860W        W 8389   5.007  12.239  11.574
36861W        W 8390   3.273  31.886  11.035
36862W        W 8391  29.712   0.330  10.702
36863W        W 8392  37.099  17.760   1.051
36864W        W 8393  42.402  21.023   0.981
36865W        W 8394  26.182  15.786   0.829
36866W        W 8395   5.929  39.240   4.230
36867W        W 8396  29.818  31.142   2.360
36868W        W 8397  38.323  15.869  13.875
36869W        W 8398   5.398   9.351  13.244
36870W        W 8399  14.617  15.137   0.938
36871W        W 8400  12.418  37.430  13.381
36872W        W 8401  36.397   9.568  11.159
36873W        W 8402   8.238  19.604   4.239
36874W        W 8403  28.898   8.078  10.942
36875W        W 8404  39.025  34.001   3.784
36876W        W 8405   5.611  24.966   0.296
36877W        W 8406  30.903   8.366  13.583
36878W        W 8407  40.559  28.181   0.472
36879W        W 8408   9.257  40.777  11.267
36880W        W 8409  31.169   7.141  14.182
36881W        W 8410  11.432  19.035   3.405
36882W        W 8411  26.873  12.265  14.035
36883W        W 8412  35.364  23.025  11.673
36884W        W 8413  14.136  31.878   4.135
36885W        W 8414  25.509  33.430  10.469
36886W        W 8415  13.362  37.598  13.411
36887W        W 8416  42.438  11.916   1.029
36888W        W 8417  23.279  30.456  14.895
36889W        W 8418  22.779  15.148   1.848
36890W        W 8419  23.808  35.518  13.006
36891W        W 8420  37.487   3.307   3.220
36892W        W 8421   5.093  16.681  12.891
36893W        W 8422  44.229  39.065  13.495
36894W        W 8423  39.751  11.241  12.036
36895W        W 8424  16.803   8.267   3.261
36896W        W 8425  18.073  26.643   3.372
36897W        W 8426  14.177  28.384  10.933
36898W        W 8427   1.859   6.722   0.891
36899W        W 8428  25.043   3.956   4.767
36900W        W 8429  30.160  26.979   2.871
36901W        W 8430   0.792  35.538   4.999
36902W        W 8431  20.769  38.750   5.064
36903W        W 8432  39.390  29.000   2.740
36904W        W 8433  30.834  20.491  11.542
36905W        W 8434  36.081  28.925  11.996
36906W        W 8435  37.687  12.654   4.400
36907W        W 8436  29.391   3.351  10.889
36908W        W 8437  24.547   7.068   3.334
36909W        W 8438  25.618  27.941  14.335
36910W        W 8439  17.383  31.358  13.935
36911W        W 8440  10.130  16.311  12.380
36912W        W 8441  15.257   2.285  12.035
36913W        W 8442  38.481  14.605  11.167
36914W        W 8443  32.347  41.496  14.349
36915W        W 8444  17.270   0.083   3.630
36916W        W 8445  19.036  16.751   0.306
36917W        W 8446  36.006  23.524   3.649
36918W        W 8447   0.368  40.912  14.929
36919W        W 8448  33.004  21.475  10.305
36920W        W 8449  28.240  33.068  12.961
36921W        W 8450  37.502   8.973  14.000
36922W        W 8451  37.344  35.450   0.719
36923W        W 8452  44.370  40.917   3.777
36924W        W 8453  16.305  43.438  14.300
36925W        W 8454  38.027  26.190  14.255
36926W        W 8455   3.967  42.796  13.289
36927W        W 8456   4.339  36.837   0.561
36928W        W 8457  14.679  19.995   1.743
36929W        W 8458  41.793  36.501  13.489
36930W        W 8459  20.649  14.398   1.243
36931W        W 8460   3.728   9.728   4.190
36932W        W 8461  33.325   2.960  11.577
36933W        W 8462  36.589  11.396   4.024
36934W        W 8463  36.377  40.295  14.785
36935W        W 8464  33.449  41.291   3.542
36936W        W 8465   7.411  39.330   0.504
36937W        W 8466  43.121  32.973  13.329
36938W        W 8467   7.805  26.651   2.874
36939W        W 8468  38.439  12.968  13.993
36940W        W 8469  32.054  37.999   4.143
36941W        W 8470   9.910  17.671   1.659
36942W        W 8471  25.826  22.467  12.484
36943W        W 8472  22.221  28.385  14.487
36944W        W 8473  10.948  15.349   0.831
36945W        W 8474   3.258  32.436  10.455
36946W        W 8475   7.883  19.240   1.807
36947W        W 8476   2.339  12.551  11.530
36948W        W 8477  20.811   9.081  12.754
36949W        W 8478   0.096   6.029  13.377
36950W        W 8479  14.828   7.381   4.249
36951W        W 8480   3.773  29.407  14.468
36952W        W 8481  22.271   8.446   4.702
36953W        W 8482  18.481  19.239   3.770
36954W        W 8483  18.758  12.307  14.861
36955W        W 8484  42.290  40.321  13.976
36956W        W 8485  35.814  11.006   3.181
36957W        W 8486  30.907  23.066  13.925
36958W        W 8487  39.420  38.779   3.314
36959W        W 8488   3.660  31.907  12.987
36960W        W 8489  43.773  10.807   2.501
36961W        W 8490  32.291  37.217  10.402
36962W        W 8491  29.046  13.434  13.023
36963W        W 8492   1.356  16.832  11.201
36964W        W 8493  31.136  26.389   1.799
36965W        W 8494  21.936  25.849  12.112
36966W        W 8495  10.978   0.430  10.695
36967W        W 8496  38.625   3.344   1.279
36968W        W 8497  12.322  24.624   0.055
36969W        W 8498  43.211  24.306  12.355
36970W        W 8499  11.089   9.215  11.181
36971W        W 8500   4.193  30.522  14.998
36972W        W 8501   6.401   6.264   1.794
36973W        W 8502  36.536  31.765  13.782
36974W        W 8503   4.120  23.686   3.207
36975W        W 8504  41.054  31.420   1.972
36976W        W 8505  15.324  20.778  13.530
36977W        W 8506  40.843  33.487  12.411
36978W        W 8507  12.172  37.442  12.131
36979W        W 8508  18.728  26.356  11.909
36980W        W 8509  20.107  36.987  12.395
36981W        W 8510  26.011  32.515   3.667
36982W        W 8511  41.842   5.000   1.273
36983W        W 8512  19.211  13.733   1.356
36984W        W 8513  17.800  24.492  11.606
36985W        W 8514  42.264   9.746   0.910
36986W        W 8515   4.868  24.291   0.918
36987W        W 8516  27.030  39.499  12.890
36988W        W 8517  36.879   2.923  13.701
36989W        W 8518  27.645  25.736  13.730
36990W        W 8519  28.036   7.581   3.890
36991W        W 8520  21.931  28.545   0.903
36992W        W 8521   9.876   4.240  11.220
36993W        W 8522   8.165  27.526   1.918
36994W        W 8523  39.036  20.217   3.861
36995W        W 8524  18.184   4.865   0.351
36996W        W 8525  29.021  20.058   4.592
36997W        W 8526  40.045   4.228   0.415
36998W        W 8527  12.581  30.395   0.005
36999W        W 8528  11.727  12.281   4.824
37000W        W 8529  26.890  14.281   4.435
37001W        W 8530  33.962   6.351  12.301
37002W        W 8531  26.562  13.557   3.640
37003W        W 8532  31.648   6.929   4.141
37004W        W 8533  44.380  39.299  12.619
37005W        W 8534  14.090  36.608  12.583
37006W        W 8535  25.090  24.144   4.941
37007W        W 8536  15.174  12.765  14.826
37008W        W 8537   3.258  15.332   4.542
37009W        W 8538   9.051  20.711  14.987
37010W        W 8539  26.939   5.312  12.364
37011W        W 8540  27.117  40.564   3.343
37012W        W 8541  22.184  26.939  12.657
37013W        W 8542   9.209  22.596   3.167
37014W        W 8543  20.256   9.830   4.525
37015W        W 8544   8.400   7.741   4.654
37016W        W 8545  11.875  35.842  13.045
37017W        W 8546   0.943  38.434  11.724
37018W        W 8547  38.742  12.304   1.876
37019W        W 8548   6.775  37.936   4.082
37020W        W 8549  32.628  26.185   0.770
37021W        W 8550  30.824  28.352   2.630
37022W        W 8551   7.568   9.299  11.132
37023W        W 8552  31.156   6.178  13.860
37024W        W 8553  26.113   4.259   2.232
37025W        W 8554  29.667  44.384  10.525
37026W        W 8555  22.095  20.734   4.185
37027W        W 8556  15.292  12.224   4.115
37028W        W 8557  43.007   7.727  13.385
37029W        W 8558  28.352   0.761  11.451
37030W        W 8559  19.718  12.818   3.790
37031W        W 8560  30.849   0.914   3.758
37032W        W 8561  23.662  31.754  14.813
37033W        W 8562  30.451  17.495  14.864
37034W        W 8563  35.793  35.247   0.819
37035W        W 8564  28.344  21.522  11.706
37036W        W 8565  21.842  12.745   4.519
37037W        W 8566  22.061  16.567  14.758
37038W        W 8567   9.771  39.561  11.595
37039W        W 8568  30.899  21.497   0.080
37040W        W 8569  25.975  25.599  11.669
37041W        W 8570   4.020   5.904   2.042
37042W        W 8571  32.469  23.456  14.010
37043W        W 8572  40.867  15.540  11.846
37044W        W 8573  39.068   0.672   0.934
37045W        W 8574  12.672  15.732   2.461
37046W        W 8575  30.162  24.935  11.873
37047W        W 8576   1.716  44.895  14.282
37048W        W 8577  24.750   9.174  11.602
37049W        W 8578   5.852  28.960   1.706
37050W        W 8579   1.382   8.841   1.937
37051W        W 8580  27.983  17.640   2.369
37052W        W 8581  27.772   0.948  10.029
37053W        W 8582  10.795  12.768  12.919
37054W        W 8583  12.333  37.676  11.702
37055W        W 8584  26.306  15.533   3.619
37056W        W 8585  10.752  39.342  12.556
37057W        W 8586  25.543  17.607  13.528
37058W        W 8587  14.725  36.415   3.143
37059W        W 8588  29.801   2.929   2.817
37060W        W 8589   3.348  31.512  14.918
37061W        W 8590  11.415  25.259   3.913
37062W        W 8591  21.090  27.484   3.765
37063W        W 8592   9.327  11.193  12.457
37064W        W 8593  17.814  31.518   2.237
37065W        W 8594  14.936  35.874  13.936
37066W        W 8595  23.210  42.208  12.406
37067W        W 8596   9.199  16.165   3.579
37068W        W 8597  43.359  29.932   2.387
37069W        W 8598   6.234  18.559  11.189
37070W        W 8599  27.612  25.223  14.950
37071W        W 8600  30.768   1.980  14.538
37072W        W 8601  39.358   3.757   1.970
37073W        W 8602  20.730   1.496   1.855
37074W        W 8603  39.550  32.595  14.927
37075W        W 8604  36.813  13.436  14.646
37076W        W 8605  37.652  33.600  10.628
37077W        W 8606  35.604  32.051   4.227
37078W        W 8607  17.868  21.576   1.238
37079W        W 8608  40.808   8.895  14.428
37080W        W 8609  10.397  32.079   2.707
37081W        W 8610  36.518  30.377   2.849
37082W        W 8611  37.307  21.451  12.273
37083W        W 8612  33.413   6.823   3.658
37084W        W 8613  35.540   0.974  13.631
37085W        W 8614  40.754  32.953  14.363
37086W        W 8615   7.593  27.282  11.943
37087W        W 8616   1.078   1.408  14.356
37088W        W 8617  39.976   4.771   4.743
37089W        W 8618  38.566  39.638   2.692
37090W        W 8619  28.207  34.095  13.347
37091W        W 8620  11.401  44.486  14.098
37092W        W 8621  20.506   1.220   4.543
37093W        W 8622  15.637  20.900   1.946
37094W        W 8623  30.154  40.440   3.165
37095W        W 8624  39.012  20.745   1.106
37096W        W 8625  27.910  11.605  10.275
37097W        W 8626  24.550  42.625  10.589
37098W        W 8627  13.310  14.779   4.117
37099W        W 8628  22.338  33.016  10.631
37100W        W 8629  19.666   6.823  13.339
37101W        W 8630  41.427  16.314  12.308
37102W        W 8631   4.369   5.393  11.544
37103W        W 8632  15.028   5.180   3.561
37104W        W 8633   1.443   2.169   1.479
37105W        W 8634  19.985   6.866  12.075
37106W        W 8635   5.886  25.271  11.457
37107W        W 8636   2.252   5.809  13.002
37108W        W 8637  27.270  25.963   3.209
37109W        W 8638  18.530   6.377   5.049
37110W        W 8639  16.206   6.713   4.657
37111W        W 8640  41.219  31.162   1.515
37112W        W 8641  13.702  18.743  11.120
37113W        W 8642   7.691  30.492  11.139
37114W        W 8643  38.160  13.205   0.848
37115W        W 8644  20.085  20.109   4.684
37116W        W 8645   8.286   5.156  11.543
37117W        W 8646  22.644   0.472  12.468
37118W        W 8647  25.607  44.392  10.093
37119W        W 8648  43.478   1.419   4.485
37120W        W 8649  38.359  16.676  12.863
37121W        W 8650   3.013  20.715  13.540
37122W        W 8651  25.936   5.013   0.416
37123W        W 8652  33.861  17.702  11.077
37124W        W 8653   1.173   0.925   0.951
37125W        W 8654  44.581  23.729   0.181
37126W        W 8655  14.803  34.544   3.241
37127W        W 8656  22.932  10.344   5.077
37128W        W 8657  21.580  12.386  12.025
37129W        W 8658   3.875  23.703   3.662
37130W        W 8659  17.792  19.593   4.302
37131W        W 8660  10.547  12.637   5.069
37132W        W 8661  39.430   6.894  13.508
37133W        W 8662  14.229  44.876  14.857
37134W        W 8663  30.343   4.283  11.164
37135W        W 8664  32.909  41.440   3.651
37136W        W 8665  33.919  32.031  14.294
37137W        W 8666  13.173  10.025  11.993
37138W        W 8667  21.285   7.081   1.216
37139W        W 8668  31.517  35.480   0.854
37140W        W 8669   6.469   4.464  11.966
37141W        W 8670  14.126  26.645   0.269
37142W        W 8671  37.529  39.803  13.354
37143W        W 8672   6.285  12.108  14.265
37144W        W 8673   4.621   7.724  11.572
37145W        W 8674  33.074  11.769   0.893
37146W        W 8675   2.744  39.957   4.031
37147W        W 8676  41.448  34.936   2.897
37148W        W 8677   8.665  34.393   4.353
37149W        W 8678  11.995  38.815   0.268
37150W        W 8679  22.323  30.269   5.091
37151W        W 8680   3.871  36.190   4.551
37152W        W 8681  19.268  17.135  13.815
37153W        W 8682  11.233   8.831   3.231
37154W        W 8683  15.689  40.826  10.902
37155W        W 8684   1.643  15.296   1.994
37156W        W 8685  20.672  17.665  10.909
37157W        W 8686  15.843  14.094   2.285
37158W        W 8687  30.194   5.264  13.371
37159W        W 8688  32.555  44.223   0.818
37160W        W 8689  31.584  38.036  10.610
37161W        W 8690  27.411  38.811  10.267
37162W        W 8691  32.114  42.288  13.731
37163W        W 8692  44.266  20.193  12.256
37164W        W 8693  14.855  14.644   4.317
37165W        W 8694  18.437  20.175  11.468
37166W        W 8695  32.984   4.986   1.797
37167W        W 8696  42.445   0.811  12.079
37168W        W 8697  29.848   8.699   4.182
37169W        W 8698   0.216  44.492   2.811
37170W        W 8699  12.748  23.964  12.018
37171W        W 8700  21.677  44.303  13.070
37172W        W 8701  34.533  41.579  14.492
37173W        W 8702  13.889  35.719   2.320
37174W        W 8703  41.914  28.924   4.740
37175W        W 8704  31.671  44.514   1.737
37176W        W 8705  27.220   3.333   2.239
37177W        W 8706  40.240  18.319   0.463
37178W        W 8707  23.963  34.201  11.147
37179W        W 8708  18.084   7.830   0.448
37180W        W 8709  44.580  31.210   1.833
37181W        W 8710  22.443  23.181   2.895
37182W        W 8711   1.769  20.623   0.840
37183W        W 8712  35.140   8.922  12.957
37184W        W 8713  11.435  11.915  11.958
37185W        W 8714   9.272  41.382   4.678
37186W        W 8715  24.488  38.720   0.993
37187W        W 8716  41.127  35.353   2.874
37188W        W 8717  23.613   1.048  14.027
37189W        W 8718  28.571   2.422   3.681
37190W        W 8719  34.289  42.440  10.626
37191W        W 8720   1.449  12.106   3.338
37192W        W 8721  23.674   9.833   2.386
37193W        W 8722  30.633   1.958   0.075
37194W        W 8723   2.907   8.300   4.364
37195W        W 8724  24.467  33.614   0.614
37196W        W 8725   3.431  14.598   5.149
37197W        W 8726  20.238  36.373   3.349
37198W        W 8727  37.196  37.294  14.660
37199W        W 8728  23.083  25.741   4.448
37200W        W 8729  28.218  17.401  11.956
37201W        W 8730  42.441  33.392  10.683
37202W        W 8731   2.740  25.157  10.776
37203W        W 8732  25.260  23.643  12.969
37204W        W 8733  44.186  23.221  13.801
37205W        W 8734   4.705  42.514   9.822
37206W        W 8735  18.110  35.632  13.217
37207W        W 8736  35.672   9.897  10.742
37208W        W 8737  37.199  31.241  10.200
37209W        W 8738  35.749  34.410  11.992
37210W        W 8739  13.832  31.649   3.554
37211W        W 8740  23.237  16.916  11.694
37212W        W 8741  25.428   3.124   1.326
37213W        W 8742  25.404  39.436   1.420
37214W        W 8743   3.377  35.163  14.383
37215W        W 8744  40.905   2.482   4.358
37216W        W 8745  44.405   5.302   4.121
37217W        W 8746   4.869  11.644  11.210
37218W        W 8747  36.774  19.777   3.942
37219W        W 8748   2.045  19.034  14.487
37220W        W 8749  16.090  20.007   1.304
37221W        W 8750  24.440  43.745   4.392
37222W        W 8751  31.982  13.073  11.223
37223W        W 8752  10.895  37.905  11.354
37224W        W 8753  32.404  17.745   0.779
37225W        W 8754  28.334  15.614   3.979
37226W        W 8755   5.250   8.156  11.931
37227W        W 8756  33.614  22.276   0.368
37228W        W 8757  25.298  30.476   1.553
37229W        W 8758  14.007   1.347   1.389
37230W        W 8759  43.348   1.697  10.882
37231W        W 8760  23.203  26.166   2.645
37232W        W 8761  41.203  31.463  12.340
37233W        W 8762  43.475  27.915  10.227
37234W        W 8763   2.842   8.105  14.793
37235W        W 8764   4.160  18.793   0.936
37236W        W 8765  44.742  35.590   1.111
37237W        W 8766  26.300  16.163  12.034
37238W        W 8767  14.462  15.826   5.125
37239W        W 8768  42.282   5.386  10.442
37240W        W 8769  43.835  40.764  12.618
37241W        W 8770  23.317  33.117  10.468
37242W        W 8771  18.553  32.165  14.478
37243W        W 8772  28.027  23.840   4.818
37244W        W 8773  14.869   4.851   4.739
37245W        W 8774   2.811   7.527  11.662
37246W        W 8775   5.915  44.048   2.283
37247W        W 8776  14.894  32.840  13.542
37248W        W 8777  44.502  21.362   4.088
37249W        W 8778   1.276  31.135  14.790
37250W        W 8779  10.465  43.309  10.538
37251W        W 8780  15.017  36.399   1.218
37252W        W 8781  21.215  42.408  13.047
37253W        W 8782   3.311  13.288  13.131
37254W        W 8783  25.713   3.312  10.758
37255W        W 8784  20.656   8.173  14.414
37256W        W 8785  14.856  44.344  13.496
37257W        W 8786  26.975  16.220  14.554
37258W        W 8787  44.299  38.981   4.122
37259W        W 8788  43.935   6.322   0.460
37260W        W 8789  26.887  42.472  11.864
37261W        W 8790   2.628  20.579   0.217
37262W        W 8791  35.982  35.621   2.299
37263W        W 8792  18.521  34.459   1.653
37264W        W 8793  29.689  44.759   4.373
37265W        W 8794  30.150   5.868   4.588
37266W        W 8795   7.295  41.953  12.093
37267W        W 8796  30.804  40.604   4.504
37268W        W 8797   2.859  41.157   2.889
37269W        W 8798   8.229  12.713   3.206
37270W        W 8799  12.915  17.820  12.446
37271W        W 8800   3.520   8.680   1.489
37272W        W 8801  25.284  27.463   0.845
37273W        W 8802   8.805  16.351  14.836
37274W        W 8803  39.372  21.937   3.247
37275W        W 8804  36.706  15.103   1.838
37276W        W 8805   5.328  28.803   3.471
37277W        W 8806  20.571  15.753  11.558
37278W        W 8807  34.929  42.774   4.564
37279W        W 8808  23.106  39.946   1.377
37280W        W 8809  28.223   2.278  10.052
37281W        W 8810  29.646  38.749   4.285
37282W        W 8811   4.911  18.160   3.291
37283W        W 8812  32.695  34.055  13.061
37284W        W 8813  11.740  33.457   2.634
37285W        W 8814  32.285  33.723   3.631
37286W        W 8815  32.267  26.812   3.719
37287W        W 8816  23.402  16.245   3.020
37288W        W 8817  28.401  17.333   3.681
37289W        W 8818  29.914  37.427  14.433
37290W        W 8819   8.030  37.417   4.477
37291W        W 8820  40.755  37.146   2.255
37292W        W 8821   9.388  18.232  11.125
37293W        W 8822  16.757  24.291   0.270
37294W        W 8823  22.215  37.631  11.230
37295W        W 8824  44.253  16.186   1.457
37296W        W 8825  18.288  11.628  11.995
37297W        W 8826  29.311  15.678   4.924
37298W        W 8827  14.288  30.070  14.901
37299W        W 8828   6.371  41.212   1.351
37300W        W 8829   1.177  31.055  13.911
37301W        W 8830  29.424  12.051   0.388
37302W        W 8831  23.710  12.602   4.523
37303W        W 8832   6.935   3.174   3.877
37304W        W 8833  35.069  26.679  14.845
37305W        W 8834  28.114  42.922   2.344
37306W        W 8835   5.393   8.323   2.690
37307W        W 8836  25.792   0.904   1.775
37308W        W 8837  38.018   1.337   0.443
37309W        W 8838  17.680  18.253   0.426
37310W        W 8839  18.092  38.954   2.906
37311W        W 8840  39.985  13.270   1.655
37312W        W 8841  14.099  16.161   0.253
37313W        W 8842   8.745  43.993  10.855
37314W        W 8843  16.618  40.347   1.462
37315W        W 8844  33.108  26.552  13.488
37316W        W 8845  40.758  28.868   2.300
37317W        W 8846  24.705  31.003   2.660
37318W        W 8847  11.876  29.749  11.061
37319W        W 8848  11.794  11.395   2.797
37320W        W 8849  20.066  31.810  12.470
37321W        W 8850  44.445   4.413   1.598
37322W        W 8851  32.524  40.723  14.696
37323W        W 8852   0.764  31.377   1.568
37324W        W 8853   5.212  24.387   0.505
37325W        W 8854  26.435  42.859   4.062
37326W        W 8855  11.148  11.280   0.347
37327W        W 8856  23.905  26.100  11.436
37328W        W 8857  34.473  25.532   4.097
37329W        W 8858  11.924  26.878   9.990
37330W        W 8859  36.136  33.560  11.602
37331W        W 8860  19.833  29.597   3.235
37332W        W 8861   6.904  42.194   1.773
37333W        W 8862  40.819  26.438   4.796
37334W        W 8863  23.656   1.216   0.006
37335W        W 8864  39.813   2.485   1.764
37336W        W 8865  36.110  11.872  10.583
37337W        W 8866   3.313   2.882  11.007
37338W        W 8867  37.376  42.173  14.432
37339W        W 8868  26.436  36.391  10.676
37340W        W 8869  41.504  34.508  12.584
37341W        W 8870  42.937  10.066   5.373
37342W        W 8871  18.991  19.707  13.171
37343W        W 8872  35.158   3.563   2.757
37344W        W 8873   3.793  35.690   4.608
37345W        W 8874   4.671  23.372  11.019
37346W        W 8875  29.870  23.004  13.923
37347W        W 8876  21.454   2.156   1.525
37348W        W 8877  33.496  11.368  13.877
37349W        W 8878  36.509   6.712   2.698
37350W        W 8879  27.664  44.423   1.450
37351W        W 8880   4.355   7.119  12.078
37352W        W 8881  15.038  26.518   3.140
37353W        W 8882   2.458  11.134   1.464
37354W        W 8883   9.641  29.814   1.223
37355W        W 8884  32.093  24.189  10.777
37356W        W 8885  40.456  29.521  14.569
37357W        W 8886  36.203  43.851   2.142
37358W        W 8887  40.879   3.402  10.779
37359W        W 8888   3.928   7.886  12.071
37360W        W 8889  43.892  39.911   1.396
37361W        W 8890  37.832  40.926   2.802
37362W        W 8891  28.092   4.519   0.123
37363W        W 8892   6.281  17.601  11.173
37364W        W 8893  11.722  22.149   4.664
37365W        W 8894  33.673  13.718   4.268
37366W        W 8895  10.682  10.424  12.842
37367W        W 8896  18.828  39.361   1.677
37368W        W 8897  32.013  36.973   3.578
37369W        W 8898  26.655  26.154  12.965
37370W        W 8899   8.673  12.802  13.978
37371W        W 8900  11.770  11.084  13.906
37372W        W 8901  40.314  23.808   1.850
37373W        W 8902  13.171  10.573   4.021
37374W        W 8903   9.169  28.382   2.257
37375W        W 8904  21.140  29.427   3.508
37376W        W 8905  12.954  15.341  11.476
37377W        W 8906   5.859   2.120   4.746
37378W        W 8907  44.954   2.376   2.242
37379W        W 8908  38.883   7.992  13.966
37380W        W 8909  41.300  17.726  11.142
37381W        W 8910  40.233  25.508  14.440
37382W        W 8911  32.472  11.891  10.737
37383W        W 8912  18.072  34.354   3.126
37384W        W 8913  30.495   9.663  14.494
37385W        W 8914  34.581  30.358   3.085
37386W        W 8915   5.668  20.386   5.052
37387W        W 8916  22.239   7.607  14.921
37388W        W 8917  23.552  25.489  11.129
37389W        W 8918  35.411   7.301   4.596
37390W        W 8919   3.693  39.824   4.278
37391W        W 8920  38.071  40.485  11.295
37392W        W 8921  31.621   7.752   0.467
37393W        W 8922   8.547  11.117   0.836
37394W        W 8923  34.375  20.992  12.314
37395W        W 8924  37.374  23.021   3.151
37396W        W 8925  34.827  37.429  12.910
37397W        W 8926  13.151  17.679  12.020
37398W        W 8927  13.220  30.462  13.517
37399W        W 8928  23.666  24.035  10.687
37400W        W 8929  14.256   5.841   3.620
37401W        W 8930  21.703  36.387   4.338
37402W        W 8931  10.039   4.667   3.145
37403W        W 8932  10.698  32.037   1.962
37404W        W 8933   1.122  41.804  12.464
37405W        W 8934   5.734  10.666  14.490
37406W        W 8935  31.424  12.126   4.094
37407W        W 8936   8.143  30.427  10.934
37408W        W 8937  18.896  12.845  14.325
37409W        W 8938   4.094  11.243   0.754
37410W        W 8939  13.780  27.675   0.094
37411W        W 8940  17.593  19.756   2.745
37412W        W 8941   9.253  41.071  13.523
37413W        W 8942  28.428  33.957   4.099
37414W        W 8943  12.300   9.582   1.940
37415W        W 8944   7.922   6.798   2.308
37416W        W 8945  16.730  43.708  12.541
37417W        W 8946  22.511  43.417  11.957
37418W        W 8947  40.433  36.591   3.751
37419W        W 8948   5.936   6.692   1.709
37420W        W 8949  37.425  18.051   0.331
37421W        W 8950  39.319  31.911  10.758
37422W        W 8951  40.253  16.141   1.463
37423W        W 8952  44.065  42.890  11.566
37424W        W 8953  33.504  17.078   0.888
37425W        W 8954  20.052  10.742  11.570
37426W        W 8955   3.309  21.205   1.256
37427W        W 8956  38.122   0.289   2.917
37428W        W 8957  42.377   7.659   4.206
37429W        W 8958  14.156  33.981   1.292
37430W        W 8959  43.902  24.034   0.269
37431W        W 8960   1.604  28.064   1.504
37432W        W 8961  25.930  22.560  14.710
37433W        W 8962  38.786  31.505  11.744
37434W        W 8963   2.454   8.178   2.683
37435W        W 8964  27.569  11.748   4.373
37436W        W 8965   1.959  17.110   4.618
37437W        W 8966   6.691   2.189   3.675
37438W        W 8967   1.182  25.937  13.398
37439W        W 8968  24.559  10.304   0.455
37440W        W 8969   5.933  19.594   1.713
37441W        W 8970   6.148   2.470   0.647
37442W        W 8971  14.106   0.902   4.583
37443W        W 8972  24.030  10.850  14.013
37444W        W 8973  15.617  32.467  10.754
37445W        W 8974  28.812  15.045   0.748
37446W        W 8975  42.349  38.449  14.271
37447W        W 8976  20.654   5.460   1.216
37448W        W 8977  18.082  37.289  13.446
37449W        W 8978   8.724  23.983   1.837
37450W        W 8979   0.945  22.993   1.502
37451W        W 8980   7.857  29.384   0.843
37452W        W 8981   3.006  18.059  11.964
37453W        W 8982  12.339  36.673  11.691
37454W        W 8983  11.594  18.978   2.006
37455W        W 8984  36.821  33.329  11.114
37456W        W 8985  26.169   7.111   1.422
37457W        W 8986  11.039  38.433   2.317
37458W        W 8987  11.313  33.462   0.281
37459W        W 8988  26.024  16.493   3.669
37460W        W 8989  12.792  16.558   3.365
37461W        W 8990   0.065   2.409   1.383
37462W        W 8991  25.622  19.022  10.353
37463W        W 8992  25.560  13.815   2.739
37464W        W 8993   1.297  40.251  11.934
37465W        W 8994  26.091  18.773  13.448
37466W        W 8995  22.205  20.073   2.267
37467W        W 8996  30.252  37.226   4.145
37468W        W 8997  26.550  38.880   0.216
37469W        W 8998  30.680  42.357  11.965
37470W        W 8999   6.772  40.830   3.964
37471W        W 9000  42.593  35.517  11.668
37472W        W 9001  21.448   0.990   2.861
37473W        W 9002   9.995  18.289   1.247
37474W        W 9003  25.779  38.269  10.651
37475W        W 9004   2.253  42.585  13.682
37476W        W 9005  21.093  18.809  13.533
37477W        W 9006  36.647  29.162  13.021
37478W        W 9007  39.960  17.780  11.412
37479W        W 9008  40.885  39.839   2.939
37480W        W 9009  39.039  20.066   0.424
37481W        W 9010  31.628   1.393  13.223
37482W        W 9011  28.045  29.580   1.316
37483W        W 9012  21.273  12.151   2.222
37484W        W 9013  40.274  40.488   4.230
37485W        W 9014  16.719  29.590  12.958
37486W        W 9015  29.118  16.400  14.782
37487W        W 9016  10.917  18.021  11.296
37488W        W 9017  19.259  20.950   2.097
37489W        W 9018  32.687  37.145  13.403
37490W        W 9019  23.560  44.754  14.516
37491W        W 9020  38.398  43.854  13.642
37492W        W 9021  10.351  23.985  12.407
37493W        W 9022  42.368  26.301   1.058
37494W        W 9023  30.166  43.577   4.517
37495W        W 9024  37.294  39.448   0.943
37496W        W 9025  32.888  35.554  14.797
37497W        W 9026  44.009  34.413   0.018
37498W        W 9027  34.361   0.487   2.643
37499W        W 9028  33.013   8.192   4.900
37500W        W 9029  28.935  24.723  11.162
37501W        W 9030  23.965   4.338   3.318
37502W        W 9031   3.948  22.089   0.443
37503W        W 9032  28.912  44.450  11.258
37504W        W 9033  30.890  16.388  11.113
37505W        W 9034  44.448  15.788   2.739
37506W        W 9035  40.030  30.066  11.879
37507W        W 9036  14.661   4.959   2.319
37508W        W 9037  18.349  17.879  10.990
37509W        W 9038  17.239  23.248   3.605
37510W        W 9039   1.435  10.779   0.492
37511W        W 9040  22.616  42.734   0.432
37512W        W 9041  26.448  40.878  12.404
37513W        W 9042  13.323  43.297   1.426
37514W        W 9043   7.710  37.970   2.061
37515W        W 9044  41.558  34.414  11.898
37516W        W 9045  29.008  28.175   3.975
37517W        W 9046  43.335  15.609  13.959
37518W        W 9047   0.698  28.893   3.966
37519W        W 9048   4.201  44.670  10.493
37520W        W 9049  40.081   4.285  11.731
37521W        W 9050  39.522  33.949  12.878
37522W        W 9051  39.570  19.710  14.681
37523W        W 9052  39.056  27.176   3.101
37524W        W 9053  29.473  27.029  12.071
37525W        W 9054   0.369  21.739  13.161
37526W        W 9055  39.801  15.878   4.695
37527W        W 9056  38.796  36.769   1.554
37528W        W 9057  33.449  19.586   3.219
37529W        W 9058  20.255  20.237   2.937
37530W        W 9059  23.180  31.035  14.194
37531W        W 9060  31.924  24.749   0.027
37532W        W 9061  42.803  34.397   4.530
37533W        W 9062  44.365   0.167   3.371
37534W        W 9063  13.335  19.717  10.820
37535W        W 9064  20.196  43.499   3.243
37536W        W 9065  32.351  21.304   2.334
37537W        W 9066  44.979  42.650   4.208
37538W        W 9067  20.526  14.803  10.759
37539W        W 9068  17.666  10.623  12.481
37540W        W 9069  44.455  31.336  12.508
37541W        W 9070  41.401  27.056   1.165
37542W        W 9071  13.880  15.309  13.021
37543W        W 9072  38.913  32.125   4.201
37544W        W 9073  13.248  18.222   2.925
37545W        W 9074  23.670   7.203  13.339
37546W        W 9075  22.267   5.609   4.197
37547W        W 9076   3.647  17.176  11.411
37548W        W 9077  27.805  13.417  13.907
37549W        W 9078  16.993  24.740  14.737
37550W        W 9079   7.194  40.697   4.579
37551W        W 9080  38.752  26.453  14.221
37552W        W 9081  38.576  37.480   0.218
37553W        W 9082   8.550   7.017  14.676
37554W        W 9083  36.733   9.352   0.969
37555W        W 9084  22.561  10.196   1.415
37556W        W 9085  15.042   7.370   3.681
37557W        W 9086  30.577  32.401   4.770
37558W        W 9087  21.806  29.044   2.619
37559W        W 9088  14.839  34.370  11.182
37560W        W 9089  33.552  22.087  14.873
37561W        W 9090  19.131   7.287   4.765
37562W        W 9091  17.472   0.452   2.173
37563W        W 9092  34.931  34.916  12.070
37564W        W 9093  28.404  22.682   1.070
37565W        W 9094  21.686   0.972   1.996
37566W        W 9095  40.280  41.295  14.441
37567W        W 9096  10.280  13.678   2.716
37568W        W 9097  33.461  42.953  14.048
37569W        W 9098  17.483  10.043   4.561
37570W        W 9099  29.129  34.182  13.874
37571W        W 9100   4.569   2.720  13.499
37572W        W 9101  13.781  40.355  14.478
37573W        W 9102  19.946  25.667   1.334
37574W        W 9103   8.146  32.915  13.438
37575W        W 9104  27.168  15.157  10.982
37576W        W 9105   8.085  35.069  11.071
37577W        W 9106  23.656  14.581   4.207
37578W        W 9107  39.339  35.260  14.495
37579W        W 9108  31.990  30.437   1.875
37580W        W 9109  28.343  33.593  12.073
37581W        W 9110  20.009  26.542  11.608
37582W        W 9111  18.149  29.063  10.777
37583W        W 9112  10.436  24.522   1.006
37584W        W 9113   7.360   6.617   1.415
37585W        W 9114  18.594  39.554  10.681
37586W        W 9115  26.529  41.018  13.336
37587W        W 9116  13.657  42.491   2.589
37588W        W 9117   8.178  28.559  13.889
37589W        W 9118  40.848  26.102   2.246
37590W        W 9119  21.057  11.714   3.218
37591W        W 9120  19.124   6.642   3.332
37592W        W 9121   0.249  19.750  14.283
37593W        W 9122  39.222  12.376   2.741
37594W        W 9123  38.909  19.783  11.501
37595W        W 9124  18.770  25.053  10.103
37596W        W 9125   4.455   2.011   3.702
37597W        W 9126   9.409  42.770   2.795
37598W        W 9127  17.945   9.098   2.785
37599W        W 9128  28.514   6.439   3.810
37600W        W 9129   0.729  15.005   4.210
37601W        W 9130  13.133   8.633   0.493
37602W        W 9131   8.407  30.013  11.111
37603W        W 9132  36.861  31.111   3.764
37604W        W 9133  18.774  34.192   4.123
37605W        W 9134   7.898  17.511   1.263
37606W        W 9135  26.956  37.601  13.037
37607W        W 9136  44.771  43.747  11.960
37608W        W 9137  30.218  17.159   4.835
37609W        W 9138  10.562  24.019   0.151
37610W        W 9139  16.603   4.357  12.545
37611W        W 9140  10.407  31.630  11.127
37612W        W 9141   8.841   4.334   4.754
37613W        W 9142  19.041  31.205  11.682
37614W        W 9143  10.260  29.924  11.540
37615W        W 9144   1.768   8.395   4.729
37616W        W 9145   3.983   4.187   0.410
37617W        W 9146  32.456  43.589  13.924
37618W        W 9147   3.989  36.998  11.193
37619W        W 9148  13.657  18.780   4.794
37620W        W 9149  27.569   8.353   4.130
37621W        W 9150   2.675  41.488  13.062
37622W        W 9151  11.323  28.485  12.099
37623W        W 9152  35.909  17.172   0.201
37624W        W 9153  39.293  40.103  12.525
37625W        W 9154   9.886   1.505   4.560
37626W        W 9155   3.451  21.977  10.635
37627W        W 9156  35.999  18.043   4.083
37628W        W 9157  37.564  11.878  12.639
37629W        W 9158  20.260  12.304   0.943
37630W        W 9159  26.438  18.052   4.531
37631W        W 9160  28.945  33.334  11.615
37632W        W 9161  16.053  36.747   1.832
37633W        W 9162   4.766  40.358   1.901
37634W        W 9163   6.260  18.316  12.414
37635W        W 9164   9.623   7.823   0.647
37636W        W 9165  44.002  21.006  10.934
37637W        W 9166  44.908   7.832   3.103
37638W        W 9167  41.980  25.090  13.383
37639W        W 9168  11.294  40.041   2.817
37640W        W 9169  23.515  35.940  13.059
37641W        W 9170   1.501  11.344  11.359
37642W        W 9171  10.627   5.720  11.996
37643W        W 9172  41.612  43.761  14.753
37644W        W 9173  42.494  29.047  11.525
37645W        W 9174  18.776  29.948  13.653
37646W        W 9175  33.985  44.330   0.744
37647W        W 9176  25.960   9.429   4.222
37648W        W 9177  31.034  24.150  10.971
37649W        W 9178  38.969   4.786   2.714
37650W        W 9179   3.780   3.399  11.803
37651W        W 9180  41.992  24.530  10.913
37652W        W 9181  21.457  15.310   1.525
37653W        W 9182  10.244  22.235  13.082
37654W        W 9183  10.676   7.692   0.754
37655W        W 9184   9.789  28.404  14.987
37656W        W 9185  30.445  36.175   0.812
37657W        W 9186  11.715  23.566  14.918
37658W        W 9187  22.710  10.933   3.203
37659W        W 9188  39.414  42.090  11.988
37660W        W 9189   3.944   6.789  11.147
37661W        W 9190   3.350  30.374  14.877
37662W        W 9191   8.245  42.225   3.112
37663W        W 9192   0.435  26.749   0.176
37664W        W 9193  20.130  36.998  12.917
37665W        W 9194   7.651   9.632  12.898
37666W        W 9195  42.024  34.811   5.011
37667W        W 9196  21.933  36.529  12.457
37668W        W 9197   4.124  15.679  11.980
37669W        W 9198  27.530  25.561  12.044
37670W        W 9199  37.080   3.525  12.661
37671W        W 9200  34.424  20.082  10.589
37672W        W 9201   3.055  15.383   4.061
37673W        W 9202   9.206  12.274  14.419
37674W        W 9203   1.947  40.310   0.279
37675W        W 9204  36.060  17.660   0.120
37676W        W 9205  11.314  40.056   0.062
37677W        W 9206  33.545  26.095   3.969
37678W        W 9207  37.399  21.977   0.478
37679W        W 9208  34.801  35.502   2.886
37680W        W 9209  20.295   9.393  12.795
37681W        W 9210  43.271   6.096  14.888
37682W        W 9211  28.930  27.649   3.308
37683W        W 9212  29.850  15.567   4.147
37684W        W 9213  24.704  19.470  14.507
37685W        W 9214  32.043  39.122   0.415
37686W        W 9215  10.386   3.106  12.967
37687W        W 9216  14.063  34.697  11.413
37688W        W 9217  29.169   6.690  10.672
37689W        W 9218  34.195   2.893   1.682
37690W        W 9219  13.277  15.699  11.305
37691W        W 9220  36.906  16.702   0.867
37692W        W 9221   7.319  21.082  11.390
37693W        W 9222   4.138  41.949   3.665
37694W        W 9223  29.101  13.271  12.113
37695W        W 9224  39.924  33.390  11.370
37696W        W 9225  36.228  41.428   5.048
37697W        W 9226  42.877   6.972  10.545
37698W        W 9227   8.187  23.556  10.865
37699W        W 9228  24.760  24.357   3.043
37700W        W 9229  27.622   8.832   4.397
37701W        W 9230  14.008   5.449  14.450
37702W        W 9231  23.571  37.849   2.411
37703W        W 9232   2.293  27.402  11.042
37704W        W 9233  42.806  12.059   3.798
37705W        W 9234  10.847   2.344   0.511
37706W        W 9235   0.359  37.626  14.541
37707W        W 9236  11.878   8.260  13.472
37708W        W 9237  15.113   3.011   0.339
37709W        W 9238  10.358  32.150  14.257
37710W        W 9239  38.267  37.146  12.725
37711W        W 9240  39.317   9.899  10.776
37712W        W 9241  21.874  22.474   4.136
37713W        W 9242  12.382  26.923   4.181
37714W        W 9243  40.698  31.373   0.894
37715W        W 9244  30.810  32.454  12.434
37716W        W 9245  27.929  20.547   4.109
37717W        W 9246   6.296  40.646   3.197
37718W        W 9247  28.893  33.599  12.049
37719W        W 9248  38.333   5.487   0.619
37720W        W 9249   6.804  29.201  14.784
37721W        W 9250  27.197  32.480  11.870
37722W        W 9251  28.695  30.750  11.758
37723W        W 9252  28.948   7.254   1.640
37724W        W 9253  19.987   1.795  13.993
37725W        W 9254  27.392  34.539  12.010
37726W        W 9255  37.401  19.085  12.863
37727W        W 9256   6.406  13.403   1.384
37728W        W 9257  32.045   6.505   3.017
37729W        W 9258  18.673  20.771  12.987
37730W        W 9259   5.038  25.448   0.268
37731W        W 9260  15.223   0.246  14.835
37732W        W 9261  27.739   9.223  13.724
37733W        W 9262   7.729  40.471   3.138
37734W        W 9263  32.056  18.092   0.412
37735W        W 9264  20.500  36.415   0.730
37736W        W 9265  33.479   7.231   1.765
37737W        W 9266  24.691  14.699  10.658
37738W        W 9267   4.505   3.888   3.339
37739W        W 9268  31.069  41.191  11.525
37740W        W 9269   5.610  29.036  14.288
37741W        W 9270   6.144  41.272  12.571
37742W        W 9271  21.744   3.705   2.903
37743W        W 9272  23.962   0.517   1.831
37744W        W 9273  10.270  30.973  13.434
37745W        W 9274  29.913  24.951  13.823
37746W        W 9275  30.746   0.869   0.203
37747W        W 9276  33.841  17.754   0.814
37748W        W 9277  37.264  19.656  10.334
37749W        W 9278  15.476  25.481   2.210
37750W        W 9279  19.026  26.587   1.712
37751W        W 9280  25.412  29.841  11.028
37752W        W 9281  34.889  12.625   0.342
37753W        W 9282   0.850  35.559   2.371
37754W        W 9283  22.554  24.232  13.753
37755W        W 9284   3.975  15.611   0.848
37756W        W 9285  44.792  28.925  12.915
37757W        W 9286  41.588  28.413  13.062
37758W        W 9287  18.775  25.475   2.375
37759W        W 9288   3.250  42.472  14.464
37760W        W 9289  32.193  32.374   3.862
37761W        W 9290  33.074  24.985   2.612
37762W        W 9291  29.113   9.320   0.002
37763W        W 9292  18.248  21.555   4.642
37764W        W 9293   9.087  35.737   2.896
37765W        W 9294  42.525  23.689   4.058
37766W        W 9295  33.486  28.899   4.210
37767W        W 9296  36.745   9.628   1.868
37768W        W 9297  28.462   2.294   4.159
37769W        W 9298   8.930  30.853   3.538
37770W        W 9299  27.622  18.078  14.018
37771W        W 9300  17.052  10.884   1.261
37772W        W 9301  34.353  35.448  13.378
37773W        W 9302  30.319  17.070  12.365
37774W        W 9303  20.542   7.376  13.543
37775W        W 9304  23.903  34.907   0.706
37776W        W 9305  31.305  27.511  13.224
37777W        W 9306  34.345  25.986   3.876
37778W        W 9307  25.923  18.456  13.845
37779W        W 9308  40.128  29.485  11.184
37780W        W 9309   5.987   3.429   0.363
37781W        W 9310  44.482  31.530  10.814
37782W        W 9311  18.831  21.559  13.523
37783W        W 9312  16.508  24.557  11.622
37784W        W 9313  44.952  41.369   4.221
37785W        W 9314   0.203  23.673  11.112
37786W        W 9315  22.090   5.956   0.056
37787W        W 9316  28.097  17.881  12.026
37788W        W 9317  44.248   2.884   2.647
37789W        W 9318  34.483  27.291   0.876
37790W        W 9319  34.594  17.825   2.115
37791W        W 9320  15.047  39.613  14.115
37792W        W 9321  40.344  21.642  13.906
37793W        W 9322  41.402  35.359  13.493
37794W        W 9323   9.906  10.723  14.004
37795W        W 9324  23.090  20.812  11.083
37796W        W 9325  43.482  12.202  14.046
37797W        W 9326   5.403  23.152  13.938
37798W        W 9327  26.741  29.946   4.217
37799W        W 9328  12.614  27.568   0.814
37800W        W 9329  17.114   5.837  13.888
37801W        W 9330  41.140  38.088   3.768
37802W        W 9331  20.147  24.966  13.969
37803W        W 9332  31.629  19.320   1.669
37804W        W 9333   4.806  22.507  14.234
37805W        W 9334   1.845  22.303  11.066
37806W        W 9335  27.572  42.725   3.208
37807W        W 9336  26.494  17.072  14.022
37808W        W 9337  26.264  32.939   0.827
37809W        W 9338  43.794  21.591  12.548
37810W        W 9339   9.978   7.776  13.372
37811W        W 9340  18.695  15.423   0.775
37812W        W 9341  43.335  43.821  11.225
37813W        W 9342  38.423  19.559   1.257
37814W        W 9343  20.635  29.251   4.184
37815W        W 9344  25.681  18.187   0.402
37816W        W 9345  29.507  29.521   0.223
37817W        W 9346   9.679  21.508  14.990
37818W        W 9347   3.020  39.589   2.712
37819W        W 9348  33.224  42.334   0.212
37820W        W 9349   6.699  33.979  13.018
37821W        W 9350  44.465   2.712   0.852
37822W        W 9351  22.370  34.958  10.801
37823W        W 9352  24.211   3.776  13.583
37824W        W 9353  28.403  22.627   2.144
37825W        W 9354  27.412  33.007  10.689
37826W        W 9355  14.691  16.236  10.731
37827W        W 9356  43.561  29.236  12.287
37828W        W 9357  27.703  15.073  14.500
37829W        W 9358  33.889  38.480   2.949
37830W        W 9359  38.359  37.046   1.432
37831W        W 9360  15.331  24.595  13.370
37832W        W 9361  36.209  26.544   3.727
37833W        W 9362  19.569  33.513  12.671
37834W        W 9363  25.196  40.183   3.222
37835W        W 9364  13.115   5.965  12.071
37836W        W 9365  13.114   3.098  11.600
37837W        W 9366  23.468   5.280   0.898
37838W        W 9367   3.162   5.949  13.376
37839W        W 9368  27.792  10.701  14.423
37840W        W 9369  19.567   6.300  13.450
37841W        W 9370  30.843  17.187  13.718
37842W        W 9371  14.683   3.888  14.591
37843W        W 9372  17.180  13.239   2.846
37844W        W 9373  16.840   2.755  10.632
37845W        W 9374   6.180  13.232  11.461
37846W        W 9375  21.558   5.464   1.335
37847W        W 9376   8.228   1.390   3.767
37848W        W 9377  21.122  21.421  14.235
37849W        W 9378  32.454  21.741  14.451
37850W        W 9379  31.644   7.438   4.224
37851W        W 9380  34.083  17.526  12.485
37852W        W 9381   0.804   6.376   1.299
37853W        W 9382  15.911  10.154  12.390
37854W        W 9383   9.821  19.464   0.528
37855W        W 9384  25.745  37.835   1.676
37856W        W 9385   9.883  13.803   1.241
37857W        W 9386  23.727  10.111   3.604
37858W        W 9387  15.041  14.296   0.447
37859W        W 9388  44.252  14.696   3.249
37860W        W 9389   2.811   2.369   3.235
37861W        W 9390   6.213  21.955   1.860
37862W        W 9391  11.216  14.221   4.671
37863W        W 9392  17.999  41.862   1.131
37864W        W 9393  18.080  32.810   0.296
37865W        W 9394  17.648  15.316  10.818
37866W        W 9395  24.233  35.880  10.848
37867W        W 9396   7.336   7.872  11.598
37868W        W 9397   6.191   5.456  11.917
37869W        W 9398  36.931  18.261  14.274
37870W        W 9399  37.107  30.966   4.221
37871W        W 9400  30.675  40.287   3.572
37872W        W 9401   7.578   0.767  13.767
37873W        W 9402  14.730   0.034  14.899
37874W        W 9403  34.995  35.350   3.896
37875W        W 9404   2.790  29.706   3.423
37876W        W 9405   9.088  28.007   1.900
37877W        W 9406  21.978  40.669  11.848
37878W        W 9407  39.967   8.686  12.155
37879W        W 9408   5.942   1.884  14.108
37880W        W 9409  18.568   3.744  13.881
37881W        W 9410   9.270  43.432  14.793
37882W        W 9411  15.848  35.982   1.358
37883W        W 9412  36.568  12.724   0.213
37884W        W 9413   4.171  12.365  14.309
37885W        W 9414  15.545  20.003   4.317
37886W        W 9415  23.083  42.548   0.310
37887W        W 9416  35.785   4.344  11.208
37888W        W 9417  34.250   1.000   0.008
37889W        W 9418  26.634   2.695  13.529
37890W        W 9419   6.295  44.498  11.253
37891W        W 9420   5.768  13.389   3.016
37892W        W 9421  10.868  26.125   2.323
37893W        W 9422  35.316   8.413  13.007
37894W        W 9423  40.435   0.474   1.754
37895W        W 9424  17.211   4.505  12.171
37896W        W 9425   9.443  18.445  12.386
37897W        W 9426  41.246  33.603  11.602
37898W        W 9427  11.392  13.597   1.821
37899W        W 9428  16.920  38.358  13.507
37900W        W 9429  37.329  22.557   0.256
37901W        W 9430  15.644  25.356  10.344
37902W        W 9431   5.103  22.885  12.514
37903W        W 9432  37.451  29.194   1.738
37904W        W 9433  35.480   1.163  12.265
37905W        W 9434  43.201  33.117   1.689
37906W        W 9435   4.726  28.155  12.482
37907W        W 9436  24.127  10.233   1.705
37908W        W 9437   9.427  12.847   0.095
37909W        W 9438   0.242  35.012  13.996
37910W        W 9439  20.103  17.868  14.821
37911W        W 9440   3.782  11.137  13.413
37912W        W 9441  11.873   0.589   3.357
37913W        W 9442   9.646  30.096  12.959
37914W        W 9443  41.836  41.385  13.184
37915W        W 9444   3.098  42.128   3.746
37916W        W 9445  44.500  15.192   2.441
37917W        W 9446  19.086   6.047   0.862
37918W        W 9447  18.570   0.001   3.762
37919W        W 9448  20.272   6.240   0.477
37920W        W 9449  44.475  32.866  12.534
37921W        W 9450   5.737  33.759  11.496
37922W        W 9451  29.156  40.441   1.540
37923W        W 9452  10.174   8.291   4.770
37924W        W 9453  19.275  17.274  13.288
37925W        W 9454  35.825  14.407   3.625
37926W        W 9455  40.330  34.939  11.047
37927W        W 9456  36.538   9.853  14.825
37928W        W 9457  43.499   9.225   3.679
37929W        W 9458   4.353  13.064   1.900
37930W        W 9459  19.484   9.357  12.926
37931W        W 9460  23.784  13.650  14.835
37932W        W 9461  43.232  14.645   3.230
37933W        W 9462  21.528  10.840   2.308
37934W        W 9463  44.837  15.435   1.958
37935W        W 9464   8.842  29.696  11.245
37936W        W 9465  29.270  25.896  13.481
37937W        W 9466  37.533  27.545  10.969
37938W        W 9467  36.066  13.260   3.086
37939W        W 9468  11.743  12.635   1.401
37940W        W 9469   7.807   9.405   1.505
37941W        W 9470   7.910   5.261   4.752
37942W        W 9471  44.203  17.762  12.414
37943W        W 9472  31.585  42.635   1.784
37944W        W 9473  41.983   4.482   1.262
37945W        W 9474  28.298   2.173   3.230
37946W        W 9475  18.528  14.694   2.246
37947W        W 9476  14.837  39.849  14.775
37948W        W 9477  42.039  26.152   0.291
37949W        W 9478   4.457   1.935   4.641
37950W        W 9479   4.407  39.410   1.699
37951W        W 9480   8.846   3.347   0.435
37952W        W 9481  20.088  31.328  13.328
37953W        W 9482  25.005  11.126   2.735
37954W        W 9483  14.101  29.995  13.415
37955W        W 9484  36.853   7.270  14.553
37956W        W 9485  19.593  25.527   4.381
37957W        W 9486  28.129   8.668   0.427
37958W        W 9487  36.005  21.917  12.303
37959W        W 9488   4.431  38.563  13.057
37960W        W 9489   4.731  40.875  14.789
37961W        W 9490  29.498   4.238  14.867
37962W        W 9491  26.971  44.855   1.195
37963W        W 9492  44.466  13.729  14.483
37964W        W 9493   9.879  36.545  11.654
37965W        W 9494  25.178  43.682  14.413
37966W        W 9495  30.852  17.834   4.972
37967W        W 9496   6.572  43.386   4.535
37968W        W 9497  35.041  40.852  14.284
37969W        W 9498  27.495  33.670  11.352
37970W        W 9499  19.087  30.945  14.440
37971W        W 9500  31.934   8.423   3.436
37972W        W 9501  36.368   0.774   3.744
37973W        W 9502   1.837  35.486   2.835
37974W        W 9503  40.199  22.762   4.049
37975W        W 9504  33.681  21.499  12.024
37976W        W 9505  16.000  22.631  11.163
37977W        W 9506  22.197  22.165  14.943
37978W        W 9507   8.366  14.525   2.683
37979W        W 9508  30.625  41.821  11.847
37980W        W 9509   5.774  10.169   4.791
37981W        W 9510  16.796  23.076   4.612
37982W        W 9511  15.339  34.604   3.342
37983W        W 9512   5.533   5.543   3.689
37984W        W 9513  39.238  43.047  12.850
37985W        W 9514  11.854  22.993  11.087
37986W        W 9515  40.288  39.053   0.235
37987W        W 9516  31.102  24.134   0.393
37988W        W 9517  19.625  35.278   0.287
37989W        W 9518   6.783   1.200  11.968
37990W        W 9519  35.559  42.090   4.087
37991W        W 9520  15.784   1.306   1.594
37992W        W 9521   7.163  41.839  11.086
37993W        W 9522  38.742   6.686  11.052
37994W        W 9523  43.019  12.724   1.690
37995W        W 9524  11.668  35.555   4.160
37996W        W 9525  26.125  43.789  11.011
37997W        W 9526  22.209  13.658  13.777
37998W        W 9527  23.076  13.051   2.284
37999W        W 9528  19.145  37.066  12.413
38000W        W 9529  21.333  43.438   4.534
38001W        W 9530   3.787  22.591  11.553
38002W        W 9531  39.751  15.185   4.039
38003W        W 9532  13.391   9.888   3.241
38004W        W 9533  38.083  17.033   4.334
38005W        W 9534  25.696  25.315   4.870
38006W        W 9535  14.732  10.082   0.180
38007W        W 9536  10.286  29.646  11.115
38008W        W 9537  27.148  15.793  14.232
38009W        W 9538  43.016  34.041   0.802
38010W        W 9539   3.405  41.978  14.318
38011W        W 9540  19.523  13.776   3.828
38012W        W 9541  16.383   1.509  13.267
38013W        W 9542  25.442  13.904   5.049
38014W        W 9543   1.859   9.293  14.106
38015W        W 9544  42.956   0.998  12.177
38016W        W 9545  41.708  43.733  11.860
38017W        W 9546   1.545  21.289  12.587
38018W        W 9547  24.455   9.192  14.002
38019W        W 9548   2.304  30.524   0.900
38020W        W 9549  29.582  37.686  11.565
38021W        W 9550  37.556   4.249   3.224
38022W        W 9551   1.403  30.123   2.332
38023W        W 9552  29.320  18.039   5.019
38024W        W 9553  26.070  23.998  12.059
38025W        W 9554  20.914  18.056  12.452
38026W        W 9555  41.950  14.863   1.250
38027W        W 9556  10.439   7.834  14.341
38028W        W 9557  33.270   4.466  10.773
38029W        W 9558   7.140  22.037   2.691
38030W        W 9559  40.872  30.273   2.589
38031W        W 9560  43.033  29.127  12.418
38032W        W 9561  35.008  29.061  11.614
38033W        W 9562  30.922  40.319  14.799
38034W        W 9563  33.412  11.340   1.928
38035W        W 9564  30.094  31.150   4.374
38036W        W 9565  28.622  41.795  11.102
38037W        W 9566   6.759  37.067   2.049
38038W        W 9567  40.526   9.404   2.308
38039W        W 9568  30.417  36.282   4.567
38040W        W 9569  33.871  23.509  12.790
38041W        W 9570   5.995  44.399  13.682
38042W        W 9571  29.668  41.701  12.826
38043W        W 9572  37.849  22.137   3.220
38044W        W 9573  37.082  15.817  11.609
38045W        W 9574  16.060  17.642  14.437
38046W        W 9575  17.298  31.555   2.138
38047W        W 9576  26.122  23.312  14.756
38048W        W 9577  12.889   8.674  14.665
38049W        W 9578   8.840   5.897  12.518
38050W        W 9579  33.566  29.673   3.305
38051W        W 9580   9.677  35.539  13.982
38052W        W 9581  21.597  34.479  14.550
38053W        W 9582   0.698   3.298   4.643
38054W        W 9583  12.510  31.671   3.118
38055W        W 9584  29.830  10.215   2.171
38056W        W 9585  13.778  15.397   0.451
38057W        W 9586  20.640  42.012  12.593
38058W        W 9587  40.195   8.063   2.662
38059W        W 9588  20.562   3.305   4.284
38060W        W 9589  15.043  23.743  11.848
38061W        W 9590   3.363  24.105  11.691
38062W        W 9591  44.276   5.798  12.805
38063W        W 9592  35.856  11.661  13.396
38064W        W 9593  31.744  21.513  12.917
38065W        W 9594   7.910  13.115   3.612
38066W        W 9595  27.552   7.903  12.638
38067W        W 9596  31.230  30.934   2.169
38068W        W 9597  10.679  25.405   1.752
38069W        W 9598   2.460  21.643  10.566
38070W        W 9599  33.532   6.168  13.072
38071W        W 9600  12.396  30.456  12.351
38072W        W 9601  34.654  21.031   3.152
38073W        W 9602  35.372  29.062  12.626
38074W        W 9603  44.881  38.453   0.821
38075W        W 9604  14.374  30.563  11.239
38076W        W 9605  16.114  14.565  14.881
38077W        W 9606  12.072  42.226  11.608
38078W        W 9607   0.854  27.570   1.774
38079W        W 9608  17.961   0.763  12.433
38080W        W 9609  27.043  16.187   3.845
38081W        W 9610   1.007  20.340  11.275
38082W        W 9611  24.661  26.125   2.678
38083W        W 9612  43.326  33.236   4.175
38084W        W 9613   1.269  22.080   4.645
38085W        W 9614   5.214  24.337  12.450
38086W        W 9615   6.565  15.259   1.690
38087W        W 9616  19.715  40.437  14.564
38088W        W 9617  15.767  10.836   4.553
38089W        W 9618  30.121  25.341  14.628
38090W        W 9619   8.715  40.154   0.779
38091W        W 9620  13.224  27.780  13.466
38092W        W 9621  37.814  20.245  14.862
38093W        W 9622   4.309  40.719   3.131
38094W        W 9623  35.456   0.760   2.448
38095W        W 9624  10.921  41.379   3.339
38096W        W 9625  21.236  24.044   3.992
38097W        W 9626  31.995  24.496   0.471
38098W        W 9627   4.089  26.069   3.195
38099W        W 9628   7.450  40.279  11.132
38100W        W 9629  41.649  41.940   4.515
38101W        W 9630   1.998   1.376   4.720
38102W        W 9631  34.072  16.590  12.945
38103W        W 9632  24.047  43.299  13.953
38104W        W 9633  38.596  15.525  10.579
38105W        W 9634  34.385   4.700  12.528
38106W        W 9635  33.406  21.563  11.567
38107W        W 9636   4.726  18.041  11.084
38108W        W 9637  30.663  23.924   1.379
38109W        W 9638  43.861  23.416  11.550
38110W        W 9639  33.046  34.385  12.894
38111W        W 9640  39.480  41.269   3.191
38112W        W 9641  15.403   2.761   3.850
38113W        W 9642  31.661   0.752  11.483
38114W        W 9643  13.683  40.394   1.458
38115W        W 9644  40.752  21.525   2.140
38116W        W 9645   4.467  38.329   0.071
38117W        W 9646  16.826  41.422  13.947
38118W        W 9647   0.877  16.071   4.168
38119W        W 9648  14.103  24.165  13.513
38120W        W 9649  34.002  29.516  12.873
38121W        W 9650  19.108  27.352   2.915
38122W        W 9651   8.828  24.273   2.255
38123W        W 9652   1.228  42.484  11.287
38124W        W 9653  14.336  36.319  10.680
38125W        W 9654   7.811   1.928   3.375
38126W        W 9655   5.157  29.589   1.663
38127W        W 9656  26.523  40.222   4.119
38128W        W 9657  28.138  30.598  11.156
38129W        W 9658  31.029  19.749  11.087
38130W        W 9659  12.171  40.314  11.143
38131W        W 9660   9.275  37.039  13.296
38132W        W 9661  13.876  15.611   1.770
38133W        W 9662  29.005  40.057  12.398
38134W        W 9663   1.265   9.566  11.558
38135W        W 9664  22.579  20.812  11.183
38136W        W 9665  25.362  42.847  10.894
38137W        W 9666   8.157  15.269   4.939
38138W        W 9667  22.245  41.844   2.059
38139W        W 9668  15.258   8.925   2.688
38140W        W 9669  33.880  35.201   3.210
38141W        W 9670  33.029  43.270   4.863
38142W        W 9671  28.725  16.244  10.626
38143W        W 9672  27.986   5.721   5.118
38144W        W 9673  12.091  21.230   3.699
38145W        W 9674  44.473   0.322   1.868
38146W        W 9675   1.893  38.015   1.676
38147W        W 9676   1.847   3.793   4.622
38148W        W 9677  32.256  12.876   0.845
38149W        W 9678  38.446   0.455  14.363
38150W        W 9679   6.462  22.485  12.460
38151W        W 9680  13.174  22.504   0.826
38152W        W 9681   8.700   4.064   2.348
38153W        W 9682  37.440  11.863   2.271
38154W        W 9683  34.486   6.660   1.627
38155W        W 9684  18.620  25.109  14.760
38156W        W 9685  20.716  31.573  11.973
38157W        W 9686  43.273  43.847   1.177
38158W        W 9687  35.175  38.486  12.244
38159W        W 9688  24.281   0.438  10.728
38160W        W 9689  31.228  36.507  12.427
38161W        W 9690  10.870  10.423  14.550
38162W        W 9691  30.362  24.958  11.091
38163W        W 9692  21.055  43.473   2.392
38164W        W 9693  34.168  12.777  11.085
38165W        W 9694   4.380   8.146   2.868
38166W        W 9695  22.268   2.544  11.523
38167W        W 9696   6.635  21.298  13.161
38168W        W 9697  18.285  30.677   4.104
38169W        W 9698  20.742   9.295   3.946
38170W        W 9699   1.833  24.681  10.770
38171W        W 9700  32.270   5.229  14.956
38172W        W 9701  43.260  30.905   0.307
38173W        W 9702   9.949   3.339  12.857
38174W        W 9703   5.499  18.219   4.081
38175W        W 9704   6.932   6.245   3.575
38176W        W 9705  40.072  37.433  12.592
38177W        W 9706  16.673  43.553   1.110
38178W        W 9707  18.626  42.963  14.511
38179W        W 9708  34.397  18.485   4.205
38180W        W 9709  39.544  30.955   3.565
38181W        W 9710   8.622  40.710  12.341
38182W        W 9711  28.918  25.047   0.083
38183W        W 9712  24.285  20.884  11.158
38184W        W 9713  44.817  39.608   3.395
38185W        W 9714  17.256  27.346  11.939
38186W        W 9715   2.567  14.815  14.062
38187W        W 9716  12.817   9.720  13.896
38188W        W 9717  33.028  15.820   2.218
38189W        W 9718  17.209  34.085  12.446
38190W        W 9719   9.414   1.717  12.423
38191W        W 9720  28.413   0.334  11.187
38192W        W 9721  29.180   7.349   3.167
38193W        W 9722  38.959  44.410  12.030
38194W        W 9723  38.177  30.770   0.348
38195W        W 9724   3.022   0.421   4.544
38196W        W 9725  43.764  40.775   3.387
38197W        W 9726   1.222  13.365  12.511
38198W        W 9727  26.199  44.943  12.530
38199W        W 9728  35.914  11.037  12.512
38200W        W 9729  13.865  17.796   1.395
38201W        W 9730  17.284  12.436   1.322
38202W        W 9731   5.771  37.481   2.396
38203W        W 9732  34.865  22.695   4.457
38204W        W 9733  44.322  20.036   0.527
38205W        W 9734  31.605  23.264   1.735
38206W        W 9735  36.555   5.166   3.770
38207W        W 9736  29.630  37.460  10.131
38208W        W 9737  23.926   3.496  11.190
38209W        W 9738   0.337  11.775  14.795
38210W        W 9739  26.727   4.822  11.584
38211W        W 9740  35.493  17.156  14.424
38212W        W 9741  37.704   6.764   4.565
38213W        W 9742  41.398  17.265  14.923
38214W        W 9743   3.459   7.109  11.973
38215W        W 9744   3.821  28.324  12.942
38216W        W 9745  22.140   0.484  10.565
38217W        W 9746  26.936  17.196  11.065
38218W        W 9747  31.213  30.139   2.748
38219W        W 9748  32.798  14.235  13.011
38220W        W 9749  42.032  16.089  13.210
38221W        W 9750   6.175   9.673  11.188
38222W        W 9751  23.474  13.392  12.910
38223W        W 9752  23.966  13.209  12.925
38224W        W 9753  33.208  16.771  13.937
38225W        W 9754   6.245   0.029   3.285
38226W        W 9755   8.771   1.049   0.418
38227W        W 9756   8.174  12.798   0.294
38228W        W 9757   8.370   6.220  11.292
38229W        W 9758  25.004  21.594   4.070
38230W        W 9759  41.377   0.002  11.511
38231W        W 9760  31.473  14.614   2.333
38232W        W 9761   5.810  29.014   4.882
38233W        W 9762   0.162  21.644   4.261
38234W        W 9763  29.666  36.598  10.675
38235W        W 9764  22.062  42.577  13.437
38236W        W 9765  37.779  13.841   3.294
38237W        W 9766  19.963  10.334   0.710
38238W        W 9767   1.982  19.004  10.740
38239W        W 9768   7.588   3.321  14.715
38240W        W 9769  21.334   1.343  14.088
38241W        W 9770  39.900  16.660   2.712
38242W        W 9771  29.039  12.380   1.853
38243W        W 9772  20.774  23.838   4.156
38244W        W 9773  18.191  29.073  13.968
38245W        W 9774  17.967  33.508   3.706
38246W        W 9775  18.281  29.779  10.694
38247W        W 9776  30.794  31.887  11.601
38248W        W 9777  37.480  19.491  13.869
38249W        W 9778  13.822  39.507   3.566
38250W        W 9779  18.579  27.668  13.843
38251W        W 9780  25.904   8.951   1.756
38252W        W 9781  15.327  10.634  12.009
38253W        W 9782   0.198  29.139  11.053
38254W        W 9783   2.843  37.670   1.486
38255W        W 9784  16.781  33.409   3.239
38256W        W 9785   3.871  32.713  12.725
38257W        W 9786   7.714  11.931  10.344
38258W        W 9787  37.042  12.100  14.487
38259W        W 9788  19.514  24.208  12.010
38260W        W 9789  18.233   4.896   3.677
38261W        W 9790   7.054   2.889   2.893
38262W        W 9791  27.128   6.743  11.445
38263W        W 9792  30.509  21.711   4.808
38264W        W 9793  27.598  24.263  12.891
38265W        W 9794  21.521  37.360  12.444
38266W        W 9795   7.284  41.028   2.203
38267W        W 9796  22.703  34.298   0.470
38268W        W 9797  33.586  42.050   0.494
38269W        W 9798  38.682  11.157  11.060
38270W        W 9799  29.724   7.396   3.281
38271W        W 9800  33.896  30.497  14.080
38272W        W 9801  39.965   6.299   3.588
38273W        W 9802  12.842   3.501   1.372
38274W        W 9803  28.342   9.311  13.629
38275W        W 9804  39.763   6.303   1.802
38276W        W 9805  20.868  35.581   0.278
38277W        W 9806  43.225  41.499   4.398
38278W        W 9807  22.524  43.354   3.767
38279W        W 9808  43.421  20.371   0.007
38280W        W 9809  29.689   6.191  12.453
38281W        W 9810   9.334   8.995  12.310
38282W        W 9811  40.934  12.127   4.126
38283W        W 9812   5.631  10.230  10.626
38284W        W 9813  33.445   6.251  12.552
38285W        W 9814  23.443  14.683   0.730
38286W        W 9815   1.879  36.938   3.831
38287W        W 9816  26.404  38.392   4.452
38288W        W 9817  34.338  34.346   2.748
38289W        W 9818  31.828  25.214  14.817
38290W        W 9819   4.245  14.665   2.860
38291W        W 9820  19.178  33.507   1.473
38292W        W 9821  24.558  11.626  14.904
38293W        W 9822  30.193  20.628   0.585
38294W        W 9823  13.230  16.828   3.525
38295W        W 9824  14.155  10.155   1.330
38296W        W 9825   5.910  16.533  10.399
38297W        W 9826   1.325  12.376  12.658
38298W        W 9827   0.405   9.717   2.407
38299W        W 9828  14.120  16.146  13.908
38300W        W 9829  35.427  11.670   3.120
38301W        W 9830  34.272   2.927  14.046
38302W        W 9831  29.931  21.128  11.969
38303W        W 9832  38.453  13.385   1.856
38304W        W 9833   0.695   1.397   0.427
38305W        W 9834  32.514  38.093   1.860
38306W        W 9835  44.920  30.033  11.599
38307W        W 9836  40.464   0.715  13.765
38308W        W 9837  27.175   3.665  11.042
38309W        W 9838  21.845  27.208   1.335
38310W        W 9839   6.150  26.434  13.595
38311W        W 9840  25.386  28.163  10.215
38312W        W 9841  27.253  16.908   3.305
38313W        W 9842  37.422  10.319  13.731
38314W        W 9843  33.153  25.679   1.258
38315W        W 9844   8.721  14.138   2.742
38316W        W 9845   6.082  44.916  10.977
38317W        W 9846  24.980  42.330  10.718
38318W        W 9847   4.029  35.673   1.058
38319W        W 9848   6.593  16.172  14.452
38320W        W 9849  24.509  36.140   4.653
38321W        W 9850   1.460  10.837   0.989
38322W        W 9851  33.448   5.025  13.421
38323W        W 9852  36.004   3.498   2.214
38324W        W 9853   5.930  10.348  14.847
38325W        W 9854   6.941  11.719   1.186
38326W        W 9855  27.343  40.992   3.128
38327W        W 9856  16.601  34.282  12.878
38328W        W 9857  31.270   0.184   1.241
38329W        W 9858  21.538  28.602   3.211
38330W        W 9859  35.422   3.833   3.914
38331W        W 9860  13.309  23.920  13.966
38332W        W 9861  12.862  32.735  10.628
38333W        W 9862  35.908  34.827   4.612
38334W        W 9863  23.674  40.137  12.083
38335W        W 9864  22.426  20.911   2.543
38336W        W 9865  31.934  38.855  12.941
38337W        W 9866  43.872  34.741  11.106
38338W        W 9867   0.914  24.449   3.696
38339W        W 9868  24.050  28.113  12.176
38340W        W 9869  42.979  11.198  11.033
38341W        W 9870  42.006  38.855   2.379
38342W        W 9871   6.758  35.940   3.270
38343W        W 9872   4.874  33.745  14.768
38344W        W 9873  24.659  23.488   4.564
38345W        W 9874  34.941  18.017   9.935
38346W        W 9875  17.362   2.476  14.477
38347W        W 9876  37.383   1.494  12.119
38348W        W 9877   4.021  19.649  11.064
38349W        W 9878  32.667  18.309  14.055
38350W        W 9879  19.614  22.325  14.407
38351W        W 9880   7.685  36.427  12.303
38352W        W 9881  42.032  33.587   1.971
38353W        W 9882  24.230  32.428  13.963
38354W        W 9883  41.888  20.293   0.757
38355W        W 9884  26.851  15.643   4.311
38356W        W 9885  34.841  26.973  12.892
38357W        W 9886   7.750   3.584  11.599
38358W        W 9887  22.115  31.588   4.936
38359W        W 9888  34.563  29.411   0.419
38360W        W 9889  23.745  29.288   4.491
38361W        W 9890  24.525  18.614   1.191
38362W        W 9891  24.936  18.186  13.842
38363W        W 9892  22.361  36.001   1.852
38364W        W 9893  39.617   7.959   2.745
38365W        W 9894  35.597   5.950   1.178
38366W        W 9895   1.122  41.535  11.997
38367W        W 9896   5.687   6.179   3.835
38368W        W 9897  37.894  42.785  12.627
38369W        W 9898  15.713  16.516  13.974
38370W        W 9899  40.524   2.695   1.112
38371W        W 9900   8.370   2.210   3.620
38372W        W 9901   9.753  10.734   0.947
38373W        W 9902   8.777  19.056   4.493
38374W        W 9903  10.321  42.152  12.186
38375W        W 9904  31.016  19.628  11.959
38376W        W 9905  15.837   1.517  13.297
38377W        W 9906  20.604   0.268  13.322
38378W        W 9907  41.958   8.292   3.158
38379W        W 9908  44.294  41.804  12.919
38380W        W 9909  19.129   8.673  14.800
38381W        W 9910  34.102  15.889  13.509
38382W        W 9911  14.021  31.427   2.650
38383W        W 9912  39.369   8.441   2.760
38384W        W 9913  39.622  35.345   2.397
38385W        W 9914  32.331  22.161  11.989
38386W        W 9915  17.887  20.632  13.646
38387W        W 9916  29.523  39.784   1.400
38388W        W 9917  13.252   1.813  13.110
38389W        W 9918  38.927  21.150  10.617
38390W        W 9919   2.260  12.495   1.758
38391W        W 9920  32.988  36.798   1.871
38392W        W 9921   5.977   9.787   3.139
38393W        W 9922  38.428  40.575  10.500
38394W        W 9923  23.503  17.687  14.362
38395W        W 9924  38.405  18.024  11.630
38396W        W 9925  27.679   7.303  13.401
38397W        W 9926  15.104   9.713   1.339
38398W        W 9927   0.348  20.006  11.527
38399W        W 9928  17.766  14.128   4.229
38400W        W 9929  21.129  41.528   5.223
38401W        W 9930   0.167   3.805   1.729
38402W        W 9931  26.039  43.766   0.477
38403W        W 9932   5.232   9.007   0.068
38404W        W 9933  20.652  22.088   4.361
38405W        W 9934  43.750   1.329  13.710
38406W        W 9935  28.522  27.638  14.401
38407W        W 9936  32.535  28.584  14.831
38408W        W 9937  13.885  35.066  12.998
38409W        W 9938  32.576  16.175  10.198
38410W        W 9939  34.158   8.801  11.330
38411W        W 9940   2.739  23.642   3.386
38412W        W 9941  35.832  36.626  14.794
38413W        W 9942  43.309  32.623   4.851
38414W        W 9943  42.812   7.983  11.960
38415W        W 9944  20.057  18.791  11.243
38416W        W 9945   9.334   4.879  10.753
38417W        W 9946   5.251  31.180   3.145
38418W        W 9947  36.877  33.884   4.967
38419W        W 9948  40.949  10.674  10.883
38420W        W 9949   9.711  32.320  14.054
38421W        W 9950  26.126  42.810   0.419
38422W        W 9951  27.371  36.551   2.631
38423W        W 9952   0.673   3.717   1.748
38424W        W 9953  36.132  39.201   1.838
38425W        W 9954  40.851  33.908   1.307
38426W        W 9955  41.135  35.082   1.938
38427W        W 9956  42.784  19.998  14.474
38428W        W 9957  29.984  13.687   1.885
38429W        W 9958  37.286  38.326   1.831
38430W        W 9959  18.221  10.284  14.338
38431W        W 9960  26.154   5.679   3.156
38432W        W 9961  35.564  33.373   4.086
38433W        W 9962  18.566  13.467   0.031
38434W        W 9963  22.311  13.297  11.097
38435W        W 9964  34.375   5.947  13.998
38436W        W 9965  27.092   0.069  13.304
38437W        W 9966  31.532  23.935   4.861
38438W        W 9967  43.501  17.667  13.610
38439W        W 9968  19.577  30.083   1.395
38440W        W 9969  43.024   6.754   4.295
38441W        W 9970  35.795  16.329  12.835
38442W        W 9971  17.428   7.924  12.537
38443W        W 9972  19.238   0.388  11.494
38444W        W 9973  28.596   9.845   4.068
38445W        W 9974   6.176  39.363   1.387
38446W        W 9975   2.096  28.012   1.651
38447W        W 9976   0.886   1.141  12.997
38448W        W 9977   0.760  18.717   1.346
38449W        W 9978  36.317   6.585   1.860
38450W        W 9979  32.036  19.642  11.915
38451W        W 9980   8.664  17.525   2.144
38452W        W 9981  23.866  44.187  13.945
38453W        W 9982   3.855  21.342  11.069
38454W        W 9983  26.647  22.053   0.830
38455W        W 9984  40.056   1.912   4.159
38456W        W 9985  43.482  23.607   4.462
38457W        W 9986  39.039  17.729   4.729
38458W        W 9987   9.275  28.076  14.916
38459W        W 9988   6.651  25.581  10.297
38460W        W 9989  34.796   5.024  12.430
38461W        W 9990  20.953  13.109   0.019
38462W        W 9991  39.471  10.133   1.278
38463W        W 9992   6.118  23.128  11.108
38464W        W 9993  43.828   8.188   0.168
38465W        W 9994  39.006  43.855   4.007
38466W        W 9995  40.708   3.451  11.594
38467W        W 9996  42.289  20.745  12.426
38468W        W 9997  14.373   5.782   0.864
38469W        W 9998  22.652   8.844   1.980
38470W        W 9999  20.063   7.721  12.576
38471W        W10000  15.844  31.173   4.579
38472W        W10001   4.944  44.755   3.346
38473W        W10002  18.464  20.138   3.766
38474W        W10003   8.668  32.643  14.781
38475W        W10004  10.963   9.529   3.846
38476W        W10005  37.008  36.084  11.990
38477W        W10006   9.080   8.739   3.290
38478W        W10007  35.951  30.418   0.257
38479W        W10008  31.862   1.026  13.543
38480W        W10009  32.824   8.073   2.283
38481W        W10010  15.580  37.511  11.078
38482W        W10011  16.628   4.339   4.519
38483W        W10012  16.523   9.736  13.856
38484W        W10013   8.689  40.432   2.276
38485W        W10014  17.143  24.688   0.232
38486W        W10015   6.145  37.779  11.346
38487W        W10016  27.687  18.560   3.763
38488W        W10017  16.648  27.919  13.234
38489W        W10018  43.752   7.746   2.993
38490W        W10019  42.368   8.366   1.873
38491W        W10020   9.859  27.585  12.330
38492W        W10021  10.947   2.753   4.032
38493W        W10022  43.773  24.669   4.548
38494W        W10023  21.432   1.053  14.511
38495W        W10024  31.315  40.921   1.180
38496W        W10025  40.860  13.853  11.519
38497W        W10026  15.854  12.701   2.313
38498W        W10027  26.206   3.464  10.828
38499W        W10028  38.822  38.321   1.744
38500W        W10029  44.128  33.893   2.169
38501W        W10030  38.938  12.246  14.389
38502W        W10031   8.886  10.878   1.316
38503W        W10032   1.300  40.837  12.482
38504W        W10033  41.374  34.079  12.821
38505W        W10034  39.051  37.210   3.637
38506W        W10035  19.119  34.411   2.847
38507W        W10036  29.540  16.854  10.796
38508W        W10037  40.321  34.790  13.423
38509W        W10038  17.035  33.649   2.825
38510W        W10039  21.088  31.034   1.460
38511W        W10040  39.789  19.072  14.845
38512W        W10041   6.828   0.159  14.723
38513W        W10042  18.590  39.358  12.518
38514W        W10043  28.710  36.797  11.019
38515W        W10044  23.415   7.179  11.827
38516W        W10045  28.665  34.128   0.494
38517W        W10046  37.164  37.292  11.075
38518W        W10047  40.966  24.297  14.063
38519W        W10048   5.659  11.269  14.746
38520W        W10049  25.237  21.034  11.885
38521W        W10050  34.514   6.892   0.722
38522W        W10051  44.422   8.678   1.225
38523W        W10052   3.882  13.588  12.457
38524W        W10053   7.859  40.725   4.138
38525W        W10054  17.207   7.335  14.754
38526W        W10055  28.787  24.064  13.932
38527W        W10056  42.591  27.493  12.030
38528W        W10057  12.741  16.625   0.720
38529W        W10058  32.212  24.701   2.233
38530W        W10059  20.620  42.546   2.324
38531W        W10060  35.598  12.692  13.908
38532W        W10061   0.951   0.175   3.407
38533W        W10062  36.376  32.318  11.528
38534W        W10063  17.539  28.897   3.253
38535W        W10064  13.567  15.206  12.541
38536W        W10065   8.385  22.679   3.647
38537W        W10066  24.998   9.025   1.737
38538W        W10067  12.266  44.897   1.324
38539W        W10068  25.766   0.277  13.056
38540W        W10069  25.595  30.837   1.299
38541W        W10070   0.042  34.204   2.270
38542W        W10071  32.634  11.257   0.767
38543W        W10072  25.394  33.566  11.668
38544W        W10073   0.024  30.223  12.787
38545W        W10074  44.933  21.789   2.916
38546W        W10075   5.877  44.697   4.526
38547W        W10076  29.636  22.532  13.971
38548W        W10077  11.101   1.171   2.144
38549W        W10078   3.849  22.736  13.944
38550W        W10079  20.064  15.288  12.457
38551W        W10080  13.057  11.625   2.704
38552W        W10081  34.484  26.015  13.081
38553W        W10082  35.832   0.046   1.303
38554W        W10083  35.155  21.324  11.262
38555W        W10084  10.721   5.206   4.441
38556W        W10085  31.376  42.079   2.855
38557W        W10086  16.273  18.721   4.389
38558W        W10087  26.651  17.054  10.624
38559W        W10088   9.321  18.367   4.184
38560W        W10089  28.084  16.731   2.679
38561W        W10090  36.109  35.328  14.434
38562W        W10091  19.671  16.698   1.696
38563W        W10092  15.207  31.428   3.342
38564W        W10093  38.560   3.994  13.011
38565W        W10094  12.944  34.637  13.035
38566W        W10095   4.129  39.316   2.290
38567W        W10096  26.445  33.124   1.835
38568W        W10097  32.838  39.125   4.680
38569W        W10098  33.916  32.599   0.167
38570W        W10099   5.710  13.609   3.832
38571W        W10100   3.887   8.411   1.739
38572W        W10101  22.362  19.990   1.479
38573W        W10102  35.395  38.570  14.824
38574W        W10103   8.351  34.488   1.597
38575W        W10104  34.001  33.006  11.027
38576W        W10105   6.665  17.279   3.835
38577W        W10106   2.421  15.039  13.259
38578W        W10107  26.995  36.114   2.405
38579W        W10108  14.252   2.885   4.605
38580W        W10109  37.825  16.767   3.384
38581W        W10110  12.348  18.709   3.219
38582W        W10111  24.653  35.739  12.608
38583W        W10112  38.077  44.095  13.946
38584W        W10113  39.764  37.539  13.538
38585W        W10114   2.522   8.799   2.323
38586W        W10115  15.705  35.503  14.661
38587W        W10116   5.821  14.072  14.737
38588W        W10117  28.061   1.641  12.433
38589W        W10118  20.494   8.085   0.634
38590W        W10119  17.906  14.258   1.682
38591W        W10120  40.590  31.448   1.719
38592W        W10121  19.484   6.437   2.231
38593W        W10122  43.830  42.740   4.252
38594W        W10123  26.542  21.302   0.234
38595W        W10124  11.292  38.610   3.797
38596W        W10125  38.995   9.060   1.003
38597W        W10126  27.441  27.081  14.432
38598W        W10127  13.310   0.810   9.791
38599W        W10128  43.519  31.706  13.935
38600W        W10129  18.102  12.374   0.481
38601W        W10130  29.747  44.114   0.541
38602W        W10131  14.508  38.884  12.615
38603W        W10132  31.919  36.407   2.263
38604W        W10133  36.311  10.408  12.103
38605W        W10134   6.197  11.360   0.206
38606W        W10135  21.019  17.607  14.028
38607W        W10136   9.844   8.732  14.059
38608W        W10137   7.437  17.433   3.323
38609W        W10138   8.656  36.070   4.663
38610W        W10139  28.995   7.931  14.942
38611W        W10140  18.174  17.332   3.294
38612W        W10141  22.709  30.957  11.094
38613W        W10142  11.374  43.521  14.087
38614W        W10143  22.999   6.347   4.508
38615W        W10144   6.562  14.571  12.505
38616W        W10145  14.380  33.102   1.830
38617W        W10146  13.081  24.717   1.307
38618W        W10147  16.628  12.350  11.553
38619W        W10148  14.278  40.661  13.462
38620W        W10149  42.635  20.080   1.394
38621W        W10150  15.214  21.832   3.738
38622W        W10151   2.172  13.286  14.465
38623W        W10152  24.205   7.569  10.382
38624W        W10153   9.481  19.527  10.694
38625W        W10154  44.192  37.251   4.164
38626W        W10155   5.707  31.730  14.314
38627W        W10156   8.788   7.787  12.754
38628W        W10157  15.620  13.635   1.465
38629W        W10158  38.281   0.194  14.863
38630W        W10159  40.034  40.377  10.602
38631W        W10160  27.991   6.755   4.952
38632W        W10161  42.561   2.737   0.337
38633W        W10162  17.175  37.111  14.973
38634W        W10163  21.922  31.198  12.965
38635W        W10164  42.362  35.897   0.269
38636W        W10165  36.615  12.249  14.926
38637W        W10166  23.529   3.958   3.181
38638W        W10167  17.680  27.047  12.495
38639W        W10168   8.730  31.829   3.812
38640W        W10169  24.525  28.972   0.482
38641W        W10170  13.087  39.609  12.724
38642W        W10171  35.828  43.415   1.370
38643W        W10172   8.224  31.198   4.073
38644W        W10173  30.963  10.760   3.266
38645W        W10174  35.043   6.384  13.453
38646W        W10175   1.923  16.274  12.346
38647W        W10176  25.023  36.124   3.345
38648W        W10177  40.783  25.414   1.643
38649W        W10178   5.661   1.366   3.718
38650W        W10179   8.348  34.382   0.968
38651W        W10180  19.736  20.050   3.702
38652W        W10181  12.148   9.362   3.248
38653W        W10182   0.236  30.419  14.423
38654W        W10183  34.930  41.529   4.562
38655W        W10184   8.266  32.702   1.690
38656W        W10185   4.900  37.946   4.728
38657W        W10186   7.109  12.190   2.240
38658W        W10187  39.082  31.957   0.342
38659W        W10188  20.098  10.137   4.142
38660W        W10189  20.459  32.011  14.798
38661W        W10190  25.692  25.744  12.988
38662W        W10191  36.594  38.550   0.378
38663W        W10192  22.709   6.169  12.941
38664W        W10193  41.756  27.875   1.212
38665W        W10194  33.218  37.764  12.934
38666W        W10195   2.284  19.562   0.858
38667W        W10196  40.752  16.179   3.796
38668W        W10197  20.771  36.319   1.184
38669W        W10198  35.814  16.053  11.535
38670W        W10199  16.134  34.156  13.064
38671W        W10200  44.298  18.927   1.808
38672W        W10201  27.895  41.861  14.746
38673W        W10202  40.531   3.684   1.334
38674W        W10203  13.587   1.391   2.282
38675W        W10204  15.513  24.583   2.388
38676W        W10205   0.324   2.956   2.686
38677W        W10206  41.249   0.827   3.069
38678W        W10207  41.222  43.010   0.505
38679W        W10208  11.280  40.895  12.600
38680W        W10209  19.915   3.459  10.107
38681W        W10210   5.877  12.593   2.840
38682W        W10211   1.984  33.126   3.231
38683W        W10212  27.180  15.556  13.709
38684W        W10213  40.027   6.696  14.348
38685W        W10214  28.090  29.802   3.771
38686W        W10215   7.868   8.623   3.622
38687W        W10216  10.009  29.752  12.873
38688W        W10217  36.156   7.754   0.891
38689W        W10218  38.933  31.865   0.831
38690W        W10219  30.932  41.854   1.954
38691W        W10220   5.199  22.959  11.538
38692W        W10221   8.688   0.050  10.718
38693W        W10222  17.359  30.007  11.967
38694W        W10223  19.006   7.794   2.657
38695W        W10224   9.723   6.106   3.329
38696W        W10225   9.687  11.221   3.230
38697W        W10226  19.115  19.271  11.147
38698W        W10227  32.078  22.637  12.053
38699W        W10228   1.028  23.930   1.477
38700W        W10229  41.968  20.024  14.794
38701W        W10230  20.849  34.239   4.804
38702W        W10231  21.522  41.818   5.088
38703W        W10232  43.923   2.942   4.594
38704W        W10233  18.678  36.908  12.244
38705W        W10234   9.132   1.967   3.405
38706W        W10235  22.113  42.902  13.025
38707W        W10236  32.897  34.163   4.527
38708W        W10237   6.310  37.496  14.734
38709W        W10238  21.081   1.923  10.312
38710W        W10239  42.370   6.799   3.700
38711W        W10240  14.738  37.058  14.776
38712W        W10241  40.325  12.339   4.686
38713W        W10242   6.216  42.088   2.210
38714W        W10243  13.495   0.882   0.890
38715W        W10244  19.400  26.028   4.468
38716W        W10245   2.620  21.450   2.156
38717W        W10246  38.031  41.523  11.221
38718W        W10247  18.520  11.631  11.539
38719W        W10248  30.926  36.878  11.484
38720W        W10249  43.727  14.885  14.390
38721W        W10250  11.799  27.180   1.285
38722W        W10251  22.269  34.963   3.325
38723W        W10252  36.395  42.368   0.181
38724W        W10253  37.995  41.044   2.308
38725W        W10254  19.073   2.005  13.851
38726W        W10255  26.977  41.816   0.331
38727W        W10256  36.976  32.810   1.737
38728W        W10257  15.943  17.616   1.568
38729W        W10258  44.053   0.887   4.610
38730W        W10259  38.378  17.522  14.393
38731W        W10260   1.512  30.458  13.061
38732W        W10261   8.820  29.186   2.417
38733W        W10262  26.972  17.668  13.510
38734W        W10263  34.666   7.552  12.593
38735W        W10264  30.286  22.557  14.574
38736W        W10265  14.580   3.177  11.120
38737W        W10266   2.367  28.705  14.561
38738W        W10267  33.052  42.019  10.363
38739W        W10268  20.096  44.855   3.344
38740W        W10269  27.605   1.803  12.118
38741W        W10270  42.249   9.639  13.085
38742W        W10271  27.054  14.245  13.440
38743W        W10272  24.169  24.935  12.547
38744W        W10273  32.919  29.142   0.407
38745W        W10274   6.725  35.105   1.818
38746W        W10275   1.341  34.645  12.356
38747W        W10276   5.866   7.077   4.758
38748W        W10277  28.112   5.177  13.761
38749W        W10278   2.903  25.731   2.750
38750W        W10279  21.672  29.427  13.365
38751W        W10280  21.669  19.810  11.168
38752W        W10281  24.111  33.462   5.071
38753W        W10282   9.809  41.373   4.682
38754W        W10283   3.642  36.105  12.435
38755W        W10284  43.043  43.780  12.979
38756W        W10285  24.968  12.792  14.898
38757W        W10286   6.830  31.450  13.995
38758W        W10287  24.026   7.146  10.639
38759W        W10288  43.590  10.729  14.260
38760W        W10289  16.964  40.045  13.146
38761W        W10290  44.865  37.078   0.904
38762W        W10291  27.845  35.971   3.664
38763W        W10292  23.224  20.785   1.947
38764W        W10293  39.889  24.305  12.158
38765W        W10294  32.781   5.358  14.878
38766W        W10295  20.479  36.502  13.388
38767W        W10296   8.877   8.249  10.748
38768W        W10297   7.947  24.444  12.952
38769W        W10298  24.718  43.819  11.581
38770W        W10299  35.607   8.383  12.212
38771W        W10300  19.195  44.560   3.277
38772W        W10301  18.011  14.629  14.917
38773W        W10302  40.740   8.440   2.672
38774W        W10303  25.395   4.457  10.711
38775W        W10304  20.098   7.361  12.176
38776W        W10305   4.924   3.845   0.946
38777W        W10306  16.575   2.812  11.064
38778W        W10307  18.132  10.238   3.280
38779W        W10308  18.964  34.957   3.701
38780W        W10309   2.318   4.178   0.225
38781W        W10310  25.782  34.007   3.162
38782W        W10311  21.787  41.828   4.185
38783W        W10312   7.337  15.131   3.944
38784W        W10313  20.566  34.563  10.685
38785W        W10314   6.127   4.799  14.048
38786W        W10315  30.689   7.772  12.374
38787W        W10316  27.103  39.622   4.552
38788W        W10317  35.750  42.817  13.784
38789W        W10318  31.392  18.021  14.868
38790W        W10319   5.395   3.657   2.206
38791W        W10320  20.450   6.582  12.065
38792W        W10321   0.243   0.959  10.607
38793W        W10322   1.017  32.099  14.788
38794W        W10323   7.815  26.923  12.249
38795W        W10324  37.043   8.222   3.864
38796W        W10325  36.978  39.037   0.807
38797W        W10326   0.262  15.660   0.731
38798W        W10327  12.268  32.485  12.573
38799W        W10328  12.224  22.735   2.792
38800W        W10329  12.836  33.739   4.816
38801W        W10330  11.061  40.345  13.833
38802W        W10331   4.078  44.386  11.957
38803W        W10332   8.368  15.282  10.630
38804W        W10333  12.327  13.006  11.031
38805W        W10334  40.456  36.098   3.817
38806W        W10335  34.328  32.125  11.244
38807W        W10336  34.602  16.492  11.378
38808W        W10337   0.318  28.779  12.632
38809W        W10338  37.479  42.722   1.260
38810W        W10339  16.080   3.427   3.457
38811W        W10340  31.578   0.191  14.503
38812W        W10341  29.439  10.099  12.939
38813W        W10342   6.144  31.281  12.618
38814W        W10343  29.605  35.839  11.141
38815W        W10344  36.023  21.368   1.836
38816W        W10345  27.181  43.379   2.204
38817W        W10346  29.325  12.383  10.934
38818W        W10347  10.402  11.896  14.864
38819W        W10348   6.709  33.897   0.896
38820W        W10349  33.948   8.099  12.461
38821W        W10350  13.926  10.212   0.834
38822W        W10351  43.478  34.656   2.723
38823W        W10352  11.451  16.250   0.990
38824W        W10353  37.998   5.181  10.720
38825W        W10354  39.221  25.261  13.910
38826W        W10355  10.894  27.621  13.945
38827W        W10356   1.190  39.082  13.408
38828W        W10357   9.263   7.190  14.812
38829W        W10358   6.615  16.088   2.689
38830W        W10359   7.241  32.049   2.372
38831W        W10360  12.724  33.236   0.709
38832W        W10361  39.516  10.909  14.296
38833W        W10362   6.611  38.392  10.454
38834W        W10363  28.466  22.078   0.258
38835W        W10364   0.471  26.069   2.386
38836W        W10365  40.954   6.215   3.229
38837W        W10366  30.164  18.522  14.037
38838W        W10367  19.533   1.429  14.859
38839W        W10368  17.312  42.413   2.563
38840W        W10369  43.046  37.101  13.313
38841W        W10370   2.296  38.415   1.165
38842W        W10371  25.858   3.817   4.565
38843W        W10372  43.561  10.790   1.337
38844W        W10373  23.973  39.911  13.028
38845W        W10374  10.208  11.379  10.934
38846W        W10375   3.802  12.198   2.273
38847W        W10376  19.722   4.864  14.503
38848W        W10377  21.275   2.768   1.774
38849W        W10378  25.260   8.860  13.856
38850W        W10379  23.939   0.218  13.089
38851W        W10380  14.267   6.474  12.003
38852W        W10381  36.326  43.775  12.473
38853W        W10382  25.687  40.456  12.052
38854W        W10383   6.226  27.433   4.919
38855W        W10384  29.070  35.404   3.545
38856W        W10385   6.900  42.825   4.336
38857W        W10386   1.334  42.824   2.600
38858W        W10387  23.049  19.085   1.194
38859W        W10388  33.495   1.074   4.559
38860W        W10389  44.635  18.976  14.281
38861W        W10390  31.837   9.527  12.055
38862W        W10391  15.304  12.841  14.247
38863W        W10392  15.758   6.172  13.934
38864W        W10393   8.819  44.335   0.558
38865W        W10394   4.718   7.781   4.268
38866W        W10395  16.421   1.278   3.734
38867W        W10396   6.254  32.165   3.174
38868W        W10397  33.467  26.101  12.899
38869W        W10398  19.228  38.304   0.335
38870W        W10399  30.590  21.977   3.421
38871W        W10400  27.368  30.647  14.312
38872W        W10401  30.033  23.940  14.208
38873W        W10402   1.952   1.512  13.899
38874W        W10403  43.372   7.947  12.973
38875W        W10404  43.785  11.672  13.907
38876W        W10405  10.833  27.357  13.384
38877W        W10406  27.209  40.966  13.041
38878W        W10407  11.522  40.805  14.422
38879W        W10408  16.967  32.803  14.073
38880W        W10409  41.894   7.655  13.906
38881W        W10410  21.103  28.458   2.071
38882W        W10411  21.793  34.412  13.653
38883W        W10412  19.767  44.753   2.377
38884W        W10413  41.798  25.146  12.521
38885W        W10414  35.355  35.267  11.139
38886W        W10415  23.747   8.066  11.556
38887W        W10416  33.623  38.335   3.918
38888W        W10417   5.244   6.183   2.174
38889W        W10418   8.309  30.820  10.672
38890W        W10419  22.400  44.080  11.141
38891W        W10420  27.654  19.275   4.588
38892W        W10421  20.610   4.952  10.573
38893W        W10422  33.805  31.034  11.945
38894W        W10423   0.518  31.008   4.114
38895W        W10424   3.994  17.208   3.450
38896W        W10425  17.095  30.741   3.175
38897W        W10426  38.795  43.145  13.111
38898W        W10427   8.923  38.627   1.854
38899W        W10428   4.057   1.749   1.670
38900W        W10429  13.907   1.699  11.705
38901W        W10430   8.709   3.935  11.435
38902W        W10431  43.416  36.701   0.997
38903W        W10432  19.694  27.375  14.914
38904W        W10433  22.060  22.640   0.480
38905W        W10434  29.439  41.565   4.079
38906W        W10435   6.426   7.746   0.461
38907W        W10436  14.160  42.550  12.002
38908W        W10437  30.716   4.324   2.782
38909W        W10438  12.582  43.881  12.104
38910W        W10439  35.171  30.413  10.322
38911W        W10440  28.231  31.978   4.571
38912W        W10441  23.904   5.833  14.757
38913W        W10442  38.881  14.397   2.513
38914W        W10443   0.164  12.742  11.012
38915W        W10444  33.629  44.845  11.075
38916W        W10445  41.506   0.997  14.469
38917W        W10446  41.945  22.384   3.227
38918W        W10447  26.421  23.407   1.973
38919W        W10448  25.746   3.871  11.968
38920W        W10449  15.782  43.238  12.009
38921W        W10450  11.621  38.104  12.819
38922W        W10451  24.397   6.955  14.318
38923W        W10452   0.467  13.013   0.947
38924W        W10453  28.156  24.094  10.590
38925W        W10454  15.919  38.445   0.019
38926W        W10455  26.139   6.727  11.994
38927W        W10456   6.409  44.378   2.261
38928W        W10457  33.585  37.458   0.284
38929W        W10458  23.522  36.159  13.544
38930W        W10459  32.342  12.535   4.289
38931W        W10460  13.347  10.135   0.370
38932W        W10461   6.700  44.894  12.200
38933W        W10462  29.917  17.594  11.672
38934W        W10463  13.992  33.938  10.576
38935W        W10464  21.178  38.889   4.155
38936W        W10465  40.913  23.127   1.448
38937W        W10466  10.802   7.856   1.426
38938W        W10467  11.303  23.587   1.554
38939W        W10468  30.487  42.899   3.315
38940W        W10469  42.573  12.137  11.522
38941W        W10470  17.105   5.826   4.611
38942W        W10471  11.256  32.958  12.057
38943W        W10472  16.535  24.718  14.463
38944W        W10473  14.810  41.435   0.781
38945W        W10474  29.952  16.629   1.376
38946W        W10475   8.194  32.964   3.304
38947W        W10476  13.136   0.008   3.177
38948W        W10477  23.978  43.738   4.147
38949W        W10478   7.272  44.857  12.081
38950W        W10479  24.449   5.565   2.038
38951W        W10480  25.420  44.527   0.211
38952W        W10481  30.379  39.379   4.631
38953W        W10482  15.315  25.446   0.856
38954W        W10483  30.711  34.013  12.983
38955W        W10484  34.397  33.196  11.293
38956W        W10485  32.266  31.117   0.749
38957W        W10486  32.493  20.262   3.290
38958W        W10487  38.472   4.424   3.026
38959W        W10488  37.804  13.214  11.576
38960W        W10489  14.183  40.667  11.284
38961W        W10490  16.796  21.605  10.901
38962W        W10491  44.238  30.039  12.363
38963W        W10492   8.141  44.490  10.365
38964W        W10493  33.870  30.884  11.468
38965W        W10494  21.056   2.309   1.916
38966W        W10495  18.615  25.515  11.374
38967W        W10496  21.042  29.520   4.522
38968W        W10497  31.551  34.538   4.608
38969W        W10498  35.355   4.323  12.575
38970W        W10499   2.359  38.316  11.670
38971W        W10500  20.125  23.850  13.994
38972W        W10501  15.596   0.349   1.333
38973W        W10502   5.589  21.680   2.666
38974W        W10503  21.179  44.325   0.597
38975W        W10504  35.562  11.685   4.122
38976W        W10505  11.725  21.731   0.198
38977W        W10506  33.336  37.445  11.586
38978W        W10507   6.077  38.985  14.349
38979W        W10508  10.815   8.497   2.227
38980W        W10509  26.514   3.095   2.538
38981W        W10510  38.395  37.537  14.300
38982W        W10511   2.616   3.693  12.873
38983W        W10512   3.658  30.613  13.353
38984W        W10513  38.120   0.737   4.186
38985W        W10514   3.884  27.878   4.037
38986W        W10515  22.170  24.018  14.050
38987W        W10516  28.356  39.785  11.941
38988W        W10517  38.851   8.369   2.640
38989W        W10518  31.527  40.610  13.052
38990W        W10519   1.544  33.418   3.376
38991W        W10520  11.716  31.154  11.065
38992W        W10521  15.043  26.033  12.461
38993W        W10522  34.326   8.686   2.886
38994W        W10523  44.889  10.321   0.967
38995W        W10524  35.473  17.562   4.150
38996W        W10525   0.761  32.436   0.771
38997W        W10526  42.891  23.111  12.917
38998W        W10527   9.142  28.714   2.659
38999W        W10528  30.401  14.385  12.485
39000W        W10529  36.464   8.362   0.917
39001W        W10530   0.473  40.049  11.102
39002W        W10531  13.618  35.910   4.513
39003W        W10532  41.943  16.866  12.891
39004W        W10533   9.229  19.097   0.935
39005W        W10534  42.868  42.873  12.904
39006W        W10535   6.312   6.904  12.499
39007W        W10536  43.425  36.662   4.435
39008W        W10537  41.460  42.538   0.484
39009W        W10538   6.042  44.481  12.102
39010W        W10539  18.193  25.271  11.595
39011W        W10540  21.510  12.817  14.505
39012W        W10541   2.206  33.066  12.980
39013W        W10542  26.098  34.801   1.264
39014W        W10543  19.720  35.928   1.212
39015W        W10544  22.636  19.787  12.610
39016W        W10545  39.560  38.970  10.782
39017W        W10546   3.807  25.534   2.254
39018W        W10547   9.194   6.640  11.137
39019W        W10548  38.335   7.853   4.547
39020W        W10549  15.864  31.364   1.801
39021W        W10550  26.737   9.249   0.552
39022W        W10551  33.675  24.282  12.472
39023W        W10552   3.872  29.948   3.974
39024W        W10553  41.605  32.874  12.097
39025W        W10554  33.944  14.131  14.903
39026W        W10555  11.853  21.986   3.251
39027W        W10556  29.565  19.420   3.634
39028W        W10557   8.223   1.837  13.986
39029W        W10558  20.265  39.817   2.608
39030W        W10559   0.835  21.732   2.423
39031W        W10560  42.411  41.444  11.160
39032W        W10561  29.630  37.876   1.869
39033W        W10562   3.284  22.032   1.857
39034W        W10563   9.353  23.405   1.641
39035W        W10564  35.226  13.213  12.194
39036W        W10565  17.273  22.295   3.335
39037W        W10566   4.916  34.158   3.786
39038W        W10567   2.626  44.413   1.413
39039W        W10568  18.799  29.435  14.360
39040W        W10569   9.198  18.063  13.654
39041W        W10570   6.821  32.052   0.198
39042W        W10571  20.149  24.622  13.581
39043W        W10572  30.139  18.552   1.755
39044W        W10573  35.419   2.848   4.850
39045W        W10574  30.045  35.146  12.278
39046W        W10575  34.442  23.512  11.570
39047W        W10576  17.016  39.072  12.374
39048W        W10577   8.917  26.476  14.551
39049W        W10578   8.665   9.043  10.686
39050W        W10579  13.200  22.754  12.230
39051W        W10580  32.461   4.455   3.151
39052W        W10581   4.199   9.502   0.919
39053W        W10582  31.264  41.525   2.201
39054W        W10583  11.565   1.047   0.282
39055W        W10584   6.380  13.084   3.686
39056W        W10585  22.457   7.815   4.226
39057W        W10586  42.840   1.463   0.840
39058W        W10587  21.739   0.398  14.841
39059W        W10588  12.381  42.020  12.000
39060W        W10589   7.488  25.925   1.934
39061W        W10590  21.133   2.519   0.190
39062W        W10591   5.424  11.826   3.193
39063W        W10592  24.502  42.248  12.997
39064W        W10593   1.441  15.860   0.316
39065W        W10594  17.497   0.800   1.795
39066W        W10595  33.217  31.082  14.179
39067W        W10596  14.728   3.844   4.559
39068W        W10597  43.138  29.683   4.519
39069W        W10598  20.760  35.066  10.596
39070W        W10599  35.452  17.348  13.914
39071W        W10600  34.987  14.596  13.389
39072W        W10601  43.094  32.155  10.673
39073W        W10602  22.572   6.641   4.607
39074W        W10603  18.297   6.618   1.105
39075W        W10604  27.004  37.940  14.376
39076W        W10605  41.308  34.904   2.402
39077W        W10606   3.923  36.070  14.246
39078W        W10607  16.246  42.776  10.683
39079W        W10608  28.654  10.726   0.993
39080W        W10609   0.071  23.577   1.429
39081W        W10610  32.670  29.477  11.463
39082W        W10611   2.001  22.521  14.320
39083W        W10612  44.868  40.314   0.330
39084W        W10613  29.104  10.707   0.247
39085W        W10614  17.715  27.995   1.797
39086W        W10615  29.432   8.933  14.796
39087W        W10616  30.132  12.907   2.655
39088W        W10617  24.544  35.092  13.475
39089W        W10618  43.302  30.635  11.174
39090W        W10619  25.309   1.161   0.843
39091W        W10620  13.237  33.103   0.689
39092W        W10621  19.647  32.560   4.652
39093W        W10622  44.822  19.487   4.131
39094W        W10623  31.424   0.484   2.915
39095W        W10624  17.254   1.252  10.799
39096W        W10625  12.726  29.646   2.225
39097W        W10626   9.885  32.613   2.263
39098W        W10627  13.261   0.267   2.670
39099W        W10628  12.609  37.489   0.918
39100W        W10629  43.946   6.254   2.755
39101W        W10630  25.490  21.773   3.254
39102W        W10631  25.424   9.969   4.201
39103W        W10632  42.809  21.036  10.644
39104W        W10633  25.068  35.581   3.873
39105W        W10634  33.481  41.460  13.057
39106W        W10635  17.708  37.153   3.373
39107W        W10636  44.915  11.269  14.532
39108W        W10637  32.347   6.847  10.741
39109W        W10638  43.498  37.172   4.527
39110W        W10639  12.107  12.864   1.778
39111W        W10640  40.410  14.126  11.712
39112W        W10641  29.033  26.081   2.407
39113W        W10642  14.145   7.900  13.487
39114W        W10643  23.252   8.302   4.533
39115W        W10644  13.113  26.741   4.338
39116W        W10645  27.436  40.968   1.148
39117W        W10646  38.605   6.950  11.490
39118W        W10647  24.511   2.945  12.064
39119W        W10648  38.982   6.826   4.125
39120W        W10649  23.185  39.544   3.125
39121W        W10650  38.269  17.264   3.924
39122W        W10651  38.535  33.031  13.386
39123W        W10652   4.430   3.905   1.137
39124W        W10653  23.068  42.277  14.868
39125W        W10654  16.168  39.771  13.400
39126W        W10655  15.661   2.875   2.238
39127W        W10656   3.795  12.222  14.654
39128W        W10657   8.310   1.922  13.010
39129W        W10658  30.371  42.426   0.753
39130W        W10659  16.331  14.266   2.241
39131W        W10660  33.667  18.176  13.159
39132W        W10661  25.054  41.886  14.954
39133W        W10662  28.919  32.598  14.790
39134W        W10663   7.776  30.524   4.526
39135W        W10664   9.127  38.840   3.312
39136W        W10665  35.937  16.745  14.871
39137W        W10666   0.931   4.751   4.699
39138W        W10667  28.474  19.178   3.079
39139W        W10668  37.734  18.639   0.637
39140W        W10669  21.185   1.296  11.225
39141W        W10670  41.729   6.396   4.078
39142W        W10671  44.801  40.936   3.474
39143W        W10672  15.244  43.022  10.598
39144W        W10673   1.205  11.784  11.556
39145W        W10674  26.560   9.796  11.391
39146W        W10675  42.009  21.285   2.656
39147W        W10676  28.986   1.603   3.838
39148W        W10677  10.546  10.732  10.682
39149W        W10678  30.923  16.105  12.991
39150W        W10679  19.298   8.250   3.366
39151W        W10680  43.400  35.635   4.648
39152W        W10681  14.291   6.961  11.891
39153W        W10682  26.862   0.816   1.722
39154W        W10683  44.540  11.233  10.271
39155W        W10684  32.430  31.557  14.505
39156W        W10685  38.603  31.859   1.962
39157W        W10686   7.781  41.761  13.123
39158W        W10687  34.433  35.575   2.092
39159W        W10688  41.271  31.671  14.356
39160W        W10689  13.951   6.263   1.748
39161W        W10690  36.082  44.851  14.888
39162W        W10691  12.904   9.237  11.556
39163W        W10692   6.873   8.217   0.847
39164W        W10693  25.468  18.828  13.081
39165W        W10694  25.862   5.920   4.118
39166W        W10695  44.398  11.182   2.680
39167W        W10696  17.055  41.887  14.821
39168W        W10697  17.196  19.317   4.412
39169W        W10698  21.229  27.984   0.892
39170W        W10699  27.000  24.968   4.113
39171W        W10700  34.157  24.857   3.688
39172W        W10701  18.615  18.573   1.416
39173W        W10702  14.761  19.160   3.616
39174W        W10703  18.586  25.089   3.660
39175W        W10704  33.183  39.341   4.334
39176W        W10705  12.195   5.690   0.388
39177W        W10706  37.073  18.879  11.452
39178W        W10707  33.682   8.248   0.770
39179W        W10708  33.856  23.437   2.412
39180W        W10709   8.057  24.633  12.470
39181W        W10710  22.191  42.803  13.905
39182W        W10711  15.579   7.413   1.020
39183W        W10712  25.768  29.647   4.216
39184W        W10713   1.000  34.967   2.141
39185W        W10714  15.656  32.497  12.073
39186W        W10715   1.941   9.380   0.436
39187W        W10716  33.843  21.804   0.323
39188W        W10717   5.406   2.909  14.973
39189W        W10718   1.596  26.250  10.927
39190W        W10719   8.429  44.741   3.574
39191W        W10720  42.363   1.417   4.594
39192W        W10721  25.454   2.695   1.637
39193W        W10722   4.455  31.427   2.886
39194W        W10723  15.330  26.580   3.592
39195W        W10724  18.202   2.142  12.843
39196W        W10725  13.916  43.392   1.594
39197W        W10726  24.963   6.296   3.168
39198W        W10727  22.239  35.473  13.308
39199W        W10728  23.043  11.754   3.191
39200W        W10729  40.465  33.671   1.659
39201W        W10730  20.264   1.410  13.268
39202W        W10731  31.556  13.601   0.330
39203W        W10732   8.851  40.893  13.214
39204W        W10733   8.314  30.497  13.612
39205W        W10734  25.632   7.656   4.551
39206W        W10735  41.436   6.012   3.906
39207W        W10736  16.381  26.679  13.088
39208W        W10737  13.118  13.546   0.278
39209W        W10738  18.710  43.681   3.308
39210W        W10739  25.189  38.419   0.468
39211W        W10740  41.551  32.982  13.478
39212W        W10741   9.449  36.888   0.962
39213W        W10742  36.439  37.905   2.363
39214W        W10743  20.683   3.914   0.269
39215W        W10744  37.934   9.185   0.508
39216W        W10745  19.495  22.021   0.279
39217W        W10746  41.461  42.497  14.063
39218W        W10747  37.495  36.628  10.625
39219W        W10748  25.953  40.219  13.915
39220W        W10749  25.106  36.097  11.398
39221W        W10750  36.084  27.711  14.619
39222W        W10751  37.071  30.266  11.044
39223W        W10752  38.080  14.344   0.849
39224W        W10753  12.276  37.925  13.530
39225W        W10754  21.759  28.479  13.568
39226W        W10755  42.751   9.870  14.005
39227W        W10756  42.268  25.733   3.389
39228W        W10757  10.526  23.129   1.976
39229W        W10758   4.326  41.790  14.387
39230W        W10759  33.556  33.049   3.247
39231W        W10760  12.563  38.900   1.094
39232W        W10761  41.374   5.512   3.751
39233W        W10762   7.166  24.199   0.396
39234W        W10763  43.927  30.708   4.950
39235W        W10764  15.033  29.220  11.051
39236W        W10765   8.883  27.301   3.244
39237W        W10766  36.839  15.397   2.265
39238W        W10767  37.888  32.086   5.042
39239W        W10768  25.770  23.664  12.936
39240W        W10769  32.056  44.459   0.754
39241W        W10770  24.678  37.605  12.533
39242W        W10771  41.827  28.178   4.102
39243W        W10772  24.110  22.733  14.991
39244W        W10773   1.699  44.501  11.311
39245W        W10774  18.243  40.925   4.092
39246W        W10775  33.048   6.698   4.131
39247W        W10776  20.538  11.136   2.237
39248W        W10777  13.854  34.816   0.493
39249W        W10778  34.045   1.857  14.579
39250W        W10779  37.056  12.180  12.057
39251W        W10780   6.515  43.552   3.307
39252W        W10781   9.191  14.812   1.238
39253W        W10782   0.503  35.942   0.475
39254W        W10783  29.069  39.517   1.371
39255W        W10784  39.603  42.117  12.481
39256W        W10785  25.061  32.503   0.298
39257W        W10786  38.179   5.231  14.406
39258W        W10787   4.435  10.807   4.687
39259W        W10788  16.356  26.227  11.664
39260W        W10789   7.307  20.796  14.543
39261W        W10790  38.920  27.956  12.129
39262W        W10791  37.471  10.734   4.640
39263W        W10792  23.902  12.770   0.810
39264W        W10793  34.258  26.012   2.834
39265W        W10794  29.822  12.264  10.992
39266W        W10795  23.925  31.945   3.176
39267W        W10796  14.559  31.584   4.162
39268W        W10797  30.731  30.839   2.085
39269W        W10798  15.574  41.212  11.247
39270W        W10799  16.882   4.472  14.351
39271W        W10800  18.244   6.304  11.182
39272W        W10801   3.300  23.264   1.371
39273W        W10802  40.490  37.483   1.167
39274W        W10803  28.621  19.831   3.719
39275W        W10804  44.108  23.362   1.928
39276W        W10805  12.550   4.766   2.301
39277W        W10806  14.366   1.693   4.631
39278W        W10807  33.367  38.369  10.812
39279W        W10808  30.075  24.730   4.027
39280W        W10809  10.677  40.312  12.382
39281W        W10810  23.943  39.951  11.693
39282W        W10811   4.730  32.199  12.520
39283W        W10812  28.632   3.829  11.107
39284W        W10813  35.874  13.912   3.657
39285W        W10814  25.093  44.536  11.977
39286W        W10815  35.438  30.871   0.962
39287W        W10816  32.334   1.626  13.911
39288W        W10817  30.458  27.473   1.878
39289W        W10818  38.900  17.210  10.779
39290W        W10819  44.526   3.947   0.262
39291W        W10820   2.206  14.798  14.958
39292W        W10821  21.762   1.358   0.656
39293W        W10822  30.543  11.873   4.942
39294W        W10823  14.826  31.081   1.367
39295W        W10824  31.387  16.495   0.724
39296W        W10825   8.754  28.389  12.107
39297W        W10826   7.029  12.598  11.131
39298W        W10827  28.909  34.173   1.748
39299W        W10828  10.784   9.952  12.609
39300W        W10829  31.893  10.812   1.061
39301W        W10830  41.730   6.744   4.543
39302W        W10831  10.049  27.461  13.982
39303W        W10832  14.624  13.371  13.016
39304W        W10833  20.676  20.125   3.254
39305W        W10834  32.152  40.036   3.065
39306W        W10835  14.525  23.781   4.659
39307W        W10836   5.264  31.930  11.969
39308W        W10837  11.777  17.177   4.539
39309W        W10838   7.984  34.903   0.444
39310W        W10839  16.016  11.090  14.934
39311W        W10840  28.158  23.172  11.683
39312W        W10841  39.464  41.585  12.062
39313W        W10842   6.589  35.011  14.016
39314W        W10843  10.780   1.982  11.549
39315W        W10844  24.034  35.357   0.184
39316W        W10845  39.387  32.613   3.669
39317W        W10846  44.381  28.332   2.097
39318W        W10847   6.139   8.262   1.947
39319W        W10848  44.835   6.597  11.120
39320W        W10849  41.128  12.394  12.934
39321W        W10850  13.132   0.008   1.383
39322W        W10851  31.987  15.110  11.313
39323W        W10852  11.743  38.448  13.372
39324W        W10853  11.509   3.275   4.740
39325W        W10854  18.341  37.461  10.667
39326W        W10855  25.351   8.360   2.302
39327W        W10856  44.520  29.392   0.067
39328W        W10857  40.313  21.236   2.241
39329W        W10858  14.521  28.690  14.271
39330W        W10859   5.252   5.704  10.765
39331W        W10860   0.510  19.996   2.075
39332W        W10861   4.949  23.431   2.176
39333W        W10862  44.046  35.613   0.376
39334W        W10863   2.233  37.851  10.758
39335W        W10864  36.594  26.922  13.488
39336W        W10865  34.931  12.911  11.775
39337W        W10866  28.157  29.055  13.288
39338W        W10867   3.116   7.533   4.196
39339W        W10868  10.594  11.858  13.457
39340W        W10869  10.401  33.764   0.493
39341W        W10870   0.443  43.790   0.105
39342W        W10871  41.287  25.514  11.211
39343W        W10872  13.967   8.656   1.504
39344W        W10873  31.009   7.846   2.192
39345W        W10874   0.750   6.316  14.567
39346W        W10875  24.418  38.872   2.743
39347W        W10876   7.907  16.366  13.471
39348W        W10877  20.992  17.733   2.755
39349W        W10878  19.774  21.438   4.790
39350W        W10879   2.317  26.161  14.826
39351W        W10880  44.308  36.856  14.880
39352W        W10881  11.708  27.621  13.365
39353W        W10882   0.490  35.081   1.364
39354W        W10883   8.334  37.554   0.542
39355W        W10884  11.662  42.417  13.672
39356W        W10885  43.935   6.054   1.802
39357W        W10886  14.883  28.365  10.623
39358W        W10887  15.007  40.388  10.561
39359W        W10888  12.386  29.662  13.504
39360W        W10889  44.376  12.616   0.259
39361W        W10890  11.527  23.259   3.123
39362W        W10891  18.670  29.969   3.647
39363W        W10892  22.521  17.743  14.450
39364W        W10893  44.567  42.008  11.619
39365W        W10894  36.445   0.878   2.224
39366W        W10895  23.956  32.129   2.277
39367W        W10896  32.054  33.361  13.295
39368W        W10897  17.624  32.869   4.110
39369W        W10898  37.980  35.057  11.471
39370W        W10899   3.137  12.285  12.421
39371W        W10900  34.484  12.098  14.749
39372W        W10901  28.910  34.218   4.042
39373W        W10902  41.942   8.383  11.000
39374W        W10903  10.226   6.938   5.013
39375W        W10904  22.749  37.846   3.401
39376W        W10905  29.098  43.992  10.869
39377W        W10906   8.906  44.499   2.358
39378W        W10907   3.364  37.218   1.963
39379W        W10908  31.908  40.480   2.306
39380W        W10909  43.659  19.680  12.960
39381W        W10910  40.566  13.881   1.182
39382W        W10911  19.609   1.932   1.248
39383W        W10912  26.229  33.015   2.856
39384W        W10913  33.817  40.969  11.594
39385W        W10914   8.668   1.189  12.013
39386W        W10915  30.399   6.067  12.012
39387W        W10916  30.624   7.954  12.845
39388W        W10917  41.363   4.978  11.522
39389W        W10918  12.960  37.612  12.514
39390W        W10919   0.424  36.980  13.160
39391W        W10920  11.314  12.111   2.785
39392W        W10921  25.282  43.296  11.190
39393W        W10922  23.445  23.128  11.960
39394W        W10923   3.215  23.516   3.185
39395W        W10924  42.931  21.293  14.365
39396W        W10925  40.108  18.961   4.793
39397W        W10926  35.255  13.491   0.391
39398W        W10927  10.142  13.758   0.788
39399W        W10928  35.932   3.428  10.970
39400W        W10929  26.155  25.658   0.819
39401W        W10930  10.283  39.081  12.432
39402W        W10931  11.560  17.794  11.164
39403W        W10932  23.770   2.912  11.616
39404W        W10933  42.516  36.239   1.761
39405W        W10934   4.321  35.636  12.573
39406W        W10935  14.218  14.051  11.966
39407W        W10936  41.424  22.096  14.359
39408W        W10937  38.387  23.493   2.257
39409W        W10938   4.897  15.244  10.926
39410W        W10939  25.592  29.991  11.492
39411W        W10940   4.141  31.768   4.513
39412W        W10941  24.296  38.229   2.151
39413W        W10942  23.103  29.111   1.345
39414W        W10943  21.799  20.090  13.926
39415W        W10944   1.892  18.417   2.566
39416W        W10945   4.929  20.863  12.757
39417W        W10946  21.240  30.498  10.219
39418W        W10947  39.509  13.722   2.875
39419W        W10948  38.599  42.182  13.959
39420W        W10949   9.188  12.861  11.166
39421W        W10950   1.260  42.725  14.705
39422W        W10951  22.275  41.390  13.927
39423W        W10952   8.115   8.723  12.153
39424W        W10953  30.172  42.264  10.404
39425W        W10954   4.907  22.469   0.601
39426W        W10955  39.454  21.961   1.176
39427W        W10956  41.541  38.981   1.450
39428W        W10957  41.553  34.309  11.205
39429W        W10958   5.424  19.958  11.141
39430W        W10959  24.180  34.050   0.862
39431W        W10960  15.686  42.369  12.973
39432W        W10961  24.444  13.805   3.110
39433W        W10962  24.239   0.973  12.464
39434W        W10963  26.840  22.746  11.219
39435W        W10964   7.345   2.657   3.256
39436W        W10965  28.543   5.329  13.489
39437W        W10966  35.897  39.024  10.625
39438W        W10967  38.504  38.581   2.646
39439W        W10968  24.619   2.137  11.733
39440W        W10969  29.052  20.210   1.263
39441W        W10970  21.548  40.984  13.021
39442W        W10971  23.878  17.437   2.818
39443W        W10972   4.438  11.917   4.670
39444W        W10973  12.405  14.667  14.840
39445W        W10974   8.215  43.671  13.548
39446W        W10975   0.974   0.756   2.278
39447W        W10976  42.489   9.724  11.611
39448W        W10977  28.632  12.143  13.904
39449W        W10978  15.045   0.983  10.723
39450W        W10979  15.708  17.269   3.611
39451W        W10980  13.536  15.690   2.722
39452W        W10981   4.953   2.011  10.636
39453W        W10982  21.089  17.036  14.877
39454W        W10983  13.710  39.004  14.826
39455W        W10984   5.543  34.103  12.144
39456W        W10985  13.644  27.490  13.396
39457W        W10986  15.246  32.864   1.910
39458W        W10987  31.509  26.237  12.006
39459W        W10988   3.858   0.282  12.429
39460W        W10989   8.381   2.437   2.724
39461W        W10990   7.025  12.281   3.700
39462W        W10991  23.438  20.776   3.710
39463W        W10992  41.932  16.770  14.403
39464W        W10993  18.136  25.608  13.080
39465W        W10994  28.562   1.930   2.561
39466W        W10995  13.944   7.664  10.175
39467W        W10996  21.555  36.268   4.807
39468W        W10997   1.784  13.219   3.653
39469W        W10998  28.139  14.836   4.179
39470W        W10999  21.295  21.161   4.105
39471W        W11000  27.803  20.109  11.583
39472W        W11001  41.449   0.240   2.212
39473W        W11002  29.219  40.965   0.855
39474W        W11003   0.670  43.460   4.856
39475W        W11004  28.617  23.747  10.990
39476W        W11005   4.905  34.443   4.638
39477W        W11006  20.279  10.359   4.598
39478W        W11007  19.608   5.358   1.362
39479W        W11008  33.882  34.619  12.954
39480W        W11009  19.312  29.133   1.933
39481W        W11010  36.416  23.667   4.660
39482W        W11011  19.752  34.310  13.538
39483W        W11012   0.212  39.430   3.681
39484W        W11013  13.936  17.426   0.546
39485W        W11014  14.047  21.640   2.607
39486W        W11015  41.757  40.385   3.243
39487W        W11016  11.591  44.268  14.594
39488W        W11017   0.734  13.223  12.574
39489W        W11018  30.899  40.231   0.693
39490W        W11019   3.226  17.036  11.659
39491W        W11020  14.604   0.796   0.322
39492W        W11021  27.823  26.749   2.217
39493W        W11022   7.754  44.951  11.852
39494W        W11023  17.557  36.218  12.707
39495W        W11024  44.946  42.936   3.407
39496W        W11025   4.820  27.418   4.203
39497W        W11026   3.662  14.799   1.350
39498W        W11027   5.168  42.922   4.955
39499W        W11028  39.484  37.504   3.656
39500W        W11029  18.286  43.818  13.360
39501W        W11030   3.230   0.416  14.458
39502W        W11031  36.649  16.773   1.296
39503W        W11032  42.030  25.412  10.739
39504W        W11033   3.728  31.278  13.934
39505W        W11034  13.000  27.231  13.381
39506W        W11035  38.943  17.468  10.325
39507W        W11036  21.190   1.697  11.671
39508W        W11037  13.251   6.679  13.745
39509W        W11038   3.971  11.345   4.146
39510W        W11039   4.447  40.008  13.559
39511W        W11040  40.556  44.453   4.599
39512W        W11041  35.595  39.866  14.757
39513W        W11042  11.458  15.339  10.655
39514W        W11043   2.315  23.325  13.335
39515W        W11044  33.197  14.143  12.187
39516W        W11045  22.631  23.058   1.875
39517W        W11046  31.621  35.505   3.690
39518W        W11047  26.361  27.375   4.107
39519W        W11048  26.631  35.381   0.237
39520W        W11049  33.434  21.298   0.289
39521W        W11050   7.611  38.080   0.241
39522W        W11051  13.414  38.852  14.419
39523W        W11052  28.613  35.509   1.936
39524W        W11053  14.217   1.933  10.541
39525W        W11054  18.536  15.895   4.205
39526W        W11055  19.182  35.378  11.836
39527W        W11056  43.288   4.457   4.396
39528W        W11057  12.904  33.582   9.967
39529W        W11058   1.997  43.037  14.478
39530W        W11059   9.150  26.646  11.062
39531W        W11060   1.728  33.814   3.670
39532W        W11061   8.245   4.691   2.820
39533W        W11062  37.328   7.087  12.483
39534W        W11063   6.602  38.327  13.750
39535W        W11064   1.316  37.238  11.623
39536W        W11065  23.191  29.671  11.985
39537W        W11066  38.512   4.753   4.150
39538W        W11067  31.594  23.922  12.962
39539W        W11068  40.322  10.777  10.836
39540W        W11069  15.658  16.757   3.747
39541W        W11070   7.237  40.076  13.105
39542W        W11071   9.286  25.183  14.728
39543W        W11072  44.084  20.151   2.383
39544W        W11073  41.594  21.493  14.307
39545W        W11074   2.219  40.074   3.123
39546W        W11075   1.195   4.072   0.699
39547W        W11076  12.734  40.745   0.445
39548W        W11077   4.779   7.880  11.105
39549W        W11078  21.468  27.170   4.557
39550W        W11079  25.641   7.155  10.726
39551W        W11080  42.774  19.226  11.583
39552W        W11081  14.641  37.386  13.504
39553W        W11082   0.156   5.206   3.420
39554W        W11083  39.742   7.141  14.384
39555W        W11084  28.117  37.506  10.358
39556W        W11085   1.558  26.873   0.021
39557W        W11086  27.117  38.338  13.442
39558W        W11087  10.269  31.266  12.590
39559W        W11088   6.931  24.027  13.993
39560W        W11089   5.573  42.374   1.368
39561W        W11090  19.565  27.831   0.420
39562W        W11091  13.370   8.194  10.699
39563W        W11092   8.696  38.393   0.449
39564W        W11093  16.490  18.582   3.255
39565W        W11094  20.800  17.846  13.608
39566W        W11095  17.445  38.602  14.738
39567W        W11096   3.414  23.785  14.319
39568W        W11097  13.936  33.590   2.786
39569W        W11098  23.451  31.473   1.268
39570W        W11099  25.662   8.279   3.719
39571W        W11100  41.117  29.147   1.380
39572W        W11101  14.144  23.922  14.384
39573W        W11102  34.014   9.094   3.715
39574W        W11103  36.618  13.554   0.369
39575W        W11104  16.620   4.823   1.459
39576W        W11105  39.926  30.698   2.438
39577W        W11106  12.692  26.479   4.203
39578W        W11107   9.086  28.118  12.482
39579W        W11108   8.185  21.634   3.332
39580W        W11109   3.751   9.826   2.881
39581W        W11110   7.493  37.544   3.858
39582W        W11111  17.086  13.831   1.284
39583W        W11112  35.635  36.106  14.495
39584W        W11113  19.496  27.193   2.440
39585W        W11114   2.690  17.053  13.418
39586W        W11115  13.984   0.965  10.618
39587W        W11116  20.674  12.434   3.397
39588W        W11117  23.525  32.881  12.081
39589W        W11118  11.733  37.522  11.040
39590W        W11119   6.884   9.901   3.429
39591W        W11120   1.224  16.769   3.139
39592W        W11121  37.444  40.708  12.643
39593W        W11122  34.848  18.284  10.616
39594W        W11123  18.239   5.150   4.554
39595W        W11124  26.747  20.414   1.848
39596W        W11125   9.667  27.632   3.856
39597W        W11126  38.507  21.294   4.270
39598W        W11127  17.986  22.276  11.292
39599W        W11128  35.572  19.182  13.973
39600W        W11129  36.853  31.974  13.401
39601W        W11130   6.373  18.506   3.577
39602W        W11131  10.915  36.261   2.470
39603W        W11132  32.850  24.159  14.230
39604W        W11133  25.143  35.791  13.394
39605W        W11134  36.172  33.084   3.655
39606W        W11135  16.324  23.469   3.956
39607W        W11136  19.456  31.859   1.293
39608W        W11137  12.049  12.682  13.881
39609W        W11138   7.383   4.938   2.411
39610W        W11139   0.413  39.818   2.822
39611W        W11140   2.579  24.954  11.733
39612W        W11141  34.067  34.376   3.840
39613W        W11142  13.379  15.413  14.813
39614W        W11143  35.134  23.180  12.699
39615W        W11144  41.112  35.971   1.723
39616W        W11145   7.422  30.957   0.547
39617W        W11146  15.042  23.901  14.459
39618W        W11147  40.052  21.273   1.785
39619W        W11148  13.186  21.550   3.721
39620W        W11149  38.771   3.946   4.540
39621W        W11150   5.261   9.822  11.998
39622W        W11151  28.659   5.895   3.586
39623W        W11152  14.224  44.779  13.963
39624W        W11153  30.336  12.232   0.497
39625W        W11154  28.501  30.983   1.896
39626W        W11155   9.568  35.594   3.833
39627W        W11156  40.007  43.489  14.837
39628W        W11157  15.547  18.507  13.793
39629W        W11158  16.562   5.445  14.404
39630W        W11159  30.681  20.262  13.134
39631W        W11160  21.740  39.389   2.328
39632W        W11161  24.600  39.460  11.002
39633W        W11162   9.839  11.308   4.746
39634W        W11163   5.608   5.868   4.672
39635W        W11164  34.392  16.040   0.144
39636W        W11165   9.181   7.813   0.953
39637W        W11166   4.963  30.062  10.123
39638W        W11167  24.091  31.943  11.805
39639W        W11168  15.569  34.097  11.487
39640W        W11169   7.974  24.032  10.691
39641W        W11170  25.425  28.919   1.428
39642W        W11171  12.830  24.668  11.466
39643W        W11172  21.673  32.856  12.049
39644W        W11173  27.923   9.325  10.397
39645W        W11174  16.713  25.383  10.738
39646W        W11175  29.325   9.856   4.491
39647W        W11176  32.066  32.483   0.257
39648W        W11177  30.993  43.798  12.808
39649W        W11178  23.728  12.903  13.860
39650W        W11179   2.392  41.108   0.445
39651W        W11180  41.588  13.698  14.253
39652W        W11181  40.322  35.334  13.384
39653W        W11182   3.784   7.632  12.839
39654W        W11183  11.147   7.806   1.833
39655W        W11184  19.694   5.694   1.785
39656W        W11185  12.829  43.567  12.594
39657W        W11186  27.098  14.596   1.291
39658W        W11187  39.962   6.940  14.840
39659W        W11188  27.557  14.283   1.821
39660W        W11189  23.662  29.195   2.949
39661W        W11190   7.260  32.290   4.609
39662W        W11191  31.803   1.762   0.364
39663W        W11192  22.531  40.560   2.606
39664W        W11193  30.106  40.349  12.943
39665W        W11194  16.241  38.313  14.333
39666W        W11195   3.445  18.438   0.295
39667W        W11196  10.463  26.456   2.875
39668W        W11197   9.247  24.413  13.488
39669W        W11198  40.794  19.969  13.430
39670W        W11199  18.792   9.563   2.889
39671W        W11200  20.742  39.975  13.154
39672W        W11201   2.040   2.047  11.189
39673W        W11202  11.172   3.187   2.361
39674W        W11203  11.260  20.804   3.368
39675W        W11204  30.712  17.719  14.406
39676W        W11205  42.038  20.157  13.045
39677W        W11206  19.344  44.816  13.632
39678W        W11207  39.782  42.265   0.329
39679W        W11208   5.141  34.958   0.012
39680W        W11209  40.495   8.859  12.229
39681W        W11210  25.703  36.422   1.660
39682W        W11211  31.136  19.045  14.268
39683W        W11212  22.636  33.469  14.844
39684W        W11213  20.560  26.648   3.867
39685W        W11214  31.429  23.042  13.177
39686W        W11215  43.416  44.147   4.541
39687W        W11216   4.911   2.012  11.503
39688W        W11217  42.857  23.984  11.212
39689W        W11218  18.188  42.151  14.230
39690W        W11219  10.232  12.396  10.512
39691W        W11220  42.469  28.202  12.306
39692W        W11221  11.311  19.202   4.765
39693W        W11222   7.334   7.663   1.197
39694W        W11223   2.773   8.175   1.927
39695W        W11224  13.118  22.586  13.646
39696W        W11225   0.836  31.555  13.934
39697W        W11226  20.301   1.312   0.267
39698W        W11227  21.012   4.698  12.634
39699W        W11228  43.779  29.545   2.392
39700W        W11229  18.504   7.746   2.727
39701W        W11230  43.525  27.938  12.065
39702W        W11231  16.292   6.365   2.956
39703W        W11232  35.602  11.236   0.666
39704W        W11233  21.687  37.746   9.897
39705W        W11234  31.156  36.636   2.920
39706W        W11235  35.051   4.596   1.408
39707W        W11236  23.247  18.109   2.309
39708W        W11237  32.642  39.583   2.061
39709W        W11238  44.379  30.481  12.040
39710W        W11239  23.942   1.826   2.364
39711W        W11240  28.866  38.082   3.824
39712W        W11241  28.113  40.308  13.966
39713W        W11242  12.599  23.925  13.356
39714W        W11243  18.267  12.864  11.661
39715W        W11244  23.527  31.879  14.049
39716W        W11245  23.755   0.795  12.529
39717W        W11246  13.305  22.482   5.068
39718W        W11247  25.906  13.724   3.142
39719W        W11248  40.471  38.784  14.276
39720W        W11249   7.152   9.255   0.360
39721W        W11250  34.418  14.159   0.821
39722W        W11251   1.235  22.206   3.789
39723W        W11252  31.063  23.397  10.232
39724W        W11253  18.668  44.748   3.293
39725W        W11254  29.306   7.834   2.728
39726W        W11255  39.970  43.483  12.845
39727W        W11256  32.121   8.147  13.957
39728W        W11257  22.027   2.920  12.911
39729W        W11258   3.555  44.073   1.716
39730W        W11259  23.014  14.886  14.806
39731W        W11260  38.798  38.372  14.745
39732W        W11261  26.671  38.890   1.305
39733W        W11262  10.239   7.050   1.242
39734W        W11263  43.450   9.721   1.316
39735W        W11264  14.697  33.412   4.652
39736W        W11265  28.722  31.993  11.316
39737W        W11266  26.823  31.163   4.768
39738W        W11267  39.382  35.515  12.969
39739W        W11268  29.127   5.450   3.154
39740W        W11269   5.054  40.490  14.017
39741W        W11270   9.747  26.831   3.354
39742W        W11271  42.932  33.381  12.616
39743W        W11272  26.171  17.557   0.287
39744W        W11273  31.474   9.554   0.856
39745W        W11274  25.440  35.135   1.811
39746W        W11275   2.319   7.675  14.268
39747W        W11276  28.553  34.558   1.877
39748W        W11277  40.076   2.718   4.543
39749W        W11278  21.454  13.150  14.931
39750W        W11279  19.623  33.865   0.396
39751W        W11280   5.135   1.006   3.216
39752W        W11281  11.603  28.461  10.839
39753W        W11282   0.133  39.141   1.337
39754W        W11283  27.640  38.368  11.006
39755W        W11284  32.845  44.735  11.496
39756W        W11285  24.231   2.043   1.214
39757W        W11286  23.440  12.587  11.013
39758W        W11287   5.253  37.645  13.837
39759W        W11288  38.162  14.246   3.270
39760W        W11289  12.281   9.437  14.407
39761W        W11290   9.686  14.799  13.412
39762W        W11291  14.731  31.982  10.644
39763W        W11292   6.456  21.653  13.527
39764W        W11293  43.887  44.843   3.859
39765W        W11294  28.596   4.397   4.994
39766W        W11295  36.622  13.858  13.482
39767W        W11296  21.850  43.790   3.262
39768W        W11297  29.998  37.022   1.123
39769W        W11298  10.886  40.788  11.551
39770W        W11299  37.484  36.449   1.399
39771W        W11300  18.620  30.735   1.248
39772W        W11301  10.777   4.787   3.253
39773W        W11302  18.481  18.160  10.578
39774W        W11303  21.011  40.478  12.156
39775W        W11304  35.774  20.935  14.285
39776W        W11305  42.966   6.304   0.775
39777W        W11306  30.367  40.416  14.762
39778W        W11307  38.044  12.087  14.886
39779W        W11308  40.324  32.070  10.603
39780W        W11309  40.630  10.887  11.244
39781W        W11310  41.326  41.499  11.602
39782W        W11311   8.389  23.497   0.224
39783W        W11312  41.292  31.112  11.579
39784W        W11313  11.678  14.856  12.352
39785W        W11314  25.382  42.814   1.497
39786W        W11315  32.853   7.445   2.904
39787W        W11316  16.260  17.358  13.095
39788W        W11317   1.115  21.641  11.828
39789W        W11318  11.173   6.903  12.545
39790W        W11319  11.762   6.410  13.035
39791W        W11320  26.224  36.892   0.840
39792W        W11321   9.720  17.838   2.757
39793W        W11322   3.681  12.246  14.142
39794W        W11323  15.929  27.584   4.589
39795W        W11324  26.713  26.462   0.631
39796W        W11325  30.442  21.714   0.996
39797W        W11326  25.099  11.564   4.117
39798W        W11327  16.173   9.274  12.071
39799W        W11328  31.481  38.034   2.335
39800W        W11329  42.060  35.517  14.421
39801W        W11330  38.008   8.360  14.092
39802W        W11331   2.078   3.449  13.051
39803W        W11332  27.443  43.935   1.421
39804W        W11333  14.609  14.626   0.296
39805W        W11334  20.581  39.521   2.877
39806W        W11335  43.397  24.208   2.324
39807W        W11336  18.538  15.705  10.615
39808W        W11337  22.194  28.072   4.786
39809W        W11338   4.712  38.273  11.164
39810W        W11339  11.282   2.501   4.809
39811W        W11340   8.192   0.202   3.726
39812W        W11341  21.277  41.401   4.675
39813W        W11342  16.892   3.617   3.266
39814W        W11343  42.656  43.078  13.600
39815W        W11344   6.401  38.503   3.212
39816W        W11345  23.124  23.963   0.992
39817W        W11346  40.576   2.725   4.669
39818W        W11347  37.434  14.527   3.742
39819W        W11348  14.058  13.558  11.091
39820W        W11349  19.357  28.904   2.869
39821W        W11350  18.113  23.611  11.273
39822W        W11351  30.961   2.943  14.360
39823W        W11352  22.985  23.521   0.306
39824W        W11353   4.639   6.401  14.455
39825W        W11354  20.104  13.055  10.620
39826W        W11355  26.689   6.859   3.736
39827W        W11356  41.400  44.449  13.349
39828W        W11357   2.890  10.665  12.356
39829W        W11358   3.462  37.769  14.322
39830W        W11359   6.090  27.665  13.936
39831W        W11360  13.199  39.035  14.955
39832W        W11361  30.861  34.992   2.746
39833W        W11362  15.771  16.802   4.511
39834W        W11363  35.306   1.334   4.581
39835W        W11364  42.560  31.619  14.107
39836W        W11365  44.285   1.957  13.200
39837W        W11366  29.274   9.777   2.537
39838W        W11367  19.316  43.934  11.889
39839W        W11368   8.228  15.713   4.208
39840W        W11369  42.996  15.836   1.220
39841W        W11370  44.054  37.000  12.421
39842W        W11371  18.281  44.846  14.518
39843W        W11372  36.351  31.285  13.657
39844W        W11373   9.666  23.266   0.375
39845W        W11374   8.003  10.206  10.289
39846W        W11375  31.408  10.831   1.239
39847W        W11376  30.374  16.365   2.372
39848W        W11377  40.472  24.148   4.641
39849W        W11378  31.003   9.703  11.542
39850W        W11379  38.484  34.970   3.725
39851W        W11380  23.239  24.147  14.982
39852W        W11381  31.004  20.602  12.828
39853W        W11382   7.241   2.113   2.305
39854W        W11383  40.789  41.595  11.091
39855W        W11384  38.464  32.421   3.131
39856W        W11385   6.728  37.546  13.801
39857W        W11386  21.481  25.245   0.072
39858W        W11387  25.470  40.685   4.140
39859W        W11388  38.131   8.232  11.649
39860W        W11389  23.521  19.856  10.926
39861W        W11390  41.888  37.766   4.488
39862W        W11391  44.555  44.423   3.666
39863W        W11392  13.679  42.521  11.185
39864W        W11393  28.746  14.293   0.942
39865W        W11394   6.291  11.778  13.344
39866W        W11395  27.122  43.345   4.626
39867W        W11396  31.104  30.929   1.184
39868W        W11397  18.762  32.615   2.382
39869W        W11398   0.274  22.507   4.038
39870W        W11399  39.459  11.594  13.035
39871W        W11400  39.792  40.053  13.059
39872W        W11401  25.981  38.981   2.895
39873W        W11402  31.178  30.720   4.133
39874W        W11403  21.158  32.866  12.151
39875W        W11404  35.066   8.922   1.899
39876W        W11405  29.347  31.326   2.252
39877W        W11406  15.071   5.781   1.399
39878W        W11407  44.001  14.277  12.530
39879W        W11408  28.197  40.645   2.299
39880W        W11409  19.673   3.634   1.801
39881W        W11410  16.700  10.867   2.292
39882W        W11411   1.995  20.816   4.740
39883W        W11412   8.845  28.934  12.975
39884W        W11413  24.608  36.068  11.537
39885W        W11414  36.030  23.982   0.846
39886W        W11415  11.301  18.663   0.985
39887W        W11416   8.655  11.250  13.486
39888W        W11417   3.471  27.627   0.812
39889W        W11418  16.086   0.883   3.697
39890W        W11419  15.621  38.508   2.293
39891W        W11420  30.873  42.834   5.160
39892W        W11421   7.371  38.849  13.303
39893W        W11422  32.023  30.831   2.835
39894W        W11423  39.112  25.150  10.727
39895W        W11424   8.774  29.341  14.808
39896W        W11425   4.479  12.236  11.602
39897W        W11426  29.964  28.593   2.970
39898W        W11427  14.882  15.592  13.398
39899W        W11428   9.812  16.151   1.744
39900W        W11429  28.789  13.371   1.704
39901W        W11430  18.091  38.990   4.193
39902W        W11431  36.140  30.961   2.042
39903W        W11432   5.595  44.523  14.983
39904W        W11433  20.225  30.150   3.229
39905W        W11434  13.421  20.990  14.425
39906W        W11435  10.950  10.311   4.596
39907W        W11436  31.824  42.131  12.394
39908W        W11437   9.799  33.233  12.927
39909W        W11438  36.840  26.411  11.164
39910W        W11439  41.511  37.012  11.100
39911W        W11440  32.573   4.471   4.155
39912W        W11441   1.368  23.827   1.873
39913W        W11442  17.895  39.461  13.997
39914W        W11443   9.229   5.584   4.882
39915W        W11444  11.814  15.721  10.721
39916W        W11445  42.374   4.221  13.361
39917W        W11446  17.015  27.129  10.666
39918W        W11447  16.838   5.075   0.505
39919W        W11448   9.715  37.367   2.677
39920W        W11449  30.411  29.623   1.347
39921W        W11450  44.198  42.874  13.724
39922W        W11451  32.359  14.589   3.840
39923W        W11452  43.382  30.102  11.203
39924W        W11453  21.758  28.179  12.611
39925W        W11454  10.674   0.269  14.598
39926W        W11455  16.276  34.425  12.482
39927W        W11456  27.521  35.049  13.305
39928W        W11457  29.467  24.820  12.002
39929W        W11458  39.392  37.668  12.449
39930W        W11459  13.390  24.550   3.687
39931W        W11460  12.086   4.366   4.307
39932W        W11461   6.412  22.739  12.925
39933W        W11462  27.758  14.542   4.318
39934W        W11463  26.708   2.959  14.377
39935W        W11464  27.554   1.158   4.264
39936W        W11465  14.435  26.960   2.807
39937W        W11466  13.326   0.496   4.090
39938W        W11467  29.803  18.642   4.723
39939W        W11468  16.750  30.252   2.335
39940W        W11469  39.887  44.927   0.994
39941W        W11470  20.574  12.344  14.535
39942W        W11471  18.644   3.867  14.636
39943W        W11472  16.042  44.819  12.968
39944W        W11473  34.587  10.824   2.852
39945W        W11474  12.936  24.785   0.272
39946W        W11475  36.349  34.975   4.368
39947W        W11476  29.198  30.878  14.511
39948W        W11477  37.438  36.558  12.395
39949W        W11478  38.500  13.274   3.220
39950W        W11479  36.309  14.327   4.812
39951W        W11480  43.834  11.792   2.188
39952W        W11481   4.218   6.241   2.394
39953W        W11482   6.723   9.227   2.676
39954W        W11483   2.625   7.256   2.863
39955W        W11484  11.069  39.586  12.879
39956W        W11485  33.866  24.050  10.998
39957W        W11486   2.622  31.395  11.059
39958W        W11487  32.652  30.679  12.105
39959W        W11488  43.671   0.938   0.975
39960W        W11489   1.799  39.795  14.391
39961W        W11490  25.675   5.321  11.049
39962W        W11491   2.184  28.034   2.191
39963W        W11492  35.985  27.070  10.889
39964W        W11493  19.592  21.557  11.115
39965W        W11494  14.724  12.233   4.664
39966W        W11495  29.165  30.566  13.850
39967W        W11496   1.930  28.100   2.906
39968W        W11497   5.225   9.906   1.889
39969W        W11498  23.896   3.423  11.681
39970W        W11499   9.446  23.936  13.335
39971W        W11500  38.695  21.057  11.078
39972W        W11501  32.754  28.079   5.537
39973W        W11502  15.407   7.460  10.987
39974W        W11503  38.630  36.748   2.384
39975W        W11504  13.845  24.569   4.681
39976W        W11505  18.877  44.051  12.626
39977W        W11506  29.009  12.875  13.057
39978W        W11507   6.754  24.514  13.974
39979W        W11508  24.286  25.075   0.247
39980W        W11509  28.502  41.369   2.911
39981W        W11510  23.999  40.946  12.576
39982W        W11511  38.389  13.218  13.009
39983W        W11512  13.132  34.507  10.234
39984W        W11513  26.321  26.842   4.110
39985W        W11514  37.431  20.476   2.843
39986W        W11515  13.665  21.969  13.537
39987W        W11516  20.246   5.916   2.787
39988W        W11517   3.349   9.489  12.965
39989W        W11518   2.257  16.501  10.976
39990W        W11519  11.097  26.398  14.983
39991W        W11520  11.625  17.622  11.953
39992W        W11521  22.864  20.260   3.974
39993W        W11522  28.064  37.964   2.873
39994W        W11523  44.170   7.818   0.825
39995W        W11524  28.354  41.115   3.340
39996W        W11525   7.872  33.832  14.949
39997W        W11526  39.108  32.782  12.565
39998W        W11527  14.122  40.138   2.771
39999W        W11528  14.073  30.927  11.036
40000W        W11529  11.771   6.728  11.474
40001W        W11530  26.744  22.172  13.516
40002W        W11531  18.835   7.831  14.856
40003W        W11532  37.600  11.749   3.607
40004W        W11533  21.512  32.950   4.653
40005W        W11534  20.857  39.046  12.966
40006W        W11535  16.414  18.775   0.773
40007W        W11536  38.699  11.846  11.237
40008W        W11537  44.663  21.718  11.336
40009W        W11538  44.877   5.615   4.249
40010W        W11539  41.846   5.827  11.606
40011W        W11540  34.207  37.080   2.204
40012W        W11541   2.174   5.438   2.352
40013W        W11542   4.690  15.860  14.385
40014W        W11543  44.557  42.309   1.866
40015W        W11544   6.179  25.823  12.033
40016W        W11545  19.033  34.507   1.649
40017W        W11546   0.324  26.243   4.079
40018W        W11547  27.204   9.407   2.702
40019W        W11548  30.976  29.617  10.616
40020W        W11549  24.333  37.434   2.547
40021W        W11550  33.609  17.209  14.922
40022W        W11551   3.419  17.793  12.831
40023W        W11552  13.618  39.040   3.688
40024W        W11553   4.340  15.902   4.568
40025W        W11554  19.995  44.575  12.539
40026W        W11555  40.940  41.970   1.910
40027W        W11556  12.752  23.129  10.824
40028W        W11557  15.214  38.893   3.315
40029W        W11558   5.901  16.362   3.131
40030W        W11559  25.976  25.018   1.999
40031W        W11560   4.738   0.872   9.968
40032W        W11561  35.070  22.806  13.955
40033W        W11562  24.711   1.298  13.117
40034W        W11563   1.865  42.019   4.988
40035W        W11564  32.165  14.337   4.288
40036W        W11565  40.549  25.760  11.645
40037W        W11566  43.806   4.911   1.641
40038W        W11567  26.466  44.868  10.755
40039W        W11568  29.996  18.731   4.065
40040W        W11569  38.425  16.940   1.736
40041W        W11570   5.182  32.970  14.503
40042W        W11571   9.790  13.777  11.991
40043W        W11572  35.324  33.511   3.625
40044W        W11573  39.948  21.021  10.551
40045W        W11574   1.457   9.837   0.888
40046W        W11575  34.548   1.699  11.182
40047W        W11576  13.258  27.400  13.790
40048W        W11577  43.305  23.559  13.586
40049W        W11578  13.234   5.783   0.512
40050W        W11579  41.482  28.197   4.520
40051W        W11580   6.930   8.190  12.494
40052W        W11581   9.958  26.483   3.013
40053W        W11582  40.459   9.410   3.723
40054W        W11583  13.134  35.624  14.776
40055W        W11584  23.442  23.276   0.383
40056W        W11585  44.209   6.697  14.338
40057W        W11586  34.306  14.368  11.527
40058W        W11587  35.555  18.593   1.821
40059W        W11588  25.682  25.498   4.006
40060W        W11589  28.975  31.959   2.710
40061W        W11590  29.691  38.339   3.640
40062W        W11591  30.651  33.560  13.709
40063W        W11592  21.839  19.127   3.621
40064W        W11593  21.004  37.633  11.561
40065W        W11594  43.878  44.542   4.823
40066W        W11595   2.038  38.162   4.302
40067W        W11596  24.150  20.081  11.606
40068W        W11597  16.260  12.541   0.874
40069W        W11598  10.355   6.527   0.402
40070W        W11599  11.838  37.428  14.702
40071W        W11600  37.930  35.871   5.035
40072W        W11601  32.437  35.028   4.478
40073W        W11602  37.051  39.162  10.742
40074W        W11603   3.449  18.693   1.888
40075W        W11604  30.813  30.933  12.417
40076W        W11605   5.562  33.404   4.129
40077W        W11606  15.774   7.735   2.887
40078W        W11607  23.528   5.427  11.138
40079W        W11608  27.930   2.251  12.206
40080W        W11609  13.125  36.604   4.876
40081W        W11610   1.756  20.731   0.313
40082W        W11611  19.245  28.672  14.865
40083W        W11612   7.911  33.422   3.122
40084W        W11613  24.006  21.825  10.896
40085W        W11614  13.078  29.043  12.038
40086W        W11615  20.360  30.204  13.249
40087W        W11616  30.503  42.035  12.786
40088W        W11617  24.511  36.641  10.831
40089W        W11618  26.247  20.254   1.278
40090W        W11619  13.187  26.521   0.280
40091W        W11620  19.358   8.768  14.318
40092W        W11621  37.170   3.830  13.060
40093W        W11622  12.691  12.380  10.633
40094W        W11623  32.345  30.636  13.558
40095W        W11624  43.910  35.569   1.480
40096W        W11625  24.517  10.721   3.317
40097W        W11626  42.009   4.474  13.642
40098W        W11627   2.678  44.471  11.789
40099W        W11628   8.064   9.538   3.176
40100W        W11629   3.672  14.849  12.017
40101W        W11630  22.676  29.725  12.929
40102W        W11631  21.942   9.242  13.663
40103W        W11632  11.310   0.485  11.083
40104W        W11633  32.870  34.103   4.003
40105W        W11634  35.292  21.051   9.937
40106W        W11635  36.378  18.789   1.282
40107W        W11636  27.472  40.389  14.904
40108W        W11637  41.852  26.080   3.339
40109W        W11638   7.932  28.859   2.375
40110W        W11639  44.367  39.536   0.255
40111W        W11640  38.776   7.612  13.441
40112W        W11641  41.576  28.115   0.394
40113W        W11642  39.820  10.815   1.512
40114W        W11643  34.592  22.836  14.321
40115W        W11644  43.745   5.678   2.120
40116W        W11645  39.359  12.658  12.041
40117W        W11646  26.202   5.222   4.130
40118W        W11647  12.929   5.354   0.255
40119W        W11648  16.213   7.882   1.045
40120W        W11649  39.459  18.204   2.622
40121W        W11650  35.244   2.805  12.874
40122W        W11651   2.212  32.121  11.199
40123W        W11652  21.969  26.247   2.674
40124W        W11653  37.997  38.383   0.296
40125W        W11654  19.274  23.515   3.175
40126W        W11655  16.009  41.970  11.094
40127W        W11656  30.551  30.485   1.756
40128W        W11657   0.186  17.626  14.943
40129W        W11658  21.937  19.390   2.735
40130W        W11659  17.357   4.685  14.516
40131W        W11660  35.989  35.591  11.546
40132W        W11661   9.195  26.642  14.986
40133W        W11662   6.263  12.203  12.086
40134W        W11663  38.823  14.900   0.376
40135W        W11664   2.848  32.125   3.713
40136W        W11665  28.719   3.698   0.911
40137W        W11666  30.763  20.176  11.992
40138W        W11667  11.841  25.646  14.053
40139W        W11668  10.851  31.267  11.798
40140W        W11669  21.113  22.185   4.592
40141W        W11670  43.763  23.633  13.328
40142W        W11671  26.479  43.338   1.717
40143W        W11672   9.113  29.042  11.539
40144W        W11673  36.405  44.794  11.716
40145W        W11674  11.856  44.448  11.046
40146W        W11675  21.906   9.494  11.159
40147W        W11676  14.990  42.613  12.102
40148W        W11677  18.088  15.408  13.767
40149W        W11678  20.626  33.492  10.835
40150W        W11679  33.500  34.454   5.091
40151W        W11680  21.651  19.571   4.530
40152W        W11681   8.269  40.313  11.608
40153W        W11682   5.875  37.778   3.187
40154W        W11683  15.654  23.521   3.351
40155W        W11684  36.529  35.573   3.679
40156W        W11685  43.233   3.096   1.006
40157W        W11686  22.253  15.640   3.658
40158W        W11687  13.577  17.667   1.788
40159W        W11688  26.361  16.577   1.271
40160W        W11689   3.055  29.325   3.642
40161W        W11690   7.672   6.406   0.659
40162W        W11691  32.648  21.470  11.072
40163W        W11692  15.061  10.141  14.718
40164W        W11693   0.979  22.942  11.070
40165W        W11694  21.807  24.155   0.934
40166W        W11695  37.305  42.177   5.125
40167W        W11696  28.620  24.081   2.421
40168W        W11697  24.158  12.434  10.540
40169W        W11698  15.746  29.178  13.931
40170W        W11699  29.403  42.823  12.580
40171W        W11700  14.403   2.705  14.042
40172W        W11701  42.610  26.485  10.088
40173W        W11702  13.284  37.575   4.793
40174W        W11703  42.455  27.149  10.841
40175W        W11704  21.132   4.927   3.713
40176W        W11705  41.995  11.414  11.841
40177W        W11706  21.069  12.692  14.284
40178W        W11707  28.478   3.853  12.089
40179W        W11708  26.168  30.067   4.665
40180W        W11709  35.996  25.671   0.425
40181W        W11710  33.849  25.588  14.565
40182W        W11711  30.636  10.116   1.181
40183W        W11712  19.435   4.208  13.070
40184W        W11713  30.558  39.861   9.769
40185W        W11714  14.395  20.000  12.444
40186W        W11715   7.898  21.514  10.882
40187W        W11716  32.603  15.738   0.208
40188W        W11717  16.057  29.902   4.543
40189W        W11718  13.680  32.079   2.486
40190W        W11719  33.785  15.341   0.587
40191W        W11720  40.137  11.563  13.555
40192W        W11721  33.171  32.397   4.603
40193W        W11722   2.333  15.572  11.933
40194W        W11723  37.150   7.640   3.175
40195W        W11724  18.054  31.655  10.394
40196W        W11725  43.482  20.635  12.077
40197W        W11726   3.097  34.987  11.915
40198W        W11727  10.245  15.276   4.918
40199W        W11728  16.598  39.497  12.485
40200W        W11729  19.127  26.705   4.073
40201W        W11730  20.491  42.769   3.664
40202W        W11731   0.967  27.129   0.904
40203W        W11732   7.334  20.110   2.736
40204W        W11733  16.771  40.946  14.316
40205W        W11734  30.795  23.810  13.531
40206W        W11735  20.224   0.466  10.604
40207W        W11736  33.947  41.354   3.650
40208W        W11737  25.088  24.966  13.760
40209W        W11738   1.833  33.089  13.875
40210W        W11739  12.761  37.941  11.688
40211W        W11740  19.623   9.750  14.744
40212W        W11741  27.139  33.694  11.725
40213W        W11742  44.992  40.830  11.899
40214W        W11743  30.020  29.445  13.800
40215W        W11744  12.636  31.525   4.081
40216W        W11745  39.482  25.863   0.383
40217W        W11746  41.514   0.002   1.769
40218W        W11747  26.027  34.983  14.986
40219W        W11748  19.991  23.686  14.869
40220W        W11749  20.095  42.166  12.376
40221W        W11750  10.527  12.409  14.029
40222W        W11751   3.983  43.904  13.606
40223W        W11752   6.329  39.569   4.297
40224W        W11753   8.159  16.774  11.571
40225W        W11754   4.820  43.878  12.044
40226W        W11755   4.832  43.864   4.287
40227W        W11756  39.094  41.143  14.964
40228W        W11757   4.146  32.107  12.917
40229W        W11758  29.880  15.082  11.630
40230W        W11759  28.326  31.994   0.403
40231W        W11760   2.266  13.177   4.927
40232W        W11761  43.988  20.512   1.819
40233W        W11762  23.438  20.519   0.390
40234W        W11763  23.219   7.296  13.613
40235W        W11764  18.065  17.848  13.340
40236W        W11765  25.947  22.152   4.816
40237W        W11766  10.343   6.330  13.864
40238W        W11767  33.736  35.433   4.646
40239W        W11768   0.884   0.963  12.456
40240W        W11769  26.422  17.249  11.073
40241W        W11770  37.002   4.891   3.812
40242W        W11771  29.075  20.887   2.425
40243W        W11772  30.475  19.386  12.241
40244W        W11773  10.288  33.048  12.215
40245W        W11774  21.179   1.135   4.203
40246W        W11775   1.939  22.468   1.309
40247W        W11776   7.386  12.486   4.021
40248W        W11777   7.351  35.012  14.742
40249W        W11778   6.244   3.362   5.151
40250W        W11779  12.335  14.419   4.042
40251W        W11780  42.511  27.634   1.506
40252W        W11781  32.395  20.199  14.432
40253W        W11782  36.645   8.318   2.489
40254W        W11783  27.732  39.311  11.144
40255W        W11784  37.327  26.971  14.377
40256W        W11785  19.128  14.315   4.415
40257W        W11786  11.849   8.864  14.281
40258W        W11787   9.204  44.232  14.339
40259W        W11788   4.358  16.300  13.795
40260W        W11789  30.603  25.421   1.553
40261W        W11790  28.615   7.485   2.173
40262W        W11791  44.854  40.051   2.609
40263W        W11792  19.539  15.869  13.923
40264W        W11793   4.458   9.868   3.666
40265W        W11794  21.884  12.813  13.243
40266W        W11795  18.172  26.205  10.871
40267W        W11796  44.969  10.166   2.488
40268W        W11797  41.471  25.240   0.020
40269W        W11798   9.356  19.701   4.002
40270W        W11799  31.656  12.892   3.158
40271W        W11800   4.212  31.735  11.915
40272W        W11801  29.495  14.504   1.648
40273W        W11802  41.782  15.843   3.136
40274W        W11803  13.124   7.187  11.562
40275W        W11804   5.808  16.055   1.212
40276W        W11805  14.545   0.471   1.145
40277W        W11806  26.951  14.839   0.872
40278W        W11807  25.111  27.987  14.990
40279W        W11808  37.045  35.808  14.034
40280W        W11809   8.508  12.002  12.248
40281W        W11810  35.654  22.476   0.685
40282W        W11811   5.270  37.496  11.408
40283W        W11812  29.579   1.747   4.642
40284W        W11813  10.430  42.902  11.103
40285W        W11814   6.385  29.887  11.184
40286W        W11815  35.506  28.900   3.390
40287W        W11816   4.498  10.201  12.083
40288W        W11817  11.906   8.318   1.697
40289W        W11818  38.567  28.892   3.294
40290W        W11819  41.884  24.356  13.892
40291W        W11820  37.377   2.720   2.249
40292W        W11821  22.377   3.886  12.482
40293W        W11822  22.028   1.736   3.320
40294W        W11823  28.557  10.951  11.240
40295W        W11824  32.003   0.002   3.260
40296W        W11825  42.870  19.993   0.009
40297W        W11826  42.426  32.352  11.816
40298W        W11827   0.757  21.542  13.530
40299W        W11828   4.893   2.606   1.541
40300W        W11829   3.851  38.870  14.076
40301W        W11830   6.323  35.639   0.408
40302W        W11831  40.738  28.640   2.758
40303W        W11832  31.626  29.878   2.916
40304W        W11833  14.130  32.037  12.867
40305W        W11834  42.901  41.026  11.117
40306W        W11835  16.262  29.906   0.930
40307W        W11836  39.989  28.180   2.875
40308W        W11837   7.589  39.738   0.004
40309W        W11838  21.742  28.586  14.471
40310W        W11839  35.412  17.338   0.328
40311W        W11840   6.118  37.933  13.812
40312W        W11841  13.658   9.297  11.113
40313W        W11842  25.579   4.394  13.858
40314W        W11843   9.352  17.711  10.849
40315W        W11844   5.221  27.484   0.741
40316W        W11845  29.543  40.276   1.258
40317W        W11846  40.800   9.886   4.544
40318W        W11847  25.548  44.037  14.404
40319W        W11848  14.514   4.119  13.488
40320W        W11849   3.073  29.031  14.819
40321W        W11850  14.109  14.526   0.364
40322W        W11851   6.648   2.365  12.837
40323W        W11852   8.603  17.079  12.844
40324W        W11853  34.988   8.406  10.995
40325W        W11854  27.290   1.156   1.698
40326W        W11855  10.902  30.153   2.286
40327W        W11856   5.203  20.246   0.490
40328W        W11857  24.232   1.393   2.211
40329W        W11858  42.440  17.086  12.978
40330W        W11859  33.857  19.834   1.399
40331W        W11860   1.474  38.558  11.337
40332W        W11861  14.150  17.563   1.022
40333W        W11862  21.821  38.196  10.126
40334W        W11863  44.917  26.541  12.382
40335W        W11864  31.676  40.813   4.695
40336W        W11865  38.850  19.664   3.104
40337W        W11866  10.175  31.689   4.101
40338W        W11867  40.433   4.940  12.402
40339W        W11868  26.978   7.076  11.051
40340W        W11869  11.649  30.607  14.832
40341W        W11870  11.858  20.997   5.315
40342W        W11871   6.188  10.399   0.302
40343W        W11872  11.094  24.012   3.639
40344W        W11873  22.491  10.112  14.582
40345W        W11874  40.517  24.035   2.756
40346W        W11875   3.358   8.805   3.819
40347W        W11876  29.707  13.187   1.755
40348W        W11877  35.163   7.699  12.476
40349W        W11878  43.869  16.259  14.437
40350W        W11879  16.632  22.251   2.022
40351W        W11880  41.430  21.527   1.763
40352W        W11881  20.779  37.731  14.821
40353W        W11882  12.052  38.946   1.157
40354W        W11883  15.581  41.527  11.681
40355W        W11884  23.213  14.271   0.505
40356W        W11885  19.848   1.417   4.266
40357W        W11886  36.863  35.596  11.924
40358W        W11887   9.748  42.356  10.846
40359W        W11888  42.101  13.723  14.357
40360W        W11889   3.785  26.903   2.254
40361W        W11890  12.870   2.055   3.132
40362W        W11891  16.204   7.597  14.996
40363W        W11892  17.896  35.865  14.083
40364W        W11893  20.299  13.649   0.104
40365W        W11894  14.075  17.776   3.373
40366W        W11895  16.042  40.491   3.246
40367W        W11896  11.151  33.080   3.099
40368W        W11897  24.137  10.897   3.642
40369W        W11898  11.767  14.094   0.499
40370W        W11899   5.246  40.773  12.354
40371W        W11900   1.268  24.678   1.723
40372W        W11901  40.464  33.000  13.458
40373W        W11902   5.170  13.252  11.688
40374W        W11903  17.247  42.308   0.028
40375W        W11904  23.404  14.860   2.784
40376W        W11905   6.780   1.168  11.454
40377W        W11906   0.228  11.316   0.902
40378W        W11907   4.101  29.300   2.287
40379W        W11908  20.280  10.291  11.627
40380W        W11909   4.659  36.477  13.825
40381W        W11910  19.267   8.118  12.076
40382W        W11911   5.592   2.277  14.031
40383W        W11912  16.627  17.091  12.869
40384W        W11913   1.720  26.210   3.179
40385W        W11914  23.451   3.720  11.682
40386W        W11915  16.146  17.372  10.606
40387W        W11916  44.339  41.870  11.160
40388W        W11917  25.940  36.532  10.757
40389W        W11918  40.341  23.639  12.671
40390W        W11919   6.931   5.288  14.418
40391W        W11920   9.429  34.334   3.430
40392W        W11921  41.653  10.617   2.110
40393W        W11922   8.628  36.461  11.104
40394W        W11923   6.380  36.559   1.577
40395W        W11924   0.940   1.872   2.354
40396W        W11925  31.278   4.641  14.804
40397W        W11926  15.486  26.457  14.822
40398W        W11927   2.047  37.591  13.103
40399W        W11928  44.488   3.433  11.990
40400W        W11929  19.681   4.437  12.666
40401W        W11930   0.133   7.400  12.283
40402W        W11931  21.563  40.823  11.400
40403W        W11932  19.194  39.770   1.722
40404W        W11933  25.023  42.810  10.490
40405W        W11934  44.105  31.873  14.935
40406W        W11935  39.468  38.468  12.379
40407W        W11936  35.018   3.363  14.101
40408W        W11937   8.019  27.991  13.342
40409W        W11938   8.143  20.708   3.609
40410W        W11939  41.911   0.421  13.618
40411W        W11940  43.786  37.888   0.725
40412W        W11941  39.548  27.961   2.693
40413W        W11942  35.741  24.455  13.337
40414W        W11943  29.132  30.017  12.512
40415W        W11944  22.265  15.514  13.903
40416W        W11945  31.464   5.551   3.718
40417W        W11946  28.897  27.208   1.353
40418W        W11947   6.143  25.438  13.452
40419W        W11948  41.511  15.600  14.849
40420W        W11949  25.548  30.648   2.380
40421W        W11950  22.497  27.063  14.935
40422W        W11951   1.025  10.269  10.681
40423W        W11952  44.337   7.687  13.498
40424W        W11953  12.080  28.184  11.115
40425W        W11954  18.038   8.589   2.701
40426W        W11955  27.870   7.947  11.757
40427W        W11956   0.858  33.821   1.351
40428W        W11957  14.207   5.146  12.530
40429W        W11958  36.450   6.046   1.063
40430W        W11959  11.314  12.381   3.224
40431W        W11960  36.287  15.096  14.906
40432W        W11961  12.739  19.812   1.266
40433W        W11962  24.556  32.645   0.303
40434W        W11963  41.033  23.635  12.128
40435W        W11964  27.891  36.138  11.496
40436W        W11965  42.067  21.640  14.499
40437W        W11966  14.209  13.802   4.015
40438W        W11967  14.145  30.750  10.393
40439W        W11968  27.412  19.482   2.683
40440W        W11969   8.002  43.241  13.838
40441W        W11970  38.244  16.186   0.709
40442W        W11971   4.713  41.024   2.230
40443W        W11972  44.802  40.531  12.881
40444W        W11973  37.272   3.904   0.859
40445W        W11974  41.324  41.008   4.525
40446W        W11975   7.323   5.806  12.662
40447W        W11976  20.213  29.111   1.639
40448W        W11977   1.327  35.864  11.922
40449W        W11978   9.406   8.138   0.253
40450W        W11979  23.540  17.188  12.070
40451W        W11980  21.766  28.006   1.791
40452W        W11981  24.012  11.213  12.008
40453W        W11982  20.236  36.892   3.248
40454W        W11983  17.671  17.346   1.394
40455W        W11984   7.828  27.173  14.313
40456W        W11985   6.235  41.988  10.805
40457W        W11986  32.004  26.875  13.990
40458W        W11987  26.906   7.785  13.765
40459W        W11988   0.330  31.417  14.009
40460W        W11989  21.084   5.659   1.478
40461W        W11990   2.349   1.764  10.424
40462W        W11991  33.581  35.423   2.824
40463W        W11992  29.066  32.319   4.701
40464W        W11993  31.506  30.019   0.907
40465W        W11994  15.646  11.740  14.427
40466W        W11995  40.355  10.130   2.743
40467W        W11996   7.462  42.885   1.795
40468W        W11997  38.581  24.296   2.033
40469W        W11998  41.832  22.080   0.543
40470W        W11999  37.239  28.410  14.813
40471W        W12000  27.450  27.175   4.592
40472W        W12001  15.856  34.470   0.299
40473W        W12002  11.230  39.150   0.797
40474W        W12003  14.399   7.689   0.394
40475W        W12004   0.346   3.657  12.438
40476W        W12005  20.302  38.255  11.026
40477W        W12006  21.680  30.712  10.434
40478W        W12007  42.658  36.081  14.882
40479W        W12008  30.705  11.178  12.899
40480W        W12009  41.872  27.684   4.265
40481W        W12010   3.578  35.230  12.630
40482W        W12011  38.330  26.688  14.444
40483W        W12012  36.452   7.470  13.352
40484W        W12013  33.023  24.405  12.401
40485W        W12014  22.644  42.685   3.227
40486W        W12015  18.787  13.411  12.083
40487W        W12016   8.192  33.415   0.937
40488W        W12017  20.533  10.909   4.131
40489W        W12018  36.468  19.796   1.313
40490W        W12019  21.308  38.608  13.957
40491W        W12020   4.997  24.951   4.180
40492W        W12021  36.042  36.442   3.564
40493W        W12022  40.260   7.932  11.207
40494W        W12023  34.123  10.626   1.225
40495W        W12024  33.432  43.003   2.843
40496W        W12025  16.625  21.252  10.215
40497W        W12026  40.166   7.409   3.261
40498W        W12027  33.092   2.463   1.280
40499W        W12028  23.752  16.363  10.571
40500W        W12029  24.540  42.089   4.742
40501W        W12030   6.169  36.490  14.811
40502W        W12031  24.666   5.484  14.832
40503W        W12032  23.231   6.328  12.968
40504W        W12033  10.046  22.773   2.838
40505W        W12034   5.452   2.875  12.970
40506W        W12035  42.893  15.876   1.752
40507W        W12036  31.107  20.262   3.253
40508W        W12037  11.143  36.009   0.520
40509W        W12038  28.793  29.414   1.776
40510W        W12039  10.425  16.613   1.420
40511W        W12040  10.589  35.540   4.067
40512W        W12041   4.334  40.521  14.805
40513W        W12042   7.651   3.797  12.078
40514W        W12043  10.820  36.069  11.201
40515W        W12044  44.751   0.094  11.120
40516W        W12045  31.245  27.447   2.838
40517W        W12046  21.269  38.834   1.337
40518W        W12047  22.669  41.949   2.800
40519W        W12048  38.528  11.518  12.366
40520W        W12049  11.063  19.687  11.569
40521W        W12050  39.809  29.599   1.249
40522W        W12051   1.392  13.855  11.960
40523W        W12052  44.082  14.388   1.845
40524W        W12053  15.840   1.038  13.531
40525W        W12054  17.865  21.131   4.151
40526W        W12055  23.378   0.849  11.554
40527W        W12056   5.090  16.710   0.861
40528W        W12057  36.294  21.541  12.498
40529W        W12058   6.706  17.093  12.345
40530W        W12059   1.217  42.518  12.822
40531W        W12060  36.144  37.217  12.696
40532W        W12061   4.793  19.831  10.650
40533W        W12062  35.171  15.014   1.803
40534W        W12063  17.844  28.762  11.091
40535W        W12064  33.444   1.396  11.620
40536W        W12065  44.771  29.794   3.699
40537W        W12066  27.454  25.947   4.034
40538W        W12067  14.272  11.070  13.026
40539W        W12068  18.620  11.725   4.307
40540W        W12069  32.724   2.603   3.799
40541W        W12070  30.859   9.883  11.039
40542W        W12071  19.986  11.650   4.220
40543W        W12072  29.243   2.970  11.334
40544W        W12073  43.394  20.742  11.576
40545W        W12074  15.006  20.071   3.210
40546W        W12075  27.379  22.007  13.832
40547W        W12076  30.818  10.996   5.080
40548W        W12077   9.161  31.998  12.964
40549W        W12078  27.679  44.507  14.879
40550W        W12079  20.728   6.419   4.199
40551W        W12080   8.197  11.902  10.744
40552W        W12081  38.375   8.682  11.891
40553W        W12082   3.070  34.481   0.348
40554W        W12083  20.664  43.948   0.130
40555W        W12084  16.763   3.230  11.305
40556W        W12085   0.457  17.283  11.047
40557W        W12086  18.980  18.184  12.913
40558W        W12087   9.299  22.918   0.390
40559W        W12088   2.959  20.135  14.647
40560W        W12089  20.201  40.597   0.440
40561W        W12090   8.316  13.611   0.860
40562W        W12091  28.487  33.852   1.718
40563W        W12092  36.585   7.220   4.488
40564W        W12093   4.981  17.970   1.380
40565W        W12094   9.947  24.061  10.439
40566W        W12095   6.408   2.547   0.189
40567W        W12096  33.490  12.392  14.847
40568W        W12097  33.496  12.840  12.020
40569W        W12098  38.452  15.979  10.751
40570W        W12099  21.151  27.515   2.165
40571W        W12100  27.838  10.286   0.770
40572W        W12101  17.683  20.044  10.411
40573W        W12102  29.724  25.756   4.191
40574W        W12103  27.633   7.632  10.525
40575W        W12104  19.160  11.186  11.632
40576W        W12105  17.061   9.839   0.316
40577W        W12106  17.199  37.544  13.727
40578W        W12107   5.815  18.615  12.477
40579W        W12108  37.013   2.262  14.363
40580W        W12109  33.247  37.795   0.079
40581W        W12110  31.607  40.093  13.041
40582W        W12111  40.543  27.895   0.893
40583W        W12112   0.770  24.483  12.046
40584W        W12113  29.536  43.551   3.701
40585W        W12114  28.933   8.899  12.841
40586W        W12115  35.867  12.761  10.854
40587W        W12116   9.835  39.479  14.339
40588W        W12117  20.188   8.932   3.294
40589W        W12118  32.934  26.968   0.649
40590W        W12119  20.078  15.517  11.983
40591W        W12120  12.420   0.284  13.744
40592W        W12121  36.646  20.410  11.511
40593W        W12122  14.708  17.681  14.922
40594W        W12123  29.157  36.089  11.127
40595W        W12124  18.757  37.339   0.456
40596W        W12125   9.881  10.611   0.440
40597W        W12126  43.324  37.296  14.773
40598W        W12127  41.424  26.989  10.495
40599W        W12128  14.248  38.938   2.365
40600W        W12129   0.862  27.916   3.662
40601W        W12130  19.185  35.319   2.385
40602W        W12131  19.151  24.546   4.669
40603W        W12132  20.515  33.159   4.232
40604W        W12133  26.515   0.046   1.434
40605W        W12134   4.783   5.913   3.135
40606W        W12135  44.702  28.887  14.770
40607W        W12136   9.984  10.176   0.747
40608W        W12137  40.631  39.545  11.524
40609W        W12138  11.517   4.810   2.465
40610W        W12139   0.482  17.002  11.517
40611W        W12140  37.501   8.401   0.341
40612W        W12141   7.474  27.483  12.442
40613W        W12142  25.043  25.482   1.987
40614W        W12143  35.736   5.377  13.831
40615W        W12144  17.524  44.364   0.769
40616W        W12145  17.023  37.924   3.213
40617W        W12146  10.663   9.573  14.066
40618W        W12147  38.313  25.307   3.595
40619W        W12148  34.915  38.274   0.984
40620W        W12149  23.681   9.105   4.464
40621W        W12150  19.163  21.099   4.553
40622W        W12151   2.834  17.532   2.996
40623W        W12152  30.353  20.167  14.657
40624W        W12153  29.656  44.816  12.161
40625W        W12154   0.448   0.902  11.083
40626W        W12155  12.979  20.582   4.822
40627W        W12156   0.032  44.082  12.758
40628W        W12157  40.782  14.354   3.603
40629W        W12158  28.082  26.434  11.119
40630W        W12159   0.320  41.868  10.977
40631W        W12160  12.723   8.195  13.341
40632W        W12161  30.032  26.602  11.109
40633W        W12162  26.641   7.831   1.237
40634W        W12163  41.042  18.959  14.475
40635W        W12164  10.726  18.792  13.306
40636W        W12165   9.748   0.750   3.057
40637W        W12166  13.216  12.529  14.988
40638W        W12167  30.188  33.596  13.938
40639W        W12168  38.616  25.485  13.036
40640W        W12169  31.512  38.153  14.958
40641W        W12170  36.652  36.948  14.760
40642W        W12171  24.725  20.074   0.693
40643W        W12172  29.004  14.701  11.180
40644W        W12173   8.931  44.653   3.698
40645W        W12174   4.278  12.106   0.896
40646W        W12175  31.807  42.916   1.098
40647W        W12176  10.488  19.725  10.777
40648W        W12177  12.193  42.445   4.123
40649W        W12178  11.577  18.764   4.709
40650W        W12179  43.401  43.658   3.663
40651W        W12180  13.828   5.488  12.484
40652W        W12181  32.239  43.393  12.911
40653W        W12182   6.007  29.110   4.069
40654W        W12183  32.119   3.313   0.908
40655W        W12184  32.130   5.631   1.711
40656W        W12185  44.813  20.783   2.801
40657W        W12186  33.147  12.590   3.997
40658W        W12187  36.918  38.081   4.511
40659W        W12188   9.634  28.993  11.547
40660W        W12189  26.134  37.098   2.735
40661W        W12190  30.860   8.588  14.315
40662W        W12191  19.703   5.742   0.289
40663W        W12192  38.696  39.013   1.231
40664W        W12193  12.379  24.758  13.064
40665W        W12194  36.084   6.933   3.787
40666W        W12195  12.221  33.997  11.146
40667W        W12196  14.543  14.261  11.030
40668W        W12197  29.030  35.099   5.040
40669W        W12198  42.009  25.863  13.937
40670W        W12199  11.387  43.451  10.374
40671W        W12200  24.631  21.962   4.140
40672W        W12201  14.316  22.330   0.184
40673W        W12202  33.522  30.715  12.569
40674W        W12203   7.416  10.361  13.480
40675W        W12204  11.142  41.023  11.929
40676W        W12205  43.014  43.312   2.779
40677W        W12206  21.963  28.143  11.060
40678W        W12207  13.086  43.915  12.337
40679W        W12208  32.592  21.817   4.267
40680W        W12209   9.250   2.101  14.761
40681W        W12210   0.491  15.281   3.112
40682W        W12211  34.285  19.541   2.252
40683W        W12212  26.970   9.715  11.673
40684W        W12213  34.422   2.898   0.334
40685W        W12214  14.865  28.169   2.151
40686W        W12215  33.201  35.997  11.071
40687W        W12216  31.404   0.081   2.554
40688W        W12217  40.348  35.726   2.861
40689W        W12218  24.528  36.201  10.559
40690W        W12219   9.894  39.606   4.189
40691W        W12220   7.407  20.570  10.916
40692W        W12221  17.594  44.229  13.825
40693W        W12222  19.545  42.810   1.279
40694W        W12223  20.522  17.298   1.631
40695W        W12224  41.611  29.413   2.367
40696W        W12225  22.542  11.937  12.448
40697W        W12226  19.286  25.966  12.428
40698W        W12227   5.986  11.813  14.763
40699W        W12228  30.318  41.349  12.166
40700W        W12229  31.409   6.327   1.923
40701W        W12230   2.707   6.313  12.468
40702W        W12231   2.836   2.237  12.393
40703W        W12232  13.815  18.798  12.166
40704W        W12233   6.250  19.645  11.110
40705W        W12234  10.959  35.391  12.401
40706W        W12235  22.317  19.513  10.949
40707W        W12236  42.701  27.659  13.451
40708W        W12237  41.683  31.847   9.727
40709W        W12238  35.885  19.931  14.419
40710W        W12239   1.030  40.389  12.444
40711W        W12240  41.201  19.795  13.128
40712W        W12241  24.187  40.444   1.485
40713W        W12242  36.806  10.637   3.859
40714W        W12243   6.777  28.815  10.350
40715W        W12244  12.022  24.525   1.379
40716W        W12245  34.646  20.590  12.107
40717W        W12246  29.063  19.141   2.392
40718W        W12247   5.614   5.910  11.157
40719W        W12248  37.349  18.035  12.496
40720W        W12249  43.808  26.313  10.628
40721W        W12250   9.361  36.372  14.950
40722W        W12251  15.660  17.316  11.313
40723W        W12252  32.375  18.576   0.384
40724W        W12253  36.124   2.905   4.980
40725W        W12254  20.501   6.430   2.314
40726W        W12255  37.232  44.906   3.207
40727W        W12256  29.149  41.514  13.547
40728W        W12257  10.643  21.253   0.954
40729W        W12258  24.012  19.013   1.798
40730W        W12259  32.841  12.719   1.925
40731W        W12260  15.400  42.959   3.749
40732W        W12261  13.780  33.848   0.394
40733W        W12262  37.983   2.636  10.830
40734W        W12263  19.580  40.382   2.657
40735W        W12264  21.047  11.216  14.903
40736W        W12265  16.079  37.626  12.031
40737W        W12266  26.596  25.291   4.925
40738W        W12267  12.217  23.104  10.672
40739W        W12268  21.838  13.489  11.103
40740W        W12269  11.329   4.251  11.641
40741W        W12270   5.324  32.096  14.414
40742W        W12271   6.778  41.080   0.435
40743W        W12272  21.961  35.787  14.954
40744W        W12273   2.131   1.283  14.321
40745W        W12274  17.857  24.951   4.106
40746W        W12275  43.401  31.210  13.862
40747W        W12276   3.441   3.729  11.620
40748W        W12277   5.139  25.772  12.473
40749W        W12278  21.670  22.794  12.904
40750W        W12279  13.605  28.168  11.473
40751W        W12280  29.452  25.045   3.652
40752W        W12281  20.119  15.195   0.040
40753W        W12282  19.503  25.128   4.696
40754W        W12283  21.256  35.440   4.099
40755W        W12284   8.817  42.000  11.211
40756W        W12285  19.135   3.388  11.625
40757W        W12286  38.391  10.355  13.549
40758W        W12287  26.747  41.269   3.166
40759W        W12288  30.204  36.641  12.509
40760W        W12289   9.604  30.535  10.614
40761W        W12290  31.132   7.477  12.438
40762W        W12291  26.524   7.677   1.756
40763W        W12292   5.320  36.404   1.868
40764W        W12293   5.689   8.406  11.968
40765W        W12294   5.908  38.288   3.249
40766W        W12295  34.651  43.061   2.329
40767W        W12296  23.421  41.985   1.045
40768W        W12297   9.745  33.389  14.339
40769W        W12298   5.571   5.076  12.465
40770W        W12299  38.430  38.786  11.638
40771W        W12300   0.876  33.484   0.385
40772W        W12301  29.087  27.452   4.248
40773W        W12302  36.343   5.559  12.041
40774W        W12303  37.590  41.979  12.809
40775W        W12304  17.538  16.651  11.665
40776W        W12305  33.934   0.010  13.952
40777W        W12306  42.760  33.562  13.586
40778W        W12307  13.817   5.333  15.000
40779W        W12308  22.407   5.729  10.692
40780W        W12309  25.131   7.716   4.657
40781W        W12310  41.144  25.101   3.223
40782W        W12311  24.046  20.232   2.349
40783W        W12312  19.965  19.125   3.563
40784W        W12313  42.711  23.962   4.492
40785W        W12314  15.679  44.380   1.452
40786W        W12315  44.793  40.018  12.738
40787W        W12316  35.365  10.295  10.654
40788W        W12317  34.824  25.957   4.072
40789W        W12318  38.459  30.658   2.407
40790W        W12319  19.110  23.649  13.321
40791W        W12320  37.536  16.526   1.425
40792W        W12321  22.229  42.914   3.646
40793W        W12322  10.078  22.249   0.390
40794W        W12323  17.269  24.505  13.262
40795W        W12324  24.173   9.998  14.230
40796W        W12325   9.526  29.507  11.586
40797W        W12326  42.960  42.800   4.020
40798W        W12327   5.773  34.185   3.643
40799W        W12328  44.795  18.244  11.473
40800W        W12329  43.787   7.729  11.943
40801W        W12330  13.205  22.713  11.190
40802W        W12331  27.001  21.004   2.497
40803W        W12332  38.677  40.130   5.051
40804W        W12333  42.800  14.757   4.144
40805W        W12334  24.578  23.170  14.329
40806W        W12335  33.977  18.706  13.907
40807W        W12336   4.376  15.089   0.990
40808W        W12337  30.011  27.652  13.592
40809W        W12338   1.001   4.935  11.163
40810W        W12339  15.498   7.017   1.915
40811W        W12340  42.384  18.705  13.884
40812W        W12341  11.782   5.861  14.697
40813W        W12342  33.641  16.579   3.086
40814W        W12343  34.462  11.579  13.328
40815W        W12344  20.775   1.472   1.165
40816W        W12345   7.455   2.343   4.084
40817W        W12346  37.400  38.382   3.267
40818W        W12347  23.535   8.111  10.703
40819W        W12348   2.228  10.736  14.031
40820W        W12349  33.492  17.370   1.491
40821W        W12350   1.132  14.058   4.214
40822W        W12351  13.687  23.898  11.583
40823W        W12352  26.190   8.937   4.100
40824W        W12353  36.924   8.135   1.052
40825W        W12354  25.339  26.165   1.809
40826W        W12355   4.113  29.111  12.730
40827W        W12356  34.018  30.887   0.899
40828W        W12357  41.016  18.718   0.809
40829W        W12358  43.941  18.631  13.001
40830W        W12359  29.985  18.059  13.423
40831W        W12360  10.553  44.237   4.034
40832W        W12361  12.427   7.812   4.139
40833W        W12362  12.570  24.644   4.138
40834W        W12363  16.581   1.911   4.186
40835W        W12364  16.523  31.636   1.216
40836W        W12365  11.621  25.188   0.511
40837W        W12366  41.028  16.681  14.323
40838W        W12367   3.939  31.946   0.463
40839W        W12368   5.155  19.804   5.060
40840W        W12369  13.844  32.128   3.787
40841W        W12370  34.681   0.448   0.674
40842W        W12371  27.102   1.931   4.053
40843W        W12372  22.268  33.574   3.155
40844W        W12373  13.240   8.286   0.126
40845W        W12374  12.467  38.350   1.857
40846W        W12375  24.585  13.165  10.647
40847W        W12376  17.210  26.739  13.607
40848W        W12377   8.485  23.973  10.737
40849W        W12378  33.655  10.428   5.156
40850W        W12379  20.991   9.351  11.093
40851W        W12380   7.338  21.313   2.185
40852W        W12381  13.997   9.477  12.271
40853W        W12382   2.895  13.284   0.962
40854W        W12383  33.674  26.195   0.908
40855W        W12384  37.423   2.012   1.791
40856W        W12385  20.091  29.736  13.391
40857W        W12386  14.149  38.205   1.250
40858W        W12387  38.756   5.717  13.244
40859W        W12388   8.412  20.617  11.131
40860W        W12389  29.466   6.393   0.852
40861W        W12390  25.166  43.763  13.502
40862W        W12391  33.358   4.325  12.861
40863W        W12392  28.701  38.543  13.865
40864W        W12393  17.763  20.556   0.779
40865W        W12394  11.608  32.420   0.344
40866W        W12395  35.871  38.903   1.501
40867W        W12396  38.144   6.627  11.572
40868W        W12397   9.822  28.182  13.629
40869W        W12398  42.441  37.895   4.228
40870W        W12399  16.297   2.175   3.200
40871W        W12400  26.904  18.245  11.809
40872W        W12401   0.395  44.764   4.110
40873W        W12402  12.154  28.560   0.816
40874W        W12403  17.367  15.589  12.010
40875W        W12404  24.021  41.850  10.856
40876W        W12405  23.075  29.093   0.440
40877W        W12406  31.524  12.351   3.101
40878W        W12407  29.970  30.885  12.078
40879W        W12408   3.572   0.425   2.280
40880W        W12409  11.171  43.129  13.296
40881W        W12410  38.159  10.560  12.313
40882W        W12411   8.824  14.871  12.155
40883W        W12412  25.051  18.041   4.243
40884W        W12413  34.293  34.844   2.932
40885W        W12414  11.956   7.398   5.034
40886W        W12415  35.825  11.753  14.850
40887W        W12416  14.794   9.143   1.837
40888W        W12417   0.074  10.189  11.661
40889W        W12418   9.995   1.341  10.436
40890W        W12419  18.842  14.639   0.372
40891W        W12420  15.822   9.221  11.705
40892W        W12421  21.914  24.177   1.466
40893W        W12422  44.809  10.604  11.476
40894W        W12423  14.213  34.754   4.182
40895W        W12424  40.460  21.939   1.930
40896W        W12425  19.147   1.047   3.163
40897W        W12426  34.483  36.132  11.673
40898W        W12427  15.760  18.609  10.237
40899W        W12428  41.257  33.031   4.581
40900W        W12429  19.480  14.670  10.943
40901W        W12430  32.599  35.077  13.928
40902W        W12431  31.450  35.039   1.121
40903W        W12432  27.020  16.123   4.373
40904W        W12433   6.324  25.726  10.659
40905W        W12434  36.970  31.648   3.760
40906W        W12435  32.102  43.310   0.810
40907W        W12436  42.704   4.666  14.288
40908W        W12437  35.818  11.250  14.087
40909W        W12438  40.555  19.031  12.893
40910W        W12439  32.699  13.535   5.013
40911W        W12440   6.466  17.332  11.575
40912W        W12441  40.453  44.365   5.131
40913W        W12442  39.940   2.334  13.051
40914W        W12443  34.436  28.860  12.439
40915W        W12444  32.382  27.827  12.398
40916W        W12445  22.961   4.129   2.345
40917W        W12446  29.741  19.216   2.116
40918W        W12447   0.517  27.682   4.152
40919W        W12448   6.037  28.393   3.834
40920W        W12449  27.016  27.723  13.534
40921W        W12450  23.001  31.680  13.651
40922W        W12451  29.085  29.000   2.921
40923W        W12452  22.984  28.260  10.280
40924W        W12453  39.850  13.248   4.656
40925W        W12454  35.381  24.197   1.983
40926W        W12455  35.907  22.487  10.750
40927W        W12456  17.969   9.561  14.833
40928W        W12457  28.949   3.547  14.284
40929W        W12458   9.441   5.734   3.121
40930W        W12459  33.455  41.278  10.643
40931W        W12460   3.307   7.929  12.825
40932W        W12461  29.389  28.638   1.690
40933W        W12462   2.696  43.552  11.680
40934W        W12463  30.520  28.968  14.555
40935W        W12464  28.015  31.682  12.437
40936W        W12465  32.428  23.693   2.255
40937W        W12466  16.234   8.616  14.990
40938W        W12467  35.026  29.141   3.196
40939W        W12468   6.548  33.074   1.898
40940W        W12469   0.363  25.134   0.165
40941W        W12470  36.568  38.577   2.105
40942W        W12471  36.779  38.978  12.285
40943W        W12472  13.933  13.026   0.131
40944W        W12473  23.136  34.901   1.961
40945W        W12474  25.269  17.697  14.849
40946W        W12475  24.037   1.751  10.528
40947W        W12476   9.166  41.610  12.594
40948W        W12477  24.937  21.059  10.424
40949W        W12478  41.767  23.645  11.198
40950W        W12479   5.202  44.789  12.868
40951W        W12480  42.276  16.763  12.089
40952W        W12481  34.509   5.628  13.471
40953W        W12482  30.237  18.996   3.210
40954W        W12483  39.505  25.338  14.939
40955W        W12484  37.577  44.536  11.930
40956W        W12485  38.626  23.624   3.640
40957W        W12486   3.959  17.750  10.645
40958W        W12487  35.196   5.408  11.236
40959W        W12488  29.354  11.687  14.026
40960W        W12489  31.084  25.742  14.798
40961W        W12490  27.785  12.074  14.371
40962W        W12491  41.901   0.378   2.460
40963W        W12492   1.996   8.827   3.630
40964W        W12493  15.102   7.556  11.862
40965W        W12494  21.545  34.454   2.202
40966W        W12495  42.467   8.102   0.312
40967W        W12496  43.286  32.502  13.436
40968W        W12497  41.517   7.223   4.414
40969W        W12498  27.113  33.969   2.756
40970W        W12499   1.706   4.356   3.593
40971W        W12500  32.082   0.729   1.302
40972W        W12501  28.762  40.491  11.516
40973W        W12502  12.187  16.653  14.791
40974W        W12503  37.407  20.029   1.885
40975W        W12504  31.956  41.503  13.327
40976W        W12505   5.649  43.903  11.582
40977W        W12506  24.003  38.245  12.932
40978W        W12507  16.624   5.672  13.760
40979W        W12508  37.082  15.222   4.049
40980W        W12509  43.736  33.992   9.715
40981W        W12510  39.832  26.185  10.674
40982W        W12511  18.100  29.317  12.093
40983W        W12512   0.736  32.807  13.076
40984W        W12513  32.560  17.323  14.965
40985W        W12514  32.362   9.248  14.869
40986W        W12515  19.306  28.913   1.176
40987W        W12516  10.920  21.222  14.964
40988W        W12517   1.550  35.754   4.090
40989W        W12518  30.905  42.556  13.700
40990W        W12519   8.745  41.566   0.442
40991W        W12520  41.292   1.459  14.326
40992W        W12521  32.580   8.975  13.016
40993W        W12522  38.382  21.211  14.109
40994W        W12523  31.831  18.624  11.701
40995W        W12524  43.211   8.970   4.082
40996W        W12525  12.020  33.056   3.291
40997W        W12526  44.607   2.085  10.985
40998W        W12527  26.498  42.099   0.346
40999W        W12528  28.462  44.846   0.453
41000W        W12529   5.213  41.517   0.485
41001W        W12530  28.536  22.469   4.876
41002W        W12531   4.636  32.788  10.579
41003W        W12532  40.012  27.016   0.817
41004W        W12533   3.777  39.944  11.987
41005W        W12534  20.936  28.082   1.552
41006W        W12535   9.537  17.664  13.534
41007W        W12536  18.150  30.584   1.448
41008W        W12537  41.270   9.301   0.975
41009W        W12538  25.518  20.130  11.964
41010W        W12539  36.295  25.226   2.337
41011W        W12540  21.322  42.030   0.418
41012W        W12541  40.845  27.516   0.681
41013W        W12542  21.993  26.182  13.138
41014W        W12543  31.943  44.896   2.730
41015W        W12544  10.089  36.250  12.036
41016W        W12545   0.224  13.383   1.875
41017W        W12546  35.844  16.656  13.526
41018W        W12547  26.906  14.006   3.265
41019W        W12548  15.661   6.059   2.836
41020W        W12549  44.105  42.532   2.890
41021W        W12550  25.475   6.493  14.990
41022W        W12551  41.957  20.604   4.599
41023W        W12552  33.116  20.085   1.879
41024W        W12553   9.871  16.751   2.396
41025W        W12554   8.947  41.433  14.936
41026W        W12555  14.262  11.946   2.027
41027W        W12556  21.732  26.629  14.281
41028W        W12557  16.205  17.777   2.807
41029W        W12558  41.666  40.844   4.130
41030W        W12559  35.754   8.886  12.180
41031W        W12560  18.649  15.751   2.797
41032W        W12561  20.307  11.766  13.857
41033W        W12562  10.386  11.210  10.485
41034W        W12563  44.379  31.289  11.266
41035W        W12564  20.844  35.088   3.576
41036W        W12565  16.064  19.486   1.182
41037W        W12566   5.292  33.311  13.206
41038W        W12567  18.306  36.521  12.322
41039W        W12568  44.176   1.069  14.483
41040W        W12569  11.796  35.332  11.559
41041W        W12570   5.979  27.929   1.664
41042W        W12571  31.521  35.245  11.346
41043W        W12572  34.482  40.551  13.679
41044W        W12573   7.628  23.605   3.226
41045W        W12574  30.517   4.685  12.045
41046W        W12575  27.187  26.277   0.734
41047W        W12576  24.581  11.285   4.659
41048W        W12577  43.475   4.267  14.054
41049W        W12578  26.663  22.810   0.584
41050W        W12579  14.720  32.600   3.884
41051W        W12580  32.842   6.923  10.771
41052W        W12581  28.802  35.962  13.398
41053W        W12582  16.236   7.805   0.511
41054W        W12583  42.360  18.138   1.886
41055W        W12584  22.426  30.346   2.848
41056W        W12585   4.954  17.250   3.508
41057W        W12586  32.192  20.222  14.932
41058W        W12587  18.294  29.645   0.259
41059W        W12588  39.015  11.236  11.500
41060W        W12589   0.204  18.569  14.939
41061W        W12590  37.301   4.806  10.126
41062W        W12591  17.113  23.035   0.308
41063W        W12592  31.147  31.396   0.387
41064W        W12593  29.468  29.672  11.551
41065W        W12594   3.257  34.730   3.764
41066W        W12595   3.384  20.518  11.561
41067W        W12596  34.491  18.167   1.167
41068W        W12597  37.845  40.956  11.865
41069W        W12598  11.423   3.781   2.706
41070W        W12599   3.197  22.380  12.324
41071W        W12600  38.915   2.996  11.586
41072W        W12601  36.511   7.927  13.066
41073W        W12602  12.679   0.405   0.762
41074W        W12603  23.443  10.303  14.335
41075W        W12604  30.342   8.788  14.293
41076W        W12605  18.727  28.481   1.888
41077W        W12606  20.658   0.643  12.920
41078W        W12607  20.239  17.177   1.070
41079W        W12608  27.241   3.929  11.475
41080W        W12609   7.381  11.129   2.684
41081W        W12610   0.436  43.034   2.718
41082W        W12611  37.418   9.857  14.556
41083W        W12612  29.996  29.089  12.852
41084W        W12613  18.258  18.169   1.686
41085W        W12614  35.887  34.563   2.169
41086W        W12615  40.445   5.712  12.046
41087W        W12616  34.011  40.343  13.779
41088W        W12617   9.861  36.151  14.955
41089W        W12618  20.458  35.630  12.894
41090W        W12619   8.611  29.287  13.418
41091W        W12620  36.890   5.187   1.396
41092W        W12621   4.716  23.567  14.586
41093W        W12622  27.670  16.742  13.668
41094W        W12623  28.184   5.428   0.413
41095W        W12624  20.548   7.867  12.881
41096W        W12625  19.247  43.969   4.150
41097W        W12626  42.535  17.307   4.414
41098W        W12627  24.753  36.338   5.060
41099W        W12628  41.360  30.202  11.879
41100W        W12629  42.899  39.995   4.736
41101W        W12630  15.751  25.116  10.804
41102W        W12631   0.225  26.442   0.546
41103W        W12632  32.449   5.807  11.676
41104W        W12633  33.656  34.493   4.126
41105W        W12634  17.560  34.287   3.191
41106W        W12635   9.165   2.781  10.671
41107W        W12636  27.786  26.484  10.674
41108W        W12637  19.062  12.765   2.287
41109W        W12638  31.508  32.974   1.489
41110W        W12639  24.031  40.477  11.219
41111W        W12640  28.065  16.227   1.917
41112W        W12641  30.972  22.445  14.991
41113W        W12642  44.516  30.472   3.610
41114W        W12643  36.326   3.780   1.044
41115W        W12644  22.617   6.920  12.535
41116W        W12645  41.472  30.063  11.045
41117W        W12646  43.724  15.068   4.608
41118W        W12647  26.370  39.509  12.145
41119W        W12648   7.720  12.857   2.208
41120W        W12649  23.225  12.836  14.031
41121W        W12650  23.511  22.563  11.078
41122W        W12651   3.803   8.708   4.049
41123W        W12652   4.696  13.204  14.197
41124W        W12653  22.156  37.588  13.461
41125W        W12654  29.957  18.381  12.125
41126W        W12655  11.647   7.849   0.265
41127W        W12656   5.040  31.400  10.810
41128W        W12657  10.455   6.305  12.420
41129W        W12658   1.981  27.105  13.249
41130W        W12659  37.444  34.634  12.537
41131W        W12660  18.994   6.729   1.404
41132W        W12661  12.161  25.066  14.786
41133W        W12662  16.730   1.677   4.624
41134W        W12663   9.365  21.311   4.818
41135W        W12664   2.802   2.898   4.117
41136W        W12665  10.226   2.337   4.866
41137W        W12666   7.325  35.606  11.846
41138W        W12667   0.079  25.063  11.009
41139W        W12668   8.842  19.530   4.674
41140W        W12669  21.588  17.565  11.258
41141W        W12670  19.697  11.480   0.354
41142W        W12671  20.658  44.745   1.277
41143W        W12672  29.004   2.524  11.129
41144W        W12673   6.054  27.495   1.947
41145W        W12674  23.999  38.294  10.637
41146W        W12675  37.379  10.710  11.337
41147W        W12676   8.906  21.461   5.024
41148W        W12677  24.255  17.153   2.112
41149W        W12678   3.927  23.587  12.041
41150W        W12679   8.616  19.862   3.356
41151W        W12680   6.779  29.548   1.852
41152W        W12681  20.883  27.489  12.415
41153W        W12682   3.862  38.959  14.666
41154W        W12683   4.728  11.288   2.765
41155W        W12684  28.441   7.277   4.414
41156W        W12685  23.940  10.152   1.218
41157W        W12686  41.399  12.245   4.685
41158W        W12687  41.250  41.150   4.053
41159W        W12688   1.735  28.593   0.917
41160W        W12689   3.590  21.553   2.900
41161W        W12690  15.285  28.190   1.344
41162W        W12691  42.596  12.554   1.949
41163W        W12692  19.686  20.145  12.820
41164W        W12693  34.516  18.131   3.279
41165W        W12694   6.374  22.014   3.160
41166W        W12695  19.790  38.273  11.193
41167W        W12696  19.122  10.266  10.727
41168W        W12697  32.552  39.495  12.432
41169W        W12698   3.858  42.758   0.905
41170W        W12699  27.125  28.473  14.369
41171W        W12700  13.185  27.021   4.934
41172W        W12701  36.450  33.589   4.762
41173W        W12702  30.153  25.041   3.068
41174W        W12703  11.863   6.142   2.716
41175W        W12704  24.984   2.526   0.856
41176W        W12705  43.209   8.930  11.309
41177W        W12706  37.900  27.885   2.890
41178W        W12707  35.354  20.306   0.842
41179W        W12708  21.074  11.679   2.323
41180W        W12709  33.599  18.614  12.892
41181W        W12710  16.847  44.407  11.981
41182W        W12711   6.986   0.247   0.953
41183W        W12712   2.370  42.710  11.839
41184W        W12713  19.021  41.979   0.540
41185W        W12714  37.921   8.383   2.779
41186W        W12715   1.428   0.445   2.136
41187W        W12716   7.106  20.066  13.872
41188W        W12717  36.817  28.758   4.308
41189W        W12718   3.767  14.151  13.429
41190W        W12719   3.244   1.459  12.551
41191W        W12720  33.118  19.030   0.280
41192W        W12721  41.031  39.864  11.611
41193W        W12722  44.970  44.384   1.275
41194W        W12723  28.580  10.435  11.176
41195W        W12724  18.983  14.627   3.659
41196W        W12725  25.319  41.989   1.535
41197W        W12726  35.242  26.266   2.795
41198W        W12727   1.236  28.165   2.384
41199W        W12728  40.521  23.028  11.124
41200W        W12729  22.530   4.420  13.590
41201W        W12730  44.444  20.621  11.964
41202W        W12731  42.709  21.061  12.373
41203W        W12732  10.060  44.958  11.112
41204W        W12733  38.537  39.047  10.786
41205W        W12734  26.260  10.391  13.892
41206W        W12735  22.138  30.675  13.653
41207W        W12736   3.885  23.646  11.499
41208W        W12737  29.433  32.807  13.833
41209W        W12738  42.015  18.513   1.704
41210W        W12739   1.914  14.027  12.465
41211W        W12740  26.698  42.598  11.159
41212W        W12741   9.218   2.025  13.011
41213W        W12742   3.051  20.741  12.115
41214W        W12743  34.263  36.119   3.522
41215W        W12744  38.831  11.171  13.764
41216W        W12745   6.491   9.877   3.062
41217W        W12746  43.624  32.131  11.618
41218W        W12747  16.873  43.798  11.150
41219W        W12748  15.169   1.687   4.140
41220W        W12749  29.402   5.286   0.773
41221W        W12750   3.634   0.353   1.749
41222W        W12751   3.405  11.783  11.991
41223W        W12752  20.117  39.355   2.783
41224W        W12753  35.716  17.580   1.742
41225W        W12754  19.494  14.212   2.252
41226W        W12755   7.115  24.666  10.538
41227W        W12756  36.131  39.692  12.305
41228W        W12757  21.630  31.066  12.004
41229W        W12758  44.232  26.018  13.935
41230W        W12759  18.529  21.662  11.749
41231W        W12760  17.867  13.566   1.781
41232W        W12761  34.945  42.044  12.859
41233W        W12762  12.745  18.090  14.099
41234W        W12763  10.124  43.365  13.582
41235W        W12764  26.808  25.261   1.862
41236W        W12765  18.133  18.267   0.196
41237W        W12766  15.441  11.031   4.929
41238W        W12767  24.155   0.225   0.944
41239W        W12768  15.951  27.506   1.241
41240W        W12769  42.632  40.954   4.428
41241W        W12770  44.257  30.455   4.051
41242W        W12771  33.021   3.784   1.265
41243W        W12772  44.660  40.844   0.913
41244W        W12773  27.707  12.843   3.166
41245W        W12774  33.871  30.473  13.554
41246W        W12775  22.046  23.243   1.311
41247W        W12776  21.493  18.809   2.246
41248W        W12777  28.614  17.624   0.264
41249W        W12778  29.529  37.561   0.533
41250W        W12779  25.540  16.448  12.562
41251W        W12780   3.243   0.821   2.119
41252W        W12781  35.037  29.125  14.576
41253W        W12782  34.599  41.397   1.777
41254W        W12783  20.043  11.815   3.168
41255W        W12784  20.029  21.376  10.897
41256W        W12785  17.790   7.523  12.522
41257W        W12786  23.233  21.443  13.882
41258W        W12787   6.822  31.045  14.856
41259W        W12788  28.569   8.644   1.459
41260W        W12789  31.167  19.575   1.376
41261W        W12790   4.439   2.158  12.107
41262W        W12791  18.550   3.302  13.607
41263W        W12792  19.767  10.161  14.352
41264W        W12793  38.448  27.084   1.909
41265W        W12794  36.470  29.728   3.158
41266W        W12795  34.434  23.081  13.332
41267W        W12796  34.619  32.138   3.287
41268W        W12797   5.873  17.520   4.307
41269W        W12798   8.909   1.330   2.709
41270W        W12799  34.486  13.713  11.014
41271W        W12800  44.242  14.236   4.532
41272W        W12801  26.623  36.973  11.604
41273W        W12802   7.382   4.247   1.637
41274W        W12803  23.218   3.624  14.017
41275W        W12804  23.181  22.467   0.934
41276W        W12805  42.775   0.733   3.273
41277W        W12806  35.995  43.793  13.972
41278W        W12807  20.078  35.186   0.519
41279W        W12808  12.762  15.311   2.763
41280W        W12809  21.501  16.261  11.543
41281W        W12810  19.477  38.887  13.455
41282W        W12811  26.065  36.060  14.114
41283W        W12812  44.577   3.705  11.572
41284W        W12813  13.074  39.912   1.367
41285W        W12814   4.932   6.341  13.482
41286W        W12815  13.376  43.523  12.525
41287W        W12816  38.470   6.919   0.386
41288W        W12817  17.121   8.054   1.921
41289W        W12818  25.144  19.201   2.214
41290W        W12819  42.464   5.647  13.335
41291W        W12820   3.422  10.824   3.793
41292W        W12821   5.403  25.151  12.098
41293W        W12822  39.841  18.568  12.499
41294W        W12823  21.972  34.824  12.875
41295W        W12824  15.672  14.198   2.747
41296W        W12825  19.195   5.273   4.523
41297W        W12826  24.537  19.701  12.559
41298W        W12827   2.295  37.880  14.447
41299W        W12828   4.313  13.202   4.467
41300W        W12829   1.832  15.898  10.663
41301W        W12830   7.162  16.442   1.753
41302W        W12831  10.613  32.853   1.334
41303W        W12832   4.482  19.165   2.724
41304W        W12833  13.715  22.064  10.639
41305W        W12834  25.625  16.541   4.185
41306W        W12835  21.213  40.490   2.349
41307W        W12836  12.741  30.932  11.198
41308W        W12837  40.690  20.034  11.161
41309W        W12838   0.272  14.077   0.035
41310W        W12839   2.464  34.306  10.996
41311W        W12840  41.334   5.191   1.335
41312W        W12841   0.378  26.231   0.047
41313W        W12842  41.344   4.842  13.035
41314W        W12843  23.501  15.108  11.455
41315W        W12844  10.937  37.285   1.009
41316W        W12845  20.456  28.278  14.395
41317W        W12846  15.365  13.614   3.146
41318W        W12847  24.603  15.337   0.652
41319W        W12848   6.955  17.087   3.438
41320W        W12849  10.910  20.718   1.809
41321W        W12850  22.620  44.387   0.810
41322W        W12851  44.167  18.309  14.158
41323W        W12852  34.572  22.309  14.390
41324W        W12853  32.550  44.998  14.341
41325W        W12854   5.307   3.219  12.145
41326W        W12855  30.899   1.979  11.731
41327W        W12856  32.374  32.714  10.791
41328W        W12857   6.176   7.766  13.397
41329W        W12858   3.995  34.538   4.407
41330W        W12859   5.931   0.107   4.868
41331W        W12860  29.721  39.750  12.873
41332W        W12861  30.171   4.015  13.780
41333W        W12862   8.108  34.413  13.394
41334W        W12863  25.946  14.171   2.776
41335W        W12864  30.319  14.053  12.025
41336W        W12865  31.144   2.202  14.857
41337W        W12866   7.555  26.801  13.118
41338W        W12867  40.800  28.250  13.369
41339W        W12868   3.715  32.927  14.802
41340W        W12869   3.906  11.338  14.428
41341W        W12870   7.144  41.096   1.058
41342W        W12871  42.704  20.385   5.014
41343W        W12872   6.353  15.054  11.150
41344W        W12873  14.001  26.368   1.229
41345W        W12874  15.461  43.310   0.576
41346W        W12875  28.841  15.655  10.434
41347W        W12876  26.165   6.854  10.453
41348W        W12877  24.933  33.831   1.790
41349W        W12878  14.620   4.951  10.626
41350W        W12879  31.408  30.180  14.909
41351W        W12880  14.638  42.592  11.122
41352W        W12881  13.380   9.604   0.349
41353W        W12882   3.775  19.811  12.838
41354W        W12883  38.808  31.959  12.548
41355W        W12884  12.165  15.828   0.657
41356W        W12885  44.569  14.911   0.254
41357W        W12886  35.267  18.931   4.119
41358W        W12887  16.558  23.800   2.729
41359W        W12888  28.352  28.620  12.372
41360W        W12889  25.188   2.453   2.567
41361W        W12890   6.803   1.689   4.658
41362W        W12891  32.807   5.395   3.294
41363W        W12892  11.889  12.441  12.545
41364W        W12893  34.149  16.290   0.923
41365W        W12894  10.290  15.438   9.960
41366W        W12895  37.803  14.434   4.563
41367W        W12896  20.035   1.905   1.515
41368W        W12897   9.179  26.409   4.023
41369W        W12898  33.022  11.291   1.105
41370W        W12899   5.965  10.886  14.939
41371W        W12900   0.955  32.402  14.327
41372W        W12901  19.490   6.359   0.238
41373W        W12902   2.736  10.152   3.266
41374W        W12903   1.108  38.938   9.962
41375W        W12904   1.242   8.133  12.594
41376W        W12905  30.650  19.678  13.383
41377W        W12906   6.386  34.964  12.621
41378W        W12907   9.854  22.438  13.389
41379W        W12908  17.266  17.533  12.126
41380W        W12909   5.697  42.702   0.634
41381W        W12910  32.939  16.719  12.138
41382W        W12911  15.129  26.083  14.755
41383W        W12912  20.782   9.827   4.579
41384W        W12913  31.087   8.849   2.536
41385W        W12914  21.467  23.936  13.437
41386W        W12915  42.432  11.370   0.939
41387W        W12916  37.707   1.549  11.710
41388W        W12917  13.195  33.361  13.075
41389W        W12918   5.355  24.106  12.013
41390W        W12919   1.580   6.189   1.784
41391W        W12920   8.597  24.287   0.439
41392W        W12921   7.322  38.068   0.915
41393W        W12922  24.684   3.282   0.333
41394W        W12923   3.477  42.344   2.127
41395W        W12924  18.667  13.497   4.110
41396W        W12925  39.638  22.929  10.771
41397W        W12926  31.599  18.130   3.655
41398W        W12927   4.704  22.051   1.837
41399W        W12928  22.538   2.200  10.719
41400W        W12929  24.458  17.150  14.835
41401W        W12930  13.515  37.475   2.501
41402W        W12931  20.306  13.876   4.208
41403W        W12932  14.366  35.638  12.521
41404W        W12933   7.337  31.053  11.526
41405W        W12934  39.349  22.003   1.673
41406W        W12935  28.042  32.547  14.124
41407W        W12936  13.816  26.415   5.032
41408W        W12937  35.846  21.567  13.320
41409W        W12938  27.059   1.618  11.363
41410W        W12939  13.056  27.287  12.536
41411W        W12940  39.932  35.238  11.265
41412W        W12941  26.739  17.013  13.142
41413W        W12942   7.475  36.331   3.792
41414W        W12943   3.820  27.570  13.543
41415W        W12944  25.473  20.203  13.401
41416W        W12945  37.910  30.196   3.279
41417W        W12946   2.026  16.234   1.637
41418W        W12947   4.692  12.267   3.367
41419W        W12948  38.922  11.586  10.856
41420W        W12949  27.981  22.609  13.393
41421W        W12950  34.737   3.007  14.936
41422W        W12951  13.462   5.910   2.304
41423W        W12952  31.098  21.473  11.551
41424W        W12953   1.882  39.275  14.424
41425W        W12954   1.949  39.760  13.434
41426W        W12955  29.579  12.375   3.054
41427W        W12956  18.262  40.550  13.942
41428W        W12957  14.978   7.680   4.734
41429W        W12958   0.478  37.040  12.649
41430W        W12959  24.193  41.658   0.668
41431W        W12960   3.909   4.953  14.322
41432W        W12961  33.293  28.482  13.083
41433W        W12962  17.183  14.582   1.758
41434W        W12963   1.325   5.423  14.551
41435W        W12964  16.496  41.038  14.787
41436W        W12965  10.327   8.739   4.519
41437W        W12966  29.341  40.335  14.853
41438W        W12967   3.595  26.705  14.319
41439W        W12968  20.678  41.255  12.796
41440W        W12969  33.002  36.849   4.277
41441W        W12970  23.145   7.559  14.944
41442W        W12971   6.099  21.275   2.182
41443W        W12972   1.413  32.146   0.187
41444W        W12973  10.814  21.988   2.338
41445W        W12974  27.001  12.552   4.864
41446W        W12975   5.152  17.250  12.109
41447W        W12976  19.517  19.815   2.024
41448W        W12977  12.780  16.267   4.563
41449W        W12978  30.631  38.594   1.335
41450W        W12979   9.274  38.105   1.383
41451W        W12980  37.783  40.106  13.996
41452W        W12981  34.407   7.372  14.454
41453W        W12982  18.177   5.974  10.791
41454W        W12983  44.952   9.829   0.753
41455W        W12984  22.668  17.800  10.355
41456W        W12985  14.696  24.509  11.513
41457W        W12986  37.134  15.281   1.027
41458W        W12987  27.312  43.290   1.334
41459W        W12988  24.988  14.272  10.790
41460W        W12989  22.229  37.813   3.356
41461W        W12990   3.125  40.496   1.697
41462W        W12991  19.066  39.470   2.151
41463W        W12992  29.454  35.670  11.603
41464W        W12993   6.371  39.325  12.550
41465W        W12994   9.252  34.816  10.758
41466W        W12995   0.015  23.322  11.792
41467W        W12996  32.065  33.082  14.549
41468W        W12997  43.190  17.020   3.669
41469W        W12998  10.874  30.929   0.959
41470W        W12999  31.614  30.957   2.537
41471W        W13000  24.991  34.331   1.871
41472W        W13001   3.944  18.262  13.430
41473W        W13002  23.077  12.860  11.642
41474W        W13003  29.279  44.069   2.869
41475W        W13004   0.177  29.401   0.849
41476W        W13005  26.446  36.350  12.438
41477W        W13006  37.552  10.431   3.635
41478W        W13007  37.257  23.540  10.720
41479W        W13008   7.280  42.229   1.361
41480W        W13009  34.105  38.859   1.185
41481W        W13010  29.533  27.536   1.075
41482W        W13011   2.391   5.949   4.657
41483W        W13012  41.964  27.990   3.620
41484W        W13013  21.129  44.816  14.257
41485W        W13014   4.792  29.242   1.776
41486W        W13015  44.275  38.913   3.580
41487W        W13016  31.788  33.317   2.856
41488W        W13017  41.020   4.346  11.631
41489W        W13018   3.274   6.983   0.902
41490W        W13019  11.807   1.858  11.531
41491W        W13020  43.327  33.897  10.429
41492W        W13021  10.182  38.407   4.700
41493W        W13022   8.322  31.881  12.441
41494W        W13023  12.824  19.813   4.251
41495W        W13024   8.261  18.528   3.431
41496W        W13025   4.198  35.176  11.523
41497W        W13026  37.048  23.663   2.995
41498W        W13027  13.712   8.923  11.629
41499W        W13028  33.074  19.956   0.412
41500W        W13029   3.089   4.442   0.706
41501W        W13030  21.268  36.890   0.860
41502W        W13031  16.652  39.989   2.889
41503W        W13032  43.463  15.515   3.656
41504W        W13033   9.808  33.972  10.697
41505W        W13034  26.602  10.055   1.146
41506W        W13035  20.703   8.827   4.154
41507W        W13036  26.982  24.078  11.475
41508W        W13037  20.408   4.498   3.033
41509W        W13038  27.602  44.477  13.079
41510W        W13039  39.851  44.419   0.859
41511W        W13040  35.566  19.617  12.370
41512W        W13041  38.390   2.355  10.599
41513W        W13042  30.420   7.875  14.814
41514W        W13043   8.337  17.605  14.892
41515W        W13044  44.592  29.717   2.023
41516W        W13045  13.790  41.970   3.874
41517W        W13046  18.591  19.680  11.369
41518W        W13047  14.585  18.734  11.462
41519W        W13048  43.342  11.558   0.464
41520W        W13049  27.716  39.079  14.355
41521W        W13050   3.374  41.092  13.697
41522W        W13051  21.835   1.350  14.352
41523W        W13052  36.977  18.669  12.283
41524W        W13053  10.440  20.715   2.728
41525W        W13054   0.274  23.743  12.509
41526W        W13055  38.424  26.436   4.679
41527W        W13056  30.604  43.788   1.994
41528W        W13057  16.603  41.061   4.048
41529W        W13058  17.606  31.541  11.095
41530W        W13059  30.993  37.374  11.460
41531W        W13060  33.340  34.097   4.262
41532W        W13061  40.969   9.635   0.679
41533W        W13062   9.773   6.724  13.480
41534W        W13063  18.307  34.568   0.292
41535W        W13064  44.454  21.714   0.310
41536W        W13065  24.584   1.498  13.578
41537W        W13066  22.929   9.093   4.162
41538W        W13067  25.577   1.938   5.102
41539W        W13068  17.176  21.117  13.077
41540W        W13069  25.032  22.457   1.914
41541W        W13070  38.332   4.981  12.600
41542W        W13071  42.828  38.174   3.346
41543W        W13072  14.801  17.108   4.695
41544W        W13073  33.631   3.753  14.403
41545W        W13074  22.725  20.571  12.053
41546W        W13075  33.194   4.249   1.347
41547W        W13076   0.525  23.597  13.494
41548W        W13077  41.306  34.444   2.765
41549W        W13078   8.384  27.503   4.229
41550W        W13079   2.235  15.233  12.344
41551W        W13080  15.582  29.658  14.970
41552W        W13081   2.788   5.669  13.634
41553W        W13082   4.137  12.920  10.296
41554W        W13083   9.962  14.279   0.969
41555W        W13084  11.695  38.888   3.228
41556W        W13085   3.869  10.120   5.039
41557W        W13086  15.596  27.177  12.955
41558W        W13087   3.992  28.418   2.155
41559W        W13088  14.599  14.144   4.071
41560W        W13089  30.379  40.883   0.016
41561W        W13090  41.461   2.961  14.926
41562W        W13091  17.327  30.337   4.055
41563W        W13092  24.669   8.779  10.761
41564W        W13093  25.902  12.337   2.211
41565W        W13094  18.289   9.746  13.970
41566W        W13095  18.265  13.547   1.259
41567W        W13096  38.549  27.082   0.905
41568W        W13097  15.280  42.333   3.154
41569W        W13098   8.766  27.828   4.369
41570W        W13099  39.312  28.652   3.699
41571W        W13100  30.420  39.421  11.574
41572W        W13101  26.156  36.138   0.088
41573W        W13102   6.362   2.029  11.636
41574W        W13103  12.840  18.508   3.679
41575W        W13104  41.647  22.813  12.003
41576W        W13105  29.940   8.353   2.970
41577W        W13106   4.565  43.277   1.303
41578W        W13107  35.340  29.860  14.860
41579W        W13108  23.651  23.150   3.383
41580W        W13109  39.250  13.034  11.444
41581W        W13110  21.502  11.459  14.852
41582W        W13111  18.633  41.350  13.794
41583W        W13112   7.219   2.422   4.558
41584W        W13113  32.075  35.019  13.955
41585W        W13114  33.982  40.089   3.292
41586W        W13115  14.393  16.078   3.880
41587W        W13116  13.583  37.554  14.241
41588W        W13117  25.221  23.025  11.531
41589W        W13118  39.859   5.939  11.018
41590W        W13119  22.589  41.311   1.281
41591W        W13120  41.842  33.451  14.574
41592W        W13121  19.079  23.459   4.523
41593W        W13122  17.869   1.882   0.506
41594W        W13123  28.664  20.793  14.427
41595W        W13124  44.110  10.665   0.100
41596W        W13125  10.932  14.550  13.611
41597W        W13126  43.568  14.366  12.265
41598W        W13127  38.017  39.864   0.389
41599W        W13128  23.559   8.133   0.589
41600W        W13129  35.432   9.592  11.639
41601W        W13130  32.470  18.602  11.071
41602W        W13131  12.872  26.001   0.902
41603W        W13132  28.272   0.058  12.465
41604W        W13133  21.867   7.964  11.585
41605W        W13134  24.011  21.981   1.806
41606W        W13135  40.093  35.657   2.394
41607W        W13136  22.318  23.472   1.879
41608W        W13137  22.933  18.210  11.507
41609W        W13138   6.270  35.171  14.448
41610W        W13139  20.812  24.181   0.760
41611W        W13140   8.856   9.895  12.464
41612W        W13141   2.019   3.080   2.133
41613W        W13142  14.682  23.688   3.278
41614W        W13143  22.690  29.148  10.273
41615W        W13144  18.828  41.025  11.505
41616W        W13145  18.707  13.918   0.955
41617W        W13146  35.387  41.375  10.807
41618W        W13147  33.567  16.820  11.569
41619W        W13148  16.788  41.928   0.265
41620W        W13149   2.494   7.673   0.537
41621W        W13150  24.586   1.338  14.083
41622W        W13151  25.472  39.002  14.062
41623W        W13152  42.256  24.356   3.205
41624W        W13153  38.444  38.303  11.305
41625W        W13154  22.514  26.126  12.420
41626W        W13155  26.160  27.315   3.642
41627W        W13156  10.133  41.570   1.388
41628W        W13157  36.095  12.246  14.870
41629W        W13158  35.483  26.469   2.232
41630W        W13159   4.862  39.240  13.451
41631W        W13160  16.317  32.899  11.727
41632W        W13161   9.093  16.174   1.226
41633W        W13162  25.032  26.729   1.440
41634W        W13163  18.377  25.784  10.589
41635W        W13164   9.781  31.078   3.904
41636W        W13165  27.134  28.593   2.833
41637W        W13166   8.413  32.292   0.221
41638W        W13167  11.791  40.269   0.845
41639W        W13168  10.728  34.277   3.630
41640W        W13169   9.959  24.514   0.765
41641W        W13170  27.445  31.584   1.262
41642W        W13171  31.032  42.748   0.079
41643W        W13172  25.484  34.555  11.479
41644W        W13173  29.659  38.080  12.114
41645W        W13174  12.760   6.993   4.461
41646W        W13175   8.155  32.858  11.721
41647W        W13176  31.431  33.494  11.186
41648W        W13177  17.625   4.174  13.390
41649W        W13178  31.100   8.615   3.901
41650W        W13179  13.763  43.955  14.959
41651W        W13180  23.596   6.653  14.434
41652W        W13181   0.220  15.031  13.532
41653W        W13182  11.558   9.841  13.047
41654W        W13183  21.823   9.989   0.901
41655W        W13184  41.297  35.507   3.829
41656W        W13185  41.061  44.587  10.742
41657W        W13186  41.067  11.129   4.029
41658W        W13187  23.242   5.895   1.848
41659W        W13188  13.333  41.253   0.735
41660W        W13189  30.115  28.023   3.788
41661W        W13190  23.120  34.990  12.416
41662W        W13191  40.900  35.860   3.760
41663W        W13192  40.770  32.930   2.834
41664W        W13193  38.104   3.989  11.111
41665W        W13194  16.135  32.338  14.420
41666W        W13195   4.350  19.619   3.857
41667W        W13196  33.187  10.794  11.652
41668W        W13197  32.440  37.335  14.469
41669W        W13198  38.427  24.673  13.704
41670W        W13199   1.459  24.666  13.510
41671W        W13200  12.070   5.713  10.784
41672W        W13201   8.885   5.884  13.044
41673W        W13202  17.484  42.520   4.926
41674W        W13203  40.384   8.884  10.582
41675W        W13204  20.922  25.747   4.164
41676W        W13205  42.439  42.786   0.806
41677W        W13206  42.992   8.405   2.275
41678W        W13207  35.046  27.040   4.137
41679W        W13208   0.227  26.705   3.242
41680W        W13209  16.278  11.072   0.838
41681W        W13210   4.730  40.194  12.245
41682W        W13211  43.905  42.243   1.518
41683W        W13212  14.133  22.713   1.788
41684W        W13213   0.367  38.817  11.864
41685W        W13214   8.472  37.407   3.608
41686W        W13215  15.750  31.451   3.278
41687W        W13216  32.758   2.966   1.293
41688W        W13217  32.069   4.232   0.859
41689W        W13218  23.663  12.259  10.608
41690W        W13219  13.858   4.741  13.212
41691W        W13220  38.460  14.865   3.443
41692W        W13221  38.914  44.351  13.968
41693W        W13222  14.250   0.877   1.373
41694W        W13223  25.980  25.247  13.542
41695W        W13224  30.457  15.867   4.941
41696W        W13225  40.890  32.018  11.283
41697W        W13226  36.859  35.834  14.833
41698W        W13227  44.391  37.581  10.807
41699W        W13228  33.484  39.490   1.706
41700W        W13229  14.973  42.404   0.391
41701W        W13230  42.928  44.488  12.615
41702W        W13231  25.550  18.732  14.103
41703W        W13232  14.853  29.151   3.921
41704W        W13233  26.591  21.933  11.354
41705W        W13234  22.121  31.115  11.609
41706W        W13235   3.418  32.280   4.465
41707W        W13236  13.122  21.559  11.280
41708W        W13237  18.417  28.323   4.709
41709W        W13238   8.267  30.573  12.943
41710W        W13239  16.050  44.635  14.797
41711W        W13240  10.231  26.923  13.884
41712W        W13241   7.363  42.311   0.466
41713W        W13242  14.802  18.321  13.431
41714W        W13243   4.839  40.037   4.926
41715W        W13244  44.627   0.008  11.609
41716W        W13245  11.751  14.394  14.527
41717W        W13246   2.955  22.853  14.586
41718W        W13247  32.625  19.038   2.921
41719W        W13248  35.851  36.585  13.944
41720W        W13249   9.299   9.820  10.601
41721W        W13250  36.988  38.538  12.486
41722W        W13251  25.636  32.483  14.544
41723W        W13252  36.399  19.491  13.023
41724W        W13253  35.129   2.376   4.101
41725W        W13254  12.827  18.780  10.970
41726W        W13255  32.078  13.846   4.178
41727W        W13256   4.284  27.431  12.869
41728W        W13257   0.476  30.128  13.743
41729W        W13258  16.064   0.611  13.250
41730W        W13259  31.584   8.110   3.106
41731W        W13260  40.092   7.422   4.394
41732W        W13261  40.056  40.835   2.716
41733W        W13262   7.547  25.102  11.269
41734W        W13263   1.397  20.590   4.311
41735W        W13264  44.017  29.321  11.965
41736W        W13265  20.812  27.063   3.186
41737W        W13266  20.270  22.445   0.191
41738W        W13267  24.528   1.183   2.875
41739W        W13268   2.060   3.318   4.186
41740W        W13269  32.056  16.085  13.497
41741W        W13270  37.404   4.822  13.432
41742W        W13271  21.667   8.849   1.752
41743W        W13272   4.730   7.152  13.026
41744W        W13273  26.033  23.996   1.813
41745W        W13274  40.619   2.225   0.898
41746W        W13275  32.820  15.224   0.310
41747W        W13276   1.867   5.884   0.919
41748W        W13277  19.363   7.881  14.335
41749W        W13278  23.191  26.403   3.102
41750W        W13279  39.196  12.820  13.934
41751W        W13280  15.511  39.740  14.371
41752W        W13281  44.365  25.712   3.330
41753W        W13282   3.882  32.722   5.458
41754W        W13283  32.250  40.490  14.265
41755W        W13284  26.156   6.641   2.694
41756W        W13285  39.188  18.144   1.617
41757W        W13286  38.525  21.876   2.747
41758W        W13287  38.806  22.087   1.775
41759W        W13288  25.432  27.571   3.237
41760W        W13289  13.770  24.530   1.601
41761W        W13290  12.768   8.336   3.733
41762W        W13291  25.597   2.524  11.610
41763W        W13292  23.124   3.869   3.668
41764W        W13293   0.927  13.861  13.343
41765W        W13294  14.614  23.505  10.698
41766W        W13295  15.761  43.077  11.534
41767W        W13296  42.519  32.373   4.538
41768W        W13297  41.525   9.263  10.825
41769W        W13298  27.147   8.949   4.241
41770W        W13299  34.120  26.563  12.331
41771W        W13300  12.634  26.676   0.980
41772W        W13301   2.992  35.474  13.412
41773W        W13302  20.101  44.867   5.009
41774W        W13303   6.960  23.716   0.406
41775W        W13304  41.779  13.159   4.159
41776W        W13305  18.259  16.475   4.331
41777W        W13306   9.180  14.963  13.383
41778W        W13307  18.933  38.920   4.529
41779W        W13308   5.266  13.990   4.166
41780W        W13309  15.975  27.550  11.646
41781W        W13310  13.135  43.865  12.872
41782W        W13311   7.932  32.589  14.340
41783W        W13312  36.374  25.239  11.564
41784W        W13313  14.377  17.607   0.324
41785W        W13314  27.204  44.541   3.802
41786W        W13315   6.927  34.376  12.035
41787W        W13316  18.465  11.266  11.168
41788W        W13317  29.645   8.386   4.778
41789W        W13318  15.274  10.194   3.175
41790W        W13319  36.433  10.410   2.677
41791W        W13320  32.526  26.513   3.385
41792W        W13321  19.260  11.218  10.747
41793W        W13322   4.714  32.472  11.892
41794W        W13323  22.917  15.024   4.112
41795W        W13324  26.517  34.126   2.631
41796W        W13325  11.460  34.308   3.308
41797W        W13326   5.261   3.353  11.647
41798W        W13327  26.917  24.077   2.583
41799W        W13328  20.326  14.705   1.700
41800W        W13329  44.841  16.691   1.555
41801W        W13330  28.630  29.925  13.863
41802W        W13331  16.747   9.319  11.578
41803W        W13332  18.501  17.125  12.346
41804W        W13333   8.426  20.805   3.186
41805W        W13334  27.706   0.424  11.931
41806W        W13335  12.833  17.762  13.356
41807W        W13336  14.788   6.353  11.623
41808W        W13337  37.444   5.639   3.662
41809W        W13338  14.860  38.182   4.952
41810W        W13339  43.671   6.360   3.195
41811W        W13340  21.463  17.224   0.771
41812W        W13341  26.693  30.959   1.399
41813W        W13342  32.108  36.949  14.773
41814W        W13343  44.263   6.458   5.136
41815W        W13344  19.692   8.992   0.858
41816W        W13345   5.905  14.716  13.504
41817W        W13346   4.765  36.752   2.620
41818W        W13347  18.765  31.779   1.462
41819W        W13348  43.771  40.036   1.897
41820W        W13349  26.462  28.397   4.060
41821W        W13350   9.224  14.053   2.796
41822W        W13351  18.303  23.834  13.385
41823W        W13352  21.553  34.008  10.977
41824W        W13353  25.093  33.654  12.122
41825W        W13354  29.715  10.080   4.175
41826W        W13355  26.122  40.869   4.508
41827W        W13356  32.252  32.966   2.259
41828W        W13357  14.827  37.106  11.366
41829W        W13358  12.512  16.171   3.557
41830W        W13359  12.616  13.920   2.622
41831W        W13360  18.916  32.967  13.087
41832W        W13361  29.111  32.376  14.357
41833W        W13362  37.626  16.815  13.973
41834W        W13363  30.471  24.221  14.055
41835W        W13364  24.436   1.779   3.613
41836W        W13365  43.422  22.140   4.628
41837W        W13366  39.904  18.298  11.573
41838W        W13367  17.720  21.224  12.848
41839W        W13368   1.937  39.258  13.542
41840W        W13369  11.291   6.576  11.413
41841W        W13370   9.759  34.080   0.727
41842W        W13371  17.292  24.093   3.194
41843W        W13372  24.646   3.212   2.667
41844W        W13373  13.629  21.071   3.295
41845W        W13374  30.610   7.260  11.550
41846W        W13375  18.279   8.502  12.492
41847W        W13376  36.537  15.193  10.825
41848W        W13377   2.946  25.606  10.599
41849W        W13378  33.557  33.999  11.341
41850W        W13379  40.991  15.548  10.494
41851W        W13380  29.889  27.659  13.073
41852W        W13381  29.716  41.626   4.528
41853W        W13382  32.385  26.226   1.357
41854W        W13383   6.261  36.053   3.438
41855W        W13384   5.889  17.505  13.840
41856W        W13385  25.140  18.694   0.555
41857W        W13386  23.794  30.128   0.455
41858W        W13387  40.261   5.671   4.564
41859W        W13388  10.396  43.533   1.835
41860W        W13389  30.213   5.035  11.727
41861W        W13390  36.092  12.713   4.045
41862W        W13391  27.209  37.528   4.048
41863W        W13392   4.216  38.968  11.534
41864W        W13393  34.370  33.829   2.629
41865W        W13394   3.798  12.031   1.092
41866W        W13395  35.457  38.422   2.740
41867W        W13396  38.487  34.491   3.890
41868W        W13397  20.300  25.735  12.907
41869W        W13398   8.301  37.999  14.748
41870W        W13399  27.181   7.673   0.057
41871W        W13400  18.215  25.685   3.682
41872W        W13401  10.765  35.288   1.560
41873W        W13402  37.536   2.149   3.918
41874W        W13403  42.421   5.765  12.480
41875W        W13404  41.064  44.801  13.542
41876W        W13405  38.969  18.189  14.836
41877W        W13406   6.278  22.122   4.804
41878W        W13407   2.527   3.309  12.533
41879W        W13408  33.586  44.395  12.858
41880W        W13409  41.288  36.633  12.053
41881W        W13410  41.270  25.956  14.336
41882W        W13411   1.958   2.505  10.962
41883W        W13412  11.793  11.788   0.998
41884W        W13413   8.292  18.172  13.554
41885W        W13414  20.325  28.441   4.127
41886W        W13415  42.969  12.136  14.838
41887W        W13416  10.738  28.478  14.801
41888W        W13417  22.732  42.051  11.020
41889W        W13418   3.754  19.499  13.225
41890W        W13419  12.536  19.247  12.320
41891W        W13420  14.077  20.774   2.621
41892W        W13421  26.475  39.547  12.886
41893W        W13422  38.479  18.354  14.780
41894W        W13423  36.819  43.298  13.302
41895W        W13424  12.281  28.820  14.348
41896W        W13425  21.750  41.607   4.673
41897W        W13426  34.111  35.767   3.874
41898W        W13427   4.202  17.814   1.943
41899W        W13428  43.669  27.268  14.807
41900W        W13429  37.116   2.522  12.813
41901W        W13430  19.314  12.289   0.810
41902W        W13431  38.248  25.900  13.876
41903W        W13432   5.672  25.088  12.833
41904W        W13433  11.353   6.654   4.300
41905W        W13434  18.143  30.922  12.982
41906W        W13435  16.776   5.827   0.301
41907W        W13436  22.552  38.280  13.584
41908W        W13437   2.274  18.749   2.729
41909W        W13438  28.101   7.376  13.682
41910W        W13439  15.248  40.345   0.841
41911W        W13440  41.426  30.697  12.081
41912W        W13441  35.301  25.597   0.395
41913W        W13442   8.812  28.219  11.584
41914W        W13443  13.823  33.896  13.446
41915W        W13444  20.223  37.373  11.072
41916W        W13445  20.254  26.960   3.108
41917W        W13446  33.045  38.306   4.536
41918W        W13447   6.148   1.645  12.458
41919W        W13448   2.739   8.101   3.404
41920W        W13449  36.525  38.757  14.550
41921W        W13450  35.303  24.078   1.483
41922W        W13451  38.447  14.356   4.967
41923W        W13452  19.736  37.720  11.520
41924W        W13453  35.448  38.996   0.749
41925W        W13454  14.897  10.387  14.276
41926W        W13455  30.291  10.380  11.424
41927W        W13456  28.099  20.777  12.968
41928W        W13457  37.428  34.793   1.861
41929W        W13458  44.481  20.686   1.808
41930W        W13459  28.471  44.936   4.098
41931W        W13460  10.469  31.125   4.910
41932W        W13461  13.129  21.272  12.569
41933W        W13462  23.571  16.871   1.418
41934W        W13463  19.970  38.284   3.535
41935W        W13464  42.849  12.580   3.707
41936W        W13465  26.457  38.266   3.855
41937W        W13466  35.045  37.403   1.514
41938W        W13467  19.628  19.096  11.166
41939W        W13468  43.146   2.490  13.523
41940W        W13469  43.213  31.050  14.366
41941W        W13470  22.196  40.566  14.492
41942W        W13471   1.237  33.418  14.863
41943W        W13472   8.417  35.680  12.825
41944W        W13473  42.717  25.669   4.155
41945W        W13474  43.981  21.345   2.817
41946W        W13475   4.480  42.414  11.157
41947W        W13476  10.491   8.990  12.873
41948W        W13477   5.241   2.512  11.584
41949W        W13478  11.846  34.346  13.458
41950W        W13479  18.470  26.972   5.013
41951W        W13480  32.601  18.707   4.638
41952W        W13481   9.605   9.188  11.892
41953W        W13482  41.023  10.167  10.990
41954W        W13483  10.317   1.443   2.783
41955W        W13484  29.808  13.470   0.850
41956W        W13485  27.747  42.791   5.280
41957W        W13486   4.444  37.823  11.218
41958W        W13487  13.379  38.359   4.128
41959W        W13488  26.536   8.919   3.699
41960W        W13489  44.499   4.002   4.907
41961W        W13490  31.461  30.988  10.792
41962W        W13491  41.477  37.581  13.976
41963W        W13492  18.033   3.997  14.825
41964W        W13493   3.370   4.681   0.325
41965W        W13494  12.626  24.094  14.361
41966W        W13495  22.143  31.009   2.250
41967W        W13496  40.416  15.402  14.281
41968W        W13497  37.018  25.599   4.007
41969W        W13498   2.999   8.602   2.110
41970W        W13499  29.638  18.259   1.696
41971W        W13500  12.031  23.572  12.060
41972W        W13501  21.099  16.359   4.102
41973W        W13502  34.232  42.387  14.981
41974W        W13503   8.388  38.600  11.330
41975W        W13504  39.937  22.621   2.197
41976W        W13505  10.827   2.375  10.372
41977W        W13506  31.471  13.311  12.428
41978W        W13507  37.799  33.096  14.648
41979W        W13508  34.910  16.857  12.507
41980W        W13509  10.892  43.799   4.967
41981W        W13510  17.541   0.717  12.813
41982W        W13511  13.616  26.888   3.350
41983W        W13512  44.026   7.434   2.300
41984W        W13513   6.263  12.684   4.571
41985W        W13514  28.694   9.650   1.257
41986W        W13515  25.745  33.257  14.212
41987W        W13516   0.875  33.593   2.322
41988W        W13517  34.896   7.142  14.838
41989W        W13518  12.390  10.982  11.436
41990W        W13519  19.427   3.819   2.783
41991W        W13520  39.116  34.885  14.828
41992W        W13521  16.065  33.498  11.015
41993W        W13522   7.431   6.620  11.078
41994W        W13523   6.900  26.918   0.737
41995W        W13524   5.011  30.595  13.299
41996W        W13525   5.485  10.692   0.853
41997W        W13526  27.319  31.776   2.691
41998W        W13527   9.454  37.008  12.354
41999W        W13528  30.048  20.764  14.579
42000W        W13529  37.561  17.800  14.861
42001W        W13530  32.371   0.428   3.396
42002W        W13531   1.189   9.165   3.413
42003W        W13532  15.579  10.463   3.973
42004W        W13533  39.057  23.382  10.680
42005W        W13534   1.890  13.876   4.805
42006W        W13535  33.167  20.156   4.251
42007W        W13536  22.663   6.456  10.764
42008W        W13537  11.643  10.322   0.410
42009W        W13538  15.626   9.418  13.576
42010W        W13539  24.162  16.227   2.351
42011W        W13540  11.190   7.126   4.113
42012W        W13541  37.310  24.492   0.939
42013W        W13542   2.128  19.928   2.217
42014W        W13543  32.630  34.570   1.960
42015W        W13544  31.662  34.614  12.610
42016W        W13545  22.722  39.037  13.164
42017W        W13546   6.906  28.429   2.845
42018W        W13547  12.607  39.829   4.176
42019W        W13548  16.098   6.772  11.232
42020W        W13549   5.036  20.452   2.323
42021W        W13550  43.396  10.552  10.763
42022W        W13551  14.807  14.380   2.165
42023W        W13552  41.247  25.535   2.288
42024W        W13553   3.551  20.747  11.993
42025W        W13554  38.887  32.488  14.452
42026W        W13555  27.529  38.572   3.301
42027W        W13556  24.850  39.502  13.030
42028W        W13557  42.440  30.084  11.960
42029W        W13558  21.237  37.171  14.051
42030W        W13559  27.908  13.516   0.898
42031W        W13560  41.575  11.316   0.908
42032W        W13561  11.733  22.387   1.993
42033W        W13562  37.466  43.686  14.584
42034W        W13563  40.044  43.007  10.539
42035W        W13564  29.136  33.970   2.670
42036W        W13565   5.349  26.621  12.336
42037W        W13566  40.389  26.537   4.043
42038W        W13567  30.176  22.147   4.861
42039W        W13568  16.650  39.223  11.037
42040W        W13569  44.721  16.292   4.689
42041W        W13570  33.873  25.857   0.575
42042W        W13571   8.415   9.612  13.314
42043W        W13572  41.090  12.804  14.409
42044W        W13573  30.884  18.698   2.450
42045W        W13574  37.603  17.065   4.100
42046W        W13575   8.659  23.691  13.815
42047W        W13576  41.351   9.825   0.970
42048W        W13577  27.501  15.843  14.987
42049W        W13578  25.438  24.009   3.554
42050W        W13579  11.679  40.489  11.112
42051W        W13580  10.218  44.149   3.600
42052W        W13581  29.105  12.724  11.395
42053W        W13582  33.852   9.939   5.068
42054W        W13583   6.275  17.147  14.485
42055W        W13584  10.728  24.186  13.589
42056W        W13585  19.568  22.536  13.546
42057W        W13586   6.535  25.362   2.686
42058W        W13587   2.190  24.030  11.213
42059W        W13588  34.512  12.643  11.913
42060W        W13589  29.072  29.326  14.359
42061W        W13590  18.096  14.745   0.766
42062W        W13591   3.789  41.650  14.416
42063W        W13592   7.817  28.577  13.531
42064W        W13593  28.119  27.201  13.746
42065W        W13594  23.586  10.194  12.184
42066W        W13595  28.615   5.389   1.197
42067W        W13596  26.394  41.384   2.793
42068W        W13597  36.462  21.076   1.018
42069W        W13598  19.067  26.543  11.562
42070W        W13599  11.362  42.367   4.982
42071W        W13600  29.691  10.697   2.772
42072W        W13601   9.366  18.065  13.159
42073W        W13602  21.780  31.992  11.404
42074W        W13603   7.831  43.952   4.018
42075W        W13604  20.038  32.849  12.453
42076W        W13605   9.450  17.180  10.085
42077W        W13606  27.534  19.224   2.244
42078W        W13607  25.970   5.298  10.575
42079W        W13608  37.490  12.904   2.149
42080W        W13609  39.900  30.404  10.750
42081W        W13610   0.258  28.089  14.000
42082W        W13611  13.799   1.902   4.113
42083W        W13612  42.482  23.639  12.442
42084W        W13613   0.735  44.705   0.714
42085W        W13614  19.506  40.375  12.533
42086W        W13615  43.260  34.896  14.432
42087W        W13616  26.632   5.355   4.432
42088W        W13617   9.372  34.054  11.471
42089W        W13618   9.670  21.276  11.056
42090W        W13619  20.857  32.188   2.366
42091W        W13620   6.392  44.326  13.363
42092W        W13621  19.267  21.853   3.719
42093W        W13622  16.424  16.533   3.786
42094W        W13623  31.659   5.735  13.458
42095W        W13624  31.721   2.270   0.535
42096W        W13625  26.279  11.414   1.830
42097W        W13626  10.695  31.824   4.093
42098W        W13627  21.115  25.262  14.283
42099W        W13628  12.088  27.163  11.969
42100W        W13629   2.436   1.326  13.841
42101W        W13630  39.591  31.551   1.878
42102W        W13631  10.716  11.269   1.858
42103W        W13632  13.802  12.614   4.689
42104W        W13633  26.743  14.402  12.358
42105W        W13634   3.315  25.806  14.366
42106W        W13635  13.096  35.994  10.344
42107W        W13636   4.203  32.564   1.723
42108W        W13637  18.092   1.449  10.883
42109W        W13638  41.503   6.850   4.073
42110W        W13639  38.408  40.474  14.905
42111W        W13640   7.361   7.008   3.724
42112W        W13641  30.136  40.749   0.919
42113W        W13642  43.699  30.858   2.213
42114W        W13643  19.940  19.273   2.708
42115W        W13644   5.338  21.952   3.593
42116W        W13645   9.772   1.418  11.311
42117W        W13646   4.974   8.539   1.321
42118W        W13647  14.517  19.031  12.897
42119W        W13648  41.011  25.522  10.773
42120W        W13649  36.303   6.907   0.798
42121W        W13650  14.756  19.504   4.559
42122W        W13651  32.022   7.209  10.919
42123W        W13652   1.035   2.314  10.535
42124W        W13653  40.352  25.486   4.194
42125W        W13654   0.950  35.069  13.058
42126W        W13655   6.799  27.089  13.074
42127W        W13656  41.968   5.535  11.208
42128W        W13657  17.467  35.073   2.672
42129W        W13658  13.744  37.953  13.361
42130W        W13659  39.391   3.395   0.276
42131W        W13660  12.666   7.969  10.720
42132W        W13661  31.249  32.607   4.116
42133W        W13662  23.042  15.790  14.258
42134W        W13663   9.880   8.415  11.643
42135W        W13664  31.407  23.611   3.477
42136W        W13665   9.820  29.430  14.726
42137W        W13666  10.398  32.446   3.619
42138W        W13667  33.580  27.620   2.766
42139W        W13668   9.962  18.618   0.841
42140W        W13669  25.466  25.991  14.327
42141W        W13670  30.077  42.939  11.469
42142W        W13671   8.486  43.251  10.914
42143W        W13672  39.382  35.144   1.180
42144W        W13673  38.536   7.147  11.007
42145W        W13674  44.488  12.215  13.861
42146W        W13675  42.812   1.334  14.282
42147W        W13676  21.282  14.011  11.495
42148W        W13677   3.739   4.798   4.658
42149W        W13678  39.741  13.247  11.551
42150W        W13679  11.252  29.494   4.513
42151W        W13680  41.520  40.896  12.244
42152W        W13681  22.600  44.881   2.650
42153W        W13682   3.049  35.873  13.736
42154W        W13683   9.640  42.922  13.516
42155W        W13684  28.819   7.746   0.867
42156W        W13685  11.078  44.371  14.536
42157W        W13686   6.460  42.691  14.977
42158W        W13687  27.563  29.928  13.946
42159W        W13688  24.703  20.542   2.231
42160W        W13689  22.187  30.670   4.800
42161W        W13690  36.876  22.734   0.517
42162W        W13691  34.222  23.371  12.412
42163W        W13692  43.921  41.270  14.353
42164W        W13693  20.776  41.396  14.919
42165W        W13694  11.255  16.580   1.758
42166W        W13695  42.286  17.542  11.108
42167W        W13696  15.057   0.330   3.148
42168W        W13697   7.821  36.636   1.894
42169W        W13698  20.918  42.906  12.574
42170W        W13699   6.215  38.386   4.555
42171W        W13700  34.265   5.836  12.345
42172W        W13701   7.646  42.529  14.447
42173W        W13702  23.557  26.001  11.076
42174W        W13703   4.510   3.399   3.504
42175W        W13704  44.186   9.056  10.398
42176W        W13705  34.272  41.507   0.396
42177W        W13706  43.862  42.962   2.703
42178W        W13707   3.451  27.174   3.635
42179W        W13708  25.814   9.224  12.048
42180W        W13709  25.815  21.354   4.152
42181W        W13710  17.668  22.553   3.148
42182W        W13711   4.960   6.720  12.319
42183W        W13712  25.264  35.111  12.118
42184W        W13713   0.449  29.097   0.342
42185W        W13714  34.854  11.342  10.651
42186W        W13715  40.722  35.980   4.244
42187W        W13716  17.293   5.557  12.515
42188W        W13717  30.014   2.375  13.454
42189W        W13718  22.661  37.978  14.912
42190W        W13719  28.096  10.029   5.001
42191W        W13720  28.162  32.116  12.679
42192W        W13721  17.146  22.136   2.160
42193W        W13722   3.255  28.531  14.779
42194W        W13723  28.242  27.457   3.794
42195W        W13724   8.988  28.255  11.093
42196W        W13725  39.167   1.530  11.546
42197W        W13726  40.493  32.679  11.418
42198W        W13727  37.451   9.856   0.072
42199W        W13728  37.508  33.496   2.614
42200W        W13729  19.011  37.174  10.189
42201W        W13730   1.356   0.468  14.808
42202W        W13731  31.396  25.250  10.760
42203W        W13732  43.739  18.112   4.193
42204W        W13733  18.410  31.062  10.176
42205W        W13734  24.979  11.894   3.109
42206W        W13735  25.032   1.791   0.272
42207W        W13736   3.493  24.609  11.581
42208W        W13737  13.749  22.626  14.355
42209W        W13738  42.487  18.594   1.461
42210W        W13739  10.465  34.143   3.204
42211W        W13740  26.685   5.381  11.878
42212W        W13741  20.256  12.187  11.173
42213W        W13742   1.775  41.820  14.262
42214W        W13743   1.886  19.745   3.182
42215W        W13744  42.168  21.779  13.174
42216W        W13745   4.738  30.114   2.415
42217W        W13746  21.752   2.225  11.995
42218W        W13747  35.122  14.601  12.877
42219W        W13748  42.355  44.351   3.063
42220W        W13749  12.724  38.261   0.153
42221W        W13750  12.746  24.059   2.775
42222W        W13751  41.679   9.087   0.690
42223W        W13752  18.565  25.585  14.410
42224W        W13753   1.405  27.821   3.791
42225W        W13754  28.156  43.982  11.105
42226W        W13755  37.601   3.429   2.683
42227W        W13756  38.929  37.821   0.455
42228W        W13757  38.950  27.055   2.226
42229W        W13758   6.669  42.628  11.042
42230W        W13759   6.812  41.092   4.396
42231W        W13760   0.043  11.771   1.675
42232W        W13761   5.775  36.148  13.084
42233W        W13762  29.726  41.076   0.836
42234W        W13763  38.955   7.117  13.501
42235W        W13764  40.748  28.532  14.868
42236W        W13765  20.795  29.614   0.747
42237W        W13766  11.650   7.681  14.757
42238W        W13767  16.623   5.921   2.858
42239W        W13768  28.156  12.431  14.470
42240W        W13769  38.325   1.097  12.419
42241W        W13770  23.243  39.288  14.799
42242W        W13771  16.039  27.945  11.025
42243W        W13772  27.215   0.236   2.473
42244W        W13773  30.999   4.999  13.575
42245W        W13774  16.679   5.224   4.632
42246W        W13775  26.122  31.957  10.696
42247W        W13776   2.350  21.255  14.328
42248W        W13777   9.654  20.919  10.101
42249W        W13778  36.108   6.036   3.215
42250W        W13779  43.951   2.595  14.298
42251W        W13780  30.049  16.315  11.922
42252W        W13781  15.224  29.723   0.332
42253W        W13782  32.737  38.240  14.302
42254W        W13783  29.915   8.672   1.460
42255W        W13784   0.244  30.990  14.448
42256W        W13785  12.142  39.790   2.934
42257W        W13786  40.823  28.490   3.713
42258W        W13787   4.464   0.710   0.980
42259W        W13788  36.026  39.555  10.693
42260W        W13789   8.561  33.419   2.256
42261W        W13790  37.502  27.558   0.337
42262W        W13791  41.295  28.043   1.402
42263W        W13792  34.002  38.410   0.883
42264W        W13793  29.524   4.829  13.546
42265W        W13794   3.126   1.518   2.658
42266W        W13795   8.468   6.273  12.477
42267W        W13796  10.087  27.238   3.383
42268W        W13797   8.777  17.329  14.774
42269W        W13798  18.123  43.452  11.080
42270W        W13799  26.731  20.953  13.981
42271W        W13800  38.560   3.437  12.956
42272W        W13801  30.778   4.467   1.293
42273W        W13802  38.948  38.031  10.824
42274W        W13803  43.327  13.703  12.589
42275W        W13804  14.750  44.768   1.241
42276W        W13805   9.364  39.766   3.496
42277W        W13806  17.032   9.746  13.995
42278W        W13807   9.168  29.570  10.286
42279W        W13808  26.999   4.263   2.099
42280W        W13809  10.209   3.399   2.905
42281W        W13810  11.857  21.070   4.297
42282W        W13811  29.969  14.542   1.341
42283W        W13812  35.404   8.951  14.775
42284W        W13813  18.191  22.977  13.002
42285W        W13814   9.879   3.289  13.736
42286W        W13815   2.505  24.027   3.131
42287W        W13816  15.372  29.185   3.166
42288W        W13817   3.467   9.988  12.975
42289W        W13818  24.546  21.218   0.525
42290W        W13819  17.817  31.251   4.664
42291W        W13820  36.611   1.982  14.213
42292W        W13821  43.881  13.377   0.439
42293W        W13822  34.450  13.156  11.799
42294W        W13823  44.726  21.711  13.926
42295W        W13824  42.936  43.325  12.251
42296W        W13825  18.164  13.766  11.146
42297W        W13826  35.179  34.905  14.798
42298W        W13827  36.607  17.814   3.691
42299W        W13828  43.350  28.021   0.734
42300W        W13829  19.129  34.466  10.791
42301W        W13830  35.655  36.128   0.810
42302W        W13831  42.853   7.396   3.741
42303W        W13832  22.430  13.337  12.219
42304W        W13833   0.314  12.622   2.270
42305W        W13834   0.487  31.653   4.673
42306W        W13835  30.889  44.202   1.274
42307W        W13836  21.592   6.261   3.605
42308W        W13837  25.847  17.836   2.714
42309W        W13838  36.683   0.800   1.750
42310W        W13839   4.216  38.303  11.057
42311W        W13840  36.473   1.705   4.041
42312W        W13841  24.567  26.606  14.273
42313W        W13842  24.958  39.797  11.869
42314W        W13843  24.461  16.573   1.436
42315W        W13844  38.981  22.462   2.227
42316W        W13845  42.418  38.039   0.389
42317W        W13846  13.602  28.721   0.420
42318W        W13847  24.581  29.169   1.939
42319W        W13848  42.735  41.417   0.254
42320W        W13849  30.847   1.503   0.345
42321W        W13850   2.809  38.159   1.742
42322W        W13851   8.346  44.365   0.297
42323W        W13852  35.172   1.827   4.705
42324W        W13853  31.901   1.457   3.263
42325W        W13854  11.067  20.512  14.885
42326W        W13855   8.808  37.482   2.373
42327W        W13856  10.208  41.507   0.438
42328W        W13857  34.481  16.960  11.539
42329W        W13858  30.351  35.894   3.715
42330W        W13859  35.498  39.421  14.522
42331W        W13860   7.432   9.986  12.237
42332W        W13861  32.179  40.894   3.673
42333W        W13862   3.150  39.908  14.850
42334W        W13863  33.656  34.542   3.534
42335W        W13864  10.790  10.731   3.672
42336W        W13865  25.882  19.695   4.710
42337W        W13866  37.549  17.028   0.362
42338W        W13867  36.591  18.325   3.051
42339W        W13868  32.258   0.918   4.854
42340W        W13869  42.558  19.025  14.290
42341W        W13870  32.588  10.794  13.122
42342W        W13871  31.537  13.820  14.304
42343W        W13872   4.400   4.210   2.392
42344W        W13873  21.225  37.418  11.990
42345W        W13874  19.153  34.882   4.176
42346W        W13875  24.752  18.797  11.083
42347W        W13876  40.879   4.406   3.003
42348W        W13877   4.076  26.537  14.442
42349W        W13878  23.618   0.018  11.125
42350W        W13879  38.553  39.115   2.709
42351W        W13880  42.696  16.068   0.154
42352W        W13881   1.973  24.741  14.971
42353W        W13882  42.038  23.085  14.923
42354W        W13883  30.271  19.351  14.471
42355W        W13884  14.362   6.272  12.937
42356W        W13885  44.764  40.415   3.410
42357W        W13886   1.372  39.785   1.370
42358W        W13887   9.338   6.780   0.317
42359W        W13888  31.505  41.801   4.908
42360W        W13889  44.291  40.005   1.724
42361W        W13890   8.193  24.289  12.102
42362W        W13891   8.157  30.409  12.426
42363W        W13892  38.313  34.612   2.839
42364W        W13893  19.104  28.720   2.146
42365W        W13894   3.270   3.030   4.301
42366W        W13895  36.360  19.631  10.559
42367W        W13896  28.233  21.542  12.418
42368W        W13897  28.452  25.527  11.135
42369W        W13898  40.408   1.250  11.943
42370W        W13899   2.717  37.066   3.635
42371W        W13900   0.510  11.175  11.557
42372W        W13901  27.690  14.810   1.897
42373W        W13902  16.596  26.193   4.107
42374W        W13903  34.950  34.401   3.667
42375W        W13904  10.667  33.715   0.986
42376W        W13905   2.737  21.129  11.935
42377W        W13906  21.124  22.159  11.691
42378W        W13907  13.386  36.872  11.130
42379W        W13908  16.485   7.083   0.818
42380W        W13909  16.136  20.991  11.988
42381W        W13910   4.358  32.055  11.096
42382W        W13911  36.111  14.621   4.390
42383W        W13912  15.859  19.566   2.993
42384W        W13913   5.876  36.612  13.335
42385W        W13914   8.817   4.203  12.808
42386W        W13915   0.785  19.836   2.498
42387W        W13916  26.516   0.658  12.342
42388W        W13917  29.492  16.640  12.476
42389W        W13918   2.348  37.317  11.606
42390W        W13919   8.826  23.546  14.937
42391W        W13920  33.868  13.733  13.659
42392W        W13921  39.963  40.122   3.286
42393W        W13922   8.368  32.692  12.162
42394W        W13923  38.873   1.819   4.193
42395W        W13924   5.578  10.884  12.677
42396W        W13925   3.645  35.198   4.567
42397W        W13926  33.130  27.172   4.531
42398W        W13927  31.398  30.427  12.083
42399W        W13928  23.819  37.462   2.657
42400W        W13929  19.706  26.972  12.638
42401W        W13930  40.845   1.009   3.947
42402W        W13931  12.825  35.420   0.560
42403W        W13932  22.728  43.263   1.772
42404W        W13933  39.612  37.020  12.955
42405W        W13934  10.857  29.501  11.959
42406W        W13935  43.157   5.129   1.382
42407W        W13936  12.194  10.867   4.167
42408W        W13937  36.961   4.318  13.879
42409W        W13938  14.273  13.871   1.804
42410W        W13939  42.430  37.887  13.968
42411W        W13940  21.154  22.737   0.411
42412W        W13941  29.695  37.071   0.680
42413W        W13942   0.972  32.364   1.827
42414W        W13943  24.589  36.447   1.251
42415W        W13944  23.647   6.691  11.685
42416W        W13945  19.637  37.142  12.983
42417W        W13946   5.003  29.096  11.545
42418W        W13947  31.990  13.350   4.194
42419W        W13948  18.661   1.923   0.193
42420W        W13949  22.639  23.161  14.014
42421W        W13950  23.527  38.363   1.151
42422W        W13951  22.173  31.163  11.086
42423W        W13952   8.115  28.858   0.683
42424W        W13953  27.162   8.330  11.542
42425W        W13954  16.167  30.630  11.231
42426W        W13955   7.197  44.849   2.937
42427W        W13956  40.515   4.453  11.532
42428W        W13957  34.038   1.686   4.277
42429W        W13958  10.166   2.624  10.381
42430W        W13959  36.618  43.830  12.892
42431W        W13960  28.879  21.936  14.313
42432W        W13961  21.234  30.613  11.541
42433W        W13962  17.419  41.773   5.311
42434W        W13963   0.537  39.070   0.762
42435W        W13964   1.372  36.977   4.996
42436W        W13965  14.552   6.261  11.175
42437W        W13966  23.145  18.607  10.730
42438W        W13967  33.886  15.513  14.840
42439W        W13968  12.352  27.538  12.185
42440W        W13969  42.298  27.727  12.491
42441W        W13970  36.161   4.825   0.702
42442W        W13971  31.419  33.201  12.400
42443W        W13972  26.983  40.425   4.242
42444W        W13973  15.751  24.359  10.604
42445W        W13974   9.766  28.490   4.054
42446W        W13975  27.597  16.390   0.379
42447W        W13976  23.180  38.919  10.656
42448W        W13977  37.960  42.276  10.687
42449W        W13978  35.540   7.247   1.899
42450W        W13979   8.326   5.263  14.046
42451W        W13980   6.391  23.239  14.922
42452W        W13981  42.724  30.831  14.782
42453W        W13982  17.117   4.552   4.554
42454W        W13983  41.008  13.342   0.027
42455W        W13984   9.988  23.159  13.875
42456W        W13985  31.532   2.421  10.775
42457W        W13986  11.094  11.229  11.215
42458W        W13987  12.672  11.273  12.553
42459W        W13988  17.682  12.148   1.197
42460W        W13989  37.438  27.666   4.757
42461W        W13990  10.837  43.204  12.047
42462W        W13991  21.502   1.882   3.267
42463W        W13992  16.746   1.288  13.600
42464W        W13993  16.102  16.863  12.998
42465W        W13994  22.197  22.027  10.836
42466W        W13995   2.328  10.190   2.905
42467W        W13996  12.062   5.431   1.882
42468W        W13997  38.807  40.985   0.345
42469W        W13998  18.653   8.069  13.546
42470W        W13999   2.463  25.787  13.485
42471W        W14000  14.704  38.423  12.338
42472W        W14001  13.663  19.969   1.293
42473W        W14002  38.780  36.980   3.260
42474W        W14003  25.142  15.897   2.894
42475W        W14004   8.459  37.769   1.633
42476W        W14005   9.808  14.008  13.753
42477W        W14006  42.451  40.975   3.924
42478W        W14007  21.991  13.229  11.550
42479W        W14008  36.860  33.869  14.495
42480W        W14009  29.124   0.725   0.763
42481W        W14010  40.043  23.990   4.332
42482W        W14011  42.458  13.818  10.653
42483W        W14012   8.992  42.629  10.251
42484W        W14013  42.459  13.619   0.282
42485W        W14014  25.944  28.550   3.368
42486W        W14015  32.422  38.024   2.773
42487W        W14016  16.019  27.752   2.769
42488W        W14017  29.593  21.058  11.562
42489W        W14018   3.907  43.368   4.149
42490W        W14019  44.841  24.044   0.475
42491W        W14020   9.200  24.119   0.341
42492W        W14021  15.161  16.709  12.999
42493W        W14022  19.492  22.317  13.064
42494W        W14023  14.999  21.644  10.568
42495W        W14024  29.850  11.959   4.262
42496W        W14025   6.171   8.408  10.773
42497W        W14026  26.932  18.659  12.131
42498W        W14027  36.949  20.281   3.977
42499W        W14028   0.407   2.465   2.788
42500W        W14029   3.249  18.013   0.534
42501W        W14030  32.103  29.478   0.418
42502W        W14031  24.399  13.059   2.753
42503W        W14032  15.776  16.420  14.907
42504W        W14033  38.675  31.392   2.162
42505W        W14034   3.158  33.893  13.844
42506W        W14035  10.669  33.593  13.515
42507W        W14036   3.933  38.541  13.286
42508W        W14037  43.901  34.831  12.540
42509W        W14038  38.001   0.518  14.010
42510W        W14039  12.369  33.006  10.733
42511W        W14040  12.381  44.966  14.593
42512W        W14041  27.892  29.016  14.892
42513W        W14042  39.043  14.690  13.458
42514W        W14043  18.977  35.952   4.183
42515W        W14044  29.728   0.295  13.620
42516W        W14045  44.737  43.019  10.719
42517W        W14046  41.304  36.556   3.605
42518W        W14047  36.120  21.976   2.815
42519W        W14048   0.028  24.235   2.680
42520W        W14049   0.521  21.202   4.124
42521W        W14050  35.876  25.608   3.212
42522W        W14051   3.961  20.721  13.805
42523W        W14052   7.288  29.472   4.716
42524W        W14053  10.244  35.912  12.874
42525W        W14054  23.666  41.513   4.663
42526W        W14055  17.607  20.118   1.831
42527W        W14056  38.239  30.617   3.748
42528W        W14057  14.367  39.688  12.428
42529W        W14058   8.457  10.200  14.946
42530W        W14059   8.806  43.006   5.147
42531W        W14060   3.251   6.753  13.227
42532W        W14061  26.615  19.074   2.141
42533W        W14062  14.300   9.639   0.019
42534W        W14063  41.898  27.873  10.244
42535W        W14064   3.620  11.891   3.119
42536W        W14065  44.553  26.173  14.372
42537W        W14066   6.886  26.204  11.589
42538W        W14067  31.083  23.217  11.160
42539W        W14068  18.979  10.426  14.849
42540W        W14069  41.358  44.293   0.657
42541W        W14070  36.989   5.396   3.630
42542W        W14071  29.474  41.778  11.139
42543W        W14072   6.865  42.348  10.618
42544W        W14073  23.813  40.467  14.813
42545W        W14074  38.080  30.034   3.758
42546W        W14075  17.314   1.373   2.650
42547W        W14076  29.068  34.675   1.728
42548W        W14077  18.623  27.086  10.989
42549W        W14078  26.683  43.820  14.488
42550W        W14079  32.652  21.288  14.767
42551W        W14080  26.532  42.627   3.595
42552W        W14081  22.541  18.633  14.885
42553W        W14082  13.384  14.850  14.715
42554W        W14083   7.086  16.328   1.254
42555W        W14084  41.381  13.205   1.679
42556W        W14085   3.753   6.787  13.283
42557W        W14086  23.089  32.595  14.850
42558W        W14087  37.922  41.261  12.654
42559W        W14088  17.650  20.877   2.109
42560W        W14089   5.492  37.474  13.127
42561W        W14090   8.764  12.563  11.152
42562W        W14091  12.770  36.170  14.367
42563W        W14092  13.367  37.261  13.832
42564W        W14093  24.179  38.466   4.833
42565W        W14094  43.302  13.249  14.382
42566W        W14095   4.797  41.496   3.245
42567W        W14096  26.027   3.378  13.386
42568W        W14097   0.406   4.736   3.473
42569W        W14098   6.129  39.028   5.030
42570W        W14099  42.380   9.298  11.892
42571W        W14100  30.041  22.897   4.221
42572W        W14101  21.556  31.738   2.057
42573W        W14102  16.993  30.213  11.632
42574W        W14103  12.371  17.023   3.212
42575W        W14104  32.422  29.835  12.445
42576W        W14105  32.635  44.283   1.830
42577W        W14106  27.370  27.609   4.236
42578W        W14107   0.237  36.183   3.249
42579W        W14108  11.547  13.118  14.402
42580W        W14109  19.558   5.841   0.800
42581W        W14110  28.503  14.977  11.976
42582W        W14111  38.226  36.574  11.959
42583W        W14112  41.994  39.445   3.064
42584W        W14113  22.699  34.659   1.765
42585W        W14114  10.873  23.697  13.382
42586W        W14115  13.804  23.246  12.178
42587W        W14116  27.392   8.097  11.933
42588W        W14117  25.910  13.248  14.825
42589W        W14118  25.812  15.347  11.782
42590W        W14119  41.494  39.062  10.616
42591W        W14120  19.796  16.866  12.525
42592W        W14121  40.928  12.178   0.064
42593W        W14122  23.860  37.316  13.026
42594W        W14123  13.145  25.179  14.973
42595W        W14124  36.781  32.127  14.094
42596W        W14125   6.210  21.986  11.034
42597W        W14126  19.268  36.914   2.188
42598W        W14127   9.720  30.566   0.725
42599W        W14128  13.304  29.945  12.186
42600W        W14129  29.192  25.228   3.234
42601W        W14130  32.376   1.415   1.932
42602W        W14131   7.818  19.656   4.576
42603W        W14132  11.304  37.968   3.129
42604W        W14133  31.703   2.747   3.693
42605W        W14134  21.410  42.833  10.082
42606W        W14135   4.159  28.697  11.202
42607W        W14136  23.395   3.863  12.434
42608W        W14137  26.287  41.678  12.064
42609W        W14138   1.033  34.689  11.686
42610W        W14139  43.501  25.687   3.420
42611W        W14140  18.173  38.476   0.175
42612W        W14141  28.144  32.095   3.109
42613W        W14142   4.904  24.869   1.764
42614W        W14143   3.304  33.596   1.203
42615W        W14144  37.010  15.593   2.743
42616W        W14145  43.924   9.863   3.887
42617W        W14146   1.654  15.723   3.187
42618W        W14147  32.578  25.057   2.468
42619W        W14148  14.308  30.661  14.438
42620W        W14149  31.870  43.316  11.132
42621W        W14150  25.603  29.457  11.975
42622W        W14151  17.103  19.049  11.137
42623W        W14152  31.145  38.438   2.942
42624W        W14153  42.875  37.154  10.708
42625W        W14154  20.897  19.566  14.721
42626W        W14155  17.139  25.265   5.113
42627W        W14156   7.648  36.315   4.299
42628W        W14157  39.993  24.721  13.889
42629W        W14158  37.995  14.755  11.605
42630W        W14159  14.888  34.026   1.784
42631W        W14160  15.804   1.293   3.566
42632W        W14161   7.458   2.823  11.385
42633W        W14162  21.993   3.815   0.754
42634W        W14163  26.472  29.478  12.367
42635W        W14164  30.162  25.584   4.412
42636W        W14165  24.821  32.438   0.757
42637W        W14166  37.380  12.858  14.950
42638W        W14167  44.868  27.514   2.677
42639W        W14168  35.642  32.482  12.016
42640W        W14169  44.427  37.937   4.642
42641W        W14170  28.461  34.839  12.822
42642W        W14171  35.607   7.966  12.530
42643W        W14172  24.975   1.401  14.431
42644W        W14173   6.090   0.919   2.398
42645W        W14174   8.625   1.259  14.499
42646W        W14175  21.795  18.336  13.596
42647W        W14176   3.309  21.944  12.589
42648W        W14177  32.623  32.492   4.194
42649W        W14178   5.803  30.373   3.274
42650W        W14179  13.229  29.579  11.164
42651W        W14180  19.223  14.327   0.644
42652W        W14181  10.828   5.188  14.502
42653W        W14182  12.474  13.123   2.796
42654W        W14183  27.020  23.168  14.427
42655W        W14184   4.058   0.622  13.065
42656W        W14185  30.545  25.908  11.148
42657W        W14186   2.848  29.027  13.284
42658W        W14187   6.503  38.077   1.253
42659W        W14188   4.202  30.525  14.488
42660W        W14189  37.745  43.335   2.685
42661W        W14190   7.748  19.305   2.711
42662W        W14191  28.577  32.354   3.221
42663W        W14192  16.783  11.601   3.695
42664W        W14193  24.713   0.408   2.366
42665W        W14194  14.343  30.439   4.889
42666W        W14195  13.805  44.577   3.999
42667W        W14196   2.876  16.238  12.373
42668W        W14197  24.643   8.186  14.399
42669W        W14198  15.498  35.096   4.754
42670W        W14199  21.732   9.262   0.145
42671W        W14200   9.724  24.066  14.954
42672W        W14201  35.547  35.647  13.878
42673W        W14202  32.593  15.097   3.839
42674W        W14203  21.528  16.670  13.873
42675W        W14204  24.462  17.511  14.481
42676W        W14205  36.028  32.226  14.871
42677W        W14206  17.450  32.587  11.037
42678W        W14207  40.695  11.889  11.173
42679W        W14208  10.745  44.019  12.572
42680W        W14209  28.945  25.845   0.207
42681W        W14210  21.599   6.966   4.116
42682W        W14211   3.799  11.827   2.628
42683W        W14212  27.266  39.251  12.491
42684W        W14213   4.121  13.362  11.169
42685W        W14214  38.261  38.793  11.151
42686W        W14215  37.970  32.894   0.093
42687W        W14216  36.326  43.766   3.558
42688W        W14217  24.670   3.929   1.896
42689W        W14218  34.411  31.141  12.684
42690W        W14219  14.374  28.487  10.467
42691W        W14220  29.472  40.687   2.789
42692W        W14221   6.191  31.619  11.627
42693W        W14222  10.855  33.095  11.075
42694W        W14223  42.347  19.225  12.799
42695W        W14224   0.042  29.628  11.028
42696W        W14225  15.211   1.400  13.885
42697W        W14226  12.265  12.030  11.281
42698W        W14227  23.445   9.657   3.648
42699W        W14228  34.377  43.940  12.585
42700W        W14229  26.038   5.362  14.303
42701W        W14230   1.653  36.580   4.153
42702W        W14231  25.717  12.323   0.803
42703W        W14232  24.071  22.980   1.716
42704W        W14233  33.786   9.224   0.315
42705W        W14234  33.858  39.117  14.950
42706W        W14235  36.876  19.311  11.228
42707W        W14236  22.016  37.159   3.887
42708W        W14237  27.741  24.497   2.327
42709W        W14238  34.124  20.739   3.848
42710W        W14239  26.913   1.274  14.449
42711W        W14240  11.729   1.975   2.359
42712W        W14241  29.413  37.023   2.342
42713W        W14242  14.156  43.273  14.977
42714W        W14243   0.243  24.682  12.078
42715W        W14244  30.938  44.238   2.193
42716W        W14245  12.007  20.749   0.026
42717W        W14246   5.814  20.324   1.209
42718W        W14247  33.133  13.997  13.322
42719W        W14248  42.482  25.121  13.592
42720W        W14249  24.961  41.070  13.831
42721W        W14250   1.801  41.071  11.634
42722W        W14251   8.576  14.397   0.587
42723W        W14252  28.007  14.039  12.143
42724W        W14253  27.021  12.070   3.040
42725W        W14254  29.226  37.619   3.109
42726W        W14255   6.773  29.605   3.605
42727W        W14256  40.091  44.218  10.742
42728W        W14257  39.676  41.948   2.340
42729W        W14258   5.903  28.131   0.041
42730W        W14259   7.400  40.037   3.335
42731W        W14260   0.688  29.494   2.357
42732W        W14261   0.172  21.630  11.448
42733W        W14262   3.691  37.713   4.097
42734W        W14263  11.658   3.183  12.614
42735W        W14264  21.012  39.092  14.861
42736W        W14265  15.973  14.963   1.616
42737W        W14266  13.954  25.717   4.360
42738W        W14267  18.692  20.021  13.477
42739W        W14268  10.828  43.294   5.102
42740W        W14269   0.040   3.934   0.356
42741W        W14270  17.127  38.899   0.882
42742W        W14271  23.246  21.541   4.706
42743W        W14272   8.408  28.911   4.152
42744W        W14273   1.109  23.644   2.304
42745W        W14274  42.462  35.600   4.657
42746W        W14275   6.375  29.272   1.317
42747W        W14276  25.782  23.012  10.983
42748W        W14277   6.717  11.594  14.088
42749W        W14278  18.873   4.591  14.287
42750W        W14279  16.601  17.273   3.575
42751W        W14280  41.494   5.175   4.148
42752W        W14281  42.352  42.096   4.024
42753W        W14282  26.131  24.179   3.159
42754W        W14283  30.320  19.719  11.352
42755W        W14284  38.948  11.127  10.603
42756W        W14285  22.080  35.257  11.983
42757W        W14286   0.266  43.869  11.806
42758W        W14287  43.440   2.820   4.101
42759W        W14288  17.610   0.313  11.986
42760W        W14289  27.607  33.876   3.030
42761W        W14290   9.775  16.349  10.696
42762W        W14291  44.758   6.182  14.807
42763W        W14292  29.137   5.720  14.632
42764W        W14293  17.225  19.988  12.069
42765W        W14294  17.036  29.620   1.569
42766W        W14295  18.430  20.681   2.777
42767W        W14296  43.814   3.070   1.728
42768W        W14297  24.756  24.045  13.807
42769W        W14298  17.303   5.808   0.338
42770W        W14299  15.024  11.158   4.118
42771W        W14300   5.021  26.749  14.400
42772W        W14301  17.433  15.184   2.756
42773W        W14302  44.085   9.864   2.082
42774W        W14303  31.551   9.767   0.357
42775W        W14304   5.802   0.625   4.812
42776W        W14305   1.738  11.115   3.408
42777W        W14306  25.250  24.672   2.656
42778W        W14307  21.436  21.444  11.738
42779W        W14308  20.287  13.299   2.532
42780W        W14309   7.963  10.710   3.681
42781W        W14310  41.138  40.578  14.596
42782W        W14311   2.200  16.810  13.489
42783W        W14312  43.373   6.209  13.016
42784W        W14313  30.958  20.269   4.090
42785W        W14314   8.232   5.397   3.457
42786W        W14315  26.751  40.627   3.723
42787W        W14316   8.817  14.857   0.877
42788W        W14317  19.950  26.444   1.839
42789W        W14318  43.869   8.624  12.073
42790W        W14319  16.667  24.233   1.427
42791W        W14320  32.139  23.735  11.024
42792W        W14321   4.347  30.937   2.871
42793W        W14322  15.861  44.341  10.711
42794W        W14323   0.674  16.835  14.395
42795W        W14324  42.315  27.091   4.481
42796W        W14325  44.506  36.505   1.430
42797W        W14326  26.147  40.282   0.406
42798W        W14327  21.181   5.880   2.851
42799W        W14328  29.493  12.641  13.029
42800W        W14329   4.469  19.266  12.464
42801W        W14330  17.995  34.636  13.939
42802W        W14331  17.728  24.538  12.106
42803W        W14332  20.846  35.068   3.069
42804W        W14333   2.338  16.126  14.786
42805W        W14334  23.758  15.219  13.474
42806W        W14335  13.226   0.393  11.576
42807W        W14336  22.154  22.028  11.386
42808W        W14337  23.453  11.787   4.299
42809W        W14338   4.859  39.840  12.583
42810W        W14339   4.046  24.987   1.485
42811W        W14340   7.383  17.647   2.432
42812W        W14341  24.028  32.530  11.057
42813W        W14342  12.781  39.806  11.937
42814W        W14343  41.511   8.312   3.537
42815W        W14344  44.281  31.962   0.717
42816W        W14345  14.188  16.607  12.991
42817W        W14346  25.065  20.278   1.023
42818W        W14347  14.348   5.237  14.063
42819W        W14348  30.414  35.626   1.652
42820W        W14349   2.410  14.285  11.280
42821W        W14350  17.327  41.446  14.850
42822W        W14351  26.660  39.959   2.069
42823W        W14352  38.756  43.761   1.450
42824W        W14353  41.760  28.626  13.625
42825W        W14354  37.943  24.134  12.591
42826W        W14355  18.098   5.962  11.552
42827W        W14356   8.273  34.635   4.626
42828W        W14357   9.346   6.346  10.739
42829W        W14358  15.717  37.039  11.275
42830W        W14359   0.429  25.661  11.848
42831W        W14360   3.376  30.085  12.875
42832W        W14361  18.789  19.246   0.260
42833W        W14362  23.789  44.825  12.364
42834W        W14363  44.557  15.778   4.651
42835W        W14364  11.907   6.425   0.986
42836W        W14365   5.494  28.583   1.702
42837W        W14366  29.757  13.551   1.383
42838W        W14367   8.932  16.191   3.134
42839W        W14368  10.179  22.486  12.305
42840W        W14369  34.986   3.742   0.898
42841W        W14370  35.986   0.822  13.363
42842W        W14371  28.550  43.903   3.572
42843W        W14372   1.469  27.237   4.553
42844W        W14373  23.607  14.174   4.584
42845W        W14374  23.254  18.024   4.114
42846W        W14375  18.309  33.428   4.107
42847W        W14376   3.034  13.545   2.167
42848W        W14377  13.069  31.490  10.690
42849W        W14378  11.511  19.045  11.208
42850W        W14379  16.148   6.278   2.211
42851W        W14380   4.961  26.256  10.736
42852W        W14381  32.686  40.308  11.078
42853W        W14382  40.350  12.636  11.710
42854W        W14383  17.608  28.456   0.801
42855W        W14384  41.657  19.898   0.180
42856W        W14385  32.106  30.188   4.597
42857W        W14386   0.644  35.336   4.132
42858W        W14387  29.137   1.369   1.233
42859W        W14388  12.760  17.542  14.909
42860W        W14389  32.383  11.482  11.567
42861W        W14390  39.287   5.735   2.370
42862W        W14391  33.222  17.240  12.348
42863W        W14392  39.108   4.662  12.382
42864W        W14393   0.489   1.952  14.748
42865W        W14394  32.191  13.304   1.805
42866W        W14395  38.210  40.595  11.904
42867W        W14396  24.708   5.726  12.968
42868W        W14397  23.176  26.673  12.132
42869W        W14398  31.924  27.483   4.189
42870W        W14399  40.996  28.435  11.416
42871W        W14400   9.814  41.328   0.710
42872W        W14401  38.311  31.437  12.038
42873W        W14402  38.470   6.776  14.295
42874W        W14403  30.240  43.241   0.324
42875W        W14404  32.607  36.851  12.370
42876W        W14405   1.933   3.481   3.126
42877W        W14406  16.087  19.688  12.851
42878W        W14407  16.844  27.475   1.745
42879W        W14408  23.080  34.377   2.659
42880W        W14409   2.087  30.706   2.803
42881W        W14410  20.407  25.678   2.820
42882W        W14411  32.592  35.981  14.727
42883W        W14412  17.617  44.339  14.879
42884W        W14413  29.830  11.722   1.675
42885W        W14414   1.831  15.029   1.182
42886W        W14415  19.677   1.010  12.959
42887W        W14416  39.305  33.422   3.092
42888W        W14417  30.020  43.410  12.697
42889W        W14418  13.816  33.399  13.595
42890W        W14419  19.313   3.315   2.859
42891W        W14420  37.888  44.047   1.236
42892W        W14421  20.633  18.060   3.612
42893W        W14422  10.867  33.984  10.760
42894W        W14423   6.424   0.330  10.110
42895W        W14424  31.992  33.473  10.938
42896W        W14425  28.378  32.618  14.822
42897W        W14426  27.054  20.521   3.199
42898W        W14427  36.402  27.424   1.898
42899W        W14428  40.806  32.812   4.162
42900W        W14429  16.571  20.839   4.418
42901W        W14430   8.083  19.823  10.544
42902W        W14431  10.883  35.247  14.705
42903W        W14432  14.013  38.075   0.258
42904W        W14433   2.041  37.036   1.481
42905W        W14434  25.625  28.187  14.806
42906W        W14435  30.696  26.656  11.635
42907W        W14436  42.467  24.009   1.376
42908W        W14437  10.844  10.850  11.491
42909W        W14438  14.587  35.436  11.224
42910W        W14439  16.784  25.872  11.045
42911W        W14440  17.071  28.294  10.714
42912W        W14441  18.812  12.198  13.840
42913W        W14442  10.686  27.023  12.398
42914W        W14443  35.905   6.319  13.799
42915W        W14444  22.149   7.858  10.521
42916W        W14445  26.459  10.900  10.747
42917W        W14446  42.432  38.913  10.717
42918W        W14447  12.326  10.442  11.512
42919W        W14448   8.822   0.680  14.935
42920W        W14449  31.577  14.873  13.264
42921W        W14450  17.028  42.340   0.492
42922W        W14451  33.678   5.388   3.593
42923W        W14452  14.349  40.882  12.978
42924W        W14453  28.822  24.368  13.514
42925W        W14454   6.264   6.697  11.202
42926W        W14455   6.864  36.087   4.586
42927W        W14456  33.636   7.173   0.872
42928W        W14457  19.233  12.080  11.097
42929W        W14458  12.275  15.022  11.224
42930W        W14459  44.601  24.881  11.089
42931W        W14460  13.074   2.437   4.253
42932W        W14461  24.467  41.277   1.517
42933W        W14462  18.322  25.646   2.632
42934W        W14463  42.461  14.109  11.599
42935W        W14464   1.381  21.939  12.762
42936W        W14465  13.273  34.301  12.836
42937W        W14466  39.891  22.527  10.565
42938W        W14467   3.914  44.605  11.542
42939W        W14468  29.609  41.626   1.816
42940W        W14469  29.608  35.908   4.434
42941W        W14470  44.417  15.875  13.041
42942W        W14471  22.025   3.235  12.505
42943W        W14472  21.112  13.108   2.474
42944W        W14473  12.538  16.796  14.402
42945W        W14474  36.400   1.944   4.496
42946W        W14475  36.091  16.319   2.072
42947W        W14476  25.720  25.671  11.240
42948W        W14477  36.627  22.586  14.276
42949W        W14478  18.645  11.631  10.373
42950W        W14479   7.091  39.675   3.128
42951W        W14480  39.369  20.893   2.345
42952W        W14481  13.742  13.601   2.796
42953W        W14482   3.407  30.468  13.825
42954W        W14483  31.733  29.533   0.864
42955W        W14484  38.962  35.516  14.253
42956W        W14485  12.890  36.876   1.423
42957W        W14486  32.361   6.437   1.351
42958W        W14487  19.481   5.321   0.789
42959W        W14488  24.433  18.953  12.097
42960W        W14489  27.903  17.469   3.707
42961W        W14490  25.507  33.135   0.955
42962W        W14491  19.831  15.478  13.289
42963W        W14492  41.526   1.375  14.823
42964W        W14493  43.811   7.264  10.647
42965W        W14494  18.740   0.242  11.464
42966W        W14495  16.122  39.815   3.601
42967W        W14496  19.929   9.151  11.864
42968W        W14497  19.769  43.039  11.887
42969W        W14498   0.289  34.491   1.135
42970W        W14499  31.146   5.921   4.551
42971W        W14500   6.643  15.772  11.005
42972W        W14501  43.560  13.534   2.252
42973W        W14502  44.954   7.212   1.901
42974W        W14503   4.373   8.083  12.922
42975W        W14504  20.277  14.769   3.141
42976W        W14505  23.150  32.569   2.212
42977W        W14506  15.798  35.946   4.681
42978W        W14507  32.833  19.596   4.863
42979W        W14508  32.276  37.385   1.425
42980W        W14509   9.411  33.879   3.679
42981W        W14510  38.503  39.033   4.109
42982W        W14511  16.973  25.056  12.053
42983W        W14512   6.581  23.779  14.592
42984W        W14513  39.479  32.685  13.455
42985W        W14514  26.301  12.752   3.618
42986W        W14515  41.411  20.216   2.579
42987W        W14516  29.136  24.543   3.649
42988W        W14517  38.043  19.997  10.714
42989W        W14518  28.665  22.094   0.813
42990W        W14519   9.858  13.829  13.108
42991W        W14520  42.059  13.906   3.281
42992W        W14521  21.831  35.582   0.441
42993W        W14522  19.710  33.962  12.869
42994W        W14523  10.747  14.296   2.126
42995W        W14524  30.856  11.334   4.381
42996W        W14525  18.366  18.198   3.637
42997W        W14526  38.414  38.031   2.425
42998W        W14527  19.249   5.753  12.074
42999W        W14528  15.137  14.057   4.945
43000W        W14529  33.118  34.771  13.809
43001W        W14530   9.459  12.677  13.252
43002W        W14531  13.698  40.348   2.954
43003W        W14532   5.158  19.821  12.861
43004W        W14533  21.170  42.699   2.037
43005W        W14534   2.918  40.761  14.842
43006W        W14535  32.629  43.759  14.441
43007W        W14536  24.248  10.883  12.569
43008W        W14537  32.997  27.648   3.742
43009W        W14538   2.265  20.684  10.788
43010W        W14539  13.841  13.114  13.596
43011W        W14540  11.570  42.307  13.063
43012W        W14541  27.152  20.168   1.620
43013W        W14542  14.358   3.296  10.568
43014W        W14543   9.861  13.853  14.468
43015W        W14544  30.737   5.907  14.384
43016W        W14545  35.846  31.463   4.680
43017W        W14546  18.767  32.524  12.861
43018W        W14547  21.179  16.093   2.192
43019W        W14548  35.367   5.952   0.684
43020W        W14549  21.197  36.316   4.146
43021W        W14550  42.896  34.524  14.560
43022W        W14551  18.282  19.201  14.753
43023W        W14552  44.836  24.986   3.165
43024W        W14553  37.658  23.664  13.131
43025W        W14554  16.140  16.886   0.434
43026W        W14555  26.511  23.719  11.091
43027W        W14556  19.826  13.511   1.974
43028W        W14557   3.246  28.935  10.841
43029W        W14558   1.007  41.047  12.866
43030W        W14559  33.923   3.285   3.206
43031W        W14560  41.032  22.652   2.807
43032W        W14561  30.983  44.899  13.530
43033W        W14562  33.955  28.673   1.299
43034W        W14563  23.740  18.512  14.948
43035W        W14564  15.183  32.356   1.826
43036W        W14565  30.273   2.137  14.686
43037W        W14566  36.339  27.699  13.961
43038W        W14567  35.914  11.334  10.693
43039W        W14568  13.161   0.494   2.220
43040W        W14569  30.947  37.526   0.921
43041W        W14570  33.411  26.841   3.257
43042W        W14571  14.877  30.596  11.105
43043W        W14572  22.937  43.803   2.806
43044W        W14573  36.400  27.227  11.116
43045W        W14574  38.024   3.524   2.388
43046W        W14575  25.461  13.217   1.437
43047W        W14576   1.490  19.814  12.582
43048W        W14577   3.963   6.016   0.729
43049W        W14578  25.163   5.340  11.001
43050W        W14579  28.709  42.450  14.251
43051W        W14580  44.587  35.480   0.628
43052W        W14581  40.100  24.959   4.651
43053W        W14582  34.793  16.275  13.079
43054W        W14583  15.633  28.737  10.743
43055W        W14584  40.026  10.848  11.254
43056W        W14585  23.978  17.242  11.409
43057W        W14586   1.045  25.619   2.766
43058W        W14587  23.412   0.234  14.381
43059W        W14588  23.627  38.392  12.624
43060W        W14589  31.622   5.439  12.984
43061W        W14590  24.197  39.938   0.797
43062W        W14591  13.806  14.488   3.422
43063W        W14592  13.651  41.254  11.651
43064W        W14593  20.027   1.270   3.325
43065W        W14594  39.930  15.215   0.964
43066W        W14595  29.792  38.013  10.803
43067W        W14596  17.802  21.806  11.123
43068W        W14597  15.551  13.038  11.186
43069W        W14598  37.277  21.563  12.773
43070W        W14599  42.275  20.214  12.598
43071W        W14600  38.527  23.624   0.397
43072W        W14601  38.394  17.095   0.331
43073W        W14602   3.034  33.840   3.261
43074W        W14603  43.529   8.860  14.518
43075W        W14604   6.227  23.466  12.499
43076W        W14605  11.156  23.490   3.698
43077W        W14606   9.814   5.927   2.814
43078W        W14607  22.810  27.580  11.052
43079W        W14608   8.277  10.924   1.762
43080W        W14609  14.314  17.952  11.469
43081W        W14610  26.150  10.588  11.646
43082W        W14611   8.773  16.097  12.769
43083W        W14612  39.550  34.684   0.031
43084W        W14613  27.166  24.588   3.577
43085W        W14614  41.990  39.116  12.718
43086W        W14615  25.531  15.331  10.496
43087W        W14616  42.413  25.782  10.750
43088W        W14617  25.637  43.556   0.788
43089W        W14618  30.035  29.638   0.213
43090W        W14619  31.450  15.627   3.925
43091W        W14620  42.179  41.257  12.182
43092W        W14621  16.313  37.633  10.294
43093W        W14622  44.242  31.861   3.261
43094W        W14623  20.726  34.846   0.718
43095W        W14624  22.398  43.380  14.811
43096W        W14625  18.797  17.597  11.120
43097W        W14626  26.546  36.894   3.139
43098W        W14627  25.734  17.495  14.699
43099W        W14628  22.100  36.801  12.022
43100W        W14629  10.681  17.128   0.295
43101W        W14630  42.981  34.344  12.585
43102W        W14631  18.697  17.103  10.993
43103W        W14632  17.166  42.290  11.076
43104W        W14633  33.076  36.471  13.768
43105W        W14634  44.760  27.054  13.102
43106W        W14635  16.515  42.323   0.470
43107W        W14636  25.915  33.065   1.769
43108W        W14637  23.043  32.814  11.840
43109W        W14638  35.866   1.772  13.880
43110W        W14639   5.391  20.181   4.228
43111W        W14640  40.294  42.032   2.095
43112W        W14641  14.625  23.478  11.671
43113W        W14642  42.832  25.918   1.366
43114W        W14643   8.854  34.820  10.442
43115W        W14644  14.160  41.497   4.272
43116W        W14645   1.066   8.276   0.057
43117W        W14646  38.538  16.738   2.593
43118W        W14647  29.048  35.463   0.156
43119W        W14648  16.614  31.575  13.322
43120W        W14649  16.855  40.641   3.201
43121W        W14650  13.340  37.872   3.282
43122W        W14651  19.192   8.234   2.871
43123W        W14652  37.607   0.813   4.254
43124W        W14653  13.577  30.325  10.912
43125W        W14654  37.709  15.588  12.654
43126W        W14655  13.065  40.410  11.635
43127W        W14656   0.407  10.261  13.763
43128W        W14657  25.505  12.212  13.554
43129W        W14658   9.057  27.516   2.142
43130W        W14659  29.382  34.756   0.440
43131W        W14660   6.794  39.843  12.921
43132W        W14661  43.270  24.108  14.412
43133W        W14662   1.889   2.944   0.808
43134W        W14663  25.435  26.478   0.530
43135W        W14664   1.796  33.596  11.327
43136W        W14665   7.928  15.996  12.395
43137W        W14666   1.475   1.364   0.765
43138W        W14667  20.546  23.639  12.518
43139W        W14668  14.130   2.877   1.847
43140W        W14669  40.762  23.483  11.294
43141W        W14670   6.349  18.641   1.764
43142W        W14671  15.228  19.634  14.478
43143W        W14672  44.759  37.104  12.827
43144W        W14673  39.049  30.583   0.758
43145W        W14674  12.673  42.264   4.220
43146W        W14675  29.644  40.557  11.619
43147W        W14676  10.334   5.693  11.404
43148W        W14677  42.411  39.122  13.038
43149W        W14678  31.999  38.381  13.180
43150W        W14679   4.981  19.191  12.066
43151W        W14680  19.756  13.573   3.391
43152W        W14681  24.534  17.187   1.673
43153W        W14682   1.837  28.192   0.603
43154W        W14683  35.231  16.110   1.894
43155W        W14684   3.404  41.603  10.935
43156W        W14685  32.482   1.726   3.820
43157W        W14686  28.670  10.977  14.411
43158W        W14687   3.437   7.589   3.728
43159W        W14688  25.617  22.226  13.465
43160W        W14689  17.632   0.227   4.921
43161W        W14690  43.745   0.860   1.840
43162W        W14691  30.094  30.233   1.787
43163W        W14692  30.573  22.000  13.572
43164W        W14693  30.611  26.698  10.269
43165W        W14694   4.640   9.810   2.617
43166W        W14695  34.560  39.098   2.248
43167W        W14696  34.930  36.288  13.965
43168W        W14697  39.538   4.403  13.952
43169W        W14698   1.419  42.498  13.724
43170W        W14699  26.423   7.987   0.233
43171W        W14700  28.905  26.377   4.293
43172W        W14701  25.992  30.507  10.722
43173W        W14702  16.315  21.703   3.996
43174W        W14703   1.357  31.353  13.537
43175W        W14704  32.519  10.553  12.487
43176W        W14705  14.589  24.507  14.013
43177W        W14706  27.558  11.239   4.604
43178W        W14707  38.046  18.771  13.075
43179W        W14708  22.032   3.195   2.274
43180W        W14709  36.076   8.469  12.029
43181W        W14710  32.532  17.826  14.255
43182W        W14711   9.170  24.637   2.047
43183W        W14712  33.577  43.579   0.468
43184W        W14713  19.044  22.790   0.874
43185W        W14714  23.221  38.749   2.638
43186W        W14715  38.889  18.157  12.444
43187W        W14716  25.376  28.858  13.835
43188W        W14717  16.842   4.926  14.996
43189W        W14718  26.933   6.548  11.018
43190W        W14719  28.122   7.164  11.512
43191W        W14720   4.853   0.014  13.156
43192W        W14721  30.981   9.869   3.403
43193W        W14722  31.022  28.958   1.236
43194W        W14723  30.072  32.958  11.755
43195W        W14724  33.056   4.278  13.374
43196W        W14725  40.827  11.380  12.994
43197W        W14726  35.101  24.993  14.098
43198W        W14727   3.272  39.678  11.199
43199W        W14728  38.020  18.580  14.803
43200W        W14729  12.703  44.078  12.652
43201W        W14730  10.337  34.372  13.012
43202W        W14731  44.367   2.281   3.430
43203W        W14732  37.939   2.723   0.844
43204W        W14733   7.331  36.850  14.289
43205W        W14734  24.742  38.929   3.725
43206W        W14735  14.951  33.352  14.288
43207W        W14736  16.130  31.970   3.879
43208W        W14737  37.808  26.046  11.048
43209W        W14738  31.008  26.816  11.191
43210W        W14739  13.775  25.014  14.977
43211W        W14740  34.115  13.579   3.107
43212W        W14741   6.367  16.219   3.275
43213W        W14742   0.496  33.853   3.931
43214W        W14743  39.150   4.652   0.789
43215W        W14744  14.393  24.000  10.829
43216W        W14745  41.466  14.390  10.636
43217W        W14746  40.698  30.165  12.474
43218W        W14747  39.295  23.975  14.375
43219W        W14748  43.162  41.619   1.830
43220W        W14749   1.512   6.231  14.968
43221W        W14750  31.589  22.918   1.307
43222W        W14751  32.938  36.298  10.760
43223W        W14752  28.643  32.980   4.215
43224W        W14753   6.740  29.189   3.307
43225W        W14754  10.810  14.131  14.310
43226W        W14755  36.290   5.722   0.447
43227W        W14756  19.201  14.661   2.332
43228W        W14757  41.081  33.963   2.890
43229W        W14758  27.647   4.449  14.043
43230W        W14759   0.148  19.088   4.183
43231W        W14760  14.721  21.527   3.668
43232W        W14761   3.834   7.023  10.660
43233W        W14762   8.865   5.421  13.307
43234W        W14763  20.724   3.699   2.659
43235W        W14764  21.811  16.684  14.319
43236W        W14765  11.552  17.674  14.320
43237W        W14766  21.285  36.022   0.941
43238W        W14767  43.761  11.585   1.717
43239W        W14768  35.390  31.882   2.316
43240W        W14769  15.420   9.727  11.148
43241W        W14770  36.143  12.573   1.212
43242W        W14771  13.524  44.072   1.274
43243W        W14772  35.863  23.521  11.612
43244W        W14773  24.605   7.164  12.806
43245W        W14774  26.605  43.679   2.350
43246W        W14775   4.835  42.707  13.424
43247W        W14776  38.775  35.834  11.671
43248W        W14777  42.767   0.130   1.504
43249W        W14778  40.733   2.021  13.328
43250W        W14779   1.510   3.713   0.505
43251W        W14780  38.837  20.568   0.136
43252W        W14781  35.870  14.738  14.247
43253W        W14782   6.916   9.244  14.847
43254W        W14783  38.062  21.069   0.969
43255W        W14784  32.787  36.582  11.597
43256W        W14785  29.502  28.992  13.444
43257W        W14786   4.272  40.724   4.513
43258W        W14787  37.569   7.814  14.718
43259W        W14788   2.872  22.250   4.345
43260W        W14789  19.988  19.719  12.832
43261W        W14790  18.586  18.690   2.285
43262W        W14791  12.644  13.364  12.201
43263W        W14792  30.465  44.908  10.432
43264W        W14793  37.586  31.110   3.226
43265W        W14794  21.468  32.498   1.433
43266W        W14795   2.744  42.817   4.433
43267W        W14796  29.020  41.711  14.024
43268W        W14797  13.174   0.395   0.980
43269W        W14798  20.758  19.210  13.596
43270W        W14799  35.018  24.512   1.372
43271W        W14800  32.899   8.470  14.802
43272W        W14801   8.647  28.875  12.210
43273W        W14802   1.584  35.817  11.467
43274W        W14803  17.643  19.360   2.302
43275W        W14804  20.121   6.950   3.614
43276W        W14805  18.345  25.133  13.049
43277W        W14806  31.940  10.209   1.349
43278W        W14807  11.600  37.974  12.303
43279W        W14808   5.210   2.687  12.091
43280W        W14809   7.371  27.011   0.928
43281W        W14810  32.959  32.632  13.928
43282W        W14811  31.600  34.936   0.644
43283W        W14812  15.601  36.899   4.697
43284W        W14813  20.994   0.288   4.569
43285W        W14814   5.988  32.380   1.937
43286W        W14815  11.593  37.063  14.985
43287W        W14816   8.653   0.047   3.931
43288W        W14817  13.358  34.027   3.350
43289W        W14818  13.658  41.780  12.470
43290W        W14819   0.205  40.862   2.760
43291W        W14820  15.214   4.780   4.171
43292W        W14821  16.164  29.658   0.279
43293W        W14822  43.943  14.193  13.107
43294W        W14823  36.018  15.359   0.257
43295W        W14824  44.712  31.961  13.062
43296W        W14825   4.221  37.130   2.888
43297W        W14826   3.638  36.860  13.527
43298W        W14827  42.436  43.923  12.539
43299W        W14828  12.354  23.155  11.178
43300W        W14829   4.453  33.934   0.040
43301W        W14830  35.041  10.919   2.235
43302W        W14831  13.656   6.097   1.345
43303W        W14832  21.589  13.616  11.533
43304W        W14833  28.834  12.076   4.178
43305W        W14834  44.522   4.250  11.664
43306W        W14835  27.148  16.096  13.099
43307W        W14836   3.317   7.353  11.550
43308W        W14837   1.272  15.632  13.734
43309W        W14838   0.830  25.427  14.007
43310W        W14839  21.297  10.202  12.616
43311W        W14840  17.790  43.076  10.958
43312W        W14841  12.399  11.645  10.982
43313W        W14842  42.391  11.339  12.133
43314W        W14843  31.010   0.640   0.910
43315W        W14844  39.689  23.520   3.607
43316W        W14845  26.216   3.871   1.915
43317W        W14846  32.404  36.872  11.904
43318W        W14847   3.358  40.315  12.503
43319W        W14848   0.965  38.788   0.946
43320W        W14849   2.940  21.707   4.151
43321W        W14850  34.679  33.102  14.723
43322W        W14851  36.341  26.412   0.702
43323W        W14852  21.245  40.791   0.296
43324W        W14853  15.195  21.019  11.561
43325W        W14854   6.802  38.832   3.240
43326W        W14855  26.105  34.877  13.134
43327W        W14856  24.119  42.954  13.243
43328W        W14857   6.672   2.376  11.429
43329W        W14858   6.857  38.138   2.173
43330W        W14859  15.170   9.856   0.378
43331W        W14860   1.460  24.696  12.551
43332W        W14861  11.309   5.881  12.525
43333W        W14862   4.793   5.466  10.544
43334W        W14863   7.221  32.460   4.125
43335W        W14864   2.751  30.678   4.176
43336W        W14865  15.206   5.351   3.116
43337W        W14866  13.132  32.198   3.302
43338W        W14867  16.394  37.277  14.458
43339W        W14868  41.993  24.814   3.414
43340W        W14869  44.722  26.237   2.622
43341W        W14870  39.011  18.262  13.820
43342W        W14871  17.852   0.425   2.646
43343W        W14872  31.670  36.816   1.847
43344W        W14873  22.637  40.708   0.441
43345W        W14874  23.214  32.051  11.205
43346W        W14875  15.297  38.945   2.263
43347W        W14876   0.894   1.261  14.828
43348W        W14877  19.424  43.938  11.035
43349W        W14878  27.199   1.990   3.543
43350W        W14879  34.093   2.050  14.113
43351W        W14880   3.714  40.472  14.182
43352W        W14881   8.867   3.902   4.064
43353W        W14882  38.108  22.119   2.077
43354W        W14883  24.430  43.913  11.169
43355W        W14884  30.787   5.692  12.703
43356W        W14885  41.444  16.661   0.584
43357W        W14886  24.585  39.022  10.698
43358W        W14887  21.817  18.755  12.596
43359W        W14888  43.298  36.468  11.146
43360W        W14889  21.741   3.483   1.424
43361W        W14890  44.704  27.536   0.703
43362W        W14891  16.404  27.356   1.429
43363W        W14892  10.153  39.454   3.765
43364W        W14893  33.042  42.308   4.441
43365W        W14894  14.537  44.943   3.640
43366W        W14895   6.837  10.298  11.504
43367W        W14896  41.072   9.715   3.266
43368W        W14897   4.279  41.285   0.479
43369W        W14898  22.780  11.679   3.648
43370W        W14899  42.345   7.330  11.683
43371W        W14900   8.448  13.813   2.416
43372W        W14901  43.327  39.849   1.634
43373W        W14902   6.832  12.568  13.305
43374W        W14903   9.944   7.714   2.600
43375W        W14904  24.619  29.369   2.424
43376W        W14905  34.455  16.072   1.378
43377W        W14906  43.723  33.322  14.035
43378W        W14907  13.405  33.501   2.795
43379W        W14908   6.811  26.428   0.545
43380W        W14909  29.221  16.628   1.792
43381W        W14910  42.965   1.217   3.340
43382W        W14911   1.283  44.571  14.073
43383W        W14912   4.466   8.414  12.510
43384W        W14913  13.312  14.397  11.580
43385W        W14914  19.925  16.448  11.128
43386W        W14915  34.434  21.794  14.419
43387W        W14916   3.335  23.633   2.144
43388W        W14917  19.093  14.088  11.553
43389W        W14918  11.534  41.478  10.769
43390W        W14919  23.482  16.667  12.089
43391W        W14920  10.249  13.943  13.497
43392W        W14921  34.322   9.397  13.023
43393W        W14922   0.092  16.800   4.972
43394W        W14923  41.932  43.971  12.571
43395W        W14924  13.167   7.095   2.679
43396W        W14925   4.430   4.106   4.045
43397W        W14926   4.643  28.091  14.491
43398W        W14927  32.426  38.785  14.795
43399W        W14928   9.772  23.677   1.779
43400W        W14929  38.701  31.681   0.151
43401W        W14930  39.583  42.980  12.468
43402W        W14931  19.994   7.113   2.154
43403W        W14932   5.946  13.336   0.843
43404W        W14933  14.717  16.049   3.214
43405W        W14934  43.574  30.602  10.730
43406W        W14935  34.209  21.401   1.306
43407W        W14936  10.305  23.040  12.969
43408W        W14937  20.052  10.060   1.136
43409W        W14938  13.702   4.791  11.774
43410W        W14939   4.217   2.443  14.025
43411W        W14940   5.236  24.611   1.430
43412W        W14941  15.058   0.910   3.718
43413W        W14942  10.155  34.670  11.202
43414W        W14943  28.580  42.837  12.289
43415W        W14944   2.941   9.057   3.647
43416W        W14945  40.193   7.715  14.345
43417W        W14946  30.453  28.733   2.692
43418W        W14947  35.622  28.092   1.299
43419W        W14948  17.122   0.995  11.381
43420W        W14949   9.066  17.934   3.759
43421W        W14950  12.696  11.621   2.228
43422W        W14951  12.647  25.261   0.177
43423W        W14952  15.545  37.806  13.940
43424W        W14953   9.854  12.710   3.330
43425W        W14954   6.196  39.941   4.635
43426W        W14955  37.972  16.752   1.903
43427W        W14956  17.598  38.349  13.802
43428W        W14957  24.252  23.247   0.041
43429W        W14958  41.915  25.383  12.961
43430W        W14959   3.456  28.023   4.301
43431W        W14960  44.533  33.381   1.241
43432W        W14961   0.219  10.126   4.662
43433W        W14962  23.163  24.198   3.743
43434W        W14963  28.911  20.073  14.735
43435W        W14964  28.940  38.533  12.444
43436W        W14965  25.189  25.529   2.530
43437W        W14966  27.919  25.653   1.357
43438W        W14967  22.780  11.161  11.616
43439W        W14968   2.167  10.414   0.412
43440W        W14969   8.484  35.216  12.567
43441W        W14970  28.330   5.722  10.552
43442W        W14971   5.905  36.784  11.426
43443W        W14972  40.805  44.997   3.750
43444W        W14973  15.806   1.028   0.753
43445W        W14974  18.141   6.867   0.042
43446W        W14975  10.328  17.152   4.621
43447W        W14976  30.138  38.807  10.691
43448W        W14977  36.635  16.561  13.874
43449W        W14978   4.242  40.349  14.315
43450W        W14979  11.590  41.170  10.267
43451W        W14980  35.905   1.012   3.679
43452W        W14981   8.942  23.509   1.906
43453W        W14982  11.857  37.765  11.528
43454W        W14983   2.727  42.654   4.937
43455W        W14984  36.671   9.700   1.363
43456W        W14985  22.896  32.126  14.835
43457W        W14986   8.610  43.331  13.148
43458W        W14987  31.225  39.183  11.464
43459W        W14988  31.634   1.446   0.790
43460W        W14989  13.163   9.411  11.146
43461W        W14990  23.617  37.125   0.359
43462W        W14991  21.275   3.417  12.945
43463W        W14992  37.751   6.926  14.038
43464W        W14993  20.290  15.520   4.222
43465W        W14994  10.081  34.552  14.921
43466W        W14995   1.900  25.021   3.239
43467W        W14996  27.508  40.036  11.602
43468W        W14997  20.961  20.572   3.294
43469W        W14998  31.158  30.846  13.852
43470W        W14999  42.587   4.762   4.062
43471W        W15000  36.451   2.919  14.012
43472W        W15001  29.005   4.802   3.824
43473W        W15002  34.339  42.119   4.258
43474W        W15003  33.606  22.361  14.442
43475W        W15004  22.646  12.848   2.771
43476W        W15005  15.618  23.181  11.435
43477W        W15006  38.630   1.189   4.866
43478W        W15007  42.890  27.532   3.938
43479W        W15008  44.103   0.095  11.728
43480W        W15009   1.239  33.383  14.341
43481W        W15010  27.109  41.480   2.123
43482W        W15011   1.409  24.948   3.018
43483W        W15012   4.823  25.072  10.191
43484W        W15013  25.457  34.421   3.199
43485W        W15014  29.031  21.822  12.983
43486W        W15015  28.501  25.545  12.545
43487W        W15016  34.309   7.198  11.787
43488W        W15017  39.021  21.550   0.003
43489W        W15018  29.569  20.605  14.432
43490W        W15019  22.395   4.401  13.081
43491W        W15020  24.454  20.261   3.227
43492W        W15021  40.379  10.396  14.940
43493W        W15022  44.565   4.411   2.591
43494W        W15023   3.121  20.645   0.032
43495W        W15024  16.681   0.301   3.337
43496W        W15025   1.871  42.267  12.375
43497W        W15026  32.698  11.780  11.225
43498W        W15027  14.655  21.229  13.894
43499W        W15028  33.529   7.215  11.185
43500W        W15029  42.188  23.574   1.438
43501W        W15030  15.139  19.051   0.887
43502W        W15031  12.703  34.347   2.620
43503W        W15032  17.428  25.581   2.150
43504W        W15033  37.379  26.364   4.179
43505W        W15034  32.445  41.021  13.915
43506W        W15035  26.978  31.487  11.530
43507W        W15036  15.539  36.645   1.879
43508W        W15037  40.318   3.297   0.473
43509W        W15038  34.373  34.074   4.326
43510W        W15039  24.926  38.880   2.893
43511W        W15040  33.984  28.978   4.446
43512W        W15041  38.467  27.672  12.607
43513W        W15042  34.507   3.452   2.185
43514W        W15043  30.444  31.858   3.553
43515W        W15044   9.581   6.747   1.733
43516W        W15045  29.132  37.362  12.269
43517W        W15046   6.424  37.083   3.438
43518W        W15047  23.890   5.670   3.615
43519W        W15048  10.097  22.546  13.843
43520W        W15049   1.306  31.078  11.853
43521W        W15050   6.312  20.976  10.910
43522W        W15051  30.998   0.426   3.710
43523W        W15052  26.686  25.937  11.592
43524W        W15053  14.929  36.219  14.899
43525W        W15054  10.830   7.267   1.692
43526W        W15055  44.806  40.830  12.382
43527W        W15056   4.474  17.334  14.014
43528W        W15057  28.048  34.604   0.338
43529W        W15058   4.660  10.164  10.925
43530W        W15059  15.696  13.122   0.553
43531W        W15060  31.162   0.690  12.375
43532W        W15061  37.881  15.781  10.229
43533W        W15062  27.856   3.733  14.925
43534W        W15063  19.742  14.067  14.301
43535W        W15064  18.373  38.487  12.456
43536W        W15065   7.991  44.013   4.974
43537W        W15066   2.562  35.618   1.213
43538W        W15067  19.111   2.318   3.647
43539W        W15068   8.892   4.428  13.654
43540W        W15069  16.846  36.642  12.925
43541W        W15070  24.765   2.645  12.961
43542W        W15071  26.207  28.645   2.924
43543W        W15072  19.226   9.685  11.986
43544W        W15073  28.537  26.164   2.275
43545W        W15074  44.087  38.118   3.844
43546W        W15075  35.135  32.132   3.221
43547W        W15076  32.918  28.681   3.632
43548W        W15077   9.354  33.522  13.518
43549W        W15078  17.979  27.936  13.255
43550W        W15079   1.831  33.626  13.809
43551W        W15080   6.483  17.843   2.230
43552W        W15081  30.612  12.196  10.571
43553W        W15082  44.786  20.290  13.757
43554W        W15083  18.120   7.294  13.289
43555W        W15084  19.490   8.311  13.549
43556W        W15085  24.635  34.374   0.955
43557W        W15086  44.005  19.061   4.253
43558W        W15087  43.251  44.387   3.111
43559W        W15088  30.576  40.398  10.727
43560W        W15089   8.569  11.243  11.777
43561W        W15090  20.638  34.767   2.122
43562W        W15091   9.248   7.902  10.619
43563W        W15092   5.994  41.362   3.437
43564W        W15093  10.613  22.033  12.097
43565W        W15094  39.578   3.298  12.407
43566W        W15095   6.594  32.425   0.507
43567W        W15096   8.847  15.065  10.459
43568W        W15097  26.625  28.642   2.090
43569W        W15098  20.697   9.307   4.457
43570W        W15099  31.538  18.286   0.309
43571W        W15100  36.658  34.669  12.151
43572W        W15101  26.462  13.235   5.038
43573W        W15102  29.998   6.938  12.184
43574W        W15103   7.214  23.298  14.726
43575W        W15104   1.063   7.811  10.611
43576W        W15105   5.325  23.283  10.685
43577W        W15106  40.294   4.585  12.928
43578W        W15107  22.946  37.686   4.713
43579W        W15108  43.559   0.283  12.558
43580W        W15109   0.717  35.070  12.592
43581W        W15110   2.591  24.936  12.977
43582W        W15111  13.143  10.741  13.231
43583W        W15112   7.174   9.869   4.733
43584W        W15113  22.966  19.184   0.684
43585W        W15114  15.838  33.010  10.752
43586W        W15115  35.074  13.215  14.479
43587W        W15116  11.323  32.642   2.183
43588W        W15117  43.844  30.320  12.051
43589W        W15118   8.291  11.826   3.414
43590W        W15119   1.678  40.286   1.985
43591W        W15120   1.059  11.927   1.687
43592W        W15121  26.898  13.798   0.480
43593W        W15122  17.539  14.591  11.267
43594W        W15123  19.135  21.333  10.966
43595W        W15124   8.783  42.787  10.729
43596W        W15125  13.264   6.410   4.104
43597W        W15126  14.360  31.728  13.930
43598W        W15127  35.355  21.204   3.649
43599W        W15128   1.113   8.699   2.752
43600W        W15129  39.335  40.675  11.057
43601W        W15130  24.472  21.721  11.137
43602W        W15131  26.174   4.330   3.724
43603W        W15132   1.782  38.971   2.078
43604W        W15133   0.285  12.636  13.786
43605W        W15134  39.898  16.161   2.800
43606W        W15135  23.940   0.598   3.245
43607W        W15136  16.548  19.691   0.389
43608W        W15137  13.093   9.396  13.078
43609W        W15138  30.510  24.745  13.926
43610W        W15139  40.810  28.994  10.779
43611W        W15140  28.877  30.960  12.637
43612W        W15141  36.155   3.783  14.581
43613W        W15142   2.263  35.161   4.106
43614W        W15143  20.916  29.731  11.579
43615W        W15144   1.204  42.016   4.128
43616W        W15145  35.144  30.343  11.971
43617W        W15146  31.602  33.140  10.848
43618W        W15147  27.691  42.563  14.385
43619W        W15148   0.938   5.022  14.968
43620W        W15149  21.553  26.465   3.231
43621W        W15150   4.145  17.290   2.907
43622W        W15151  16.284  18.103  13.496
43623W        W15152  36.908  33.556  13.673
43624W        W15153  37.734  33.405  11.328
43625W        W15154  26.452   1.358  13.465
43626W        W15155  32.638  43.866  11.051
43627W        W15156  40.996  17.267   3.770
43628W        W15157  17.367  26.531   2.744
43629W        W15158   3.313   9.599   2.709
43630W        W15159  11.846  16.637  13.837
43631W        W15160   4.317  41.839  10.569
43632W        W15161  22.098  43.827   1.344
43633W        W15162   6.278  26.193   9.971
43634W        W15163   2.835  38.014   0.440
43635W        W15164   0.066  29.007  13.347
43636W        W15165  38.594  43.702  14.561
43637W        W15166  13.336  24.082  10.790
43638W        W15167  11.041  41.648  10.633
43639W        W15168  28.616  17.733  11.894
43640W        W15169  15.653   6.445   0.640
43641W        W15170  17.490  33.125  12.807
43642W        W15171   1.661   4.815   1.902
43643W        W15172  39.368  32.902   3.189
43644W        W15173  11.364  36.675   3.702
43645W        W15174   7.721  31.995   2.184
43646W        W15175  40.490  18.203  13.391
43647W        W15176  15.726  12.093  12.218
43648W        W15177  17.719  28.476  14.428
43649W        W15178  42.651  26.461   4.502
43650W        W15179   2.009   0.024  12.978
43651W        W15180  35.083   1.573  10.301
43652W        W15181  10.115  27.601   4.142
43653W        W15182  13.854  37.777   3.292
43654W        W15183  44.914  28.903  12.343
43655W        W15184   2.301  42.856   4.674
43656W        W15185  41.508   2.619   0.297
43657W        W15186  18.149  26.485   4.869
43658W        W15187   1.949  17.821  13.378
43659W        W15188  23.792  33.642   4.049
43660W        W15189  17.683  41.457  11.534
43661W        W15190   3.522  12.710   0.724
43662W        W15191  23.141  30.610  13.885
43663W        W15192  10.872  43.798  13.887
43664W        W15193  20.832  24.716  11.928
43665W        W15194  29.167  11.322  12.981
43666W        W15195  41.716  31.660   0.740
43667W        W15196   6.462  34.809  11.566
43668W        W15197  12.953  16.725   0.217
43669W        W15198  33.328  37.430  14.265
43670W        W15199   5.262  33.867   1.510
43671W        W15200  10.143   8.834   3.194
43672W        W15201   1.254   0.889  14.460
43673W        W15202  27.244  43.223  12.827
43674W        W15203  33.541  21.829   2.033
43675W        W15204  44.837  12.298   1.401
43676W        W15205  11.548  41.010  10.987
43677W        W15206  16.585  30.437   0.338
43678W        W15207   0.214  16.294   4.054
43679W        W15208  21.702  17.950   1.288
43680W        W15209   5.785  26.861  10.563
43681W        W15210  10.259   8.754  11.878
43682W        W15211  38.933   3.463   4.483
43683W        W15212  15.354  25.040  13.081
43684W        W15213   9.794  37.599   4.431
43685W        W15214  42.437  17.042   2.886
43686W        W15215  38.660  22.079  13.870
43687W        W15216  18.646  12.180   1.393
43688W        W15217  40.324  19.316   2.927
43689W        W15218  14.584  39.767  14.320
43690W        W15219  33.499  32.846   0.357
43691W        W15220  24.499  18.856  10.574
43692W        W15221   6.427  37.020   4.203
43693W        W15222   5.826  14.867  13.005
43694W        W15223   2.389  14.473   1.834
43695W        W15224  33.562   3.373   2.761
43696W        W15225  25.577   2.998  11.180
43697W        W15226  15.683  15.194  12.003
43698W        W15227  12.356  37.053  13.009
43699W        W15228  17.742  15.180   3.358
43700W        W15229  11.845  25.675  12.821
43701W        W15230   7.533   3.768  14.459
43702W        W15231  30.089   6.831  11.699
43703W        W15232  24.516  33.498  14.587
43704W        W15233  36.301   0.348  14.019
43705W        W15234  20.215   1.651   4.536
43706W        W15235  23.097   8.572   0.020
43707W        W15236   0.002  35.887   2.863
43708W        W15237  24.726  38.814  12.043
43709W        W15238  20.040  21.075  13.312
43710W        W15239  33.377  20.186  14.368
43711W        W15240  34.129   8.426  11.677
43712W        W15241  11.370  26.650  13.408
43713W        W15242  28.696  13.135   2.203
43714W        W15243  35.082   4.671   2.366
43715W        W15244  28.914  29.555   2.715
43716W        W15245  25.042  10.351  11.995
43717W        W15246  24.088  21.039  14.763
43718W        W15247  29.386  38.028   1.433
43719W        W15248  19.966   9.805   0.588
43720W        W15249  13.264  38.291  12.934
43721W        W15250  32.232  15.756  10.994
43722W        W15251  28.590  23.697  10.421
43723W        W15252  39.091   9.222  14.536
43724W        W15253  39.404   9.173   1.383
43725W        W15254  36.036   3.925   1.439
43726W        W15255  43.804  21.622  13.905
43727W        W15256  21.728  19.285   2.275
43728W        W15257  34.099   7.173   0.519
43729W        W15258   7.333  39.369  12.511
43730W        W15259  39.328  42.527  12.628
43731W        W15260  44.057   4.468   3.859
43732W        W15261  25.521   1.661  12.669
43733W        W15262  20.132  39.232  12.103
43734W        W15263   4.305   9.890   2.211
43735W        W15264  44.466  19.237   0.848
43736W        W15265  27.744  16.763   3.116
43737W        W15266  36.320  27.565   2.413
43738W        W15267  18.590  39.147   1.273
43739W        W15268  38.384  28.661   2.629
43740W        W15269  14.230   1.768  12.622
43741W        W15270   3.815  12.354  12.967
43742W        W15271  14.709  23.622   1.396
43743W        W15272  13.416   5.248   0.370
43744W        W15273  41.764  14.382   2.759
43745W        W15274   5.293  30.875  12.167
43746W        W15275  23.426  12.338   3.769
43747W        W15276  41.991  10.749  12.550
43748W        W15277   7.903  42.695  12.558
43749W        W15278  24.527  27.258   0.285
43750W        W15279  25.699  10.329  11.576
43751W        W15280  40.344  18.687  12.552
43752W        W15281  25.800  34.508  11.080
43753W        W15282  14.003   4.584   3.215
43754W        W15283  14.215  17.062   0.274
43755W        W15284   4.864  41.974   4.545
43756W        W15285   2.123  35.861  11.554
43757W        W15286  24.612  30.350   2.314
43758W        W15287  17.083  10.892   4.344
43759W        W15288  36.180  17.877  12.042
43760W        W15289   1.674  22.407   1.768
43761W        W15290  22.205  18.875   4.637
43762W        W15291  12.380  29.366  12.084
43763W        W15292  16.873  39.644   0.210
43764W        W15293  38.778  34.255   4.253
43765W        W15294   5.062  18.472   0.687
43766W        W15295  23.455  36.456  11.437
43767W        W15296   1.514  11.401   2.859
43768W        W15297  39.893  43.743  14.343
43769W        W15298  35.783  16.722  10.926
43770W        W15299  14.139   2.783   0.919
43771W        W15300  31.078  44.793  12.126
43772W        W15301  33.691  12.579  14.367
43773W        W15302  30.506  34.011   0.728
43774W        W15303  27.493  28.954   4.266
43775W        W15304  30.454   7.066  11.997
43776W        W15305  44.931   6.323   1.711
43777W        W15306  18.426  25.861   1.261
43778W        W15307   2.332  22.825  13.138
43779W        W15308  19.273  10.902   4.615
43780W        W15309  11.899  24.139   2.315
43781W        W15310  21.240  38.358  12.043
43782W        W15311  33.226   4.454  11.941
43783W        W15312  30.882  23.648   0.441
43784W        W15313  39.465  29.122  11.531
43785W        W15314  24.004  38.831  14.282
43786W        W15315  23.952   6.823   4.304
43787W        W15316  34.348  30.548   4.633
43788W        W15317  36.348   2.237   0.532
43789W        W15318  21.097  33.647  12.611
43790W        W15319  37.069  44.025   4.219
43791W        W15320   8.732   8.335   4.848
43792W        W15321  29.113  19.528   3.358
43793W        W15322   4.946  24.455   2.162
43794W        W15323  26.061  42.448  12.851
43795W        W15324  19.320  25.191   3.273
43796W        W15325  41.092  14.865   2.471
43797W        W15326  25.514   6.829   1.314
43798W        W15327  19.861  28.884   2.850
43799W        W15328   7.937  23.537   4.959
43800W        W15329   5.937  28.645   2.219
43801W        W15330   4.443  14.217  10.056
43802W        W15331  29.060   3.709   3.364
43803W        W15332   9.028   6.342   1.264
43804W        W15333  32.302  18.495   2.285
43805W        W15334  21.594  29.790  12.999
43806W        W15335  30.476  12.190   3.597
43807W        W15336  44.994  20.490  12.563
43808W        W15337  38.373   9.163   1.255
43809W        W15338  36.161  10.838  12.906
43810W        W15339  15.833  23.966  10.259
43811W        W15340  30.528   3.360   0.039
43812W        W15341  21.503  42.000   0.914
43813W        W15342  19.686  39.993  14.297
43814W        W15343   6.198  24.222  12.901
43815W        W15344  14.843   8.666   1.382
43816W        W15345  14.732  17.736   0.716
43817W        W15346   8.794   0.619  12.585
43818W        W15347  35.533  14.878  13.008
43819W        W15348  42.640   6.429   2.001
43820W        W15349  21.723  41.104   1.128
43821W        W15350  27.984   8.662   4.076
43822W        W15351   7.641  33.553   4.065
43823W        W15352  40.566  24.706   3.811
43824W        W15353  16.749  17.740   2.630
43825W        W15354   9.342   8.669  11.167
43826W        W15355   3.209  25.383   0.371
43827W        W15356  34.869   4.495  12.487
43828W        W15357  22.182  21.542  10.646
43829W        W15358  24.283  11.600   3.015
43830W        W15359  30.071  31.191   1.365
43831W        W15360  38.039  42.795  10.659
43832W        W15361  22.721  21.953  13.324
43833W        W15362  34.418  20.660  11.652
43834W        W15363  40.168  18.659  13.034
43835W        W15364  12.524  16.593  11.157
43836W        W15365  28.494  19.337  10.460
43837W        W15366  30.036  34.058  13.724
43838W        W15367  38.613  18.567   4.601
43839W        W15368  21.069  27.488   4.651
43840W        W15369  14.352  40.823   2.378
43841W        W15370  14.322   1.615   2.312
43842W        W15371  38.327  23.715  13.517
43843W        W15372   9.900  42.812   4.332
43844W        W15373   5.622  16.800   3.161
43845W        W15374  17.098   7.239  10.469
43846W        W15375  26.855  17.728   0.757
43847W        W15376  16.281   6.868  10.764
43848W        W15377  41.370   4.727  14.418
43849W        W15378  20.999  15.527   1.703
43850W        W15379  20.138  20.556  11.507
43851W        W15380  12.098  35.882   0.846
43852W        W15381  30.285  40.518  12.430
43853W        W15382  11.176  21.619   2.973
43854W        W15383  21.496  27.009  11.211
43855W        W15384  27.707  36.533  12.987
43856W        W15385  41.083  22.184  13.979
43857W        W15386  11.853   3.076  10.680
43858W        W15387  26.644  36.809  13.827
43859W        W15388   6.769   0.817   1.673
43860W        W15389   2.401  25.342  11.175
43861W        W15390  36.078  24.152  12.435
43862W        W15391   8.188  31.391  12.417
43863W        W15392   7.127   2.779   4.169
43864W        W15393   4.324  21.760  10.731
43865W        W15394   1.851  31.383  10.703
43866W        W15395  20.979   4.586   2.286
43867W        W15396  33.070  23.241  11.043
43868W        W15397  17.761  33.100  10.435
43869W        W15398   2.835  10.770   1.424
43870W        W15399  29.422  38.378  12.442
43871W        W15400  32.019  28.978  12.930
43872W        W15401  17.375  12.366  12.872
43873W        W15402  15.334  26.853  14.408
43874W        W15403   4.976  42.006   3.239
43875W        W15404   7.202  39.282   2.255
43876W        W15405  21.685  25.084  12.688
43877W        W15406   6.052  18.803   3.016
43878W        W15407  24.447  33.925  12.026
43879W        W15408  32.283  14.084   3.770
43880W        W15409  16.827  10.387   1.350
43881W        W15410  36.825  33.306  14.511
43882W        W15411   8.754  35.781   0.314
43883W        W15412   5.349  18.056   0.882
43884W        W15413  27.071   9.865  10.694
43885W        W15414  30.520  24.264  13.538
43886W        W15415  20.701  22.728  14.733
43887W        W15416  44.525  44.960   0.405
43888W        W15417   5.729   6.218  13.776
43889W        W15418  17.546  14.826  10.813
43890W        W15419  39.912  43.246  14.381
43891W        W15420  43.350   3.287   4.996
43892W        W15421  27.536  29.909   4.062
43893W        W15422   1.331  34.634  10.459
43894W        W15423  21.162  10.424   0.519
43895W        W15424  43.436  31.154  12.690
43896W        W15425   5.831  15.537   0.284
43897W        W15426   7.794   2.923  14.967
43898W        W15427  36.883  37.044   0.213
43899W        W15428  17.758  23.495  14.683
43900W        W15429  36.817  16.122  10.693
43901W        W15430   4.913  10.642  14.400
43902W        W15431  40.528   1.980  10.788
43903W        W15432  44.889  41.935   1.690
43904W        W15433  38.464  26.163  14.561
43905W        W15434  24.505   8.924  13.343
43906W        W15435  30.953  43.385   2.524
43907W        W15436  41.272  18.485   2.740
43908W        W15437  27.037  41.050   3.559
43909W        W15438  17.627   0.354   3.369
43910W        W15439   9.334  12.644  10.346
43911W        W15440  15.786  25.754  12.071
43912W        W15441  18.666   3.424  10.299
43913W        W15442  27.472  31.204  11.073
43914W        W15443   1.290   1.319   1.277
43915W        W15444  13.771   2.921   2.257
43916W        W15445   9.123  37.553  11.619
43917W        W15446  17.611   6.194   2.889
43918W        W15447  23.238  41.323  12.708
43919W        W15448  29.580  44.274  14.520
43920W        W15449  25.614  21.689   2.234
43921W        W15450  18.581  12.555   0.319
43922W        W15451  28.015   5.777  13.810
43923W        W15452  41.994  13.082   1.055
43924W        W15453  36.434  20.892  11.507
43925W        W15454  15.185  26.731  13.925
43926W        W15455  37.782  22.631  10.546
43927W        W15456  34.429   5.373   0.350
43928W        W15457  10.439  15.165   3.133
43929W        W15458  36.828   3.256   0.338
43930W        W15459  17.852  11.341   0.831
43931W        W15460  32.587  26.157   2.987
43932W        W15461  41.388  29.734  10.654
43933W        W15462  22.149  19.396   4.509
43934W        W15463  37.516   7.894   0.220
43935W        W15464  28.988  36.443   1.008
43936W        W15465   4.157  12.888   3.320
43937W        W15466  28.715  10.309   0.345
43938W        W15467  12.624  31.140  12.613
43939W        W15468  31.683   1.369   2.812
43940W        W15469  33.965   3.899   4.666
43941W        W15470  29.409  34.941   1.327
43942W        W15471  12.881  40.534  12.985
43943W        W15472  31.846  18.632   2.461
43944W        W15473  32.209  20.741   2.825
43945W        W15474  13.864  27.047   3.787
43946W        W15475   7.318  31.373  14.913
43947W        W15476  39.080  26.298   4.097
43948W        W15477   0.740  14.287  12.042
43949W        W15478  26.609   1.364   0.958
43950W        W15479   9.824  26.168  12.075
43951W        W15480  35.834  40.315  14.805
43952W        W15481  24.131  23.901  10.474
43953W        W15482  22.692  33.861   3.306
43954W        W15483   7.302   9.472  14.590
43955W        W15484  22.362  14.101   2.630
43956W        W15485  41.342  14.078   2.771
43957W        W15486  20.797  15.018  11.161
43958W        W15487  21.307  38.114   9.866
43959W        W15488  15.775  32.673   4.583
43960W        W15489  15.580  41.039  13.464
43961W        W15490  16.305  28.253   5.431
43962W        W15491  32.663  26.724  14.261
43963W        W15492  26.010   2.629   4.139
43964W        W15493  28.377  21.743  14.466
43965W        W15494  31.942  12.665  14.026
43966W        W15495  35.939  42.477  11.315
43967W        W15496  39.372  34.541   4.528
43968W        W15497  27.567  41.310   1.923
43969W        W15498  12.890  11.846   1.802
43970W        W15499  16.228  22.500  12.853
43971W        W15500  14.733  29.206   4.689
43972W        W15501  18.716   4.456   1.399
43973W        W15502   6.824  36.869  11.177
43974W        W15503  41.493  30.022   3.614
43975W        W15504  40.598  40.363   4.680
43976W        W15505  37.826  27.361  14.038
43977W        W15506  34.906  11.176   1.339
43978W        W15507   9.174  23.155   3.681
43979W        W15508  21.079  42.355   3.935
43980W        W15509   7.765  41.372  10.666
43981W        W15510  43.394  27.700  11.619
43982W        W15511  10.669  38.043   4.556
43983W        W15512  11.934  41.249  13.597
43984W        W15513  39.720  22.933  11.278
43985W        W15514  44.920  37.919   4.521
43986W        W15515  18.889  36.027   2.169
43987W        W15516  39.581  12.235   2.407
43988W        W15517  28.078   1.495   0.748
43989W        W15518  15.106   3.449  11.591
43990W        W15519  30.037  29.136  14.519
43991W        W15520  34.864  14.963   3.307
43992W        W15521  43.983   4.991   4.152
43993W        W15522  41.591  27.709  12.014
43994W        W15523   0.155  21.748  13.626
43995W        W15524  20.442  25.747   4.364
43996W        W15525  39.245  23.780   4.256
43997W        W15526   0.524  37.988   2.303
43998W        W15527  33.489  22.082  12.428
43999W        W15528  30.155  40.280  10.371
44000W        W15529  39.116  37.457   1.889
44001W        W15530   2.368  42.421   4.375
44002W        W15531  35.410  37.242   3.997
44003W        W15532  13.315   2.880  13.203
44004W        W15533  34.333  30.650   1.756
44005W        W15534   7.331  29.661   4.224
44006W        W15535  42.858   7.104  11.531
44007W        W15536  41.470  44.624   3.061
44008W        W15537  32.350  20.431  11.353
44009W        W15538   3.192  23.530  13.336
44010W        W15539   9.906  35.816  11.732
44011W        W15540  11.932  17.229  12.937
44012W        W15541  16.961  11.835   3.274
44013W        W15542  17.716  27.483  14.543
44014W        W15543   3.850   8.211   1.269
44015W        W15544  15.844  15.539  11.623
44016W        W15545  38.420   8.494   0.392
44017W        W15546  44.835  22.192  10.592
44018W        W15547  37.274  12.693   1.660
44019W        W15548  38.478  19.130   0.953
44020W        W15549  27.033   6.693  14.905
44021W        W15550  18.862  35.975  13.165
44022W        W15551  42.304  27.981   4.263
44023W        W15552  26.230   4.179  11.959
44024W        W15553   0.721  28.181   4.091
44025W        W15554  28.506  34.361  13.018
44026W        W15555  12.319   3.016  13.441
44027W        W15556  13.170   3.118  10.693
44028W        W15557  43.934  11.131  10.935
44029W        W15558  33.866  27.467  13.764
44030W        W15559   7.966  44.299  13.844
44031W        W15560  39.277  42.659  10.155
44032W        W15561  21.630  13.257   1.866
44033W        W15562  28.406   8.145   0.000
44034W        W15563  11.569   4.171   4.274
44035W        W15564  17.534  41.709  11.094
44036W        W15565  38.945   6.736  11.959
44037W        W15566  19.844  11.455  12.392
44038W        W15567   6.173  38.330  13.447
44039W        W15568  30.114   6.725  13.552
44040W        W15569   5.186   3.373   0.833
44041W        W15570  20.745  44.562   0.770
44042W        W15571   8.271  30.207  11.947
44043W        W15572  31.126  24.165   1.428
44044W        W15573   5.640  20.001  13.985
44045W        W15574   0.949  24.687  12.488
44046W        W15575   2.669   8.622  12.433
44047W        W15576  30.366  41.823  10.618
44048W        W15577  28.699  27.306   3.613
44049W        W15578  17.804   8.945  13.040
44050W        W15579  35.951  13.684  14.232
44051W        W15580  20.347   9.661   1.906
44052W        W15581  22.094  44.459   3.865
44053W        W15582   9.185   6.248  12.810
44054W        W15583  22.730  15.603   2.690
44055W        W15584  35.588  11.142  12.133
44056W        W15585   1.422  11.240  13.351
44057W        W15586  11.661   8.214   4.375
44058W        W15587  25.041  37.589   3.691
44059W        W15588  38.502   5.995   3.383
44060W        W15589   1.849  17.104  12.765
44061W        W15590  42.429  44.432   4.543
44062W        W15591  38.592  12.160   5.223
44063W        W15592   2.738  39.453   0.834
44064W        W15593  16.665  23.884   4.030
44065W        W15594  12.645  13.285  13.645
44066W        W15595   6.282  28.162  11.590
44067W        W15596  20.307  39.006  12.547
44068W        W15597   1.428  10.109  12.473
44069W        W15598  33.586  29.345  12.626
44070W        W15599   9.477  31.008   1.715
44071W        W15600  39.312  19.470  13.369
44072W        W15601  17.839  11.413  13.650
44073W        W15602  12.977  17.764  10.697
44074W        W15603  10.538   4.326   2.439
44075W        W15604  31.227  37.762  13.888
44076W        W15605  27.086   0.545   4.563
44077W        W15606  36.408  26.491   0.197
44078W        W15607  17.531  12.655  13.288
44079W        W15608  14.619  37.971  12.086
44080W        W15609  44.736  36.300  12.918
44081W        W15610  38.823  14.960   4.264
44082W        W15611  11.141  20.241  12.855
44083W        W15612  20.993  32.127  12.492
44084W        W15613  21.355   6.672  14.128
44085W        W15614  27.499  23.843   0.820
44086W        W15615  25.769  32.973  14.658
44087W        W15616  16.350  40.319   4.181
44088W        W15617  20.876  39.477   3.278
44089W        W15618  22.971  17.143  14.795
44090W        W15619   4.826  15.386  12.898
44091W        W15620  36.307  23.064  14.227
44092W        W15621  27.009  38.602   4.550
44093W        W15622  29.042   0.671  11.934
44094W        W15623  36.579  17.308  11.911
44095W        W15624  18.433  15.495   3.207
44096W        W15625  19.632  15.123   1.747
44097W        W15626  25.235   7.008  14.115
44098W        W15627  41.001  21.773   3.309
44099W        W15628  21.810   5.161  14.379
44100W        W15629   1.517  32.980  14.864
44101W        W15630   9.289  22.855  11.283
44102W        W15631  36.580   5.166  13.824
44103W        W15632  32.901  43.800  11.499
44104W        W15633  15.214  11.065  11.151
44105W        W15634  38.381  20.967  13.657
44106W        W15635   3.975  17.811   4.100
44107W        W15636  44.628  15.410  12.889
44108W        W15637  33.208  14.930   1.239
44109W        W15638  24.437  20.534  13.860
44110W        W15639  28.675  16.854  11.484
44111W        W15640  23.755   3.173   2.775
44112W        W15641   0.778  28.631  12.892
44113W        W15642  22.944  26.434  11.573
44114W        W15643  17.604  38.921   2.773
44115W        W15644  43.055  16.529   1.248
44116W        W15645  18.512  29.107   3.139
44117W        W15646  33.418  13.924   2.391
44118W        W15647  23.633   7.149   2.205
44119W        W15648  33.808  23.710   3.395
44120W        W15649  44.699  44.939   0.930
44121W        W15650  15.181  31.085  11.181
44122W        W15651   4.250  19.188  11.008
44123W        W15652   4.447  42.064   3.247
44124W        W15653  23.216   9.789   2.117
44125W        W15654  13.172   0.732   4.523
44126W        W15655   1.562   6.309   0.875
44127W        W15656   7.173   8.563  10.814
44128W        W15657  21.334  32.142   3.175
44129W        W15658  29.067   4.953   3.347
44130W        W15659   3.554  28.095   2.825
44131W        W15660  42.732  16.090  11.942
44132W        W15661  29.403   2.306  14.068
44133W        W15662  28.057  24.610  10.663
44134W        W15663   9.462  19.694  12.864
44135W        W15664   4.367   6.300  14.921
44136W        W15665  22.636  16.522  10.689
44137W        W15666  41.747  15.190  13.432
44138W        W15667   1.172   5.354  13.647
44139W        W15668  27.640  39.604   4.037
44140W        W15669   7.978  15.758  14.986
44141W        W15670  33.449   3.726   3.720
44142W        W15671  14.619  12.716   2.636
44143W        W15672  43.795   3.381  14.922
44144W        W15673  34.562  13.374  14.076
44145W        W15674   5.141  37.401  14.298
44146W        W15675  25.992  10.649   4.820
44147W        W15676  15.269  29.915   4.435
44148W        W15677  25.265  30.092  13.465
44149W        W15678  19.064  23.720   1.225
44150W        W15679  11.690  28.066   4.596
44151W        W15680  35.088   3.203   0.993
44152W        W15681  42.577   1.726  12.447
44153W        W15682  11.079  27.913   0.337
44154W        W15683   6.389  11.811   4.925
44155W        W15684   1.195  35.056   3.178
44156W        W15685  32.460  27.061  12.827
44157W        W15686  17.951   4.488   2.000
44158W        W15687  31.682  31.925  12.435
44159W        W15688  10.196  42.370   1.737
44160W        W15689   7.475  35.413   1.987
44161W        W15690  40.499  36.838   1.903
44162W        W15691  37.490  29.745   1.770
44163W        W15692  16.828  21.112   0.931
44164W        W15693  35.705  16.170  13.394
44165W        W15694  39.827  40.788   4.097
44166W        W15695  43.549  10.768  12.100
44167W        W15696  38.510  10.913   0.980
44168W        W15697  11.810  35.077  12.654
44169W        W15698  42.365  43.851   1.748
44170W        W15699  35.485  40.874   0.958
44171W        W15700   1.217  28.028  13.998
44172W        W15701  43.525  29.935  13.437
44173W        W15702  26.124  39.049   3.884
44174W        W15703   3.959   8.412   4.664
44175W        W15704  41.900   7.283  13.532
44176W        W15705  34.047  11.601   3.659
44177W        W15706   8.335  39.145  10.530
44178W        W15707  12.000  20.311  10.997
44179W        W15708  12.780  44.436  14.063
44180W        W15709  31.053  13.328   4.115
44181W        W15710   8.645  24.203  14.023
44182W        W15711  30.947  15.891  11.005
44183W        W15712  10.139  25.689  10.863
44184W        W15713  30.511  21.708   1.513
44185W        W15714  15.044   1.876   1.763
44186W        W15715  32.855  11.543  10.782
44187W        W15716  43.511  28.066   2.688
44188W        W15717  28.723   8.318  14.634
44189W        W15718  41.911  28.967   0.262
44190W        W15719   1.342   4.412   2.088
44191W        W15720  31.395  22.243   1.787
44192W        W15721  14.437  39.249   2.765
44193W        W15722  19.613  35.385   1.179
44194W        W15723  12.954   4.445  13.498
44195W        W15724  41.983  25.608   1.124
44196W        W15725  13.670   0.382  11.829
44197W        W15726  16.020  33.058  13.823
44198W        W15727  23.181  10.771   2.770
44199W        W15728  13.982  20.068   3.240
44200W        W15729  29.358   7.342  12.493
44201W        W15730   2.056   1.962  11.702
44202W        W15731  32.994  39.682   1.678
44203W        W15732  42.346  14.612  12.443
44204W        W15733  31.194  41.746  14.951
44205W        W15734  17.047   9.610  14.485
44206W        W15735  15.231  26.193  10.242
44207W        W15736   9.410  19.061   9.744
44208W        W15737   0.458  29.650   4.527
44209W        W15738  18.529  30.037   0.542
44210W        W15739  23.087   4.749  12.413
44211W        W15740  38.287  29.590   1.441
44212W        W15741  42.263  31.182   1.453
44213W        W15742  30.517  43.811  11.146
44214W        W15743   3.718  20.624  14.731
44215W        W15744  29.608  21.207  14.460
44216W        W15745  31.142  17.540  10.467
44217W        W15746   6.000  40.860   2.559
44218W        W15747  31.658  18.466  14.833
44219W        W15748  30.838  44.243   3.184
44220W        W15749  11.806   5.137  12.411
44221W        W15750   3.474  41.752   2.778
44222W        W15751  22.678  22.067  11.335
44223W        W15752  21.160  26.009   0.089
44224W        W15753  43.546  43.368  11.018
44225W        W15754  13.535  23.677   0.032
44226W        W15755   8.116  19.785  14.848
44227W        W15756  28.600   0.409   3.872
44228W        W15757  41.038   1.924   3.691
44229W        W15758   1.362   3.366  12.426
44230W        W15759   3.316  13.899  13.970
44231W        W15760   2.248  11.174   0.364
44232W        W15761  25.538  16.168  10.616
44233W        W15762  43.914   2.137   3.218
44234W        W15763  17.290  41.963  11.464
44235W        W15764  16.377  25.111  14.011
44236W        W15765  22.732  42.875   3.713
44237W        W15766  18.262  40.970   3.576
44238W        W15767  43.272  13.134   2.418
44239W        W15768  18.607  17.052   4.813
44240W        W15769  31.508  13.155   4.227
44241W        W15770   0.750  11.796  12.525
44242W        W15771  26.207  20.212   3.795
44243W        W15772  30.612  40.877  11.563
44244W        W15773  15.117  44.748   4.121
44245W        W15774   3.879  40.823  11.556
44246W        W15775   6.667  10.036   0.315
44247W        W15776  25.056   8.915  12.060
44248W        W15777  38.633  31.627  13.659
44249W        W15778  16.473  12.461  13.903
44250W        W15779  31.966  29.179  10.749
44251W        W15780  23.135   2.327  14.317
44252W        W15781  10.731  15.526  14.436
44253W        W15782  27.893  35.964   2.149
44254W        W15783  24.231   2.907  12.515
44255W        W15784  16.351  20.186  11.584
44256W        W15785  34.411  29.400   2.017
44257W        W15786  44.172  40.670   0.925
44258W        W15787  36.025  13.812  14.731
44259W        W15788  24.967  17.573  14.395
44260W        W15789   0.587  20.768   4.487
44261W        W15790  29.773  33.477  14.555
44262W        W15791   6.840  38.013   0.327
44263W        W15792  24.164  23.494   0.870
44264W        W15793  21.027  37.209  14.896
44265W        W15794  42.401   1.913  11.092
44266W        W15795  23.093  21.713  11.117
44267W        W15796  34.140  43.489   3.596
44268W        W15797   1.265  15.662   1.756
44269W        W15798  21.945   3.374   4.548
44270W        W15799  34.861   3.471   1.813
44271W        W15800  26.661  32.449  13.421
44272W        W15801  35.671   7.337   4.157
44273W        W15802  38.557  19.649   1.739
44274W        W15803  18.622  16.046  14.941
44275W        W15804  15.064  26.473   4.521
44276W        W15805  11.279  44.634  12.941
44277W        W15806   6.253  32.555   4.154
44278W        W15807  23.572  44.484  11.086
44279W        W15808  15.009  44.938   1.652
44280W        W15809  36.606  16.796   0.442
44281W        W15810   7.307  32.059   1.850
44282W        W15811  12.219  20.350   3.778
44283W        W15812  40.136   5.886   0.233
44284W        W15813   4.807  40.503   2.965
44285W        W15814  26.215   5.898   0.864
44286W        W15815  16.576   0.347   0.947
44287W        W15816  28.063   4.740   1.891
44288W        W15817  20.353  39.924  13.505
44289W        W15818  32.651  38.769  11.907
44290W        W15819  44.660  13.783   5.094
44291W        W15820  30.192  13.792   0.912
44292W        W15821  18.476  29.095   0.388
44293W        W15822  11.171  40.879  14.035
44294W        W15823  31.170   4.831  12.617
44295W        W15824  36.678  42.555  13.909
44296W        W15825  16.570  35.999   0.766
44297W        W15826  14.234  11.327   4.361
44298W        W15827  12.718  19.066  11.843
44299W        W15828  41.754  35.323   0.792
44300W        W15829   0.710  41.758   4.123
44301W        W15830  15.188  35.554   0.307
44302W        W15831  18.055  32.145  14.509
44303W        W15832  41.561  26.036   0.788
44304W        W15833  43.489   7.767  11.523
44305W        W15834  11.216  37.448   1.399
44306W        W15835  14.726   3.409   1.218
44307W        W15836  11.451  11.190  14.942
44308W        W15837  35.917  41.991  11.108
44309W        W15838  21.933  17.188  11.515
44310W        W15839  18.250   7.634   0.907
44311W        W15840  34.394   5.932   4.157
44312W        W15841  26.747  11.156  11.106
44313W        W15842  35.595  22.713   1.155
44314W        W15843  34.249   6.229  11.465
44315W        W15844  20.605  40.806  14.703
44316W        W15845  14.464  18.882   5.082
44317W        W15846  42.006  44.073   0.037
44318W        W15847  20.218  21.039   0.173
44319W        W15848  44.812  24.795   0.782
44320W        W15849  21.632   9.178  14.112
44321W        W15850  36.955   6.325  13.966
44322W        W15851  20.609   3.637   0.701
44323W        W15852  23.772  37.060   4.376
44324W        W15853   6.056  34.982  14.008
44325W        W15854  12.180  40.840  13.320
44326W        W15855  18.608   1.796  13.853
44327W        W15856  23.934  27.984  13.176
44328W        W15857  44.203  30.569   2.317
44329W        W15858  12.526   4.035  14.336
44330W        W15859  20.915   3.798  11.312
44331W        W15860  41.486   1.958  12.974
44332W        W15861  29.708  18.867  13.917
44333W        W15862  37.485  38.617  12.117
44334W        W15863  22.975  24.823  10.858
44335W        W15864  34.618  40.830  14.993
44336W        W15865  41.803  38.385  14.306
44337W        W15866  18.459  42.924   3.806
44338W        W15867   7.474  11.764  12.559
44339W        W15868  28.559   3.647   3.214
44340W        W15869  37.918  10.178  14.064
44341W        W15870  17.553  24.729   1.984
44342W        W15871  22.584  11.662  11.574
44343W        W15872  23.212  26.944   1.318
44344W        W15873  41.402   3.771   2.478
44345W        W15874  19.149  34.036   0.221
44346W        W15875  11.926  12.391  11.127
44347W        W15876  17.687   3.236  12.429
44348W        W15877   6.679  22.823   1.902
44349W        W15878   4.305  33.166   3.591
44350W        W15879  42.818   9.623   4.102
44351W        W15880  27.532  29.501   0.351
44352W        W15881  30.656   7.376  10.648
44353W        W15882   8.686  15.105  11.468
44354W        W15883  34.896  43.450  13.762
44355W        W15884  11.675  11.424   1.836
44356W        W15885   4.947  41.328   1.819
44357W        W15886   4.121  38.380   1.383
44358W        W15887  37.648  11.249  13.354
44359W        W15888  16.175  13.497  12.997
44360W        W15889  27.680  27.849   0.741
44361W        W15890  44.457  33.805  12.937
44362W        W15891  18.074   4.840   2.368
44363W        W15892   8.215  38.908  14.797
44364W        W15893   1.035  21.401   4.100
44365W        W15894  42.492  34.831   1.861
44366W        W15895  43.311   9.405  11.882
44367W        W15896  29.882  30.086  14.952
44368W        W15897   7.145  22.437   3.020
44369W        W15898  31.894  35.047   2.664
44370W        W15899  31.842  30.948  14.879
44371W        W15900   0.359  41.428  14.032
44372W        W15901  21.325  26.728  14.594
44373W        W15902  13.794  30.075   1.373
44374W        W15903   7.917   8.928  11.259
44375W        W15904  22.588  39.260   4.217
44376W        W15905  37.282  36.963  12.061
44377W        W15906   8.226  19.368  12.659
44378W        W15907  41.175  27.876  13.398
44379W        W15908  37.046  16.641  10.747
44380W        W15909  29.580  41.143   1.620
44381W        W15910  33.460   0.293  11.216
44382W        W15911  38.101  13.006   1.865
44383W        W15912   1.100  14.795   0.204
44384W        W15913   8.127  38.493  14.001
44385W        W15914   1.135  38.884   1.434
44386W        W15915   2.270  21.142  11.282
44387W        W15916  33.618  43.009  11.058
44388W        W15917  15.090  21.200  11.069
44389W        W15918  30.680  39.795   3.767
44390W        W15919  38.416  36.038   0.351
44391W        W15920  38.470  38.910  12.545
44392W        W15921   3.691  14.305  10.742
44393W        W15922  31.360  20.478   4.344
44394W        W15923  39.513  30.177  13.005
44395W        W15924  17.898  15.222   2.535
44396W        W15925   0.973  32.435   2.368
44397W        W15926  19.063  32.083   4.118
44398W        W15927  31.352  11.258   3.600
44399W        W15928   6.894  24.690   3.471
44400W        W15929   2.970  40.319   4.316
44401W        W15930   4.404  15.217   1.967
44402W        W15931  25.325  33.011   4.973
44403W        W15932   5.551  35.095   3.123
44404W        W15933  18.148  19.818  12.188
44405W        W15934  37.151   2.493   2.650
44406W        W15935  13.721   2.473   0.860
44407W        W15936  36.840  16.747  14.988
44408W        W15937  44.463  37.998   3.148
44409W        W15938  29.670  16.850   4.275
44410W        W15939  15.226  13.420   1.836
44411W        W15940  15.622  18.198   3.823
44412W        W15941   3.434   4.517  13.421
44413W        W15942  18.150  23.288   4.126
44414W        W15943  28.937  26.762  12.125
44415W        W15944  21.113  14.968   4.196
44416W        W15945  22.296   9.625  11.971
44417W        W15946   3.122  11.765   3.240
44418W        W15947  27.189  42.807  11.254
44419W        W15948  26.008  40.065   2.980
44420W        W15949  28.198  42.299  13.884
44421W        W15950  15.808  22.261   3.224
44422W        W15951  23.149  42.063   2.053
44423W        W15952   8.196  17.736   0.902
44424W        W15953   0.102  44.113  14.902
44425W        W15954  36.831   8.647  12.008
44426W        W15955  27.633  25.967  12.400
44427W        W15956  22.740   1.989  14.254
44428W        W15957  20.039  11.306  14.056
44429W        W15958   5.154  30.553   1.254
44430W        W15959  13.602  20.340   3.602
44431W        W15960  23.682   7.757   0.247
44432W        W15961  21.321  16.863  14.328
44433W        W15962   7.884  37.792  10.541
44434W        W15963  42.964  28.943  13.118
44435W        W15964  13.141   8.226   4.773
44436W        W15965  16.333   4.341   0.638
44437W        W15966  22.528  21.050   3.034
44438W        W15967  32.654   3.865  12.399
44439W        W15968  31.902  23.575   2.307
44440W        W15969   4.496  27.602  14.651
44441W        W15970   4.920   8.326   0.775
44442W        W15971  39.768  23.066  12.131
44443W        W15972  28.948  26.153  12.928
44444W        W15973  32.138   7.786   0.490
44445W        W15974  21.134  22.003  14.875
44446W        W15975  32.430  29.124   0.574
44447W        W15976   1.240  43.357   0.942
44448W        W15977  38.883  25.145   1.509
44449W        W15978   0.936  14.362  12.510
44450W        W15979  43.408  40.307   4.105
44451W        W15980  30.874   9.174   2.188
44452W        W15981  35.089  39.370   2.962
44453W        W15982  28.123   6.659   3.557
44454W        W15983   5.212   7.435   0.824
44455W        W15984  43.349  33.818   3.286
44456W        W15985  33.988   6.274  13.845
44457W        W15986  39.443  29.399   1.721
44458W        W15987  14.561  41.167   4.124
44459W        W15988  21.437   3.757  11.133
44460W        W15989  16.258  13.992  11.887
44461W        W15990  44.354  37.401  12.613
44462W        W15991   3.516   3.500   4.253
44463W        W15992  41.370   2.721   4.302
44464W        W15993  34.962  43.503   0.328
44465W        W15994  32.055  33.502  12.046
44466W        W15995  38.492  31.935  12.020
44467W        W15996  12.851  41.523   2.073
44468W        W15997  42.695  39.761   4.168
44469W        W15998   3.915  19.369   3.414
44470W        W15999   6.278  29.757  12.671
44471W        W16000  30.207  27.506   3.655
44472W        W16001  17.132   5.021  12.148
44473W        W16002  30.546  22.681   4.265
44474W        W16003  37.002  30.415  14.332
44475W        W16004  44.644  14.902  13.004
44476W        W16005  32.002  33.335   3.838
44477W        W16006  41.050  18.864  13.151
44478W        W16007  14.212   0.826   3.575
44479W        W16008  29.867  25.212   4.152
44480W        W16009  25.610   2.454  13.852
44481W        W16010  29.758  29.670  11.104
44482W        W16011  28.777  39.080   3.303
44483W        W16012   2.442  40.417   1.207
44484W        W16013  37.338   9.419  14.266
44485W        W16014  18.672   3.460   0.417
44486W        W16015  21.836   6.808   0.019
44487W        W16016  16.764  33.195   1.221
44488W        W16017   4.209  23.183   3.332
44489W        W16018  36.587  10.955   1.917
44490W        W16019  15.906   0.046  11.070
44491W        W16020  11.776  40.870   4.856
44492W        W16021  31.203  33.641  14.255
44493W        W16022  34.115  30.739   3.783
44494W        W16023  42.791  20.042  12.074
44495W        W16024  35.378   4.166  13.063
44496W        W16025  41.665  38.766   4.160
44497W        W16026  11.840  34.972   1.017
44498W        W16027  43.578  38.851   3.114
44499W        W16028   5.505  27.065   3.649
44500W        W16029   8.674  27.655   1.796
44501W        W16030  42.427  40.508   0.474
44502W        W16031  20.648  39.530  14.040
44503W        W16032  24.820  22.039   2.109
44504W        W16033  43.773  37.812  12.167
44505W        W16034  40.219  30.355   2.104
44506W        W16035  15.399  21.292  13.422
44507W        W16036  20.808  37.989   3.224
44508W        W16037  40.724  31.113   1.339
44509W        W16038   9.923  14.136   0.481
44510W        W16039   4.175   7.954  11.626
44511W        W16040  11.126  12.616   1.908
44512W        W16041  26.219  25.557  12.102
44513W        W16042  32.005  18.167  11.911
44514W        W16043   7.154  21.011   1.799
44515W        W16044  16.293  15.673  13.510
44516W        W16045  25.001  28.516   1.409
44517W        W16046  28.459  24.021  13.444
44518W        W16047   4.645  32.468  14.025
44519W        W16048  23.223  19.732  11.729
44520W        W16049  30.595  44.813   3.166
44521W        W16050  24.839   1.794  14.788
44522W        W16051  29.430  37.869  11.129
44523W        W16052   1.662  20.575  14.799
44524W        W16053  13.861  19.284   0.491
44525W        W16054  20.648   7.442  12.060
44526W        W16055  41.525  34.501   3.809
44527W        W16056  41.431  10.854   3.752
44528W        W16057  27.363  28.035   1.302
44529W        W16058  40.371  21.768  13.294
44530W        W16059  39.492  31.423  10.716
44531W        W16060  30.603  11.359   1.347
44532W        W16061  22.984  26.041   2.179
44533W        W16062  25.146   0.888  10.465
44534W        W16063  11.158  38.895  11.037
44535W        W16064   7.169  19.646   0.224
44536W        W16065  25.222  29.724   3.424
44537W        W16066  34.082  38.931  12.976
44538W        W16067  24.498  11.852  14.429
44539W        W16068  20.784  33.124  10.433
44540W        W16069  42.726  43.186   1.293
44541W        W16070  27.060  41.966   3.285
44542W        W16071   9.151  27.117  14.800
44543W        W16072  20.180  36.631   2.352
44544W        W16073  41.864  10.118  13.889
44545W        W16074  35.874  26.708   1.717
44546W        W16075   6.736  31.973   2.612
44547W        W16076  25.670  19.180  14.355
44548W        W16077  26.610   1.528  11.124
44549W        W16078  25.006  28.177  12.193
44550W        W16079  20.681   0.268   1.346
44551W        W16080  30.129  44.043  13.791
44552W        W16081  12.301   8.857  12.318
44553W        W16082  42.597  12.334  12.023
44554W        W16083  15.639  30.198   4.627
44555W        W16084  10.070  25.101  11.517
44556W        W16085   3.729  15.107   4.499
44557W        W16086  27.968   9.650   2.338
44558W        W16087  27.097  31.541   4.474
44559W        W16088  43.332  39.564  13.465
44560W        W16089   8.517  37.381   4.121
44561W        W16090   3.045  44.136  11.601
44562W        W16091  13.711  10.641   0.063
44563W        W16092  17.583   5.781   1.591
44564W        W16093  32.427  27.558   4.055
44565W        W16094  15.654  37.281  13.978
44566W        W16095  17.512  16.835   1.419
44567W        W16096  33.504   6.300  12.024
44568W        W16097  37.369  15.614   1.421
44569W        W16098  30.362  13.308  10.264
44570W        W16099  30.469  21.564  10.997
44571W        W16100  40.558  31.022   4.505
44572W        W16101  12.412  34.767  11.874
44573W        W16102   1.321  17.552   1.689
44574W        W16103  21.955  29.486  10.626
44575W        W16104  34.982  15.316   2.167
44576W        W16105  37.509  44.091   1.913
44577W        W16106  22.599  36.422   4.971
44578W        W16107   5.026  43.834   1.297
44579W        W16108  20.617  27.176   2.713
44580W        W16109  11.619  14.364   2.652
44581W        W16110  17.974  41.923   1.639
44582W        W16111  31.361  43.430  11.218
44583W        W16112  17.078  38.426   3.333
44584W        W16113  16.437  37.370  10.728
44585W        W16114   9.569  43.897   2.148
44586W        W16115  11.004  32.486  12.792
44587W        W16116  40.791  33.149   3.341
44588W        W16117   3.901  21.161   0.078
44589W        W16118  43.498   2.444   0.244
44590W        W16119  43.232  24.038   4.631
44591W        W16120  22.913   3.122  11.560
44592W        W16121  18.684  23.576  13.580
44593W        W16122  33.599  25.116  13.010
44594W        W16123   1.000  15.066  13.004
44595W        W16124  22.977  16.039   3.258
44596W        W16125  14.340  15.675   1.566
44597W        W16126   4.498  21.730  11.589
44598W        W16127  36.284  40.026  11.914
44599W        W16128  28.634  25.942  11.991
44600W        W16129  40.988  32.705   2.247
44601W        W16130  25.454  31.249   3.117
44602W        W16131   9.515  25.522   1.818
44603W        W16132  24.939  10.421   3.264
44604W        W16133  19.766  37.850   3.761
44605W        W16134  38.129  38.279  13.550
44606W        W16135  26.024  23.025   4.447
44607W        W16136  26.755  44.387  14.808
44608W        W16137  37.407   5.212   3.163
44609W        W16138  39.333  18.655   2.392
44610W        W16139   7.191  28.976   1.547
44611W        W16140  13.507   3.924  11.677
44612W        W16141  11.236   4.304   1.681
44613W        W16142  33.323  19.274   0.985
44614W        W16143  13.258  39.959  11.852
44615W        W16144  41.232  44.861  12.600
44616W        W16145  17.408  37.141  13.347
44617W        W16146   9.209  35.623  12.123
44618W        W16147  35.329  36.512   0.919
44619W        W16148  22.148  19.817  11.348
44620W        W16149  38.835  23.095   0.945
44621W        W16150  27.669   2.937   0.946
44622W        W16151   6.741   9.337   3.546
44623W        W16152  10.837  31.926  14.219
44624W        W16153  29.389  26.291  13.943
44625W        W16154  18.668  29.857   4.291
44626W        W16155  25.443   2.637   1.094
44627W        W16156  38.385  41.281   4.585
44628W        W16157  24.039  19.523  12.622
44629W        W16158  37.504  24.569   3.339
44630W        W16159  15.282  11.901   0.256
44631W        W16160  21.507  17.288   4.128
44632W        W16161  18.350   1.309  11.809
44633W        W16162  42.281  43.298  10.562
44634W        W16163   5.039  28.134  10.452
44635W        W16164  11.564  20.115   4.513
44636W        W16165   1.401   0.781  11.190
44637W        W16166   0.645   7.994   5.121
44638W        W16167  39.290  44.459   0.429
44639W        W16168  37.240  26.837   3.320
44640W        W16169  11.587  12.620   0.586
44641W        W16170  25.432  38.889  12.610
44642W        W16171  27.146  31.747  13.333
44643W        W16172  24.941   4.235   0.101
44644W        W16173   5.831  25.450   1.901
44645W        W16174  31.517   4.646  11.643
44646W        W16175  36.690  23.912   1.783
44647W        W16176   1.330  23.696   1.093
44648W        W16177   0.755  26.138  13.623
44649W        W16178  34.823  25.598  11.151
44650W        W16179  40.870  27.119  13.163
44651W        W16180   6.892  43.437   1.352
44652W        W16181  44.462  12.419  12.838
44653W        W16182  43.075   1.259  11.154
44654W        W16183  42.769  10.309  14.323
44655W        W16184  39.563  28.202   3.644
44656W        W16185  25.515  26.744  11.209
44657W        W16186  29.671  21.958   0.620
44658W        W16187   7.631  40.551   3.654
44659W        W16188  34.582  37.355  11.082
44660W        W16189  10.130  32.012  13.816
44661W        W16190   2.269  27.829  11.964
44662W        W16191  28.002  20.833  11.170
44663W        W16192  12.803  12.882  12.306
44664W        W16193   9.361   7.689  11.097
44665W        W16194  18.143  35.969   4.637
44666W        W16195  12.641   0.367  14.804
44667W        W16196  18.825  27.964  12.388
44668W        W16197  32.429  37.823   3.272
44669W        W16198  30.462  41.373   2.617
44670W        W16199  27.784  21.002   2.709
44671W        W16200  44.328  38.370  12.549
44672W        W16201  23.189   3.783  12.932
44673W        W16202  18.758   5.885   1.270
44674W        W16203  24.069   7.316   3.478
44675W        W16204   5.996   1.315   4.149
44676W        W16205  28.591  19.220  11.959
44677W        W16206  21.564   0.574  14.368
44678W        W16207   0.808  36.858  10.693
44679W        W16208  28.238  13.496  13.634
44680W        W16209  42.977  27.819   1.983
44681W        W16210  39.862  37.751  11.808
44682W        W16211  27.555  19.000   4.081
44683W        W16212  32.944   7.478  10.494
44684W        W16213  34.916  31.251  11.579
44685W        W16214  20.773  19.234  12.552
44686W        W16215  40.830  10.853  13.145
44687W        W16216  16.804  20.018  13.905
44688W        W16217  12.272   3.392  11.125
44689W        W16218  20.713  41.686  13.113
44690W        W16219  10.817  43.835   9.759
44691W        W16220  17.056  44.526   2.052
44692W        W16221  39.608   0.262  13.462
44693W        W16222  10.896  10.813   0.309
44694W        W16223  18.756  21.276   1.336
44695W        W16224   1.159  12.246   4.688
44696W        W16225  12.231  19.067  14.506
44697W        W16226  37.609  22.190   2.236
44698W        W16227   2.958  31.088   1.046
44699W        W16228   2.063   7.069  11.307
44700W        W16229   9.590  18.276  13.980
44701W        W16230  25.497  32.901   0.476
44702W        W16231  12.108  35.386  11.158
44703W        W16232  28.476   7.680   4.736
44704W        W16233  17.195  26.893   3.764
44705W        W16234  41.908  38.503   1.947
44706W        W16235  28.544   8.344   0.481
44707W        W16236  11.666  37.940  13.347
44708W        W16237   2.228   7.634  13.410
44709W        W16238   3.119  36.832   2.887
44710W        W16239  14.174  16.632   0.592
44711W        W16240  15.757  30.694  13.728
44712W        W16241  23.091  12.630   4.567
44713W        W16242  40.340  27.634  13.763
44714W        W16243   0.014   6.220  11.940
44715W        W16244  14.724  42.100  11.230
44716W        W16245  26.476  18.602   2.007
44717W        W16246  18.749  33.329   4.870
44718W        W16247  19.855  10.710  13.432
44719W        W16248  20.200  38.859   2.740
44720W        W16249  13.135  43.329  12.937
44721W        W16250  35.777  16.631  12.403
44722W        W16251  12.189  42.229   3.652
44723W        W16252  23.283  43.462  11.209
44724W        W16253  13.051   3.231  14.980
44725W        W16254   7.390   1.902   4.732
44726W        W16255  22.462  44.909  11.493
44727W        W16256  11.356   4.749  13.577
44728W        W16257   1.946   0.471   2.238
44729W        W16258   7.244  20.772   4.235
44730W        W16259  40.242  10.318  13.537
44731W        W16260  24.294  30.149  14.562
44732W        W16261  43.369  31.381   1.339
44733W        W16262  28.567   4.178   1.762
44734W        W16263   5.812  21.251  11.234
44735W        W16264  37.848  43.728  11.967
44736W        W16265  36.160  23.855  12.980
44737W        W16266   0.209  16.822  14.606
44738W        W16267  30.998  33.319   3.154
44739W        W16268   8.899  40.717   3.122
44740W        W16269   8.521   4.719   4.129
44741W        W16270  44.017  25.604  12.979
44742W        W16271  10.436  15.572   2.413
44743W        W16272  19.771   3.286   2.608
44744W        W16273  18.977   7.892  13.976
44745W        W16274   8.123  27.584  11.878
44746W        W16275   1.739  31.923  12.520
44747W        W16276   0.246  32.354   4.187
44748W        W16277  39.237  33.972  14.613
44749W        W16278   7.761  26.640   0.928
44750W        W16279  27.976  12.612  11.189
44751W        W16280   7.227   0.966   1.935
44752W        W16281  14.597   0.788   3.906
44753W        W16282  31.317  39.684  14.307
44754W        W16283  22.977  41.724   1.264
44755W        W16284   4.243  21.990  13.008
44756W        W16285  37.663  30.512  13.490
44757W        W16286  43.783  16.708   5.040
44758W        W16287   8.328   9.830   3.554
44759W        W16288  12.126  40.940  11.902
44760W        W16289  30.859   7.907  11.894
44761W        W16290  37.431  26.172   4.845
44762W        W16291  36.388   7.210  14.909
44763W        W16292  24.193   9.832  14.780
44764W        W16293  23.174  42.355   2.648
44765W        W16294  16.772   1.777   0.310
44766W        W16295  43.220   8.807  12.629
44767W        W16296  26.400  25.443  14.323
44768W        W16297  22.182  28.569   4.900
44769W        W16298  28.936  10.730   4.066
44770W        W16299  19.450   1.830  11.151
44771W        W16300  18.545  33.986   2.256
44772W        W16301  21.686  29.959   4.369
44773W        W16302  25.537   1.881   0.355
44774W        W16303  29.653  14.233   3.614
44775W        W16304  19.301  42.899   2.282
44776W        W16305   5.427   8.839   3.750
44777W        W16306  19.755  24.526  11.167
44778W        W16307   1.700   5.073  10.678
44779W        W16308  21.223  34.148  11.357
44780W        W16309  20.839   7.168  10.970
44781W        W16310  36.544   5.945  11.166
44782W        W16311  15.821   3.775   2.274
44783W        W16312  27.166  14.707   0.416
44784W        W16313  40.013  19.880  13.029
44785W        W16314  39.814  12.861  13.143
44786W        W16315   1.811  11.674  13.473
44787W        W16316   6.263   8.968   2.766
44788W        W16317  39.011  43.779   0.922
44789W        W16318  39.795   9.905   1.924
44790W        W16319  38.406  42.549   0.933
44791W        W16320  37.603  24.169  12.982
44792W        W16321  21.127  37.411  11.066
44793W        W16322  40.972   1.866   1.726
44794W        W16323   8.144  25.382  12.738
44795W        W16324  35.966  27.664   0.120
44796W        W16325  28.415  44.590  12.182
44797W        W16326  40.728  38.839   0.977
44798W        W16327   9.712  16.193  14.428
44799W        W16328  34.279  13.427  13.653
44800W        W16329  29.943  40.586   1.374
44801W        W16330  21.444  43.280  14.363
44802W        W16331  41.056  44.165  13.606
44803W        W16332  21.782  30.093   3.264
44804W        W16333  37.339  31.721   4.603
44805W        W16334  23.632  39.349   5.084
44806W        W16335  22.291  43.522  12.432
44807W        W16336  31.495  13.095  11.078
44808W        W16337   9.230   2.994  14.315
44809W        W16338  36.111  41.033  12.000
44810W        W16339  11.638  40.499  12.597
44811W        W16340   9.346  15.687  11.931
44812W        W16341  13.975  13.134  14.622
44813W        W16342  25.729  41.743   4.014
44814W        W16343   8.930  14.750   4.738
44815W        W16344  40.925   2.871  13.864
44816W        W16345  42.325   1.888   3.367
44817W        W16346  33.364  14.153  10.196
44818W        W16347  16.353  22.563   4.112
44819W        W16348  12.500  29.524   1.738
44820W        W16349  40.944  32.566   3.733
44821W        W16350  10.608  30.487  10.739
44822W        W16351  26.775  10.597  14.362
44823W        W16352   7.802  15.333   1.255
44824W        W16353  37.474  27.104  10.674
44825W        W16354   6.346  18.510   2.653
44826W        W16355  25.848  14.809   2.790
44827W        W16356   8.844  26.595   4.619
44828W        W16357  43.823  38.315  12.492
44829W        W16358   6.279  35.178  11.208
44830W        W16359  22.446  16.132   1.842
44831W        W16360  16.712   3.272   4.573
44832W        W16361  34.387   6.293  14.472
44833W        W16362  27.184  44.690  14.763
44834W        W16363  37.981  44.207   0.329
44835W        W16364  44.223   4.764  12.480
44836W        W16365  39.629  21.208  13.584
44837W        W16366  15.859  37.032   3.253
44838W        W16367  43.259  25.644   1.227
44839W        W16368  34.759   5.692  11.170
44840W        W16369  15.718  38.829  14.227
44841W        W16370  15.614  27.613   1.917
44842W        W16371  35.905  26.008  13.949
44843W        W16372  17.632  33.780   4.390
44844W        W16373  14.662  26.615  11.898
44845W        W16374   8.357  20.525   1.380
44846W        W16375  43.528  33.857  13.143
44847W        W16376  11.799   7.243  13.570
44848W        W16377  23.029   2.385   4.703
44849W        W16378  18.198  27.722   9.857
44850W        W16379  13.773   2.311   3.147
44851W        W16380   1.938  30.653  14.712
44852W        W16381  28.672  28.315  13.230
44853W        W16382   4.839  16.062  13.920
44854W        W16383  17.362  35.150   3.223
44855W        W16384  42.377   8.841   1.399
44856W        W16385  27.927  35.778  14.366
44857W        W16386  22.297   4.777   1.102
44858W        W16387  10.285  36.468  14.829
44859W        W16388  11.957  39.524  11.164
44860W        W16389  19.583  38.548  11.833
44861W        W16390   6.228   4.038  12.128
44862W        W16391  43.874  25.712   1.773
44863W        W16392  26.426   6.952   2.386
44864W        W16393  22.803  43.472  11.063
44865W        W16394  32.676  34.503   0.512
44866W        W16395  34.462  30.475   1.279
44867W        W16396   4.024  26.034   4.078
44868W        W16397   1.955  35.045   1.719
44869W        W16398  11.625  18.162   0.462
44870W        W16399   3.810  30.359   5.072
44871W        W16400  10.248  21.640  14.286
44872W        W16401  35.945  31.972  11.850
44873W        W16402  16.114  23.215  11.491
44874W        W16403  20.094  31.584   0.769
44875W        W16404  14.616  27.368  12.379
44876W        W16405  27.763  26.906   4.272
44877W        W16406   2.433  43.032   1.766
44878W        W16407  10.572  37.370   3.156
44879W        W16408  17.592  14.042   2.025
44880W        W16409  11.408  20.416   0.356
44881W        W16410  17.602  21.824   1.780
44882W        W16411  31.827  30.608  13.593
44883W        W16412  16.371  41.912  14.284
44884W        W16413  43.979  30.578  14.941
44885W        W16414   7.788  16.653   0.470
44886W        W16415  41.705   0.834   3.316
44887W        W16416  14.395  41.142   0.380
44888W        W16417   4.520  30.186   4.667
44889W        W16418  22.036  36.456   1.739
44890W        W16419  30.048  14.231   4.002
44891W        W16420   1.027  34.887   2.680
44892W        W16421  31.076  42.065   3.636
44893W        W16422   3.519   1.809   0.461
44894W        W16423  17.031  28.493   2.576
44895W        W16424  44.759   3.897   3.749
44896W        W16425   3.377   6.152  14.035
44897W        W16426  15.257  11.383   0.211
44898W        W16427  14.266  39.550   1.457
44899W        W16428   9.715  39.381  12.055
44900W        W16429  35.524  42.101  14.422
44901W        W16430  31.629  19.038  14.403
44902W        W16431   6.711  43.470   2.202
44903W        W16432  20.074  43.304  14.776
44904W        W16433   7.111  27.185   4.604
44905W        W16434  42.721   8.235  11.522
44906W        W16435   7.271  34.027  13.017
44907W        W16436  22.050   0.301   3.621
44908W        W16437  15.301  35.986   1.346
44909W        W16438  17.970  18.808  14.568
44910W        W16439   6.781  18.663  12.653
44911W        W16440  23.798  40.120   2.742
44912W        W16441  18.213  25.478  14.795
44913W        W16442  19.300  29.034  12.762
44914W        W16443   2.887  30.533  14.703
44915W        W16444  24.428  24.634  10.474
44916W        W16445  27.085  19.617   4.635
44917W        W16446   9.407   8.344  10.793
44918W        W16447  21.337   6.189   0.397
44919W        W16448  17.631  21.670   2.712
44920W        W16449   9.102   0.402  12.957
44921W        W16450  17.084  34.066   3.242
44922W        W16451   9.660  16.361  11.584
44923W        W16452   8.363  21.301   0.006
44924W        W16453  27.003  42.409   0.953
44925W        W16454  31.563  35.318   4.519
44926W        W16455  13.531  18.394  13.962
44927W        W16456  23.235  11.436   3.867
44928W        W16457  34.551  25.107  11.938
44929W        W16458  39.541  28.116  11.527
44930W        W16459   5.155  38.009   1.764
44931W        W16460  13.174  43.700  14.756
44932W        W16461  22.224  32.999  14.228
44933W        W16462  44.455  15.781   3.766
44934W        W16463  17.070   5.231   2.279
44935W        W16464  36.558  18.444  14.580
44936W        W16465  32.694  23.578  13.503
44937W        W16466  43.647  27.024   1.404
44938W        W16467  20.167  13.705   1.103
44939W        W16468  38.547  19.675   4.433
44940W        W16469  27.585   9.306   4.616
44941W        W16470  39.392  24.565   4.953
44942W        W16471  40.151  31.004   0.329
44943W        W16472  36.801   4.445   3.658
44944W        W16473  41.212  35.078  11.295
44945W        W16474  31.306  41.440  14.510
44946W        W16475  35.180  30.880   3.723
44947W        W16476  43.496   2.455   2.308
44948W        W16477  15.648  34.143   3.333
44949W        W16478  25.119   8.224   3.599
44950W        W16479  23.548  28.741  13.543
44951W        W16480  38.889  39.337  11.097
44952W        W16481   0.428   0.539  14.762
44953W        W16482  13.133  10.438   2.261
44954W        W16483  10.292  43.444  11.002
44955W        W16484  42.403  16.191   0.557
44956W        W16485  16.837  18.061  14.873
44957W        W16486  36.428  44.736   3.633
44958W        W16487   7.827  31.512   3.780
44959W        W16488  30.608  38.513  13.065
44960W        W16489  11.791  12.323  13.394
44961W        W16490  39.581  13.200   2.970
44962W        W16491  14.545  40.864  12.109
44963W        W16492  13.866   3.481  12.923
44964W        W16493   0.028  19.309   1.472
44965W        W16494  41.141  22.061  14.978
44966W        W16495  29.457  10.746   4.111
44967W        W16496  24.468  17.302  11.628
44968W        W16497  31.772  11.284  12.566
44969W        W16498   4.787  35.617  10.864
44970W        W16499  41.217  42.437   2.269
44971W        W16500  25.159  33.510   3.252
44972W        W16501  25.463   9.074   1.444
44973W        W16502  39.251  44.784  12.824
44974W        W16503   9.861   1.895  13.908
44975W        W16504   8.901  43.840   0.716
44976W        W16505  20.364  18.047  11.535
44977W        W16506  40.624  35.054   1.809
44978W        W16507   5.013  14.364  12.811
44979W        W16508  36.156   7.196  11.099
44980W        W16509  39.574  23.283  11.693
44981W        W16510  25.101  18.698   0.033
44982W        W16511  38.904  12.465   0.762
44983W        W16512  33.473  32.721  11.509
44984W        W16513  10.871  42.267   0.486
44985W        W16514  31.351  33.631   2.894
44986W        W16515  19.963  10.146  14.821
44987W        W16516  18.741  22.985   2.540
44988W        W16517  23.061  26.982   2.131
44989W        W16518  29.219  10.054   3.375
44990W        W16519  31.053  20.291  13.525
44991W        W16520  31.368  15.507   0.799
44992W        W16521  30.416  19.048  12.616
44993W        W16522  30.554  41.785  13.605
44994W        W16523  26.747  41.752   2.932
44995W        W16524  37.524  20.812  13.351
44996W        W16525   4.107  17.623  13.368
44997W        W16526  34.287   1.462   1.814
44998W        W16527  23.651  29.147   1.414
44999W        W16528  29.168   2.858   1.699
45000W        W16529  16.604  13.515   3.141
45001W        W16530  11.587  17.703  10.170
45002W        W16531  26.505  27.787  12.957
45003W        W16532  42.240  38.382  13.372
45004W        W16533  10.561  32.563  11.988
45005W        W16534  40.163   4.991   0.046
45006W        W16535  44.436  36.303  14.987
45007W        W16536  33.340   7.355   2.720
45008W        W16537  26.249  16.340  12.660
45009W        W16538   9.080  18.126  12.160
45010W        W16539  20.209  18.606  12.784
45011W        W16540  17.226  11.793  12.056
45012W        W16541  16.289  30.699  12.791
45013W        W16542  42.047  10.350   1.915
45014W        W16543   8.410  32.153  13.776
45015W        W16544  31.353  26.216  13.938
45016W        W16545   4.422   2.159  14.444
45017W        W16546  30.556  40.367  11.581
45018W        W16547  11.493  19.145   0.989
45019W        W16548   4.495  40.764   2.623
45020W        W16549   3.527   1.486   0.946
45021W        W16550   5.546   9.180   0.424
45022W        W16551  39.622   2.999  11.977
45023W        W16552  44.649  37.004   4.105
45024W        W16553  38.725  26.235   2.868
45025W        W16554  34.482  20.233   4.662
45026W        W16555  12.256  17.741   2.139
45027W        W16556   8.928   4.216   1.897
45028W        W16557  19.250   8.837   0.676
45029W        W16558  23.095   2.786  14.057
45030W        W16559  36.158   6.837  11.498
45031W        W16560  42.293   9.177  12.847
45032W        W16561  37.022  14.816  13.520
45033W        W16562  31.824  28.518   4.640
45034W        W16563  15.801   4.840  12.581
45035W        W16564  28.012  21.159   2.263
45036W        W16565  26.444  32.048  12.968
45037W        W16566  23.040  38.442  14.293
45038W        W16567  15.106  17.343   1.309
45039W        W16568  11.150  39.956  14.600
45040W        W16569   4.761   6.265   2.769
45041W        W16570  34.711  36.098   2.212
45042W        W16571  12.918   8.610  11.550
45043W        W16572  40.560  26.429   1.747
45044W        W16573  27.601   8.571  11.975
45045W        W16574   8.482  37.890   3.790
45046W        W16575  34.543  22.969  10.674
45047W        W16576  15.287  22.638  14.857
45048W        W16577  38.349   5.844  13.510
45049W        W16578  19.669  43.926  12.783
45050W        W16579  35.806  24.137   1.314
45051W        W16580  20.224  10.844   4.778
45052W        W16581   2.399  11.758   3.784
45053W        W16582   3.863  41.853   3.239
45054W        W16583  40.888  34.410   0.630
45055W        W16584  34.369  16.639  13.346
45056W        W16585  15.073  19.126  11.105
45057W        W16586  22.059  32.929  11.486
45058W        W16587  38.979  31.864  11.142
45059W        W16588  15.241  28.921  13.147
45060W        W16589  32.662  22.237   3.614
45061W        W16590   4.476   4.342   1.895
45062W        W16591   6.802  15.542   1.330
45063W        W16592  33.147  30.975  13.173
45064W        W16593  23.279  28.437   0.970
45065W        W16594  37.041  11.774  10.780
45066W        W16595   8.569  22.583   4.595
45067W        W16596  37.997  35.419  14.769
45068W        W16597  31.942  26.221   4.490
45069W        W16598  44.878  24.973   2.221
45070W        W16599  41.280  34.139  10.803
45071W        W16600  26.200  36.047   4.846
45072W        W16601  18.351  40.811  14.386
45073W        W16602  41.187   2.039  12.548
45074W        W16603  30.516   2.126  11.420
45075W        W16604   4.320  39.333   0.370
45076W        W16605  12.620  31.250   4.565
45077W        W16606   0.920  37.346   0.923
45078W        W16607   0.675   7.707  13.301
45079W        W16608  28.273  20.335  13.958
45080W        W16609  15.278  29.071   4.186
45081W        W16610  42.262  41.185   1.560
45082W        W16611  43.447  22.432   0.697
45083W        W16612  17.011   0.536  11.145
45084W        W16613  34.086  43.493  14.740
45085W        W16614  36.589  41.347  11.435
45086W        W16615  10.206   5.460  12.068
45087W        W16616  30.180  15.712  11.570
45088W        W16617  42.578  26.016   0.655
45089W        W16618  36.544  40.235  14.282
45090W        W16619  19.248  35.858   3.143
45091W        W16620   3.210  24.279  11.221
45092W        W16621  19.598  10.046  12.946
45093W        W16622   5.807  19.660   3.511
45094W        W16623   8.366  28.074  13.819
45095W        W16624  43.704  17.848  11.186
45096W        W16625  15.477   2.669   1.803
45097W        W16626  24.569   3.544   9.905
45098W        W16627  31.958  38.950  14.929
45099W        W16628   5.531  19.480  12.434
45100W        W16629  44.518   8.786  12.442
45101W        W16630  23.268  36.465  14.391
45102W        W16631  11.648  33.893   1.872
45103W        W16632   9.308   8.677   0.247
45104W        W16633  37.267   1.362   3.212
45105W        W16634   5.239   4.677  14.468
45106W        W16635  40.484  21.036  11.722
45107W        W16636  14.126  19.715   1.357
45108W        W16637  39.584  41.752  14.441
45109W        W16638  42.327  27.165   1.704
45110W        W16639  33.410   5.896   3.743
45111W        W16640   5.344  40.058   1.304
45112W        W16641  19.777  15.168   3.740
45113W        W16642  23.077  22.630  10.044
45114W        W16643   0.744   5.720   2.908
45115W        W16644  12.820  41.857  11.216
45116W        W16645  18.082  24.991  14.819
45117W        W16646  17.095  42.528   1.836
45118W        W16647  28.443  44.487   4.370
45119W        W16648  34.411  19.785  11.559
45120W        W16649  17.020   4.601   0.362
45121W        W16650   7.301  17.826   0.377
45122W        W16651  21.011  15.053   1.447
45123W        W16652   7.336  28.664  12.080
45124W        W16653  23.569  41.761  14.563
45125W        W16654  18.973  18.608  12.028
45126W        W16655  42.420  26.254  10.961
45127W        W16656  43.396  34.390   3.836
45128W        W16657  38.383  29.134   2.867
45129W        W16658  13.630  20.760   2.896
45130W        W16659   9.229  40.535   2.316
45131W        W16660   2.441  22.629  10.153
45132W        W16661  28.181   2.491   2.062
45133W        W16662  11.916  35.488   2.287
45134W        W16663  23.704  34.582   3.866
45135W        W16664   7.692  15.112  13.914
45136W        W16665  32.076  39.287  12.611
45137W        W16666  43.405  15.241   2.151
45138W        W16667  22.741  22.717  14.305
45139W        W16668  11.770  36.948   2.499
45140W        W16669  11.480  19.608   1.350
45141W        W16670  44.959  38.638  10.551
45142W        W16671  33.517  15.935  10.715
45143W        W16672  34.938  12.300  14.898
45144W        W16673  12.109  31.653  10.523
45145W        W16674  19.245  20.314   0.096
45146W        W16675  42.279   0.862  12.591
45147W        W16676  18.381  15.167  14.447
45148W        W16677  18.189  41.339  12.077
45149W        W16678  44.705  23.656   2.707
45150W        W16679   4.492  18.749  10.925
45151W        W16680   4.444  26.214  13.817
45152W        W16681  10.240   4.882  10.370
45153W        W16682  21.080   7.747  12.937
45154W        W16683  36.355  29.762  10.928
45155W        W16684  32.701  11.658  14.950
45156W        W16685   2.588  24.706  10.564
45157W        W16686  35.012  25.127  13.624
45158W        W16687  20.481   6.946   2.178
45159W        W16688   5.043  27.709   2.728
45160W        W16689  19.814   7.789  10.709
45161W        W16690  11.296  37.471  12.576
45162W        W16691  28.067  32.619  12.802
45163W        W16692  15.341  31.124  12.980
45164W        W16693   8.857  32.158  11.658
45165W        W16694   2.292  35.411   0.784
45166W        W16695  38.123   6.272  12.383
45167W        W16696  17.207  42.228   1.420
45168W        W16697  21.301  19.866  11.576
45169W        W16698  41.438   4.461   0.014
45170W        W16699  11.347  20.645   3.848
45171W        W16700  41.475  24.838   1.480
45172W        W16701  28.720  21.218  10.617
45173W        W16702  34.409  38.107  11.625
45174W        W16703  20.049  14.697  14.880
45175W        W16704  11.386  43.097   4.250
45176W        W16705   7.167  35.130   1.083
45177W        W16706  12.348  19.889  13.929
45178W        W16707  40.536   3.150  12.011
45179W        W16708  21.063  29.435  10.742
45180W        W16709  32.465  31.510  11.592
45181W        W16710   9.276  35.536   1.243
45182W        W16711  22.922  12.872  13.609
45183W        W16712  19.319  10.341   4.574
45184W        W16713  16.255  34.590   1.066
45185W        W16714  41.582  11.079   3.301
45186W        W16715  14.029  28.988  13.458
45187W        W16716  14.125  35.299   4.243
45188W        W16717  26.089  27.921   1.860
45189W        W16718  36.339   3.929   4.231
45190W        W16719  44.728  25.197  11.902
45191W        W16720  23.755  21.908   0.303
45192W        W16721   9.325  36.021  13.500
45193W        W16722   9.267  39.326  14.175
45194W        W16723   1.503  40.001   0.418
45195W        W16724  41.940  22.310  11.194
45196W        W16725   2.320  22.461   3.129
45197W        W16726  34.092  23.924  14.920
45198W        W16727  26.077  22.504  14.221
45199W        W16728  42.305  14.765   4.303
45200W        W16729   1.914  43.993  14.492
45201W        W16730  30.367  38.893   4.798
45202W        W16731   8.191  22.230   0.973
45203W        W16732  41.121  15.183   3.785
45204W        W16733  23.133   6.964   2.579
45205W        W16734   2.276  25.488   1.454
45206W        W16735  17.809  44.662   2.680
45207W        W16736  33.057  11.813   4.646
45208W        W16737  16.167  18.078   2.309
45209W        W16738  24.637   6.738   1.089
45210W        W16739  44.731  40.408   2.234
45211W        W16740  19.240  15.328   0.980
45212W        W16741  23.430  32.632   1.733
45213W        W16742   2.152  25.737   4.044
45214W        W16743  41.612  23.599   3.475
45215W        W16744   8.140   0.274   1.300
45216W        W16745  10.670  20.036  10.413
45217W        W16746  34.494   6.846  10.670
45218W        W16747  36.587  14.489   2.594
45219W        W16748  19.164  38.734   4.047
45220W        W16749   2.360  33.422   2.995
45221W        W16750   4.227  39.894  11.559
45222W        W16751  20.645  22.131   0.896
45223W        W16752   2.790  22.204   1.813
45224W        W16753  26.375  26.045   0.547
45225W        W16754   7.211  23.737  12.515
45226W        W16755  24.114   9.083  11.091
45227W        W16756   8.926  14.050   3.238
45228W        W16757  40.451  21.560   5.055
45229W        W16758  37.050  20.574  10.711
45230W        W16759  44.455  12.389  14.775
45231W        W16760  43.427  13.406  14.867
45232W        W16761  18.456  25.085  11.126
45233W        W16762  31.522  23.986   5.368
45234W        W16763  23.956  15.978  12.474
45235W        W16764  14.684  36.645   4.505
45236W        W16765  11.198  13.351   3.204
45237W        W16766  17.069  34.372   1.375
45238W        W16767  20.525   3.368  13.485
45239W        W16768  25.599   7.560   2.069
45240W        W16769   8.784  40.096   0.259
45241W        W16770  20.817  29.984   4.631
45242W        W16771  13.219  32.819  13.048
45243W        W16772   4.761  23.604  14.096
45244W        W16773  40.349  17.353   0.411
45245W        W16774  37.708  28.641  13.582
45246W        W16775   6.881  32.367   1.829
45247W        W16776  17.719  33.544   1.829
45248W        W16777  44.235  26.226  11.558
45249W        W16778  37.477  12.312   4.711
45250W        W16779  19.775  26.006   3.176
45251W        W16780   2.885  38.248  12.368
45252W        W16781   3.861  18.025   0.777
45253W        W16782  22.645  18.669   4.423
45254W        W16783  36.157  41.985   0.471
45255W        W16784  27.655  22.149   3.352
45256W        W16785  37.863  12.776   0.808
45257W        W16786   4.459   8.760  13.429
45258W        W16787  17.775  27.627   5.702
45259W        W16788  36.593  23.965   2.842
45260W        W16789  41.511  12.916   4.698
45261W        W16790  17.482   7.868   3.648
45262W        W16791  23.142   7.181  14.087
45263W        W16792  21.025  15.810   0.814
45264W        W16793   4.823  37.447   4.547
45265W        W16794  16.173  17.464   3.770
45266W        W16795  40.806  39.349  11.983
45267W        W16796  16.854   2.672   0.184
45268W        W16797   9.170  32.456   0.438
45269W        W16798  17.559  26.177  10.725
45270W        W16799   1.071   5.437   0.257
45271W        W16800   7.172   8.087   3.228
45272W        W16801   2.762  42.773  13.870
45273W        W16802  13.213  36.540   4.383
45274W        W16803   1.509  28.654   0.349
45275W        W16804   4.042  13.875   1.309
45276W        W16805   9.775   6.541   4.173
45277W        W16806  44.895  11.822   4.140
45278W        W16807  13.865  31.170   1.965
45279W        W16808  11.541  14.706  12.812
45280W        W16809  21.697  36.270  13.319
45281W        W16810  25.955   4.369   1.759
45282W        W16811  31.200  25.078   2.170
45283W        W16812  24.108  28.183   2.489
45284W        W16813  37.711  17.887  11.181
45285W        W16814  10.746   1.560   0.048
45286W        W16815  19.209   2.629  12.642
45287W        W16816   3.316  22.486   4.176
45288W        W16817  40.963  13.069   1.252
45289W        W16818  16.139  44.488   1.648
45290W        W16819  38.131  28.665   1.636
45291W        W16820  26.581  32.516   2.802
45292W        W16821  31.480  41.528   2.925
45293W        W16822  32.397  15.124  11.639
45294W        W16823  42.386  29.962   0.806
45295W        W16824   7.421  28.600  11.131
45296W        W16825  10.781  23.692   3.385
45297W        W16826  13.303  17.489  13.400
45298W        W16827   0.788  27.512   4.566
45299W        W16828  16.690   9.415   0.261
45300W        W16829   4.306   2.294  11.610
45301W        W16830  20.195  24.593   2.385
45302W        W16831   2.343  31.714   0.280
45303W        W16832  27.002  36.500  14.502
45304W        W16833  17.804  16.224  11.533
45305W        W16834  24.842  22.674  12.600
45306W        W16835  21.894  11.156  12.884
45307W        W16836  31.916  22.565   3.239
45308W        W16837  13.101  29.935   3.837
45309W        W16838  27.911  12.058   4.121
45310W        W16839  28.807   7.628   4.312
45311W        W16840  44.767  25.994   3.152
45312W        W16841  39.019  30.283   0.274
45313W        W16842  29.175  11.231  11.146
45314W        W16843  41.356  15.638   3.600
45315W        W16844  37.750   4.666  11.606
45316W        W16845   9.274  31.140  11.058
45317W        W16846  44.291  19.964   3.655
45318W        W16847  18.068   5.957   4.792
45319W        W16848  16.780  15.038  11.539
45320W        W16849  15.626  32.129   2.447
45321W        W16850  39.045   6.362   4.400
45322W        W16851  35.888  16.587   0.844
45323W        W16852   7.285   9.755   3.150
45324W        W16853   4.860  44.901   4.286
45325W        W16854  25.406   1.837  11.053
45326W        W16855   1.906   0.593   1.303
45327W        W16856  44.414  11.333  14.512
45328W        W16857   1.879  32.034  12.033
45329W        W16858  13.565  21.508  12.691
45330W        W16859  23.654  13.123   4.352
45331W        W16860  12.296  18.509  11.166
45332W        W16861  26.861  25.828   2.416
45333W        W16862  14.349  32.639  10.642
45334W        W16863  35.114  16.779  10.099
45335W        W16864   3.294   1.884  14.991
45336W        W16865  33.044   6.267  12.989
45337W        W16866  44.808  10.248  10.689
45338W        W16867   7.206  34.365   4.086
45339W        W16868  41.096  21.041  12.684
45340W        W16869  30.267  16.805   5.194
45341W        W16870  28.790  18.660  14.879
45342W        W16871   9.352  36.322   4.596
45343W        W16872   5.774  44.557   3.588
45344W        W16873  18.818  26.500  14.490
45345W        W16874  44.018  15.648  11.805
45346W        W16875  36.275  24.925   2.757
45347W        W16876  31.230  24.054   2.819
45348W        W16877   5.679  29.460   1.726
45349W        W16878   4.387  26.972  12.652
45350W        W16879  10.705  14.115  13.791
45351W        W16880  18.997  12.173   0.404
45352W        W16881   0.942   9.049   1.703
45353W        W16882  18.977  22.047   0.184
45354W        W16883  39.412  16.057  10.664
45355W        W16884  20.743  17.662   0.338
45356W        W16885  21.147  13.447  13.706
45357W        W16886  35.471  30.414   1.383
45358W        W16887  30.778   8.581   5.117
45359W        W16888  32.512   5.214  12.031
45360W        W16889   7.558  14.699  12.483
45361W        W16890  25.887  19.634   0.393
45362W        W16891  14.855   1.733   1.317
45363W        W16892  16.641  29.209   3.992
45364W        W16893  27.076  37.120   2.389
45365W        W16894  10.115  13.606   4.218
45366W        W16895   1.979  44.860  11.546
45367W        W16896  20.743  21.331  12.614
45368W        W16897   3.481  22.003   3.219
45369W        W16898  28.484  15.300  13.031
45370W        W16899  35.537  33.870   0.910
45371W        W16900  19.744   5.384   4.506
45372W        W16901  42.762   0.373   0.204
45373W        W16902  13.538  24.492   1.137
45374W        W16903  12.857  42.547   0.427
45375W        W16904   6.073  39.316  14.982
45376W        W16905  35.074  26.746  13.908
45377W        W16906   6.196  15.947   0.396
45378W        W16907   5.707  15.604  12.479
45379W        W16908   4.191  35.207   0.937
45380W        W16909  32.387  23.071  12.745
45381W        W16910  24.519  12.445   0.364
45382W        W16911  10.717  26.271  12.292
45383W        W16912  29.649  41.549  14.532
45384W        W16913  36.933  36.348   3.050
45385W        W16914   6.406  20.514   1.862
45386W        W16915  37.465   7.608  12.464
45387W        W16916   4.328  32.385  13.598
45388W        W16917  41.579  18.216  12.734
45389W        W16918  32.608  12.958  11.959
45390W        W16919  15.585  30.686  13.162
45391W        W16920  34.061   6.028  11.885
45392W        W16921  40.357  34.415   3.546
45393W        W16922  37.091  35.839   2.162
45394W        W16923  32.529   9.328  13.826
45395W        W16924  23.124  31.682   3.726
45396W        W16925  38.558  29.708  13.003
45397W        W16926  35.973  17.245   3.179
45398W        W16927  25.817  35.788   3.946
45399W        W16928  33.977  43.866  10.613
45400W        W16929  30.151  36.073   1.388
45401W        W16930   4.465  22.146   1.363
45402W        W16931  44.303   6.409  14.748
45403W        W16932  18.848   6.930   0.408
45404W        W16933  20.199   5.961  14.807
45405W        W16934  10.330  15.745  13.791
45406W        W16935  14.175  25.978  14.058
45407W        W16936  31.590  41.258   2.500
45408W        W16937  35.142  21.871  11.266
45409W        W16938   7.710   7.983   1.375
45410W        W16939  10.581  40.966  14.771
45411W        W16940  13.426   5.854   3.224
45412W        W16941   0.783  19.116  14.771
45413W        W16942  19.722   8.175   3.066
45414W        W16943   6.247  21.479  11.068
45415W        W16944   9.939  28.254  10.797
45416W        W16945  11.745  30.661   2.626
45417W        W16946  20.497  32.152   1.261
45418W        W16947  32.810  44.223  14.359
45419W        W16948  16.870  30.967   4.609
45420W        W16949   0.474  19.069   4.624
45421W        W16950  30.068  20.580   3.867
45422W        W16951  17.688  33.589  13.040
45423W        W16952  17.027  13.311  11.475
45424W        W16953  41.827  18.203   4.519
45425W        W16954  31.603  18.590  13.123
45426W        W16955   8.701   6.361  12.947
45427W        W16956  42.685  31.525   4.097
45428W        W16957  11.765  21.591   3.570
45429W        W16958  34.089  31.009   4.717
45430W        W16959  27.712   2.132  11.350
45431W        W16960  17.253   1.425   2.156
45432W        W16961  33.843  32.033  11.173
45433W        W16962  42.053  17.280   2.605
45434W        W16963   7.228  23.596  11.228
45435W        W16964  11.313  39.312   4.610
45436W        W16965  27.218  39.839   0.442
45437W        W16966  18.745   2.896  10.438
45438W        W16967   2.881  32.110  12.445
45439W        W16968  15.008  25.761   2.195
45440W        W16969  16.709  18.103  12.777
45441W        W16970  44.640  13.805   3.672
45442W        W16971  20.770  30.432  11.118
45443W        W16972  14.765  37.055  11.976
45444W        W16973  12.465   3.384   2.171
45445W        W16974  10.050  22.838  14.316
45446W        W16975  23.105  12.050   1.431
45447W        W16976  17.851   9.252   3.274
45448W        W16977   0.421  17.636   1.341
45449W        W16978  11.691  14.184   0.006
45450W        W16979   3.192   0.197  13.503
45451W        W16980  35.603  21.221  14.991
45452W        W16981  33.163   6.694  12.074
45453W        W16982  35.310   3.699  13.834
45454W        W16983  39.005  33.967   1.755
45455W        W16984  29.050   3.352   1.881
45456W        W16985  36.840  10.134   3.789
45457W        W16986   3.574  14.085   4.374
45458W        W16987  24.592  13.548   2.653
45459W        W16988  17.068  23.019   4.043
45460W        W16989   3.933  36.701   1.751
45461W        W16990  22.582  15.217  14.799
45462W        W16991  18.542  36.812   0.599
45463W        W16992  24.720  42.519   3.644
45464W        W16993  16.547  36.598   3.575
45465W        W16994  15.175   5.107   2.247
45466W        W16995  20.011  36.637   2.860
45467W        W16996  44.882   4.113   4.202
45468W        W16997  43.315  29.281  13.974
45469W        W16998  12.238  10.689   2.293
45470W        W16999   6.230  44.461  10.740
45471W        W17000  13.397  26.572   4.761
45472W        W17001  25.632  17.329   3.681
45473W        W17002  32.883  43.866  13.965
45474W        W17003  34.976  20.561  11.679
45475W        W17004  20.122  12.226   1.878
45476W        W17005  16.111  14.075   4.583
45477W        W17006   2.429   6.155   4.191
45478W        W17007  20.498  23.527  13.034
45479W        W17008  44.488   3.201  14.294
45480W        W17009  40.348  37.861  11.945
45481W        W17010  17.047  18.591   0.563
45482W        W17011  11.498  34.616  12.452
45483W        W17012  27.498  38.391   4.672
45484W        W17013  36.573   7.769   1.172
45485W        W17014   0.540  18.766   4.182
45486W        W17015  33.118   5.326  11.148
45487W        W17016  42.964  37.309   2.318
45488W        W17017  31.550  23.956   1.166
45489W        W17018   2.401  24.709   0.800
45490W        W17019  32.066  44.805   0.335
45491W        W17020   2.267  26.152   3.678
45492W        W17021  19.730   2.293   4.279
45493W        W17022  12.768  23.018   0.353
45494W        W17023   1.318  17.184   0.328
45495W        W17024  37.058  33.401   3.346
45496W        W17025  22.201  41.787   2.558
45497W        W17026   8.709  26.719   0.883
45498W        W17027  23.247  27.945  12.527
45499W        W17028  25.416  33.979   1.900
45500W        W17029  41.843  26.732   2.717
45501W        W17030  14.508  25.500  12.957
45502W        W17031  35.522  17.093   2.877
45503W        W17032  44.311   1.339  12.480
45504W        W17033  23.274  11.445   0.442
45505W        W17034   1.906  37.204   4.265
45506W        W17035  39.509  37.338  11.108
45507W        W17036  36.559  23.008   2.710
45508W        W17037   6.132   6.388   3.169
45509W        W17038  17.243  17.206   1.680
45510W        W17039   6.606  36.376   4.212
45511W        W17040  28.820  36.601  12.605
45512W        W17041  27.928  35.091   0.420
45513W        W17042  21.851  20.300   4.050
45514W        W17043  35.784  31.184  12.406
45515W        W17044  42.127  17.971   2.337
45516W        W17045   1.228  28.569  13.139
45517W        W17046  33.841  29.511   2.825
45518W        W17047  44.449   4.515   5.095
45519W        W17048  11.727  20.128   2.650
45520W        W17049   9.712  33.555   4.403
45521W        W17050  30.169  41.309  11.674
45522W        W17051  37.609   2.928   1.809
45523W        W17052   4.653  43.324  12.740
45524W        W17053   6.722  44.424  10.980
45525W        W17054  18.998  13.738   3.805
45526W        W17055  15.568  12.243  13.565
45527W        W17056  42.854  42.824   2.652
45528W        W17057  21.241  10.366  14.441
45529W        W17058  36.130  25.625   4.215
45530W        W17059  27.048   7.624  12.778
45531W        W17060  36.347  26.009  12.927
45532W        W17061   0.507  32.143   5.330
45533W        W17062  39.921   3.185  14.495
45534W        W17063  31.515  23.641   2.658
45535W        W17064  43.756  23.682  11.130
45536W        W17065  11.216  28.605  12.963
45537W        W17066  32.921  20.743  10.538
45538W        W17067   2.889   1.187  14.051
45539W        W17068  15.673  13.870   4.398
45540W        W17069  27.277  41.813   4.226
45541W        W17070  10.732  37.897  12.368
45542W        W17071  30.380  26.945  13.145
45543W        W17072  14.212   7.876   1.796
45544W        W17073  23.296   6.854  12.994
45545W        W17074  42.700  10.169  11.372
45546W        W17075  35.231  42.941   4.961
45547W        W17076  43.333  24.610  13.545
45548W        W17077   2.129  26.392  14.367
45549W        W17078  19.147  23.604  14.331
45550W        W17079   6.152  29.232   4.556
45551W        W17080  43.421   6.912   1.779
45552W        W17081  19.972  17.908  10.255
45553W        W17082   5.878  41.255   1.888
45554W        W17083  40.289  39.086   0.772
45555W        W17084  26.117   4.652  12.962
45556W        W17085  24.263  10.296   2.196
45557W        W17086  11.188  15.734  10.386
45558W        W17087  15.826  38.013   2.356
45559W        W17088  11.453  36.590  12.508
45560W        W17089   8.864  36.337  11.556
45561W        W17090  30.012  24.545   3.191
45562W        W17091  21.221  19.515   4.878
45563W        W17092  29.098  33.656  13.894
45564W        W17093  37.400  24.579  12.104
45565W        W17094  31.368  24.918   0.758
45566W        W17095  26.614   6.829  10.728
45567W        W17096  16.175  26.570  11.146
45568W        W17097  16.115  39.116   2.813
45569W        W17098  41.771  27.773  12.511
45570W        W17099  29.973  14.399  12.163
45571W        W17100  21.513   9.272   2.054
45572W        W17101  23.323  40.026   0.357
45573W        W17102  10.819  23.756  14.774
45574W        W17103  38.387  15.657  12.007
45575W        W17104  15.491  33.332  12.043
45576W        W17105  33.082  24.544  10.611
45577W        W17106  25.134  16.306   1.962
45578W        W17107  29.083   6.023   1.757
45579W        W17108  34.906  43.980   1.503
45580W        W17109  24.603   8.205   4.859
45581W        W17110   1.407  39.102   0.736
45582W        W17111  35.780   6.823  13.683
45583W        W17112  20.524  34.885  12.542
45584W        W17113  38.969  15.177   4.730
45585W        W17114  35.812  25.612  13.615
45586W        W17115  32.592  18.666  12.898
45587W        W17116  40.748  42.868  14.548
45588W        W17117  20.299   6.488  14.030
45589W        W17118  19.350   7.275   1.739
45590W        W17119  10.329  10.226  12.475
45591W        W17120  30.855   0.895  13.363
45592W        W17121  36.574  19.247   3.113
45593W        W17122   5.822   7.263  13.973
45594W        W17123  43.068  38.230  14.544
45595W        W17124  31.544   2.999  13.933
45596W        W17125  25.001   4.132  10.760
45597W        W17126  24.877   4.408   1.798
45598W        W17127   7.913  21.184   0.383
45599W        W17128  28.991  15.306  12.843
45600W        W17129  10.715  12.293  13.171
45601W        W17130  15.175   5.743  11.397
45602W        W17131  24.031   9.259  14.819
45603W        W17132   8.871   9.263   4.728
45604W        W17133  17.758  35.329  14.860
45605W        W17134  34.575  44.232   1.939
45606W        W17135  12.489  21.151  11.913
45607W        W17136   0.812  10.254   3.471
45608W        W17137  11.735   4.985   0.708
45609W        W17138  24.113  15.136   2.412
45610W        W17139  38.747  35.929   3.337
45611W        W17140  19.892  42.326  11.579
45612W        W17141  16.788   0.202  10.830
45613W        W17142  25.609  31.135   1.720
45614W        W17143  18.035  35.871   2.194
45615W        W17144  11.305  19.235  14.453
45616W        W17145   7.187  18.366  12.445
45617W        W17146  27.352   6.663   1.006
45618W        W17147   6.713   9.653  10.675
45619W        W17148  44.747   5.205  10.673
45620W        W17149  39.383  22.768  11.930
45621W        W17150  43.835   7.799   1.963
45622W        W17151  14.881  13.997  13.801
45623W        W17152   0.253  15.110  14.894
45624W        W17153  41.080   9.118  11.198
45625W        W17154  31.712  11.281   1.202
45626W        W17155  37.454  18.042   3.186
45627W        W17156  40.063  34.641   3.180
45628W        W17157   1.352   8.176  13.458
45629W        W17158  39.334  33.637   3.557
45630W        W17159  39.920   6.946  10.991
45631W        W17160  42.583  31.529  12.660
45632W        W17161   9.596  17.831   3.725
45633W        W17162  24.988   6.320   2.266
45634W        W17163  32.590  26.469  13.461
45635W        W17164  12.182  38.840  12.590
45636W        W17165   9.100  25.638  11.156
45637W        W17166  36.039   3.668   0.509
45638W        W17167   6.698  29.252   0.852
45639W        W17168  32.044  37.422  14.090
45640W        W17169  37.078   7.296   4.339
45641W        W17170  19.717  15.950   2.837
45642W        W17171  10.119  33.029  10.525
45643W        W17172  19.887   9.914   1.910
45644W        W17173  26.458   4.425  10.529
45645W        W17174   4.236   7.369  11.602
45646W        W17175  41.879  35.459  13.295
45647W        W17176  14.666  34.792   2.779
45648W        W17177  29.820  42.552   3.802
45649W        W17178  35.615  29.364  11.004
45650W        W17179  16.674  13.103   2.792
45651W        W17180  23.599  43.343  12.549
45652W        W17181  43.424   7.642   1.347
45653W        W17182  17.580  28.828  13.397
45654W        W17183   0.960   6.002   3.972
45655W        W17184   3.311  31.687  14.418
45656W        W17185  16.264  38.869   4.165
45657W        W17186   2.809  17.038   3.135
45658W        W17187  44.023  17.025  13.831
45659W        W17188   8.117   7.273   4.631
45660W        W17189   4.283  42.768   3.815
45661W        W17190  32.717  17.388  14.450
45662W        W17191  41.049  19.714   0.677
45663W        W17192  33.625   4.740  11.514
45664W        W17193  19.863  16.205  10.685
45665W        W17194  38.836  24.200   2.792
45666W        W17195  19.040  43.367   2.109
45667W        W17196  27.873  24.244   1.365
45668W        W17197  24.326  17.653   3.757
45669W        W17198  27.417  30.213   3.568
45670W        W17199  16.667  37.647  11.101
45671W        W17200  23.367  12.852   0.352
45672W        W17201  41.132  23.896  13.799
45673W        W17202  34.540  36.322  11.211
45674W        W17203  31.817   1.204  14.492
45675W        W17204  33.147  38.124   0.489
45676W        W17205  25.213   5.871  12.410
45677W        W17206  37.616   0.921   3.384
45678W        W17207  44.649   9.391   4.537
45679W        W17208  22.631  34.077   0.988
45680W        W17209  37.788  31.713   4.281
45681W        W17210  41.796  18.039   0.828
45682W        W17211  40.558  43.764   0.803
45683W        W17212  19.498  20.276   2.792
45684W        W17213  18.721  15.848  12.632
45685W        W17214  33.061  34.243  14.734
45686W        W17215  35.995  39.084  14.280
45687W        W17216  14.635  15.133   3.732
45688W        W17217  40.314  25.312   2.412
45689W        W17218  19.829  41.401   1.321
45690W        W17219   2.009   3.354  11.179
45691W        W17220  19.767   1.717   3.669
45692W        W17221   5.268  25.273  12.577
45693W        W17222  44.298  13.663   0.366
45694W        W17223  15.102  41.788  12.516
45695W        W17224  27.949  40.130  11.193
45696W        W17225  10.430  22.578   3.119
45697W        W17226  42.610   1.358   2.113
45698W        W17227  16.875   6.890   2.787
45699W        W17228  44.075  36.190   3.893
45700W        W17229  33.096  40.732  13.777
45701W        W17230  42.826  35.041  13.438
45702W        W17231   8.405  34.843   4.154
45703W        W17232   6.833  20.350  13.002
45704W        W17233  33.323  26.691  13.938
45705W        W17234   9.660   7.941  13.013
45706W        W17235  32.617  20.277   1.818
45707W        W17236  21.539  13.125  13.563
45708W        W17237  41.249   6.418  14.944
45709W        W17238  44.918  25.207   1.756
45710W        W17239  43.369  23.769   3.596
45711W        W17240   0.439   2.345   1.765
45712W        W17241  31.266  38.407  12.405
45713W        W17242  29.986  30.571  13.536
45714W        W17243  34.432  22.176  11.045
45715W        W17244  44.606  33.975  14.655
45716W        W17245  27.164   8.856  12.016
45717W        W17246  26.988  23.180   0.774
45718W        W17247  43.317  31.140   1.781
45719W        W17248  42.845  26.915   5.025
45720W        W17249  39.460   3.906   0.356
45721W        W17250  26.929  27.668  11.695
45722W        W17251   7.126  42.489  12.928
45723W        W17252  30.684  30.486   4.322
45724W        W17253  12.128  31.039   4.585
45725W        W17254  17.651  18.861   4.589
45726W        W17255  15.181  33.957   3.551
45727W        W17256  26.059   5.951  13.553
45728W        W17257  33.029  28.410   1.768
45729W        W17258  44.767   4.753   1.866
45730W        W17259  32.046   4.158  11.196
45731W        W17260  20.064  10.130  12.087
45732W        W17261  41.876   3.878  11.920
45733W        W17262  25.018   2.854   0.394
45734W        W17263  39.749  23.828  12.046
45735W        W17264  22.498   6.531   0.813
45736W        W17265  18.188  36.552  14.791
45737W        W17266  38.042   7.981   4.110
45738W        W17267  21.710  17.840   2.182
45739W        W17268   2.833   1.691  13.880
45740W        W17269  33.999  27.673   5.036
45741W        W17270  33.931   0.872   1.331
45742W        W17271  43.331  13.179   3.314
45743W        W17272  38.003  44.541   3.346
45744W        W17273  32.398  32.947   3.250
45745W        W17274  42.341  23.287  11.525
45746W        W17275  26.744   9.160  11.076
45747W        W17276  28.637  36.281   4.452
45748W        W17277  18.527   3.450   4.061
45749W        W17278   1.062  34.051   2.104
45750W        W17279  31.070  33.848  10.567
45751W        W17280  12.778  25.813   1.375
45752W        W17281  17.314  43.345   2.163
45753W        W17282  25.250  38.811   3.280
45754W        W17283  18.503  37.443   3.641
45755W        W17284  31.455   8.692  11.962
45756W        W17285  20.307  36.871   4.088
45757W        W17286  39.218   4.093   0.826
45758W        W17287  37.979  34.965  14.526
45759W        W17288   1.831  19.472  14.316
45760W        W17289   8.005  38.569   0.960
45761W        W17290  35.295  22.720  11.222
45762W        W17291  17.691   6.274  11.657
45763W        W17292  21.126  32.191  13.372
45764W        W17293   5.962  27.185  10.945
45765W        W17294  23.892  30.972   3.717
45766W        W17295  38.971  18.236   3.834
45767W        W17296  36.177  14.255   1.042
45768W        W17297  31.521  10.295  12.299
45769W        W17298  14.618  43.839   1.512
45770W        W17299  16.529  44.970  11.518
45771W        W17300  40.303  26.111   1.245
45772W        W17301  36.380  21.793   4.995
45773W        W17302   1.278  11.859   2.926
45774W        W17303  15.660   0.290   4.895
45775W        W17304   7.886  29.048   2.841
45776W        W17305  34.732  41.792   3.264
45777W        W17306  19.549  38.386   3.839
45778W        W17307  35.912   5.367   2.511
45779W        W17308   1.721  16.606   2.303
45780W        W17309   2.792  18.670   2.663
45781W        W17310  27.378  32.462  10.632
45782W        W17311  35.430  20.777  14.776
45783W        W17312  24.121   7.996  14.392
45784W        W17313  31.952  23.786   5.112
45785W        W17314  30.688  22.124   1.267
45786W        W17315  25.178  36.444   1.527
45787W        W17316  23.138   2.799   3.470
45788W        W17317  26.581   3.391   3.978
45789W        W17318   3.601  35.938  14.801
45790W        W17319  39.998  39.624   4.610
45791W        W17320   5.637  35.896  14.620
45792W        W17321  26.787  14.852  10.755
45793W        W17322  31.128  23.272  12.484
45794W        W17323  18.127  32.286   0.392
45795W        W17324  41.500  31.580  14.866
45796W        W17325   4.306  26.085   3.647
45797W        W17326  27.420  17.104   2.849
45798W        W17327   1.857  29.224   2.341
45799W        W17328  15.205  27.521   4.888
45800W        W17329  41.039  31.224  14.029
45801W        W17330  11.872  18.247   3.879
45802W        W17331  38.992  41.431  14.547
45803W        W17332  26.619  44.552  11.511
45804W        W17333  21.908   0.310  11.088
45805W        W17334  15.683  15.723   3.738
45806W        W17335  21.161   8.437  13.502
45807W        W17336   1.982  29.617   4.169
45808W        W17337  32.986  37.308   1.900
45809W        W17338  21.601  15.249   3.795
45810W        W17339  23.772  28.548  14.478
45811W        W17340   1.875  17.231  11.411
45812W        W17341  43.738  27.602  13.418
45813W        W17342  23.669  26.954   0.270
45814W        W17343  43.527  36.121  12.381
45815W        W17344   8.793  40.412  14.039
45816W        W17345   0.054  29.634  11.910
45817W        W17346   7.609  20.529  14.882
45818W        W17347  16.118  13.214  10.611
45819W        W17348   0.391   5.411  10.728
45820W        W17349  16.896  11.691   2.761
45821W        W17350  39.027  16.035  13.504
45822W        W17351  17.672  41.791  12.909
45823W        W17352  37.056  16.604  12.926
45824W        W17353  19.339  14.302  12.953
45825W        W17354   9.383   2.890  14.818
45826W        W17355  17.992  13.215  14.429
45827W        W17356  16.382  32.068   3.012
45828W        W17357  40.327  37.051  10.835
45829W        W17358   0.890  25.221  10.666
45830W        W17359  30.438  20.669   4.238
45831W        W17360  42.656  10.370  13.367
45832W        W17361   7.969   5.391  14.469
45833W        W17362  25.781  27.185   3.319
45834W        W17363  27.676   5.639  11.931
45835W        W17364   1.966  37.970   3.215
45836W        W17365  32.150   8.033   3.149
45837W        W17366   9.859  41.725  13.831
45838W        W17367   1.641  23.760   2.304
45839W        W17368  15.328  44.874   3.240
45840W        W17369  43.310  44.765  11.173
45841W        W17370  12.722  16.594  12.999
45842W        W17371  12.478  39.093   4.907
45843W        W17372  15.923   2.265  10.638
45844W        W17373  39.881  12.133   2.804
45845W        W17374   4.249  18.186  14.707
45846W        W17375  16.780  42.779   0.384
45847W        W17376  37.680  35.375   0.322
45848W        W17377  13.709  36.381   4.265
45849W        W17378  32.363  42.629  13.455
45850W        W17379  27.095   6.770   4.843
45851W        W17380  43.304  41.945  13.918
45852W        W17381  23.549   6.712   4.614
45853W        W17382  17.766  26.604  10.482
45854W        W17383  12.388  17.549   4.167
45855W        W17384  29.702  32.872  11.372
45856W        W17385  24.005  13.739  14.206
45857W        W17386  43.466  40.882   2.101
45858W        W17387  42.399  28.207   3.383
45859W        W17388   0.778  40.195   3.534
45860W        W17389  14.224   2.588   3.175
45861W        W17390  37.103  43.870  14.239
45862W        W17391   5.458  39.701  14.250
45863W        W17392  20.204   2.752  10.753
45864W        W17393   8.641  15.371   2.725
45865W        W17394  34.357  16.548  11.820
45866W        W17395  11.274  29.107  13.694
45867W        W17396  30.425  11.058  14.504
45868W        W17397  16.549  15.759  15.000
45869W        W17398  43.524  38.630  11.016
45870W        W17399  41.664  23.771   3.952
45871W        W17400  42.730  16.727   3.484
45872W        W17401  18.762  43.541   1.698
45873W        W17402  16.245  22.055  11.226
45874W        W17403   8.720  15.352   0.999
45875W        W17404   3.786  28.598  14.685
45876W        W17405  18.777  17.153  13.140
45877W        W17406  29.595  35.337  13.419
45878W        W17407   8.160   7.892  11.993
45879W        W17408  25.132  35.504   1.015
45880W        W17409  31.451   2.946  10.843
45881W        W17410   4.763   1.525  12.463
45882W        W17411  22.197  38.309  14.887
45883W        W17412  12.195  36.149  14.841
45884W        W17413  44.295  21.094  13.111
45885W        W17414   6.745   9.818  11.694
45886W        W17415  37.078  33.134  13.407
45887W        W17416  26.591  42.337  10.724
45888W        W17417  19.721  27.946   1.000
45889W        W17418  19.922   8.882   2.428
45890W        W17419  14.044  43.552   0.696
45891W        W17420  10.566   3.205  14.464
45892W        W17421  33.261  19.025  13.393
45893W        W17422  32.207  26.756  12.518
45894W        W17423  12.638   9.384   2.787
45895W        W17424   0.232  14.167  13.918
45896W        W17425  39.914  26.148   4.603
45897W        W17426   1.214  28.916   1.905
45898W        W17427  26.432  13.545   0.471
45899W        W17428   0.828  14.886  12.536
45900W        W17429  43.423  34.409  14.393
45901W        W17430  35.803   6.393   4.466
45902W        W17431  31.599  30.071   0.390
45903W        W17432   1.845  15.888   4.540
45904W        W17433  37.087  13.786  14.985
45905W        W17434  32.027  39.511   3.716
45906W        W17435  40.972   4.807   1.342
45907W        W17436  43.061  17.689  14.475
45908W        W17437   0.524  30.773   3.648
45909W        W17438   1.585  31.588   4.783
45910W        W17439  22.441  36.935   3.663
45911W        W17440   3.294  38.903  10.704
45912W        W17441  42.326  41.856  13.856
45913W        W17442  40.076  24.095  10.737
45914W        W17443  18.604  11.774  14.510
45915W        W17444  31.664   4.156  14.790
45916W        W17445  27.616  21.270   4.655
45917W        W17446  11.154  32.175   4.044
45918W        W17447   4.637   3.400   0.130
45919W        W17448  42.880  43.085   0.811
45920W        W17449   8.353  39.352   0.518
45921W        W17450  20.055  14.710  13.950
45922W        W17451  27.664  17.564  14.004
45923W        W17452  37.774  14.498   0.287
45924W        W17453  11.340  10.691   3.753
45925W        W17454  18.258  13.109  14.851
45926W        W17455  13.876  41.635  12.919
45927W        W17456  26.967   2.206  14.472
45928W        W17457   9.090  38.890  12.968
45929W        W17458  19.622  23.500  14.549
45930W        W17459  22.793  36.949  11.583
45931W        W17460  24.153  42.374  14.014
45932W        W17461  21.553  38.236   4.890
45933W        W17462  34.519  19.048   1.388
45934W        W17463  13.119   8.099   4.258
45935W        W17464   8.685  37.633  14.791
45936W        W17465  44.385  38.002  14.286
45937W        W17466   7.596  12.380  12.105
45938W        W17467  24.542   3.445  13.342
45939W        W17468   1.784  35.611   2.328
45940W        W17469  20.226   9.183  14.669
45941W        W17470  37.418  43.347   2.296
45942W        W17471  14.728  13.842  12.772
45943W        W17472  33.520  43.982  13.170
45944W        W17473  33.174  22.119   2.301
45945W        W17474  21.189   4.182  11.026
45946W        W17475  11.233   2.264  11.563
45947W        W17476  29.569  37.136  14.779
45948W        W17477  21.120  22.599   3.824
45949W        W17478   2.360  37.817   0.322
45950W        W17479  10.231   3.592   9.941
45951W        W17480  22.768  19.436  14.431
45952W        W17481  10.915  21.961  13.486
45953W        W17482  21.853  39.876  11.525
45954W        W17483  37.829   7.095   3.196
45955W        W17484   2.415  19.183   4.722
45956W        W17485  23.035  37.756  12.877
45957W        W17486  31.092  21.318  12.517
45958W        W17487  23.737  33.792   0.830
45959W        W17488  39.313  33.507  12.699
45960W        W17489  29.399  31.801   5.434
45961W        W17490  35.626   1.851   0.904
45962W        W17491  14.367  33.539   0.505
45963W        W17492  28.385  16.513   4.501
45964W        W17493   6.765   3.752  12.416
45965W        W17494  38.402  20.945   1.358
45966W        W17495   5.497  25.954   4.408
45967W        W17496  24.910  28.929  10.656
45968W        W17497  24.101   4.554  11.604
45969W        W17498  25.962  26.003  12.138
45970W        W17499  29.117   5.838   0.366
45971W        W17500   8.372   9.721  12.557
45972W        W17501   0.294  36.890  10.653
45973W        W17502  30.480  10.602   4.152
45974W        W17503  21.433  13.251   1.394
45975W        W17504   6.784  37.605   1.288
45976W        W17505  42.338  23.157  10.604
45977W        W17506  11.408   2.335  12.970
45978W        W17507  34.677  27.612  14.362
45979W        W17508  38.994  42.192  11.656
45980W        W17509  28.335  23.198  12.182
45981W        W17510  11.425  38.791  11.478
45982W        W17511  39.765  36.039  11.684
45983W        W17512  31.896  27.159  12.665
45984W        W17513  23.272  33.359  11.929
45985W        W17514  18.204  20.178  13.704
45986W        W17515  32.889  22.207   4.097
45987W        W17516  25.450  25.110   2.874
45988W        W17517  24.027  11.812  13.416
45989W        W17518  26.566  27.224  12.084
45990W        W17519   9.902   0.496   0.392
45991W        W17520  16.035  42.424   1.427
45992W        W17521  40.476  19.479   1.943
45993W        W17522  14.303   7.158  14.786
45994W        W17523  25.966  17.930   3.796
45995W        W17524  25.236  26.570   4.985
45996W        W17525  13.061  27.940   4.150
45997W        W17526  22.375  35.056  13.623
45998W        W17527  43.823  11.683  12.980
45999W        W17528  43.885  41.547   2.712
46000W        W17529  27.365   9.919   2.664
46001W        W17530  35.784  34.482   2.668
46002W        W17531   9.892  40.508  13.133
46003W        W17532   5.192   7.275  14.402
46004W        W17533  10.594   2.646   0.189
46005W        W17534  35.312  24.034  11.408
46006W        W17535  35.945  40.723   1.820
46007W        W17536  27.957  25.072  10.893
46008W        W17537  29.693  35.985  11.978
46009W        W17538   4.811  20.326   3.888
46010W        W17539  27.103  21.138   1.926
46011W        W17540   7.654  31.814  12.982
46012W        W17541  38.257  12.477   1.784
46013W        W17542  25.989   4.905   0.936
46014W        W17543  33.670  34.659   2.189
46015W        W17544  35.436  19.547  14.834
46016W        W17545  15.927  11.281   1.856
46017W        W17546   3.894  15.597   4.612
46018W        W17547  15.593   3.195  12.905
46019W        W17548   1.311  14.769  12.435
46020W        W17549  35.029  17.786   4.343
46021W        W17550  28.694  32.489  13.507
46022W        W17551  12.546  28.136   0.423
46023W        W17552  12.771   3.398   0.366
46024W        W17553  35.996   2.726   0.988
46025W        W17554  38.545  39.654  10.868
46026W        W17555  12.083  40.786  14.338
46027W        W17556  12.674  18.234  12.641
46028W        W17557   5.720   4.182   2.726
46029W        W17558  27.023  25.638   4.830
46030W        W17559  25.794  33.815   2.261
46031W        W17560  26.000   7.950   4.279
46032W        W17561  13.664  27.544   0.987
46033W        W17562  31.392  11.732  10.704
46034W        W17563  35.995  12.342   3.123
46035W        W17564  32.008  19.531   3.172
46036W        W17565  43.861  29.392  12.842
46037W        W17566  31.612   7.925   4.422
46038W        W17567   7.983  13.179  10.483
46039W        W17568  29.779  24.690  12.501
46040W        W17569  12.000  16.950  12.494
46041W        W17570  19.667   2.030  12.082
46042W        W17571   2.320  26.622   4.432
46043W        W17572  42.509  28.181   2.365
46044W        W17573  28.424   3.417   4.273
46045W        W17574  21.174  32.855  13.057
46046W        W17575  11.249  11.837   1.028
46047W        W17576  31.405  32.976  14.769
46048W        W17577  12.215  18.473  12.589
46049W        W17578  36.497  29.206   3.194
46050W        W17579   6.413  14.891  13.459
46051W        W17580  44.871   9.676   2.653
46052W        W17581  18.683  36.271   4.520
46053W        W17582  16.540   0.702   4.552
46054W        W17583   7.890  10.901   0.035
46055W        W17584  44.395  40.012  12.056
46056W        W17585   8.569  33.144  14.676
46057W        W17586  10.448  14.674  12.874
46058W        W17587  10.632  32.351   4.097
46059W        W17588  39.852   9.158   3.277
46060W        W17589  21.526  38.943  14.913
46061W        W17590  34.417  44.911   0.824
46062W        W17591  16.437  30.084   4.823
46063W        W17592   2.649  42.741  13.359
46064W        W17593  33.884   2.543  11.110
46065W        W17594  34.510  44.427   2.722
46066W        W17595   1.787   9.859  11.916
46067W        W17596   3.290  41.355   4.472
46068W        W17597  28.995  24.560   4.173
46069W        W17598   8.149  34.095  12.013
46070W        W17599  16.253  34.603  13.915
46071W        W17600  13.660  21.508   2.267
46072W        W17601  44.472   3.851   4.403
46073W        W17602  35.718  10.311  13.438
46074W        W17603  19.321  31.424   0.308
46075W        W17604   1.557  42.716  12.482
46076W        W17605  29.123   3.376   0.229
46077W        W17606  30.361   7.785   5.262
46078W        W17607  12.360   8.349   0.714
46079W        W17608   0.517  12.519   3.128
46080W        W17609  29.429   4.266   3.206
46081W        W17610  28.749  11.827   2.595
46082W        W17611  17.313  33.692   0.780
46083W        W17612  21.205   1.032   1.284
46084W        W17613  33.599   8.371  13.879
46085W        W17614  32.356  16.868  12.547
46086W        W17615  13.343   2.532   3.442
46087W        W17616  10.828  10.132   3.318
46088W        W17617   7.582  22.855   4.425
46089W        W17618  25.705   8.189   0.953
46090W        W17619  23.166   5.232  10.747
46091W        W17620  21.160  12.374   2.674
46092W        W17621  23.238  28.327   4.147
46093W        W17622  19.486  25.698  11.913
46094W        W17623   4.500  25.993  11.646
46095W        W17624  34.031  26.885   4.607
46096W        W17625  17.052   6.776   3.251
46097W        W17626   5.563  28.588   3.891
46098W        W17627  31.439  26.087  11.506
46099W        W17628  32.712  12.440  14.554
46100W        W17629   2.850  20.783   3.627
46101W        W17630  31.145   9.441   3.190
46102W        W17631  11.870  36.610  14.854
46103W        W17632  27.179  44.744  14.244
46104W        W17633  35.459  27.952   1.907
46105W        W17634  31.481  41.498  11.504
46106W        W17635  14.741  40.389   4.084
46107W        W17636   1.428   1.802  12.600
46108W        W17637  16.838  25.204   0.663
46109W        W17638  42.366  30.693   0.567
46110W        W17639  25.285   3.155   5.092
46111W        W17640  29.972   8.277  12.256
46112W        W17641  38.370  28.836   4.166
46113W        W17642  20.183  24.916  14.472
46114W        W17643  18.318   4.410   0.743
46115W        W17644  32.852  21.604   0.159
46116W        W17645  23.076   7.309  10.577
46117W        W17646  23.621  40.435  13.742
46118W        W17647  37.972  18.005  10.737
46119W        W17648  21.321   7.286   2.615
46120W        W17649  31.322  34.982   4.815
46121W        W17650  17.648  37.523  12.017
46122W        W17651  41.437  26.089  13.848
46123W        W17652   4.821  35.157  14.515
46124W        W17653   0.003  14.651  13.934
46125W        W17654  17.127   6.892  12.440
46126W        W17655  28.147   1.250   2.336
46127W        W17656  11.351  21.616   3.887
46128W        W17657  28.658  39.762   1.117
46129W        W17658  16.173   2.985   1.311
46130W        W17659  14.314  13.363  11.507
46131W        W17660   5.674  41.805  10.751
46132W        W17661  44.781  30.492   4.047
46133W        W17662  13.694   7.301  13.960
46134W        W17663  16.034  30.692   3.692
46135W        W17664  31.023   3.581   1.294
46136W        W17665   9.310  24.077   1.318
46137W        W17666  37.501  26.992   2.460
46138W        W17667  29.414  31.700  12.554
46139W        W17668  39.439  10.637   1.211
46140W        W17669   3.956  39.481   2.766
46141W        W17670   1.815  13.985   1.473
46142W        W17671   5.543  29.545   3.039
46143W        W17672   7.835  10.956   1.498
46144W        W17673  22.609  30.484  13.246
46145W        W17674  12.773   7.535   1.707
46146W        W17675  23.490  13.805   2.071
46147W        W17676  39.047  31.365  13.461
46148W        W17677  10.846  27.393   2.668
46149W        W17678  17.299  19.968  11.125
46150W        W17679   1.640  18.722  14.865
46151W        W17680  11.421  11.555  10.648
46152W        W17681  17.221  22.185   1.655
46153W        W17682  11.559  39.547  13.032
46154W        W17683  24.103  15.047  12.645
46155W        W17684  12.371   4.161  12.865
46156W        W17685  19.776  43.793  12.303
46157W        W17686   8.902  34.481  12.574
46158W        W17687   8.268   0.735   2.191
46159W        W17688  34.445   5.780   1.823
46160W        W17689  10.825   2.956   2.655
46161W        W17690  43.913   8.351   4.646
46162W        W17691  17.567   2.675  14.918
46163W        W17692  15.312  33.482  11.570
46164W        W17693   8.891  23.980  11.606
46165W        W17694   9.505  39.804  14.045
46166W        W17695  32.073  19.890  12.912
46167W        W17696  44.719  21.293  12.779
46168W        W17697  25.115   4.882   1.730
46169W        W17698  33.604  25.268  14.940
46170W        W17699  27.401  26.526   1.165
46171W        W17700  28.210   5.707  12.797
46172W        W17701   9.939  12.274  11.107
46173W        W17702  43.703   0.122   1.218
46174W        W17703  29.009  27.602  10.914
46175W        W17704   9.657  17.570   3.255
46176W        W17705  26.379  22.443  13.247
46177W        W17706  30.001   5.898  12.948
46178W        W17707   5.476  42.936  10.539
46179W        W17708  26.046  10.233   2.465
46180W        W17709  18.164  39.035  13.141
46181W        W17710   9.099  18.381  14.053
46182W        W17711  19.158  13.014  14.743
46183W        W17712  28.794  20.633   2.067
46184W        W17713  40.763  31.173  11.553
46185W        W17714  30.661   6.820  10.570
46186W        W17715  15.833  13.346  12.343
46187W        W17716   3.326  37.822   1.314
46188W        W17717  29.973   5.461  14.153
46189W        W17718  23.723   2.430   2.154
46190W        W17719  43.470  20.548   1.991
46191W        W17720  39.439  19.576   4.751
46192W        W17721  30.657  34.994   4.185
46193W        W17722  23.140  36.157   3.923
46194W        W17723  29.259  25.622   2.430
46195W        W17724  16.262  43.368  12.884
46196W        W17725  20.021   4.107  12.390
46197W        W17726  20.147  40.932   4.586
46198W        W17727   8.839  20.160   0.524
46199W        W17728  14.938  23.902  10.760
46200W        W17729   7.206  23.692   4.456
46201W        W17730  18.730   2.435   0.513
46202W        W17731  30.106   6.166   3.273
46203W        W17732  37.104  30.070  12.768
46204W        W17733  21.692  25.495   1.033
46205W        W17734   6.234  18.841  10.444
46206W        W17735  37.971  10.203   1.264
46207W        W17736  18.747  27.369   4.088
46208W        W17737   3.399   7.433   0.683
46209W        W17738  34.859   0.106  12.532
46210W        W17739  21.582  11.756   1.283
46211W        W17740   5.246  23.463  11.643
46212W        W17741  10.110   0.345   2.212
46213W        W17742  40.543  28.070   3.766
46214W        W17743  38.939  36.995   2.000
46215W        W17744  42.278  35.641  13.590
46216W        W17745  20.708  21.218  14.442
46217W        W17746  32.046  25.658  12.567
46218W        W17747  41.967  20.535  14.866
46219W        W17748  39.283  30.968  14.808
46220W        W17749  14.372  42.260   1.820
46221W        W17750  32.818  43.983   1.191
46222W        W17751   6.440  38.278  12.582
46223W        W17752  28.885  16.714  14.404
46224W        W17753  38.481  39.100   0.305
46225W        W17754  32.145   3.361   1.414
46226W        W17755  32.609   4.669  14.336
46227W        W17756  34.979  21.836  13.515
46228W        W17757   5.379   5.925  14.055
46229W        W17758  25.908  39.385  13.561
46230W        W17759  30.385  40.324   0.678
46231W        W17760  24.621  12.152  14.857
46232W        W17761  15.635  38.881   3.636
46233W        W17762  11.951  25.466   1.384
46234W        W17763  33.565  29.958   4.777
46235W        W17764  29.131   0.855   1.358
46236W        W17765  30.441  20.182   4.066
46237W        W17766  25.177   9.219  11.288
46238W        W17767   9.776  36.056  13.069
46239W        W17768   7.996  26.022  12.129
46240W        W17769   7.239  28.966  11.665
46241W        W17770  24.517  38.478  10.617
46242W        W17771  29.788  44.084   1.124
46243W        W17772  22.756  25.438   4.153
46244W        W17773  16.365  39.342   0.056
46245W        W17774  26.589  41.352   1.446
46246W        W17775  10.218  19.826   0.363
46247W        W17776  41.513  19.192   2.342
46248W        W17777  44.162  26.108  13.048
46249W        W17778  13.723  37.048   0.008
46250W        W17779  21.164  44.356  13.985
46251W        W17780   6.644  24.615  11.349
46252W        W17781  34.929  21.584  11.642
46253W        W17782  21.965  21.616   4.429
46254W        W17783  37.791  33.088   1.473
46255W        W17784  34.015  25.036   2.714
46256W        W17785  39.750  31.198  12.811
46257W        W17786  40.624  34.217  12.337
46258W        W17787  23.460   2.899   1.250
46259W        W17788  24.792   2.780  13.839
46260W        W17789  44.042  32.637  14.490
46261W        W17790  25.199  27.630   0.345
46262W        W17791   0.543  29.928  12.073
46263W        W17792  44.673  12.076   4.919
46264W        W17793  36.629  41.578  13.988
46265W        W17794  43.166  24.298  12.892
46266W        W17795  33.832   0.381  12.951
46267W        W17796  27.118  14.221  13.966
46268W        W17797  28.186  20.472  13.455
46269W        W17798  11.810   3.007  13.475
46270W        W17799   0.735  12.455   1.996
46271W        W17800   9.758  11.691  11.911
46272W        W17801  29.303  44.752   4.026
46273W        W17802  41.543  31.474   1.801
46274W        W17803  23.457   2.020   2.308
46275W        W17804  22.616  23.309   3.586
46276W        W17805   8.357  43.441   3.571
46277W        W17806  38.650  18.253  11.232
46278W        W17807  40.750  32.132   1.418
46279W        W17808   1.881   5.931   4.080
46280W        W17809  14.622  14.800   1.325
46281W        W17810   9.888  44.824   3.086
46282W        W17811  31.008  16.306  14.927
46283W        W17812  24.770  37.089  12.456
46284W        W17813   2.491  32.712  11.978
46285W        W17814  12.291  34.495   4.607
46286W        W17815  27.906  43.420  13.484
46287W        W17816  22.101  28.866   4.002
46288W        W17817  12.779  39.271  11.935
46289W        W17818  21.277  21.222   0.135
46290W        W17819  43.591  20.754   3.346
46291W        W17820   5.581  28.095   3.729
46292W        W17821  16.085   7.734   4.553
46293W        W17822  24.624  17.630   0.343
46294W        W17823   8.270  36.989   3.862
46295W        W17824  10.785  21.266  11.128
46296W        W17825  21.422  18.112  12.451
46297W        W17826  34.434  28.526   4.098
46298W        W17827  36.126  41.264   3.283
46299W        W17828  43.479  36.337   1.347
46300W        W17829  29.717  25.500   3.739
46301W        W17830  23.787  10.451   0.816
46302W        W17831   1.104   3.476   5.126
46303W        W17832   6.410  31.422   4.542
46304W        W17833  24.519   2.294   3.746
46305W        W17834   7.081   1.930   1.814
46306W        W17835  29.545  43.572  14.882
46307W        W17836   1.670  32.170  13.000
46308W        W17837  19.591  32.912   1.058
46309W        W17838  33.195  41.016  13.339
46310W        W17839  15.186  27.504  13.521
46311W        W17840   6.906  25.915   1.872
46312W        W17841  15.814  18.646  11.217
46313W        W17842   7.940  10.761   4.762
46314W        W17843  15.185   6.684  11.514
46315W        W17844   6.199   2.494  13.048
46316W        W17845  37.572  30.030  12.584
46317W        W17846  17.215  25.453  14.410
46318W        W17847   2.720   3.931  13.785
46319W        W17848  35.354   2.997   0.412
46320W        W17849  10.345  44.997   3.400
46321W        W17850   1.637  10.630   4.377
46322W        W17851   6.185   9.924  11.690
46323W        W17852  28.910  32.191   1.279
46324W        W17853   7.055  11.539   4.259
46325W        W17854  39.816  14.746  11.971
46326W        W17855   9.854  25.950   3.155
46327W        W17856   1.136   7.717  13.513
46328W        W17857  28.540  35.982  12.050
46329W        W17858  25.108  19.303  11.118
46330W        W17859  18.111  21.086  13.510
46331W        W17860  27.639   0.891   0.511
46332W        W17861   0.276   9.159   3.585
46333W        W17862  11.226  14.359   1.409
46334W        W17863  24.231  12.866  14.478
46335W        W17864  26.628  21.480  11.125
46336W        W17865  14.587   7.177   3.840
46337W        W17866  44.559  12.612  10.791
46338W        W17867  18.003  21.546  15.000
46339W        W17868  43.920  12.857   0.406
46340W        W17869  14.602  26.747   2.338
46341W        W17870  26.968  25.957  14.899
46342W        W17871   8.820  19.747   2.651
46343W        W17872  21.575   9.475  11.557
46344W        W17873  17.242  26.063   1.825
46345W        W17874  11.776  23.615  11.613
46346W        W17875   8.107  39.560  12.954
46347W        W17876   7.892  10.218  12.110
46348W        W17877  10.137  17.135   0.247
46349W        W17878   8.551  16.671  10.132
46350W        W17879  18.160  34.129   0.856
46351W        W17880  26.092  16.000   3.776
46352W        W17881  26.449  39.493   3.259
46353W        W17882  27.170   3.195  14.461
46354W        W17883   5.995  43.943   1.023
46355W        W17884   9.779  23.658  11.221
46356W        W17885  38.812  17.689   1.484
46357W        W17886  21.050  34.560   5.163
46358W        W17887  28.110  40.352  10.735
46359W        W17888  38.164  11.766   0.297
46360W        W17889  38.793  23.014  12.155
46361W        W17890  38.468  35.822   0.838
46362W        W17891  27.430  39.066   3.145
46363W        W17892   4.427  12.589   0.922
46364W        W17893  25.585  36.126  12.276
46365W        W17894  10.879  30.932  10.715
46366W        W17895  20.358  36.646   1.266
46367W        W17896  19.137   6.854  12.463
46368W        W17897  39.214  28.640   0.820
46369W        W17898   2.800  32.412  12.866
46370W        W17899  20.025   8.227  12.698
46371W        W17900  31.013  32.105   2.328
46372W        W17901  11.711   3.282   0.413
46373W        W17902  20.783  40.934   4.596
46374W        W17903  12.769  42.358  11.209
46375W        W17904  21.694  37.593  13.760
46376W        W17905  22.119  11.875   1.331
46377W        W17906   2.045   4.736   3.742
46378W        W17907  28.632  32.407   3.733
46379W        W17908  13.350   6.650   3.641
46380W        W17909  41.803  21.919  13.545
46381W        W17910  37.030   4.222  10.648
46382W        W17911  22.106  19.547   3.868
46383W        W17912  44.342  35.187   2.670
46384W        W17913   6.245  29.055   3.203
46385W        W17914  37.330   8.225  10.493
46386W        W17915   3.262  35.597   0.815
46387W        W17916  43.525  34.198   2.955
46388W        W17917  44.522   7.952   4.177
46389W        W17918  30.656  19.714  14.270
46390W        W17919   7.719  41.093   3.695
46391W        W17920   2.542  16.086   2.321
46392W        W17921   9.233  42.555   0.817
46393W        W17922   5.223  32.944  12.483
46394W        W17923  33.453   6.435   1.395
46395W        W17924  24.515  32.360  11.085
46396W        W17925   2.400  41.691  13.473
46397W        W17926   4.763  38.210  14.302
46398W        W17927  35.110  30.932  14.994
46399W        W17928  25.489   8.998  13.400
46400W        W17929  18.358  18.707  13.579
46401W        W17930  13.412  21.656  11.710
46402W        W17931  27.683  38.828   1.285
46403W        W17932  35.407  19.460  13.330
46404W        W17933  14.820  14.694  13.377
46405W        W17934  43.437  34.237   4.412
46406W        W17935   3.210  20.976  11.661
46407W        W17936   2.103  30.056   0.780
46408W        W17937  21.930  26.168  13.985
46409W        W17938  10.597  28.983  14.797
46410W        W17939  34.416  34.983  10.412
46411W        W17940  40.407  42.730   0.851
46412W        W17941  19.298  33.557  10.945
46413W        W17942   7.642  22.353  14.482
46414W        W17943  14.835  11.674   3.650
46415W        W17944  41.946   9.208   4.565
46416W        W17945  13.716  12.743  11.415
46417W        W17946  12.831  27.525   4.354
46418W        W17947  30.409   2.003   1.870
46419W        W17948   9.970  25.655  13.641
46420W        W17949  10.289  37.872  10.585
46421W        W17950  28.618  16.768   2.702
46422W        W17951  16.009  29.637   2.631
46423W        W17952   7.937  41.879  10.704
46424W        W17953  19.088  11.377  12.937
46425W        W17954  42.369   2.340  11.410
46426W        W17955   3.520   1.756  11.756
46427W        W17956  13.177   7.698   4.746
46428W        W17957  11.202  11.205   4.735
46429W        W17958  39.875  40.945  12.632
46430W        W17959  21.255  37.496   9.747
46431W        W17960  35.648  14.135   3.223
46432W        W17961  31.104   2.779  12.997
46433W        W17962  36.483  19.804  11.411
46434W        W17963   8.846  10.460   4.706
46435W        W17964   9.599   2.809   0.309
46436W        W17965  42.698   9.261   1.816
46437W        W17966  41.379   8.667   1.807
46438W        W17967  26.075  42.852  14.897
46439W        W17968  17.748  33.334  11.698
46440W        W17969  14.318   4.691  14.954
46441W        W17970  40.035  13.162  14.921
46442W        W17971  38.647  23.061   1.464
46443W        W17972  42.360   3.352  13.968
46444W        W17973  22.742  41.718   0.317
46445W        W17974  42.762  38.498  10.756
46446W        W17975   6.785  10.297  10.985
46447W        W17976  19.929   1.748  12.512
46448W        W17977  27.670  30.210  14.376
46449W        W17978  39.517  37.859  14.530
46450W        W17979   1.725  36.620  14.825
46451W        W17980  42.371  17.293  11.599
46452W        W17981  43.801  12.403  12.606
46453W        W17982   5.498  21.232  12.079
46454W        W17983  17.741  25.304  14.346
46455W        W17984  43.853  12.646   0.875
46456W        W17985  29.404  39.840  11.949
46457W        W17986  10.125  28.816   1.980
46458W        W17987  33.922  39.983   2.778
46459W        W17988  24.725  32.613   2.200
46460W        W17989  15.082  25.220   1.282
46461W        W17990  13.813  11.331  12.919
46462W        W17991   7.154   2.360  12.662
46463W        W17992  42.067   4.804  12.310
46464W        W17993  12.185  42.279   2.790
46465W        W17994   0.005  26.617  13.840
46466W        W17995  18.300  19.428   1.336
46467W        W17996  16.694  12.319  12.419
46468W        W17997  25.601  40.688  10.676
46469W        W17998  23.896  13.021   2.729
46470W        W17999  41.344  27.310   0.709
46471W        W18000  37.074  26.811   1.560
46472W        W18001  24.240   0.270   1.462
46473W        W18002  30.183  19.113   4.894
46474W        W18003  22.698  30.675  12.797
46475W        W18004  11.384  41.644  11.277
46476W        W18005  24.767   9.326   3.748
46477W        W18006   2.919  27.506  12.293
46478W        W18007  31.487  44.209  13.039
46479W        W18008  15.302  16.086  13.270
46480W        W18009   2.737  40.461   4.737
46481W        W18010  42.008  39.436  11.924
46482W        W18011  21.126  28.145  11.264
46483W        W18012  34.591  28.021   1.335
46484W        W18013  29.410  43.405   0.994
46485W        W18014   5.804  21.891  11.891
46486W        W18015  16.194  21.769  13.848
46487W        W18016  21.310  30.065  14.201
46488W        W18017  20.078   7.277  10.806
46489W        W18018  42.544   7.809   3.728
46490W        W18019  41.384  22.282   0.392
46491W        W18020   0.022   3.617   4.124
46492W        W18021  22.653  35.919   1.310
46493W        W18022   8.643   2.466  12.489
46494W        W18023  40.753  24.957   0.686
46495W        W18024  32.988  38.547   0.765
46496W        W18025  31.420  29.658  14.901
46497W        W18026  43.891  12.907   1.355
46498W        W18027  11.807  20.949  14.574
46499W        W18028  21.496  34.991   2.320
46500W        W18029  24.054  43.058   1.831
46501W        W18030  14.428   3.823  11.453
46502W        W18031  43.927   7.904  13.793
46503W        W18032  28.964  39.048  12.348
46504W        W18033  18.762  10.672  10.771
46505W        W18034   8.161   6.728  10.584
46506W        W18035  38.364  21.468   1.300
46507W        W18036  29.718   3.381  13.575
46508W        W18037  41.945  10.950   3.678
46509W        W18038  39.480  26.113   1.782
46510W        W18039   2.200  23.809   1.281
46511W        W18040  14.270  34.516   4.882
46512W        W18041  14.163  21.490  11.213
46513W        W18042  20.612   8.330  13.534
46514W        W18043   3.560  33.102  12.918
46515W        W18044  39.058  39.150   1.914
46516W        W18045  16.250  33.585   4.814
46517W        W18046  36.865  30.244   3.983
46518W        W18047  27.382  39.574  11.920
46519W        W18048  41.699  32.011   1.705
46520W        W18049  10.448  23.840  12.916
46521W        W18050  36.371   5.277   2.265
46522W        W18051  39.072  26.629   2.980
46523W        W18052  36.523  23.091   0.741
46524W        W18053  11.951  34.823   1.507
46525W        W18054   9.450  14.123   3.253
46526W        W18055  39.918  37.779   3.672
46527W        W18056   9.465  40.799   1.878
46528W        W18057  42.788   7.420   4.579
46529W        W18058   0.580  35.093  14.887
46530W        W18059  32.158  18.133  14.443
46531W        W18060  30.588  30.986   4.110
46532W        W18061   1.008  31.824  11.534
46533W        W18062  25.229  34.443  10.534
46534W        W18063  19.241  38.365   3.033
46535W        W18064  36.024  29.034   3.654
46536W        W18065  13.657  43.416  13.842
46537W        W18066  20.177  42.858  12.123
46538W        W18067   0.021  19.406   0.446
46539W        W18068  10.004  10.256   4.196
46540W        W18069  13.738   4.319   3.747
46541W        W18070  41.890  24.547   4.393
46542W        W18071  32.682  39.371   4.252
46543W        W18072  12.777  17.558  14.046
46544W        W18073  28.067  37.926   3.396
46545W        W18074  32.316  28.592  11.386
46546W        W18075  34.789  29.638  10.725
46547W        W18076  29.102  22.127   3.704
46548W        W18077  36.732  32.823  14.258
46549W        W18078  43.301  40.901  11.415
46550W        W18079  24.869  25.195  11.975
46551W        W18080   3.565  16.776   2.717
46552W        W18081  10.223  36.509   4.160
46553W        W18082   6.686  22.277  14.103
46554W        W18083  19.016   5.560   4.139
46555W        W18084  39.451  36.938  12.055
46556W        W18085  13.098  26.694  13.338
46557W        W18086  23.901  20.271   0.144
46558W        W18087  39.573  23.438  10.727
46559W        W18088   6.479  37.450   1.761
46560W        W18089  12.308   7.050   2.808
46561W        W18090  29.126  43.907   4.241
46562W        W18091  30.367  42.054   1.455
46563W        W18092  36.299  14.171   2.317
46564W        W18093  41.262  29.694   1.029
46565W        W18094  11.948  44.878  14.938
46566W        W18095  32.071   4.884   5.085
46567W        W18096  36.415  31.912  11.017
46568W        W18097  40.844  28.567   1.863
46569W        W18098  35.094  38.771   1.132
46570W        W18099   3.283  24.035   1.845
46571W        W18100  15.303  23.006  10.588
46572W        W18101  26.063  19.722  10.633
46573W        W18102  33.581  34.066  14.781
46574W        W18103  12.733   4.202  13.891
46575W        W18104  10.739   4.215   4.106
46576W        W18105  42.836  24.395  11.997
46577W        W18106   7.506  12.059   3.737
46578W        W18107  30.969  24.533   0.098
46579W        W18108  24.072  28.422   1.461
46580W        W18109   2.017  36.180  10.689
46581W        W18110  43.921  29.627  12.386
46582W        W18111  30.145   7.416  10.808
46583W        W18112  14.263  34.021   0.273
46584W        W18113  40.724  17.665   2.467
46585W        W18114  40.866  20.658  12.382
46586W        W18115  26.487  18.577   4.452
46587W        W18116  21.976  18.234   3.827
46588W        W18117   5.449  38.449   1.851
46589W        W18118  19.197  10.598   1.313
46590W        W18119  40.497   9.599  13.957
46591W        W18120   0.751  31.943   3.181
46592W        W18121   7.263  10.892   1.162
46593W        W18122   0.123  19.448  12.540
46594W        W18123  32.386  20.297  12.923
46595W        W18124  42.758  33.878  12.410
46596W        W18125  34.154  37.098   1.423
46597W        W18126  13.861  12.698   3.825
46598W        W18127  10.871  40.245  12.849
46599W        W18128  27.525  32.123   2.405
46600W        W18129  27.981  23.256  10.329
46601W        W18130  35.830  23.720  12.581
46602W        W18131   4.340  14.490   4.222
46603W        W18132  28.841  24.130  14.749
46604W        W18133   8.348   7.743  13.027
46605W        W18134  19.786  26.936   0.233
46606W        W18135  39.974  12.452   0.936
46607W        W18136  11.398   5.790   0.946
46608W        W18137  44.050  44.590  10.988
46609W        W18138  34.079   3.832  14.888
46610W        W18139  14.857  40.953  13.945
46611W        W18140  27.563  40.445   4.247
46612W        W18141  23.652   6.649   1.919
46613W        W18142   1.752  33.091   4.218
46614W        W18143   3.694   2.791   4.126
46615W        W18144  29.380  39.102  12.004
46616W        W18145  39.522  34.936  11.372
46617W        W18146  33.053   8.719   4.110
46618W        W18147  16.585  10.852   0.422
46619W        W18148   9.480  42.297   0.449
46620W        W18149  25.734  40.391   3.789
46621W        W18150   8.113   4.907   0.412
46622W        W18151  11.366  28.487  14.485
46623W        W18152  33.247  34.126   3.384
46624W        W18153   4.495  41.410   4.307
46625W        W18154  32.022  41.410   3.343
46626W        W18155  41.502  21.126   0.862
46627W        W18156  36.165  23.250   2.367
46628W        W18157  43.786  16.325   1.730
46629W        W18158  29.034  12.777  11.916
46630W        W18159  36.504  37.375   0.909
46631W        W18160   9.171  42.758  14.494
46632W        W18161  24.671  34.614   0.481
46633W        W18162   0.202  35.608  12.099
46634W        W18163  12.002  30.333  11.691
46635W        W18164  43.724  16.751   0.513
46636W        W18165  44.733  21.621  11.836
46637W        W18166   6.766  24.976  10.909
46638W        W18167  40.825  11.107  13.903
46639W        W18168  29.470  26.277   3.176
46640W        W18169  33.634  33.448  12.572
46641W        W18170  33.080   2.712  10.684
46642W        W18171  28.892  44.871  11.609
46643W        W18172  15.135  25.992   4.918
46644W        W18173  14.802  10.502   3.251
46645W        W18174  13.697  31.012   1.051
46646W        W18175  14.401  14.932   4.166
46647W        W18176  17.086  39.472  10.418
46648W        W18177  42.543  13.758  12.205
46649W        W18178  28.431   0.124   0.901
46650W        W18179  39.500  23.482   0.342
46651W        W18180   3.424  12.680   2.702
46652W        W18181  29.371  25.383   4.135
46653W        W18182  33.895  14.589   4.258
46654W        W18183  36.046   2.933  11.009
46655W        W18184  33.604  31.550  11.222
46656W        W18185   0.171  40.363  13.679
46657W        W18186  16.629  17.506   4.047
46658W        W18187  22.157  19.850   4.279
46659W        W18188  21.195  32.141   1.034
46660W        W18189  13.580  11.181   2.827
46661W        W18190  44.425  11.501  13.250
46662W        W18191  33.928  21.667   1.678
46663W        W18192   4.401  31.321   4.604
46664W        W18193  24.670  26.823   4.838
46665W        W18194  34.634  40.399  11.576
46666W        W18195  14.695  15.713  12.932
46667W        W18196   3.242  21.032   2.083
46668W        W18197   1.523  28.801   4.139
46669W        W18198  44.441  17.219  14.072
46670W        W18199  16.733  29.094  14.769
46671W        W18200  42.748  41.849  12.541
46672W        W18201   8.444  15.778   4.678
46673W        W18202  23.720  31.487   4.600
46674W        W18203   6.798  36.033  14.545
46675W        W18204  24.394   3.630   2.264
46676W        W18205  10.197   4.368  14.692
46677W        W18206  41.441  34.635  14.391
46678W        W18207   0.487  10.849  14.906
46679W        W18208   5.013  28.109  14.073
46680W        W18209  44.305  25.174  11.613
46681W        W18210  43.941  26.652  11.499
46682W        W18211  43.562   7.319  12.154
46683W        W18212  41.343  30.094   1.361
46684W        W18213   9.299  17.200  13.556
46685W        W18214  33.389  21.765   3.632
46686W        W18215  41.546   5.322   2.307
46687W        W18216  21.987  24.030  10.993
46688W        W18217  43.060  35.886  13.776
46689W        W18218  24.579  30.409  13.949
46690W        W18219   1.881  19.094  12.504
46691W        W18220  34.614  10.663  12.842
46692W        W18221  16.554  42.897  12.914
46693W        W18222  27.054  33.900  11.228
46694W        W18223  21.329  31.339  10.732
46695W        W18224   3.876  19.705  10.582
46696W        W18225   5.458   1.875  10.698
46697W        W18226   9.650  43.199   0.280
46698W        W18227  42.928  42.479   3.622
46699W        W18228  12.091   3.493  12.644
46700W        W18229  14.376  24.176   4.274
46701W        W18230   5.128  43.433  11.921
46702W        W18231  44.358  16.914  10.888
46703W        W18232  16.085  29.409   2.175
46704W        W18233   2.906   1.183  14.574
46705W        W18234   0.109  14.868   0.344
46706W        W18235  13.849  29.851   1.876
46707W        W18236  12.672  20.998  13.799
46708W        W18237  29.141  43.234   4.603
46709W        W18238   1.698  27.762   3.231
46710W        W18239  30.918  29.365  12.546
46711W        W18240   1.967  35.113  13.556
46712W        W18241  32.631  16.384   0.816
46713W        W18242  43.263  38.032   4.556
46714W        W18243   0.888  10.224   2.950
46715W        W18244  35.412  18.649  11.600
46716W        W18245  36.303  23.677  12.329
46717W        W18246  31.429  40.923   0.280
46718W        W18247  29.014  38.749  11.884
46719W        W18248  20.504   8.432  12.592
46720W        W18249  41.095  38.061  10.618
46721W        W18250  28.437  11.122  10.597
46722W        W18251  44.924  16.071  11.627
46723W        W18252   0.268  43.220   4.087
46724W        W18253  39.528  18.167   1.222
46725W        W18254  33.137  26.422   4.143
46726W        W18255  44.881  24.079  11.410
46727W        W18256  38.790   0.763  14.019
46728W        W18257  13.830  17.277  14.535
46729W        W18258  16.578  24.357   4.280
46730W        W18259   7.281  35.852  14.521
46731W        W18260   8.340  17.691  10.254
46732W        W18261  33.584   0.295   4.190
46733W        W18262   3.484  33.924   2.359
46734W        W18263  30.098  39.373   2.811
46735W        W18264  16.719  43.985  13.655
46736W        W18265  19.012  19.476  13.685
46737W        W18266   9.326  30.510  13.323
46738W        W18267  31.393  43.681  13.153
46739W        W18268  30.751  29.094   3.231
46740W        W18269  22.072  21.082   0.673
46741W        W18270  26.953  30.051  14.875
46742W        W18271  26.023  21.270  14.750
46743W        W18272  24.006  17.820   0.367
46744W        W18273  25.855  44.217  13.056
46745W        W18274  41.949  13.711   4.245
46746W        W18275  42.302   4.740   2.333
46747W        W18276  20.968   0.813   2.755
46748W        W18277  42.553  43.128   4.938
46749W        W18278  39.786   5.853  13.009
46750W        W18279   5.146  33.593   2.865
46751W        W18280  37.877   2.414  12.125
46752W        W18281   7.697  38.766   1.332
46753W        W18282   1.324  32.755  12.409
46754W        W18283  22.192  22.589   4.758
46755W        W18284  40.221   6.004  11.695
46756W        W18285  21.695  29.476   0.861
46757W        W18286   8.596  12.722  13.474
46758W        W18287  32.459  24.613   2.677
46759W        W18288  20.281  16.101  13.572
46760W        W18289  11.350  21.146  12.254
46761W        W18290  16.691  38.382   1.892
46762W        W18291  14.301  21.958  11.992
46763W        W18292   9.216  24.029  12.007
46764W        W18293  29.118   7.212  10.751
46765W        W18294  44.958  11.851  10.307
46766W        W18295  30.684  40.575  14.392
46767W        W18296  13.750  28.520   1.343
46768W        W18297  37.631  35.498  12.346
46769W        W18298  33.466  30.414   2.310
46770W        W18299  10.226   6.965  12.338
46771W        W18300  35.442  11.687   4.626
46772W        W18301  37.545   4.188   4.670
46773W        W18302   0.858   8.727   0.220
46774W        W18303  28.791   4.306   2.662
46775W        W18304  10.827  19.004  14.439
46776W        W18305  30.111  11.484  11.087
46777W        W18306   6.838  24.076   4.308
46778W        W18307  22.220   4.273  12.159
46779W        W18308  10.880   6.821  12.957
46780W        W18309   4.900   7.823   0.553
46781W        W18310  19.665   6.313   4.956
46782W        W18311  36.032  23.011   2.802
46783W        W18312  36.843  38.549  14.931
46784W        W18313  11.377   9.672  11.205
46785W        W18314  42.483   9.681   0.442
46786W        W18315   3.336  14.574  13.352
46787W        W18316  13.149  38.489   1.452
46788W        W18317  22.576  30.906  13.525
46789W        W18318   4.170  20.835   4.053
46790W        W18319  43.960   5.697  10.641
46791W        W18320  40.045  42.466  14.027
46792W        W18321  41.447  24.448  14.521
46793W        W18322   2.512   9.301   3.817
46794W        W18323  24.142  27.424   1.502
46795W        W18324  15.774  29.007  14.416
46796W        W18325  15.449  34.360   0.006
46797W        W18326  43.970  30.097   3.191
46798W        W18327  23.993   9.245   3.202
46799W        W18328  32.841   1.642   3.304
46800W        W18329   0.259  14.157  10.746
46801W        W18330  12.916  44.358  10.195
46802W        W18331  32.923  38.279   1.605
46803W        W18332  39.351   6.790   3.096
46804W        W18333  27.711   2.853   3.786
46805W        W18334  19.096  22.503   4.562
46806W        W18335  16.996  20.499  13.863
46807W        W18336  21.710  35.703   2.668
46808W        W18337  17.824  28.987   3.672
46809W        W18338  13.670  28.446   4.860
46810W        W18339  10.203  18.413   4.128
46811W        W18340  10.197  36.982  14.929
46812W        W18341   6.523  35.119   0.401
46813W        W18342  15.402   7.722   1.423
46814W        W18343  29.311  22.195   9.861
46815W        W18344  21.702  22.603   4.628
46816W        W18345  12.258  34.875   4.266
46817W        W18346  28.650  29.921   1.708
46818W        W18347  20.227  42.439   3.062
46819W        W18348  28.133  29.665  13.995
46820W        W18349  31.835   4.798   1.331
46821W        W18350   3.856   6.241   2.800
46822W        W18351  11.090   8.285   1.286
46823W        W18352  31.925   2.705  11.081
46824W        W18353  21.597   0.298   3.348
46825W        W18354   5.304  24.757  14.495
46826W        W18355  10.447  19.143  14.782
46827W        W18356  36.470  13.206  14.960
46828W        W18357  25.700  15.716  10.822
46829W        W18358  17.254  18.743   3.781
46830W        W18359   5.859  26.365  10.410
46831W        W18360  35.925  43.914   3.119
46832W        W18361  27.960  27.439   3.372
46833W        W18362  24.766  16.881   3.659
46834W        W18363  40.060  33.863  12.916
46835W        W18364  33.853  33.270   1.230
46836W        W18365  40.038   4.333   5.000
46837W        W18366  13.315  15.324   3.214
46838W        W18367  34.756   1.035   0.038
46839W        W18368  18.115   8.582  12.003
46840W        W18369  16.391   7.848   3.682
46841W        W18370  43.004   6.327  11.147
46842W        W18371  26.990  42.314   0.446
46843W        W18372  22.456   1.851   0.832
46844W        W18373   1.409  16.164  14.894
46845W        W18374  37.814  43.400  14.291
46846W        W18375   0.315  31.621   3.877
46847W        W18376  23.298  22.727  13.447
46848W        W18377  44.081  43.833  10.535
46849W        W18378  33.479   3.516   3.266
46850W        W18379  18.719  10.386  14.344
46851W        W18380   3.013  43.342   2.219
46852W        W18381  40.793  34.376   2.757
46853W        W18382  33.452   8.890   1.468
46854W        W18383  24.466  18.359   0.738
46855W        W18384   4.449  44.913  12.830
46856W        W18385   4.249  10.599  11.888
46857W        W18386  21.167  13.168   3.345
46858W        W18387  14.586  31.121   3.472
46859W        W18388  13.705  22.675   2.194
46860W        W18389  22.882  34.916  10.660
46861W        W18390  18.197  19.755   9.692
46862W        W18391  32.047   7.231  14.318
46863W        W18392  12.353  33.536   2.362
46864W        W18393  13.639  25.411   1.037
46865W        W18394  12.195  38.221   4.686
46866W        W18395  26.804  22.373   2.241
46867W        W18396  13.094  38.484   4.556
46868W        W18397  35.158   1.117  14.684
46869W        W18398  42.409   7.275   4.918
46870W        W18399  21.093  21.089   1.123
46871W        W18400   4.167  44.193   3.201
46872W        W18401   8.736  31.755  13.734
46873W        W18402  44.985  14.906   1.256
46874W        W18403  40.804  16.306  14.605
46875W        W18404  23.305  44.460  11.587
46876W        W18405  38.410  44.359  12.780
46877W        W18406  36.612   1.460   4.457
46878W        W18407   6.631  34.600  11.137
46879W        W18408  22.628  19.281   4.113
46880W        W18409   4.675  20.512   0.420
46881W        W18410  34.156  38.623  11.094
46882W        W18411  44.225   5.249  10.721
46883W        W18412  40.552   5.741   4.111
46884W        W18413  27.021   6.724   4.121
46885W        W18414  23.138  41.977   3.033
46886W        W18415  33.435  14.275  11.751
46887W        W18416  29.269  28.079   2.274
46888W        W18417   8.619  13.202   1.414
46889W        W18418  21.564  22.858   2.147
46890W        W18419  26.609  37.716  12.552
46891W        W18420  42.251   3.374  10.966
46892W        W18421  30.455  10.609   3.338
46893W        W18422  34.402  38.359   2.824
46894W        W18423   0.740  43.931   3.598
46895W        W18424  39.309  17.044   1.698
46896W        W18425  21.979  27.995  11.870
46897W        W18426  30.675  19.231  14.086
46898W        W18427  13.102   7.176  10.661
46899W        W18428  42.979  20.019   2.744
46900W        W18429  32.588  42.603  11.903
46901W        W18430  21.137  33.880  13.162
46902W        W18431  21.757  38.896   3.743
46903W        W18432  15.184  26.220  12.965
46904W        W18433  26.709  30.794  10.054
46905W        W18434  15.326  37.301  11.489
46906W        W18435   8.739  23.470  12.493
46907W        W18436  20.369   0.238   1.764
46908W        W18437  13.733  13.066   2.738
46909W        W18438  11.298  36.105  11.913
46910W        W18439  15.231  38.563   3.732
46911W        W18440  39.529  20.963   5.107
46912W        W18441  30.228  18.458  11.671
46913W        W18442   4.764  39.912  11.359
46914W        W18443  37.953   3.684  10.693
46915W        W18444  37.005  12.340   3.306
46916W        W18445  22.975   8.573   4.181
46917W        W18446   0.557  28.192  11.380
46918W        W18447  17.143  36.238  13.043
46919W        W18448  30.611  24.054   1.867
46920W        W18449  16.801  26.668  10.657
46921W        W18450  16.090  36.842   0.902
46922W        W18451  34.142   2.985   4.545
46923W        W18452   2.860  41.827   0.767
46924W        W18453  25.477  29.050  11.188
46925W        W18454   2.927  13.112  12.484
46926W        W18455  44.900  28.011  13.106
46927W        W18456  20.472  26.452   1.815
46928W        W18457  25.269  26.130  10.739
46929W        W18458  32.124  17.324  12.798
46930W        W18459  35.828  42.503  14.271
46931W        W18460  44.952  23.033  13.932
46932W        W18461   0.959  33.142  13.455
46933W        W18462  27.871  33.352  12.107
46934W        W18463  40.969  29.342   3.225
46935W        W18464  43.456  16.896  10.556
46936W        W18465  34.860  24.134   2.787
46937W        W18466  25.623  14.509  14.722
46938W        W18467  17.806  30.569  11.526
46939W        W18468  24.534  22.578  12.171
46940W        W18469  35.505   9.235  11.253
46941W        W18470  34.818  41.382   1.285
46942W        W18471   3.467  30.563   4.595
46943W        W18472   8.375   9.325   2.341
46944W        W18473  12.746  24.667  10.647
46945W        W18474  40.056   7.968  14.781
46946W        W18475  20.690   6.861   2.728
46947W        W18476   9.977  19.764   2.402
46948W        W18477   3.192   3.833  14.004
46949W        W18478   1.093   7.048   4.105
46950W        W18479  38.006  34.827  10.430
46951W        W18480  16.200  31.574   3.028
46952W        W18481  20.083  42.270  10.558
46953W        W18482  37.160  35.430   0.223
46954W        W18483  38.871  22.575   0.819
46955W        W18484  37.992  25.973  12.449
46956W        W18485   1.996  22.518   4.454
46957W        W18486  16.854  15.101  12.495
46958W        W18487  18.582   7.746   0.320
46959W        W18488  31.320  35.680   0.376
46960W        W18489  19.808  39.661   3.427
46961W        W18490  44.641   6.107   3.475
46962W        W18491  22.494  34.095   4.964
46963W        W18492  14.750  40.399  13.449
46964W        W18493  41.474  42.338  11.159
46965W        W18494  43.830  40.863  10.352
46966W        W18495  42.542  35.042  12.993
46967W        W18496  25.073  10.703   3.677
46968W        W18497  41.098  21.669  14.301
46969W        W18498   6.217  43.826   1.472
46970W        W18499  17.145  16.852  14.034
46971W        W18500  13.541  15.780   1.403
46972W        W18501   7.166   3.195  11.149
46973W        W18502  12.746  26.201   3.764
46974W        W18503  14.176   8.345   2.937
46975W        W18504  11.567  41.847   2.281
46976W        W18505  16.160  38.347  13.118
46977W        W18506  39.950  16.082   1.040
46978W        W18507  31.946  39.984   0.123
46979W        W18508  28.923  36.088  12.411
46980W        W18509  29.885  23.103  12.118
46981W        W18510  34.313   9.283  13.955
46982W        W18511   4.946  33.620   0.293
46983W        W18512  23.077  23.680  14.815
46984W        W18513   0.208  11.797   2.674
46985W        W18514   8.613  31.772  10.742
46986W        W18515  44.903  31.675   1.517
46987W        W18516  13.821  35.528  14.316
46988W        W18517   0.201  17.080   4.546
46989W        W18518  16.224   5.941   3.235
46990W        W18519  23.252  25.496  14.904
46991W        W18520   2.449   2.350  11.170
46992W        W18521  21.054  42.368  12.572
46993W        W18522  18.819  31.260   0.366
46994W        W18523   9.727  25.459  10.604
46995W        W18524  24.606  40.618  12.067
46996W        W18525  25.733  10.227   0.811
46997W        W18526  31.562  33.547   2.440
46998W        W18527  41.271  26.083   4.614
46999W        W18528  36.881  33.618   0.923
47000W        W18529  33.649  10.679  12.509
47001W        W18530   4.702  41.850   3.649
47002W        W18531  14.197  13.641  14.064
47003W        W18532   9.434   2.932  11.111
47004W        W18533   3.695  25.088  11.480
47005W        W18534   5.693   1.333  14.502
47006W        W18535  43.251  23.636  11.234
47007W        W18536  19.658  37.657  12.940
47008W        W18537  19.124  14.651  12.432
47009W        W18538  26.614   2.875  13.035
47010W        W18539  25.654  20.787   0.307
47011W        W18540   4.290  41.542   3.394
47012W        W18541  12.690   7.388   1.211
47013W        W18542  27.025  11.333  12.938
47014W        W18543   8.166  43.536  12.942
47015W        W18544  10.397   8.149   1.868
47016W        W18545   5.198  39.517   3.654
47017W        W18546  42.453  10.675  13.918
47018W        W18547   9.336  29.879  12.622
47019W        W18548  34.011  16.041   3.230
47020W        W18549  14.410  40.219  11.288
47021W        W18550   5.383  33.716   3.328
47022W        W18551   1.661  29.090   3.712
47023W        W18552  43.865  40.335  12.924
47024W        W18553  25.604  21.602  14.784
47025W        W18554  24.203  42.361  12.483
47026W        W18555  40.439  28.987  14.898
47027W        W18556  44.210  34.980  10.193
47028W        W18557  34.490   3.774  14.567
47029W        W18558  17.737  12.167   3.236
47030W        W18559  44.196  44.438   2.749
47031W        W18560  20.136  14.284  14.557
47032W        W18561  22.003  28.465   1.925
47033W        W18562   9.731  28.676  12.920
47034W        W18563  21.547   6.211   1.827
47035W        W18564   2.086  43.486  10.718
47036W        W18565  26.527  17.955  12.169
47037W        W18566  43.898  32.163   0.457
47038W        W18567  43.488   9.832   4.761
47039W        W18568  12.578   5.031   3.153
47040W        W18569  17.692  12.029  13.058
47041W        W18570  12.713   0.997   2.320
47042W        W18571  13.823  38.921  11.617
47043W        W18572  30.691  30.073  10.957
47044W        W18573  18.263  13.814   4.088
47045W        W18574  20.577  25.840   2.375
47046W        W18575   7.683  20.155   4.659
47047W        W18576   2.497   7.483  10.464
47048W        W18577  41.256  17.480  14.346
47049W        W18578  22.563   5.300   2.119
47050W        W18579   0.416  15.916   9.766
47051W        W18580  19.381  41.740  10.512
47052W        W18581  23.121  41.571   1.794
47053W        W18582  37.263  15.788   4.572
47054W        W18583  24.921  19.211   2.707
47055W        W18584   3.763   9.739   0.491
47056W        W18585  33.184  23.259  13.776
47057W        W18586  19.792  30.184   2.371
47058W        W18587   3.215  22.055  11.096
47059W        W18588  17.775  41.328  13.114
47060W        W18589  18.142   5.486  14.896
47061W        W18590   5.965  33.954  14.026
47062W        W18591  33.959  19.431   3.224
47063W        W18592  22.246  14.303  13.014
47064W        W18593  16.244   7.260  11.100
47065W        W18594  27.597   4.521   1.792
47066W        W18595  27.241  28.497  13.065
47067W        W18596  32.475  33.773  13.455
47068W        W18597  33.651  14.140   3.359
47069W        W18598  26.068  36.067  13.080
47070W        W18599  23.092  27.772   0.229
47071W        W18600  30.746  39.606  14.397
47072W        W18601   3.005   6.685   1.666
47073W        W18602  17.842  13.282   1.327
47074W        W18603  29.693  39.359  13.540
47075W        W18604  20.667  18.111  11.128
47076W        W18605  32.174  42.337  13.005
47077W        W18606   9.718  25.197   4.795
47078W        W18607   4.277   2.413  12.591
47079W        W18608  33.548  18.829   3.762
47080W        W18609  30.541  21.097  13.369
47081W        W18610  38.897  40.124  11.596
47082W        W18611   6.651  11.150  12.024
47083W        W18612  12.300  41.816   1.368
47084W        W18613  25.522   4.899  13.584
47085W        W18614  18.520  13.345   3.209
47086W        W18615  43.559   3.963   4.490
47087W        W18616   1.283  37.633   3.416
47088W        W18617  25.684  36.557   4.999
47089W        W18618  35.960  33.489  10.752
47090W        W18619  40.567  43.820  10.737
47091W        W18620  24.131  21.302  12.900
47092W        W18621  35.346  29.920   1.217
47093W        W18622  10.415  24.017   0.828
47094W        W18623  40.109  42.059   1.538
47095W        W18624  41.777  35.883   1.538
47096W        W18625   6.231  10.215   4.049
47097W        W18626   7.917  35.516   4.612
47098W        W18627  33.921  30.968  10.592
47099W        W18628   3.758  16.336  14.557
47100W        W18629  32.699  10.779   2.676
47101W        W18630  41.403   5.806   2.172
47102W        W18631   0.623  15.497   4.371
47103W        W18632   5.871  12.182  13.023
47104W        W18633  14.209  21.969  14.777
47105W        W18634  36.755   3.945   0.783
47106W        W18635  11.194  34.052   0.464
47107W        W18636  13.375  44.728   0.513
47108W        W18637  11.778   0.393   2.367
47109W        W18638  30.328  15.866  12.037
47110W        W18639  41.385   6.150  13.258
47111W        W18640  23.138  30.193   2.145
47112W        W18641  30.128  28.123   0.464
47113W        W18642  33.485  26.527   2.222
47114W        W18643  29.085  20.999  13.502
47115W        W18644  33.057   7.865  12.283
47116W        W18645  20.106  19.743  11.158
47117W        W18646   1.245  12.295   0.941
47118W        W18647  37.155  18.771   5.073
47119W        W18648  30.476   7.863   3.607
47120W        W18649   4.050  32.415   2.200
47121W        W18650  14.783  42.791   2.196
47122W        W18651  32.932  21.106   0.307
47123W        W18652  10.697  42.964   4.722
47124W        W18653  27.866  38.504  11.705
47125W        W18654   5.322  15.868   1.324
47126W        W18655   0.162  14.678   0.831
47127W        W18656  40.470  19.228  11.934
47128W        W18657   3.057   6.248   0.945
47129W        W18658  14.209  44.613  10.984
47130W        W18659  26.359  22.326   5.109
47131W        W18660  34.971  31.422   0.300
47132W        W18661  42.839  35.140  10.744
47133W        W18662  19.073  19.559   2.694
47134W        W18663  18.132  41.531   0.267
47135W        W18664  39.371  14.868   2.392
47136W        W18665  16.005   0.474  14.270
47137W        W18666  31.011   6.800  11.298
47138W        W18667  22.053   7.881   2.845
47139W        W18668  42.789  14.681  12.196
47140W        W18669  15.745  10.857   0.808
47141W        W18670   9.049  36.831  11.519
47142W        W18671  20.247  22.715   1.334
47143W        W18672  40.453  41.011   0.396
47144W        W18673  37.826  10.874   3.821
47145W        W18674  29.207   1.337  12.458
47146W        W18675  12.224   4.295   3.081
47147W        W18676  34.987  37.502   0.344
47148W        W18677  35.968  25.139   4.034
47149W        W18678  24.528  37.412  12.987
47150W        W18679  33.024  15.329   1.772
47151W        W18680  11.627   4.785   3.259
47152W        W18681  29.173  31.039   2.663
47153W        W18682  24.257  19.574  11.013
47154W        W18683  32.316  37.462  13.104
47155W        W18684  33.892  39.575  14.728
47156W        W18685   0.085  35.048  14.942
47157W        W18686  23.638  42.780   0.034
47158W        W18687  17.763   1.290  13.507
47159W        W18688  27.131  11.862   1.826
47160W        W18689  40.382  34.978  13.937
47161W        W18690  17.796  18.801   3.786
47162W        W18691  14.659  24.280   4.791
47163W        W18692  35.098  21.808   1.063
47164W        W18693  34.027  22.092   1.989
47165W        W18694   1.896  10.828   0.241
47166W        W18695  28.133  22.005   4.161
47167W        W18696  34.214  14.333  12.434
47168W        W18697  22.722   8.755  13.506
47169W        W18698  36.124  19.782  11.044
47170W        W18699   4.852  25.035  14.396
47171W        W18700  42.597   9.359  13.862
47172W        W18701  25.882  33.006   4.945
47173W        W18702  33.578  29.173   3.707
47174W        W18703  20.808  14.209  11.530
47175W        W18704  38.547  31.153   0.322
47176W        W18705  16.315   4.655  12.180
47177W        W18706  38.410   8.154   2.841
47178W        W18707  27.466  12.337   1.149
47179W        W18708  37.998  23.449   3.603
47180W        W18709   0.932  38.335  10.691
47181W        W18710  38.497  12.166  14.640
47182W        W18711  14.729  39.330  12.390
47183W        W18712  37.629  25.614  14.897
47184W        W18713  24.932  21.538   0.566
47185W        W18714  31.170   4.981   2.649
47186W        W18715  19.616  40.479  13.998
47187W        W18716  21.021   5.308   4.055
47188W        W18717  44.800  23.996   3.077
47189W        W18718  20.126   2.329  12.919
47190W        W18719  19.669  39.440  12.028
47191W        W18720  40.388  17.029   3.536
47192W        W18721  20.562   4.426   1.149
47193W        W18722  19.117   5.257   1.160
47194W        W18723  44.307  34.011   0.916
47195W        W18724  23.238  28.612  14.015
47196W        W18725  12.927  22.368   4.079
47197W        W18726  21.536  25.586   2.314
47198W        W18727  22.655  35.381   4.070
47199W        W18728  14.834  39.912   4.864
47200W        W18729  37.370  20.793  14.879
47201W        W18730  23.382  17.535   4.239
47202W        W18731  37.277  26.661   1.085
47203W        W18732  36.126   3.713  10.593
47204W        W18733  43.600  15.130  13.969
47205W        W18734  35.341  33.491  11.996
47206W        W18735  23.691  26.981  13.481
47207W        W18736  19.631  22.833  14.535
47208W        W18737  28.750  35.069  11.173
47209W        W18738  41.049  38.528  14.833
47210W        W18739  42.223  30.830  10.591
47211W        W18740  23.100  33.053  12.299
47212W        W18741  16.861  29.732  14.457
47213W        W18742  38.098  37.889  12.558
47214W        W18743  34.385  15.568  11.445
47215W        W18744  16.295  43.546  13.377
47216W        W18745  20.768  20.589  13.074
47217W        W18746  18.744  23.180   0.685
47218W        W18747  37.310  41.351  13.346
47219W        W18748   2.901  23.502   2.381
47220W        W18749  17.849  18.329  13.342
47221W        W18750  29.687  17.129   2.838
47222W        W18751  13.190   0.286  13.083
47223W        W18752   4.214  24.032  12.114
47224W        W18753  28.887  19.279  12.417
47225W        W18754   2.784  21.067  11.421
47226W        W18755  34.834  27.178  14.083
47227W        W18756  20.668  34.053   3.885
47228W        W18757  33.667  33.620   1.984
47229W        W18758   2.659   0.750   3.802
47230W        W18759  34.161  14.111  11.102
47231W        W18760  26.432  17.527   4.675
47232W        W18761  18.974  13.263  11.206
47233W        W18762  27.481  40.801   0.283
47234W        W18763   3.446  14.987   4.086
47235W        W18764  25.450  43.299  10.636
47236W        W18765  27.051  40.699  11.180
47237W        W18766  24.047  25.829  10.990
47238W        W18767  21.669  18.006   2.678
47239W        W18768  13.927  27.302  14.768
47240W        W18769  16.581  35.830   3.187
47241W        W18770  26.226   8.146   1.190
47242W        W18771  37.172  34.792   5.021
47243W        W18772  29.081  14.025  11.058
47244W        W18773  29.515  11.875   4.656
47245W        W18774  35.195  14.612  13.855
47246W        W18775   7.787  30.168   4.158
47247W        W18776  39.534  34.535   3.149
47248W        W18777  10.873  23.171  13.513
47249W        W18778  33.928  32.479   1.601
47250W        W18779  28.003  24.941   0.102
47251W        W18780  32.446  13.582   0.283
47252W        W18781  16.272  24.630  13.730
47253W        W18782  34.194  40.135  12.879
47254W        W18783  24.694   1.997  13.475
47255W        W18784   5.963  12.834  11.220
47256W        W18785   6.519  32.145   4.074
47257W        W18786  30.947  33.560  10.996
47258W        W18787  24.041   1.489  14.808
47259W        W18788  25.569   7.247  11.630
47260W        W18789  14.345  38.861  10.968
47261W        W18790  15.359  10.641   2.423
47262W        W18791  43.265  32.155   1.695
47263W        W18792  36.094   5.868  12.851
47264W        W18793  19.514  37.313   2.416
47265W        W18794   5.121  20.005   3.225
47266W        W18795  23.161  12.595   2.659
47267W        W18796  41.393  10.337   3.828
47268W        W18797  32.995   6.346   3.222
47269W        W18798  37.581  35.243   1.662
47270W        W18799  14.352  35.409   3.450
47271W        W18800   4.692   4.663   0.851
47272W        W18801  41.980  42.016   0.646
47273W        W18802  28.129  26.934  12.530
47274W        W18803   2.747  44.557  13.606
47275W        W18804   6.926  22.169   1.385
47276W        W18805  34.062   1.481   3.801
47277W        W18806  30.834   4.805   4.676
47278W        W18807  35.891  20.077   4.838
47279W        W18808  24.203  34.385   3.689
47280W        W18809  31.051  13.079  10.827
47281W        W18810  15.045  38.648   4.597
47282W        W18811  22.940  44.605  13.441
47283W        W18812  39.539  23.190   2.348
47284W        W18813  17.426  12.251  13.848
47285W        W18814  24.586  20.834  12.530
47286W        W18815  29.058  28.478  12.877
47287W        W18816  11.144  33.593  13.331
47288W        W18817   5.815  37.478   4.518
47289W        W18818  23.831   5.327   4.786
47290W        W18819   4.523  30.668  13.178
47291W        W18820  17.819   6.837   0.933
47292W        W18821   8.103  14.212  12.916
47293W        W18822  43.721  43.495  14.422
47294W        W18823  38.758  21.089  14.439
47295W        W18824  30.181  20.122   2.276
47296W        W18825  10.202  39.876   4.534
47297W        W18826  34.223  25.902  14.769
47298W        W18827  38.020  23.656   0.439
47299W        W18828   2.502  44.943   1.385
47300W        W18829   5.184  15.529  12.525
47301W        W18830  13.049  19.749   0.238
47302W        W18831  36.791  21.969  13.507
47303W        W18832  40.372  43.883  14.089
47304W        W18833  30.843  13.020   1.877
47305W        W18834  11.577  17.247  11.601
47306W        W18835  27.049  15.563  13.207
47307W        W18836  23.633  24.699  11.421
47308W        W18837  24.028  22.034  12.652
47309W        W18838  37.337  14.320   0.046
47310W        W18839  33.370  22.208   2.822
47311W        W18840  26.476  39.530   2.343
47312W        W18841  27.137  30.855  13.178
47313W        W18842  25.471  38.066  14.983
47314W        W18843  37.529   0.602  12.171
47315W        W18844  40.412  22.326   3.791
47316W        W18845  21.102  12.183   4.656
47317W        W18846   3.171   5.360   2.151
47318W        W18847  24.629  31.782   1.904
47319W        W18848  15.110  29.247   1.311
47320W        W18849   1.433  40.368  12.777
47321W        W18850  38.417  20.256  10.943
47322W        W18851  16.750  27.214   2.567
47323W        W18852  44.029   5.779  14.301
47324W        W18853  33.147  40.753   4.230
47325W        W18854   3.304  16.248   0.879
47326W        W18855   2.596  23.658  12.522
47327W        W18856  38.952  13.715  14.111
47328W        W18857  16.120  34.939  12.513
47329W        W18858  32.850   2.590  11.131
47330W        W18859  40.961  17.523  11.528
47331W        W18860  19.201  18.866   1.138
47332W        W18861  43.964  15.349   0.896
47333W        W18862   0.782  40.158   0.270
47334W        W18863  35.988  37.338  11.276
47335W        W18864  35.862  33.503  13.272
47336W        W18865  37.532  35.119  12.681
47337W        W18866  26.546  41.395  12.438
47338W        W18867  27.088  43.217  11.548
47339W        W18868  13.208  36.575   1.143
47340W        W18869  22.159  29.981   0.329
47341W        W18870  17.331  35.996   0.397
47342W        W18871  26.668  34.449  14.285
47343W        W18872  24.802  33.008   4.844
47344W        W18873  32.077  14.804  11.888
47345W        W18874  22.768   9.142   2.532
47346W        W18875  13.566  12.839  13.913
47347W        W18876  17.458  20.726   3.089
47348W        W18877  23.348  22.528  10.529
47349W        W18878  36.096  10.164   2.341
47350W        W18879  14.597  18.166   3.639
47351W        W18880  26.477  44.738  12.118
47352W        W18881   3.777  28.082  12.467
47353W        W18882   8.835  13.147   0.939
47354W        W18883  35.506  18.467   2.724
47355W        W18884  25.270   7.854  14.725
47356W        W18885  14.603  15.482  10.255
47357W        W18886  16.112   0.354   1.199
47358W        W18887  38.277  33.907   1.265
47359W        W18888  23.030  14.166   3.988
47360W        W18889   9.480  25.001   1.792
47361W        W18890  11.656  33.892   4.414
47362W        W18891  40.486  30.979  11.128
47363W        W18892  42.560  33.010   3.490
47364W        W18893  32.397  21.482   3.926
47365W        W18894  28.037  27.484  14.543
47366W        W18895  38.573   2.201   4.784
47367W        W18896   9.789  10.708  11.895
47368W        W18897  20.562  10.205  12.057
47369W        W18898  12.844  12.349   1.956
47370W        W18899  21.794  14.882  14.388
47371W        W18900   6.719  44.416  12.420
47372W        W18901  22.428  32.959   2.300
47373W        W18902  21.495  34.658  14.045
47374W        W18903  16.464  37.107   0.444
47375W        W18904  14.144  30.337   3.674
47376W        W18905  14.890  13.853  10.986
47377W        W18906   9.304  19.921   0.350
47378W        W18907  14.631  24.229  14.447
47379W        W18908  28.165   8.472  10.134
47380W        W18909  13.690  33.542   4.318
47381W        W18910  15.232  35.925  10.722
47382W        W18911  44.166  27.141   0.504
47383W        W18912  36.808  21.817   2.321
47384W        W18913  27.540  24.773  12.800
47385W        W18914  15.290   9.234   3.573
47386W        W18915  41.971  30.221   1.030
47387W        W18916  35.187  13.312  13.517
47388W        W18917  28.963  35.159   1.810
47389W        W18918  17.865  16.211   2.833
47390W        W18919  19.223  31.737  11.831
47391W        W18920  27.691  43.229  13.072
47392W        W18921  42.905  14.541   2.157
47393W        W18922  25.646   5.506   3.260
47394W        W18923  32.587   8.348  11.568
47395W        W18924   3.245  30.889   4.138
47396W        W18925  26.498  36.068  10.259
47397W        W18926  35.036  44.838  14.854
47398W        W18927  31.948  20.273   2.645
47399W        W18928  31.746   2.185   3.679
47400W        W18929  15.230  12.656   0.791
47401W        W18930   3.274  27.170   0.653
47402W        W18931   5.629  18.280  12.867
47403W        W18932  16.553  24.689  14.993
47404W        W18933  43.786  38.754  13.495
47405W        W18934  25.240   3.829  11.716
47406W        W18935  36.691   7.377   3.990
47407W        W18936   5.176   1.435  14.012
47408W        W18937  35.497   8.704  12.610
47409W        W18938   7.332  18.233  14.088
47410W        W18939  11.699  35.876  10.758
47411W        W18940  18.405  34.860  13.695
47412W        W18941   3.881  43.658   2.539
47413W        W18942  39.938  39.345  10.969
47414W        W18943  40.943  17.832  12.414
47415W        W18944  27.221   4.847  12.478
47416W        W18945   9.405  10.307  14.502
47417W        W18946  21.232  16.054   0.239
47418W        W18947  22.908  44.452   2.683
47419W        W18948  19.130  41.447  11.711
47420W        W18949  22.500  38.987  11.808
47421W        W18950  42.729  42.588  10.750
47422W        W18951  44.710   3.384   3.754
47423W        W18952  16.531  41.872   0.749
47424W        W18953  21.067  37.514   3.226
47425W        W18954  40.429  37.474  11.135
47426W        W18955  19.840  41.487  14.809
47427W        W18956   5.330  21.474  11.187
47428W        W18957  11.447  21.229   2.155
47429W        W18958  18.160  28.157   0.071
47430W        W18959  40.588   5.745   2.654
47431W        W18960  30.526  12.162  14.979
47432W        W18961  30.027  28.939   2.399
47433W        W18962  27.123  34.080  12.083
47434W        W18963  25.964   1.559   0.264
47435W        W18964  10.336  40.972  10.461
47436W        W18965   0.194  31.624   2.832
47437W        W18966  33.998  24.454   4.646
47438W        W18967  30.703  35.616  14.273
47439W        W18968  15.799  44.277  13.512
47440W        W18969  15.914  38.995   1.859
47441W        W18970   1.261  10.421   3.644
47442W        W18971   5.542  34.614   0.939
47443W        W18972   9.427  42.778   1.508
47444W        W18973  43.131   2.955  12.181
47445W        W18974  21.650   7.972   4.008
47446W        W18975  19.678  35.519  14.829
47447W        W18976  13.844  39.308   4.067
47448W        W18977   3.005  44.792   1.340
47449W        W18978  21.588  33.979   4.724
47450W        W18979  29.281  15.753  13.447
47451W        W18980   7.387  26.972   2.687
47452W        W18981   1.951  27.549   2.754
47453W        W18982   5.869  26.714   3.456
47454W        W18983   8.651   2.359   2.304
47455W        W18984   8.041  39.937  13.955
47456W        W18985  30.852   8.357  12.110
47457W        W18986  39.132  16.899   0.061
47458W        W18987  34.370   6.857   3.992
47459W        W18988  44.125  28.181   4.948
47460W        W18989  17.744  15.257   4.722
47461W        W18990  37.720  40.027   3.399
47462W        W18991  36.394  34.358  10.425
47463W        W18992   2.101  23.492  14.488
47464W        W18993  35.519  29.812  11.889
47465W        W18994  17.789  19.741   0.475
47466W        W18995  18.185   2.330   3.628
47467W        W18996  36.472  21.897  11.544
47468W        W18997   2.039   7.023  12.912
47469W        W18998  34.999  44.768  13.356
47470W        W18999  34.457  38.592  11.499
47471W        W19000  35.872   3.350  14.545
47472W        W19001  26.418  31.839   1.503
47473W        W19002  32.604   7.145   2.143
47474W        W19003  33.453  15.749   0.727
47475W        W19004  25.526   9.658   3.328
47476W        W19005  37.536   6.107   2.332
47477W        W19006  18.154   7.335  11.145
47478W        W19007   3.811   7.119  12.878
47479W        W19008  26.707  35.432   0.746
47480W        W19009  41.571  42.248   0.913
47481W        W19010  23.983  31.077   4.830
47482W        W19011  13.547   6.388  11.310
47483W        W19012   3.485   9.446  11.626
47484W        W19013   4.027  24.194   3.170
47485W        W19014  34.701  42.928  11.258
47486W        W19015  13.337  20.652  11.453
47487W        W19016  23.963  20.756  11.587
47488W        W19017   3.208  26.315  14.393
47489W        W19018  21.417  18.979  12.383
47490W        W19019  29.863  23.531   3.815
47491W        W19020  18.038  16.411  13.962
47492W        W19021  21.050  44.877   0.320
47493W        W19022   4.955  42.342  11.029
47494W        W19023  12.211  21.500   0.183
47495W        W19024  18.591  25.504  12.423
47496W        W19025  12.643  14.244  10.647
47497W        W19026  31.601  31.615   3.896
47498W        W19027  17.785  24.997  13.911
47499W        W19028  17.329  13.132   2.283
47500W        W19029  44.965  44.188  13.767
47501W        W19030  17.999  32.311  11.882
47502W        W19031  27.542  44.221   0.968
47503W        W19032  16.548   3.693  12.887
47504W        W19033  25.810  19.086  13.849
47505W        W19034  43.455  24.431  14.015
47506W        W19035   0.308  15.712  12.510
47507W        W19036  40.098   3.521   4.263
47508W        W19037  36.420   6.851   4.164
47509W        W19038  14.187  22.397   2.179
47510W        W19039  32.316  15.320   3.197
47511W        W19040  19.468  10.281  14.796
47512W        W19041  36.526  23.081  12.887
47513W        W19042  16.605  27.684   4.092
47514W        W19043  35.457  26.203  14.249
47515W        W19044  13.742  27.264  13.876
47516W        W19045   5.173  41.734  13.357
47517W        W19046  24.354  44.017  13.820
47518W        W19047   3.878  11.656  12.226
47519W        W19048  32.441  15.262   0.846
47520W        W19049  19.955  28.562   3.763
47521W        W19050   2.248  30.590  10.237
47522W        W19051  12.076   3.341  14.701
47523W        W19052  34.157  14.041   3.319
47524W        W19053  44.148  31.088   2.163
47525W        W19054  33.237   7.685  11.316
47526W        W19055  20.578  16.213   1.961
47527W        W19056  26.610  36.978   1.660
47528W        W19057   7.279  34.439   0.305
47529W        W19058  15.806  16.728  12.041
47530W        W19059  18.985  25.641  14.088
47531W        W19060  43.921  44.693  14.067
47532W        W19061  23.317   0.026   3.845
47533W        W19062   4.835  41.560  10.453
47534W        W19063   7.717   1.577  12.111
47535W        W19064  22.277  34.470   3.206
47536W        W19065  22.716   7.675  12.124
47537W        W19066  24.118   7.293  12.978
47538W        W19067  35.520  35.271   1.300
47539W        W19068   3.931  22.614  10.315
47540W        W19069  41.827  15.673  13.946
47541W        W19070  19.906  41.767  14.241
47542W        W19071  22.732  15.084   2.691
47543W        W19072  20.936  12.076   1.314
47544W        W19073  20.172  15.448   4.748
47545W        W19074  39.774  21.289   2.277
47546W        W19075   5.928  17.060  12.215
47547W        W19076   4.022  32.187  13.959
47548W        W19077  20.218  16.720   2.803
47549W        W19078  31.354  38.912   2.806
47550W        W19079  16.334  23.348  14.444
47551W        W19080  38.803  25.691   0.398
47552W        W19081  17.137  24.056  14.508
47553W        W19082  13.367  12.754   3.689
47554W        W19083   1.963  17.177   3.312
47555W        W19084  19.775   6.214   1.813
47556W        W19085  29.194  28.564   2.163
47557W        W19086   1.494  21.703  14.009
47558W        W19087   8.399   9.909   3.027
47559W        W19088  26.157  43.030   2.352
47560W        W19089  11.197  34.064  14.876
47561W        W19090  24.643  16.867  13.994
47562W        W19091  35.388  28.900   0.302
47563W        W19092  17.724  27.836   4.677
47564W        W19093  10.363  22.583   3.643
47565W        W19094  21.246   8.662  11.553
47566W        W19095  10.222   8.823  12.382
47567W        W19096  12.728  27.511   2.276
47568W        W19097  18.607  13.719   4.568
47569W        W19098  25.444  19.449  12.484
47570W        W19099  19.496  12.473   0.374
47571W        W19100  34.149  44.959  14.432
47572W        W19101  27.176  12.900   0.467
47573W        W19102  23.412  37.374  12.010
47574W        W19103  21.988   5.268  11.865
47575W        W19104   0.254  26.784  14.261
47576W        W19105   1.430  12.166   4.221
47577W        W19106  39.363  10.855   4.121
47578W        W19107   4.525  21.126  12.539
47579W        W19108  21.306   4.727  14.470
47580W        W19109   6.603  22.240  13.084
47581W        W19110  26.359  11.760  10.640
47582W        W19111  37.832   1.992  13.075
47583W        W19112  40.538  32.949  12.956
47584W        W19113  17.680  25.416   4.408
47585W        W19114   8.660  41.397   1.887
47586W        W19115  11.985  10.674  12.580
47587W        W19116  39.732  25.195  13.893
47588W        W19117  12.752  27.525  12.992
47589W        W19118   4.780   8.222   1.730
47590W        W19119  30.082  36.941  11.663
47591W        W19120  41.427   9.694  12.569
47592W        W19121  11.767  11.893   2.913
47593W        W19122  33.403   5.847   0.907
47594W        W19123   8.693  36.183   2.191
47595W        W19124  29.053   8.728   2.733
47596W        W19125   3.403  33.302  10.196
47597W        W19126  39.895  28.254  12.564
47598W        W19127  35.452  36.956   0.683
47599W        W19128  20.452   5.825   2.298
47600W        W19129   3.599  43.966   9.968
47601W        W19130  11.096  11.899   3.220
47602W        W19131  26.765   9.039  10.317
47603W        W19132  19.153  42.225  10.743
47604W        W19133   8.792  31.443   4.211
47605W        W19134  39.301  21.192   3.650
47606W        W19135   7.950  13.733   0.373
47607W        W19136  22.147  43.303  14.009
47608W        W19137  36.397  15.159   2.344
47609W        W19138  21.465  28.674   1.286
47610W        W19139  31.608  38.566  14.663
47611W        W19140  27.638  24.618   3.357
47612W        W19141  25.609  39.445  11.218
47613W        W19142  29.757  11.157  12.986
47614W        W19143  17.712  43.477  11.384
47615W        W19144  35.113  37.012  12.734
47616W        W19145  31.696   3.377  14.758
47617W        W19146  23.227  39.065  12.509
47618W        W19147  23.174  36.199  13.950
47619W        W19148  43.723   4.564  11.107
47620W        W19149   8.590  37.883   2.117
47621W        W19150  39.868  21.426  14.023
47622W        W19151   3.045   4.947  13.531
47623W        W19152  17.554   6.761   2.209
47624W        W19153  30.667  35.346  11.146
47625W        W19154  28.369   7.189  13.293
47626W        W19155   5.698  16.508   1.788
47627W        W19156  35.786  40.621  13.482
47628W        W19157   6.152  20.586   9.957
47629W        W19158  43.706  41.611   3.726
47630W        W19159  21.980  32.355   0.503
47631W        W19160  39.438  18.530   0.540
47632W        W19161  15.260  13.711  10.627
47633W        W19162  25.006  43.762  11.023
47634W        W19163  42.585  23.976  11.647
47635W        W19164  27.694  12.291   2.604
47636W        W19165  23.614   8.028   1.098
47637W        W19166   5.179  40.802   0.042
47638W        W19167  24.174   9.804   3.558
47639W        W19168   8.884  11.386   4.330
47640W        W19169   8.873  13.176   2.808
47641W        W19170  43.256  44.376   2.602
47642W        W19171   7.745   6.635   1.802
47643W        W19172   1.555   5.251  11.928
47644W        W19173  15.101  11.355  13.369
47645W        W19174  23.691  31.278  11.132
47646W        W19175   7.410   6.811  13.753
47647W        W19176  32.971  32.642   2.440
47648W        W19177  14.334  44.354  13.591
47649W        W19178  27.012  33.769  14.481
47650W        W19179   0.719   2.351   4.109
47651W        W19180  16.000  28.681   1.797
47652W        W19181  18.284  13.747  13.450
47653W        W19182  41.803  37.443   1.041
47654W        W19183   7.864  24.058  11.582
47655W        W19184  15.322  13.863   3.616
47656W        W19185  33.850  26.108  12.454
47657W        W19186  43.832  16.030  13.108
47658W        W19187  18.071   1.915   0.986
47659W        W19188  21.631  42.497  12.113
47660W        W19189  37.142  33.013   4.799
47661W        W19190  35.438   0.699  11.646
47662W        W19191   9.577  15.076  14.939
47663W        W19192  14.816  22.025   1.834
47664W        W19193   9.706   6.046   4.138
47665W        W19194   9.364  41.952  13.864
47666W        W19195  19.579  35.112   4.263
47667W        W19196  14.064  29.682  11.549
47668W        W19197  21.022  10.124   3.242
47669W        W19198  21.720  18.241   3.139
47670W        W19199  29.614  26.975   3.632
47671W        W19200  18.302  35.607  14.293
47672W        W19201   2.665  42.299   0.856
47673W        W19202   6.779  35.582   4.690
47674W        W19203   3.788  27.739   1.862
47675W        W19204  29.828   5.926  13.929
47676W        W19205   6.717  37.772  14.878
47677W        W19206  15.269  29.166  11.595
47678W        W19207  32.987   0.858   2.892
47679W        W19208  28.409  26.315   1.447
47680W        W19209  23.744  16.231  12.900
47681W        W19210  35.616  39.937  13.492
47682W        W19211   4.832  11.325   1.900
47683W        W19212  27.903  29.297  10.324
47684W        W19213  27.936   3.552  13.307
47685W        W19214  29.905  10.337   0.830
47686W        W19215  16.789  26.120   1.592
47687W        W19216  19.758   5.910   1.295
47688W        W19217  26.159   1.068  10.675
47689W        W19218  26.281   9.629   2.836
47690W        W19219  13.296  30.483  12.413
47691W        W19220  10.561   9.140  14.918
47692W        W19221   2.721  18.430   3.124
47693W        W19222   9.437  35.039   1.337
47694W        W19223   1.892  43.318   4.635
47695W        W19224  34.511  12.962   4.580
47696W        W19225  44.524  38.624  10.825
47697W        W19226  29.481   7.684   1.343
47698W        W19227  36.951  28.351   4.608
47699W        W19228  39.941   5.702  12.532
47700W        W19229  35.888  25.596  12.646
47701W        W19230   1.955  12.270   4.184
47702W        W19231  18.060  23.004  12.110
47703W        W19232  18.137  28.586   0.961
47704W        W19233  18.113  12.718   2.088
47705W        W19234  10.341  33.975  10.695
47706W        W19235  16.438  35.140   0.227
47707W        W19236  30.395   2.420  12.521
47708W        W19237  43.815  12.197   4.358
47709W        W19238  43.372  13.859  10.595
47710W        W19239   1.788  17.571  13.787
47711W        W19240  13.839   6.772   3.906
47712W        W19241  19.792  13.899  12.521
47713W        W19242  30.620  26.143   0.835
47714W        W19243   3.723  33.955   2.820
47715W        W19244  43.946   0.614  14.466
47716W        W19245   4.502   6.917   1.332
47717W        W19246  21.216  12.846   2.923
47718W        W19247  43.710  11.083   1.743
47719W        W19248  34.845  40.330  14.963
47720W        W19249  28.497  44.803  14.522
47721W        W19250  21.387  27.588  12.352
47722W        W19251  12.354  43.316  13.900
47723W        W19252  34.977  14.064   4.060
47724W        W19253   6.956  22.902   3.188
47725W        W19254  34.142  10.719   4.045
47726W        W19255  39.352  29.594   0.261
47727W        W19256  29.411  22.603   4.854
47728W        W19257  32.466  16.975   2.049
47729W        W19258  17.329   3.229  12.026
47730W        W19259   4.805  26.480   4.293
47731W        W19260   7.451  12.573  14.778
47732W        W19261  35.045  44.358   2.775
47733W        W19262  28.072  29.022   1.909
47734W        W19263  25.744  35.483   0.569
47735W        W19264  25.628   4.668   0.181
47736W        W19265  33.449  14.979  10.711
47737W        W19266  38.951  42.321  14.811
47738W        W19267   9.140   0.205  10.946
47739W        W19268  33.710  31.676  13.453
47740W        W19269  24.196   2.914  13.490
47741W        W19270  34.826  18.110  14.901
47742W        W19271   5.506   1.828  13.787
47743W        W19272  14.140  18.276   3.414
47744W        W19273  17.575  10.127  12.423
47745W        W19274  29.079  29.975  13.026
47746W        W19275   6.196  42.908  13.516
47747W        W19276  30.288  25.457  11.966
47748W        W19277  12.714   9.997  10.673
47749W        W19278  44.221   9.186  12.498
47750W        W19279  27.123   5.047   9.972
47751W        W19280  42.897  33.624   3.516
47752W        W19281  16.715  19.820  13.421
47753W        W19282  12.506  18.590   2.687
47754W        W19283   5.788  28.553   3.414
47755W        W19284  23.407  38.896   4.939
47756W        W19285  38.946  11.253   1.785
47757W        W19286   8.930  30.547   2.291
47758W        W19287   2.438   7.809  12.881
47759W        W19288  25.670  23.227   2.915
47760W        W19289  43.398  16.399  10.652
47761W        W19290   3.394  40.879  14.664
47762W        W19291  24.035  38.759  12.997
47763W        W19292  43.478  33.458  10.659
47764W        W19293  21.066  17.083  10.706
47765W        W19294  36.654  40.070   2.309
47766W        W19295  14.562  41.982  13.414
47767W        W19296   0.208   6.959  11.101
47768W        W19297  37.439  17.031  14.411
47769W        W19298  30.565   5.266  13.723
47770W        W19299  40.765  33.638   4.594
47771W        W19300  37.089  17.607  13.048
47772W        W19301  16.017  29.482  12.008
47773W        W19302   8.939  42.942  14.072
47774W        W19303  18.988   2.413  10.664
47775W        W19304  40.521   4.953   0.744
47776W        W19305  40.479  18.646   0.834
47777W        W19306   8.085  13.176  14.730
47778W        W19307  44.021  33.538   2.701
47779W        W19308  43.367  30.084  12.115
47780W        W19309  29.649   0.139   0.408
47781W        W19310  43.078   1.750  12.548
47782W        W19311  33.503   1.943  11.624
47783W        W19312  36.596  32.266   4.025
47784W        W19313  37.851  31.597   4.837
47785W        W19314  16.702  41.068   4.597
47786W        W19315  13.827  21.993   1.420
47787W        W19316  39.815  35.856   1.262
47788W        W19317  19.654  38.123   1.215
47789W        W19318  10.034  18.734   1.528
47790W        W19319  10.817  27.957  14.862
47791W        W19320   8.535  20.279   0.926
47792W        W19321  13.179  11.215  11.220
47793W        W19322  21.521  10.134  12.113
47794W        W19323   4.970  34.551   4.123
47795W        W19324  26.273  20.242  12.512
47796W        W19325   5.830  24.860   0.823
47797W        W19326  23.022  18.853  12.213
47798W        W19327  15.547  39.957   2.713
47799W        W19328  28.343  35.868   3.543
47800W        W19329  22.110  18.077  11.157
47801W        W19330  33.287  36.980  14.553
47802W        W19331  38.438  30.430   1.931
47803W        W19332  38.534  26.598  14.999
47804W        W19333  39.694  36.050   4.116
47805W        W19334  19.644  39.899   0.712
47806W        W19335  13.833  24.599  13.456
47807W        W19336  27.781   2.489  14.799
47808W        W19337  26.991  39.520  14.285
47809W        W19338  25.693  18.598   4.859
47810W        W19339  22.086  24.001   4.543
47811W        W19340  36.817  39.509   3.274
47812W        W19341  44.416  19.474   3.800
47813W        W19342   0.824   2.385  12.053
47814W        W19343  20.078  38.597  10.516
47815W        W19344  39.401  18.579   4.687
47816W        W19345  26.723  16.828   0.952
47817W        W19346  26.091  37.467  14.041
47818W        W19347  42.414  14.640   1.986
47819W        W19348  44.248  38.944   1.173
47820W        W19349   3.750  19.730   2.651
47821W        W19350  15.647  13.743  13.191
47822W        W19351   2.883  13.826   0.438
47823W        W19352  24.120  21.793  13.135
47824W        W19353   0.450  31.624   0.348
47825W        W19354  40.315  42.968   3.380
47826W        W19355  17.325  26.574   1.497
47827W        W19356  15.825  14.424   0.831
47828W        W19357  32.134  12.203   4.617
47829W        W19358  26.893   7.894   0.449
47830W        W19359  10.235  18.735   5.085
47831W        W19360   1.704  39.538  13.935
47832W        W19361  32.457  35.149   3.561
47833W        W19362   8.730  16.291  13.733
47834W        W19363  32.094  43.980  13.485
47835W        W19364   1.750  21.155   0.637
47836W        W19365  37.752  17.345  13.881
47837W        W19366  35.385   1.573   4.128
47838W        W19367  16.800  41.178   3.166
47839W        W19368  31.680  29.035  13.405
47840W        W19369  36.063  18.301  13.220
47841W        W19370  36.387  21.235   5.026
47842W        W19371  42.375  42.591   4.171
47843W        W19372  25.983   3.909  13.414
47844W        W19373   5.171  43.319   3.666
47845W        W19374  33.974   8.812   2.195
47846W        W19375  23.526  13.329  14.219
47847W        W19376  37.626  41.301   0.804
47848W        W19377  21.380  11.891   1.768
47849W        W19378  41.016  24.581   4.758
47850W        W19379   5.945   0.464  11.119
47851W        W19380  17.995  12.408   2.826
47852W        W19381  29.591  12.175   0.863
47853W        W19382  15.774  29.586   3.852
47854W        W19383  12.788  16.176   2.693
47855W        W19384  26.124  43.426   4.580
47856W        W19385  43.790  13.339   4.263
47857W        W19386  18.377   5.379  12.468
47858W        W19387  24.125  36.385   1.527
47859W        W19388  32.083  23.005  11.673
47860W        W19389  21.345  36.506   0.356
47861W        W19390   7.920  36.640   2.818
47862W        W19391   5.690  22.007  14.806
47863W        W19392   6.926  44.469   2.228
47864W        W19393  34.826  40.164  11.129
47865W        W19394  40.780  42.099  12.003
47866W        W19395  21.017   2.066  13.601
47867W        W19396  16.608  24.199  13.306
47868W        W19397  41.474  36.826  12.501
47869W        W19398   4.100  20.555   1.260
47870W        W19399  34.590   0.538   2.124
47871W        W19400  25.831  31.375  12.967
47872W        W19401  42.785   1.940   1.043
47873W        W19402  31.741  20.810   1.779
47874W        W19403  28.895   1.293  10.502
47875W        W19404  12.965  12.759   3.337
47876W        W19405  10.582  12.171   4.110
47877W        W19406  37.970  44.039  11.583
47878W        W19407  23.619  32.831   0.871
47879W        W19408  27.104   2.336  10.753
47880W        W19409  35.136  18.702  13.125
47881W        W19410   0.511  34.847   4.138
47882W        W19411   5.487  41.026  11.511
47883W        W19412  40.262  15.151   4.123
47884W        W19413  13.741  35.445  10.754
47885W        W19414  13.764  23.231   4.514
47886W        W19415   5.759  20.158   0.391
47887W        W19416  33.117   6.487  10.726
47888W        W19417  12.684  24.896  14.808
47889W        W19418  29.778  42.865   5.030
47890W        W19419   0.491  44.302   2.364
47891W        W19420  27.520  27.336   0.750
47892W        W19421  22.455   4.276   2.387
47893W        W19422  12.879  20.999   3.831
47894W        W19423  41.129   6.041  12.112
47895W        W19424  36.859   0.531  14.864
47896W        W19425   7.908  20.643   1.607
47897W        W19426  34.906  15.946   3.406
47898W        W19427  25.366  22.748  11.122
47899W        W19428   5.441  33.650  12.391
47900W        W19429   2.527  38.073  14.890
47901W        W19430  15.649  41.778   2.218
47902W        W19431  30.489  30.455   2.880
47903W        W19432  38.421  32.704   2.701
47904W        W19433  17.524  10.775  10.262
47905W        W19434  24.685  10.181  13.968
47906W        W19435   7.131   3.133  12.606
47907W        W19436  27.483   3.914  12.122
47908W        W19437  41.030   5.965   2.782
47909W        W19438  38.793  24.979  13.905
47910W        W19439  19.315  15.684  13.420
47911W        W19440   6.682  25.493  10.961
47912W        W19441  28.417  11.799   4.036
47913W        W19442  43.234  38.011   2.366
47914W        W19443  40.776   0.051   1.093
47915W        W19444  37.643  33.549  14.204
47916W        W19445  33.873  44.837  10.631
47917W        W19446  26.496  15.106   0.882
47918W        W19447  42.520   6.675   4.214
47919W        W19448  33.893  32.439  12.448
47920W        W19449  22.621  34.867   4.233
47921W        W19450  36.288   7.931  13.527
47922W        W19451  26.107  42.501   2.221
47923W        W19452  42.250  11.908  11.093
47924W        W19453  32.145  36.349   4.526
47925W        W19454  18.441  24.871  11.857
47926W        W19455   6.707  37.917   1.718
47927W        W19456  20.570  24.129   0.278
47928W        W19457  35.606  39.493  13.118
47929W        W19458   1.583  33.190   1.725
47930W        W19459  43.785  42.327   3.896
47931W        W19460  39.182  38.901  10.359
47932W        W19461  19.723  12.148  13.153
47933W        W19462  34.811  35.631  12.312
47934W        W19463   7.314  37.578  13.998
47935W        W19464   1.453   5.707  14.975
47936W        W19465   0.964  10.680   0.708
47937W        W19466  11.750   4.934  14.826
47938W        W19467  36.060   5.753  14.456
47939W        W19468   7.754  40.024   1.926
47940W        W19469  38.786  21.465   2.175
47941W        W19470  16.793  15.266  11.092
47942W        W19471  15.406  42.006  14.700
47943W        W19472   7.748  15.814  11.945
47944W        W19473  15.027  28.608  14.400
47945W        W19474  17.389  30.967   4.594
47946W        W19475  11.872  27.136   2.168
47947W        W19476  25.106  20.768   4.609
47948W        W19477  20.197  34.856   0.925
47949W        W19478  42.724  42.971   0.346
47950W        W19479  42.559  42.472   1.781
47951W        W19480  20.690  22.476   0.500
47952W        W19481  37.653   0.985   0.723
47953W        W19482  25.977  17.831  11.607
47954W        W19483  27.933  25.490  11.209
47955W        W19484  39.122  32.305  14.886
47956W        W19485  32.443  42.999   3.182
47957W        W19486   8.074   8.184  11.019
47958W        W19487  14.227  35.853  14.276
47959W        W19488   0.026  11.794  14.383
47960W        W19489  28.413   2.475  13.836
47961W        W19490  17.115   2.875  14.714
47962W        W19491   8.876  37.137  14.872
47963W        W19492  33.014   5.500   0.791
47964W        W19493  42.830   3.416   4.216
47965W        W19494  12.437   3.740   0.507
47966W        W19495   7.849  29.473  11.117
47967W        W19496  26.375  44.398  10.985
47968W        W19497  13.657  25.487   0.087
47969W        W19498  32.637   4.708  12.786
47970W        W19499   9.359  32.990  12.792
47971W        W19500  11.924  16.219   4.908
47972W        W19501   8.788  29.319   4.900
47973W        W19502  20.340  37.922   1.553
47974W        W19503   6.250   5.613   3.202
47975W        W19504  27.488   6.784  14.689
47976W        W19505   0.856   4.877   3.214
47977W        W19506  14.657   3.874  14.052
47978W        W19507   0.532  34.381  13.718
47979W        W19508  12.423  31.067   4.122
47980W        W19509  35.432  42.424   0.406
47981W        W19510   9.930  15.873   3.794
47982W        W19511   4.743  23.534   1.695
47983W        W19512  35.805  44.170  13.380
47984W        W19513  19.569   9.230  13.445
47985W        W19514  34.551   1.721  13.354
47986W        W19515  30.095  43.449  10.803
47987W        W19516  11.354  10.633  14.402
47988W        W19517   5.941  39.648  11.543
47989W        W19518   0.527  41.781   2.932
47990W        W19519   8.288  21.001   4.029
47991W        W19520  22.689  43.011   0.002
47992W        W19521   0.886  39.517   1.955
47993W        W19522  31.474  38.233   1.006
47994W        W19523  19.941   8.632   2.901
47995W        W19524   8.395  10.664   1.298
47996W        W19525  20.220   5.527  14.474
47997W        W19526  25.068  31.974   1.646
47998W        W19527  43.877   8.469  13.367
47999W        W19528   9.639  30.336   1.188
48000W        W19529  23.438  33.031  11.587
48001W        W19530  40.860   8.925  13.483
48002W        W19531  40.845  36.858  12.815
48003W        W19532  24.299   5.394  11.758
48004W        W19533  18.101   0.395  12.107
48005W        W19534  44.718  12.373   3.931
48006W        W19535  19.449  16.485   2.153
48007W        W19536  30.141  22.338   2.285
48008W        W19537  14.820  11.792  13.078
48009W        W19538  24.526  17.697  13.407
48010W        W19539  22.072  25.366   0.278
48011W        W19540  41.875  15.184  10.905
48012W        W19541   2.225  30.067  11.103
48013W        W19542  35.483  17.023  12.561
48014W        W19543  27.010  32.349   3.765
48015W        W19544  22.768  40.965  10.324
48016W        W19545  35.519   7.339  13.219
48017W        W19546  27.545   7.400   0.313
48018W        W19547  21.826  36.469  14.445
48019W        W19548  11.605  32.664  11.117
48020W        W19549   8.489  26.105  12.148
48021W        W19550  16.855  24.176  12.840
48022W        W19551  31.289   1.898  14.445
48023W        W19552  25.477  40.905   3.662
48024W        W19553  22.735  30.200  14.440
48025W        W19554  12.606   8.309   4.289
48026W        W19555  30.753  17.743   3.639
48027W        W19556  13.692   1.363  10.478
48028W        W19557  30.699  13.368   0.244
48029W        W19558  12.072   8.399  14.049
48030W        W19559  23.339  25.643  12.425
48031W        W19560  22.842   6.641  14.720
48032W        W19561  40.283   0.701  12.787
48033W        W19562  16.164   0.271   0.157
48034W        W19563  20.455  34.217   0.245
48035W        W19564   2.439  33.903   2.298
48036W        W19565  15.178  18.816   3.545
48037W        W19566  25.132  26.121  14.820
48038W        W19567  27.566  10.002  12.999
48039W        W19568  21.974  37.541  10.291
48040W        W19569  28.092  28.328   3.168
48041W        W19570   2.754  39.841   0.176
48042W        W19571  35.467  16.245   1.261
48043W        W19572   9.418  42.470  13.295
48044W        W19573  11.083  35.537  10.985
48045W        W19574  25.826  17.822   0.768
48046W        W19575  24.722  39.899  11.266
48047W        W19576   6.215  27.077   2.203
48048W        W19577  10.228  27.494  10.811
48049W        W19578  40.904  16.377   3.335
48050W        W19579  21.081  11.198   0.717
48051W        W19580   4.735  43.366   0.284
48052W        W19581  36.589  41.901   2.330
48053W        W19582   5.637  18.749   3.980
48054W        W19583  15.561  41.483   4.656
48055W        W19584   4.371  22.235   2.208
48056W        W19585   8.462  37.622  11.188
48057W        W19586  24.791  16.111  12.920
48058W        W19587  11.618  10.637   3.311
48059W        W19588   2.704  38.655  13.876
48060W        W19589  29.971  31.687  14.536
48061W        W19590  11.864  23.827   3.216
48062W        W19591  15.590   4.909   1.423
48063W        W19592   0.975  43.266  13.008
48064W        W19593  37.033  29.174   2.530
48065W        W19594  42.756   5.969  13.035
48066W        W19595  12.261  15.903  11.450
48067W        W19596  18.633  32.965  12.488
48068W        W19597   2.352   2.284   1.514
48069W        W19598   3.185  17.365  11.238
48070W        W19599  19.269  16.634   4.392
48071W        W19600   5.307  38.963  11.624
48072W        W19601  15.761  25.054   0.079
48073W        W19602  36.363  44.363   2.411
48074W        W19603  14.746  26.552  14.385
48075W        W19604  42.194   7.219   0.586
48076W        W19605  12.714   5.259  10.710
48077W        W19606  41.924  19.230  11.173
48078W        W19607  28.655   2.954  13.834
48079W        W19608   0.705  41.528   0.737
48080W        W19609  18.303  19.408  10.135
48081W        W19610  33.931  40.586  12.915
48082W        W19611  40.886  30.101   1.656
48083W        W19612  20.375  42.439  11.371
48084W        W19613  28.388  37.567  14.309
48085W        W19614  32.609   4.859  14.830
48086W        W19615   0.798  13.369   1.136
48087W        W19616   8.795  31.456  14.161
48088W        W19617  44.303  39.324  13.943
48089W        W19618   7.856  18.345  13.368
48090W        W19619  14.993  30.093   2.441
48091W        W19620  42.331  39.969  11.869
48092W        W19621   0.045  32.122   1.271
48093W        W19622  23.131  38.522  11.118
48094W        W19623  15.285   7.288  13.329
48095W        W19624   1.802  21.191  13.093
48096W        W19625  28.613  42.569  13.753
48097W        W19626  35.353  20.813  12.859
48098W        W19627  23.002  27.656  11.517
48099W        W19628  36.261  26.710   3.182
48100W        W19629  39.466  10.585  13.013
48101W        W19630   3.966  19.256   9.760
48102W        W19631   5.402  37.884   4.507
48103W        W19632   9.185  41.840   4.414
48104W        W19633  41.074  29.767  11.079
48105W        W19634  21.674  40.740  12.539
48106W        W19635   7.181  10.488  10.695
48107W        W19636   2.421  19.259   2.820
48108W        W19637  27.405  27.800  11.918
48109W        W19638  39.765  14.278   3.716
48110W        W19639   8.579  10.093  12.877
48111W        W19640  38.514   3.470   0.771
48112W        W19641  33.028  15.236   4.651
48113W        W19642  25.833  37.354  14.916
48114W        W19643  35.507  22.255   2.309
48115W        W19644  23.961  25.939   3.253
48116W        W19645  15.310  21.667  14.455
48117W        W19646  12.581   8.809   0.573
48118W        W19647  23.638   3.030   0.213
48119W        W19648  41.944  38.933   3.756
48120W        W19649  33.129   1.732  10.938
48121W        W19650   3.737   5.932  12.237
48122W        W19651   9.178  41.283  14.468
48123W        W19652  12.279  38.448  14.477
48124W        W19653  28.090   1.468   2.866
48125W        W19654  29.376  24.158   3.364
48126W        W19655  15.788   2.270   3.277
48127W        W19656  18.806  22.237  10.169
48128W        W19657   3.959  10.807   3.751
48129W        W19658  27.233  17.858   1.891
48130W        W19659  20.713  44.141  11.441
48131W        W19660  29.463  29.678   3.343
48132W        W19661  21.263  29.549  11.198
48133W        W19662  11.691  32.014   3.057
48134W        W19663  37.534  24.608  11.031
48135W        W19664  32.661  34.037   1.300
48136W        W19665  10.225  15.388   1.818
48137W        W19666  41.234  43.057   1.781
48138W        W19667   7.890  22.352  10.883
48139W        W19668  16.057  17.290   2.755
48140W        W19669  17.347  18.069  10.465
48141W        W19670  40.836  41.311  11.515
48142W        W19671   8.815  35.820   3.320
48143W        W19672   2.981  24.540   2.325
48144W        W19673  27.417  11.368   3.549
48145W        W19674  15.287   5.403   4.409
48146W        W19675  13.997  23.905   1.783
48147W        W19676  37.784   6.079   0.285
48148W        W19677  42.437  11.840  14.736
48149W        W19678  42.032  32.186   2.050
48150W        W19679  20.943  22.295   2.648
48151W        W19680  25.011  30.128   0.226
48152W        W19681   8.118  18.728   1.394
48153W        W19682  33.132  32.504  11.168
48154W        W19683  21.133  20.532   2.398
48155W        W19684  37.995  23.451  11.425
48156W        W19685  38.216  32.090   1.729
48157W        W19686   2.220  17.090  14.358
48158W        W19687  36.431  34.137  12.958
48159W        W19688   9.086  38.961   1.496
48160W        W19689  42.585  33.947   3.889
48161W        W19690  28.212  19.972   2.792
48162W        W19691  22.618  20.652   4.257
48163W        W19692  37.440  43.906  10.701
48164W        W19693  16.806  14.298   2.483
48165W        W19694  41.975   4.810   3.162
48166W        W19695   0.707  21.624  12.192
48167W        W19696  27.581   5.385   3.896
48168W        W19697   0.297   9.743   2.911
48169W        W19698  34.895   6.790  11.502
48170W        W19699  29.959  13.142   4.105
48171W        W19700  43.433  23.445   3.978
48172W        W19701  38.815   7.147  14.382
48173W        W19702  34.510  40.562  12.588
48174W        W19703  42.421  21.035  12.849
48175W        W19704  38.622  15.808   3.130
48176W        W19705   6.108   5.126   1.820
48177W        W19706   3.265  14.572   3.711
48178W        W19707  28.726  44.352  10.790
48179W        W19708  40.383  37.584   3.608
48180W        W19709   5.341   5.718  14.536
48181W        W19710   7.855   0.336   4.294
48182W        W19711  12.534  37.866  13.055
48183W        W19712  24.598  29.302   1.338
48184W        W19713  31.148   1.905  10.791
48185W        W19714   6.701   6.594  12.530
48186W        W19715  11.674  14.265  14.037
48187W        W19716  26.940   7.861  14.297
48188W        W19717  10.447  15.169  13.107
48189W        W19718  22.589  17.576  12.031
48190W        W19719  22.519  31.187   3.340
48191W        W19720  27.424  22.612  12.160
48192W        W19721  34.567  13.030  14.462
48193W        W19722  30.604  16.005  14.974
48194W        W19723  41.038  31.908   2.736
48195W        W19724  14.575  14.341   1.102
48196W        W19725  18.584  15.060  13.975
48197W        W19726   0.649  35.369   3.311
48198W        W19727  13.243  43.595   0.761
48199W        W19728   4.632  16.544   1.769
48200W        W19729  21.403  22.673   5.274
48201W        W19730   2.786  15.345   0.990
48202W        W19731  10.294   2.225  11.464
48203W        W19732  32.387  22.738   3.351
48204W        W19733  17.730  12.742  10.967
48205W        W19734  33.863  15.044   0.162
48206W        W19735  22.685  41.782  14.364
48207W        W19736  34.063   8.337   0.412
48208W        W19737  40.824  27.608  12.454
48209W        W19738  25.059  23.168  12.824
48210W        W19739  44.040  34.198   0.495
48211W        W19740  18.545  26.573  11.499
48212W        W19741   0.706   5.429   1.257
48213W        W19742  19.568  25.375   3.884
48214W        W19743  18.324  42.465   2.187
48215W        W19744  22.146  41.638  13.489
48216W        W19745  24.501  26.637   2.762
48217W        W19746  42.236  20.600   2.243
48218W        W19747  10.626  30.857  11.594
48219W        W19748  20.775  33.452   2.043
48220W        W19749   3.494  28.643   0.502
48221W        W19750  27.518  12.819  13.772
48222W        W19751   8.303  11.133  14.574
48223W        W19752  22.458  32.683   1.863
48224W        W19753   6.019  34.620   3.702
48225W        W19754   8.238  41.268   3.579
48226W        W19755  43.961   8.890   3.449
48227W        W19756  43.942   5.219   0.822
48228W        W19757  30.573   3.179  12.008
48229W        W19758  18.558  38.710   0.455
48230W        W19759   7.049  36.028   0.038
48231W        W19760  19.801   9.498  11.503
48232W        W19761  41.003  32.853   1.748
48233W        W19762  30.553  12.681   0.289
48234W        W19763  17.602  24.511  10.604
48235W        W19764  40.446  31.075  13.297
48236W        W19765   1.803  43.804  14.955
48237W        W19766  33.346  27.796  12.573
48238W        W19767  22.715  43.858  12.144
48239W        W19768   0.992  10.713  14.030
48240W        W19769  37.256  24.972   0.757
48241W        W19770  33.991   5.364  14.331
48242W        W19771  14.106  23.657   2.230
48243W        W19772  30.204   8.030  13.132
48244W        W19773  24.792  24.314  14.843
48245W        W19774  43.883  22.478   2.170
48246W        W19775  21.196   1.306   1.861
48247W        W19776  28.507  17.569   2.278
48248W        W19777  21.597  41.507  11.203
48249W        W19778  40.540  41.489  10.564
48250W        W19779  12.203   7.051   4.677
48251W        W19780  16.220  12.109   4.559
48252W        W19781  14.307  18.676   2.234
48253W        W19782  36.814  25.845  13.945
48254W        W19783  13.693  36.004  13.409
48255W        W19784  31.101  38.980   3.746
48256W        W19785  10.637  30.219   0.302
48257W        W19786  33.561  36.985  14.992
48258W        W19787  36.645  37.109  13.395
48259W        W19788  18.305  17.059  12.842
48260W        W19789  12.895  36.919  12.817
48261W        W19790  13.106  32.812   1.994
48262W        W19791   0.727  16.543  12.700
48263W        W19792  42.391  39.869   1.829
48264W        W19793   7.070  36.631   0.814
48265W        W19794  39.433  23.312   4.379
48266W        W19795   1.255   8.316  10.673
48267W        W19796   6.655  18.809   1.364
48268W        W19797  33.485  26.190   0.415
48269W        W19798  42.766   0.812   4.268
48270W        W19799  18.089  43.816   2.812
48271W        W19800  14.061  41.780   1.796
48272W        W19801  30.480  29.588  10.772
48273W        W19802   4.194  36.486  11.997
48274W        W19803  17.951   7.420  10.680
48275W        W19804  17.239  36.343   3.910
48276W        W19805  29.105  41.093  12.270
48277W        W19806  30.617  16.733  13.845
48278W        W19807  36.720  41.401   3.321
48279W        W19808  36.554  38.764   5.089
48280W        W19809  16.839   5.178   2.743
48281W        W19810   8.684  26.537  12.377
48282W        W19811  35.042  39.334   1.387
48283W        W19812  10.728   5.205  13.509
48284W        W19813  21.475  15.585  11.939
48285W        W19814  11.380   6.279  10.384
48286W        W19815  10.142   7.603   2.048
48287W        W19816   5.731   3.161   2.671
48288W        W19817  13.298  17.717   3.032
48289W        W19818  37.517  23.513  14.138
48290W        W19819   5.394  10.551  13.042
48291W        W19820  34.004   5.915   4.781
48292W        W19821   0.995   1.429  11.968
48293W        W19822  22.832  24.325  10.736
48294W        W19823  32.276  18.682   2.768
48295W        W19824   4.147  32.684  14.028
48296W        W19825  32.004   7.484   2.868
48297W        W19826  33.071  17.155  11.357
48298W        W19827   3.760  14.165   5.178
48299W        W19828  39.929  25.483  10.759
48300W        W19829  39.295  21.002   1.454
48301W        W19830  11.383  25.602  13.136
48302W        W19831  19.022  25.968   0.874
48303W        W19832  23.091   8.339   0.487
48304W        W19833  42.032   6.859   4.119
48305W        W19834  39.596  19.054   2.180
48306W        W19835   6.711  29.076   1.677
48307W        W19836  24.313   8.912   0.736
48308W        W19837  34.341  23.310   1.834
48309W        W19838  24.855   7.903  13.837
48310W        W19839  36.793  14.754   0.276
48311W        W19840  26.358   6.094  11.422
48312W        W19841   2.949  25.662   1.807
48313W        W19842   3.144  21.814   3.687
48314W        W19843  20.530  21.833   3.664
48315W        W19844  22.508  15.800   3.203
48316W        W19845  14.276  41.955   4.069
48317W        W19846   9.926  33.022   1.950
48318W        W19847   5.955  10.236  13.393
48319W        W19848   9.798  11.182   1.486
48320W        W19849  13.190  37.153   2.742
48321W        W19850  11.921  22.999   4.638
48322W        W19851  43.447  11.265   4.739
48323W        W19852  44.523  30.756   1.336
48324W        W19853  18.744   7.980   3.152
48325W        W19854  38.931   6.692   1.332
48326W        W19855  12.258   2.812   4.356
48327W        W19856  40.997  26.614   0.695
48328W        W19857  12.605  29.738  14.353
48329W        W19858  21.876  40.400  13.266
48330W        W19859  19.498  43.968   2.837
48331W        W19860  16.056  25.551  13.803
48332W        W19861   8.427   5.312   0.464
48333W        W19862  17.263  25.171  12.524
48334W        W19863   2.021   8.749  14.830
48335W        W19864  32.862  26.571   0.979
48336W        W19865   1.493   5.256   2.669
48337W        W19866  13.116  20.730  12.488
48338W        W19867   6.848  34.325   2.240
48339W        W19868   6.195   6.149   0.416
48340W        W19869   2.722  29.527  13.228
48341W        W19870  43.003   4.437  13.922
48342W        W19871   1.949  35.661  14.338
48343W        W19872  16.759   4.673  13.902
48344W        W19873  27.700  41.202   4.857
48345W        W19874  19.178   1.885  12.025
48346W        W19875  30.585  28.080   0.707
48347W        W19876  14.594  25.220  12.201
48348W        W19877  20.673   8.450  11.482
48349W        W19878  21.432  37.919  10.315
48350W        W19879  12.460   4.501  10.304
48351W        W19880   8.771  11.889  14.530
48352W        W19881  18.678   7.786  11.663
48353W        W19882  15.373  40.953   3.528
48354W        W19883  21.839  25.086   3.389
48355W        W19884   9.615  31.923   5.074
48356W        W19885  13.073  32.840  11.635
48357W        W19886  14.471   5.351  11.329
48358W        W19887  12.269   3.921  12.401
48359W        W19888  27.038   7.911   2.349
48360W        W19889  19.087   8.203   0.921
48361W        W19890  14.703   5.940  13.701
48362W        W19891  14.677  32.400  10.325
48363W        W19892  34.909   8.918   3.645
48364W        W19893  27.023  19.096   3.343
48365W        W19894  13.731   9.146  14.366
48366W        W19895   1.068  31.502  12.087
48367W        W19896  41.069  41.033  13.634
48368W        W19897  38.334  30.456  10.359
48369W        W19898  40.624  18.243  12.497
48370W        W19899  17.258   5.640  14.813
48371W        W19900  42.866  40.319  10.578
48372W        W19901  39.220  25.402   3.170
48373W        W19902  44.358  15.180  12.463
48374W        W19903   6.603  40.494  12.128
48375W        W19904   4.405  11.877   3.199
48376W        W19905  40.614   3.192  11.165
48377W        W19906  23.490   7.155   0.827
48378W        W19907  36.009  33.167  13.968
48379W        W19908  13.069  32.461  11.970
48380W        W19909  11.798   4.113   2.875
48381W        W19910   2.261   4.445   2.497
48382W        W19911  28.360  16.046  14.169
48383W        W19912  26.688   8.884   2.409
48384W        W19913  12.187  26.971   1.751
48385W        W19914  20.977  38.861  13.445
48386W        W19915  37.821  34.815   1.482
48387W        W19916  41.001  23.630   1.694
48388W        W19917  30.184   4.407   0.193
48389W        W19918  11.923  21.703  14.736
48390W        W19919   2.735   4.327   2.668
48391W        W19920  34.999  43.227  14.237
48392W        W19921  36.929  44.074   0.344
48393W        W19922  32.084  10.392  14.229
48394W        W19923  41.455  30.635  12.584
48395W        W19924  15.385   5.612  10.961
48396W        W19925   8.578  21.129  12.890
48397W        W19926  29.763   9.300   3.677
48398W        W19927  34.434  27.616   0.456
48399W        W19928  13.160   4.829  14.474
48400W        W19929   2.538  41.281  13.757
48401W        W19930  38.011  38.614   3.489
48402W        W19931   8.804   6.170   0.818
48403W        W19932   4.915  19.928  11.136
48404W        W19933  30.901   7.802  10.489
48405W        W19934  10.890  43.532  12.499
48406W        W19935  43.060  33.879  12.842
48407W        W19936   0.770  19.437  10.016
48408W        W19937  18.565  31.980   4.983
48409W        W19938  38.205  17.538   2.411
48410W        W19939  34.783  29.555   2.345
48411W        W19940  13.743  39.083  11.139
48412W        W19941  29.516   7.679  14.209
48413W        W19942  17.602  32.954  12.310
48414W        W19943  21.943  18.543   2.282
48415W        W19944  40.585  24.003  10.737
48416W        W19945  10.609  41.587   2.656
48417W        W19946  43.293   0.713  12.433
48418W        W19947  32.561  34.960  13.433
48419W        W19948  23.563  29.672   0.290
48420W        W19949   3.792  29.935  14.498
48421W        W19950   1.824  21.079   3.801
48422W        W19951  43.467  13.935   3.070
48423W        W19952  40.442   6.809  13.572
48424W        W19953  15.329  39.784   1.970
48425W        W19954  21.024  18.736  11.468
48426W        W19955  23.394  27.408   3.251
48427W        W19956  32.523  43.170   4.812
48428W        W19957   3.707  25.714   0.394
48429W        W19958  41.580   8.349   4.063
48430W        W19959  20.587  34.880  12.027
48431W        W19960  42.423  17.390  13.389
48432W        W19961  29.310  35.467  12.062
48433W        W19962   3.154  34.474  10.524
48434W        W19963  44.130  31.621  11.654
48435W        W19964  30.620  28.114  13.317
48436W        W19965   0.467  33.490   1.194
48437W        W19966  36.526   9.385   0.042
48438W        W19967  14.737  15.623   0.041
48439W        W19968   9.776  23.858   1.267
48440W        W19969  17.122  17.219  13.004
48441W        W19970  32.680  21.702  13.816
48442W        W19971  30.857  31.039  11.632
48443W        W19972  37.753  43.220  11.936
48444W        W19973   5.277  36.753   0.456
48445W        W19974  25.133  14.957  14.307
48446W        W19975   2.410   2.302   4.229
48447W        W19976  10.882  43.398   1.987
48448W        W19977  15.701  15.325   0.794
48449W        W19978  21.511   1.576  12.915
48450W        W19979   9.805   1.763   1.728
48451W        W19980  16.766  22.230   2.882
48452W        W19981  33.888  26.646  11.872
48453W        W19982  37.879   9.198  12.277
48454W        W19983  32.411  33.261   1.238
48455W        W19984  38.989  19.161  12.537
48456W        W19985  13.570   6.469  13.385
48457W        W19986  21.533  14.854  10.582
48458W        W19987  37.908   2.193  10.564
48459W        W19988  32.365  28.443   4.681
48460W        W19989  12.538  41.871  10.741
48461W        W19990  39.141  26.513  11.976
48462W        W19991  35.400   8.670   4.252
48463W        W19992  35.484  32.174   0.565
48464W        W19993  43.492  10.222   0.778
48465W        W19994  17.951  15.754  11.690
48466W        W19995  10.431  40.168  11.574
48467W        W19996  32.837   9.911   0.865
48468W        W19997  12.134  31.118  12.393
48469W        W19998   8.473   3.283  14.459
48470W        W19999  21.054  18.302   4.280
48471W        W20000  10.373  37.878  11.464
48472W        W20001  35.512   3.695   2.366
48473W        W20002  22.185  11.215  10.712
48474W        W20003  12.842  33.519  11.093
48475W        W20004  15.311  31.029   2.719
48476W        W20005  22.703  35.880   3.783
48477W        W20006   0.322  13.185  13.356
48478W        W20007   7.075  43.154  14.304
48479W        W20008  34.727  18.631  14.407
48480W        W20009   2.397  40.862  13.984
48481W        W20010  42.102   8.829  14.491
48482W        W20011  37.850  11.732   3.160
48483W        W20012  26.333  15.776   4.171
48484W        W20013  23.538  16.225  13.497
48485W        W20014   7.336  19.853   5.212
48486W        W20015  15.587  23.786   3.787
48487W        W20016  26.368   9.554   0.288
48488W        W20017  15.899  30.133  10.363
48489W        W20018  38.300  44.011   2.707
48490W        W20019  21.239  26.661  10.948
48491W        W20020  35.001  20.838   4.077
48492W        W20021  16.879  31.418  13.815
48493W        W20022  38.475  12.829  10.428
48494W        W20023  32.547  30.306  13.886
48495W        W20024  38.555  29.392   1.905
48496W        W20025   5.466  32.945   4.360
48497W        W20026  12.294  12.079  12.507
48498W        W20027  30.316  13.336  11.203
48499W        W20028  41.833  36.052  12.062
48500W        W20029  42.080  19.714   3.313
48501W        W20030  40.051  34.009   3.729
48502W        W20031  10.231  14.727   3.320
48503W        W20032  42.602   6.561  11.416
48504W        W20033  31.666  14.835  11.596
48505W        W20034  39.538   4.360   0.031
48506W        W20035   1.045  21.601  11.286
48507W        W20036  17.609  17.089  14.741
48508W        W20037  30.626   1.211  11.117
48509W        W20038   6.824   2.395   2.204
48510W        W20039  36.262  11.122  11.122
48511W        W20040   2.187  14.193   3.212
48512W        W20041  23.119  21.819  14.514
48513W        W20042  19.586  11.979   0.458
48514W        W20043  12.824  17.307  12.152
48515W        W20044  17.807   0.759   4.185
48516W        W20045   4.757  31.182   2.417
48517W        W20046  38.019  12.266   4.317
48518W        W20047  14.694  37.998   3.292
48519W        W20048   7.138  23.794   3.957
48520W        W20049  37.829  22.088   4.079
48521W        W20050  28.577  21.290  12.108
48522W        W20051   3.079  37.500  14.568
48523W        W20052  42.354   1.374   2.603
48524W        W20053  29.475  29.594  10.647
48525W        W20054  40.401  25.286  13.433
48526W        W20055  40.974  41.722   1.435
48527W        W20056  26.083  21.539  13.336
48528W        W20057   6.882  14.686   1.935
48529W        W20058  37.071  34.413  12.284
48530W        W20059  26.938  19.408   2.905
48531W        W20060   1.656   3.834  12.473
48532W        W20061  13.593  30.991   1.554
48533W        W20062  40.320   4.390   4.226
48534W        W20063  34.814  38.844  14.810
48535W        W20064   5.949   4.241  12.537
48536W        W20065   9.437  19.585   3.497
48537W        W20066  42.613  29.243   3.728
48538W        W20067  24.086   9.802   4.407
48539W        W20068  29.957   2.806   3.297
48540W        W20069   8.687  11.239   4.825
48541W        W20070  40.106   7.324  12.724
48542W        W20071  11.404  31.043  14.984
48543W        W20072  26.616   3.031   4.581
48544W        W20073   8.188  24.038   4.425
48545W        W20074  38.590  36.911   3.786
48546W        W20075  31.512  30.461   2.338
48547W        W20076  30.968   7.053   2.762
48548W        W20077  15.592  24.727   2.884
48549W        W20078  24.931  37.146  13.320
48550W        W20079  20.497  34.198   3.394
48551W        W20080  12.623   4.244  12.198
48552W        W20081   9.819  35.957   3.569
48553W        W20082   6.139   5.931  13.482
48554W        W20083  14.659  32.477   1.228
48555W        W20084  43.094  23.161  11.090
48556W        W20085  42.932  40.293   2.654
48557W        W20086   9.985  42.370   4.822
48558W        W20087  42.915   0.492   4.651
48559W        W20088  28.662   1.465   0.742
48560W        W20089  16.851  35.191  12.000
48561W        W20090  23.047   5.301   3.516
48562W        W20091  35.824   2.842  11.582
48563W        W20092  25.246  11.194  12.589
48564W        W20093   8.487  12.330  13.872
48565W        W20094   0.281  12.763   4.621
48566W        W20095  38.086  33.025  12.483
48567W        W20096   7.444  14.194   4.044
48568W        W20097  14.187  25.628   2.241
48569W        W20098   5.335  20.571  11.549
48570W        W20099   5.196  37.147  12.403
48571W        W20100  17.399  38.508  13.365
48572W        W20101   4.187  11.780   1.336
48573W        W20102  31.421  36.155  11.541
48574W        W20103   5.957  20.589  14.342
48575W        W20104  22.946  37.911  10.556
48576W        W20105  12.682  44.880   1.646
48577W        W20106  23.925  25.104   1.290
48578W        W20107  25.384   8.342  13.890
48579W        W20108  20.676  37.434  10.826
48580W        W20109  24.758   0.287   0.135
48581W        W20110  16.468  10.227  14.943
48582W        W20111  30.397  15.508  11.021
48583W        W20112  37.389  41.292  10.552
48584W        W20113  23.364  38.313   0.554
48585W        W20114  19.368  21.844  14.373
48586W        W20115  20.201  12.744  12.406
48587W        W20116   7.287  24.188   4.599
48588W        W20117  34.378  35.323   3.196
48589W        W20118  26.963   4.490  13.951
48590W        W20119  44.818  24.478   1.245
48591W        W20120   8.696  41.338   2.430
48592W        W20121  38.259  18.263   1.165
48593W        W20122  10.939   0.360   2.408
48594W        W20123   2.999  15.588  13.185
48595W        W20124  23.654  30.989   2.742
48596W        W20125  31.139  41.140  13.310
48597W        W20126  10.827  21.524   3.935
48598W        W20127  10.010  19.498  10.749
48599W        W20128  38.265  40.724   1.240
48600W        W20129  34.939   6.709  12.404
48601W        W20130  43.072  15.712   0.096
48602W        W20131  22.610  13.633   0.363
48603W        W20132   8.567   5.193  12.064
48604W        W20133   1.397  24.235  11.130
48605W        W20134  14.710  32.955  14.521
48606W        W20135  10.198  42.310  11.124
48607W        W20136  34.655  23.066  12.516
48608W        W20137  39.465  15.148   3.265
48609W        W20138  27.623  14.566  14.504
48610W        W20139  18.270  17.183   1.899
48611W        W20140  26.480  44.038  10.218
48612W        W20141  10.072  40.049  12.521
48613W        W20142  25.951  43.535  10.553
48614W        W20143   4.767  30.583   1.613
48615W        W20144  32.894  19.081   1.188
48616W        W20145  17.068  44.909  12.746
48617W        W20146  41.138  27.937   2.409
48618W        W20147  28.464  27.552   1.801
48619W        W20148  11.214  20.668   0.816
48620W        W20149  32.897  32.650  12.398
48621W        W20150  24.222   2.522   1.424
48622W        W20151  15.584  12.828  12.895
48623W        W20152  17.166  17.722  14.448
48624W        W20153  20.769  18.570   3.642
48625W        W20154  26.570   0.566  11.847
48626W        W20155  30.106  21.284  11.513
48627W        W20156  37.913   5.311   0.874
48628W        W20157  32.998   3.118  11.976
48629W        W20158  13.662  14.860   1.379
48630W        W20159  37.439  42.044   3.788
48631W        W20160   4.636  33.941   4.187
48632W        W20161  17.565  29.450   3.683
48633W        W20162  21.952  23.127  14.582
48634W        W20163  10.754  18.009   0.782
48635W        W20164  10.836   0.247  12.179
48636W        W20165  25.382  26.640  13.899
48637W        W20166  13.245  26.066   0.039
48638W        W20167  34.087  15.627  13.961
48639W        W20168  11.306  14.660   4.930
48640W        W20169  28.406  16.580   2.228
48641W        W20170  29.330   9.105   0.973
48642W        W20171  33.756  28.909   1.710
48643W        W20172  13.090  11.804   3.198
48644W        W20173  33.382   8.239   4.538
48645W        W20174  17.569   0.848   2.739
48646W        W20175  42.146  15.214   3.636
48647W        W20176  38.638  21.010   2.964
48648W        W20177   5.208   3.605   4.047
48649W        W20178  34.627  23.059  13.831
48650W        W20179  29.395   8.349  13.393
48651W        W20180   7.039   4.265  14.979
48652W        W20181  28.626  13.153  11.934
48653W        W20182  17.150  31.605   0.800
48654W        W20183   1.482  35.005   1.310
48655W        W20184  11.608  15.829   1.818
48656W        W20185  33.334  13.527   2.783
48657W        W20186   6.084  31.548   2.338
48658W        W20187  36.683  21.728  13.960
48659W        W20188  43.057  34.433   2.948
48660W        W20189  18.984  36.603   0.826
48661W        W20190  35.483  44.376   0.457
48662W        W20191  19.624   0.524  14.353
48663W        W20192  35.156  21.956  11.934
48664W        W20193  30.924  10.187   5.009
48665W        W20194   7.164  25.067  11.619
48666W        W20195   7.716   4.831  12.379
48667W        W20196  22.836  22.646   4.158
48668W        W20197  22.559  42.158   2.332
48669W        W20198  10.215   6.206  12.864
48670W        W20199  23.010  31.226   4.533
48671W        W20200  34.945  15.784  10.326
48672W        W20201   6.127  32.840   1.707
48673W        W20202  14.343  26.456  13.923
48674W        W20203  28.974  26.568  12.610
48675W        W20204  19.936  28.729   0.283
48676W        W20205   8.106  26.282  14.141
48677W        W20206  34.013  17.520   3.391
48678W        W20207  27.251  43.737  12.815
48679W        W20208  15.096  35.610  11.164
48680W        W20209  10.790  39.351   0.591
48681W        W20210  43.287  13.864   1.943
48682W        W20211  10.702  21.833   1.863
48683W        W20212  26.667   8.350  14.978
48684W        W20213  41.495   0.496  12.046
48685W        W20214  10.727  43.357  13.541
48686W        W20215  35.542   3.338  14.144
48687W        W20216  30.107  36.600   1.421
48688W        W20217   5.664   2.460  14.914
48689W        W20218  12.373  30.986  13.704
48690W        W20219  20.278  32.074   0.791
48691W        W20220  12.700  17.938   0.776
48692W        W20221  13.370  20.656  11.984
48693W        W20222  24.520   2.903   1.203
48694W        W20223  16.114  35.461   0.511
48695W        W20224   2.793  22.016  14.873
48696W        W20225  21.687  13.370  12.965
48697W        W20226  14.815   5.813  14.190
48698W        W20227  10.216  39.834   1.898
48699W        W20228  33.716   9.772   3.399
48700W        W20229  14.842  14.049   2.559
48701W        W20230  42.738  44.325  10.823
48702W        W20231  38.083   5.691  11.615
48703W        W20232   3.877   8.103   3.196
48704W        W20233   8.790   0.651   2.707
48705W        W20234  22.906  31.461   1.104
48706W        W20235   1.008  44.734  10.674
48707W        W20236  36.408  25.318   1.510
48708W        W20237  44.259  27.536  13.378
48709W        W20238  35.100  11.175   4.638
48710W        W20239  38.576  35.482  10.941
48711W        W20240  43.689  26.444  11.942
48712W        W20241  18.560  26.652  13.348
48713W        W20242  42.565  16.235   3.350
48714W        W20243  23.112  32.929  13.310
48715W        W20244  43.271  19.288  11.410
48716W        W20245   4.388  18.347  12.302
48717W        W20246   8.307   4.639  13.442
48718W        W20247  25.653   7.638   5.268
48719W        W20248  14.054  14.011   0.445
48720W        W20249  10.137   5.418   0.801
48721W        W20250  32.053  32.463  11.347
48722W        W20251   0.183   7.518   2.802
48723W        W20252  39.974  13.775  11.685
48724W        W20253  35.278  36.941   3.131
48725W        W20254  36.375   2.045   1.271
48726W        W20255  19.181  18.549   1.865
48727W        W20256  26.515  43.680   1.327
48728W        W20257  20.134  22.178   3.717
48729W        W20258   3.896  41.012  12.036
48730W        W20259  36.329  38.330   0.778
48731W        W20260   8.816  33.940  11.519
48732W        W20261   7.234  19.320  12.352
48733W        W20262  39.076  13.243  14.699
48734W        W20263  12.239  10.668  11.053
48735W        W20264  12.114  34.582  14.738
48736W        W20265   4.269  12.429  12.043
48737W        W20266  26.224  37.290   1.805
48738W        W20267  37.589  29.600   0.322
48739W        W20268  27.922  18.275  12.790
48740W        W20269  40.282  42.023  13.868
48741W        W20270  24.792   9.380  14.355
48742W        W20271   2.453  43.555  14.976
48743W        W20272  40.016   0.926  12.050
48744W        W20273  36.151  25.934   0.834
48745W        W20274  14.685  22.523   1.801
48746W        W20275  12.142   5.643  14.381
48747W        W20276  37.914  24.198   4.672
48748W        W20277  10.853  23.568  12.578
48749W        W20278  24.817  11.875   4.398
48750W        W20279  44.915  43.949   4.440
48751W        W20280  29.438   5.714  13.661
48752W        W20281  43.415   8.720   2.320
48753W        W20282  30.552  44.786  14.466
48754W        W20283  31.605   9.595   3.303
48755W        W20284  22.759  36.479   0.714
48756W        W20285   4.241   3.305  14.783
48757W        W20286  11.806   5.425  11.105
48758W        W20287  21.907  18.504  14.076
48759W        W20288   4.097   2.668  10.439
48760W        W20289  23.991  27.520  11.604
48761W        W20290  31.084   4.143  10.904
48762W        W20291  37.343  29.579  12.684
48763W        W20292  44.875  35.539   4.631
48764W        W20293  39.851  26.019   2.159
48765W        W20294  23.729  39.352  11.093
48766W        W20295  17.077  13.593   4.113
48767W        W20296  10.094   6.781   1.675
48768W        W20297  41.937  42.416  13.793
48769W        W20298   7.126  26.695   2.231
48770W        W20299  10.484  22.242  13.564
48771W        W20300  13.589  32.630   4.346
48772W        W20301  11.725  15.016   3.614
48773W        W20302  28.652  43.565  13.876
48774W        W20303  25.565  26.381   2.877
48775W        W20304  43.215  40.323   3.101
48776W        W20305  41.144   5.905  14.375
48777W        W20306  15.068  14.381  11.130
48778W        W20307  42.206  36.104   4.099
48779W        W20308  23.136  41.517  14.374
48780W        W20309  14.680  12.753   1.667
48781W        W20310   8.441  24.100  13.535
48782W        W20311  15.565  11.992   5.271
48783W        W20312   9.709   2.800  10.684
48784W        W20313   3.723   8.585  11.697
48785W        W20314  35.770  19.137  12.437
48786W        W20315  41.128  42.524   4.914
48787W        W20316  29.384   1.163  10.587
48788W        W20317  10.964  27.384   3.614
48789W        W20318   6.836   5.231  11.346
48790W        W20319  29.636  32.300   0.155
48791W        W20320  33.031   7.990  14.981
48792W        W20321  29.300   5.827   0.935
48793W        W20322  26.165  26.205   3.700
48794W        W20323  34.621  13.870  14.163
48795W        W20324   1.533  17.725   3.123
48796W        W20325  17.071   5.994  12.388
48797W        W20326  25.613  14.516   1.024
48798W        W20327  23.607   8.342  11.152
48799W        W20328  26.273  36.040   0.590
48800W        W20329  12.402  11.812  12.061
48801W        W20330   9.281   0.538   4.076
48802W        W20331   8.683  42.967  11.896
48803W        W20332  19.985  42.622  13.464
48804W        W20333   5.791  11.914  13.472
48805W        W20334  11.102   7.158   3.116
48806W        W20335  13.733  38.240   0.881
48807W        W20336   9.369  21.767   2.309
48808W        W20337  42.543  40.865   2.815
48809W        W20338   7.687  43.512   3.153
48810W        W20339  40.587  11.277  13.458
48811W        W20340  43.888  39.237   3.354
48812W        W20341  15.836  35.332  10.927
48813W        W20342   9.973  42.787  13.888
48814W        W20343   8.633   5.754   2.846
48815W        W20344  17.037  41.963   1.845
48816W        W20345  37.362  43.393  10.697
48817W        W20346  20.131  16.471   4.691
48818W        W20347  40.134  20.061   1.351
48819W        W20348  42.366  11.213   4.700
48820W        W20349  13.085  18.358  11.230
48821W        W20350   5.337   8.012   4.773
48822W        W20351  34.945  36.924   4.789
48823W        W20352  17.963  16.892   0.103
48824W        W20353  19.839  27.119   1.426
48825W        W20354  35.938  20.739  11.531
48826W        W20355  32.105   8.168  10.659
48827W        W20356  43.362   1.816   1.668
48828W        W20357  24.743  35.577   1.432
48829W        W20358  27.901   6.026   4.156
48830W        W20359  11.956  36.667  12.502
48831W        W20360  41.362   0.841  10.871
48832W        W20361  13.093  18.552  11.705
48833W        W20362  42.087  28.467  13.001
48834W        W20363  25.273  15.282   4.967
48835W        W20364  20.134  27.233   0.814
48836W        W20365  35.803  13.960   0.904
48837W        W20366  15.693  25.227   0.570
48838W        W20367   9.609  20.076  10.739
48839W        W20368  12.625   5.759  12.141
48840W        W20369  33.974  39.513  10.661
48841W        W20370  35.592  26.980   3.540
48842W        W20371  25.520  12.718   2.222
48843W        W20372   3.971  11.762   0.653
48844W        W20373  29.260  31.607  13.906
48845W        W20374  22.292  36.011   5.000
48846W        W20375  27.147  39.027  10.657
48847W        W20376  28.604   4.767  12.554
48848W        W20377   3.359  14.576  11.107
48849W        W20378   6.036  10.601  11.238
48850W        W20379  20.766   9.603  12.881
48851W        W20380  13.716  34.399  12.546
48852W        W20381  16.849  42.653   2.680
48853W        W20382  42.630  24.029  10.739
48854W        W20383   3.393  38.629  13.098
48855W        W20384  24.011  17.789  14.503
48856W        W20385   4.990  25.915  14.987
48857W        W20386  25.250  31.554  14.425
48858W        W20387   0.877   4.359   3.203
48859W        W20388   7.262  35.671  11.336
48860W        W20389  25.223  21.450  10.651
48861W        W20390  32.697  36.150   1.004
48862W        W20391  21.096  34.219  10.866
48863W        W20392  37.271  26.148  13.892
48864W        W20393  15.643  17.639  10.657
48865W        W20394  11.346   6.233  14.012
48866W        W20395   6.291  21.096   9.970
48867W        W20396  24.064  25.193   1.799
48868W        W20397  34.576  25.604  10.696
48869W        W20398  12.808  17.241  14.457
48870W        W20399  36.397   9.319  13.190
48871W        W20400  13.553  18.693  14.959
48872W        W20401   3.831  21.597  10.622
48873W        W20402  15.882  35.721  11.542
48874W        W20403  42.766   3.481   1.877
48875W        W20404  11.824  38.787  10.521
48876W        W20405  24.616   5.019  10.651
48877W        W20406  30.787  40.006   1.198
48878W        W20407  16.172  21.627   0.413
48879W        W20408  26.047  44.270   0.247
48880W        W20409  23.637  24.633   2.459
48881W        W20410  17.092   8.621  14.046
48882W        W20411  16.701  28.220  12.793
48883W        W20412  21.600  33.465   4.718
48884W        W20413  40.300  32.512   0.743
48885W        W20414  43.728  26.139  11.497
48886W        W20415  17.653  17.597  13.096
48887W        W20416   6.335  18.375  10.725
48888W        W20417  27.509   4.886   3.738
48889W        W20418  39.631  20.060  12.619
48890W        W20419   9.182   0.879   0.778
48891W        W20420  12.674  10.786  13.471
48892W        W20421  29.996   8.569   3.460
48893W        W20422   8.594  30.178  13.033
48894W        W20423  36.719  17.986  13.078
48895W        W20424  34.950  44.416   3.673
48896W        W20425   5.169   5.440  12.672
48897W        W20426  33.908  42.487  10.995
48898W        W20427  43.492   5.494   0.812
48899W        W20428  35.311   1.861  11.567
48900W        W20429  12.846   2.721  11.922
48901W        W20430   7.116  11.446  12.803
48902W        W20431   0.270  31.105   2.785
48903W        W20432  15.757  11.783   1.913
48904W        W20433  21.511  27.051  14.979
48905W        W20434  43.994  32.086   4.206
48906W        W20435  36.303  24.982   1.098
48907W        W20436   8.583   8.134  11.174
48908W        W20437  36.915  34.566   0.675
48909W        W20438   0.153  37.919  11.080
48910W        W20439  33.214  16.761  13.041
48911W        W20440  18.348   3.371   1.840
48912W        W20441  20.936  20.218  11.496
48913W        W20442  16.880  17.129  10.258
48914W        W20443  41.252  37.058   2.327
48915W        W20444   5.354  44.062  13.391
48916W        W20445  27.009  19.579  12.519
48917W        W20446  39.124  26.465  11.127
48918W        W20447  20.926  37.894   4.171
48919W        W20448  16.274  37.885   4.356
48920W        W20449  38.461  31.454  10.578
48921W        W20450   0.699  31.491   4.173
48922W        W20451  14.787   5.017  14.651
48923W        W20452  27.129  30.224  13.999
48924W        W20453  12.827  38.038  10.819
48925W        W20454  25.825  34.393   1.434
48926W        W20455   9.220  16.291  13.536
48927W        W20456  19.097  13.325   0.714
48928W        W20457  15.077   6.290  11.164
48929W        W20458  10.212  37.803   3.826
48930W        W20459   1.752  25.091  13.448
48931W        W20460   0.272  33.519  13.790
48932W        W20461  23.065   8.852   1.272
48933W        W20462  44.792  29.172   1.891
48934W        W20463  11.775  31.864  14.487
48935W        W20464  14.301  44.932  12.385
48936W        W20465  21.161  18.248  12.010
48937W        W20466  16.291  32.052  13.967
48938W        W20467   9.844  40.969  10.627
48939W        W20468  11.712  42.605   1.780
48940W        W20469  36.540  30.329   0.768
48941W        W20470   7.830  26.057  11.036
48942W        W20471  29.914  28.679  14.758
48943W        W20472  43.919  34.276   1.860
48944W        W20473  37.441   2.613  13.523
48945W        W20474   6.138  17.640   0.830
48946W        W20475  15.337   9.763   0.858
48947W        W20476  37.327  16.914  12.566
48948W        W20477   8.714  11.384   2.236
48949W        W20478   6.831  30.504  13.334
48950W        W20479   8.780   5.010   5.076
48951W        W20480  10.707   4.637  12.286
48952W        W20481  24.598  18.373  10.719
48953W        W20482  31.510  22.623   0.879
48954W        W20483  27.726  15.614   3.878
48955W        W20484  33.520   1.953   1.652
48956W        W20485  39.962  42.480  12.552
48957W        W20486  25.117  16.086  11.659
48958W        W20487  33.898   3.667  13.260
48959W        W20488  12.259  30.870   1.349
48960W        W20489  25.956  22.638   3.615
48961W        W20490  14.206  37.758   1.584
48962W        W20491  34.432  10.816  14.011
48963W        W20492  13.630   3.717   3.028
48964W        W20493   0.706  23.600   2.668
48965W        W20494  21.209  27.919   2.483
48966W        W20495   3.632  31.740   4.469
48967W        W20496  41.212  17.082   0.379
48968W        W20497  44.458  15.258   1.062
48969W        W20498  38.473   9.137  12.847
48970W        W20499  14.017   1.774  10.980
48971W        W20500  35.427  41.057   4.153
48972W        W20501  38.079  17.039  11.076
48973W        W20502  13.353  42.715  14.634
48974W        W20503   8.393  32.585   0.663
48975W        W20504  13.042  15.728   2.836
48976W        W20505  35.796   1.085  14.493
48977W        W20506  44.586  33.415  14.395
48978W        W20507   9.126  32.083   1.743
48979W        W20508  20.666  31.090  13.697
48980W        W20509  34.589  33.974  13.292
48981W        W20510  19.741  12.422   4.309
48982W        W20511   4.471  38.328  12.575
48983W        W20512  40.501  21.145  10.732
48984W        W20513   5.264  25.563   1.242
48985W        W20514   4.063  28.561  12.077
48986W        W20515  32.601  25.536  14.895
48987W        W20516   8.572  14.278   2.235
48988W        W20517  33.730  30.975  14.407
48989W        W20518  17.712  21.431  13.397
48990W        W20519  44.232  18.296   0.930
48991W        W20520   5.687  28.451  13.508
48992W        W20521  25.538  13.781  11.547
48993W        W20522  23.021  35.883  12.893
48994W        W20523  26.377  34.677   5.388
48995W        W20524  38.402   6.461   3.612
48996W        W20525  39.540  35.222  11.820
48997W        W20526   7.430   6.343  13.423
48998W        W20527  36.849   0.498   2.870
48999W        W20528   5.987  18.396  14.983
49000W        W20529   3.985  23.140   2.437
49001W        W20530  18.696  36.547  14.897
49002W        W20531  10.322  33.611   1.833
49003W        W20532  22.584  17.551  13.975
49004W        W20533  17.518  21.682   0.241
49005W        W20534  30.459  37.010   1.395
49006W        W20535  35.304   6.869  13.510
49007W        W20536  40.160  13.394   0.757
49008W        W20537   4.467  10.760   3.834
49009W        W20538   0.363   9.000   4.516
49010W        W20539   3.979  21.603  11.498
49011W        W20540  39.717  14.246  12.833
49012W        W20541  10.290  40.988   0.484
49013W        W20542  34.079  17.093  12.203
49014W        W20543  14.110  10.339  10.554
49015W        W20544  26.070   0.448  12.590
49016W        W20545  12.016  36.136  13.445
49017W        W20546  29.939  41.562   2.196
49018W        W20547  34.634  20.227  11.444
49019W        W20548  40.718  41.323  12.338
49020W        W20549  24.281   9.109   2.241
49021W        W20550   6.379  19.786  14.882
49022W        W20551  18.448  34.402  13.924
49023W        W20552  43.798   0.811  12.416
49024W        W20553  12.724  42.495   4.685
49025W        W20554  36.495  39.542   4.321
49026W        W20555  19.995  44.104   1.819
49027W        W20556  22.414  43.394   1.375
49028W        W20557  23.760  16.212  11.099
49029W        W20558   5.971  44.232   3.206
49030W        W20559  39.498   8.883  14.573
49031W        W20560  19.082  31.608  11.361
49032W        W20561  40.527   8.636  12.699
49033W        W20562  32.091  32.125  13.926
49034W        W20563  19.882  27.475  12.601
49035W        W20564  16.257  24.513   1.646
49036W        W20565  26.581  16.339   0.873
49037W        W20566  35.066  24.093  12.274
49038W        W20567  10.889  32.756   1.881
49039W        W20568   4.336   2.794   0.922
49040W        W20569  20.540  25.104  11.183
49041W        W20570   7.180  25.467  11.114
49042W        W20571  36.092  14.286   0.539
49043W        W20572  23.286  40.889  10.368
49044W        W20573  28.389  42.279   1.142
49045W        W20574  35.979   9.555   3.675
49046W        W20575  15.498  31.000   3.328
49047W        W20576  22.667  38.509  14.921
49048W        W20577   9.772  37.959   4.066
49049W        W20578  28.846  38.559  11.413
49050W        W20579   2.242  40.392  13.981
49051W        W20580  10.448   6.880  13.237
49052W        W20581  29.559   8.201  12.595
49053W        W20582  19.557  11.290  14.905
49054W        W20583  23.477   0.709  10.684
49055W        W20584   2.157  10.624   4.233
49056W        W20585  23.735   3.713  14.693
49057W        W20586  22.551  43.271  12.872
49058W        W20587  40.878  31.854   0.994
49059W        W20588   4.807  18.000  13.020
49060W        W20589  33.040  12.639   1.427
49061W        W20590  35.924  39.577  14.157
49062W        W20591  18.680   6.952   3.323
49063W        W20592   8.822  12.836   4.663
49064W        W20593  21.920  17.132  10.619
49065W        W20594  35.874  43.963   3.664
49066W        W20595  38.476  13.587   2.684
49067W        W20596   2.994  10.284  14.138
49068W        W20597  15.715  14.745   3.874
49069W        W20598   2.838  29.205   4.619
49070W        W20599   4.127  16.275  14.912
49071W        W20600   6.280  43.368  13.285
49072W        W20601  25.083   8.790  11.552
49073W        W20602  39.913  33.113  13.861
49074W        W20603  34.843   5.296   3.272
49075W        W20604  28.842   3.156  13.379
49076W        W20605  37.294   3.321  11.990
49077W        W20606  29.265  41.801  14.766
49078W        W20607  17.607  17.179  10.597
49079W        W20608   0.694  36.417   0.527
49080W        W20609  39.223   7.480  12.099
49081W        W20610  13.706   9.924   1.204
49082W        W20611  11.243  10.106   2.640
49083W        W20612   8.893  38.034   3.503
49084W        W20613  21.205  17.629  11.626
49085W        W20614  12.181  11.095   2.680
49086W        W20615  19.382   8.408  11.594
49087W        W20616  25.795   9.454   1.685
49088W        W20617  24.465  44.900   0.383
49089W        W20618   8.383   2.686  13.249
49090W        W20619  40.801  39.875  13.877
49091W        W20620  44.295  43.971  13.554
49092W        W20621   6.802  18.992  14.978
49093W        W20622   7.491  14.159   1.781
49094W        W20623  17.109  19.744  13.097
49095W        W20624  24.679   8.349   3.844
49096W        W20625  33.140   2.332   2.233
49097W        W20626  35.977   1.296   0.326
49098W        W20627  14.523  24.956   2.400
49099W        W20628  11.870  38.446  11.935
49100W        W20629  10.429   3.595   1.870
49101W        W20630  37.673   2.207   0.372
49102W        W20631  22.581  39.777  14.545
49103W        W20632  25.447  36.357  11.700
49104W        W20633  19.783  30.440  13.854
49105W        W20634  11.310  27.382  13.611
49106W        W20635  43.010   6.650  11.703
49107W        W20636  12.721   1.564   0.732
49108W        W20637   9.135   5.331   0.847
49109W        W20638  12.812  39.422   3.142
49110W        W20639  28.705  17.980   4.110
49111W        W20640   8.294  25.114  10.980
49112W        W20641  34.085  24.668  14.318
49113W        W20642   5.999  27.185   3.586
49114W        W20643   6.661  13.777  12.947
49115W        W20644  44.839   7.844   3.642
49116W        W20645   3.485   7.533   2.857
49117W        W20646  30.182  19.021   0.355
49118W        W20647  40.030   0.989   0.918
49119W        W20648  22.076  38.567  12.418
49120W        W20649  34.241  17.420  13.635
49121W        W20650  40.951  10.376   4.545
49122W        W20651  23.007  21.203   2.808
49123W        W20652  18.916   8.246  11.723
49124W        W20653   4.750  38.994  11.659
49125W        W20654   3.403  18.911  13.575
49126W        W20655   0.916  17.852  11.750
49127W        W20656   4.077  22.808   1.639
49128W        W20657   5.245  24.253   2.853
49129W        W20658  37.811   1.975   3.535
49130W        W20659  39.671   6.109  11.851
49131W        W20660   3.823  13.278  12.007
49132W        W20661  37.622  14.135  11.751
49133W        W20662  42.405   5.645   4.273
49134W        W20663   3.667  41.992  13.855
49135W        W20664  20.278   6.369  11.183
49136W        W20665  39.313  42.206   1.290
49137W        W20666  18.004   1.388   0.496
49138W        W20667   9.773  18.111   4.162
49139W        W20668  27.337  32.830   4.143
49140W        W20669  31.717  33.884  11.950
49141W        W20670  32.715  40.978  12.654
49142W        W20671   5.482   1.205   1.502
49143W        W20672  41.312  22.697   4.038
49144W        W20673   8.352   4.213  11.717
49145W        W20674   0.214  29.144   1.594
49146W        W20675  18.672  20.276  13.914
49147W        W20676  32.110  29.183  14.387
49148W        W20677  10.256  13.330   0.493
49149W        W20678   3.891  26.489  13.954
49150W        W20679  11.954  36.963   4.924
49151W        W20680  13.113  19.207   2.333
49152W        W20681  40.456  11.630  10.810
49153W        W20682  31.683  21.019  11.989
49154W        W20683   0.223  15.725   3.189
49155W        W20684  35.270  26.754  10.999
49156W        W20685  13.323  29.573  12.980
49157W        W20686  29.524  35.439   1.436
49158W        W20687  14.399  35.036  13.053
49159W        W20688  25.991   2.342  13.402
49160W        W20689  37.858  21.128  12.908
49161W        W20690  11.092  18.283   4.150
49162W        W20691  14.515  34.497  11.551
49163W        W20692  11.787  15.248   4.068
49164W        W20693  34.432   7.934  13.575
49165W        W20694   5.729  41.725  14.482
49166W        W20695  14.612   1.258  10.020
49167W        W20696  17.560  42.444  10.742
49168W        W20697  36.669  16.034  14.964
49169W        W20698  15.594   1.491   4.372
49170W        W20699  36.076   6.174   2.186
49171W        W20700  11.909  27.424   1.714
49172W        W20701  36.124  39.237   4.132
49173W        W20702  20.806   8.347   1.607
49174W        W20703   1.125   9.600  13.458
49175W        W20704  42.813  30.600   3.913
49176W        W20705  39.611  22.806  12.823
49177W        W20706  33.066  14.336   4.184
49178W        W20707  19.486   8.702   2.635
49179W        W20708  18.782  40.892  12.129
49180W        W20709  11.088  25.014  11.595
49181W        W20710   9.340  33.200   2.610
49182W        W20711   6.156   6.362   3.954
49183W        W20712  38.395  41.619   2.808
49184W        W20713  14.213  30.047   2.804
49185W        W20714   6.416   1.415  11.221
49186W        W20715  40.045  29.196   4.675
49187W        W20716  39.001  35.099  11.250
49188W        W20717  32.986  14.466   1.289
49189W        W20718   4.270  36.263   4.902
49190W        W20719  44.398  37.492  11.297
49191W        W20720  37.467   6.453   3.545
49192W        W20721  27.626  40.556   3.179
49193W        W20722  38.039  41.052  14.852
49194W        W20723   9.208   9.804   4.096
49195W        W20724  37.327  22.519   2.880
49196W        W20725  41.639  31.281   2.317
49197W        W20726  28.588  21.808  12.093
49198W        W20727  41.463  10.824   0.784
49199W        W20728  39.928  32.614   2.669
49200W        W20729  19.121  17.189   2.921
49201W        W20730   9.954   0.310   3.239
49202W        W20731   3.951   9.506   2.239
49203W        W20732  26.136  27.185  14.538
49204W        W20733  37.119   8.133  14.571
49205W        W20734   0.898  31.858   1.723
49206W        W20735   1.948  31.437  13.423
49207W        W20736  19.342  33.081  14.934
49208W        W20737   6.625   8.354  13.885
49209W        W20738  17.346  33.084  13.845
49210W        W20739   0.309  35.318   2.364
49211W        W20740   5.522  13.747  12.295
49212W        W20741  12.678  37.098   1.869
49213W        W20742   4.028  21.328  12.714
49214W        W20743   4.981  23.950  11.062
49215W        W20744   2.737   4.843   2.810
49216W        W20745  43.904  31.205   2.618
49217W        W20746  18.275  36.942  13.059
49218W        W20747  23.170  23.273   4.867
49219W        W20748  13.254  20.099   1.853
49220W        W20749  12.291  43.490   0.842
49221W        W20750  24.448  23.895  14.188
49222W        W20751   5.798   6.806   3.044
49223W        W20752  23.114  13.784   1.724
49224W        W20753   7.754  21.117   1.403
49225W        W20754  24.937  26.269   4.698
49226W        W20755  12.729  31.519   0.779
49227W        W20756  30.477  19.731   3.349
49228W        W20757  38.070  42.961  11.151
49229W        W20758  14.580  37.150   4.567
49230W        W20759   8.411   0.401   9.806
49231W        W20760  21.465  44.509  11.193
49232W        W20761  25.316  10.656   2.694
49233W        W20762  36.488   4.390  13.344
49234W        W20763  39.743   1.525  11.112
49235W        W20764   7.101   8.623  13.218
49236W        W20765  41.894   3.193   0.706
49237W        W20766   0.214   9.271   2.164
49238W        W20767  27.914  22.424  14.828
49239W        W20768  32.724  32.895  11.141
49240W        W20769  21.608  13.957  11.097
49241W        W20770  44.963  25.977   2.251
49242W        W20771  36.419  16.994   2.582
49243W        W20772   5.294  16.951   0.443
49244W        W20773  41.304  25.303   2.774
49245W        W20774  39.030  22.912   3.200
49246W        W20775  35.067  20.197  12.758
49247W        W20776  42.780  30.967   4.667
49248W        W20777  25.594   4.003  13.049
49249W        W20778  41.283  28.990   2.311
49250W        W20779  24.076  27.243   2.782
49251W        W20780   9.772  40.545  14.382
49252W        W20781  33.290  30.054  14.264
49253W        W20782  33.198  40.849  14.273
49254W        W20783  26.458  21.124  12.386
49255W        W20784   7.281   3.502  14.077
49256W        W20785  36.642  15.172  14.500
49257W        W20786  20.372  14.012  12.963
49258W        W20787  31.055  27.941   1.505
49259W        W20788  32.809  11.799  12.954
49260W        W20789  36.108  29.495   0.478
49261W        W20790  12.272   8.059   2.891
49262W        W20791  15.520  33.835  11.913
49263W        W20792  11.855  20.394   2.154
49264W        W20793   6.339   6.301   4.964
49265W        W20794  22.506   3.916  13.391
49266W        W20795  28.569   5.227  14.434
49267W        W20796  36.624  10.823  11.380
49268W        W20797   2.961   2.326   2.748
49269W        W20798  18.027  24.040  12.227
49270W        W20799   9.368  43.024   1.969
49271W        W20800  35.368  41.377   1.287
49272W        W20801  44.963   9.750  12.447
49273W        W20802  31.358  28.073   3.331
49274W        W20803  44.984   5.683  11.608
49275W        W20804  35.113  13.762  14.363
49276W        W20805  42.261  13.316   3.319
49277W        W20806  15.786  32.174  13.444
49278W        W20807  20.369  31.377  12.476
49279W        W20808   8.893  25.112   2.633
49280W        W20809  25.488  26.511  10.387
49281W        W20810  11.166  30.007   0.298
49282W        W20811  10.726   7.362   0.339
49283W        W20812  12.388   1.017  10.485
49284W        W20813  16.225  43.290  11.415
49285W        W20814  27.419  13.711   0.614
49286W        W20815  37.561  25.686   4.724
49287W        W20816  29.995  35.433   3.095
49288W        W20817  21.343  41.237  13.468
49289W        W20818   6.314  33.054   1.254
49290W        W20819   1.378  40.986   2.578
49291W        W20820  42.411  32.653  13.177
49292W        W20821  23.627   6.140  10.685
49293W        W20822  24.612  27.558   1.659
49294W        W20823  39.144   7.938  13.336
49295W        W20824  35.864  28.657  14.935
49296W        W20825  40.065  26.182   1.702
49297W        W20826   6.770  36.450   3.252
49298W        W20827  44.951  38.864   4.687
49299W        W20828  14.116  26.279  14.925
49300W        W20829  23.028  44.904  14.439
49301W        W20830   1.987  38.357  14.419
49302W        W20831  18.179  36.865  11.495
49303W        W20832  26.170  37.880  13.748
49304W        W20833   2.514  21.672  13.586
49305W        W20834  17.403  43.884  12.044
49306W        W20835  40.429  19.684   4.680
49307W        W20836  39.566  35.460  12.465
49308W        W20837  34.649  36.444  12.060
49309W        W20838   8.342   4.367  12.911
49310W        W20839  27.626  21.014   4.175
49311W        W20840  23.561  10.884  11.460
49312W        W20841  35.162  37.987  14.017
49313W        W20842  15.132  33.132   3.310
49314W        W20843  34.342   7.986  12.114
49315W        W20844  26.081  30.136  12.131
49316W        W20845  43.984   0.691  13.179
49317W        W20846   7.278  27.134  12.808
49318W        W20847  25.211  32.505   4.266
49319W        W20848  31.036  29.133   3.793
49320W        W20849  44.196  26.981   1.461
49321W        W20850  34.284   8.994  13.344
49322W        W20851  36.335  26.532   1.802
49323W        W20852  41.495   5.479  11.389
49324W        W20853   5.620  34.229  11.663
49325W        W20854  12.831  41.777   4.158
49326W        W20855  38.105  27.371  12.067
49327W        W20856   5.686  21.756   3.164
49328W        W20857   5.127  11.368   0.561
49329W        W20858  35.805  17.807   4.496
49330W        W20859  35.480   9.555   4.771
49331W        W20860  21.344  39.049  13.115
49332W        W20861  40.885  29.083   1.852
49333W        W20862  33.595  11.567   0.224
49334W        W20863   3.757   9.342   2.686
49335W        W20864   7.147  15.407   4.920
49336W        W20865  27.796  42.850   4.249
49337W        W20866  26.521   6.310  11.921
49338W        W20867  37.411  36.782  11.594
49339W        W20868  27.038  17.563   4.146
49340W        W20869  25.365  24.457   4.542
49341W        W20870   3.262  24.273   4.473
49342W        W20871  28.829  22.231  11.450
49343W        W20872  35.517   0.663   3.849
49344W        W20873  34.932  23.278  11.239
49345W        W20874  44.620  38.842  12.558
49346W        W20875  19.778  25.024   4.222
49347W        W20876  17.970  29.861  14.387
49348W        W20877  41.928  40.114  13.632
49349W        W20878  21.222   6.207   4.082
49350W        W20879  32.154  44.427  13.051
49351W        W20880  11.944   3.369   2.185
49352W        W20881  15.899  15.175  14.588
49353W        W20882   6.624  22.274   1.840
49354W        W20883  37.674  38.517  13.606
49355W        W20884  26.952  22.832   1.981
49356W        W20885  44.981  10.447   1.992
49357W        W20886  18.021  13.278   3.401
49358W        W20887  20.740  37.066  13.938
49359W        W20888  37.289  41.932  11.099
49360W        W20889  11.856  14.172   2.241
49361W        W20890  27.496  40.931  11.016
49362W        W20891  35.515  32.421   4.608
49363W        W20892  23.413  28.962  11.531
49364W        W20893  21.779  21.421   0.385
49365W        W20894   5.221  22.451  11.600
49366W        W20895   9.202  35.839   4.624
49367W        W20896  28.202  30.644   3.497
49368W        W20897  28.047  14.566  13.273
49369W        W20898  26.745  29.885   1.175
49370W        W20899  11.738  16.852   1.773
49371W        W20900  44.393   9.171   0.301
49372W        W20901  44.942  20.170  14.261
49373W        W20902   1.769   0.957   4.474
49374W        W20903  37.112  28.068  13.874
49375W        W20904   1.188  22.633   1.769
49376W        W20905  16.693  29.665  13.927
49377W        W20906   3.956   9.403  11.855
49378W        W20907  36.392   9.476  11.701
49379W        W20908  36.539  16.219  11.107
49380W        W20909   1.941  27.043  14.692
49381W        W20910  40.396   3.874   2.217
49382W        W20911  31.202  42.362  14.068
49383W        W20912  21.041  38.844  12.050
49384W        W20913  31.914  26.442   3.637
49385W        W20914   3.981  34.313  14.417
49386W        W20915  13.646  36.551   2.756
49387W        W20916  10.380  13.610   2.129
49388W        W20917   9.103  31.907  10.703
49389W        W20918  33.854  43.949   3.249
49390W        W20919   8.562  39.063  11.159
49391W        W20920  39.849  10.315   1.604
49392W        W20921  37.673  13.512   2.905
49393W        W20922  34.460  36.336   0.301
49394W        W20923  21.426   6.001  10.448
49395W        W20924  24.725  23.845   4.205
49396W        W20925   2.232  19.381  11.031
49397W        W20926  24.805  16.345   0.688
49398W        W20927  31.070  32.138  13.119
49399W        W20928  10.737  42.728  13.309
49400W        W20929  31.539  11.564   0.785
49401W        W20930   9.162  41.526   3.125
49402W        W20931   8.505   1.797   3.899
49403W        W20932   0.000  34.703   0.746
49404W        W20933  44.387   7.434  14.830
49405W        W20934  34.046  40.375  12.449
49406W        W20935  24.070   2.748  13.000
49407W        W20936  39.495  43.869  11.508
49408W        W20937  20.149  33.644  12.831
49409W        W20938  39.683  28.006   2.127
49410W        W20939   5.348   0.911   4.593
49411W        W20940  32.137   7.695  11.960
49412W        W20941  23.121  12.904  10.728
49413W        W20942  32.378  18.758   1.818
49414W        W20943  17.123   9.790  13.097
49415W        W20944   8.195  37.803  11.843
49416W        W20945  10.415  14.214  12.433
49417W        W20946  42.027  37.398  10.458
49418W        W20947   6.887  34.841   2.247
49419W        W20948  43.854   2.529   2.806
49420W        W20949  37.921  44.308  12.541
49421W        W20950  15.847  35.089  13.250
49422W        W20951  25.013  41.901   2.457
49423W        W20952  40.244  37.570   4.662
49424W        W20953   6.085  14.237   5.021
49425W        W20954  16.392  18.080  14.409
49426W        W20955  19.582  23.162  13.800
49427W        W20956  37.544   3.325  11.545
49428W        W20957  29.653  12.078  14.528
49429W        W20958  29.578  17.844   4.143
49430W        W20959   3.859  32.133  13.420
49431W        W20960  43.403  11.594   2.382
49432W        W20961  30.635   6.542  12.814
49433W        W20962   5.666  26.413   2.599
49434W        W20963   1.174  38.468   4.082
49435W        W20964  13.325  16.545   1.556
49436W        W20965  32.504  10.288  14.892
49437W        W20966  34.592  19.940  12.789
49438W        W20967   2.045  12.118  13.353
49439W        W20968   3.979  29.569   1.307
49440W        W20969  41.061  29.744  13.522
49441W        W20970  15.250  24.137   3.190
49442W        W20971   8.149  38.315  12.066
49443W        W20972  42.870   8.164   1.800
49444W        W20973  18.183   6.923   2.420
49445W        W20974  43.948  34.498  10.238
49446W        W20975  32.404  25.730  14.393
49447W        W20976  13.396   4.872   2.036
49448W        W20977  16.165  38.969  11.147
49449W        W20978  22.282   1.734  10.871
49450W        W20979  24.130  10.086  11.131
49451W        W20980  31.027  29.383  13.911
49452W        W20981   4.654  26.553  11.027
49453W        W20982   9.569  17.036   4.189
49454W        W20983  22.583   8.309  12.316
49455W        W20984   9.643  24.063  13.803
49456W        W20985  31.849  32.040   4.053
49457W        W20986  18.202  44.370  10.033
49458W        W20987  41.069  35.789  13.795
49459W        W20988   8.347   2.366  13.906
49460W        W20989  22.291  24.267  10.665
49461W        W20990  20.663   5.707  14.724
49462W        W20991  20.600  20.551  11.257
49463W        W20992  13.746  44.045  13.999
49464W        W20993  25.714  44.981  14.379
49465W        W20994  18.991   8.843  10.767
49466W        W20995  39.450  17.641   3.925
49467W        W20996  29.941  40.463   2.706
49468W        W20997  33.492  35.022  14.048
49469W        W20998  31.519   0.958  13.973
49470W        W20999  14.026  32.474  12.554
49471W        W21000   1.816   5.312   1.367
49472W        W21001   5.770  36.004  13.592
49473W        W21002   1.452  26.546   1.257
49474W        W21003   9.645  17.122  14.375
49475W        W21004  17.789  29.040   2.262
49476W        W21005  22.112  26.628   0.779
49477W        W21006   3.954  15.186  10.835
49478W        W21007  31.790  19.579   4.881
49479W        W21008  21.459  36.944   1.350
49480W        W21009  44.185  37.414   0.016
49481W        W21010  41.710  28.984  11.947
49482W        W21011  38.258  26.181  13.436
49483W        W21012  27.570  17.467  13.075
49484W        W21013   3.421  31.941   4.053
49485W        W21014  38.477  32.210  11.155
49486W        W21015  34.703  32.654  14.980
49487W        W21016  17.739  39.431  13.018
49488W        W21017  38.573  38.070   4.642
49489W        W21018  36.467  44.300  14.717
49490W        W21019  27.995  15.625   3.044
49491W        W21020  36.468  34.799   1.400
49492W        W21021  39.983  21.814  11.121
49493W        W21022  22.434  36.537  12.338
49494W        W21023  41.260  22.010   2.919
49495W        W21024  18.742  44.730   4.161
49496W        W21025  19.241  18.154  14.327
49497W        W21026   7.130  44.491   4.014
49498W        W21027  24.144  26.632   3.671
49499W        W21028  39.927  35.067  13.601
49500W        W21029  41.931   5.977  12.468
49501W        W21030  34.371   6.707  11.611
49502W        W21031   0.945  13.579  14.700
49503W        W21032  31.860  35.475  14.953
49504W        W21033   0.491  29.831   3.217
49505W        W21034  14.708  31.025  14.442
49506W        W21035  38.567  40.991   2.263
49507W        W21036  20.126  33.049  13.961
49508W        W21037  42.049  14.743  14.808
49509W        W21038  24.113  23.732   3.214
49510W        W21039  34.944  27.840  13.108
49511W        W21040  36.579  43.890  14.358
49512W        W21041   7.225  14.718   2.368
49513W        W21042  33.567  27.102   0.899
49514W        W21043  28.456  16.752   0.329
49515W        W21044  26.187  38.669  10.704
49516W        W21045   5.258   9.307  13.795
49517W        W21046  20.533  22.051   2.456
49518W        W21047  35.933   5.434   3.017
49519W        W21048  26.905  41.916  10.698
49520W        W21049  17.632  26.091  12.582
49521W        W21050  22.794   8.751  12.123
49522W        W21051   3.668   5.837  13.548
49523W        W21052  34.838  24.609  13.854
49524W        W21053  27.683  19.577   0.248
49525W        W21054  25.580  32.740   4.594
49526W        W21055   0.804  19.430  11.090
49527W        W21056  23.529   3.888   0.975
49528W        W21057  25.977  20.479  13.979
49529W        W21058  27.973  41.100   2.470
49530W        W21059  34.875   3.390   3.377
49531W        W21060  19.455  25.830  10.939
49532W        W21061   1.348  16.652   4.103
49533W        W21062   9.574  15.155  11.193
49534W        W21063   1.356   5.996   3.603
49535W        W21064  31.230  44.905  14.067
49536W        W21065   6.326  23.302   4.212
49537W        W21066  28.434  26.116   4.165
49538W        W21067  17.599  19.368   4.726
49539W        W21068   9.192   6.849   3.407
49540W        W21069   6.995  41.843   4.000
49541W        W21070  10.864  41.097   2.348
49542W        W21071   3.494  31.052  13.080
49543W        W21072  31.848  17.702  12.573
49544W        W21073  42.322  22.542  14.808
49545W        W21074   8.311  20.736   0.913
49546W        W21075  11.729  36.545  14.341
49547W        W21076  41.749  22.586   3.758
49548W        W21077  42.984  24.994  14.944
49549W        W21078  40.713  41.511  14.307
49550W        W21079  22.650  24.256  14.261
49551W        W21080  29.253  44.484  13.075
49552W        W21081  38.521  36.479  10.482
49553W        W21082   7.449  23.334  14.285
49554W        W21083  33.428  38.027   4.286
49555W        W21084  34.907   6.750   2.361
49556W        W21085  41.519  26.615   1.452
49557W        W21086  26.460  13.162   1.263
49558W        W21087  30.627  30.428  14.456
49559W        W21088  20.660  19.366   0.516
49560W        W21089  12.623  17.082   2.665
49561W        W21090  32.542  43.263   1.728
49562W        W21091   3.287  39.468   3.633
49563W        W21092  44.743  28.435  11.436
49564W        W21093  41.588  39.166   2.283
49565W        W21094  16.870  19.609  12.003
49566W        W21095   3.762  30.400  14.240
49567W        W21096  30.655   5.778   4.434
49568W        W21097  25.446  44.909   4.816
49569W        W21098   9.161   0.025   4.089
49570W        W21099   7.162   1.483   2.064
49571W        W21100  11.310   8.794  12.065
49572W        W21101  16.021   1.784   1.703
49573W        W21102  30.939  17.242  12.403
49574W        W21103  31.712  44.370   3.635
49575W        W21104  24.058  20.021   1.274
49576W        W21105  42.729  31.991  12.861
49577W        W21106   5.205  11.468  14.576
49578W        W21107   8.466   1.528  14.916
49579W        W21108  23.552  10.403   3.181
49580W        W21109  28.375  44.892   2.638
49581W        W21110  13.217  24.757  14.203
49582W        W21111  28.274  43.017  13.395
49583W        W21112   0.818  42.680   2.793
49584W        W21113   4.391   9.250  12.158
49585W        W21114   5.909   5.310   3.993
49586W        W21115  25.509  10.567  14.880
49587W        W21116  42.041  10.139   3.248
49588W        W21117  16.080  37.318  11.095
49589W        W21118   1.345   9.139  13.419
49590W        W21119  44.180  16.561   2.251
49591W        W21120  18.685   2.028  11.965
49592W        W21121  36.475  43.404  11.727
49593W        W21122   8.141   1.871  12.129
49594W        W21123  15.528   4.693   3.135
49595W        W21124  19.237  25.127  12.409
49596W        W21125  10.914  33.199   1.608
49597W        W21126  33.942  18.034   4.632
49598W        W21127  32.602  38.514   2.391
49599W        W21128  28.984  18.628   2.393
49600W        W21129  25.054  33.799   2.839
49601W        W21130  43.892  40.611   3.875
49602W        W21131  30.276  40.641   3.620
49603W        W21132  31.672  23.902   9.798
49604W        W21133   0.327  38.068   3.667
49605W        W21134  19.345   0.251   0.232
49606W        W21135   8.832  34.828   2.335
49607W        W21136  11.178  18.852   1.439
49608W        W21137  19.610  43.100  14.932
49609W        W21138  18.425  10.830   3.920
49610W        W21139   0.399  35.487  12.551
49611W        W21140  22.429  37.861   3.835
49612W        W21141  20.711  17.593   2.299
49613W        W21142  38.012  34.008  13.052
49614W        W21143  33.630   7.252   2.276
49615W        W21144  24.217  26.945   3.217
49616W        W21145  42.940  11.467   3.855
49617W        W21146  31.973  18.115   3.110
49618W        W21147  11.110  41.302  11.019
49619W        W21148  39.717  11.774  11.242
49620W        W21149  11.848   0.226   1.352
49621W        W21150  16.234  44.835   4.974
49622W        W21151  33.095  26.907   2.869
49623W        W21152   5.349   2.363  13.561
49624W        W21153  29.057  35.258   4.024
49625W        W21154  19.662  33.488  14.080
49626W        W21155  12.107  24.138  14.271
49627W        W21156  40.748  42.589   1.240
49628W        W21157  36.842  14.123  10.744
49629W        W21158  39.887  35.904  14.768
49630W        W21159  26.933   2.374   0.885
49631W        W21160  13.656   7.121  14.455
49632W        W21161  18.746  31.179   2.145
49633W        W21162  38.866  30.680   1.636
49634W        W21163  38.887   5.880   2.025
49635W        W21164  29.175  32.884  14.418
49636W        W21165  28.414  41.578   4.231
49637W        W21166  42.291   0.543   2.174
49638W        W21167  41.049  38.294   4.873
49639W        W21168  15.336   3.895  12.439
49640W        W21169   8.977  13.316  14.473
49641W        W21170  34.010   2.823   2.584
49642W        W21171  22.728   5.013   1.280
49643W        W21172  28.260  19.909   3.332
49644W        W21173   9.273  18.025   0.769
49645W        W21174  43.542  36.306  10.728
49646W        W21175  17.155   9.859  11.113
49647W        W21176  40.058  27.142  10.795
49648W        W21177  35.283   2.911   4.338
49649W        W21178  38.840  29.658   0.077
49650W        W21179  10.320  25.759   1.762
49651W        W21180   2.308  40.538   3.321
49652W        W21181  17.822  40.868   3.829
49653W        W21182  38.321  36.803   3.355
49654W        W21183  10.210  11.256   4.086
49655W        W21184   0.360  14.582  14.943
49656W        W21185   2.934  19.681   3.190
49657W        W21186  32.302  10.605  11.134
49658W        W21187   7.701  20.578  13.014
49659W        W21188   4.299  34.599   2.324
49660W        W21189  23.454   4.222  11.581
49661W        W21190   7.563  12.398   2.447
49662W        W21191  15.116  10.098  13.838
49663W        W21192  32.387  10.066   1.586
49664W        W21193  44.205  40.351   1.338
49665W        W21194  15.273   5.893   3.184
49666W        W21195   3.807  11.063  14.863
49667W        W21196  35.459  20.382   1.763
49668W        W21197   9.915  16.285  14.909
49669W        W21198   0.392  39.815  14.894
49670W        W21199  10.226  18.389   3.270
49671W        W21200  17.656  17.878  12.439
49672W        W21201  10.738  39.865   4.279
49673W        W21202  39.067   3.321  12.442
49674W        W21203  26.356   7.059   3.379
49675W        W21204  40.321   9.157   0.454
49676W        W21205  17.100  34.861  12.944
49677W        W21206   7.891  43.455  14.813
49678W        W21207  17.973  13.349  12.564
49679W        W21208   8.097  10.220   0.555
49680W        W21209  16.707  44.398  13.311
49681W        W21210  22.590  42.553  13.606
49682W        W21211  33.505  21.059  10.839
49683W        W21212  21.688   7.112  11.517
49684W        W21213  29.197  32.458  13.510
49685W        W21214   3.781  41.013   2.304
49686W        W21215  25.426  32.475  11.535
49687W        W21216   4.370   1.457   2.837
49688W        W21217  36.461  17.535   1.728
49689W        W21218  12.436  42.404  10.744
49690W        W21219  20.790  30.184   0.075
49691W        W21220  38.427  17.764   1.104
49692W        W21221  26.755  27.672  10.460
49693W        W21222  44.933   7.020  13.559
49694W        W21223  19.602  18.186   0.706
49695W        W21224  32.040  14.039  14.959
49696W        W21225  17.185  19.197  13.818
49697W        W21226   2.349  34.072  14.510
49698W        W21227  35.054  39.435  13.947
49699W        W21228  29.870  16.150  11.464
49700W        W21229  34.129  10.724  13.049
49701W        W21230   0.505   8.768   3.258
49702W        W21231   7.436   5.220  11.231
49703W        W21232   9.356   9.093   3.614
49704W        W21233  26.246  10.339   0.762
49705W        W21234  22.144  17.357  11.938
49706W        W21235  35.102  43.347  12.352
49707W        W21236   4.231  19.299  13.845
49708W        W21237  25.060   0.473  12.801
49709W        W21238   8.648   9.732   2.574
49710W        W21239   6.980  37.145  14.015
49711W        W21240  39.835   6.688   3.223
49712W        W21241  44.562   6.639  12.655
49713W        W21242  11.539  34.877  13.056
49714W        W21243  28.171   6.474   3.063
49715W        W21244  25.071  33.482  10.739
49716W        W21245  26.699  25.023  11.515
49717W        W21246  41.375  44.949   0.319
49718W        W21247  42.483  37.791   1.846
49719W        W21248  17.319  10.269   1.195
49720W        W21249  15.444  14.647   1.256
49721W        W21250  11.823   3.021  14.983
49722W        W21251   5.932  38.247  11.724
49723W        W21252   7.872  10.328   4.490
49724W        W21253  10.459  21.866   3.177
49725W        W21254   0.904  41.550  10.968
49726W        W21255  25.509   1.031  13.370
49727W        W21256  16.196  25.159  14.494
49728W        W21257  22.851  33.629   0.777
49729W        W21258  28.149  44.299  14.844
49730W        W21259  37.146  42.862  13.286
49731W        W21260  34.754  35.799   1.747
49732W        W21261  38.125  14.752  14.951
49733W        W21262  14.748  11.770   2.762
49734W        W21263   9.751   3.832  14.461
49735W        W21264  24.036  31.947  14.052
49736W        W21265  19.788  36.621  13.987
49737W        W21266   5.648   8.130   1.839
49738W        W21267  25.129  36.048  14.177
49739W        W21268  16.653  19.998  10.994
49740W        W21269  39.619  15.619   3.467
49741W        W21270  39.246  25.414   1.191
49742W        W21271  28.394  10.729   0.536
49743W        W21272  20.900  19.644  13.826
49744W        W21273  12.211   7.165   1.275
49745W        W21274  20.138   9.450   3.224
49746W        W21275  25.774  29.755  14.883
49747W        W21276  37.502  36.035   2.723
49748W        W21277  20.210  16.786  12.825
49749W        W21278  26.723  34.307   3.057
49750W        W21279  36.580  22.799   1.232
49751W        W21280  35.714   7.868   3.588
49752W        W21281  44.344  26.986   2.468
49753W        W21282  20.251  17.055   3.675
49754W        W21283  37.493  25.743   1.502
49755W        W21284  34.647  20.655  14.057
49756W        W21285  17.160  28.515  14.370
49757W        W21286   5.372  19.955  12.392
49758W        W21287   5.534  20.500   2.424
49759W        W21288  21.552  43.615   3.676
49760W        W21289  17.634   7.717  14.784
49761W        W21290  28.028  39.387   3.703
49762W        W21291   6.322  44.787   4.945
49763W        W21292  33.053  31.145   1.727
49764W        W21293  26.974   9.373  10.677
49765W        W21294   1.443   6.996   4.507
49766W        W21295   1.865  39.204   4.956
49767W        W21296  40.931  20.115  14.745
49768W        W21297  15.991  15.829   1.950
49769W        W21298  32.308  11.842  13.062
49770W        W21299  11.170   7.966  12.229
49771W        W21300  38.583  17.781  12.206
49772W        W21301   5.477  24.637   3.834
49773W        W21302  26.868  34.692   1.041
49774W        W21303  37.854  31.986  13.868
49775W        W21304   2.856  38.040   4.724
49776W        W21305   4.085  44.494  13.595
49777W        W21306  17.242   5.785  13.376
49778W        W21307  28.187   7.436  11.933
49779W        W21308  34.207  32.047   0.713
49780W        W21309  26.123   1.313   1.860
49781W        W21310  31.784  10.386  11.595
49782W        W21311  39.391  38.262   3.285
49783W        W21312  44.441  32.521  13.892
49784W        W21313   2.799  12.259  11.580
49785W        W21314  12.821   3.970  12.593
49786W        W21315  13.224   5.624   2.720
49787W        W21316  14.781   7.500   3.172
49788W        W21317   3.381  34.429  12.659
49789W        W21318  18.011  16.966   1.400
49790W        W21319   7.711  33.368   1.721
49791W        W21320  25.790  34.658  12.517
49792W        W21321  11.534  17.297  14.960
49793W        W21322  38.719   7.103   5.022
49794W        W21323   1.641  13.100   1.160
49795W        W21324   9.860  14.054   4.169
49796W        W21325   8.444  42.805  13.204
49797W        W21326  23.085  30.466  11.178
49798W        W21327  16.703   3.703  11.483
49799W        W21328  33.043  24.509   1.778
49800W        W21329  32.102  32.262   1.551
49801W        W21330  19.973   2.302  10.610
49802W        W21331  40.684   3.460   4.119
49803W        W21332  19.542  44.765  12.371
49804W        W21333  28.083  23.477   2.878
49805W        W21334   9.890  25.233  11.030
49806W        W21335  37.023  21.362  13.803
49807W        W21336   5.673  19.127   1.681
49808W        W21337   2.580   4.524  14.450
49809W        W21338  20.903  38.467   9.831
49810W        W21339  12.763  20.134  14.100
49811W        W21340  31.848  34.840  11.584
49812W        W21341  11.534  24.516  11.178
49813W        W21342   8.091  26.750   0.537
49814W        W21343  43.273  12.626   3.198
49815W        W21344   2.324  15.858   1.866
49816W        W21345  20.576  26.933  14.941
49817W        W21346   8.409  16.621   4.670
49818W        W21347  10.721  23.038   0.998
49819W        W21348  10.802   8.825  11.919
49820W        W21349  19.319  32.561  12.196
49821W        W21350  15.738   4.815  13.081
49822W        W21351   8.281  32.182   4.455
49823W        W21352  13.035  12.366   3.702
49824W        W21353  34.640  11.702   0.662
49825W        W21354  16.409  27.658  10.264
49826W        W21355   3.749  31.397   3.319
49827W        W21356   5.787  16.652   3.626
49828W        W21357  11.255   8.295   3.223
49829W        W21358  37.528  28.060  10.731
49830W        W21359  19.541  34.853  12.844
49831W        W21360  37.369  14.176   1.400
49832W        W21361   8.399  17.112   0.083
49833W        W21362  21.539  22.987  14.279
49834W        W21363  32.082  10.860   1.887
49835W        W21364   1.223  32.555  13.859
49836W        W21365  15.348  26.949  14.923
49837W        W21366  31.728   6.827   0.895
49838W        W21367  16.314  34.731   3.540
49839W        W21368  16.620  16.209   4.618
49840W        W21369   0.522  44.192  12.544
49841W        W21370   8.500  24.739   2.782
49842W        W21371  32.736   1.310   2.887
49843W        W21372   8.376  17.914   4.223
49844W        W21373  42.357  34.428  14.770
49845W        W21374  13.249  20.986   1.819
49846W        W21375   4.428   7.644   2.754
49847W        W21376   8.400  34.375  14.435
49848W        W21377  15.286  20.964  13.052
49849W        W21378  27.355  34.512   0.882
49850W        W21379  30.921  15.186   0.804
49851W        W21380  39.815  44.932   3.037
49852W        W21381  27.237  43.062  12.256
49853W        W21382  42.970  15.140  13.386
49854W        W21383  15.804  21.267  13.068
49855W        W21384  23.575  10.546  11.830
49856W        W21385   4.362  28.195  12.965
49857W        W21386  30.147  11.266   2.185
49858W        W21387  16.522  41.345   3.618
49859W        W21388  13.557   5.643  14.260
49860W        W21389  36.944  44.240   4.684
49861W        W21390  34.049  26.727  11.346
49862W        W21391   6.155  25.364   4.649
49863W        W21392   0.945  39.462  10.653
49864W        W21393  20.880  21.670   0.202
49865W        W21394  36.504  22.829  13.320
49866W        W21395  18.152  23.864  12.900
49867W        W21396  30.425  41.404  13.934
49868W        W21397  27.108  41.875  11.639
49869W        W21398  12.059  36.556  11.238
49870W        W21399  43.211  15.005  14.411
49871W        W21400  15.087  29.580   2.660
49872W        W21401  12.665  39.062  14.930
49873W        W21402  31.964  28.706   3.699
49874W        W21403  30.559  13.709   2.952
49875W        W21404  36.640  25.286   2.726
49876W        W21405  36.664  44.293  11.501
49877W        W21406  14.676   8.125   1.725
49878W        W21407   7.685   1.876  13.644
49879W        W21408  26.296   0.338  13.077
49880W        W21409   3.487   6.525   0.994
49881W        W21410  34.541  10.142  11.183
49882W        W21411  17.321  39.215   2.372
49883W        W21412  14.193  26.987  13.895
49884W        W21413  34.855  44.552   2.283
49885W        W21414  36.971  35.333  14.729
49886W        W21415   9.124  11.266   3.228
49887W        W21416  12.682   5.641   2.679
49888W        W21417  24.678  17.312  10.746
49889W        W21418  28.709   0.956   0.498
49890W        W21419   8.327   1.282   1.275
49891W        W21420  35.642  15.282   0.965
49892W        W21421  17.529  13.164   4.237
49893W        W21422  20.242  26.919  11.880
49894W        W21423  24.401  30.548   2.732
49895W        W21424  27.123  40.535   1.989
49896W        W21425  12.638  40.555   0.934
49897W        W21426  42.709  36.793   4.178
49898W        W21427  26.718   3.361   4.979
49899W        W21428  15.426  15.530  14.144
49900W        W21429   2.272  24.885   2.909
49901W        W21430  44.418  14.004  10.440
49902W        W21431  10.339  10.603   2.743
49903W        W21432   6.934  19.734   4.048
49904W        W21433  14.685  12.915  13.600
49905W        W21434  28.529  21.770  13.622
49906W        W21435  22.738  37.011   3.238
49907W        W21436  44.135   6.319   1.389
49908W        W21437   8.196   2.236   0.265
49909W        W21438  11.684   2.300   4.573
49910W        W21439  12.600  13.959   1.058
49911W        W21440  24.182   7.636  10.885
49912W        W21441  15.753  29.125   2.723
49913W        W21442  21.199  16.890   4.059
49914W        W21443  21.361  15.353  12.658
49915W        W21444  34.126  43.718  13.277
49916W        W21445  29.637  41.072  11.628
49917W        W21446   3.954  32.418   1.281
49918W        W21447  24.324   3.213  12.938
49919W        W21448  42.567  20.679  11.851
49920W        W21449  29.161   0.809   4.497
49921W        W21450  16.221  11.985   1.754
49922W        W21451  21.070   6.786  11.273
49923W        W21452  34.207  16.343  11.078
49924W        W21453  30.564  31.350   2.810
49925W        W21454   7.181  29.868   0.439
49926W        W21455  18.094  38.166   3.326
49927W        W21456  17.344  41.015   0.368
49928W        W21457   2.541   3.226  13.087
49929W        W21458  34.571  17.357  11.220
49930W        W21459   8.671  11.533   3.195
49931W        W21460  33.534  36.107  12.532
49932W        W21461  15.212  29.863  14.703
49933W        W21462  20.279  26.051   0.521
49934W        W21463  37.492  39.047  14.438
49935W        W21464  15.736   8.260  12.866
49936W        W21465  31.482   8.351   4.150
49937W        W21466  13.365   3.373  10.296
49938W        W21467  18.745  16.546  11.701
49939W        W21468  14.196   3.379   1.920
49940W        W21469  31.426  22.002  11.172
49941W        W21470  27.456  29.403  12.101
49942W        W21471  15.309  15.511  11.561
49943W        W21472  39.217  11.173   3.226
49944W        W21473  32.514   5.218   1.875
49945W        W21474   3.232  43.560  12.772
49946W        W21475   6.873  28.725   0.705
49947W        W21476   8.189   1.359  13.798
49948W        W21477  33.624  35.585  11.653
49949W        W21478  16.797   1.696   1.375
49950W        W21479  22.059  36.294   3.194
49951W        W21480   4.126  29.979   0.775
49952W        W21481  39.107  40.310  14.345
49953W        W21482  10.420  10.612  14.384
49954W        W21483  30.378  11.567  14.355
49955W        W21484  12.985  26.897  11.157
49956W        W21485  14.607  28.195   3.749
49957W        W21486  35.940   0.490   3.620
49958W        W21487  12.712  28.886   2.901
49959W        W21488  20.927  44.763   4.408
49960W        W21489  19.208  34.991   3.225
49961W        W21490  43.955  17.671  10.748
49962W        W21491   0.168  40.947   0.827
49963W        W21492  10.198   1.427   1.693
49964W        W21493  16.555  43.704   4.568
49965W        W21494   1.338  15.546  14.288
49966W        W21495  14.860  42.686  10.654
49967W        W21496  34.069  21.077  14.981
49968W        W21497  33.716  17.666  13.367
49969W        W21498   7.365  36.385  13.694
49970W        W21499  15.299   9.267  11.929
49971W        W21500  40.435   8.494  11.364
49972W        W21501  31.683  27.056  13.371
49973W        W21502   6.861   3.938   3.224
49974W        W21503  19.245  33.090   0.710
49975W        W21504   2.761  24.128  11.673
49976W        W21505  19.185  27.081   0.799
49977W        W21506   0.887  41.074  10.727
49978W        W21507  12.283   2.790  14.819
49979W        W21508  24.281   2.728  10.758
49980W        W21509  39.375  33.128   2.667
49981W        W21510   0.424  28.092  13.101
49982W        W21511  18.928  10.799   3.748
49983W        W21512  27.078  24.503  13.982
49984W        W21513   6.708  41.179  13.440
49985W        W21514  17.094   2.196   4.142
49986W        W21515   0.443  37.957   4.608
49987W        W21516  38.483  41.382  14.569
49988W        W21517  28.197  44.322  10.731
49989W        W21518  13.569   7.738   5.097
49990W        W21519  18.555  19.567  14.427
49991W        W21520  27.713   3.820   0.971
49992W        W21521  13.873  40.828   3.626
49993W        W21522  19.575  12.799  14.981
49994W        W21523  20.245   7.200  14.833
49995W        W21524  38.939  38.758  14.428
49996W        W21525  34.614  17.074   4.376
49997W        W21526   6.872  43.910   0.700
49998W        W21527   2.800  19.582  14.275
49999W        W21528   5.505  24.157   1.353
50000W        W21529  20.837  43.908  13.435
50001W        W21530  25.764  42.394  12.434
50002W        W21531  29.642   3.740  11.107
50003W        W21532   8.145  33.250   2.499
50004W        W21533  42.240  21.549   1.459
50005W        W21534   0.825   9.236  10.701
50006W        W21535  28.667   3.628  11.630
50007W        W21536  31.725  15.966  12.547
50008W        W21537  36.854  33.888   3.291
50009W        W21538  13.392  25.320   2.701
50010W        W21539  17.008   0.570   0.339
50011W        W21540  34.857  33.631  12.053
50012W        W21541  28.053  29.518   2.243
50013W        W21542   8.762  43.506  14.913
50014W        W21543   9.098  38.910  14.433
50015W        W21544  21.537   6.218   4.534
50016W        W21545  35.344  30.546  11.541
50017W        W21546  20.522  16.553  14.431
50018W        W21547  27.751  16.280  10.213
50019W        W21548  26.226  39.076   2.208
50020W        W21549  29.087  41.915   3.580
50021W        W21550   4.630  39.480  13.866
50022W        W21551  35.311  34.081   2.798
50023W        W21552  35.450  31.573   4.359
50024W        W21553  30.591  12.571  13.440
50025W        W21554  44.318  28.524  14.014
50026W        W21555  41.523   9.000   1.370
50027W        W21556  29.190  12.847   1.356
50028W        W21557  21.045  19.336   0.162
50029W        W21558  31.627  35.478   1.387
50030W        W21559  22.301   3.514  12.832
50031W        W21560  35.562  32.424   3.285
50032W        W21561   9.836   3.926   1.234
50033W        W21562  20.899  33.321  12.196
50034W        W21563   3.969  11.606   4.701
50035W        W21564  20.351   7.426   1.280
50036W        W21565   3.147  37.087   3.346
50037W        W21566  30.228  22.088  14.831
50038W        W21567   0.561  23.242  11.013
50039W        W21568   5.497  41.217   0.110
50040W        W21569  41.655  26.163  14.957
50041W        W21570  37.301  25.115   2.115
50042W        W21571  14.140   7.394   2.911
50043W        W21572  35.756  28.590   3.718
50044W        W21573  42.912  20.510   2.678
50045W        W21574  41.097  19.606  14.789
50046W        W21575  14.998   0.576  14.429
50047W        W21576  35.496  28.409   0.891
50048W        W21577   9.428  18.334   3.663
50049W        W21578  19.487  24.173   4.517
50050W        W21579  20.170  25.945   1.866
50051W        W21580  43.339  10.662   4.169
50052W        W21581  12.131  28.328  14.482
50053W        W21582  10.928  23.673   1.153
50054W        W21583  15.626  38.193  11.855
50055W        W21584   3.457  30.378  10.559
50056W        W21585  19.810  24.504  14.459
50057W        W21586  18.281   6.959  10.526
50058W        W21587  44.818  21.922   2.423
50059W        W21588  24.761  13.594  14.578
50060W        W21589   6.934   2.513  10.679
50061W        W21590  12.711   3.234  11.928
50062W        W21591  21.806  10.471  11.246
50063W        W21592  44.134   8.667   2.815
50064W        W21593  10.913   6.934  13.469
50065W        W21594  43.528  20.561  11.106
50066W        W21595  27.557  38.054  14.404
50067W        W21596  22.179  33.484   1.690
50068W        W21597  33.528   4.027  11.863
50069W        W21598   7.386  21.494   1.705
50070W        W21599  37.263  32.587   4.070
50071W        W21600  36.984  25.449  12.902
50072W        W21601  23.137   0.462   3.649
50073W        W21602  32.203  40.509   2.828
50074W        W21603  24.480   8.704   4.785
50075W        W21604  43.815  10.672   3.309
50076W        W21605   5.831  31.556   4.117
50077W        W21606  25.152  44.549  12.521
50078W        W21607   2.444  40.427   4.316
50079W        W21608  32.213  44.710  13.980
50080W        W21609  40.037   4.004   4.543
50081W        W21610  13.415  41.914  12.909
50082W        W21611  16.352  41.361  10.858
50083W        W21612  23.080  36.007  11.425
50084W        W21613  41.782  43.688  14.189
50085W        W21614  11.201  39.946   1.386
50086W        W21615  38.550  41.861  14.767
50087W        W21616  12.883  34.992  11.257
50088W        W21617  12.263  23.055   1.680
50089W        W21618  42.170  37.477   4.145
50090W        W21619   2.176  25.095   2.338
50091W        W21620  20.549  29.385   0.302
50092W        W21621  15.785  11.099   3.253
50093W        W21622  10.183  24.234  11.967
50094W        W21623  23.932  11.850  12.461
50095W        W21624  21.141  18.547  12.479
50096W        W21625  15.259  14.612  14.361
50097W        W21626  12.709   8.368   0.298
50098W        W21627  34.555  34.674   2.410
50099W        W21628  25.792  38.145  12.050
50100W        W21629  15.217  16.281  13.949
50101W        W21630  25.939   2.405   0.946
50102W        W21631  22.554  12.486  12.419
50103W        W21632  15.860  38.275   4.491
50104W        W21633   8.927  19.691  12.989
50105W        W21634  23.011  26.966  14.918
50106W        W21635  33.409  37.871  13.480
50107W        W21636   5.891  10.072  11.059
50108W        W21637   5.302  44.950  14.088
50109W        W21638  20.879  42.997   2.440
50110W        W21639  15.829   2.209  13.810
50111W        W21640   4.240  11.585   2.809
50112W        W21641  24.111  34.875   1.798
50113W        W21642   3.770  20.265   0.517
50114W        W21643  16.102  21.420   3.622
50115W        W21644  17.637   5.820   2.089
50116W        W21645  41.573   5.893   0.815
50117W        W21646  12.389  22.022  14.007
50118W        W21647  11.422  41.789   4.130
50119W        W21648  30.712  31.367  12.019
50120W        W21649   4.516   7.758  14.700
50121W        W21650  20.051  25.271  12.925
50122W        W21651   5.883   9.367   0.765
50123W        W21652  33.249  40.882   0.482
50124W        W21653   8.293   0.466   2.641
50125W        W21654  18.108  42.492  11.474
50126W        W21655  30.984  27.640  14.253
50127W        W21656  26.239  41.332  11.090
50128W        W21657   9.234  29.528   4.452
50129W        W21658   1.983  14.203  14.377
50130W        W21659  40.050  21.155  12.450
50131W        W21660   5.727  31.617  12.426
50132W        W21661   3.638  40.101  12.924
50133W        W21662   0.417  35.598   1.920
50134W        W21663  43.900  40.829  13.132
50135W        W21664  26.593   9.585   1.371
50136W        W21665  41.700  23.487  14.900
50137W        W21666   2.185  38.727   9.937
50138W        W21667  27.590  15.395  11.182
50139W        W21668  22.957  41.806  12.621
50140W        W21669   0.315   7.576  13.645
50141W        W21670   0.245  40.528   2.118
50142W        W21671  33.095  27.520   1.788
50143W        W21672  13.364  21.069   2.347
50144W        W21673   9.745  21.370  11.558
50145W        W21674  35.260  28.999  13.507
50146W        W21675  28.546  14.375  12.959
50147W        W21676   5.788  10.301   4.290
50148W        W21677  22.079  10.774  11.665
50149W        W21678  38.350   8.364   4.350
50150W        W21679  36.994  36.258  12.516
50151W        W21680  38.823  29.076  14.438
50152W        W21681  21.747  32.009   4.963
50153W        W21682  19.551  15.053  13.313
50154W        W21683   5.623  22.686  13.982
50155W        W21684   9.243  34.490  11.183
50156W        W21685  22.086   3.994   2.172
50157W        W21686  40.769  34.761  13.655
50158W        W21687  35.091  33.597   0.387
50159W        W21688   3.342  22.552   3.277
50160W        W21689  15.864  14.632  13.312
50161W        W21690  18.177  39.777   1.064
50162W        W21691  21.662  38.616  11.915
50163W        W21692  13.556   7.140  10.332
50164W        W21693  42.975  39.049  14.075
50165W        W21694   2.731  18.736   3.550
50166W        W21695  41.646  23.969  13.030
50167W        W21696  26.480  21.894  10.857
50168W        W21697  27.600  38.586  14.458
50169W        W21698  16.490  30.086   4.299
50170W        W21699  37.430  23.214  13.289
50171W        W21700  14.583  19.805  10.677
50172W        W21701  15.581  14.677  11.824
50173W        W21702  20.214  35.648   4.988
50174W        W21703  36.455  31.689   3.194
50175W        W21704   0.038   8.443  11.206
50176W        W21705  12.964  14.297   2.756
50177W        W21706  39.972  44.901   0.041
50178W        W21707   0.233  28.133   1.482
50179W        W21708   7.615  15.185   4.795
50180W        W21709  40.640   4.275   2.451
50181W        W21710  41.025  23.760  11.646
50182W        W21711  30.380   7.885   0.894
50183W        W21712  16.535  39.985   0.476
50184W        W21713   2.198  16.115   0.294
50185W        W21714  11.497  33.252  11.693
50186W        W21715  33.842  35.421  13.361
50187W        W21716  21.010  15.485  11.706
50188W        W21717  18.731  23.375   1.538
50189W        W21718  17.272  37.924   9.856
50190W        W21719  18.641  18.789  11.653
50191W        W21720  34.522  13.583   2.268
50192W        W21721  15.780  42.607   0.200
50193W        W21722  40.925  14.544  10.699
50194W        W21723  41.853  44.552  11.191
50195W        W21724  24.784  41.530  14.570
50196W        W21725  43.523  15.744   1.216
50197W        W21726  29.078  39.876  11.548
50198W        W21727  39.177  24.077  13.889
50199W        W21728  30.218  36.166  11.116
50200W        W21729  29.998   5.255   0.059
50201W        W21730  14.152  26.867   1.132
50202W        W21731  35.402  20.647   1.282
50203W        W21732  42.433  19.148  11.215
50204W        W21733  15.388  23.138   3.121
50205W        W21734   9.516  32.178   0.153
50206W        W21735  35.493  19.577  14.302
50207W        W21736  11.613  19.065   3.894
50208W        W21737  40.283  26.825   2.644
50209W        W21738  39.435  13.615   0.412
50210W        W21739   3.783  28.979  12.125
50211W        W21740  32.125  23.755   4.212
50212W        W21741  38.109  11.551  13.991
50213W        W21742  30.592  22.121  12.515
50214W        W21743  21.520   4.517  10.811
50215W        W21744  40.479   9.120   2.743
50216W        W21745  17.626   2.787   4.752
50217W        W21746  26.239  33.408   4.084
50218W        W21747   2.360  20.516   4.945
50219W        W21748  32.612  30.571   1.253
50220W        W21749  17.560  20.776  12.214
50221W        W21750  44.761  18.675  10.553
50222W        W21751  15.608   1.926  14.558
50223W        W21752  38.070   5.022   4.206
50224W        W21753   8.371  43.460  14.534
50225W        W21754  26.636  31.880   3.185
50226W        W21755  16.979   1.845   5.041
50227W        W21756   8.773  29.282  10.486
50228W        W21757  40.899  20.037   2.719
50229W        W21758   3.882  19.046  11.986
50230W        W21759  11.669   8.722  10.296
50231W        W21760  30.533  12.134  14.456
50232W        W21761  17.607   5.989  12.551
50233W        W21762  19.810  20.021  13.303
50234W        W21763  11.296  23.562   2.759
50235W        W21764  13.605  17.873  11.967
50236W        W21765  23.485  15.749  12.681
50237W        W21766  23.236   7.370   2.902
50238W        W21767  33.820   5.207  11.589
50239W        W21768  15.009  25.243   2.213
50240W        W21769  15.633   8.284   3.581
50241W        W21770  27.449  34.830  12.435
50242W        W21771  38.748  19.187   1.882
50243W        W21772  39.402  11.571   0.984
50244W        W21773  13.317  31.666  12.181
50245W        W21774  29.567   3.928  10.630
50246W        W21775  43.305   7.484  14.938
50247W        W21776  29.955  29.897   1.387
50248W        W21777  23.728  36.677  14.530
50249W        W21778  28.157  38.389  11.280
50250W        W21779  24.282  41.529  11.667
50251W        W21780   8.752  21.461  11.493
50252W        W21781  28.121  14.351   0.339
50253W        W21782  16.605   9.712   3.479
50254W        W21783  30.213  29.945   4.850
50255W        W21784  41.585  19.182   3.798
50256W        W21785   4.644  19.587  12.076
50257W        W21786  27.290  21.604  12.527
50258W        W21787  28.839  11.666  13.838
50259W        W21788   2.993  42.811  12.959
50260W        W21789   5.945  29.480   3.374
50261W        W21790   4.946  30.938   1.974
50262W        W21791   6.991  42.692   1.867
50263W        W21792   1.317  33.522   0.658
50264W        W21793  24.476  41.260  13.822
50265W        W21794  14.765  34.144  10.613
50266W        W21795  18.997  19.475  14.745
50267W        W21796  33.497  24.542  10.920
50268W        W21797   1.940  17.716   2.348
50269W        W21798  10.037  28.945   4.195
50270W        W21799  21.922  30.978   1.791
50271W        W21800  22.590  22.596  11.187
50272W        W21801  38.921  37.138  11.289
50273W        W21802   1.749  19.640   2.422
50274W        W21803  42.521  39.899   3.687
50275W        W21804  34.549   0.628  11.740
50276W        W21805  18.499   5.873  13.915
50277W        W21806  11.755  14.891   0.851
50278W        W21807  31.328  37.088  11.203
50279W        W21808  28.268  43.819   0.395
50280W        W21809  33.786  25.966  13.834
50281W        W21810  18.995  30.644  13.259
50282W        W21811  33.678  40.779   0.845
50283W        W21812   0.658   4.950   1.805
50284W        W21813   6.018  24.201   1.312
50285W        W21814  18.080  30.565   2.022
50286W        W21815  36.015   8.120  11.107
50287W        W21816  24.238  13.564  12.008
50288W        W21817  16.974  19.944   4.041
50289W        W21818  13.166   3.935   2.322
50290W        W21819   1.488   7.689   1.284
50291W        W21820  43.952   4.088  13.990
50292W        W21821  25.691  36.382  13.854
50293W        W21822  36.232  12.239  11.646
50294W        W21823  10.095  30.848  11.541
50295W        W21824  13.244  43.995  10.444
50296W        W21825  34.884  19.090  12.177
50297W        W21826  22.255  10.389   3.627
50298W        W21827  35.487  29.781   3.025
50299W        W21828  31.431  26.145  14.980
50300W        W21829  32.125  16.189   4.393
50301W        W21830  40.111  37.999   3.224
50302W        W21831  25.232  36.273   4.853
50303W        W21832   8.347  40.376  11.111
50304W        W21833  37.964  34.075   0.307
50305W        W21834  15.301  24.607  10.728
50306W        W21835   3.678  31.579   1.233
50307W        W21836   0.165  35.196   4.294
50308W        W21837  19.007  43.317   3.962
50309W        W21838   3.374  23.246  12.461
50310W        W21839  34.835  21.110   4.515
50311W        W21840  39.537  35.880  13.870
50312W        W21841  41.446  21.310  13.003
50313W        W21842   8.594  14.092  10.158
50314W        W21843  27.000   5.915   4.657
50315W        W21844  24.799  13.396  11.062
50316W        W21845  30.896  40.296  13.574
50317W        W21846  39.895  31.772  11.192
50318W        W21847  42.332  29.087   3.243
50319W        W21848   6.603  23.545  13.362
50320W        W21849  12.867  33.248   4.706
50321W        W21850   0.409  40.973   3.649
50322W        W21851  23.662   6.309   2.792
50323W        W21852   8.668  30.504   2.745
50324W        W21853  30.377   2.768  13.382
50325W        W21854  38.037  26.773  14.892
50326W        W21855  14.786   6.138  13.204
50327W        W21856   1.481  11.450  14.344
50328W        W21857  29.940  14.548  14.460
50329W        W21858   2.784   9.789   1.408
50330W        W21859  27.460  13.647  11.412
50331W        W21860   6.305  30.140  13.847
50332W        W21861   2.217  42.329  11.225
50333W        W21862  12.701  22.256  12.529
50334W        W21863  21.153  11.704   0.948
50335W        W21864  24.230  13.431   3.606
50336W        W21865  13.225  35.088  14.725
50337W        W21866   1.543  37.070   1.355
50338W        W21867   2.193   4.480  12.980
50339W        W21868   3.934   6.641   3.614
50340W        W21869  26.233  17.615   3.018
50341W        W21870  14.117  29.718   3.219
50342W        W21871  12.598   9.480  10.596
50343W        W21872  31.643  31.981   1.640
50344W        W21873  36.319  40.880  11.525
50345W        W21874   0.427  32.642   0.391
50346W        W21875  31.018  41.860   4.114
50347W        W21876  29.980   0.484   0.582
50348W        W21877  33.171  11.265   4.166
50349W        W21878  14.507   0.850   1.867
50350W        W21879  35.006   7.425   1.773
50351W        W21880   7.183   6.681  14.219
50352W        W21881  26.999  16.307  11.589
50353W        W21882   5.402  34.490   4.424
50354W        W21883  16.886  28.183   3.380
50355W        W21884   5.665   0.871  11.992
50356W        W21885  19.094  15.185  13.522
50357W        W21886  20.447  25.705   1.475
50358W        W21887  37.459  14.833   3.324
50359W        W21888  42.490   6.658  10.730
50360W        W21889  23.439  30.114  13.008
50361W        W21890  11.325  31.975   2.615
50362W        W21891   8.755  13.397   0.503
50363W        W21892  10.776   3.969  14.924
50364W        W21893  15.889  40.714   2.147
50365W        W21894   5.903   4.375  11.969
50366W        W21895   6.763  18.328  13.033
50367W        W21896  41.214  22.962   0.782
50368W        W21897  29.446  30.997   3.670
50369W        W21898  13.210   3.215   1.011
50370W        W21899   5.021  29.188  14.858
50371W        W21900   3.887  14.121  11.729
50372W        W21901  10.631  21.132   3.559
50373W        W21902   4.584  16.618  11.075
50374W        W21903  24.116   6.261  10.631
50375W        W21904   3.585  37.691   0.841
50376W        W21905  43.811  30.907  12.948
50377W        W21906  41.292  11.632  12.930
50378W        W21907  19.068  32.341   3.511
50379W        W21908  32.861   1.565   0.647
50380W        W21909  27.943  17.192   2.833
50381W        W21910  36.413  39.728   4.818
50382W        W21911  27.543  20.611  12.892
50383W        W21912  23.509  19.113  13.472
50384W        W21913  10.336  26.098   3.250
50385W        W21914  17.197  27.197  13.348
50386W        W21915  38.539  39.018   3.583
50387W        W21916  21.534  20.971   1.383
50388W        W21917  12.252  32.416  13.079
50389W        W21918  16.639   6.498   2.169
50390W        W21919   0.373  42.713   3.135
50391W        W21920  12.823  27.749  11.033
50392W        W21921  15.547  22.535  14.420
50393W        W21922  19.095  42.761   2.777
50394W        W21923  24.160  37.059   3.946
50395W        W21924  21.185  35.473  11.652
50396W        W21925  43.361  35.452  14.924
50397W        W21926  35.438  34.612   1.905
50398W        W21927   6.206  31.631   1.406
50399W        W21928  21.779  17.211   1.401
50400W        W21929  16.931  20.192  11.392
50401W        W21930   3.145   0.027   3.710
50402W        W21931  34.650   0.183  14.829
50403W        W21932  27.394  10.817   2.402
50404W        W21933  29.895  42.957  12.472
50405W        W21934  16.833  32.074  12.575
50406W        W21935  29.962  15.259  13.571
50407W        W21936  10.950   3.431   1.846
50408W        W21937  40.728  28.050   3.252
50409W        W21938  33.925  24.082   3.058
50410W        W21939  31.685  22.267  14.954
50411W        W21940  41.365  41.761  12.607
50412W        W21941  34.054   2.474  14.442
50413W        W21942   2.910  11.098   0.032
50414W        W21943  22.203  17.689  13.316
50415W        W21944  21.085  29.117  10.102
50416W        W21945   2.182  40.109  13.095
50417W        W21946   0.922   1.994  12.612
50418W        W21947  32.102  18.090  13.391
50419W        W21948   6.144  12.351  11.130
50420W        W21949  19.673   2.722  14.206
50421W        W21950  27.900  16.741   2.197
50422W        W21951   8.618   4.803  13.923
50423W        W21952   4.126  33.134   0.052
50424W        W21953   5.182  41.529  14.474
50425W        W21954  34.327  25.545  11.172
50426W        W21955  28.610  39.371   4.587
50427W        W21956  40.450   3.166   4.894
50428W        W21957  29.210  17.144  14.380
50429W        W21958  14.609   3.069  12.030
50430W        W21959   4.643  28.083   0.454
50431W        W21960   8.930  39.385  12.769
50432W        W21961  16.511  20.258   3.819
50433W        W21962   9.419  14.226  11.510
50434W        W21963   5.794   0.066   3.527
50435W        W21964   4.302  13.601   0.946
50436W        W21965  43.864   2.516  11.018
50437W        W21966   8.376  14.774  10.432
50438W        W21967  14.331  25.209  11.367
50439W        W21968  19.300  12.196  10.405
50440W        W21969  28.691  38.314  12.054
50441W        W21970  40.832   7.421   2.695
50442W        W21971  11.457   8.848  11.126
50443W        W21972  19.557  25.689   2.148
50444W        W21973  21.142   9.147   4.261
50445W        W21974  15.580  38.803   0.216
50446W        W21975  25.430  36.337   0.784
50447W        W21976  42.000   3.439  13.452
50448W        W21977   4.687  44.490  10.534
50449W        W21978   9.215  30.595  13.883
50450W        W21979  37.000  30.188  14.849
50451W        W21980  28.897  41.715   1.757
50452W        W21981  12.534   9.498  13.067
50453W        W21982  23.409  15.710   3.251
50454W        W21983  23.280  40.376   2.157
50455W        W21984   4.210  30.190   2.439
50456W        W21985  15.247  37.013  12.188
50457W        W21986  21.933   1.844   0.787
50458W        W21987   6.083   9.167  11.185
50459W        W21988  26.674  32.131   0.816
50460W        W21989  10.310  10.280   3.229
50461W        W21990  31.936  40.450   3.849
50462W        W21991   4.272  12.094   3.642
50463W        W21992  19.672  40.865  12.561
50464W        W21993  12.661  34.985   0.319
50465W        W21994   3.675  32.450   3.350
50466W        W21995  39.436   8.558  11.493
50467W        W21996  17.700  31.079  11.339
50468W        W21997  40.983  22.040   4.553
50469W        W21998  39.602   7.304  12.607
50470W        W21999   1.790  44.795  14.778
50471W        W22000  34.322  36.456   4.309
50472W        W22001  19.252   0.538   4.127
50473W        W22002   1.577  18.318  13.853
50474W        W22003  24.449  26.707  13.785
50475W        W22004  40.533  18.820  11.191
50476W        W22005   8.197  40.054   0.788
50477W        W22006  19.724   4.443  11.133
50478W        W22007  24.208   4.300   1.202
50479W        W22008  28.420  40.364   4.815
50480W        W22009  22.439   1.484  13.065
50481W        W22010  17.731   1.696   3.749
50482W        W22011   5.256  26.484   2.294
50483W        W22012  13.077  41.999   2.925
50484W        W22013  17.348  39.536  14.859
50485W        W22014  40.849  19.021  11.586
50486W        W22015  21.665  38.451   0.627
50487W        W22016  27.890  10.170  10.489
50488W        W22017   4.954  39.320   0.814
50489W        W22018  11.561   9.271  12.082
50490W        W22019  44.577  15.774  14.715
50491W        W22020   1.425   0.405  13.784
50492W        W22021   8.127   9.158  13.506
50493W        W22022   4.424   6.489   3.749
50494W        W22023   4.689   2.820  11.838
50495W        W22024  44.051   9.782  14.305
50496W        W22025  37.634  18.576   4.132
50497W        W22026  27.510  17.777  13.532
50498W        W22027  24.085  12.778   2.309
50499W        W22028  16.653   5.690   4.391
50500W        W22029   6.729  21.959   4.094
50501W        W22030  24.177   6.817   3.579
50502W        W22031  26.046  11.761  14.055
50503W        W22032  22.675   1.401  11.639
50504W        W22033  19.591   7.776   0.162
50505W        W22034  35.131  20.468  13.920
50506W        W22035  20.192  21.123   4.668
50507W        W22036   8.917  22.996   3.238
50508W        W22037   8.083  18.775  13.531
50509W        W22038  31.651  31.853   0.808
50510W        W22039  32.506  36.099   0.259
50511W        W22040  24.622  27.032  10.906
50512W        W22041  29.891  32.851   3.539
50513W        W22042   9.719   6.277  12.970
50514W        W22043   1.915  20.243   4.139
50515W        W22044  35.328  37.457   0.777
50516W        W22045   8.042   9.040   3.304
50517W        W22046  18.570  22.558  10.582
50518W        W22047  33.003  20.238  13.991
50519W        W22048   1.025  15.614   0.505
50520W        W22049  14.298   2.631  12.057
50521W        W22050  16.537  32.134   0.317
50522W        W22051  40.354  22.152  14.512
50523W        W22052  38.539  18.448  13.964
50524W        W22053  41.402  32.022  11.487
50525W        W22054   0.329  38.893   1.763
50526W        W22055  15.835   6.546   5.035
50527W        W22056   0.784   0.631  12.825
50528W        W22057   1.734   2.850   0.309
50529W        W22058  29.168   3.912   4.348
50530W        W22059   1.966  15.140   2.396
50531W        W22060  31.827  31.463  14.906
50532W        W22061  18.255  20.774   4.294
50533W        W22062   4.499  28.685  10.810
50534W        W22063  21.011  21.579   3.897
50535W        W22064   8.789   0.756   4.017
50536W        W22065  37.872   4.885   2.138
50537W        W22066  15.047   1.819  13.309
50538W        W22067  36.082  40.509  11.994
50539W        W22068  33.388  16.287  13.262
50540W        W22069  21.535   2.564   3.747
50541W        W22070  16.041  10.708   4.055
50542W        W22071  19.498  34.901   2.190
50543W        W22072   6.936  23.227   4.580
50544W        W22073  21.423  34.697   1.398
50545W        W22074   3.847   0.912  14.879
50546W        W22075  12.080  12.563   3.611
50547W        W22076  33.389  26.018   2.242
50548W        W22077  20.085  19.734   2.866
50549W        W22078   4.745  26.983   2.899
50550W        W22079  15.233  27.540  10.490
50551W        W22080  36.412  10.729   4.686
50552W        W22081  21.658  31.000  13.346
50553W        W22082  28.957  20.193  12.424
50554W        W22083   9.360  40.895  10.780
50555W        W22084  36.487  18.215   4.045
50556W        W22085   1.222   9.648   1.328
50557W        W22086  23.702  23.116  13.391
50558W        W22087  25.535  20.696  11.586
50559W        W22088  24.564  25.275   0.999
50560W        W22089  20.980  24.659   1.963
50561W        W22090  42.325  41.574  10.635
50562W        W22091   7.458  10.204   2.907
50563W        W22092  30.967  33.450  12.360
50564W        W22093  21.141  43.795  10.703
50565W        W22094  28.517  18.858   3.524
50566W        W22095  40.279  43.031   0.461
50567W        W22096   5.334  20.378   1.436
50568W        W22097  11.905  20.618   2.779
50569W        W22098  42.876  28.132   0.531
50570W        W22099  15.842  15.718  10.755
50571W        W22100  26.494  15.606  11.879
50572W        W22101  44.995   8.910   0.688
50573W        W22102  34.896  36.905  11.924
50574W        W22103  35.647  44.701   2.397
50575W        W22104   4.665   3.942  12.131
50576W        W22105  15.481  27.635  11.502
50577W        W22106  11.874  44.095   2.803
50578W        W22107  36.798  16.266  11.590
50579W        W22108  13.763  20.350   2.637
50580W        W22109  13.142  10.611   2.766
50581W        W22110  21.188  43.360   0.707
50582W        W22111  17.550  21.338   1.914
50583W        W22112   6.410  22.645  11.949
50584W        W22113  17.302   8.156   3.246
50585W        W22114  42.432  25.728  12.125
50586W        W22115  42.214  25.234   3.161
50587W        W22116   9.851  19.695   3.854
50588W        W22117  12.260   5.413  12.456
50589W        W22118  33.925  22.667   4.884
50590W        W22119  42.753   2.784  14.808
50591W        W22120  19.789   0.029  14.304
50592W        W22121  38.376   5.390   2.717
50593W        W22122  27.551  17.104   0.932
50594W        W22123   0.476  34.097   3.042
50595W        W22124  26.001   8.846  13.366
50596W        W22125  15.429   6.103  14.764
50597W        W22126  35.366  10.690   0.747
50598W        W22127  38.745  10.269   0.766
50599W        W22128  32.753  43.675   2.408
50600W        W22129  30.044  44.495   0.939
50601W        W22130   9.788  37.065  14.066
50602W        W22131   9.065  42.848   3.628
50603W        W22132  44.105  30.449   1.468
50604W        W22133  41.616  22.305  13.913
50605W        W22134   2.673  42.898   2.216
50606W        W22135  30.175   2.431   3.645
50607W        W22136   2.847  20.581  11.644
50608W        W22137  21.727   5.372   0.468
50609W        W22138  43.701   3.376   2.257
50610W        W22139  19.377   9.169   1.335
50611W        W22140  25.261  15.577  13.476
50612W        W22141  28.655  30.590  11.271
50613W        W22142  19.224  18.722  14.871
50614W        W22143  30.875  14.657  10.712
50615W        W22144  39.710  22.063  10.742
50616W        W22145  12.257  20.210  12.806
50617W        W22146  25.060  25.873  12.519
50618W        W22147   5.724  35.965  14.103
50619W        W22148   6.102  39.621  12.077
50620W        W22149  30.150  27.056  10.870
50621W        W22150  40.402  19.197  10.564
50622W        W22151  25.159  23.006  12.337
50623W        W22152  10.667  26.924   2.763
50624W        W22153  14.843  30.486  12.087
50625W        W22154  43.616  42.335   1.961
50626W        W22155  18.267   2.409   3.118
50627W        W22156  23.642   3.388   1.162
50628W        W22157  42.765   2.928   1.727
50629W        W22158  28.227  14.734  12.798
50630W        W22159  17.701  30.424   3.728
50631W        W22160  43.422   9.633  13.431
50632W        W22161  16.296  23.099   4.731
50633W        W22162   6.601  32.471   1.021
50634W        W22163   6.113  42.817  12.607
50635W        W22164  34.915  25.019   3.160
50636W        W22165  11.223  40.550  10.637
50637W        W22166  24.497   9.206   4.176
50638W        W22167  43.579  19.476  13.423
50639W        W22168   6.978  33.381   0.406
50640W        W22169  39.238  36.757   2.340
50641W        W22170  14.713  22.119   2.821
50642W        W22171  39.474  13.062   1.719
50643W        W22172   7.185  32.951   2.354
50644W        W22173  33.430  42.252  11.878
50645W        W22174  13.251   3.571   4.887
50646W        W22175   3.936   5.147  11.594
50647W        W22176  23.781   0.167  14.729
50648W        W22177  42.818   5.449   4.512
50649W        W22178   6.779   2.926   0.210
50650W        W22179   3.870  25.446   2.777
50651W        W22180   8.288  32.456   3.179
50652W        W22181  23.614  33.094  13.586
50653W        W22182  25.045  44.943   2.605
50654W        W22183  17.840  40.559  11.981
50655W        W22184  21.094  21.782  13.867
50656W        W22185  18.782  25.048  11.515
50657W        W22186  35.867  19.335   0.872
50658W        W22187  22.349  22.973  13.620
50659W        W22188  19.656  36.744   2.469
50660W        W22189  27.864  24.190   3.560
50661W        W22190   9.361   4.331  11.969
50662W        W22191  13.755  24.113   2.899
50663W        W22192  13.294  44.473  11.407
50664W        W22193  10.063   3.186   4.850
50665W        W22194  13.433  23.284   4.130
50666W        W22195  44.543  25.224   0.869
50667W        W22196  28.578  34.087   2.172
50668W        W22197  27.588   9.035   2.668
50669W        W22198  36.499   7.216   2.581
50670W        W22199  30.745  43.904   4.291
50671W        W22200  30.640   3.935   1.315
50672W        W22201   1.713  40.559  11.785
50673W        W22202   4.172  15.764   0.392
50674W        W22203  40.385  20.033  14.944
50675W        W22204   0.822  38.646  14.964
50676W        W22205   5.209  31.635   9.993
50677W        W22206  19.681  24.879   3.707
50678W        W22207  33.966  33.482  11.266
50679W        W22208  40.736  42.784  12.959
50680W        W22209  41.730   9.939  11.611
50681W        W22210  10.178  20.677   4.664
50682W        W22211  42.947  25.639  11.408
50683W        W22212  23.503  15.732  11.146
50684W        W22213  15.848  25.520   4.034
50685W        W22214  29.117  37.416  14.790
50686W        W22215  20.128  11.304   5.019
50687W        W22216   4.212  33.746  12.227
50688W        W22217   3.021   9.574  11.440
50689W        W22218  36.594  16.250   3.274
50690W        W22219   2.869   9.351   2.783
50691W        W22220  42.265   2.330   1.763
50692W        W22221   3.254  33.513  11.199
50693W        W22222   0.175   1.884   1.855
50694W        W22223  33.672  40.983  13.115
50695W        W22224  14.044   5.365   3.716
50696W        W22225  40.938   0.122  12.295
50697W        W22226  41.621  28.790   0.815
50698W        W22227  26.428  14.101  12.078
50699W        W22228  21.994  13.155   3.737
50700W        W22229  25.383  36.923   1.620
50701W        W22230   2.313  33.661   3.909
50702W        W22231  11.166  41.015   0.952
50703W        W22232   9.766  40.934  13.405
50704W        W22233  11.261  35.546  14.952
50705W        W22234   1.747  31.941  11.114
50706W        W22235  40.977  10.238   2.304
50707W        W22236   8.440  33.160  13.851
50708W        W22237  30.595  25.887  11.783
50709W        W22238  35.081  34.975   1.286
50710W        W22239  23.193  27.741  11.993
50711W        W22240  40.758  16.022   1.915
50712W        W22241  42.032  39.894  10.583
50713W        W22242  13.747   6.459   0.779
50714W        W22243   6.151  42.573  13.055
50715W        W22244  29.117  17.691   3.870
50716W        W22245  14.370  11.459   3.319
50717W        W22246  43.479  21.401   1.625
50718W        W22247  24.320   8.184  14.829
50719W        W22248   4.863   2.052  12.426
50720W        W22249   1.838  18.258   0.029
50721W        W22250  26.615   6.437   2.576
50722W        W22251  26.557   4.836  13.834
50723W        W22252   7.872  16.632   1.464
50724W        W22253   8.944  40.383   2.721
50725W        W22254  22.616   7.797  14.573
50726W        W22255  28.425  40.265   0.860
50727W        W22256   1.394  38.032  11.253
50728W        W22257  15.204  11.799  11.548
50729W        W22258  26.224  42.656   2.722
50730W        W22259  44.174  41.793   3.100
50731W        W22260  11.263  22.652  10.497
50732W        W22261  22.442  22.235  12.988
50733W        W22262  23.760  24.152  14.910
50734W        W22263  38.334   8.431  10.636
50735W        W22264  38.008  33.439   0.024
50736W        W22265   3.018  38.597  12.744
50737W        W22266   4.131   3.474   0.251
50738W        W22267  35.487  41.252  12.919
50739W        W22268  32.692  28.989  12.607
50740W        W22269  34.906  10.844  14.194
50741W        W22270  39.563  28.368   4.600
50742W        W22271  43.449  21.224   2.141
50743W        W22272   2.424   1.802  10.947
50744W        W22273  21.991  24.194  11.871
50745W        W22274  30.891   7.905  10.999
50746W        W22275   8.858   8.777   1.502
50747W        W22276  34.572  41.740  12.704
50748W        W22277   4.709   5.765  12.451
50749W        W22278  38.109  10.025  12.299
50750W        W22279   3.757  19.954  14.079
50751W        W22280  20.908  33.572   4.180
50752W        W22281  14.262  24.605  14.430
50753W        W22282   1.221   3.340   2.364
50754W        W22283  24.028   7.387   4.942
50755W        W22284  21.468  35.453  11.196
50756W        W22285   7.748   9.958   4.119
50757W        W22286   7.572  32.212  10.770
50758W        W22287  38.828   9.834   2.921
50759W        W22288  44.400  32.089  10.789
50760W        W22289  25.060  25.738  13.410
50761W        W22290  13.185   8.717  13.854
50762W        W22291  22.206  20.070  13.564
50763W        W22292  40.400   1.458  10.734
50764W        W22293   6.640  37.466   4.160
50765W        W22294  39.550  23.252  12.569
50766W        W22295  18.877  41.049   3.447
50767W        W22296  11.511  41.986  11.657
50768W        W22297  30.968   3.253   3.727
50769W        W22298  20.766  33.025   3.784
50770W        W22299  32.182  35.070   3.121
50771W        W22300  19.199   3.030   4.263
50772W        W22301  16.239  22.255   4.990
50773W        W22302  17.626  43.213  11.833
50774W        W22303   8.348  24.881  14.943
50775W        W22304  38.005  43.590  13.858
50776W        W22305  44.254  36.716   4.186
50777W        W22306  10.687   9.916   2.388
50778W        W22307   8.100   8.889   4.193
50779W        W22308  31.051   9.412  11.091
50780W        W22309  29.609  37.162  11.593
50781W        W22310  36.613  16.227   1.976
50782W        W22311   0.289   2.951   4.197
50783W        W22312  33.930  44.437  10.995
50784W        W22313  44.797  25.484  14.755
50785W        W22314  26.449  17.127   2.898
50786W        W22315   2.746  20.992   1.934
50787W        W22316   9.878  27.620  12.885
50788W        W22317  43.555  18.870   0.225
50789W        W22318  27.425  29.119  11.600
50790W        W22319  27.123  30.153   2.853
50791W        W22320  18.593  11.410  14.115
50792W        W22321  39.122   3.962  11.126
50793W        W22322  19.227  39.512  11.787
50794W        W22323  42.596  21.741  14.439
50795W        W22324  31.947  35.207   1.872
50796W        W22325   9.625  21.724   1.335
50797W        W22326   4.434   0.699  13.785
50798W        W22327  17.282  14.828   0.224
50799W        W22328  32.129  40.916   3.166
50800W        W22329  20.712  21.600   0.699
50801W        W22330  23.340  21.439  10.224
50802W        W22331  13.804  39.333  13.450
50803W        W22332  16.226  18.590   0.325
50804W        W22333  39.277  41.113  13.420
50805W        W22334  44.133   0.864  11.500
50806W        W22335  30.172  22.256  11.686
50807W        W22336  33.559  37.405  13.210
50808W        W22337  27.518  19.473   1.802
50809W        W22338  14.038  35.016  13.515
50810W        W22339  35.964   7.228   4.623
50811W        W22340  14.423  12.226  11.164
50812W        W22341   2.438  14.652   4.081
50813W        W22342  15.451   1.121   1.950
50814W        W22343  34.422   6.783   2.154
50815W        W22344  24.437  33.931  11.143
50816W        W22345  10.575  36.938  12.664
50817W        W22346  20.591   7.600  11.121
50818W        W22347  18.598   9.858   3.718
50819W        W22348  32.025  10.271   3.012
50820W        W22349   2.739   1.484  11.744
50821W        W22350  35.149  10.674   1.281
50822W        W22351  25.114   8.218   4.118
50823W        W22352  20.755   6.165  12.134
50824W        W22353   8.805  34.682  10.989
50825W        W22354  13.350   8.336  14.623
50826W        W22355  22.997  39.777  13.838
50827W        W22356  43.504  28.931   1.383
50828W        W22357   5.572  29.530  13.959
50829W        W22358  36.486   6.382  10.916
50830W        W22359  22.256  12.906  12.498
50831W        W22360   8.965  24.328   3.161
50832W        W22361  37.935  34.838  12.460
50833W        W22362  31.134  28.493   1.436
50834W        W22363  38.994  39.244   3.730
50835W        W22364  44.336  34.816  11.443
50836W        W22365  16.297  44.897   3.559
50837W        W22366  20.971  22.265  13.108
50838W        W22367  18.710  21.633   2.503
50839W        W22368  32.040  20.001   0.404
50840W        W22369  35.577  44.010  10.633
50841W        W22370  44.700  11.471  11.659
50842W        W22371   8.541  39.977  13.858
50843W        W22372  10.314  27.509  13.190
50844W        W22373   7.601  28.927   0.742
50845W        W22374  24.779  42.928  11.845
50846W        W22375  13.875  27.630   1.450
50847W        W22376   3.515  24.770  13.525
50848W        W22377  33.200   9.774  12.393
50849W        W22378  10.322  38.724  11.962
50850W        W22379  14.000  36.064   3.554
50851W        W22380  43.244   2.632  14.829
50852W        W22381   9.968   2.629   0.750
50853W        W22382  10.258  11.014   4.557
50854W        W22383  43.781  38.384   3.227
50855W        W22384  36.160  10.590   0.426
50856W        W22385  28.177  28.017   0.751
50857W        W22386  22.697   5.956   4.214
50858W        W22387  17.167  25.518  12.069
50859W        W22388   0.990  38.616   3.616
50860W        W22389   2.133  20.473  11.504
50861W        W22390  27.528  12.006  12.414
50862W        W22391  41.996  31.971  12.475
50863W        W22392  39.096  21.095   1.943
50864W        W22393  37.834  39.479   4.550
50865W        W22394   4.789  11.359  12.887
50866W        W22395  12.465  32.373  13.804
50867W        W22396  10.816  11.945   2.776
50868W        W22397  37.701  35.530   2.800
50869W        W22398  33.423  41.786  10.669
50870W        W22399  34.218  37.284  12.382
50871W        W22400  20.466  17.645   1.243
50872W        W22401  29.618  40.419   5.019
50873W        W22402  41.303  43.831   2.823
50874W        W22403   0.761  37.081   1.340
50875W        W22404  24.228  17.157   3.784
50876W        W22405  33.906   1.860   4.736
50877W        W22406  29.247  37.912  14.138
50878W        W22407  37.253  19.679   3.721
50879W        W22408  22.105  15.027   3.099
50880W        W22409  12.170  18.237   2.462
50881W        W22410  44.238  28.134   0.439
50882W        W22411  19.830  42.956   2.260
50883W        W22412  14.790  32.377   3.115
50884W        W22413  17.160   2.990   4.565
50885W        W22414  29.003  24.496   0.982
50886W        W22415   3.414  13.888   2.254
50887W        W22416  18.170  30.636   5.423
50888W        W22417   0.999  30.503  11.016
50889W        W22418  31.184   8.758  13.821
50890W        W22419  42.902  26.430  14.895
50891W        W22420  26.702  32.779   2.150
50892W        W22421  22.126  32.295   3.607
50893W        W22422  42.428  31.176  13.898
50894W        W22423  26.767  27.962   0.320
50895W        W22424  13.732  24.578   2.105
50896W        W22425  29.920  16.127   2.270
50897W        W22426  14.532  42.772  10.052
50898W        W22427  29.715  44.637   0.465
50899W        W22428  13.615  16.130  13.916
50900W        W22429  23.198  41.045   2.005
50901W        W22430  37.675  24.191   1.743
50902W        W22431   2.406  13.286  14.956
50903W        W22432  34.497  33.933  11.824
50904W        W22433   4.795   6.614   0.974
50905W        W22434  18.209   4.562   3.279
50906W        W22435  36.146  14.181  11.613
50907W        W22436  39.918  35.260  12.797
50908W        W22437   1.199   2.480   3.837
50909W        W22438   2.417  25.252   4.219
50910W        W22439  33.530   8.560   3.371
50911W        W22440  30.357   8.101   0.395
50912W        W22441  37.910   6.425  14.130
50913W        W22442   8.618  30.524  11.147
50914W        W22443   4.336  27.491   1.162
50915W        W22444  20.961  41.577  13.588
50916W        W22445  26.107  35.860   2.852
50917W        W22446  26.210  40.451  12.164
50918W        W22447  17.305  25.531   3.158
50919W        W22448  39.949  21.636  13.555
50920W        W22449  30.462   7.583  11.953
50921W        W22450  13.717  33.936  14.439
50922W        W22451  15.826  28.637  13.079
50923W        W22452  44.928   3.426  14.445
50924W        W22453   5.360  19.126  14.818
50925W        W22454  39.844  34.065   2.109
50926W        W22455   7.387  26.246   4.547
50927W        W22456  32.440  23.012  14.284
50928W        W22457  15.558  42.232  11.139
50929W        W22458  31.289  37.125   3.074
50930W        W22459  43.011  26.115   4.201
50931W        W22460   5.172  42.889   2.722
50932W        W22461  39.873   7.879  12.920
50933W        W22462  16.191  22.163   0.463
50934W        W22463  14.260  31.427   3.728
50935W        W22464  41.604  19.570  14.793
50936W        W22465   3.410  41.226   2.702
50937W        W22466  37.374  22.689  13.594
50938W        W22467  39.457   0.722   4.098
50939W        W22468  12.177  15.809  12.953
50940W        W22469  27.621  21.949   4.780
50941W        W22470  20.488   9.923  12.538
50942W        W22471  30.039  43.031  14.060
50943W        W22472  18.793  40.069  10.663
50944W        W22473  37.187   6.379   0.982
50945W        W22474  26.718  14.604   1.944
50946W        W22475   9.713   0.699   2.555
50947W        W22476  25.729  17.195   1.048
50948W        W22477   7.179  39.175   3.100
50949W        W22478  43.755   0.211  13.056
50950W        W22479  32.465   2.034  12.497
50951W        W22480  35.485  11.615  13.067
50952W        W22481  41.556  22.136   0.967
50953W        W22482   5.749  42.505  14.897
50954W        W22483   4.005  30.331   0.431
50955W        W22484   8.284  23.689   1.408
50956W        W22485   0.581   9.307  11.152
50957W        W22486  38.623  40.527  14.411
50958W        W22487   4.015   7.990  12.554
50959W        W22488  27.859   6.745  10.791
50960W        W22489   0.165  39.724   2.358
50961W        W22490  41.695  30.119   4.603
50962W        W22491  37.044  18.013  11.711
50963W        W22492  30.421   6.224   4.289
50964W        W22493   6.542  17.989  14.293
50965W        W22494  10.716  15.538  12.590
50966W        W22495  30.452  30.805  11.443
50967W        W22496  22.058  15.526   3.190
50968W        W22497  14.157   8.266   3.431
50969W        W22498  44.455  22.946   1.319
50970W        W22499   9.891  40.991  11.475
50971W        W22500   8.495   1.269  11.520
50972W        W22501   8.228  26.095   3.405
50973W        W22502  16.475  11.608   0.825
50974W        W22503  19.994  24.761   2.830
50975W        W22504  38.501  33.093   0.837
50976W        W22505  19.204   8.374  10.727
50977W        W22506  25.272  30.970   4.151
50978W        W22507  43.837  33.919   4.542
50979W        W22508  18.101  27.476   2.765
50980W        W22509  38.484   5.708  14.455
50981W        W22510  16.123  14.050  14.974
50982W        W22511  33.035  27.628  11.023
50983W        W22512  41.966  41.507  13.657
50984W        W22513   0.926  39.367  12.177
50985W        W22514   8.191  31.896   4.898
50986W        W22515  37.415  41.368   1.291
50987W        W22516   4.326  19.973  12.054
50988W        W22517  35.661  35.051  14.627
50989W        W22518   1.859  29.197  14.732
50990W        W22519  41.320   4.348  10.700
50991W        W22520  17.781  38.226   4.596
50992W        W22521  26.782  22.425   4.203
50993W        W22522   1.955  12.826  10.657
50994W        W22523  30.824  35.325  12.089
50995W        W22524  16.181   7.089  14.889
50996W        W22525   0.024  22.082   1.457
50997W        W22526   2.336   3.868   4.846
50998W        W22527  14.031  27.995  11.758
50999W        W22528  29.561   5.469  14.462
51000W        W22529   5.765  19.046   0.764
51001W        W22530   1.243  40.438   0.229
51002W        W22531  39.919  22.988   4.559
51003W        W22532  19.990  12.383   3.856
51004W        W22533   0.441  23.260   3.655
51005W        W22534   2.676  26.358  13.485
51006W        W22535  34.052  29.492   0.225
51007W        W22536  27.672   3.567   4.832
51008W        W22537  41.521  44.813   4.763
51009W        W22538  29.122  16.136   2.388
51010W        W22539  34.478   3.033   2.483
51011W        W22540  24.597  20.045  12.952
51012W        W22541  38.985   8.650   4.605
51013W        W22542  41.790  41.927  13.887
51014W        W22543  21.617   8.442  12.451
51015W        W22544  16.658  40.947   0.856
51016W        W22545  42.804  41.356   4.074
51017W        W22546  26.407  22.836   2.063
51018W        W22547  27.710  30.260   4.429
51019W        W22548  38.072  24.956  11.045
51020W        W22549  41.514  20.344   0.359
51021W        W22550  37.023   4.303   4.113
51022W        W22551  13.308  10.357   1.755
51023W        W22552  42.272  17.262   3.334
51024W        W22553  34.544   0.265  14.315
51025W        W22554  33.891  37.088   3.228
51026W        W22555  23.498   2.364  13.161
51027W        W22556  40.564   6.235   2.869
51028W        W22557  36.805  40.396   4.225
51029W        W22558  24.202  27.611  13.569
51030W        W22559   0.960  16.404  14.368
51031W        W22560  26.535  35.200   4.837
51032W        W22561  26.892   1.183   2.760
51033W        W22562  20.056  16.376   1.930
51034W        W22563  16.736  21.231  13.349
51035W        W22564  27.654  32.437   0.990
51036W        W22565  20.660  42.835  11.930
51037W        W22566  39.776  40.269   4.158
51038W        W22567  26.583  43.618   2.881
51039W        W22568  40.008  14.732  10.675
51040W        W22569  44.327  36.139  12.003
51041W        W22570  42.750   7.156   0.712
51042W        W22571   1.439   6.142   2.700
51043W        W22572  23.136  33.076   1.742
51044W        W22573  37.522  10.427   0.360
51045W        W22574  21.712  30.906  13.835
51046W        W22575  30.091  33.166   2.325
51047W        W22576   4.194  37.578  13.277
51048W        W22577  25.712  44.811  14.878
51049W        W22578  23.487   3.208  13.800
51050W        W22579  26.623  27.740  13.875
51051W        W22580  15.611  17.008  12.833
51052W        W22581  38.898  25.042   0.492
51053W        W22582  29.646  29.170   3.196
51054W        W22583  12.358   1.425   5.202
51055W        W22584  33.928  39.824   4.288
51056W        W22585  12.260   1.383   4.315
51057W        W22586  37.382  19.132  13.428
51058W        W22587  11.082  34.587  14.767
51059W        W22588   1.974  26.464  13.878
51060W        W22589  13.512  17.287   5.265
51061W        W22590  14.350   6.830  10.485
51062W        W22591   8.425  17.385   4.190
51063W        W22592  21.343  19.280   1.201
51064W        W22593  34.454  31.116   2.633
51065W        W22594  24.771  30.146  14.368
51066W        W22595  34.441  37.940  12.098
51067W        W22596  37.627  43.039   3.269
51068W        W22597   2.083   9.058   2.569
51069W        W22598  44.970   4.704   0.795
51070W        W22599  22.232  34.232  13.372
51071W        W22600  30.700  10.675   2.823
51072W        W22601  12.048  33.179  14.420
51073W        W22602  28.584  17.458  12.305
51074W        W22603  12.905  32.666   2.432
51075W        W22604  37.598  42.717   0.760
51076W        W22605  14.199  31.861   0.185
51077W        W22606  35.488  41.520   1.840
51078W        W22607  29.666  44.847  11.067
51079W        W22608  28.932   9.802   0.357
51080W        W22609  14.261  10.406   1.787
51081W        W22610  12.953   5.918   3.036
51082W        W22611  12.117   5.952   1.867
51083W        W22612  22.054  41.299  12.444
51084W        W22613  35.467  29.804   0.721
51085W        W22614  33.064  14.749   4.861
51086W        W22615  29.615  21.167  12.378
51087W        W22616   7.643  17.725   4.562
51088W        W22617  30.988  38.024   1.096
51089W        W22618  30.059  27.139   4.628
51090W        W22619  26.091   3.250  11.684
51091W        W22620   2.426  42.915   3.622
51092W        W22621  38.467  35.009  11.207
51093W        W22622  28.677  29.975  10.733
51094W        W22623  10.219  28.626  14.710
51095W        W22624  40.582  11.584  13.894
51096W        W22625  38.339  40.027  10.377
51097W        W22626  16.179  10.307   2.624
51098W        W22627  43.047  11.306  13.283
51099W        W22628  32.872  22.229  13.838
51100W        W22629   1.725  26.412  12.938
51101W        W22630  34.411   7.987  12.626
51102W        W22631  41.468   5.232  14.344
51103W        W22632   5.717   0.225   0.478
51104W        W22633  39.792  39.869   1.393
51105W        W22634  16.667   8.339  11.954
51106W        W22635  17.444  15.305  13.006
51107W        W22636  31.527  29.356  13.007
51108W        W22637  11.714  40.483   4.537
51109W        W22638  15.558  14.458   5.062
51110W        W22639  20.486  27.812   5.068
51111W        W22640  36.998  24.903   4.232
51112W        W22641  17.116  36.997  11.837
51113W        W22642  27.138  20.330  14.452
51114W        W22643  14.125  29.218   4.102
51115W        W22644  39.027  41.252   1.254
51116W        W22645   9.310   4.495   0.935
51117W        W22646  20.928  33.182   2.477
51118W        W22647  26.235  31.078   2.615
51119W        W22648  15.734  15.976  13.018
51120W        W22649  15.814  16.328   1.804
51121W        W22650  13.087  27.896  14.387
51122W        W22651  43.695  24.447   1.568
51123W        W22652   5.795  33.683  12.014
51124W        W22653  19.309  36.647  12.189
51125W        W22654  14.849  27.022   1.942
51126W        W22655  18.935  36.787  14.154
51127W        W22656  29.928  39.326  13.060
51128W        W22657  31.100  38.503  10.699
51129W        W22658  34.441  44.113  13.123
51130W        W22659   8.207  42.132  11.866
51131W        W22660   5.600   8.162  11.499
51132W        W22661  19.028   5.741  12.578
51133W        W22662  24.098  32.935   1.025
51134W        W22663  42.277  13.165   1.467
51135W        W22664   6.377  27.576   4.420
51136W        W22665  21.912  21.777   1.409
51137W        W22666   2.622  18.325  10.273
51138W        W22667  37.304   5.374  14.770
51139W        W22668  26.567  15.323   4.033
51140W        W22669  44.771  25.724   1.746
51141W        W22670  26.404  34.447  11.702
51142W        W22671  37.546  21.880  12.424
51143W        W22672  30.881   1.313   1.696
51144W        W22673   8.621  42.271  11.600
51145W        W22674   3.821  15.157   2.667
51146W        W22675  25.887   3.784   2.333
51147W        W22676  33.936  16.288  10.642
51148W        W22677  26.117  36.113  11.059
51149W        W22678  10.205  22.090   1.872
51150W        W22679  18.034  38.099  12.533
51151W        W22680  36.826  26.803  14.366
51152W        W22681  40.785  16.801  10.685
51153W        W22682  40.125  13.736   4.679
51154W        W22683  43.540   7.401   1.826
51155W        W22684   8.414   8.702  12.566
51156W        W22685  22.746  38.911   0.476
51157W        W22686   7.313  27.932   3.181
51158W        W22687  41.332   5.403  12.387
51159W        W22688  33.497  20.282   0.254
51160W        W22689   1.311  32.005  14.351
51161W        W22690  18.270  35.713  11.110
51162W        W22691  27.156  44.002   4.710
51163W        W22692  40.981   8.359   3.551
51164W        W22693   3.939   8.298  11.326
51165W        W22694   0.532  16.456  12.012
51166W        W22695  23.248  38.773   0.360
51167W        W22696  19.240  14.171   3.628
51168W        W22697  44.393  32.695   2.821
51169W        W22698  34.597  26.110   2.455
51170W        W22699  39.372  38.438  10.248
51171W        W22700  30.667   1.239   1.221
51172W        W22701  17.229  25.658   4.721
51173W        W22702   1.775  21.402  14.758
51174W        W22703  20.187   0.755   3.333
51175W        W22704  21.315  28.609   0.345
51176W        W22705   5.829  19.574   0.795
51177W        W22706  33.716  30.338   2.769
51178W        W22707  26.061  35.936   4.374
51179W        W22708  12.562  44.354  13.087
51180W        W22709   6.648  39.605   2.301
51181W        W22710   6.491  19.661  14.387
51182W        W22711  30.069  10.809  10.434
51183W        W22712  29.272  18.343   1.338
51184W        W22713  43.453  39.419   4.095
51185W        W22714  43.675   1.119   4.922
51186W        W22715  15.245  30.019   4.933
51187W        W22716  22.660   2.757   2.230
51188W        W22717  44.760   9.451   1.121
51189W        W22718  33.454  43.790  12.155
51190W        W22719  26.632  28.888   1.243
51191W        W22720   5.214  18.818  13.888
51192W        W22721  31.066  27.443   1.729
51193W        W22722  43.299  30.121  14.358
51194W        W22723   7.127  28.005   3.674
51195W        W22724  26.487  39.521  14.174
51196W        W22725   3.216  20.778  14.011
51197W        W22726  11.918  33.421   5.189
51198W        W22727   5.784  35.950   3.270
51199W        W22728  44.876  18.055  13.570
51200W        W22729  42.406  15.270   4.470
51201W        W22730   1.694  20.751   2.828
51202W        W22731  10.792  30.378   2.752
51203W        W22732   5.410  42.005   1.708
51204W        W22733   0.698  16.553   2.243
51205W        W22734   0.821  14.190   4.625
51206W        W22735  29.867  23.184   2.651
51207W        W22736   0.820   8.169  13.490
51208W        W22737  24.482  34.323   3.254
51209W        W22738   7.151  17.750  13.417
51210W        W22739  10.847   6.088  14.028
51211W        W22740  15.810   8.101   5.021
51212W        W22741   9.170  34.972  12.600
51213W        W22742  31.926  29.683  12.486
51214W        W22743  12.567  12.789  14.693
51215W        W22744   3.012   1.892   2.310
51216W        W22745  14.349  35.853  10.912
51217W        W22746  31.915  37.552   3.911
51218W        W22747  35.352  27.902   0.859
51219W        W22748  35.021   6.231   2.269
51220W        W22749   5.289  31.437   2.666
51221W        W22750  30.669   5.255   0.709
51222W        W22751   9.890  10.370  14.913
51223W        W22752  12.715  16.799  12.038
51224W        W22753  10.114   6.411   3.212
51225W        W22754  17.737   3.914  14.352
51226W        W22755  30.123  38.756   1.518
51227W        W22756  19.327  21.795   1.722
51228W        W22757  44.728   4.853  14.471
51229W        W22758  34.160  44.326   4.094
51230W        W22759  43.856  21.226   1.003
51231W        W22760  16.734  19.850   2.279
51232W        W22761  37.400   9.316   4.267
51233W        W22762  31.914  27.185  11.529
51234W        W22763   4.247  43.499   3.348
51235W        W22764  18.323  21.664  13.505
51236W        W22765  18.769  28.566  14.695
51237W        W22766  27.658  27.223   2.098
51238W        W22767  32.346  19.245  11.999
51239W        W22768  21.613  18.071  14.051
51240W        W22769  23.708  33.388  12.195
51241W        W22770  21.973  37.909  11.580
51242W        W22771  17.084  15.614   2.770
51243W        W22772  13.231  28.054  13.895
51244W        W22773   3.377  20.588   1.865
51245W        W22774  38.119   5.903  11.153
51246W        W22775  44.766  27.999  13.998
51247W        W22776  15.799  17.593  13.070
51248W        W22777  21.351   4.750   0.197
51249W        W22778  40.343  21.131  10.229
51250W        W22779   7.183  17.796  14.341
51251W        W22780   6.303   8.169   0.149
51252W        W22781   6.830  33.589   5.009
51253W        W22782  41.263  28.647   2.805
51254W        W22783  42.471  29.098  13.425
51255W        W22784  37.877   1.299  12.678
51256W        W22785  20.907   9.326  13.605
51257W        W22786  17.592  14.772   0.966
51258W        W22787  15.827  16.429   0.842
51259W        W22788  43.387   8.452   4.597
51260W        W22789  44.395  21.006  14.545
51261W        W22790   2.431  30.872   1.306
51262W        W22791  14.284  33.460  11.272
51263W        W22792  14.788  38.385   2.773
51264W        W22793  39.080   8.984   2.315
51265W        W22794   9.944  18.550  10.650
51266W        W22795  22.526   6.711   3.207
51267W        W22796   1.194  39.376  13.869
51268W        W22797  31.518  35.527  12.603
51269W        W22798   0.379  32.338  12.472
51270W        W22799   2.343  25.503  10.687
51271W        W22800  40.500  34.122  12.823
51272W        W22801  23.841  39.136  11.948
51273W        W22802  34.090   7.214   4.241
51274W        W22803   6.333  42.120  11.702
51275W        W22804   2.019   1.983   0.359
51276W        W22805  28.699  22.136  13.294
51277W        W22806   8.234  29.644   1.769
51278W        W22807  16.036  12.500   1.795
51279W        W22808  43.213  39.865   0.683
51280W        W22809  27.541   6.600  10.419
51281W        W22810  31.357   8.975  10.150
51282W        W22811   5.746   3.781   3.791
51283W        W22812  11.333  31.161   4.084
51284W        W22813  25.958  33.576   1.199
51285W        W22814  26.662  24.179   4.123
51286W        W22815  22.241  25.702  13.940
51287W        W22816   1.275  44.453  11.604
51288W        W22817  44.542  37.505  13.097
51289W        W22818   1.354  11.781   4.555
51290W        W22819  20.135  11.036  14.956
51291W        W22820  31.635  22.385   1.340
51292W        W22821   4.207  38.944   2.729
51293W        W22822  10.902   0.491   0.004
51294W        W22823  10.380  13.173  11.541
51295W        W22824  34.932   1.249   4.193
51296W        W22825  22.899  10.143  10.474
51297W        W22826   0.730  31.089  12.209
51298W        W22827   4.219   3.396  12.522
51299W        W22828  44.035  10.922  13.427
51300W        W22829  14.052  23.060  13.947
51301W        W22830  29.947  18.728   0.826
51302W        W22831  32.582  17.833   1.259
51303W        W22832  29.692   1.157  12.652
51304W        W22833   2.807  33.772   4.057
51305W        W22834   7.798  26.235   4.221
51306W        W22835  23.014  12.769   3.160
51307W        W22836  28.351  34.327   0.845
51308W        W22837  29.441  20.262   4.292
51309W        W22838  42.872   4.619  12.542
51310W        W22839  20.290  23.843  12.068
51311W        W22840   3.305  30.666   0.458
51312W        W22841  25.015   3.266  14.541
51313W        W22842  31.483  40.628   4.014
51314W        W22843  10.094   4.853   4.069
51315W        W22844  10.180   6.535  12.025
51316W        W22845  31.607   2.780   2.778
51317W        W22846  23.064  29.696   2.276
51318W        W22847   6.100   9.653  14.843
51319W        W22848   2.799   7.860   2.919
51320W        W22849  20.298  17.778   4.781
51321W        W22850  28.276  39.197   3.254
51322W        W22851  10.326  22.048  11.562
51323W        W22852  39.949  18.517   4.569
51324W        W22853  16.708   5.149   1.911
51325W        W22854  15.730  24.621   1.905
51326W        W22855  28.190  12.474   1.344
51327W        W22856  42.474  28.053   4.748
51328W        W22857  33.575  25.040   2.983
51329W        W22858  25.710  37.880   3.214
51330W        W22859  27.519   9.337   2.246
51331W        W22860  34.069  36.781  11.520
51332W        W22861  34.310  32.501   0.959
51333W        W22862  25.424  25.468   3.564
51334W        W22863   1.671  14.635  14.315
51335W        W22864   0.012   5.736  10.661
51336W        W22865  16.856  22.232  12.135
51337W        W22866   6.170   9.464  12.545
51338W        W22867  23.618   9.629   4.553
51339W        W22868  42.968  17.355   1.690
51340W        W22869  41.471  15.738  10.574
51341W        W22870  29.628   1.535  14.775
51342W        W22871  13.371  18.247  12.916
51343W        W22872   4.765  27.941   4.036
51344W        W22873  32.868  40.089  14.971
51345W        W22874  28.977  21.465   1.649
51346W        W22875  41.013  44.262   4.371
51347W        W22876   4.227  44.955  14.897
51348W        W22877  22.521  29.238  12.997
51349W        W22878  12.062  19.517   0.321
51350W        W22879   3.357   1.716   4.479
51351W        W22880  28.113  33.110   4.179
51352W        W22881  43.273  36.014  11.955
51353W        W22882  17.330   5.167   3.983
51354W        W22883  33.561  17.017  14.306
51355W        W22884  26.019   0.413   1.755
51356W        W22885  44.436  42.267  12.055
51357W        W22886  21.606  43.932   4.547
51358W        W22887  42.616  36.195   2.909
51359W        W22888  34.100  17.257   1.692
51360W        W22889  31.597  10.304  14.347
51361W        W22890  44.895   6.368  12.975
51362W        W22891   6.835  26.524   3.698
51363W        W22892  44.990  30.908  13.331
51364W        W22893  16.471  30.548   2.709
51365W        W22894  44.782   2.179  13.113
51366W        W22895   2.261  40.948  11.386
51367W        W22896  10.508  26.486  13.591
51368W        W22897  11.579  25.068   2.695
51369W        W22898  13.784  40.821  13.464
51370W        W22899   2.345  38.840  11.713
51371W        W22900  35.458  24.569   4.105
51372W        W22901  14.989  10.888  14.311
51373W        W22902  11.658  43.003  12.535
51374W        W22903  24.773  30.421  11.637
51375W        W22904  28.367  37.110   4.157
51376W        W22905  43.615  35.343  14.474
51377W        W22906  16.680  23.703  13.363
51378W        W22907  37.476  16.314  14.009
51379W        W22908  34.304  43.889   0.025
51380W        W22909  19.002  11.685  10.745
51381W        W22910   4.303  35.366  14.885
51382W        W22911  35.534  38.275  14.422
51383W        W22912  37.611   3.231  10.197
51384W        W22913   1.930  26.498  12.476
51385W        W22914  35.850  13.821  10.683
51386W        W22915  41.290  36.033  14.755
51387W        W22916  42.067  42.781   2.845
51388W        W22917  23.701  36.460   1.857
51389W        W22918  25.576  34.060  12.457
51390W        W22919  43.119  38.633   2.841
51391W        W22920   6.476  28.427  13.026
51392W        W22921  18.529  32.452  10.571
51393W        W22922  34.656  27.344  11.132
51394W        W22923  19.287  24.525   3.688
51395W        W22924  22.670  44.739   4.957
51396W        W22925  17.307  22.311   1.166
51397W        W22926  28.241   6.762  11.165
51398W        W22927  10.779  21.477   2.279
51399W        W22928   2.217  36.510   1.894
51400W        W22929  37.089  42.386  12.126
51401W        W22930  41.247   7.354   2.392
51402W        W22931  44.375  43.044   0.724
51403W        W22932  33.342  33.679   4.671
51404W        W22933  23.130   1.439  10.843
51405W        W22934  35.696  37.467   4.898
51406W        W22935   3.739  18.631  12.270
51407W        W22936   5.868  42.961  11.607
51408W        W22937  22.491  22.095   2.793
51409W        W22938  12.198  18.687  11.659
51410W        W22939  31.093  37.543  12.357
51411W        W22940  20.277  21.124  14.181
51412W        W22941   3.031  23.753  11.495
51413W        W22942   3.008  14.216  11.890
51414W        W22943   2.256  15.187  13.742
51415W        W22944   0.175  20.640  14.424
51416W        W22945  39.065  15.709  10.544
51417W        W22946  34.954  35.060   2.658
51418W        W22947  11.796  25.332  12.431
51419W        W22948  31.083  12.166  11.533
51420W        W22949  24.491  15.570   1.700
51421W        W22950  17.308  31.416  13.068
51422W        W22951  25.678   1.883   1.090
51423W        W22952  24.422  13.267   1.393
51424W        W22953  16.596  17.118  10.693
51425W        W22954   6.751  39.087  11.658
51426W        W22955   5.530   0.776   0.197
51427W        W22956   3.347   6.748  14.215
51428W        W22957  36.483  15.692  13.354
51429W        W22958  44.046  20.994  11.886
51430W        W22959  24.755   3.708  11.558
51431W        W22960  26.667   2.511   1.768
51432W        W22961  25.913  24.013   3.814
51433W        W22962  29.731   9.382   4.573
51434W        W22963  27.909  44.135   2.747
51435W        W22964  30.647   3.795  13.914
51436W        W22965   1.702  17.689  12.109
51437W        W22966   8.445  19.437  10.375
51438W        W22967  29.462  41.689   2.874
51439W        W22968  39.268  11.844  14.530
51440W        W22969  33.210   7.228   3.242
51441W        W22970   5.325  12.944   3.709
51442W        W22971  31.602   5.667  12.522
51443W        W22972  35.636  14.165   1.886
51444W        W22973  44.584  26.787  14.819
51445W        W22974  18.585  34.535  10.696
51446W        W22975  38.414  42.629   2.929
51447W        W22976  13.757  22.238   3.560
51448W        W22977  24.623   5.277  12.140
51449W        W22978  16.136  28.761   3.702
51450W        W22979  12.969   1.522   1.467
51451W        W22980   3.015  30.847   4.608
51452W        W22981  36.938  42.043   0.998
51453W        W22982  37.568  33.358   3.554
51454W        W22983  19.673   1.615   0.829
51455W        W22984  14.675  19.651  13.585
51456W        W22985  41.508  23.452  12.939
51457W        W22986  25.928  14.674  13.876
51458W        W22987  22.540   5.447  11.096
51459W        W22988  42.320  44.443   2.575
51460W        W22989  19.332  31.335   1.362
51461W        W22990  31.894  16.532  14.733
51462W        W22991   6.483  11.440  11.630
51463W        W22992  35.585  11.920   1.639
51464W        W22993  26.704  27.640  10.969
51465W        W22994   7.752  32.353  12.978
51466W        W22995  21.337  43.727  10.215
51467W        W22996  43.525  41.895  10.743
51468W        W22997  21.068  29.392   2.502
51469W        W22998  38.158  31.444   2.824
51470W        W22999  23.823  41.279  11.618
51471W        W23000  37.982  43.681   0.256
51472W        W23001  26.622  24.621   1.895
51473W        W23002   3.515  23.909  13.165
51474W        W23003  10.871   4.274  11.945
51475W        W23004  44.462  41.945  10.657
51476W        W23005  30.587  29.949  13.133
51477W        W23006   3.928  25.104  14.298
51478W        W23007  12.581   2.801   1.839
51479W        W23008  11.656  10.706  14.847
51480W        W23009  26.927   8.405  11.989
51481W        W23010   9.753  32.133  11.476
51482W        W23011   4.319  13.412   3.277
51483W        W23012  18.814  33.617  11.063
51484W        W23013  21.487  39.306   1.424
51485W        W23014  21.613  42.520   2.276
51486W        W23015   6.511  19.466   0.262
51487W        W23016   1.860   6.798   2.220
51488W        W23017  19.730  16.692  13.004
51489W        W23018  21.753   8.817   3.314
51490W        W23019  26.014  19.834   0.887
51491W        W23020  40.318  43.436   3.575
51492W        W23021  23.266  28.097  11.623
51493W        W23022  13.181  27.378  11.232
51494W        W23023  16.598  14.372   3.736
51495W        W23024  12.603  43.366  12.190
51496W        W23025  41.798  29.485  13.926
51497W        W23026   8.106   6.565   5.076
51498W        W23027  42.811  30.378  12.893
51499W        W23028   5.167  19.296   0.293
51500W        W23029   0.496  30.544  11.092
51501W        W23030  12.777  36.172   2.124
51502W        W23031  21.698  35.468   4.383
51503W        W23032   3.204  39.382   1.393
51504W        W23033  18.845   0.865   2.111
51505W        W23034  42.305  14.932  11.443
51506W        W23035   0.895   1.897  10.808
51507W        W23036  23.092  11.090   3.519
51508W        W23037  33.077  35.288  13.886
51509W        W23038  35.098   3.208  11.269
51510W        W23039  18.617  34.862   1.936
51511W        W23040  20.034  23.579  12.446
51512W        W23041  37.645  13.688  11.484
51513W        W23042  26.060   7.167  12.897
51514W        W23043  36.533  29.776  10.453
51515W        W23044  43.409  13.624   0.496
51516W        W23045   8.624   8.585   2.840
51517W        W23046   2.942  40.123   2.673
51518W        W23047  43.000  23.552   4.651
51519W        W23048  39.916  28.507  11.551
51520W        W23049  40.022  24.440  11.665
51521W        W23050  24.767  41.577  11.494
51522W        W23051   7.658   2.073  12.263
51523W        W23052   3.793   7.099  11.535
51524W        W23053  28.901  28.069  11.814
51525W        W23054  27.078  44.516  12.430
51526W        W23055  27.758  23.906  12.045
51527W        W23056  20.181  34.132  10.967
51528W        W23057  20.369   1.493   1.485
51529W        W23058  19.243  38.562  10.115
51530W        W23059  28.552   9.357   4.255
51531W        W23060  23.882  28.458   0.011
51532W        W23061  22.545  37.590   5.036
51533W        W23062  35.617  36.353   3.816
51534W        W23063  21.123  16.771   0.345
51535W        W23064  20.175  28.008  10.937
51536W        W23065  11.634   2.749  11.592
51537W        W23066  37.630  34.249  14.925
51538W        W23067  36.030   4.002  13.547
51539W        W23068  31.199  39.785   0.686
51540W        W23069   9.085   3.444  12.433
51541W        W23070   6.180  18.641  13.463
51542W        W23071  44.414  19.991   1.542
51543W        W23072  27.321  28.607   3.866
51544W        W23073  14.790  37.584   4.776
51545W        W23074  11.196  27.211   1.720
51546W        W23075  43.037  22.480   0.311
51547W        W23076  41.242  23.742   0.272
51548W        W23077  13.705  34.917  10.696
51549W        W23078  30.403  30.429  13.250
51550W        W23079  43.057  13.730  12.150
51551W        W23080  33.474  26.777  11.020
51552W        W23081  19.055  42.348   4.526
51553W        W23082  32.322  15.221   4.798
51554W        W23083  14.836  35.512   3.217
51555W        W23084  33.675  36.030  12.030
51556W        W23085   2.954  23.281   4.492
51557W        W23086  29.656  11.766  12.640
51558W        W23087  44.434  17.793  12.871
51559W        W23088  10.613  31.374  10.711
51560W        W23089  20.135  38.742   5.215
51561W        W23090  36.491  41.261   4.643
51562W        W23091  34.828   2.236  12.059
51563W        W23092  42.042  44.772   4.680
51564W        W23093  28.377  20.697   4.775
51565W        W23094   3.140  35.355  12.301
51566W        W23095  30.247  26.132  13.427
51567W        W23096   3.836  43.313   3.594
51568W        W23097  37.738  11.672  13.080
51569W        W23098  13.478  13.868  11.528
51570W        W23099  20.797   8.817  13.520
51571W        W23100   2.769  19.530  13.376
51572W        W23101  15.376  40.374  12.185
51573W        W23102  33.804   2.167  12.075
51574W        W23103   7.776   4.688   2.610
51575W        W23104  10.637   1.153   1.297
51576W        W23105  34.311  18.237   3.752
51577W        W23106  40.424   6.151   4.402
51578W        W23107  19.500  18.192  12.867
51579W        W23108  39.845  12.292  11.384
51580W        W23109  30.010  37.107  11.181
51581W        W23110  34.057  31.815  14.786
51582W        W23111   3.277  19.803  13.934
51583W        W23112  10.403  21.839   0.163
51584W        W23113  38.280   3.757   3.202
51585W        W23114  24.145  14.210   0.963
51586W        W23115  12.230  26.997   2.831
51587W        W23116   0.711  42.898   2.146
51588W        W23117  25.495  18.239   2.633
51589W        W23118  10.125  42.874   1.540
51590W        W23119  19.912  16.523   2.424
51591W        W23120  34.853   8.728   2.830
51592W        W23121  23.627  42.584   2.754
51593W        W23122  11.892  20.127  13.988
51594W        W23123  16.747  24.748   2.846
51595W        W23124  44.816  26.132  14.925
51596W        W23125  11.305  38.477  13.889
51597W        W23126  42.248  44.221  12.926
51598W        W23127  44.289  30.518  13.024
51599W        W23128  37.784   1.403   3.225
51600W        W23129  18.059  35.136  14.047
51601W        W23130   7.126  35.599  13.341
51602W        W23131   5.450  39.544   2.693
51603W        W23132  11.153  21.507  11.408
51604W        W23133   2.197  31.665  10.964
51605W        W23134  16.340  26.508   1.182
51606W        W23135  23.088  42.804   2.953
51607W        W23136  36.017  27.169  14.748
51608W        W23137  28.004   8.759  13.738
51609W        W23138   0.945  23.409  11.285
51610W        W23139  37.598  33.480  11.818
51611W        W23140  41.352  24.579   0.873
51612W        W23141  32.106  25.186  14.321
51613W        W23142   1.259  27.619   4.829
51614W        W23143  25.051  18.026   3.232
51615W        W23144  37.989  22.990  11.602
51616W        W23145  29.918  44.266   3.269
51617W        W23146   4.082  38.480   2.468
51618W        W23147  18.066  14.429  13.992
51619W        W23148  15.024  44.051   0.390
51620W        W23149  33.584  41.260  13.548
51621W        W23150  21.244  16.227  13.783
51622W        W23151   4.516   9.468   3.342
51623W        W23152  37.666  39.739   2.111
51624W        W23153   8.757  14.787   3.367
51625W        W23154  29.023  10.440  12.912
51626W        W23155   4.742  26.166   0.931
51627W        W23156   9.228   2.469  11.074
51628W        W23157  37.154   4.779   4.316
51629W        W23158  25.214  14.212   0.777
51630W        W23159  34.920   6.844   0.288
51631W        W23160  44.942  30.234   2.729
51632W        W23161   0.423  29.062  14.252
51633W        W23162  25.738  10.775   1.455
51634W        W23163  25.689   2.750  13.422
51635W        W23164  29.871  31.367  12.513
51636W        W23165  12.612   1.829   1.727
51637W        W23166  27.538  25.942   2.741
51638W        W23167   1.435   7.842   4.456
51639W        W23168  40.108  31.149   4.295
51640W        W23169   5.565  24.047  13.940
51641W        W23170   2.325  25.890  14.363
51642W        W23171  14.556   9.730   3.599
51643W        W23172  21.502  36.845  12.476
51644W        W23173  42.971  28.124  13.509
51645W        W23174  17.355  15.310  12.484
51646W        W23175   9.117  24.613  12.616
51647W        W23176   8.229  20.231  10.831
51648W        W23177  33.717  10.857   2.652
51649W        W23178   5.247  36.542   1.366
51650W        W23179   3.260   8.901  11.628
51651W        W23180  30.421  15.607   3.272
51652W        W23181  36.290  42.499   1.385
51653W        W23182  12.744  33.118   4.146
51654W        W23183  30.602  31.795   2.217
51655W        W23184  26.148  21.192  10.141
51656W        W23185  11.131  39.755  11.257
51657W        W23186  33.678  10.704  11.503
51658W        W23187  16.773   3.409   2.808
51659W        W23188  33.477   4.211  12.358
51660W        W23189  20.446   6.963  13.859
51661W        W23190   2.198  17.833  12.137
51662W        W23191  34.473   9.220  14.453
51663W        W23192   0.100  22.094  14.532
51664W        W23193  38.372  33.213   2.699
51665W        W23194  24.659  38.587   2.260
51666W        W23195   1.405  23.774  13.347
51667W        W23196  31.887  13.883  10.787
51668W        W23197   4.057   6.927  12.467
51669W        W23198  25.715  44.226  13.921
51670W        W23199  24.540   6.241   0.309
51671W        W23200  16.099  24.442   4.069
51672W        W23201  33.501   8.722  14.414
51673W        W23202  42.924  17.106   2.697
51674W        W23203  28.150  12.212  14.007
51675W        W23204  16.852  33.420  11.347
51676W        W23205  33.675  19.260  11.552
51677W        W23206  38.108  18.731  13.937
51678W        W23207  16.623  17.223  11.532
51679W        W23208  33.062  20.074  11.692
51680W        W23209  20.829  43.379   1.710
51681W        W23210  30.447   5.291  14.721
51682W        W23211   5.891  21.094   0.027
51683W        W23212  10.355   3.677  12.870
51684W        W23213  31.844  44.374  12.083
51685W        W23214  10.398  26.658  14.282
51686W        W23215   4.296   5.356   1.482
51687W        W23216  31.475   1.875   2.777
51688W        W23217  43.794  25.025  12.219
51689W        W23218  40.088   6.258   0.851
51690W        W23219  13.762  41.791   3.281
51691W        W23220  20.719  39.576   1.837
51692W        W23221  29.787   0.508   4.644
51693W        W23222  33.863   1.286  14.832
51694W        W23223   7.893  26.605  13.469
51695W        W23224   6.403  19.263   2.283
51696W        W23225  18.543  23.862  11.170
51697W        W23226  18.976  34.542   3.331
51698W        W23227  17.012  12.879   1.264
51699W        W23228  13.913  22.498   1.371
51700W        W23229  38.459   2.735   4.871
51701W        W23230   6.141  32.441  13.424
51702W        W23231   7.271  15.572  11.918
51703W        W23232  33.343  33.918  13.841
51704W        W23233  15.370  10.374  11.573
51705W        W23234  34.511  36.958   4.404
51706W        W23235  23.482  34.710  11.120
51707W        W23236   4.567  24.115  14.041
51708W        W23237   6.467  32.908  11.015
51709W        W23238  31.603  42.922  12.821
51710W        W23239  20.554  10.393   4.164
51711W        W23240   4.918  25.358  12.103
51712W        W23241  34.045  29.407   4.168
51713W        W23242  40.818  24.591  11.900
51714W        W23243   6.750  10.768  10.764
51715W        W23244   9.862  44.179  12.720
51716W        W23245  35.428   7.434  14.758
51717W        W23246  18.020  11.861  10.752
51718W        W23247  22.962  38.446   4.129
51719W        W23248  38.942   2.160   2.742
51720W        W23249   4.847  38.063   0.329
51721W        W23250  25.732  31.601  10.554
51722W        W23251   1.196  27.016  12.373
51723W        W23252  34.541   9.783  13.797
51724W        W23253  14.449  10.202   0.909
51725W        W23254   1.906  19.378   4.095
51726W        W23255  39.025  14.628   4.587
51727W        W23256  32.553  28.748   5.042
51728W        W23257  24.911  33.840  13.547
51729W        W23258  29.163  35.933  13.804
51730W        W23259  43.917   7.883  14.504
51731W        W23260  36.134   9.540  14.742
51732W        W23261  12.511  41.057   0.780
51733W        W23262  13.229  22.087  13.793
51734W        W23263  11.645   5.341   1.055
51735W        W23264  16.352  34.351  13.473
51736W        W23265  21.366   0.280   0.420
51737W        W23266   1.897  23.007  13.410
51738W        W23267   4.760  19.353  11.631
51739W        W23268  12.599  19.543  11.544
51740W        W23269  41.782  11.740  11.281
51741W        W23270   3.335  42.322   1.628
51742W        W23271  27.034   6.701   1.813
51743W        W23272  21.505  29.670   3.777
51744W        W23273  33.605   8.418  10.752
51745W        W23274  14.127  12.795   4.311
51746W        W23275  38.013   0.597   1.486
51747W        W23276  32.317  41.555   1.587
51748W        W23277   3.827   4.886  12.006
51749W        W23278  44.470   4.272  12.532
51750W        W23279  32.993   4.957  12.435
51751W        W23280  25.729  30.238  13.292
51752W        W23281  39.855  21.557   0.317
51753W        W23282  23.224  40.094   0.850
51754W        W23283  11.909   6.243   3.604
51755W        W23284   9.655  41.444  13.302
51756W        W23285   4.678   5.850   4.545
51757W        W23286   8.000  34.337  14.767
51758W        W23287   5.787  14.563   4.560
51759W        W23288  14.729  10.886  11.181
51760W        W23289  36.829  38.764   1.225
51761W        W23290  12.225  16.062   1.308
51762W        W23291  43.455  31.970   4.272
51763W        W23292  30.216  37.054   0.601
51764W        W23293  25.907  21.175  10.727
51765W        W23294  37.915  34.285  11.717
51766W        W23295  12.306   3.622   4.846
51767W        W23296  21.905  16.263   3.664
51768W        W23297  32.053  31.355   0.351
51769W        W23298  36.882  39.553  14.919
51770W        W23299  20.481  31.527  13.916
51771W        W23300  36.301  14.107  12.123
51772W        W23301  28.498   3.157  10.332
51773W        W23302   8.623  20.162  11.446
51774W        W23303  18.947  34.617   4.582
51775W        W23304  25.726  32.071  13.623
51776W        W23305   8.767  29.140   3.388
51777W        W23306  23.996  26.005  14.234
51778W        W23307  37.387  41.989  12.336
51779W        W23308  27.277  25.587   0.043
51780W        W23309  14.650  27.793  14.043
51781W        W23310  11.676  16.193  12.992
51782W        W23311  19.624  24.189   0.478
51783W        W23312   1.293  23.260   4.062
51784W        W23313  35.373  12.144  11.649
51785W        W23314   6.947  42.881   4.874
51786W        W23315  18.154  44.259  13.097
51787W        W23316   5.071  43.252   1.302
51788W        W23317  20.298  39.012  11.481
51789W        W23318  27.464  20.624   3.854
51790W        W23319   7.332  20.769   2.252
51791W        W23320   8.216   9.795  11.474
51792W        W23321   9.398  19.076  13.539
51793W        W23322  18.309  11.293   4.477
51794W        W23323   6.799  15.337  12.031
51795W        W23324  11.057  42.402   0.009
51796W        W23325  43.788  23.913   2.146
51797W        W23326  10.433  34.915  13.981
51798W        W23327  33.649  39.457   0.699
51799W        W23328  40.500  37.349   1.844
51800W        W23329  36.590  20.570   3.717
51801W        W23330  14.794  15.635   1.823
51802W        W23331  24.047  32.926  13.950
51803W        W23332  42.669  27.097  11.424
51804W        W23333  33.050  13.113  12.148
51805W        W23334  13.810  29.570   1.435
51806W        W23335  42.659  15.251  12.981
51807W        W23336   0.563  22.078   3.008
51808W        W23337   5.065  17.016   2.620
51809W        W23338  41.390  20.496   1.859
51810W        W23339   1.829  37.519  10.800
51811W        W23340  32.098  34.032  14.072
51812W        W23341  40.376   8.704  14.687
51813W        W23342  23.975  13.910  12.284
51814W        W23343  21.399   0.418  11.131
51815W        W23344   3.227   2.008   4.082
51816W        W23345  38.978   1.057  11.646
51817W        W23346  42.430  42.961  12.650
51818W        W23347   3.894  14.649   3.561
51819W        W23348   4.395  42.090  14.808
51820W        W23349  30.503   5.273   2.237
51821W        W23350   4.322  38.038  13.755
51822W        W23351   7.861  32.461  11.123
51823W        W23352   3.688  17.848   1.245
51824W        W23353  43.088  42.468   1.848
51825W        W23354   3.973  34.408  10.987
51826W        W23355  26.753  12.658  13.329
51827W        W23356   4.441  27.152   1.734
51828W        W23357  14.473  22.156   0.653
51829W        W23358  43.905  38.754  14.373
51830W        W23359  22.208  16.082  14.838
51831W        W23360  39.553  44.041   0.259
51832W        W23361  36.565  37.430  12.102
51833W        W23362  29.948  26.054   3.096
51834W        W23363  25.476  38.071   1.314
51835W        W23364  23.655  13.055  12.343
51836W        W23365  30.490  32.333   2.342
51837W        W23366  44.949  28.928  11.474
51838W        W23367  10.644  24.097  10.562
51839W        W23368   7.778  34.040  12.887
51840W        W23369  21.835  15.524   0.239
51841W        W23370  28.490  44.429  10.317
51842W        W23371  18.299  18.291   4.452
51843W        W23372   1.951  44.404  12.290
51844W        W23373   1.468  21.297  14.322
51845W        W23374  18.842   4.834   3.544
51846W        W23375  41.851  27.040   1.406
51847W        W23376   7.622  17.979  12.449
51848W        W23377  19.674  21.490   1.485
51849W        W23378  34.872  17.568   0.437
51850W        W23379  22.059  36.462   4.798
51851W        W23380  12.800  30.244  14.535
51852W        W23381  31.056  24.025  11.464
51853W        W23382  28.824  43.823  13.471
51854W        W23383   1.534   4.879   4.949
51855W        W23384  26.263  20.628   2.630
51856W        W23385  34.827  15.841  14.958
51857W        W23386  13.643  28.638  11.617
51858W        W23387  38.661  40.740   2.835
51859W        W23388   0.393  13.021   3.225
51860W        W23389  32.485  32.862  13.855
51861W        W23390  23.502  27.641  11.523
51862W        W23391  10.103   8.186   1.437
51863W        W23392  36.045   6.226  11.127
51864W        W23393  14.103   7.813  12.177
51865W        W23394  21.122  31.436   2.825
51866W        W23395  27.058  37.109  13.021
51867W        W23396  16.463  26.525   1.710
51868W        W23397  18.710  23.951   2.385
51869W        W23398  30.117  32.107  14.818
51870W        W23399  40.496  15.921  14.342
51871W        W23400  33.208  13.099  14.605
51872W        W23401  11.262  11.247  13.520
51873W        W23402  35.434  44.796   0.167
51874W        W23403  24.311  23.552   4.178
51875W        W23404   9.138  32.524   3.816
51876W        W23405  29.878  12.271  10.089
51877W        W23406   2.950  18.320   2.195
51878W        W23407   8.051  11.427   1.440
51879W        W23408  20.886  35.644  14.063
51880W        W23409  14.124  39.749   4.042
51881W        W23410  34.157   1.259  13.279
51882W        W23411   6.638   6.285  12.936
51883W        W23412   7.615  32.519   4.970
51884W        W23413  23.278  38.915   1.251
51885W        W23414   0.273  22.443  10.667
51886W        W23415  18.525  28.496   3.778
51887W        W23416  19.651  17.736   1.015
51888W        W23417  28.230  12.063   0.848
51889W        W23418  26.953  42.939  13.145
51890W        W23419   7.354  32.410   3.626
51891W        W23420  41.615   5.729  14.325
51892W        W23421  21.238   7.472  10.792
51893W        W23422  13.778  16.609  12.427
51894W        W23423  22.197  32.486  12.929
51895W        W23424  26.931  14.308   3.899
51896W        W23425  26.185  30.566  11.183
51897W        W23426  17.658  19.739  11.399
51898W        W23427  21.399  38.417   0.175
51899W        W23428  35.013  15.884   2.892
51900W        W23429  11.787  29.081  13.794
51901W        W23430  42.692   9.213  12.495
51902W        W23431   7.761   8.824  13.376
51903W        W23432  32.977  33.555  10.903
51904W        W23433  31.117  21.269   5.038
51905W        W23434  14.634  26.920   4.227
51906W        W23435  40.112  36.047  10.726
51907W        W23436   0.242  32.911   1.744
51908W        W23437  18.808  38.569  14.372
51909W        W23438  14.730  44.321   1.721
51910W        W23439  40.842   0.872   3.429
51911W        W23440  39.024   1.412  12.952
51912W        W23441   2.867  44.350  13.129
51913W        W23442   7.207  29.989   4.639
51914W        W23443  24.516   1.906   4.121
51915W        W23444   3.519  29.739   1.751
51916W        W23445  16.083  28.573  14.444
51917W        W23446  41.000   5.350  11.572
51918W        W23447  39.318   2.685   3.362
51919W        W23448   4.458  21.585   3.555
51920W        W23449  26.048  25.031  11.205
51921W        W23450  11.958  41.778  11.821
51922W        W23451   5.150  38.451   1.413
51923W        W23452   3.871  27.962   0.863
51924W        W23453  13.651  41.436   4.450
51925W        W23454  39.929   2.491   0.450
51926W        W23455   9.261  37.229  11.243
51927W        W23456   4.261  43.098  12.442
51928W        W23457  21.974  34.044   3.120
51929W        W23458  15.781   3.127  13.887
51930W        W23459   1.489   4.618  14.129
51931W        W23460  35.022   9.942   0.880
51932W        W23461  34.019   1.908   2.812
51933W        W23462  22.173  15.245  13.037
51934W        W23463  20.297   4.667  11.523
51935W        W23464  30.934  10.791  10.678
51936W        W23465   9.357  41.402   1.277
51937W        W23466  16.040   8.093  11.569
51938W        W23467   8.465  38.239   3.229
51939W        W23468  21.114   3.552   0.160
51940W        W23469  26.078  19.785   2.121
51941W        W23470  19.112  35.333   1.432
51942W        W23471  42.696  21.768   1.408
51943W        W23472  23.635  22.731  14.773
51944W        W23473  16.864  42.475  13.971
51945W        W23474   6.695  12.097   2.828
51946W        W23475  18.056  32.953  12.562
51947W        W23476  35.345  34.870  13.828
51948W        W23477  15.528  27.268   4.579
51949W        W23478  40.234  19.873   2.175
51950W        W23479  38.862  10.650   4.160
51951W        W23480  12.117   3.173   1.174
51952W        W23481  42.208  19.722  12.853
51953W        W23482  40.287  27.139  13.903
51954W        W23483  23.556  36.920  11.170
51955W        W23484  43.987  22.464  12.533
51956W        W23485  36.348  17.337   0.443
51957W        W23486  44.215  22.475   1.379
51958W        W23487  43.549  28.678   4.133
51959W        W23488  10.336  43.370   0.939
51960W        W23489  13.190  43.214  13.799
51961W        W23490  44.954  19.473   0.976
51962W        W23491   0.361  25.117   2.373
51963W        W23492  44.853  25.330   4.137
51964W        W23493  31.369  40.388  11.220
51965W        W23494  43.289  40.115  12.167
51966W        W23495  43.499  28.056  14.765
51967W        W23496  30.053  42.806   0.554
51968W        W23497  15.627  22.578  13.506
51969W        W23498   0.539  22.693  13.401
51970W        W23499   7.849   8.171   2.792
51971W        W23500  37.472  34.390   1.408
51972W        W23501  42.487  17.091  14.903
51973W        W23502   1.060   6.788  10.812
51974W        W23503  30.665  27.161  13.565
51975W        W23504   3.508   4.606   2.662
51976W        W23505   7.429   6.769  12.852
51977W        W23506  28.427  14.133  14.557
51978W        W23507   7.232  33.834   3.873
51979W        W23508  25.795  26.997   2.104
51980W        W23509  38.602  31.093  10.927
51981W        W23510  34.836  32.026  11.178
51982W        W23511  34.293  16.157  13.096
51983W        W23512   8.160   3.471  12.894
51984W        W23513  14.194  12.833   1.415
51985W        W23514  39.019  31.103   3.351
51986W        W23515   9.630  44.515  14.470
51987W        W23516  21.423  17.162  11.527
51988W        W23517  17.877  40.472   1.352
51989W        W23518   1.445  24.190   0.985
51990W        W23519  41.786  10.500  12.976
51991W        W23520  26.503  37.372  10.776
51992W        W23521  36.528  28.672   4.724
51993W        W23522  38.470  34.080  13.278
51994W        W23523  36.672  19.290   2.197
51995W        W23524  42.350  37.157  11.561
51996W        W23525  28.022   9.789  13.077
51997W        W23526  13.234  33.867  11.930
51998W        W23527  22.724  28.051  11.706
51999W        W23528   1.508  14.786  13.842
52000W        W23529   8.112  25.798  13.914
52001W        W23530   4.424  14.566  14.729
52002W        W23531  44.750  15.714   0.694
52003W        W23532  32.714   3.805   0.273
52004W        W23533  23.094  40.803  13.888
52005W        W23534  28.357  14.364   3.621
52006W        W23535  16.890  25.960  12.011
52007W        W23536  12.213  11.347  14.004
52008W        W23537   2.482  10.242  14.034
52009W        W23538  15.341  32.997   2.844
52010W        W23539  10.763   6.718   2.894
52011W        W23540  43.284   9.371   3.226
52012W        W23541  19.092  17.701  10.695
52013W        W23542  38.977  40.306   2.619
52014W        W23543  16.656  33.326  13.205
52015W        W23544  21.076  19.036   1.763
52016W        W23545  35.071  26.660   1.435
52017W        W23546  10.502  38.240  12.038
52018W        W23547  27.369  23.240   0.335
52019W        W23548   0.214  44.982  10.946
52020W        W23549  31.699  33.016   5.007
52021W        W23550  42.768  24.681   1.823
52022W        W23551  10.273  23.206  12.100
52023W        W23552  23.197  40.050  13.435
52024W        W23553  17.352  13.611  14.021
52025W        W23554  33.934  11.553   1.446
52026W        W23555  26.004   2.332  14.419
52027W        W23556   4.404  15.836  14.860
52028W        W23557   3.380  42.082  13.451
52029W        W23558  26.880  39.474   0.282
52030W        W23559   4.683  17.139   1.187
52031W        W23560  14.291  37.059  11.684
52032W        W23561  20.749  36.870   0.798
52033W        W23562  16.836  16.067   1.535
52034W        W23563  28.663  15.573  14.146
52035W        W23564   6.716  25.404   1.871
52036W        W23565  12.691  19.091  13.807
52037W        W23566  22.861   1.374   4.271
52038W        W23567   7.416  35.864   1.730
52039W        W23568   1.694  36.586  13.958
52040W        W23569  10.361  33.556   2.822
52041W        W23570  29.488  21.882  11.050
52042W        W23571  42.907  19.247  10.666
52043W        W23572  22.143  17.853   2.881
52044W        W23573   6.304  32.148   0.178
52045W        W23574  20.444  17.583  13.858
52046W        W23575   9.886   7.921   0.207
52047W        W23576  25.078  39.305   4.560
52048W        W23577  23.298  12.116   1.912
52049W        W23578  14.616   4.332  12.297
52050W        W23579  29.916   7.150  14.832
52051W        W23580  39.906  44.795  12.592
52052W        W23581  25.267  20.018   1.403
52053W        W23582   5.767   8.871   2.152
52054W        W23583  44.136  44.102  12.506
52055W        W23584   9.789   5.687  13.452
52056W        W23585  40.822  29.663   4.674
52057W        W23586  35.609  14.917  13.845
52058W        W23587  41.303  40.779   1.496
52059W        W23588  25.856  37.005  10.543
52060W        W23589  30.719  10.336   3.721
52061W        W23590  34.868   9.791  13.366
52062W        W23591   4.431  21.655  14.391
52063W        W23592  41.232  29.179  12.002
52064W        W23593  26.394   3.772   2.405
52065W        W23594  39.602   7.210   4.511
52066W        W23595   2.501   3.964   2.382
52067W        W23596  40.459   2.389   0.426
52068W        W23597   7.565  11.606   2.944
52069W        W23598  41.290   9.666   1.852
52070W        W23599   1.615  33.625   0.223
52071W        W23600  20.211  40.460  14.714
52072W        W23601  31.124   8.455   2.903
52073W        W23602  41.006  17.643   2.903
52074W        W23603  17.226   6.872  11.409
52075W        W23604  36.468  42.337   4.056
52076W        W23605  25.560  44.294   3.802
52077W        W23606  16.218  28.987  14.113
52078W        W23607  37.765  44.297   5.225
52079W        W23608  32.668  37.448  10.683
52080W        W23609   1.172  18.271  11.607
52081W        W23610  37.410  21.242  10.749
52082W        W23611  23.525  29.503   2.129
52083W        W23612  33.943  34.365  13.412
52084W        W23613  28.225  35.254  14.603
52085W        W23614  21.465  29.547  14.953
52086W        W23615  11.070  39.873  12.437
52087W        W23616  38.598  24.273  11.845
52088W        W23617  42.268   9.883  11.147
52089W        W23618   5.016  13.012   4.113
52090W        W23619   3.685  17.275   2.637
52091W        W23620   6.037  21.449  11.681
52092W        W23621  17.469  23.538  10.620
52093W        W23622  44.084   3.315   4.936
52094W        W23623  43.379  33.705  14.903
52095W        W23624  26.381  23.203   4.795
52096W        W23625   5.341   2.167   0.244
52097W        W23626  12.602  37.134  11.859
52098W        W23627   0.772  16.027  14.052
52099W        W23628  43.988   9.833  13.429
52100W        W23629  41.705  30.155  11.524
52101W        W23630  38.835  31.051  12.525
52102W        W23631   7.805  40.994   2.240
52103W        W23632  29.616  30.003   0.396
52104W        W23633  32.335  12.829   1.921
52105W        W23634   4.632  13.349   4.036
52106W        W23635  39.645   1.718  11.592
52107W        W23636  42.495   3.802  11.183
52108W        W23637  35.455   1.255   2.803
52109W        W23638  29.897  19.835   3.670
52110W        W23639  39.940  24.147   0.111
52111W        W23640   8.825  14.703   3.854
52112W        W23641  32.352   8.323   0.468
52113W        W23642  15.617  20.981   2.865
52114W        W23643  37.434  32.909  10.699
52115W        W23644   7.940  17.462  11.088
52116W        W23645  20.169   8.742   1.480
52117W        W23646  25.241  14.177  11.684
52118W        W23647  39.233  41.447   1.745
52119W        W23648  18.255   5.456  10.791
52120W        W23649   0.797  34.224   1.003
52121W        W23650  44.981  12.631   1.863
52122W        W23651  37.991  42.355   1.666
52123W        W23652  11.119  15.249  11.040
52124W        W23653  22.922   6.369  13.399
52125W        W23654   8.919  18.216   1.387
52126W        W23655   6.582   4.827  14.336
52127W        W23656   8.874  15.185   4.072
52128W        W23657   4.834  42.037   2.393
52129W        W23658  24.887  33.912  14.827
52130W        W23659   7.811  21.626   0.752
52131W        W23660   3.136  34.288   3.569
52132W        W23661  26.067  44.805   0.257
52133W        W23662  19.473   3.882  14.325
52134W        W23663  10.257  39.580   2.865
52135W        W23664  30.838  44.526  13.216
52136W        W23665  14.757   0.383   1.630
52137W        W23666   7.904  35.475   1.682
52138W        W23667  33.789  43.516   2.128
52139W        W23668  37.718  12.099   2.805
52140W        W23669  18.104  24.377  10.543
52141W        W23670  40.044  32.540  12.620
52142W        W23671  24.584   4.450   4.046
52143W        W23672  37.319  37.841  11.910
52144W        W23673   5.288   9.302   2.932
52145W        W23674  11.210  11.085   2.860
52146W        W23675  14.537   4.443   4.060
52147W        W23676  22.918  29.045  11.386
52148W        W23677  40.819  10.808  11.727
52149W        W23678  24.018  11.870   0.337
52150W        W23679  17.729  32.294   0.755
52151W        W23680  42.532  16.049  13.286
52152W        W23681  33.448   8.730  13.524
52153W        W23682  33.095   7.698  13.519
52154W        W23683   0.774  30.086  10.093
52155W        W23684  43.048  40.772   2.842
52156W        W23685  34.355  38.081  12.727
52157W        W23686  24.933  38.396   4.609
52158W        W23687  34.184  22.814  12.453
52159W        W23688  25.009  11.449   1.198
52160W        W23689   6.277  32.989  14.816
52161W        W23690  36.481  39.907  13.273
52162W        W23691  18.172  10.484  13.484
52163W        W23692  19.980  28.502  14.796
52164W        W23693  20.437  28.171  10.161
52165W        W23694   5.778  10.125  14.384
52166W        W23695  19.300  25.933  14.441
52167W        W23696  18.288  16.537   4.850
52168W        W23697   7.064  34.983  13.788
52169W        W23698  37.457   8.181  12.493
52170W        W23699   1.499  12.566  10.809
52171W        W23700   3.964  36.610  14.353
52172W        W23701  30.972  13.305   2.302
52173W        W23702  35.261  28.567   3.742
52174W        W23703  39.506  32.448  12.565
52175W        W23704   6.722  28.155  14.733
52176W        W23705  14.332  14.926  14.496
52177W        W23706  40.949   6.809  11.665
52178W        W23707  31.848  21.224   2.353
52179W        W23708   4.205  29.553   4.102
52180W        W23709  41.783   2.037   1.016
52181W        W23710  41.495  31.996  12.279
52182W        W23711  12.292  12.231   3.252
52183W        W23712  40.848  14.202   4.754
52184W        W23713  34.502   2.010   2.657
52185W        W23714  14.607   1.725  10.250
52186W        W23715  11.173  23.807   4.109
52187W        W23716  25.105  15.720  12.077
52188W        W23717   3.190  25.032  11.594
52189W        W23718  18.308  19.124  13.275
52190W        W23719  16.212  16.643   1.321
52191W        W23720  29.667  34.827   5.571
52192W        W23721  15.066   6.480   2.362
52193W        W23722   5.052   5.192   3.596
52194W        W23723  40.451   5.096  12.882
52195W        W23724  31.405   7.288  10.075
52196W        W23725  35.543  30.578   2.704
52197W        W23726  12.379  32.237  11.349
52198W        W23727   7.893   6.337  14.368
52199W        W23728  11.856  16.909   3.196
52200W        W23729  37.838  42.574  11.592
52201W        W23730  26.119   9.891   0.997
52202W        W23731  32.424  17.616  10.888
52203W        W23732   1.276  36.123   1.817
52204W        W23733  21.015  34.968  12.390
52205W        W23734   6.318  37.349   2.257
52206W        W23735  39.321  33.530   1.780
52207W        W23736  14.617  42.388   4.096
52208W        W23737  20.070  13.173  12.150
52209W        W23738   2.228  12.035   0.546
52210W        W23739  19.410  17.641  11.622
52211W        W23740  26.092  18.551   0.498
52212W        W23741  20.311  23.371  11.515
52213W        W23742  36.499  22.119   0.998
52214W        W23743  29.422   7.752   0.253
52215W        W23744  44.674  10.926   1.607
52216W        W23745  41.917  33.203   0.890
52217W        W23746  14.368  17.328   2.282
52218W        W23747  26.071  13.379  11.177
52219W        W23748  22.971   3.533  13.368
52220W        W23749   2.793   9.134  11.548
52221W        W23750  26.058  29.919  13.051
52222W        W23751   0.767  24.232  11.597
52223W        W23752  21.037  28.721  13.207
52224W        W23753  14.700   6.600   1.398
52225W        W23754   9.040  11.256   0.867
52226W        W23755  12.366  37.976   0.836
52227W        W23756  21.764   5.201   2.764
52228W        W23757  34.988  12.317  13.440
52229W        W23758  16.810  40.977  12.466
52230W        W23759   5.038  31.001   1.477
52231W        W23760  25.929  40.723  13.911
52232W        W23761  35.192  20.912   3.260
52233W        W23762  44.897  41.568   1.313
52234W        W23763  21.242  36.487   2.108
52235W        W23764  31.042  20.312   0.857
52236W        W23765  20.518   1.494   0.714
52237W        W23766   3.422  31.385   0.827
52238W        W23767  21.032   6.982  13.442
52239W        W23768  12.363  27.442   4.158
52240W        W23769  44.866   3.937  14.457
52241W        W23770  25.119   4.826   3.052
52242W        W23771  14.841  32.792   1.592
52243W        W23772   5.763  15.040   1.376
52244W        W23773  38.445   4.890   2.812
52245W        W23774  20.157   0.980   4.266
52246W        W23775   7.405  31.218  14.450
52247W        W23776  10.861   1.224   0.448
52248W        W23777  25.313   2.296  11.228
52249W        W23778  19.475  37.784  14.341
52250W        W23779   7.913  28.436   1.024
52251W        W23780  38.054  32.984   0.590
52252W        W23781  34.582  31.436   2.221
52253W        W23782  23.701   9.821   1.860
52254W        W23783  24.311  36.280  11.164
52255W        W23784  20.894  33.940   0.995
52256W        W23785  30.692  36.003  12.887
52257W        W23786  42.796  31.670   0.083
52258W        W23787  16.332  19.280  12.583
52259W        W23788  39.513  26.572   4.153
52260W        W23789  13.491  34.103  14.896
52261W        W23790  19.171   0.313   0.709
52262W        W23791  13.144  22.594   4.548
52263W        W23792  17.587  25.607   0.298
52264W        W23793   8.436  30.761   0.520
52265W        W23794  23.076   7.364  13.141
52266W        W23795  16.630  26.602  13.842
52267W        W23796  12.759   4.994   1.453
52268W        W23797   5.651   8.349   4.986
52269W        W23798  42.492   7.546  13.549
52270W        W23799  12.679  35.510  11.018
52271W        W23800  28.864  36.613  14.502
52272W        W23801  32.186  31.968  12.549
52273W        W23802  24.654  14.071   2.718
52274W        W23803  10.691  44.963  13.350
52275W        W23804  11.204   6.550   0.487
52276W        W23805  35.197  22.213   2.722
52277W        W23806  11.092   2.084   5.052
52278W        W23807   7.213  32.404  11.697
52279W        W23808  39.745  42.470   1.456
52280W        W23809   1.403  42.882   3.629
52281W        W23810  17.780   0.244  14.867
52282W        W23811  14.789  35.675  10.759
52283W        W23812  12.331   1.259  14.006
52284W        W23813   2.488   8.761   2.831
52285W        W23814  42.012  15.015   4.683
52286W        W23815  26.478  24.651  14.788
52287W        W23816   6.181  25.719  11.145
52288W        W23817   4.414  20.205  13.353
52289W        W23818  10.863   1.482   0.908
52290W        W23819  33.457   0.084   2.841
52291W        W23820   8.591  14.927   2.366
52292W        W23821  34.764  20.929   2.479
52293W        W23822  19.994  26.621   1.327
52294W        W23823  11.664  30.045  11.408
52295W        W23824  15.512  27.323   2.348
52296W        W23825   9.575   6.248   1.952
52297W        W23826  24.636  37.966   2.446
52298W        W23827  43.334  26.587   0.328
52299W        W23828  13.181  41.947   0.362
52300W        W23829  20.960  39.741   4.473
52301W        W23830  30.895  10.960  14.765
52302W        W23831  34.541  41.547   0.853
52303W        W23832  43.035  34.437   2.437
52304W        W23833   7.621  34.886  11.196
52305W        W23834  34.635  10.689   1.291
52306W        W23835  37.619   0.361   2.232
52307W        W23836  22.797   1.003   1.695
52308W        W23837  28.571  37.792   4.649
52309W        W23838  31.661  33.859  14.292
52310W        W23839  11.432  15.771   3.693
52311W        W23840  33.064  33.987  10.583
52312W        W23841  14.370  17.980  10.783
52313W        W23842  35.755  25.726   5.157
52314W        W23843  25.516  15.775   2.466
52315W        W23844  17.071  44.268  11.100
52316W        W23845  39.358  42.299   4.099
52317W        W23846  40.932  32.928  11.553
52318W        W23847  43.114  40.956   4.726
52319W        W23848  25.040  43.779   3.745
52320W        W23849  11.822  36.387   0.743
52321W        W23850  24.135  27.166  10.750
52322W        W23851  30.520  10.890   2.311
52323W        W23852  22.894  19.424   1.959
52324W        W23853  42.583  42.504  12.027
52325W        W23854  13.345  31.938   5.010
52326W        W23855   5.452  12.781   0.276
52327W        W23856  18.306  38.010  12.059
52328W        W23857   6.945  19.269   1.389
52329W        W23858  39.369  41.665  12.578
52330W        W23859  15.957  29.980   2.169
52331W        W23860  44.591  44.887  13.175
52332W        W23861  16.278  29.088   2.623
52333W        W23862  34.249  30.146  13.392
52334W        W23863  25.657   4.946  12.528
52335W        W23864  11.703  27.650  12.435
52336W        W23865  36.167  14.595  12.458
52337W        W23866   7.151   7.338  14.890
52338W        W23867  43.180  39.775  13.911
52339W        W23868  23.727  14.234  11.966
52340W        W23869   1.217  20.805   1.658
52341W        W23870  11.841  25.683  10.652
52342W        W23871  20.943   3.844  11.920
52343W        W23872  33.331   4.962   2.177
52344W        W23873   5.865  27.650  11.169
52345W        W23874  29.151  43.847  14.040
52346W        W23875  18.630  23.738  14.563
52347W        W23876  12.375   8.440  10.709
52348W        W23877   1.898  29.565  10.533
52349W        W23878  43.996  23.158   4.113
52350W        W23879  24.605  28.453   1.753
52351W        W23880  29.754  31.620  12.088
52352W        W23881  40.345  15.900   2.747
52353W        W23882  36.707  44.498  10.796
52354W        W23883  20.447  19.971  13.985
52355W        W23884  18.992  16.192   4.307
52356W        W23885   8.777  44.479   4.578
52357W        W23886  36.160  44.064  12.087
52358W        W23887   0.578  25.108   4.837
52359W        W23888  18.620  33.367   0.811
52360W        W23889  17.308  41.473  10.700
52361W        W23890  19.822  28.884   1.916
52362W        W23891  43.768   9.688   0.666
52363W        W23892  41.031   9.616   4.155
52364W        W23893  23.412   3.288   4.630
52365W        W23894  21.435  30.832   4.801
52366W        W23895   4.272  13.350   0.487
52367W        W23896  15.382  32.542   2.282
52368W        W23897   3.988  25.964  13.903
52369W        W23898  15.301   5.605   2.125
52370W        W23899   3.473   9.761   3.300
52371W        W23900  14.170   8.913  11.387
52372W        W23901  36.934  30.671   0.901
52373W        W23902  38.777   0.884  12.597
52374W        W23903  21.837  11.676   1.746
52375W        W23904   2.574  14.015  11.681
52376W        W23905  42.214  13.334   2.351
52377W        W23906  22.103   6.676   4.174
52378W        W23907   2.506  43.394   2.365
52379W        W23908  13.082   6.104   0.081
52380W        W23909   4.200  25.086  12.998
52381W        W23910  44.947   1.872  13.925
52382W        W23911  30.728  22.986   4.694
52383W        W23912  17.584   7.797  11.637
52384W        W23913   2.402   2.088  13.383
52385W        W23914   7.872   7.802   3.163
52386W        W23915   3.557  33.870  10.974
52387W        W23916  13.607   0.616  10.622
52388W        W23917  18.376  15.220  10.506
52389W        W23918  14.331  13.340   4.262
52390W        W23919   5.324  41.018   4.389
52391W        W23920  42.609  11.661   2.952
52392W        W23921  14.184  18.471  13.542
52393W        W23922   3.330   2.392  11.123
52394W        W23923  35.380  42.886   2.802
52395W        W23924   5.926  17.662   2.278
52396W        W23925   5.428  16.944   4.824
52397W        W23926  10.628  26.126  10.476
52398W        W23927  16.581   1.160  12.628
52399W        W23928  29.671   6.778  10.897
52400W        W23929  33.322  28.001  14.478
52401W        W23930   9.795  15.878   2.419
52402W        W23931  37.278  43.488   0.502
52403W        W23932  26.732  20.992  11.953
52404W        W23933  33.458  41.880  14.414
52405W        W23934  25.765  14.712  11.084
52406W        W23935  26.485  33.916   0.020
52407W        W23936   2.446   3.566   2.708
52408W        W23937  10.713  28.608  13.855
52409W        W23938  15.800  26.874  14.654
52410W        W23939  38.877  40.474   0.209
52411W        W23940  35.552   6.000  11.630
52412W        W23941  44.250  26.783   4.190
52413W        W23942   1.060  26.477   2.151
52414W        W23943   4.327  42.950  11.040
52415W        W23944   9.387   8.609   3.730
52416W        W23945  12.145   5.601   2.721
52417W        W23946  37.627  31.496   2.818
52418W        W23947   8.962  31.033  12.639
52419W        W23948  25.238  16.831   2.793
52420W        W23949  44.840  12.438  13.494
52421W        W23950   0.392  30.042   0.217
52422W        W23951  12.070  23.346   3.203
52423W        W23952  43.228  14.181   3.611
52424W        W23953  37.320   1.762   3.653
52425W        W23954  35.474  15.679   3.081
52426W        W23955  11.874  23.272  12.494
52427W        W23956   0.433  44.208  13.529
52428W        W23957  17.713  44.285  12.836
52429W        W23958  31.548   9.821  13.104
52430W        W23959  35.560  26.491   0.108
52431W        W23960  44.028  18.671   0.448
52432W        W23961  41.847   3.218   0.170
52433W        W23962  30.595  40.114   4.151
52434W        W23963  20.950  14.822   5.128
52435W        W23964  31.434  18.168   4.129
52436W        W23965  38.535  38.822  14.857
52437W        W23966   5.837   0.658  13.309
52438W        W23967  22.556  10.790  13.943
52439W        W23968   3.746  40.724  12.455
52440W        W23969  42.946  16.779  14.810
52441W        W23970   3.339  24.560  12.079
52442W        W23971  27.054  32.075  12.165
52443W        W23972  35.767   2.510  11.125
52444W        W23973  27.689   0.449  12.973
52445W        W23974  23.444  42.888   1.044
52446W        W23975   9.939  20.728  14.423
52447W        W23976  39.992  20.539   1.297
52448W        W23977  19.898  29.974  14.777
52449W        W23978   2.008  13.333  10.813
52450W        W23979  43.291   9.741   0.838
52451W        W23980  13.582   8.330   2.206
52452W        W23981  32.219  40.544  11.088
52453W        W23982  26.597  30.559  13.444
52454W        W23983  40.998  33.392   4.201
52455W        W23984  12.640  10.855   2.634
52456W        W23985  35.367  34.420  14.710
52457W        W23986   5.185  44.280  11.625
52458W        W23987   4.957  30.047   0.327
52459W        W23988  41.915  17.012   4.035
52460W        W23989  13.161  41.612  12.499
52461W        W23990  26.176  37.354   5.034
52462W        W23991  16.060  32.914   3.129
52463W        W23992  33.312  24.109  14.452
52464W        W23993  40.793   7.901   3.702
52465W        W23994  20.791  25.353   2.857
52466W        W23995  23.760  32.123  14.447
52467W        W23996  34.602   8.378   1.115
52468W        W23997  18.115  19.737  14.620
52469W        W23998  11.457  13.633  12.981
52470W        W23999  30.731   4.977  11.671
52471W        W24000  16.424  37.039   4.344
52472W        W24001  15.034   5.846  11.905
52473W        W24002  31.009   8.422   3.418
52474W        W24003  26.589  21.753   1.283
52475W        W24004  38.792  19.752  14.244
52476W        W24005  13.173  11.574  11.599
52477W        W24006  17.610  36.893   0.800
52478W        W24007  18.842  24.226  14.960
52479W        W24008  12.427  14.157  11.587
52480W        W24009  22.983  41.303   2.392
52481W        W24010   1.413  37.421   2.021
52482W        W24011  21.103  14.315  11.115
52483W        W24012  31.381  42.921  11.918
52484W        W24013   5.288  15.556   0.918
52485W        W24014  27.188  11.562  14.719
52486W        W24015  41.569  30.036   0.320
52487W        W24016  20.864  42.337  14.874
52488W        W24017  40.758  28.011   0.024
52489W        W24018   7.521  13.364   2.823
52490W        W24019   9.928  11.276  13.850
52491W        W24020   7.714  19.778   1.461
52492W        W24021  25.066  18.683  13.957
52493W        W24022  24.736  23.286   4.055
52494W        W24023   2.908  29.718  10.789
52495W        W24024   1.157   6.258   3.138
52496W        W24025   2.814  37.102  14.846
52497W        W24026   1.406  30.033  14.017
52498W        W24027  26.554   5.505  13.018
52499W        W24028  33.482  23.809  12.640
52500W        W24029   5.815  17.746   2.820
52501W        W24030   5.865  35.845   3.777
52502W        W24031  14.238  25.574   3.260
52503W        W24032   3.162  10.772  11.367
52504W        W24033   5.472  27.382  10.933
52505W        W24034   3.400  30.872   0.916
52506W        W24035  38.752  11.963   2.281
52507W        W24036  41.806  16.578  10.700
52508W        W24037   2.772  18.182  13.358
52509W        W24038  32.446   8.373  14.306
52510W        W24039  32.142  27.675  13.342
52511W        W24040  21.736   6.921   2.240
52512W        W24041   7.712  33.167  10.825
52513W        W24042  21.335   4.359   4.955
52514W        W24043  11.885  34.592   3.168
52515W        W24044   2.254  16.219  13.029
52516W        W24045  43.657  40.414  13.390
52517W        W24046  19.664  32.062  14.168
52518W        W24047   1.760  38.303   2.864
52519W        W24048  12.819  14.498   4.231
52520W        W24049   5.688   1.690   2.740
52521W        W24050  12.769  23.818  13.855
52522W        W24051  23.207  10.631   3.796
52523W        W24052  11.886  43.752   4.206
52524W        W24053  36.982  15.805   1.083
52525W        W24054  26.652  30.252   4.818
52526W        W24055  29.655   3.254   4.551
52527W        W24056   4.850  31.597   3.167
52528W        W24057  40.024  35.469   0.035
52529W        W24058  28.597  16.652  12.373
52530W        W24059   5.807  26.777  13.835
52531W        W24060  13.213  34.862   3.816
52532W        W24061  24.160  10.878  14.519
52533W        W24062   3.345  24.882   0.317
52534W        W24063   1.514  22.727  14.354
52535W        W24064  16.644  14.050   2.908
52536W        W24065  26.463  42.846   1.412
52537W        W24066  19.229   7.200  11.165
52538W        W24067  33.426  26.674   0.210
52539W        W24068   9.258  33.906  14.862
52540W        W24069   3.949  22.145  10.652
52541W        W24070   4.877  11.484   1.058
52542W        W24071  11.516   5.274  11.508
52543W        W24072  23.395  27.087   3.631
52544W        W24073   3.956  35.985  13.239
52545W        W24074  29.631   7.833   4.103
52546W        W24075  23.697  35.558   1.864
52547W        W24076  28.496   1.376   4.365
52548W        W24077  18.501  24.683   3.340
52549W        W24078  17.872   2.517  11.563
52550W        W24079  13.555  30.064  14.093
52551W        W24080  30.915  37.019  14.297
52552W        W24081  33.306  36.944  14.022
52553W        W24082   6.929  23.953  10.782
52554W        W24083  19.800  36.320  14.416
52555W        W24084  32.211  39.512   4.177
52556W        W24085  19.203  25.792  14.974
52557W        W24086   1.775   8.458  13.851
52558W        W24087  21.539  31.891  10.958
52559W        W24088  32.603   8.651  12.612
52560W        W24089  40.574  10.116   5.297
52561W        W24090   4.371  24.547   3.394
52562W        W24091  17.630  29.576   1.106
52563W        W24092  25.455   0.863  11.058
52564W        W24093  11.828  34.911   0.065
52565W        W24094  19.311  33.409  13.579
52566W        W24095   2.497   2.862  12.254
52567W        W24096  29.671  22.948   0.818
52568W        W24097  39.945   3.472   2.465
52569W        W24098  20.991  40.458  13.144
52570W        W24099   9.671   2.721  14.376
52571W        W24100   5.730   8.578  14.375
52572W        W24101  27.550   1.689   4.198
52573W        W24102  11.973  27.222  14.861
52574W        W24103  10.349  24.280  13.250
52575W        W24104  38.670  17.033  10.226
52576W        W24105   9.714  21.163   4.035
52577W        W24106  15.811  11.700  10.873
52578W        W24107  19.020   5.164   3.162
52579W        W24108  38.601  37.531   4.579
52580W        W24109   1.824  21.552   1.344
52581W        W24110  35.429   4.627  12.161
52582W        W24111  31.820  13.154  13.661
52583W        W24112  16.166  22.038   1.892
52584W        W24113  20.565  14.345   0.318
52585W        W24114  34.120  26.613   4.196
52586W        W24115   1.885  31.612   0.958
52587W        W24116  14.590  38.533   2.316
52588W        W24117  12.894  26.999  14.520
52589W        W24118  22.446  13.515   4.068
52590W        W24119  16.734  34.336  13.812
52591W        W24120  35.931  26.370  14.314
52592W        W24121  31.073  16.876   9.827
52593W        W24122  36.065  10.083  11.098
52594W        W24123  19.493   5.363   4.052
52595W        W24124  17.663  32.519   0.200
52596W        W24125  35.931  43.461   3.854
52597W        W24126  10.723  38.877   4.181
52598W        W24127  34.493  40.829   2.915
52599W        W24128  36.976  29.334   3.039
52600W        W24129  37.696  21.030  14.513
52601W        W24130  12.945  23.453   2.863
52602W        W24131  13.225  19.797  12.972
52603W        W24132  10.313  18.248   0.822
52604W        W24133   8.903  10.979   4.005
52605W        W24134  40.075   5.122   0.571
52606W        W24135  16.913  11.032  10.677
52607W        W24136  29.216  31.685  10.735
52608W        W24137   0.782   8.912   3.665
52609W        W24138  17.781  43.905   0.669
52610W        W24139  28.316  32.290  11.371
52611W        W24140  23.060  22.330  14.575
52612W        W24141   7.925   1.024   3.556
52613W        W24142  30.475  14.848  11.146
52614W        W24143  20.729   1.260   2.682
52615W        W24144  35.564  13.730  12.407
52616W        W24145  34.093  15.886   4.568
52617W        W24146   7.639  28.261  10.715
52618W        W24147  34.391  36.524   2.161
52619W        W24148  14.215  35.512   0.301
52620W        W24149  40.396  10.144   0.395
52621W        W24150   4.162  38.554   3.715
52622W        W24151  16.730  29.767  11.180
52623W        W24152   5.999   3.795  11.267
52624W        W24153  36.448   2.272   1.920
52625W        W24154   3.668  43.293  12.964
52626W        W24155  22.294  40.678  13.486
52627W        W24156  42.499  24.215   1.867
52628W        W24157  16.795  37.593  14.575
52629W        W24158  29.474  20.290   1.549
52630W        W24159   9.925  13.119  14.080
52631W        W24160  15.668  35.918   2.860
52632W        W24161  13.136  18.596   4.622
52633W        W24162   8.825  38.508  13.385
52634W        W24163  29.545  30.488   1.873
52635W        W24164  43.779  36.566  12.405
52636W        W24165  42.283  13.619   1.222
52637W        W24166  10.939  17.068   3.218
52638W        W24167   5.217  10.362   0.254
52639W        W24168  25.966   2.265  11.988
52640W        W24169   8.850  11.111  14.878
52641W        W24170  33.439   5.755   2.834
52642W        W24171  33.260  28.715   0.355
52643W        W24172  33.182  11.290  12.120
52644W        W24173  18.145  23.808  14.403
52645W        W24174  12.759   3.013   1.221
52646W        W24175  44.221  21.328  12.624
52647W        W24176   8.708  37.221   0.739
52648W        W24177   0.191  27.478  11.991
52649W        W24178   6.773  20.840  12.897
52650W        W24179  40.783  44.733   3.302
52651W        W24180  33.104   8.395  11.526
52652W        W24181   3.267  14.300   4.739
52653W        W24182  23.787  30.962  12.586
52654W        W24183  10.177  21.591  12.456
52655W        W24184   2.259  17.013   0.644
52656W        W24185  21.065  10.889  11.605
52657W        W24186   4.335  18.046  11.424
52658W        W24187  32.787  34.608   2.439
52659W        W24188  32.052  20.101  13.405
52660W        W24189   7.723  30.152  12.461
52661W        W24190   5.554  37.370   3.418
52662W        W24191  20.290   3.469  11.821
52663W        W24192  39.581   7.180   0.754
52664W        W24193  34.690  11.231   0.428
52665W        W24194  30.222  21.790  10.609
52666W        W24195  21.622  24.432  11.197
52667W        W24196  13.090  43.751  10.984
52668W        W24197  24.615  27.967   1.958
52669W        W24198  12.734  11.879  10.684
52670W        W24199  27.028  41.969   2.219
52671W        W24200  11.830  28.877  11.587
52672W        W24201  13.212  44.760  10.974
52673W        W24202  19.034  23.750   2.764
52674W        W24203   7.809  17.217  11.919
52675W        W24204   8.283  38.346   2.363
52676W        W24205  40.781  35.087  13.238
52677W        W24206  30.712  10.866   3.721
52678W        W24207  26.658  15.672  10.982
52679W        W24208   8.695  12.154   4.790
52680W        W24209  25.647  21.789  11.605
52681W        W24210  24.258  16.599   2.764
52682W        W24211   6.852  14.747  14.946
52683W        W24212  32.786   2.209   2.658
52684W        W24213  31.282  14.558   0.956
52685W        W24214  31.065  28.123   4.990
52686W        W24215  17.630  30.452  12.022
52687W        W24216  10.669   6.666   0.828
52688W        W24217  15.516  36.473   1.372
52689W        W24218  38.379  33.555   3.077
52690W        W24219  35.468  15.598  10.402
52691W        W24220  33.059  25.588   3.670
52692W        W24221  17.465   7.648  13.830
52693W        W24222  18.580  21.147   4.551
52694W        W24223  43.898  36.041   4.718
52695W        W24224  39.915  27.730   1.501
52696W        W24225  33.134  39.674  11.087
52697W        W24226  32.635  27.696  14.795
52698W        W24227  40.057  32.145  11.961
52699W        W24228  34.554  17.239   3.874
52700W        W24229  35.077  44.928  12.022
52701W        W24230  26.450  21.170  13.497
52702W        W24231  42.408  42.926  11.596
52703W        W24232   1.214  11.203   0.725
52704W        W24233  41.454  28.623   0.362
52705W        W24234   4.745  19.974   0.294
52706W        W24235  18.477  34.385   4.504
52707W        W24236  41.246  24.120  12.041
52708W        W24237  37.026  19.004   0.212
52709W        W24238  12.831  40.280  12.086
52710W        W24239  21.573  37.109  14.910
52711W        W24240   9.428  33.572  11.126
52712W        W24241  24.819  10.291  12.660
52713W        W24242   4.858   2.234   4.925
52714W        W24243   7.666  21.995  13.361
52715W        W24244  38.350   0.231   1.655
52716W        W24245  38.754  25.128   4.672
52717W        W24246  12.252  12.580   1.355
52718W        W24247  42.853   3.204   5.155
52719W        W24248   3.918  18.645   1.676
52720W        W24249  19.525  39.713  14.703
52721W        W24250  32.015  20.048   3.121
52722W        W24251  16.692   2.445   1.916
52723W        W24252   3.075  16.905   1.935
52724W        W24253  14.179  39.540   1.976
52725W        W24254  31.155  33.346   1.685
52726W        W24255  15.375  15.108  14.545
52727W        W24256  43.441  28.763  12.457
52728W        W24257   0.410  27.044   3.741
52729W        W24258  22.010  40.412  12.769
52730W        W24259  26.551   0.818  12.820
52731W        W24260  24.453   7.310   5.221
52732W        W24261  17.703  33.702   0.387
52733W        W24262  33.463  32.746   3.776
52734W        W24263  28.934  35.878  11.539
52735W        W24264  33.174  21.021   1.929
52736W        W24265  29.958  42.841   2.027
52737W        W24266  33.146   6.161  13.864
52738W        W24267   8.639   6.240   1.599
52739W        W24268  17.725   4.681   3.357
52740W        W24269  36.780  27.180  13.086
52741W        W24270  22.207   9.584  10.735
52742W        W24271  22.770  37.553   2.670
52743W        W24272   8.522   6.478   1.123
52744W        W24273  25.815  43.775  14.833
52745W        W24274  14.808  14.650   3.366
52746W        W24275  15.357  20.193  13.152
52747W        W24276   5.813  21.806   0.801
52748W        W24277  43.470  15.703   2.677
52749W        W24278   8.750  43.829  11.896
52750W        W24279  28.177  27.904   4.558
52751W        W24280  31.408  14.060   0.498
52752W        W24281   4.704  11.150   3.631
52753W        W24282   0.905   1.746  14.999
52754W        W24283   3.171  11.507   0.387
52755W        W24284  11.271  22.902  13.263
52756W        W24285  20.790  44.975  11.641
52757W        W24286  41.435  13.087  13.434
52758W        W24287  35.085   4.464  13.384
52759W        W24288   9.159   2.329   0.754
52760W        W24289   7.352  25.212   0.037
52761W        W24290  16.509  16.193   2.445
52762W        W24291   6.813   3.498   2.327
52763W        W24292  12.093  14.276   4.897
52764W        W24293  40.754  15.180   2.734
52765W        W24294  40.334  19.252  12.451
52766W        W24295  10.062  12.787  10.808
52767W        W24296  19.642  26.038  14.827
52768W        W24297   7.316   6.877  14.673
52769W        W24298  35.929  18.673  10.664
52770W        W24299  40.048  20.062  14.546
52771W        W24300  33.189  19.117  11.602
52772W        W24301  12.575   3.252  14.779
52773W        W24302  27.719  21.147   0.960
52774W        W24303   3.102  29.058  11.522
52775W        W24304  26.500  21.427   1.731
52776W        W24305  38.569   5.167   0.282
52777W        W24306  42.767   7.981  11.073
52778W        W24307   1.222  25.071  13.285
52779W        W24308  35.154   5.026  11.627
52780W        W24309  42.807  35.785  12.804
52781W        W24310  39.658   4.787   0.844
52782W        W24311  13.936   9.331  13.925
52783W        W24312   2.259   0.001   4.505
52784W        W24313  35.599   2.405   1.253
52785W        W24314  19.721  14.694   2.236
52786W        W24315   4.600  16.841   2.959
52787W        W24316   1.288  43.965  14.837
52788W        W24317  20.703   7.934  11.944
52789W        W24318  29.409  17.319  13.946
52790W        W24319  28.188  22.158   2.281
52791W        W24320  35.765  23.707  13.911
52792W        W24321  39.907   6.911  12.417
52793W        W24322  30.584  29.563   4.812
52794W        W24323  41.462  35.838  12.360
52795W        W24324   1.718  25.955  13.197
52796W        W24325  40.998  42.548  14.866
52797W        W24326  12.388  39.049  13.576
52798W        W24327  20.967  21.546   1.344
52799W        W24328  25.437  40.862  13.719
52800W        W24329   0.008  23.831   0.953
52801W        W24330  30.087  12.092  14.234
52802W        W24331  34.374  10.661  11.134
52803W        W24332  24.098   1.991  11.536
52804W        W24333   0.425   7.744   3.226
52805W        W24334   0.869  23.843  13.139
52806W        W24335  34.560  28.364  12.459
52807W        W24336   8.481  16.165   2.187
52808W        W24337  10.697  44.266  11.239
52809W        W24338  18.580   2.353  14.518
52810W        W24339  13.355  40.733   3.691
52811W        W24340   4.740  31.186  14.816
52812W        W24341  22.041  31.605   3.253
52813W        W24342   8.230  21.111  10.351
52814W        W24343  29.510  32.977   3.170
52815W        W24344  27.354   9.223  13.321
52816W        W24345  13.601  17.806   4.870
52817W        W24346  18.660  23.241  13.961
52818W        W24347  41.423  42.300   2.738
52819W        W24348  39.348   5.271  10.864
52820W        W24349  29.863  40.799  14.159
52821W        W24350   8.560  42.983   0.836
52822W        W24351  18.162   3.307   3.629
52823W        W24352  22.566  32.862   3.218
52824W        W24353  21.213  23.067   0.022
52825W        W24354  23.222  36.724  13.929
52826W        W24355  12.678  32.516   1.903
52827W        W24356  41.469  10.833  10.811
52828W        W24357  28.404  11.160   1.752
52829W        W24358   5.992  15.759  13.287
52830W        W24359   5.384  24.678   1.939
52831W        W24360   5.383   8.571   4.611
52832W        W24361   0.015   7.915  10.473
52833W        W24362  24.055  42.931  14.779
52834W        W24363  21.054   4.498  14.862
52835W        W24364  13.512  12.353   1.042
52836W        W24365   5.895  30.465   0.399
52837W        W24366  33.605  10.290   1.851
52838W        W24367  30.026  19.994  13.869
52839W        W24368  22.538  44.705   1.598
52840W        W24369  24.599  35.089   1.336
52841W        W24370  16.060  39.958   2.645
52842W        W24371  32.779  11.083  14.258
52843W        W24372  37.408   4.070  12.379
52844W        W24373  33.862  21.057   3.544
52845W        W24374   8.338   4.866  14.892
52846W        W24375  31.651   5.226   4.963
52847W        W24376   3.387   4.864  13.038
52848W        W24377   8.813  26.268   0.037
52849W        W24378  18.153  35.175  14.554
52850W        W24379  12.628  14.746   3.723
52851W        W24380  17.117  18.563   2.377
52852W        W24381  21.405  14.737  13.433
52853W        W24382   7.675  22.090   0.942
52854W        W24383  15.632   3.767  12.861
52855W        W24384  23.161  20.067   4.347
52856W        W24385  26.734  12.323   1.667
52857W        W24386  18.558   4.217  13.354
52858W        W24387  20.112  17.632   0.305
52859W        W24388  13.683  17.689  13.752
52860W        W24389  43.322  30.696  12.968
52861W        W24390  33.051  14.743  13.004
52862W        W24391  30.571   9.047   0.034
52863W        W24392   3.845  18.250  10.659
52864W        W24393  12.339  17.808  13.971
52865W        W24394  35.795  13.997  11.986
52866W        W24395  31.112  21.045  14.917
52867W        W24396   6.265  29.535   4.143
52868W        W24397  42.078  15.843  14.371
52869W        W24398  43.112  25.138   4.249
52870W        W24399   9.808  20.310   3.997
52871W        W24400  17.659  14.592   2.510
52872W        W24401  33.474  12.356   1.318
52873W        W24402  19.522  32.839   4.218
52874W        W24403  43.174   8.891  13.141
52875W        W24404  20.628   8.547  14.776
52876W        W24405  15.063  10.065  11.242
52877W        W24406   6.987  42.290  14.045
52878W        W24407  12.341   7.560   4.715
52879W        W24408   5.341  25.179   1.809
52880W        W24409   1.226  15.589   2.270
52881W        W24410  41.245  33.132   2.565
52882W        W24411  22.100   0.163  11.743
52883W        W24412  36.635  44.937  14.077
52884W        W24413  22.613  44.967  13.627
52885W        W24414   2.460  11.017   2.248
52886W        W24415   3.383  13.397  14.951
52887W        W24416  22.775  44.413  12.939
52888W        W24417  26.860  38.839  14.274
52889W        W24418  21.325  12.801   1.706
52890W        W24419  24.758  18.792   2.971
52891W        W24420  15.639  37.421   0.329
52892W        W24421  25.777  23.048  10.394
52893W        W24422   2.738  36.914   2.172
52894W        W24423  35.934  28.184   3.471
52895W        W24424  15.740  12.797  12.393
52896W        W24425   6.351  20.459   9.501
52897W        W24426  20.680   1.633  12.951
52898W        W24427  41.585  19.600   3.205
52899W        W24428  14.092   0.870  11.565
52900W        W24429  34.877   9.213   2.276
52901W        W24430  19.290  26.791   0.334
52902W        W24431  16.961  13.169   3.320
52903W        W24432  31.607   1.909   4.168
52904W        W24433  44.372  24.230   0.333
52905W        W24434  32.893  28.888  10.654
52906W        W24435  24.381  16.976  12.844
52907W        W24436  25.001   1.781  13.003
52908W        W24437   4.364  28.128  12.099
52909W        W24438  34.539   7.465   3.333
52910W        W24439   1.852   8.279   1.334
52911W        W24440   5.658  10.683   2.864
52912W        W24441  34.858  35.488   2.347
52913W        W24442  26.168  19.357   0.750
52914W        W24443  11.650  10.960  12.297
52915W        W24444  19.044  17.338   3.907
52916W        W24445  38.477  17.251   2.769
52917W        W24446  42.590   4.818   0.094
52918W        W24447  12.836   3.687  14.535
52919W        W24448  12.586  19.115   1.686
52920W        W24449   3.946  33.845   1.274
52921W        W24450  13.111  38.582  13.396
52922W        W24451  39.695  13.626   1.322
52923W        W24452  42.524  31.574   3.618
52924W        W24453  20.513  19.128   4.865
52925W        W24454  21.972  37.063  12.456
52926W        W24455  41.393  39.547   3.750
52927W        W24456  30.370  32.669  12.603
52928W        W24457  24.067  37.256   0.783
52929W        W24458  36.914   2.064   4.037
52930W        W24459  42.587  34.906   0.816
52931W        W24460  27.971  37.978  11.090
52932W        W24461  17.028  18.633   3.300
52933W        W24462  44.097   6.032  11.466
52934W        W24463  44.086   9.302  14.896
52935W        W24464  20.110  37.827  13.095
52936W        W24465  32.093  12.635   3.272
52937W        W24466  33.729  29.183   3.206
52938W        W24467   8.717  22.068  13.176
52939W        W24468  24.861   2.259  12.524
52940W        W24469   8.214  32.582   3.687
52941W        W24470  19.291   7.602  14.770
52942W        W24471  37.959  25.006   4.159
52943W        W24472  22.724   5.318  14.696
52944W        W24473  28.961  24.256   4.593
52945W        W24474  29.522  21.592  13.563
52946W        W24475   7.021   3.743  12.922
52947W        W24476  19.311  12.329  12.909
52948W        W24477  26.135  12.338   2.793
52949W        W24478  19.591  40.549  11.604
52950W        W24479   3.364  44.030   4.626
52951W        W24480   1.508  10.655   3.236
52952W        W24481  37.758   4.238  11.987
52953W        W24482  25.705   9.634   0.817
52954W        W24483  13.276  39.292   3.334
52955W        W24484  40.245  44.032  14.578
52956W        W24485  12.428  34.062  13.451
52957W        W24486   4.347  27.714   0.695
52958W        W24487  29.568  20.730   4.089
52959W        W24488  17.241   0.305  14.859
52960W        W24489  36.019  12.524  12.947
52961W        W24490  29.485  35.529  13.872
52962W        W24491   5.483  42.374  13.983
52963W        W24492  26.036  32.590   1.401
52964W        W24493  17.546  18.245   2.262
52965W        W24494   4.745  31.416  14.331
52966W        W24495  11.587  42.449  14.959
52967W        W24496  41.802  12.499   3.058
52968W        W24497  40.580  22.561  14.305
52969W        W24498  12.197  31.501   4.364
52970W        W24499  27.590   7.891  10.979
52971W        W24500  12.773  38.509  12.969
52972W        W24501  31.016  43.206  14.877
52973W        W24502   4.654   9.150  12.606
52974W        W24503   9.334  25.394   2.647
52975W        W24504  15.426  43.858   4.924
52976W        W24505  38.388  26.185   3.725
52977W        W24506  44.772   1.338  11.417
52978W        W24507   4.219   2.269   2.447
52979W        W24508  10.219  23.045   3.822
52980W        W24509   8.158  29.489  12.550
52981W        W24510  31.482   1.904   4.674
52982W        W24511  41.629  12.106   3.347
52983W        W24512  21.268  40.525  13.959
52984W        W24513  37.837  26.559  10.213
52985W        W24514  38.918  12.924  12.173
52986W        W24515  11.653  28.421   0.715
52987W        W24516  30.165   8.413   4.787
52988W        W24517  35.054  30.477   2.377
52989W        W24518  39.435   1.511   2.963
52990W        W24519  34.644   3.888   3.314
52991W        W24520   8.784   3.507   4.943
52992W        W24521   5.197   1.365   0.054
52993W        W24522  15.750   2.812   4.579
52994W        W24523  18.106  15.708  14.312
52995W        W24524  29.982  19.316  12.482
52996W        W24525  22.991   4.432  11.564
52997W        W24526   9.749   8.011   4.233
52998W        W24527  42.959  24.128   2.599
52999W        W24528   5.303  31.232  14.035
53000W        W24529  27.268   2.420  14.853
53001W        W24530   3.312   8.334  14.798
53002W        W24531  27.709  44.023  14.196
53003W        W24532  28.439  28.416  13.808
53004W        W24533  20.653  29.938   1.173
53005W        W24534  35.978   7.263  13.489
53006W        W24535  23.926  36.488   0.030
53007W        W24536  29.080  17.763   0.465
53008W        W24537  22.276  22.989   0.885
53009W        W24538  17.761  17.369   2.292
53010W        W24539  41.255  14.134   3.710
53011W        W24540  40.351  16.121  14.846
53012W        W24541  13.654  32.547  12.931
53013W        W24542  35.125  33.150  12.377
53014W        W24543  12.197  43.846  13.883
53015W        W24544  35.980  34.394  12.826
53016W        W24545   9.610   3.590   0.855
53017W        W24546  35.884   5.036   4.666
53018W        W24547  28.598  28.068   1.707
53019W        W24548  29.208  22.240   2.274
53020W        W24549  22.790  17.788   4.220
53021W        W24550  25.992   9.459  10.700
53022W        W24551  35.606   6.726   0.024
53023W        W24552   4.549  26.258  13.146
53024W        W24553   7.915  29.902  13.692
53025W        W24554  21.068  29.491   4.012
53026W        W24555  43.322  20.820  12.949
53027W        W24556  16.626  32.026  11.170
53028W        W24557  41.776  17.478  11.148
53029W        W24558   3.876  16.734  13.708
53030W        W24559  15.867  38.497   0.535
53031W        W24560  32.099   8.852   2.643
53032W        W24561  26.606  32.865  14.372
53033W        W24562  37.016  25.860  12.000
53034W        W24563  18.980  34.843   2.335
53035W        W24564  41.577   2.991   2.895
53036W        W24565  11.665  12.862   2.696
53037W        W24566  25.547  33.368   1.426
53038W        W24567  39.435  41.513   3.653
53039W        W24568  29.183  44.904  11.189
53040W        W24569  21.150   2.200  14.726
53041W        W24570  12.353  10.133   0.161
53042W        W24571  43.793  21.107  13.346
53043W        W24572  13.768  24.942  11.636
53044W        W24573  27.821  19.579   5.021
53045W        W24574  30.857  31.231  14.952
53046W        W24575  32.251   6.498  11.593
53047W        W24576  38.423  43.418  12.428
53048W        W24577  33.986  26.804  14.450
53049W        W24578   6.478   8.191   4.147
53050W        W24579   0.461  22.479  11.606
53051W        W24580  27.968  25.581   4.073
53052W        W24581  42.987  30.044   0.216
53053W        W24582  38.979  44.398  10.668
53054W        W24583   1.671  39.571  14.838
53055W        W24584  15.026  25.683  11.082
53056W        W24585  41.418  42.314   0.028
53057W        W24586  29.928   5.359   2.883
53058W        W24587   4.962  27.132   1.028
53059W        W24588   2.706  26.510   0.721
53060W        W24589  15.622  27.480  12.050
53061W        W24590  11.259  32.233  14.382
53062W        W24591  31.373   9.131   1.993
53063W        W24592  10.622  32.597  11.058
53064W        W24593  44.046   3.809   4.717
53065W        W24594  42.274   2.824   1.586
53066W        W24595  31.425  34.614   4.042
53067W        W24596  22.194   9.931  11.118
53068W        W24597  23.449  34.329  12.935
53069W        W24598   3.362   9.213   0.353
53070W        W24599  34.473  30.697   0.745
53071W        W24600   1.475  41.930  12.001
53072W        W24601  37.890   0.500  14.975
53073W        W24602  43.276  11.836   0.877
53074W        W24603  10.586  41.091  14.237
53075W        W24604  39.274  21.420   2.371
53076W        W24605   5.609  24.696  12.478
53077W        W24606  26.625  38.242  12.475
53078W        W24607  13.906  36.953  12.961
53079W        W24608  14.383  19.052   2.657
53080W        W24609   6.323  28.045  10.087
53081W        W24610  12.266  21.975   2.201
53082W        W24611  32.342  16.267  11.964
53083W        W24612  39.993  14.256  11.435
53084W        W24613  30.212  26.680   4.407
53085W        W24614  15.567  34.150   3.861
53086W        W24615  40.927  42.842   2.146
53087W        W24616  35.298  10.072   4.866
53088W        W24617   7.438  32.115  13.897
53089W        W24618  17.944  30.474  14.909
53090W        W24619   0.481  19.476   3.369
53091W        W24620  26.834  29.427  10.464
53092W        W24621  24.807  30.871  12.367
53093W        W24622  38.934  17.111   2.428
53094W        W24623   0.237  25.451  11.429
53095W        W24624  14.389  21.669  13.960
53096W        W24625  30.554   8.853   2.630
53097W        W24626  16.054   6.779   0.800
53098W        W24627   5.945  40.254   4.280
53099W        W24628  26.187   6.933  14.414
53100W        W24629  29.035   8.355   4.669
53101W        W24630  11.375  41.201  13.615
53102W        W24631   5.104  37.604   3.546
53103W        W24632  14.414  36.871   4.108
53104W        W24633  29.688  26.383  14.750
53105W        W24634  15.670  39.804  12.520
53106W        W24635  22.914   0.335   4.133
53107W        W24636  35.056   2.357  11.621
53108W        W24637   3.012   3.351  14.439
53109W        W24638  34.275   6.662   3.144
53110W        W24639   1.210  25.032   3.983
53111W        W24640  44.044  12.751   2.216
53112W        W24641  34.934  25.661  12.978
53113W        W24642  29.671  33.310   3.666
53114W        W24643  14.257  14.899  14.996
53115W        W24644  38.610  42.972  14.094
53116W        W24645  18.305  36.957  10.776
53117W        W24646   3.400  29.474  10.792
53118W        W24647   2.684   3.910   1.872
53119W        W24648   2.743  28.865  11.062
53120W        W24649   9.365  15.602   2.352
53121W        W24650  22.501   3.797   0.822
53122W        W24651  20.685  43.415  13.494
53123W        W24652  39.389  17.361  12.388
53124W        W24653  19.213  34.951  10.618
53125W        W24654  13.810  28.463  14.976
53126W        W24655  31.014  22.159  13.867
53127W        W24656  30.268   0.338  11.627
53128W        W24657  28.718  39.312   0.835
53129W        W24658  25.990  20.217  13.376
53130W        W24659  29.717   8.316   3.856
53131W        W24660   3.290  41.792  11.635
53132W        W24661  43.798  36.979   3.375
53133W        W24662   3.308  20.085   1.444
53134W        W24663  30.221  30.410   3.729
53135W        W24664  15.570  24.681  13.904
53136W        W24665  43.062  35.363  12.534
53137W        W24666  42.845  40.973   1.372
53138W        W24667  17.883  44.908   1.879
53139W        W24668  14.184  25.909  12.802
53140W        W24669  13.738  20.264   1.759
53141W        W24670  23.796  34.503  10.756
53142W        W24671   4.191  34.845  14.512
53143W        W24672   0.969  18.963   4.425
53144W        W24673  22.560  31.485  11.138
53145W        W24674  15.032  16.175  11.977
53146W        W24675  32.443  31.031  14.415
53147W        W24676  30.614  23.705   0.889
53148W        W24677   4.559  26.048   4.084
53149W        W24678  18.959   2.104  14.803
53150W        W24679  38.105   0.982   3.227
53151W        W24680   1.486   6.546  10.998
53152W        W24681  13.708  33.230   2.473
53153W        W24682  15.841  26.067  13.956
53154W        W24683   6.230  17.274  12.565
53155W        W24684  37.984  39.814   0.892
53156W        W24685  16.503  42.595   1.332
53157W        W24686  26.900  33.113  10.611
53158W        W24687  21.738  10.231   3.661
53159W        W24688  42.659  28.975  14.413
53160W        W24689   0.011  17.063  13.327
53161W        W24690  31.812   2.377  11.469
53162W        W24691  18.619  20.897   1.828
53163W        W24692  13.802  15.526  10.510
53164W        W24693  34.471  25.137   1.901
53165W        W24694   9.812  22.712  11.131
53166W        W24695   2.038  25.353   2.793
53167W        W24696  24.151   7.083   0.423
53168W        W24697  40.060  18.041  12.432
53169W        W24698   3.408   0.446  12.226
53170W        W24699  21.678  13.299  14.479
53171W        W24700  40.430  14.580   3.305
53172W        W24701  20.532  33.421   0.335
53173W        W24702  26.041  35.583  13.873
53174W        W24703  10.371  14.781   1.321
53175W        W24704  39.439  13.871  10.437
53176W        W24705  27.060  28.291  12.628
53177W        W24706   2.168  29.076  12.396
53178W        W24707  10.435   1.493  14.206
53179W        W24708  19.395  17.277  14.300
53180W        W24709  11.381  43.813   0.256
53181W        W24710  18.816   3.843   0.118
53182W        W24711  28.951  37.622   3.584
53183W        W24712  11.973  30.867   3.250
53184W        W24713  13.622  15.193  13.982
53185W        W24714  17.080  10.932   0.496
53186W        W24715  21.612  14.920  13.887
53187W        W24716  28.825   5.682   0.817
53188W        W24717  16.734  43.306   0.280
53189W        W24718  34.941  28.150   1.812
53190W        W24719  43.458  15.951  14.318
53191W        W24720   3.466   7.060   3.783
53192W        W24721   4.084  14.454  10.442
53193W        W24722   4.586  44.677   1.263
53194W        W24723  22.519   5.624  11.575
53195W        W24724  21.262   1.601   5.016
53196W        W24725  39.340  28.680   2.226
53197W        W24726  26.117  39.564  11.208
53198W        W24727  10.254  20.066   4.054
53199W        W24728   3.447  44.171   3.603
53200W        W24729   5.261  32.385  13.559
53201W        W24730  42.632  19.742  13.358
53202W        W24731  25.272  31.421  12.974
53203W        W24732   5.258  25.139   2.697
53204W        W24733  30.983  14.233  13.309
53205W        W24734  34.942  21.057  10.361
53206W        W24735  35.353  16.216  14.338
53207W        W24736  34.313  38.065  14.950
53208W        W24737  15.271  30.831  14.434
53209W        W24738  11.388   0.745   0.906
53210W        W24739  18.079  12.130  11.182
53211W        W24740  18.041  16.099   4.653
53212W        W24741   0.161  34.508  14.184
53213W        W24742  43.476  16.209   3.386
53214W        W24743   7.124   4.929   4.312
53215W        W24744  13.371  13.348  14.880
53216W        W24745  36.424  37.190   1.894
53217W        W24746  15.084  35.871  11.631
53218W        W24747  43.433  36.864   2.568
53219W        W24748  42.412  28.970   4.560
53220W        W24749  12.333  21.748  13.232
53221W        W24750  16.210  38.704  13.991
53222W        W24751  22.553  21.691  11.007
53223W        W24752  36.530  13.733  10.471
53224W        W24753  12.004   1.672  14.022
53225W        W24754  33.125   1.398   4.635
53226W        W24755   4.313  10.972   2.293
53227W        W24756  33.886   5.724  11.483
53228W        W24757   2.285  33.328  13.969
53229W        W24758  44.576   1.843   2.760
53230W        W24759   4.031  38.284  10.571
53231W        W24760  12.711  43.962  14.772
53232W        W24761  33.058  39.116   3.194
53233W        W24762   9.196   3.834  13.605
53234W        W24763   1.220  10.909  11.178
53235W        W24764   8.230   2.283  14.409
53236W        W24765   3.887  33.670   1.965
53237W        W24766  28.884   8.130   4.173
53238W        W24767  11.747  15.187  12.893
53239W        W24768  12.066   4.465   0.980
53240W        W24769   7.869  33.658  10.834
53241W        W24770  31.177  41.044   5.114
53242W        W24771  11.116  31.224   3.213
53243W        W24772  31.360   4.041   0.795
53244W        W24773  32.161   6.817  11.208
53245W        W24774  13.755   9.169   2.613
53246W        W24775  30.125  38.899   4.114
53247W        W24776   0.315  38.907   4.334
53248W        W24777  13.120  40.642  14.638
53249W        W24778  18.414  18.249  13.294
53250W        W24779  28.840  29.552  12.525
53251W        W24780  16.560  13.531   4.765
53252W        W24781  21.221  15.010  11.688
53253W        W24782  17.170   5.061  12.655
53254W        W24783   5.134  10.173  10.747
53255W        W24784   3.677  33.365   2.349
53256W        W24785   7.173  15.178  14.874
53257W        W24786  36.828  25.198  14.822
53258W        W24787  17.719  20.561   3.959
53259W        W24788  32.862  37.312  12.924
53260W        W24789  27.679  44.010  12.904
53261W        W24790  26.074  15.662   2.544
53262W        W24791  30.883   1.246   4.270
53263W        W24792   3.220  16.764   0.914
53264W        W24793  14.317  22.841  14.986
53265W        W24794  11.932   9.879   0.375
53266W        W24795  41.146  37.835  11.527
53267W        W24796   8.171  29.930   3.866
53268W        W24797  35.445  18.262  11.099
53269W        W24798  17.747  21.066  14.851
53270W        W24799  30.533  21.470   2.386
53271W        W24800  43.076  21.765  11.002
53272W        W24801  12.349  41.482  11.972
53273W        W24802  12.154  34.873  13.913
53274W        W24803   9.133  22.575  11.684
53275W        W24804  30.846  30.173  14.918
53276W        W24805  12.406  32.722   2.340
53277W        W24806  16.318  19.296   5.377
53278W        W24807   3.769   8.364   3.671
53279W        W24808  43.511  26.245   3.354
53280W        W24809  20.556  15.103   0.748
53281W        W24810  15.058  18.702  14.830
53282W        W24811  39.926  41.115   4.493
53283W        W24812  14.781  39.066  11.151
53284W        W24813   2.431  23.298   2.235
53285W        W24814  41.965   7.771  12.863
53286W        W24815  29.889  19.755   0.868
53287W        W24816   6.191  27.514   3.936
53288W        W24817   0.382  17.204   0.689
53289W        W24818  27.489  28.648  13.505
53290W        W24819  34.425  42.670  12.077
53291W        W24820   2.857  33.852  12.969
53292W        W24821  12.184  40.843  12.794
53293W        W24822  32.638  32.119   3.802
53294W        W24823  16.337  36.231   4.612
53295W        W24824  24.492  13.781  11.506
53296W        W24825  43.986   2.328  11.539
53297W        W24826  43.454  36.844   2.050
53298W        W24827  28.169  31.547   3.736
53299W        W24828  20.695   3.440  12.124
53300W        W24829  37.478  18.637  11.210
53301W        W24830  28.871  28.568   0.786
53302W        W24831   7.295  20.250   3.624
53303W        W24832   7.673  24.403   0.471
53304W        W24833  34.037  30.145  12.194
53305W        W24834   0.830  30.898  11.328
53306W        W24835  11.119  24.732   2.122
53307W        W24836   9.117   5.335  14.873
53308W        W24837   4.792  42.794   1.166
53309W        W24838  33.271  15.282  14.515
53310W        W24839  39.126   8.758  13.329
53311W        W24840   8.812  17.787   1.711
53312W        W24841  14.737  16.957   1.337
53313W        W24842   3.992   4.866   2.598
53314W        W24843  15.785   5.302  11.009
53315W        W24844  26.059  33.909   2.712
53316W        W24845  23.570  34.827  12.215
53317W        W24846  37.408  29.212   4.683
53318W        W24847  11.173   5.259   1.226
53319W        W24848  16.413  38.451  13.576
53320W        W24849   7.241  22.078   0.010
53321W        W24850   9.851   4.132  12.678
53322W        W24851  29.656  27.129   2.276
53323W        W24852  42.348  19.698   2.241
53324W        W24853  22.585  37.564  12.171
53325W        W24854  29.569  19.789   4.457
53326W        W24855  31.839  40.451   4.344
53327W        W24856  31.912  36.642  11.909
53328W        W24857  17.220   8.224  14.381
53329W        W24858  34.866   1.617  10.776
53330W        W24859   2.805  44.261  14.939
53331W        W24860   0.485  19.014  10.738
53332W        W24861  25.227  22.626   4.511
53333W        W24862  20.812   2.920  13.462
53334W        W24863  23.036  11.149   1.462
53335W        W24864  17.082  36.296  14.338
53336W        W24865  11.651   2.277  13.515
53337W        W24866   9.626  13.226  11.982
53338W        W24867  12.145   9.795  13.953
53339W        W24868  44.278   3.182   3.922
53340W        W24869  40.063   1.346  12.852
53341W        W24870   3.332   0.892  14.707
53342W        W24871   7.681  34.070   3.881
53343W        W24872  24.222  27.273  11.232
53344W        W24873  37.116   6.136  14.436
53345W        W24874  22.667  14.314   2.258
53346W        W24875  29.196  12.695   3.763
53347W        W24876  15.129  11.636   1.217
53348W        W24877  32.467  18.173   2.855
53349W        W24878  14.186  16.356  14.761
53350W        W24879  26.454  31.830   4.186
53351W        W24880  30.675   6.217   2.362
53352W        W24881  12.695  10.505  14.889
53353W        W24882  41.214  33.283  11.191
53354W        W24883  34.466  26.460  11.482
53355W        W24884   7.580   5.266  12.095
53356W        W24885  14.610  27.461   2.906
53357W        W24886   3.253   8.787   0.076
53358W        W24887  40.297   3.921  14.216
53359W        W24888  17.216  29.411  13.078
53360W        W24889  40.164  30.617   3.448
53361W        W24890  30.995  26.314  12.842
53362W        W24891   5.346  28.364  12.217
53363W        W24892  34.496  35.481  12.681
53364W        W24893  35.436  12.113   3.811
53365W        W24894  21.734  37.350  14.210
53366W        W24895  11.759  37.453  14.214
53367W        W24896   7.777   7.901   0.386
53368W        W24897  34.612  32.185  12.106
53369W        W24898  23.237  18.543  12.661
53370W        W24899  21.772  24.608   1.197
53371W        W24900   0.689  17.690  14.888
53372W        W24901  42.774  37.440   3.565
53373W        W24902  29.559   5.705  13.154
53374W        W24903   2.978  36.908  12.099
53375W        W24904   0.785  11.988   0.459
53376W        W24905  39.086  29.113   3.728
53377W        W24906  19.031  11.690  11.627
53378W        W24907  13.260  16.484   4.486
53379W        W24908   4.212   5.829   4.767
53380W        W24909  23.614  26.739   4.368
53381W        W24910  22.464  20.123  12.168
53382W        W24911  16.736   5.949  13.322
53383W        W24912  39.839  12.721  11.700
53384W        W24913  40.856  22.024   2.244
53385W        W24914  29.663  14.600  11.530
53386W        W24915  24.681  40.447   0.299
53387W        W24916  37.979  11.111  14.811
53388W        W24917  31.248  21.376   0.992
53389W        W24918  42.902  12.128   4.695
53390W        W24919  26.490  17.817  13.580
53391W        W24920  41.024   6.916  13.481
53392W        W24921  20.025  23.920   0.321
53393W        W24922  31.928   4.354  13.285
53394W        W24923  30.121  10.338   1.753
53395W        W24924  36.348  19.679  14.570
53396W        W24925  44.299   9.434  10.733
53397W        W24926  19.914  30.545   3.190
53398W        W24927  14.333  24.970  14.967
53399W        W24928   5.970  29.952   0.371
53400W        W24929   4.475  17.307   0.721
53401W        W24930   1.792  11.661  10.933
53402W        W24931  26.748  41.202   2.400
53403W        W24932  18.578  37.819  11.607
53404W        W24933  35.985   3.491  13.514
53405W        W24934  26.706   3.573   4.491
53406W        W24935  11.694  15.649   0.504
53407W        W24936   1.948   2.899  14.813
53408W        W24937   4.809  24.124  13.230
53409W        W24938  44.250   0.712   2.726
53410W        W24939  16.415  38.335   4.578
53411W        W24940  12.274  15.726   4.752
53412W        W24941   7.882   5.170   1.329
53413W        W24942   1.224   3.739  12.794
53414W        W24943  40.876  37.392  11.479
53415W        W24944   6.453  15.257  14.380
53416W        W24945  26.431  33.406  14.939
53417W        W24946   4.785  13.400  12.851
53418W        W24947  20.072  38.800  12.967
53419W        W24948   1.830  12.743   1.484
53420W        W24949  11.795  27.654   0.386
53421W        W24950   7.948   5.483  13.435
53422W        W24951  23.870  27.672   0.861
53423W        W24952  14.348  31.429   2.219
53424W        W24953  33.581  11.765   5.119
53425W        W24954  20.699  24.673  11.439
53426W        W24955   0.378  19.021   0.481
53427W        W24956  14.393  18.364  14.883
53428W        W24957  39.706   1.847  13.346
53429W        W24958  31.046   8.159  11.422
53430W        W24959   7.172  11.172   3.696
53431W        W24960  36.982  23.793   2.240
53432W        W24961   5.057  18.459   1.210
53433W        W24962  20.650  16.367   1.443
53434W        W24963  15.274  40.432   4.167
53435W        W24964   1.102  40.263   1.275
53436W        W24965   9.507   6.446  12.468
53437W        W24966  21.161   2.946   3.149
53438W        W24967  30.380  25.635  13.389
53439W        W24968  42.481  26.189   3.200
53440W        W24969   4.010  42.039  11.999
53441W        W24970   4.780  31.619  13.388
53442W        W24971  21.971   2.511   1.222
53443W        W24972  20.342   1.934  14.329
53444W        W24973  19.745  19.048   0.360
53445W        W24974  27.773  28.177   4.763
53446W        W24975   1.347  40.562   3.345
53447W        W24976  12.311  17.952   1.455
53448W        W24977  20.029  27.977  14.459
53449W        W24978   6.940  10.891   0.738
53450W        W24979  39.556  35.091   2.848
53451W        W24980   9.179   9.078   1.221
53452W        W24981   3.330   0.215   1.327
53453W        W24982  26.181  30.652  11.697
53454W        W24983  30.895  30.513  11.479
53455W        W24984  25.082  15.451  11.225
53456W        W24985  29.932  16.681   3.860
53457W        W24986   6.988  33.742  12.675
53458W        W24987   4.799  12.333   0.033
53459W        W24988  44.776   9.798  12.939
53460W        W24989  35.514  43.773  11.089
53461W        W24990  21.143  23.001   1.385
53462W        W24991  19.493  11.877  11.492
53463W        W24992  18.179   7.816  13.485
53464W        W24993  40.733  31.908   1.889
53465W        W24994  40.042   4.839   2.170
53466W        W24995  27.582  16.593   2.650
53467W        W24996  23.550  42.168  10.689
53468W        W24997   7.890   8.395   4.084
53469W        W24998  18.354   4.750  14.343
53470W        W24999  36.081  44.312  13.871
53471W        W25000  16.215  25.110   4.688
53472W        W25001   3.739  19.179   4.426
53473W        W25002  36.035  22.782  12.199
53474W        W25003  32.481  20.126  13.906
53475W        W25004  40.023   6.196   3.081
53476W        W25005   8.694  38.609  13.928
53477W        W25006   8.335  30.968   2.807
53478W        W25007  38.288  24.672  11.633
53479W        W25008  26.034   1.119  14.912
53480W        W25009  16.814  12.604   0.841
53481W        W25010   5.253  23.637  13.884
53482W        W25011   2.692  30.446  11.659
53483W        W25012  42.073  34.708   2.149
53484W        W25013  41.583  36.601   3.184
53485W        W25014  36.448   1.452   1.327
53486W        W25015  38.857  35.489   0.987
53487W        W25016  32.861  39.975  11.475
53488W        W25017  12.574  23.309  14.752
53489W        W25018   2.858  39.853   2.233
53490W        W25019  36.935  32.035  10.650
53491W        W25020  40.509  15.632   4.511
53492W        W25021  15.995  18.811  13.934
53493W        W25022  25.244   7.729   3.676
53494W        W25023  10.946  21.657  11.873
53495W        W25024  15.153  32.987   0.211
53496W        W25025   7.507  16.220  12.636
53497W        W25026  25.112   6.720   3.725
53498W        W25027   2.325  22.180  12.356
53499W        W25028  17.643  43.347   0.434
53500W        W25029  40.362  19.662  11.100
53501W        W25030   8.590   2.804   4.300
53502W        W25031   8.808   2.668  12.926
53503W        W25032   5.961  14.240   3.223
53504W        W25033  11.629   6.864   0.230
53505W        W25034  23.659  28.129  11.236
53506W        W25035  27.173  17.492  12.014
53507W        W25036  18.805  38.863  13.953
53508W        W25037  20.444  18.125  12.670
53509W        W25038  16.582  13.380   4.259
53510W        W25039  22.385  43.296   4.644
53511W        W25040   2.979  32.189   4.196
53512W        W25041  17.173  24.278  14.951
53513W        W25042  33.619  11.389  14.739
53514W        W25043  33.012   3.209   4.117
53515W        W25044  33.490  24.346   5.341
53516W        W25045   7.890  23.383  14.537
53517W        W25046   3.465  42.932  14.576
53518W        W25047  43.692  18.405   0.048
53519W        W25048   9.589  37.369  13.707
53520W        W25049  44.009   0.260  14.841
53521W        W25050  40.397  34.967  11.995
53522W        W25051  43.398  18.658   1.380
53523W        W25052  28.167  31.145   4.222
53524W        W25053  39.587  16.692   4.379
53525W        W25054  27.987  44.105   0.744
53526W        W25055  21.468  25.986  13.839
53527W        W25056   1.296   5.683  14.047
53528W        W25057  31.404   0.549   2.283
53529W        W25058  43.448  36.783  13.421
53530W        W25059  33.616  25.678  12.629
53531W        W25060  31.486   4.883  12.106
53532W        W25061  41.238  26.541   2.423
53533W        W25062   9.358  17.246  12.038
53534W        W25063  36.289  19.200  12.515
53535W        W25064  42.839   6.869  11.052
53536W        W25065  34.819   5.196  14.735
53537W        W25066  24.733  28.349  11.535
53538W        W25067  37.092  39.578   3.720
53539W        W25068  21.087  21.327   3.082
53540W        W25069  14.761   7.343   0.503
53541W        W25070  44.243   5.680   1.947
53542W        W25071   2.252  34.898   5.463
53543W        W25072  21.649   0.476  12.533
53544W        W25073  16.017   4.639  10.407
53545W        W25074  15.336  29.870  12.638
53546W        W25075  16.379   3.742   3.698
53547W        W25076  28.989  11.925   1.566
53548W        W25077  22.752  15.693  14.955
53549W        W25078  15.708   0.558  13.816
53550W        W25079  36.830   9.203  14.270
53551W        W25080   7.564  44.371   3.752
53552W        W25081  13.784  29.057   1.372
53553W        W25082   7.366   6.808   0.837
53554W        W25083  24.671  33.129   2.120
53555W        W25084  35.047  11.834   2.157
53556W        W25085  35.868  13.399   2.245
53557W        W25086  19.107  20.553   3.308
53558W        W25087  30.889   5.476   0.033
53559W        W25088  28.450  22.695   1.618
53560W        W25089  24.516  38.866  13.848
53561W        W25090  15.579  38.803  13.416
53562W        W25091  13.077  44.487   0.856
53563W        W25092   7.529  11.635  12.066
53564W        W25093  24.228   3.306   4.120
53565W        W25094  19.122  40.257  13.660
53566W        W25095  39.808  16.409   1.409
53567W        W25096   2.386  42.533  14.705
53568W        W25097   1.547  10.123  14.375
53569W        W25098  34.364  21.133   2.692
53570W        W25099  15.308  13.840   0.594
53571W        W25100   4.899   7.453   2.622
53572W        W25101  11.908   5.756  10.281
53573W        W25102  42.032   4.765  10.831
53574W        W25103  35.108  39.911   3.621
53575W        W25104   7.604  14.775   0.503
53576W        W25105  26.150  39.533   3.712
53577W        W25106  10.251  27.097   4.193
53578W        W25107  19.739  41.287   0.809
53579W        W25108  23.773  39.818  12.463
53580W        W25109  19.841  41.017  11.588
53581W        W25110  29.558   2.999   0.809
53582W        W25111  19.619  30.485  10.270
53583W        W25112  17.665  11.273   3.690
53584W        W25113  44.887  16.022  12.421
53585W        W25114  22.703   7.436  14.007
53586W        W25115  37.951  44.064  10.732
53587W        W25116  14.000   7.594  11.444
53588W        W25117  17.580  41.310  14.407
53589W        W25118  12.074  39.291   4.602
53590W        W25119  27.249  44.747   2.663
53591W        W25120  29.207  36.872   0.767
53592W        W25121  35.053  16.263  11.237
53593W        W25122  38.316  30.563  14.078
53594W        W25123   1.062  43.238   3.786
53595W        W25124   6.772  43.884  14.753
53596W        W25125  25.019  44.483   2.058
53597W        W25126  29.634  19.399   1.134
53598W        W25127  36.452  24.225  12.790
53599W        W25128   7.827  36.458  10.419
53600W        W25129  22.523  14.134  14.792
53601W        W25130  14.627   7.156   2.773
53602W        W25131   2.426  28.064  11.549
53603W        W25132  14.340  11.581  12.914
53604W        W25133  34.370   4.279  14.704
53605W        W25134  14.334  14.253  11.526
53606W        W25135   2.428  26.660  14.021
53607W        W25136  44.690  41.369  12.051
53608W        W25137  34.419  41.351  10.845
53609W        W25138  18.527  26.159   4.668
53610W        W25139  10.230   5.744   3.978
53611W        W25140  38.955  31.523  10.752
53612W        W25141  16.832   2.381  11.175
53613W        W25142  30.272   2.119   4.049
53614W        W25143  44.492   2.073   4.895
53615W        W25144  39.001   5.786  14.290
53616W        W25145  30.016  20.432   1.434
53617W        W25146  44.800  30.674   1.814
53618W        W25147  19.254   2.009   2.193
53619W        W25148  29.936  34.380  12.582
53620W        W25149  19.016  22.456  12.970
53621W        W25150  12.699  23.729   2.367
53622W        W25151   7.204   4.925  12.949
53623W        W25152  40.497  13.949   0.193
53624W        W25153   9.146  26.144   1.412
53625W        W25154  28.987  16.658   0.278
53626W        W25155   1.419   1.445   3.779
53627W        W25156  36.078  28.263  13.481
53628W        W25157   7.402   8.796  14.044
53629W        W25158  10.593  26.215   0.178
53630W        W25159  17.903  42.751  11.890
53631W        W25160  30.264  44.201   1.323
53632W        W25161  21.101  26.349  11.679
53633W        W25162  15.263  17.651   2.151
53634W        W25163   8.874  44.252   1.560
53635W        W25164  25.585  38.668   0.684
53636W        W25165  33.006   7.921   2.751
53637W        W25166  10.351  44.163   2.054
53638W        W25167  15.209  32.646   3.160
53639W        W25168  41.751   7.883   3.378
53640W        W25169   2.438   3.467   1.798
53641W        W25170  12.983   1.207   4.548
53642W        W25171   6.336   6.875   4.955
53643W        W25172  37.047   8.676  13.996
53644W        W25173   2.196  20.154   3.305
53645W        W25174  19.135  23.451   1.914
53646W        W25175   5.854  25.206  13.825
53647W        W25176   9.735  37.052   4.412
53648W        W25177  27.996  27.838   3.057
53649W        W25178  13.672  19.768   1.842
53650W        W25179  28.663   8.926  13.454
53651W        W25180  24.019  31.392  12.448
53652W        W25181  31.502  19.477  13.526
53653W        W25182   6.808  24.766  13.478
53654W        W25183  32.997  16.860   2.878
53655W        W25184  32.546  19.791   1.125
53656W        W25185  11.306   7.749   3.252
53657W        W25186  10.356  14.693  11.967
53658W        W25187  31.925  26.974  12.151
53659W        W25188   8.344  44.702   2.156
53660W        W25189   4.507  10.640  14.094
53661W        W25190  24.995  35.961   1.854
53662W        W25191   8.169  14.617   2.200
53663W        W25192  40.404  31.819   0.762
53664W        W25193  14.464  25.650   4.155
53665W        W25194  17.703  42.503   2.904
53666W        W25195  32.419   5.892   1.353
53667W        W25196  23.235  30.151   1.265
53668W        W25197   7.914  42.011  12.695
53669W        W25198  15.728  42.588   0.858
53670W        W25199  25.510  19.979   0.833
53671W        W25200  27.849  10.426   3.214
53672W        W25201   8.670  16.187  14.330
53673W        W25202   8.904   4.390   4.239
53674W        W25203  43.456  43.429   0.897
53675W        W25204  11.511  32.176  14.855
53676W        W25205  39.704   5.203  14.351
53677W        W25206  24.494  30.617   1.230
53678W        W25207  13.361  29.358   1.293
53679W        W25208  34.935  20.697  10.733
53680W        W25209  14.659   2.257  13.393
53681W        W25210  19.704   7.261   3.776
53682W        W25211  26.343  21.969  13.012
53683W        W25212  16.650  38.530   2.406
53684W        W25213  26.782  18.703  14.919
53685W        W25214  28.703  43.094  13.663
53686W        W25215   0.812  30.162  10.658
53687W        W25216   5.779  12.868   0.660
53688W        W25217   2.268  18.744  12.481
53689W        W25218  17.681   2.699  12.384
53690W        W25219  24.122  39.295   2.898
53691W        W25220  34.559  37.439  12.010
53692W        W25221  16.247  41.895   0.295
53693W        W25222  23.270  41.300  13.907
53694W        W25223  26.709  12.643   0.512
53695W        W25224   9.424  26.439   2.700
53696W        W25225  11.812  11.234  10.586
53697W        W25226  16.340  18.357  13.040
53698W        W25227  35.336   2.800  10.926
53699W        W25228  14.067  18.748   0.059
53700W        W25229   7.882  23.608   1.894
53701W        W25230  29.690  30.055  10.766
53702W        W25231   8.755  28.532   0.427
53703W        W25232  42.026  32.456   1.114
53704W        W25233  27.213  32.702   0.912
53705W        W25234  34.145  19.616  11.148
53706W        W25235  28.381   7.492   0.775
53707W        W25236  28.495   0.547   2.262
53708W        W25237  13.017  34.479  11.122
53709W        W25238  35.005   7.808   2.840
53710W        W25239  37.919   8.609   2.279
53711W        W25240  33.583   7.894  13.653
53712W        W25241  28.167  40.507   1.262
53713W        W25242  19.589  23.619  13.540
53714W        W25243  19.514   1.876  13.577
53715W        W25244  27.689   1.028   2.113
53716W        W25245   4.982  35.376   4.720
53717W        W25246  15.717  22.304   1.849
53718W        W25247  17.388  41.807  14.424
53719W        W25248  35.583  16.672   4.166
53720W        W25249  30.206  32.889  11.256
53721W        W25250  21.272  25.415   2.711
53722W        W25251  13.516  19.897   0.749
53723W        W25252  27.894   8.517   1.807
53724W        W25253  35.420  44.741   1.510
53725W        W25254  42.015  15.631  13.443
53726W        W25255  22.740  25.387  11.076
53727W        W25256  16.592  44.825   3.105
53728W        W25257  14.833  14.891  14.355
53729W        W25258  11.240  42.558  13.958
53730W        W25259   9.401  22.581   1.227
53731W        W25260   3.372  40.477   3.326
53732W        W25261  36.350  12.309   2.734
53733W        W25262  22.026   4.395   1.361
53734W        W25263  29.182   6.144  14.905
53735W        W25264  25.018  29.028   1.148
53736W        W25265  26.677  12.902   4.602
53737W        W25266  31.089  38.548   0.174
53738W        W25267   5.266   4.553   3.793
53739W        W25268  19.245  27.946   4.631
53740W        W25269  34.404   6.219  12.949
53741W        W25270   4.806  36.541   0.417
53742W        W25271  13.387   2.325   0.430
53743W        W25272  23.582  13.156   0.698
53744W        W25273  33.779  26.421   4.579
53745W        W25274  34.497  10.371   3.796
53746W        W25275  43.745  43.925  14.696
53747W        W25276  20.622  13.253  11.440
53748W        W25277  33.952  29.700  13.372
53749W        W25278   5.298  11.361  11.163
53750W        W25279   3.878  15.669   2.727
53751W        W25280   5.813  37.017   4.280
53752W        W25281  13.329   1.272   2.749
53753W        W25282  33.976  18.959   2.907
53754W        W25283  40.846  20.216  12.030
53755W        W25284  38.977  25.317  13.453
53756W        W25285  13.953  41.928   5.010
53757W        W25286  34.403   0.665   1.536
53758W        W25287   1.842  30.005   4.862
53759W        W25288  29.819  43.793  13.443
53760W        W25289  26.431  26.710  13.931
53761W        W25290  30.098  33.487  12.454
53762W        W25291  11.605   6.003   1.781
53763W        W25292  17.177  10.216   4.196
53764W        W25293  38.809  25.219   2.852
53765W        W25294   4.664  17.698   3.211
53766W        W25295  26.790  25.188   1.341
53767W        W25296  18.819  17.980  13.453
53768W        W25297  32.634   1.032   0.403
53769W        W25298  30.719  27.665  10.463
53770W        W25299  18.030   8.852  10.426
53771W        W25300  38.862   6.858   3.174
53772W        W25301  44.385  13.135   2.161
53773W        W25302  24.604  33.393  11.169
53774W        W25303  17.603  11.144  12.447
53775W        W25304  44.395  16.404  10.796
53776W        W25305  40.013  41.456   1.319
53777W        W25306  25.290  27.069   3.348
53778W        W25307  22.751  41.858  11.730
53779W        W25308  14.595  32.069   2.292
53780W        W25309   5.191   4.307  11.463
53781W        W25310  11.094  25.173   4.314
53782W        W25311   4.340  42.513   1.897
53783W        W25312  12.707   1.269  14.431
53784W        W25313   0.911  44.355   3.344
53785W        W25314  20.128   9.845   2.347
53786W        W25315  21.020  11.086  11.144
53787W        W25316   5.944  23.991   2.220
53788W        W25317  33.642  35.936  14.065
53789W        W25318  39.752   9.239  13.903
53790W        W25319  34.561  29.161   0.911
53791W        W25320  34.939  34.840   4.637
53792W        W25321  14.731  36.555   2.298
53793W        W25322  24.205  35.142  11.172
53794W        W25323  31.091  13.726   2.644
53795W        W25324  14.344   5.002   4.614
53796W        W25325  11.283  41.912   0.438
53797W        W25326  22.094  11.360   1.431
53798W        W25327   2.064  28.593   3.082
53799W        W25328  19.222  15.895   4.632
53800W        W25329   4.805  18.602   1.653
53801W        W25330  19.669  33.089   1.847
53802W        W25331   6.070  22.626   4.622
53803W        W25332  14.148  22.321  14.249
53804W        W25333  42.869   5.966   2.168
53805W        W25334  38.645  40.341  10.080
53806W        W25335  25.404  20.057   4.212
53807W        W25336  28.376  13.764  12.416
53808W        W25337  18.044  16.052   4.140
53809W        W25338   7.784  21.066  11.666
53810W        W25339  33.571  18.743  11.373
53811W        W25340  43.502  16.585  14.656
53812W        W25341   4.772  17.516  11.053
53813W        W25342  36.161   5.195  10.838
53814W        W25343  38.765  37.145  12.582
53815W        W25344  13.669   8.738   0.339
53816W        W25345   3.985  33.973   0.361
53817W        W25346   0.431  27.194  11.227
53818W        W25347  33.547  40.776  10.739
53819W        W25348  20.635  28.425   1.861
53820W        W25349  27.674  21.609  14.794
53821W        W25350  23.513  12.271   1.253
53822W        W25351  16.786  17.434  11.064
53823W        W25352  38.308  30.150  12.978
53824W        W25353  16.438  19.017  14.447
53825W        W25354   1.024  35.418   1.892
53826W        W25355   0.424  38.272  14.663
53827W        W25356  36.874  31.958   0.468
53828W        W25357   4.821  34.027   2.281
53829W        W25358  33.392  42.237   3.351
53830W        W25359   8.208  38.623   2.921
53831W        W25360   5.891  18.074   1.003
53832W        W25361   7.461   7.081  11.271
53833W        W25362  32.863  11.173  13.353
53834W        W25363  29.101  39.818   4.625
53835W        W25364   4.672   3.259   2.621
53836W        W25365  33.384  17.717   4.559
53837W        W25366  10.405  40.408   4.873
53838W        W25367  33.950   4.718  10.037
53839W        W25368  25.638  16.047  14.239
53840W        W25369  34.657   8.206   4.102
53841W        W25370  28.045  24.246   4.460
53842W        W25371  30.256   9.355  13.764
53843W        W25372  31.060  39.971  11.202
53844W        W25373   9.177  25.000  13.394
53845W        W25374  14.342  41.930   4.597
53846W        W25375  24.608  11.490  13.726
53847W        W25376  38.447  14.602   2.983
53848W        W25377  20.369  27.000   4.747
53849W        W25378  20.751   6.796   1.017
53850W        W25379  29.558  14.819   1.227
53851W        W25380  42.392  31.692   2.355
53852W        W25381  35.918  44.970   2.736
53853W        W25382  10.694  41.058  11.162
53854W        W25383   7.247  26.442  12.908
53855W        W25384  40.298  23.115  10.629
53856W        W25385  30.983  10.472  14.900
53857W        W25386  17.603  24.719   0.496
53858W        W25387   7.878  19.159   0.248
53859W        W25388  27.917  23.855  11.076
53860W        W25389  44.297  37.163   2.738
53861W        W25390  35.740   9.925   4.535
53862W        W25391  17.845  20.242  11.403
53863W        W25392  40.909  35.583  12.926
53864W        W25393  40.463   5.684  14.816
53865W        W25394  28.913   0.362  13.828
53866W        W25395  11.901  33.108  10.921
53867W        W25396  22.052   1.348  13.378
53868W        W25397   7.221  20.693  13.146
53869W        W25398  24.440   4.911   3.156
53870W        W25399  33.793  26.708  10.198
53871W        W25400  32.344  41.910  14.017
53872W        W25401  17.242  34.631  11.074
53873W        W25402   6.572  44.907   4.518
53874W        W25403  32.603  22.663  13.056
53875W        W25404  27.938  23.600  13.427
53876W        W25405   4.925  29.606  10.424
53877W        W25406  36.580  40.573  11.122
53878W        W25407  21.992   6.571  11.032
53879W        W25408   6.948  33.616  14.939
53880W        W25409  15.810  44.052   0.713
53881W        W25410  29.211  35.694   3.164
53882W        W25411  17.657  44.036  10.692
53883W        W25412   8.699   6.192  12.008
53884W        W25413   7.622  28.562   0.017
53885W        W25414   4.848   3.188  10.968
53886W        W25415  17.106  16.205  12.904
53887W        W25416  20.347  39.479   3.357
53888W        W25417  36.875  44.795  11.496
53889W        W25418  43.749  19.156  13.037
53890W        W25419  21.239   4.262  12.010
53891W        W25420   2.252  43.042  13.344
53892W        W25421  25.483  25.144   4.315
53893W        W25422   3.187  27.019  14.105
53894W        W25423  40.435  30.622  13.554
53895W        W25424   4.375  15.092  11.120
53896W        W25425  20.332  34.454  11.560
53897W        W25426  43.403  33.499  12.803
53898W        W25427   1.848  13.273   0.717
53899W        W25428  32.909  26.682   3.726
53900W        W25429  36.538  25.469  13.167
53901W        W25430  13.244  34.336   3.861
53902W        W25431  36.906  20.781  12.928
53903W        W25432  10.318   3.341  12.463
53904W        W25433  13.798  20.687  11.700
53905W        W25434  12.261   3.909  11.865
53906W        W25435  29.865   0.914  12.216
53907W        W25436  11.841  10.870  14.391
53908W        W25437  22.060  10.276   0.501
53909W        W25438   9.985   6.187   0.306
53910W        W25439  18.204  37.183   3.227
53911W        W25440  22.235  23.447  10.783
53912W        W25441   6.367   3.901   4.342
53913W        W25442  12.096  16.382  10.945
53914W        W25443  30.464  21.173   4.070
53915W        W25444  30.065  40.342  11.403
53916W        W25445  21.619   7.949   2.179
53917W        W25446  30.170  30.165   2.613
53918W        W25447  29.920  35.071   1.276
53919W        W25448  39.812  39.955  14.769
53920W        W25449   1.263  34.756   4.547
53921W        W25450  40.501  12.572  13.599
53922W        W25451  26.337  23.563  11.985
53923W        W25452  32.418  13.324  11.344
53924W        W25453  38.872   4.827   1.817
53925W        W25454  10.892  13.424   3.761
53926W        W25455   9.318  13.555   2.951
53927W        W25456  18.145  20.920  13.007
53928W        W25457  22.548  14.352  11.913
53929W        W25458  29.030   3.817   0.520
53930W        W25459  28.631  33.306   3.808
53931W        W25460  38.571   1.986  14.384
53932W        W25461  30.978  43.380  13.104
53933W        W25462  16.032  23.018  13.402
53934W        W25463  16.113  17.890  10.690
53935W        W25464  20.725  36.372   4.331
53936W        W25465  44.924  30.162  14.067
53937W        W25466  33.912  14.227   2.913
53938W        W25467  24.516   8.088   3.190
53939W        W25468   9.699  35.775  12.195
53940W        W25469   7.872  34.988   4.554
53941W        W25470   5.413  38.005  10.444
53942W        W25471  12.325  37.682   4.689
53943W        W25472  15.240  35.910   2.566
53944W        W25473  37.129  28.325  14.315
53945W        W25474  27.251  27.048   0.379
53946W        W25475  38.537  25.942   4.697
53947W        W25476  18.545  32.117   2.386
53948W        W25477  13.626  37.869   4.171
53949W        W25478  27.451  16.896   0.477
53950W        W25479  21.577  22.656   0.778
53951W        W25480   3.054  33.160  11.527
53952W        W25481  39.450  33.868  14.143
53953W        W25482  34.419  40.394  12.057
53954W        W25483  23.307  28.865   2.691
53955W        W25484  28.798  25.053  12.984
53956W        W25485  10.784  30.460   4.487
53957W        W25486   4.563  14.316  10.550
53958W        W25487  26.596   2.564  14.044
53959W        W25488  17.153  26.969   1.196
53960W        W25489  15.147  38.429  12.612
53961W        W25490  34.345  40.380   3.811
53962W        W25491  16.224   0.295   4.649
53963W        W25492  14.766  32.166   3.601
53964W        W25493  28.152  10.743   1.906
53965W        W25494  43.449  31.552   4.612
53966W        W25495   5.342   0.129   4.122
53967W        W25496  13.325   4.337  12.913
53968W        W25497  12.857  41.921  14.952
53969W        W25498  13.888  27.581   4.371
53970W        W25499  30.049   5.646   3.299
53971W        W25500  43.677  13.869  11.525
53972W        W25501   6.881  42.325   4.172
53973W        W25502  17.891  30.183   4.165
53974W        W25503  12.402  39.451  13.908
53975W        W25504  31.107  43.741   1.177
53976W        W25505   2.128  29.253   3.831
53977W        W25506   1.447  17.610   1.142
53978W        W25507  12.000  34.604  12.630
53979W        W25508  29.201  33.485  10.208
53980W        W25509  15.595  13.061  11.971
53981W        W25510  40.841  10.494  14.082
53982W        W25511  26.599  10.756   3.367
53983W        W25512  10.292   7.741  13.791
53984W        W25513  10.520   8.983   9.712
53985W        W25514  21.771  24.884  13.509
53986W        W25515   0.572   8.611   4.182
53987W        W25516  32.165  14.078  13.654
53988W        W25517  12.196   4.478   4.802
53989W        W25518  43.791  37.109  12.904
53990W        W25519  41.379  19.470   0.282
53991W        W25520  32.881   2.829  14.262
53992W        W25521  33.034   5.481   1.689
53993W        W25522  20.799  14.742   2.188
53994W        W25523  15.459  24.547  12.470
53995W        W25524   3.829  19.135  14.880
53996W        W25525  43.768  38.966   2.647
53997W        W25526   4.669  41.687  13.235
53998W        W25527   6.873  21.275   2.947
53999W        W25528   1.277   9.970  11.001
54000W        W25529  10.882  31.994  10.266
54001W        W25530  39.282  39.425   0.575
54002W        W25531  37.821  21.744  10.432
54003W        W25532  43.292  19.134   1.724
54004W        W25533   0.316  30.502   4.033
54005W        W25534  26.094  43.297   0.182
54006W        W25535   7.575   4.596  10.611
54007W        W25536   0.464  32.565   3.702
54008W        W25537  37.239  25.900   4.386
54009W        W25538  18.746  34.902   1.413
54010W        W25539  18.823  23.271  10.075
54011W        W25540  20.255  24.006   1.209
54012W        W25541  23.705  10.717   2.764
54013W        W25542  24.010  41.747  10.357
54014W        W25543  43.791  16.770   1.978
54015W        W25544  15.100  14.581  11.634
54016W        W25545  25.037   6.430  14.697
54017W        W25546  29.067   2.220  13.686
54018W        W25547   9.652  24.002   2.624
54019W        W25548   7.673  28.685  11.563
54020W        W25549  28.695  32.805   0.193
54021W        W25550  18.673  35.283  14.528
54022W        W25551   2.869  34.945   2.255
54023W        W25552   9.786  23.502   2.439
54024W        W25553  32.129  34.147   1.344
54025W        W25554  10.628  16.128   1.359
54026W        W25555  41.439  23.641   2.016
54027W        W25556  27.966   3.226  11.109
54028W        W25557  33.339  34.037   0.825
54029W        W25558  29.688  24.628   1.317
54030W        W25559  16.744  34.458   3.341
54031W        W25560   3.647   0.072   2.695
54032W        W25561  15.290  13.657   4.103
54033W        W25562   7.933  31.566  14.261
54034W        W25563  15.799  37.257   2.741
54035W        W25564  20.367   4.983   0.369
54036W        W25565  28.399  38.088   2.484
54037W        W25566  28.079  43.402   1.770
54038W        W25567  32.943  12.740  13.966
54039W        W25568   3.257   2.931   0.774
54040W        W25569   0.234   5.710  14.003
54041W        W25570  25.412  19.208  11.922
54042W        W25571   8.763  31.651  11.587
54043W        W25572  27.104   0.527  13.563
54044W        W25573  29.925  28.569  12.573
54045W        W25574  20.336  24.181  12.448
54046W        W25575  42.618  43.486  14.750
54047W        W25576  19.160  27.927  10.457
54048W        W25577  33.538   7.324  14.369
54049W        W25578   6.276   5.047   4.620
54050W        W25579  32.502  28.118   0.075
54051W        W25580  31.488  44.684  14.489
54052W        W25581  29.304  22.759   2.168
54053W        W25582  34.412  37.167   0.205
54054W        W25583  22.455  26.638  10.662
54055W        W25584  14.559  23.274  14.847
54056W        W25585  43.322  26.712  10.825
54057W        W25586  15.564  15.538   4.992
54058W        W25587   3.284  28.264   0.212
54059W        W25588   7.759  14.371   0.939
54060W        W25589  44.839  41.087  10.748
54061W        W25590  26.515  33.825  12.863
54062W        W25591   4.858   3.029  13.937
54063W        W25592  34.994  21.556  13.071
54064W        W25593  27.391  34.799  13.767
54065W        W25594  27.296  38.167  14.845
54066W        W25595  36.989  14.753   3.819
54067W        W25596  10.560  39.838  12.571
54068W        W25597   7.893  31.717  11.595
54069W        W25598  40.948   3.403  13.848
54070W        W25599   1.148  30.992  13.152
54071W        W25600  20.727   4.468  13.916
54072W        W25601  32.502  26.970  13.347
54073W        W25602  23.393   0.744  14.378
54074W        W25603  44.466  13.106  10.670
54075W        W25604  31.861  36.451   1.350
54076W        W25605  28.136  35.550   0.347
54077W        W25606  40.171  10.565  12.569
54078W        W25607  33.027   8.835   1.741
54079W        W25608  21.672   5.701   1.792
54080W        W25609   3.947  26.675  12.531
54081W        W25610   1.975  44.545   2.387
54082W        W25611  13.091  12.603  13.077
54083W        W25612  41.429  30.967   4.077
54084W        W25613  32.450  30.414   2.177
54085W        W25614  42.723   8.911  12.917
54086W        W25615  30.147  28.577   1.225
54087W        W25616  19.996  20.019  10.644
54088W        W25617  24.594  39.512  14.418
54089W        W25618   1.171  12.847  11.123
54090W        W25619  10.108   4.354  10.384
54091W        W25620  17.182  10.771  13.568
54092W        W25621  32.249  10.929  14.496
54093W        W25622  17.755   3.297   4.721
54094W        W25623  21.779  37.767   1.920
54095W        W25624  10.894  41.498  14.246
54096W        W25625  38.889  20.589  14.621
54097W        W25626  19.567   2.233  14.519
54098W        W25627  35.129  19.531   1.750
54099W        W25628  17.420  28.607  14.833
54100W        W25629   6.880   4.940  10.200
54101W        W25630  33.792  35.400  12.093
54102W        W25631  21.500  27.669   2.847
54103W        W25632   7.601  41.966   0.924
54104W        W25633  12.370  33.877   3.183
54105W        W25634  31.428  28.001  12.890
54106W        W25635   4.844  34.614  11.138
54107W        W25636  41.006   4.840  13.458
54108W        W25637  14.750  38.931   0.924
54109W        W25638   2.444   7.149  11.655
54110W        W25639  13.694  33.510  10.581
54111W        W25640   5.816  23.094   2.679
54112W        W25641  38.908  31.686   1.380
54113W        W25642  40.853   7.584   3.183
54114W        W25643  44.007  29.486   0.042
54115W        W25644  27.709  34.577  14.933
54116W        W25645   1.693  40.376   4.684
54117W        W25646   0.806  38.334  14.002
54118W        W25647  13.644  31.587   2.189
54119W        W25648  35.373  31.398  11.210
54120W        W25649  36.526   3.780   1.527
54121W        W25650   4.772  25.690  13.405
54122W        W25651  37.563  17.819   0.784
54123W        W25652  21.243  29.186   4.900
54124W        W25653   3.748  43.569  11.841
54125W        W25654  40.503   4.434  12.450
54126W        W25655   6.306  38.727   2.705
54127W        W25656  13.797  42.697   1.908
54128W        W25657  24.995  42.214  14.458
54129W        W25658  25.556  14.967   0.810
54130W        W25659  18.132  11.777  14.726
54131W        W25660  38.078  27.598   1.218
54132W        W25661  37.558  42.571  10.517
54133W        W25662   3.535   4.188  13.823
54134W        W25663   0.002  19.486   3.214
54135W        W25664  27.058  11.196   4.397
54136W        W25665  13.770  27.702  11.425
54137W        W25666  23.190   9.875   1.619
54138W        W25667  26.406   7.667  13.701
54139W        W25668  36.834   3.938   3.702
54140W        W25669  10.748  15.591  10.144
54141W        W25670  21.422  43.403   0.244
54142W        W25671  37.403  33.795  14.762
54143W        W25672  21.341  25.366   1.458
54144W        W25673   1.258  10.771  13.098
54145W        W25674   4.633  27.888   1.784
54146W        W25675  25.409  24.290  10.935
54147W        W25676  30.993  34.619  14.462
54148W        W25677  36.986  32.168  11.864
54149W        W25678  39.807   6.377  13.086
54150W        W25679  43.051  12.145  13.070
54151W        W25680  30.588   3.750   4.517
54152W        W25681  38.098  12.715   0.319
54153W        W25682   5.857  20.109   2.600
54154W        W25683  32.849  36.492   0.281
54155W        W25684  27.290  12.845  11.893
54156W        W25685  22.018   8.366  13.828
54157W        W25686   2.906   1.770   4.749
54158W        W25687   3.925  33.513  10.815
54159W        W25688  34.114  27.494  11.369
54160W        W25689  27.447  42.276   2.352
54161W        W25690  13.063   5.924   4.099
54162W        W25691  18.771  14.610  11.557
54163W        W25692   5.982  34.989  11.619
54164W        W25693  32.086  20.593  14.285
54165W        W25694  26.353   4.661   0.405
54166W        W25695  33.417   3.907  10.410
54167W        W25696  32.506  26.640  12.080
54168W        W25697  44.607  34.512   3.756
54169W        W25698   4.737  12.176  12.039
54170W        W25699  31.813  11.398  11.676
54171W        W25700  11.304  37.070   0.735
54172W        W25701  40.804  17.856   4.601
54173W        W25702  27.567  40.446   4.763
54174W        W25703  22.478  18.705   2.886
54175W        W25704  25.253  12.678   2.702
54176W        W25705  40.251  21.230  14.323
54177W        W25706  33.398  11.615  14.338
54178W        W25707  35.464  27.142  11.660
54179W        W25708  44.817  13.087  12.123
54180W        W25709  17.044   1.878   1.981
54181W        W25710  16.336  26.076  11.186
54182W        W25711  44.862  16.999  14.288
54183W        W25712  26.552  37.031   4.650
54184W        W25713  43.258   2.300  12.577
54185W        W25714   3.045  24.142  12.087
54186W        W25715  34.621   1.774   0.826
54187W        W25716  37.474  22.854  14.812
54188W        W25717  17.448  11.335  11.982
54189W        W25718  38.467  14.038   0.684
54190W        W25719  36.998  22.783  13.964
54191W        W25720  24.314  23.726   2.750
54192W        W25721  40.395  10.415   2.293
54193W        W25722  36.395  37.523   2.757
54194W        W25723  34.499  37.543   2.269
54195W        W25724  43.579  25.171   3.319
54196W        W25725  36.664   2.456  13.946
54197W        W25726  43.445  42.468   1.475
54198W        W25727  18.575  44.484   3.734
54199W        W25728  41.062  10.842   4.707
54200W        W25729  42.149  28.974  11.126
54201W        W25730  14.906  22.865   3.688
54202W        W25731  14.523  18.848  14.840
54203W        W25732  43.077  22.978   3.969
54204W        W25733  43.447   5.592  13.609
54205W        W25734  30.106  10.506  10.933
54206W        W25735   0.291  12.120   1.173
54207W        W25736  25.274  31.805  10.710
54208W        W25737  36.143  19.164  10.675
54209W        W25738   4.930  19.797   4.605
54210W        W25739  31.131  13.107   0.114
54211W        W25740  13.206  42.260   2.481
54212W        W25741  27.074  29.583   1.436
54213W        W25742  15.588   1.277   0.345
54214W        W25743  23.799  43.107   1.371
54215W        W25744  41.833  25.057  11.564
54216W        W25745  32.461  28.659   3.393
54217W        W25746  12.022  39.770  12.391
54218W        W25747  26.034  35.412   4.281
54219W        W25748  21.050  22.133   0.389
54220W        W25749  11.845  27.617  11.950
54221W        W25750  38.471   1.392   1.643
54222W        W25751   9.637  40.424  13.586
54223W        W25752  37.512  13.550  10.639
54224W        W25753  22.056  27.907  13.055
54225W        W25754   4.469   4.895   1.262
54226W        W25755   1.263  20.311  11.707
54227W        W25756  21.859  19.720   1.786
54228W        W25757  35.865  10.131   1.451
54229W        W25758  13.831  20.747   0.845
54230W        W25759   4.767  13.819   0.961
54231W        W25760   8.350  30.103  10.599
54232W        W25761  27.947  18.736   2.305
54233W        W25762  34.427   0.624  14.671
54234W        W25763  25.107  31.842  11.617
54235W        W25764   3.415  26.193  12.512
54236W        W25765  18.907   8.953   0.317
54237W        W25766  20.129  23.722   4.526
54238W        W25767  10.097  34.942   4.208
54239W        W25768   1.608   1.225  14.318
54240W        W25769  23.084   3.972  11.327
54241W        W25770  22.500  38.262   0.674
54242W        W25771  40.562   0.351   0.012
54243W        W25772  19.328   2.467  14.917
54244W        W25773  33.229  41.061  12.808
54245W        W25774  10.976  24.977   3.832
54246W        W25775  11.343  16.705   3.230
54247W        W25776  18.160  30.712   3.403
54248W        W25777  41.727  42.508  11.577
54249W        W25778  44.401  43.986   4.284
54250W        W25779  41.144  23.167   4.150
54251W        W25780   2.378  21.220   1.160
54252W        W25781   0.653  20.003  14.926
54253W        W25782  22.434  29.774  14.356
54254W        W25783  43.346  13.776  13.105
54255W        W25784   5.294  11.816   4.323
54256W        W25785  13.993  16.879  14.268
54257W        W25786  16.145   7.559   1.863
54258W        W25787  16.999   0.486  14.414
54259W        W25788   7.216  27.566  14.960
54260W        W25789  15.357   2.836  13.791
54261W        W25790  27.541   9.868   2.169
54262W        W25791  38.503  30.635   4.654
54263W        W25792   7.134  22.255  14.376
54264W        W25793   7.190  42.837   1.361
54265W        W25794  26.978  34.306   4.243
54266W        W25795   5.579  27.710   1.930
54267W        W25796   3.550  43.950  10.975
54268W        W25797  33.896  33.521   2.458
54269W        W25798  25.988   0.728  13.978
54270W        W25799  40.605  42.055   1.225
54271W        W25800  24.525  25.639  11.325
54272W        W25801  33.670  13.213  13.716
54273W        W25802  17.031  37.184   2.315
54274W        W25803  31.972  32.022  13.012
54275W        W25804  42.202  19.402  11.593
54276W        W25805  38.085   6.581  13.344
54277W        W25806  19.874  22.634  14.925
54278W        W25807  37.978   5.294   1.374
54279W        W25808  23.077  20.373   2.422
54280W        W25809  18.017  22.986   0.314
54281W        W25810  12.294  28.358  13.843
54282W        W25811   5.277   4.162  14.385
54283W        W25812   1.823  32.938   0.348
54284W        W25813  11.682  27.658  14.511
54285W        W25814  21.906  42.961   9.955
54286W        W25815  31.192  37.106   2.560
54287W        W25816  34.175  26.094  12.063
54288W        W25817  37.643  18.310   4.580
54289W        W25818  39.987   2.761   2.774
54290W        W25819  30.144  37.329   3.645
54291W        W25820  24.220  20.738  13.381
54292W        W25821   3.774  30.894   4.049
54293W        W25822  40.594  12.217   3.232
54294W        W25823  11.346  21.343   0.259
54295W        W25824  44.854   0.387   1.200
54296W        W25825  30.950  12.332   4.158
54297W        W25826  38.926   6.230  13.980
54298W        W25827  16.013   3.636  12.030
54299W        W25828  37.422  25.550  13.175
54300W        W25829  43.448  17.539  12.893
54301W        W25830  23.000  24.059   4.249
54302W        W25831   0.138  37.609  11.489
54303W        W25832  10.850  43.764  14.412
54304W        W25833  39.530   4.929   1.313
54305W        W25834  41.575  12.294  11.474
54306W        W25835  34.533   7.327  13.411
54307W        W25836  31.893  17.024  14.353
54308W        W25837  42.414  17.727   2.678
54309W        W25838  15.093  15.135   3.451
54310W        W25839  28.697  28.848  12.834
54311W        W25840  37.971   7.169   4.402
54312W        W25841  15.145  22.096   3.141
54313W        W25842  17.642   3.811  11.060
54314W        W25843   0.693  34.000  12.935
54315W        W25844   5.848  17.171   3.465
54316W        W25845  28.300  38.994   0.735
54317W        W25846  16.261  25.805   0.624
54318W        W25847  12.257  26.048   2.054
54319W        W25848  24.136  42.308   1.449
54320W        W25849  39.049  27.927  14.525
54321W        W25850   7.536   7.490   3.843
54322W        W25851   4.416  31.481  13.836
54323W        W25852  22.490   7.993   2.548
54324W        W25853   7.250   2.982   0.464
54325W        W25854  27.568  40.334  13.993
54326W        W25855  28.025  13.223   4.176
54327W        W25856   0.492  17.253  13.331
54328W        W25857  33.176  44.311  14.004
54329W        W25858  36.822  25.750   3.515
54330W        W25859  14.697  30.484   4.362
54331W        W25860  30.358  38.919   2.751
54332W        W25861  42.951  33.389  12.082
54333W        W25862  26.531  19.991   2.234
54334W        W25863  18.641  22.345   3.303
54335W        W25864  35.918  12.675  12.463
54336W        W25865  10.623  20.590  10.525
54337W        W25866   2.514  37.439  10.644
54338W        W25867   5.776  24.688  13.725
54339W        W25868  11.161  13.930  12.001
54340W        W25869   4.951  12.175  10.694
54341W        W25870  19.496  34.892   3.666
54342W        W25871  14.172  21.458  14.973
54343W        W25872  26.484  12.591   1.002
54344W        W25873  12.578  35.180  13.912
54345W        W25874  18.772  34.909   0.730
54346W        W25875   1.758  26.732  10.935
54347W        W25876   6.246  38.956  11.308
54348W        W25877  21.153  23.535   0.838
54349W        W25878  28.026   3.475   3.108
54350W        W25879  12.109  32.391   2.616
54351W        W25880  24.461  36.491  12.231
54352W        W25881   0.589  27.929  13.567
54353W        W25882  20.047  23.391  13.777
54354W        W25883  13.187  14.043   0.398
54355W        W25884  18.083  27.522  11.648
54356W        W25885  11.544  17.324   4.073
54357W        W25886  29.643  43.852  12.517
54358W        W25887  32.615  43.473   2.915
54359W        W25888  43.315  35.472  12.019
54360W        W25889  27.693  20.712  12.404
54361W        W25890  10.662  33.211   2.089
54362W        W25891  41.451   8.891   2.298
54363W        W25892  23.209  19.943  14.811
54364W        W25893  42.462  40.007  14.356
54365W        W25894   2.676  14.597  14.932
54366W        W25895   7.783  35.837   2.596
54367W        W25896  13.029   9.803  14.440
54368W        W25897   5.234  35.104   0.931
54369W        W25898  13.228  17.305  13.981
54370W        W25899  41.037  16.998  12.883
54371W        W25900  25.303   2.812  14.589
54372W        W25901  36.606   6.796  14.695
54373W        W25902   1.329  28.700   3.522
54374W        W25903  37.419  27.739   1.683
54375W        W25904  23.908  15.294   4.392
54376W        W25905  36.059   2.306  11.500
54377W        W25906  20.122  12.282   2.895
54378W        W25907  13.668  25.007  13.153
54379W        W25908   4.324   6.888   3.234
54380W        W25909  12.109  40.351  13.501
54381W        W25910  20.213   4.445   4.987
54382W        W25911  38.303   0.989   1.384
54383W        W25912  36.487  20.859   0.199
54384W        W25913  37.671  23.998   4.204
54385W        W25914  21.483  35.936   4.383
54386W        W25915   4.383   5.713   2.380
54387W        W25916   6.642  36.209  13.160
54388W        W25917  10.240  25.103   2.492
54389W        W25918  26.722  15.708  13.931
54390W        W25919  32.006  23.539   4.660
54391W        W25920  16.187  32.174   0.698
54392W        W25921  41.898  19.181   0.917
54393W        W25922  43.494   7.698  10.671
54394W        W25923   5.190  34.540  11.505
54395W        W25924  34.838   6.154   1.374
54396W        W25925  34.807  17.597   2.763
54397W        W25926  41.743   0.793  12.689
54398W        W25927   8.245   9.703  14.325
54399W        W25928   0.143  16.591  11.569
54400W        W25929  30.694  15.538  14.810
54401W        W25930  40.486  42.010  14.404
54402W        W25931  16.018  27.451   2.247
54403W        W25932  29.552  30.002  14.363
54404W        W25933  42.956  10.813  10.697
54405W        W25934   9.740  13.233  11.144
54406W        W25935  22.983   4.692   3.329
54407W        W25936  23.447  23.257   4.424
54408W        W25937  23.434  13.756   3.245
54409W        W25938   6.662   2.024   1.303
54410W        W25939  31.652  37.465  13.718
54411W        W25940  39.959  31.887  13.366
54412W        W25941  38.420  20.717   4.269
54413W        W25942  22.185  29.682  11.071
54414W        W25943  33.579  10.203   0.442
54415W        W25944  25.854  31.614   1.635
54416W        W25945  22.502  29.487  12.492
54417W        W25946  15.091  22.357  13.784
54418W        W25947  11.208  33.521  12.843
54419W        W25948   8.833   8.608  11.147
54420W        W25949  32.178  14.306   1.782
54421W        W25950  23.978   2.366   4.139
54422W        W25951  19.025  25.720  11.159
54423W        W25952  31.065  27.219   2.196
54424W        W25953  30.921  29.526   2.934
54425W        W25954  29.161  27.189   4.688
54426W        W25955  14.842  33.146   2.005
54427W        W25956  16.614  11.341  12.564
54428W        W25957  15.871  23.128  10.976
54429W        W25958  12.870   6.783  14.084
54430W        W25959  18.960  14.198   2.183
54431W        W25960  44.016  39.469   2.886
54432W        W25961  27.673  34.620  11.174
54433W        W25962  31.516  33.343   3.290
54434W        W25963  12.580  37.950  13.999
54435W        W25964  24.513  28.315   3.273
54436W        W25965  23.962  21.077  11.998
54437W        W25966  26.544  42.304   4.074
54438W        W25967  10.825   6.564  13.832
54439W        W25968  43.008   2.163   1.470
54440W        W25969  15.501  40.611   3.153
54441W        W25970   7.385  28.006   5.084
54442W        W25971  37.917  30.714   4.152
54443W        W25972  24.711  29.473  14.814
54444W        W25973  35.595  18.579  12.549
54445W        W25974  10.582  31.836   0.970
54446W        W25975  38.031  15.753   0.912
54447W        W25976  38.965   0.686  13.031
54448W        W25977  42.188  32.153  11.039
54449W        W25978  13.317  37.986   1.394
54450W        W25979  24.698  24.994   3.602
54451W        W25980  15.855  37.945   4.055
54452W        W25981  38.420  20.605   0.453
54453W        W25982  38.533  17.525   3.566
54454W        W25983  43.592  42.264  12.435
54455W        W25984   2.997  29.602  14.034
54456W        W25985  34.491   9.433   3.203
54457W        W25986   6.792  30.043   1.977
54458W        W25987  26.931  25.664   1.527
54459W        W25988  21.589   4.721   3.792
54460W        W25989  22.167  16.178   0.744
54461W        W25990   8.291  36.518   3.167
54462W        W25991   4.922   7.241  14.835
54463W        W25992  28.960  10.208   4.675
54464W        W25993  39.506  15.449  14.505
54465W        W25994  29.393   8.817  12.600
54466W        W25995   8.051  21.935  11.188
54467W        W25996  28.160  20.942   1.814
54468W        W25997  44.398  38.548   1.588
54469W        W25998  18.486  42.523  11.048
54470W        W25999  10.173  38.902   0.028
54471W        W26000  22.573  37.518  14.041
54472W        W26001  12.209  14.241   1.228
54473W        W26002  23.514   9.376  14.922
54474W        W26003  33.953   4.820   1.392
54475W        W26004  17.441  20.112  13.005
54476W        W26005  15.566  43.049  10.171
54477W        W26006  35.258  36.107  10.083
54478W        W26007  14.771  33.441  12.524
54479W        W26008  40.418   6.696  14.675
54480W        W26009  17.731  38.772   0.156
54481W        W26010  30.569   0.776   0.663
54482W        W26011  41.762  36.223   2.337
54483W        W26012  36.211  19.682   4.670
54484W        W26013  33.507  42.646   4.989
54485W        W26014  34.837  30.438  13.933
54486W        W26015   1.837   4.930  13.893
54487W        W26016   8.181  23.956  11.187
54488W        W26017  15.062  30.360   1.765
54489W        W26018  29.920  38.872  11.148
54490W        W26019   2.688  15.761  12.495
54491W        W26020   9.404  43.679  13.942
54492W        W26021  35.560  18.555   4.322
54493W        W26022   3.225  43.434   4.675
54494W        W26023  39.013  43.652  14.272
54495W        W26024  30.557  25.541   3.579
54496W        W26025  35.141  29.332   4.186
54497W        W26026  28.180  34.827   0.786
54498W        W26027   4.703  14.833  12.029
54499W        W26028  22.678  14.818   2.237
54500W        W26029  37.074  29.886   0.381
54501W        W26030  27.034  27.501   4.624
54502W        W26031  11.311  20.590   4.652
54503W        W26032  32.260  41.288   4.602
54504W        W26033  13.577  32.629  11.985
54505W        W26034   8.311  13.121   0.682
54506W        W26035  26.828  33.430   0.330
54507W        W26036  32.996  18.590   1.228
54508W        W26037  29.084  36.289  14.158
54509W        W26038  19.576  25.177   1.964
54510W        W26039  41.069  27.020   2.528
54511W        W26040   6.629  30.296  10.654
54512W        W26041  10.272  37.564   4.266
54513W        W26042  22.975  17.795   0.863
54514W        W26043  16.320  39.946  10.683
54515W        W26044   3.017  14.719  13.756
54516W        W26045  29.546  34.472   2.867
54517W        W26046  41.501  18.065   1.296
54518W        W26047  37.057  40.396  11.211
54519W        W26048  40.588  37.969  10.589
54520W        W26049  13.665  26.516  13.391
54521W        W26050  20.242   0.233  12.128
54522W        W26051  11.668  29.246  13.301
54523W        W26052   4.865  30.164  13.496
54524W        W26053  39.958  43.005   0.059
54525W        W26054  19.340  41.500  12.994
54526W        W26055   2.239  40.890  12.382
54527W        W26056  34.966   4.386  14.446
54528W        W26057  29.252   9.373   3.723
54529W        W26058   4.906  28.835  11.093
54530W        W26059  44.391   0.655  14.806
54531W        W26060  17.647  35.183   2.188
54532W        W26061  22.893  35.762   0.469
54533W        W26062  41.129  40.419   4.657
54534W        W26063  41.708  21.401  13.826
54535W        W26064  36.916  12.472  12.483
54536W        W26065  26.646  24.718  11.123
54537W        W26066  36.467  34.018   3.652
54538W        W26067  27.849  21.527   9.830
54539W        W26068   1.193  25.516   2.247
54540W        W26069  44.586  35.013   0.909
54541W        W26070  40.530  15.848  12.542
54542W        W26071  36.998  30.487   4.426
54543W        W26072   6.240   9.340   1.180
54544W        W26073  35.663   7.719   1.742
54545W        W26074  37.924  29.530   0.898
54546W        W26075  43.865   3.569   1.788
54547W        W26076  24.792  26.432  11.659
54548W        W26077  11.150  13.862   3.227
54549W        W26078  43.886  28.442  11.384
54550W        W26079  14.082  11.250   1.528
54551W        W26080  11.109  31.406  13.427
54552W        W26081   2.956   6.671  10.720
54553W        W26082  43.654  16.913  14.257
54554W        W26083  32.589  36.855  10.672
54555W        W26084  18.101   5.248  14.424
54556W        W26085  24.776  27.642   2.797
54557W        W26086   1.037  34.418  13.821
54558W        W26087  27.898  31.983   3.792
54559W        W26088  12.342  22.029  11.617
54560W        W26089  16.822  25.591   3.879
54561W        W26090  38.531  42.016  12.445
54562W        W26091  29.135  18.148   2.341
54563W        W26092   2.612  20.993   9.826
54564W        W26093  31.369   2.437   0.864
54565W        W26094  22.183  17.218  11.058
54566W        W26095  42.972  23.619  14.705
54567W        W26096  30.402  16.872   2.293
54568W        W26097  38.423  43.477  12.952
54569W        W26098   7.744  15.239  11.222
54570W        W26099  30.697  16.565  12.989
54571W        W26100  33.096  35.042   4.419
54572W        W26101   5.899  24.508  11.947
54573W        W26102  31.708  41.838   0.866
54574W        W26103  43.322  25.244  11.579
54575W        W26104  39.997  30.103   1.705
54576W        W26105  26.468  35.037  13.484
54577W        W26106  18.579  16.072  10.979
54578W        W26107  16.584   0.462  12.072
54579W        W26108  37.359  39.822  13.833
54580W        W26109  27.039   0.845   0.196
54581W        W26110  21.368  32.165   2.283
54582W        W26111   2.206  35.237   1.286
54583W        W26112  13.568  10.913   3.259
54584W        W26113  34.572  24.719   1.053
54585W        W26114  23.776  18.559  14.439
54586W        W26115  17.243   1.954   1.501
54587W        W26116  42.482  17.678  13.798
54588W        W26117   5.394   2.175  11.959
54589W        W26118   9.469   4.782   3.228
54590W        W26119  40.905  21.293   3.137
54591W        W26120  24.960  43.915  12.975
54592W        W26121  31.940  25.944  11.281
54593W        W26122   8.388  20.680  10.611
54594W        W26123  28.278  18.707  12.857
54595W        W26124   3.106  17.673  12.384
54596W        W26125  11.905  10.100  11.547
54597W        W26126  15.314  28.010   4.733
54598W        W26127  16.719  15.280   4.542
54599W        W26128  33.670  35.019   3.715
54600W        W26129  43.402  11.899   1.919
54601W        W26130  28.905  27.757   1.994
54602W        W26131   7.008  30.993  13.255
54603W        W26132   3.447  31.687   2.647
54604W        W26133   8.145  31.185   3.267
54605W        W26134   2.330  28.227  14.797
54606W        W26135   7.362  20.803  12.651
54607W        W26136   6.890   7.428   1.316
54608W        W26137   1.264  36.227   5.447
54609W        W26138  38.956  10.319   3.699
54610W        W26139  26.842  18.703  11.200
54611W        W26140   9.631  42.888  11.489
54612W        W26141  30.002  20.252   2.749
54613W        W26142  17.350  30.021   1.414
54614W        W26143   1.821  21.262   2.765
54615W        W26144  43.849  43.201   4.524
54616W        W26145  32.583   7.757   0.737
54617W        W26146   6.822  38.531  11.658
54618W        W26147  11.690  26.619   2.201
54619W        W26148   5.473  41.838  12.949
54620W        W26149  43.918   1.280  10.708
54621W        W26150  35.986   5.051   3.364
54622W        W26151  31.902   7.082   4.567
54623W        W26152  44.842   8.376   3.867
54624W        W26153  22.526  20.578   0.886
54625W        W26154  15.290  23.671  14.079
54626W        W26155  28.604  13.763  10.314
54627W        W26156  24.243  43.428  11.159
54628W        W26157  39.061  27.102   0.032
54629W        W26158  27.617   8.444   0.381
54630W        W26159  29.316   8.699  10.219
54631W        W26160  13.760  40.379   0.932
54632W        W26161  22.221  40.476  13.977
54633W        W26162  23.180  34.453   1.709
54634W        W26163  22.260  11.260  14.857
54635W        W26164  12.739  21.365   4.367
54636W        W26165  44.937  44.918   3.941
54637W        W26166  11.372  23.035   4.588
54638W        W26167  24.289  16.329   4.032
54639W        W26168  12.055  38.987   3.867
54640W        W26169  21.674  11.255  10.626
54641W        W26170   0.943  36.083  14.677
54642W        W26171   0.780  35.765  13.789
54643W        W26172  11.922  44.343   3.652
54644W        W26173   9.068  26.537  14.023
54645W        W26174   3.279  43.999  13.059
54646W        W26175  26.519  12.681   5.028
54647W        W26176  32.799   7.555   2.404
54648W        W26177  24.270  41.253   4.913
54649W        W26178  35.921  32.857  13.070
54650W        W26179  32.805  19.934   2.750
54651W        W26180  35.083   9.279  10.946
54652W        W26181  31.736  10.325   3.426
54653W        W26182  31.344  38.755   4.577
54654W        W26183  14.074  12.350  11.538
54655W        W26184   5.362  41.934   1.200
54656W        W26185   8.755  25.535  11.551
54657W        W26186  15.876  30.682  14.769
54658W        W26187  31.760  42.144   1.652
54659W        W26188  20.297  34.079   1.503
54660W        W26189   8.230  30.027   1.419
54661W        W26190  25.408  42.784  13.541
54662W        W26191  36.363  29.546  12.825
54663W        W26192  40.368  44.908  11.590
54664W        W26193  24.514  43.558  13.995
54665W        W26194   0.413   9.130   0.473
54666W        W26195  23.864  21.908  13.975
54667W        W26196  14.578  13.745  11.761
54668W        W26197   6.070  15.100   3.719
54669W        W26198  34.438  44.003   4.659
54670W        W26199   6.218   3.213  11.764
54671W        W26200  38.188  23.908  10.414
54672W        W26201  14.193  41.500   3.238
54673W        W26202  33.680  16.556   1.738
54674W        W26203  12.001  16.508   2.201
54675W        W26204  18.629   5.903   0.714
54676W        W26205  16.817  18.026   0.712
54677W        W26206  44.440  37.075   1.361
54678W        W26207  13.104  15.248  13.852
54679W        W26208  32.589  39.813   2.909
54680W        W26209  25.020   0.733  13.590
54681W        W26210  33.166  12.627   3.492
54682W        W26211  34.858  12.663   3.666
54683W        W26212  36.139   9.193  12.541
54684W        W26213  35.500   1.187  11.468
54685W        W26214  37.371   0.474  10.314
54686W        W26215   3.868  12.868  12.955
54687W        W26216  21.445  24.439   1.556
54688W        W26217  27.655  24.368   0.909
54689W        W26218  23.722  18.815   3.968
54690W        W26219  28.178  24.231   2.166
54691W        W26220  11.332  10.311  10.381
54692W        W26221  13.563  34.005   2.744
54693W        W26222   0.374  18.361   1.337
54694W        W26223  43.572  39.446   1.300
54695W        W26224  27.147  18.595  12.587
54696W        W26225  34.021   0.655   4.167
54697W        W26226  33.032  25.637  12.473
54698W        W26227  26.085  25.399  14.736
54699W        W26228  19.894  34.384   4.503
54700W        W26229   7.874  23.255  11.899
54701W        W26230   2.944  13.159   4.584
54702W        W26231  36.612  10.828   1.372
54703W        W26232  42.674  28.933  11.049
54704W        W26233  26.982  31.350  11.004
54705W        W26234  40.799  16.793   4.635
54706W        W26235  16.499  27.531  11.690
54707W        W26236  35.440  38.349   4.631
54708W        W26237  20.640   7.253   0.779
54709W        W26238  25.691   0.841  10.616
54710W        W26239  43.811  27.531  11.884
54711W        W26240  31.111  37.579   2.788
54712W        W26241   1.499  26.868  13.051
54713W        W26242   7.428  28.792   2.173
54714W        W26243  36.894  19.685   2.456
54715W        W26244   0.864   3.907  14.286
54716W        W26245  40.234  34.782   4.445
54717W        W26246  13.396  13.020   3.206
54718W        W26247   2.530   6.810  13.023
54719W        W26248  39.307  27.626   0.761
54720W        W26249   1.509  19.329   0.395
54721W        W26250  36.903   1.412   0.478
54722W        W26251  28.479   8.692  12.359
54723W        W26252  39.118  37.473   4.545
54724W        W26253  40.083  21.095  11.397
54725W        W26254  15.455  31.742   1.501
54726W        W26255  37.017   7.745   3.649
54727W        W26256  39.919  35.976   0.297
54728W        W26257  41.178   3.369   4.184
54729W        W26258  26.019   2.825   4.662
54730W        W26259  19.937  25.871   4.507
54731W        W26260  31.041   7.397  11.050
54732W        W26261  16.092  32.198   4.785
54733W        W26262  36.938  23.539  11.535
54734W        W26263  19.117  12.057   1.224
54735W        W26264  35.440   7.362   0.906
54736W        W26265  42.304  34.108  12.964
54737W        W26266   3.969  28.660  10.725
54738W        W26267   9.561  35.397  14.983
54739W        W26268  27.282  16.169  10.681
54740W        W26269  25.917  11.673  10.317
54741W        W26270  20.821  38.099   1.429
54742W        W26271  25.745   5.989   3.064
54743W        W26272  18.872  27.084   0.376
54744W        W26273  23.174   6.684  10.775
54745W        W26274   0.881  25.737   0.466
54746W        W26275  42.527  29.641  13.601
54747W        W26276   6.613  27.085   4.953
54748W        W26277   2.046   4.502  10.656
54749W        W26278  11.249  26.165   1.935
54750W        W26279  29.801  31.330  13.983
54751W        W26280  34.074   4.006  14.370
54752W        W26281  22.438  13.316  14.140
54753W        W26282  16.885  30.144   1.614
54754W        W26283   0.213  15.541   2.717
54755W        W26284  38.858  29.034   4.178
54756W        W26285  36.771  24.972  13.888
54757W        W26286  14.579  19.265  11.986
54758W        W26287  36.057  34.373   4.416
54759W        W26288  40.477  43.909  11.685
54760W        W26289  27.754  17.825  12.465
54761W        W26290  19.715  33.857  14.460
54762W        W26291  16.591   3.312   1.343
54763W        W26292  42.313  21.770  10.656
54764W        W26293   9.648  34.813  11.950
54765W        W26294  30.519  39.028  11.976
54766W        W26295  42.744  33.092  14.269
54767W        W26296  32.582   7.893  10.737
54768W        W26297  36.036  13.779   3.176
54769W        W26298  17.727  39.542  11.028
54770W        W26299  25.258  44.302   1.206
54771W        W26300  20.459  15.188  13.464
54772W        W26301  22.073  39.264   1.194
54773W        W26302  39.510  29.655   0.770
54774W        W26303  22.572  28.062   3.540
54775W        W26304  44.311  14.730   2.189
54776W        W26305  15.859  10.746  14.490
54777W        W26306  37.313  13.812  12.429
54778W        W26307  40.322  44.899   4.386
54779W        W26308  25.678  35.027   4.345
54780W        W26309   6.208  42.925  14.123
54781W        W26310   0.138  14.714  13.088
54782W        W26311  19.703   1.357  11.123
54783W        W26312   4.776  41.961  10.746
54784W        W26313  10.114  10.740  13.553
54785W        W26314  18.206   7.817  12.523
54786W        W26315  37.966  35.600  13.751
54787W        W26316  42.323   0.280  12.008
54788W        W26317   1.365   4.661   3.887
54789W        W26318  41.122  12.205   3.260
54790W        W26319  27.325  42.935   4.008
54791W        W26320   6.923   2.829   1.722
54792W        W26321   0.588   0.916   1.220
54793W        W26322  43.996   8.438  11.153
54794W        W26323  44.232  32.975  10.581
54795W        W26324  36.920   4.360  11.533
54796W        W26325  41.184  39.477   4.234
54797W        W26326  37.873   1.284  10.791
54798W        W26327  39.480  21.712  13.789
54799W        W26328  11.180  33.153   2.090
54800W        W26329  41.474  42.950  12.437
54801W        W26330   6.866  34.127   3.708
54802W        W26331   8.579  37.919   2.625
54803W        W26332  44.902  22.515  14.074
54804W        W26333  44.232  35.353   1.031
54805W        W26334   0.805   4.187  13.072
54806W        W26335  16.765  28.509  11.622
54807W        W26336  21.740  22.665  14.674
54808W        W26337   1.074  19.200  12.224
54809W        W26338  11.322  20.164   4.056
54810W        W26339  22.122  11.558  13.166
54811W        W26340  21.152  29.087   1.396
54812W        W26341  29.223  35.367  14.289
54813W        W26342  43.327  25.708  11.841
54814W        W26343  32.441  24.212   0.482
54815W        W26344   3.289   2.681   5.227
54816W        W26345   0.688  43.036   5.237
54817W        W26346  41.820   5.825  13.845
54818W        W26347   7.742   0.259  11.436
54819W        W26348  37.443  44.199   2.728
54820W        W26349   8.822  34.890  11.785
54821W        W26350  10.476  24.504   0.005
54822W        W26351  17.291  33.917  13.299
54823W        W26352   4.422  20.724  11.565
54824W        W26353   3.203   7.177  13.514
54825W        W26354   1.540  43.437   3.635
54826W        W26355  10.807   5.782   2.337
54827W        W26356  11.823  42.774   3.272
54828W        W26357  40.631  11.693  14.955
54829W        W26358  44.653  23.522  13.947
54830W        W26359  15.876  34.491  14.725
54831W        W26360  21.335  40.397  14.949
54832W        W26361   6.414  31.734  12.490
54833W        W26362  42.881   6.970   2.492
54834W        W26363  23.247  20.545  11.911
54835W        W26364   1.852  32.112  14.249
54836W        W26365  24.478  12.054   2.835
54837W        W26366  15.988   6.296  11.053
54838W        W26367  35.338  18.267   3.656
54839W        W26368   5.605   2.411  10.774
54840W        W26369  40.216  24.778   1.960
54841W        W26370  25.560  19.969  14.825
54842W        W26371  19.060  30.274  12.879
54843W        W26372   9.554  26.391  14.010
54844W        W26373  35.664   1.159   1.797
54845W        W26374  26.557  18.092  14.827
54846W        W26375  34.939  34.319   2.506
54847W        W26376  36.135  31.944   1.773
54848W        W26377  26.734   3.829   1.931
54849W        W26378  26.075  22.065  14.480
54850W        W26379  36.667  12.122   4.517
54851W        W26380  28.519  12.572  13.002
54852W        W26381  16.314  25.586   3.796
54853W        W26382  25.169   3.938   0.663
54854W        W26383  29.884  23.642   2.401
54855W        W26384  30.145   7.821   1.413
54856W        W26385   9.443   6.743   2.231
54857W        W26386  17.100  13.564  13.545
54858W        W26387  27.699  25.024  12.390
54859W        W26388  10.899  14.734   1.236
54860W        W26389  20.382  19.997  12.352
54861W        W26390  12.205  36.447   1.615
54862W        W26391  23.356  13.219  13.735
54863W        W26392  43.801  16.423  11.402
54864W        W26393  17.894  36.625  11.893
54865W        W26394  16.228  41.960   1.322
54866W        W26395   9.276   6.196  13.304
54867W        W26396   3.941  17.513   0.823
54868W        W26397   9.788  22.826  12.066
54869W        W26398  25.719  27.759  11.114
54870W        W26399  42.168   8.779  11.244
54871W        W26400  20.650   1.037   0.900
54872W        W26401  41.754  19.790   2.493
54873W        W26402  25.120  27.195  12.050
54874W        W26403  16.580  33.525   3.725
54875W        W26404  24.124  23.072  11.506
54876W        W26405  17.498  37.622   3.789
54877W        W26406  43.769  28.558  13.258
54878W        W26407  34.756   0.276   1.696
54879W        W26408  27.526  42.308   4.362
54880W        W26409  22.910  31.018   3.035
54881W        W26410  38.376  18.058  12.582
54882W        W26411  28.040   5.202   5.234
54883W        W26412  30.027   3.749  13.346
54884W        W26413  11.582  10.781  10.400
54885W        W26414  32.027  27.843   3.844
54886W        W26415  32.868  16.702  11.140
54887W        W26416  33.882  17.371  12.988
54888W        W26417  13.885  23.992  13.055
54889W        W26418  41.267  18.496  14.468
54890W        W26419   4.545   4.067  14.036
54891W        W26420   8.887  17.776  11.041
54892W        W26421   1.804  31.175  14.783
54893W        W26422  36.362   3.953  12.540
54894W        W26423  12.270  25.561  13.771
54895W        W26424   8.585  11.679  13.841
54896W        W26425  43.441  30.485   0.013
54897W        W26426   2.888  43.844   0.245
54898W        W26427  43.245  28.011   0.208
54899W        W26428  34.910  17.745  14.531
54900W        W26429  21.867  26.898   3.151
54901W        W26430  37.556   9.896   3.671
54902W        W26431   9.429  38.859   0.571
54903W        W26432  34.534  21.761   4.789
54904W        W26433  18.276  41.498  12.913
54905W        W26434  20.613   8.588  11.006
54906W        W26435  11.285  10.173   1.390
54907W        W26436   5.254  10.204   3.563
54908W        W26437  22.529  41.380   4.167
54909W        W26438  14.605  36.572   1.462
54910W        W26439  36.583  36.570  13.464
54911W        W26440   2.860   5.243   0.811
54912W        W26441  37.670  25.634   4.211
54913W        W26442  21.996  42.600  10.682
54914W        W26443  25.482  17.951   2.199
54915W        W26444  31.257  16.220   1.785
54916W        W26445  29.668  25.430  14.830
54917W        W26446  24.746   8.599   0.806
54918W        W26447  30.021  14.745  12.574
54919W        W26448  38.892   9.900   4.892
54920W        W26449  40.388   1.812   2.865
54921W        W26450  16.493  34.879  14.629
54922W        W26451  17.707  26.546  12.342
54923W        W26452  19.175  42.266   2.624
54924W        W26453   7.189  11.341  12.304
54925W        W26454   2.890  26.411  13.976
54926W        W26455  29.985  18.742   2.215
54927W        W26456   6.387  11.425   2.242
54928W        W26457  24.539  20.232   1.206
54929W        W26458  16.132   5.763  13.582
54930W        W26459  33.150  27.448   0.812
54931W        W26460  34.436  26.514   2.182
54932W        W26461  16.791   3.203  11.827
54933W        W26462  39.991  10.894   4.752
54934W        W26463  20.537   2.370   1.985
54935W        W26464   6.107   5.853  10.997
54936W        W26465  36.785  23.043  14.456
54937W        W26466  36.133  32.535   1.262
54938W        W26467  24.205  15.134   0.914
54939W        W26468  27.102  12.840  10.607
54940W        W26469  14.942  30.996   3.103
54941W        W26470  17.135  24.537  14.264
54942W        W26471   5.538  32.680   0.262
54943W        W26472  27.394   6.316  12.562
54944W        W26473  11.341  19.817   3.679
54945W        W26474  21.482  21.641   4.161
54946W        W26475  17.974  38.116  11.180
54947W        W26476  30.964  41.268  12.793
54948W        W26477  43.928  32.592   2.628
54949W        W26478  20.021  21.988   0.297
54950W        W26479  18.767  42.738   2.355
54951W        W26480  24.111   7.848   4.381
54952W        W26481  41.875   3.144  14.662
54953W        W26482  43.213  26.601  13.745
54954W        W26483  29.896  10.104  11.175
54955W        W26484   2.297  24.204   0.788
54956W        W26485  24.046   6.732   2.636
54957W        W26486  43.551  34.118   0.759
54958W        W26487  16.372  24.086   2.349
54959W        W26488  13.648  11.623   0.476
54960W        W26489  37.216  11.966   2.741
54961W        W26490  27.937  32.101   1.298
54962W        W26491  18.882  39.139  10.748
54963W        W26492  34.892  17.235  11.644
54964W        W26493   5.417  36.332   0.692
54965W        W26494  20.382  31.785  13.439
54966W        W26495  30.200  13.283  13.980
54967W        W26496   8.800  37.564  12.043
54968W        W26497   1.819  36.165  11.168
54969W        W26498  16.255  43.785  13.841
54970W        W26499  34.349  23.484   0.051
54971W        W26500  23.611  35.401   2.875
54972W        W26501   9.893   2.309  10.720
54973W        W26502  20.327   3.992   2.901
54974W        W26503  22.572  36.480  10.825
54975W        W26504  11.564   5.517   1.973
54976W        W26505  10.620  19.528  14.481
54977W        W26506  30.626   0.201   2.791
54978W        W26507  10.956   0.504   3.415
54979W        W26508  20.809   1.178  13.994
54980W        W26509  34.611  10.012   4.177
54981W        W26510  28.545   8.865  14.438
54982W        W26511  16.608   2.688  14.734
54983W        W26512   6.461  22.985   4.594
54984W        W26513  38.029  12.880  14.300
54985W        W26514   3.142  39.798   4.356
54986W        W26515   2.829  39.700   3.585
54987W        W26516  34.417   1.583  11.652
54988W        W26517  41.105   7.133   3.192
54989W        W26518  33.831  30.697   1.906
54990W        W26519  43.760   5.367   0.368
54991W        W26520  29.748  22.676   3.851
54992W        W26521  29.631  44.935   2.910
54993W        W26522  36.428   1.078  13.537
54994W        W26523   5.990  17.887  14.794
54995W        W26524   7.748  16.628  13.003
54996W        W26525  22.100   9.128   0.853
54997W        W26526  34.866  22.024  14.064
54998W        W26527  43.325   5.449   4.688
54999W        W26528  31.917  11.302   0.414
55000W        W26529  21.354  43.791  13.454
55001W        W26530   8.700  16.541   0.352
55002W        W26531  38.399  20.554  13.338
55003W        W26532  27.953  17.565  10.745
55004W        W26533  36.255  33.875  12.002
55005W        W26534   6.794  36.973   0.496
55006W        W26535  32.422  43.316   3.942
55007W        W26536  17.722  14.220  11.559
55008W        W26537  32.225  35.686   0.389
55009W        W26538  13.865  21.137  11.936
55010W        W26539  24.604  23.955   3.306
55011W        W26540  10.376   2.048   3.822
55012W        W26541  25.410  39.440  13.801
55013W        W26542  44.798  41.917   3.153
55014W        W26543  43.344  31.590  13.466
55015W        W26544  27.559  30.715  10.119
55016W        W26545   6.492   8.264  12.165
55017W        W26546   1.442  17.792   2.598
55018W        W26547   7.144  30.520   1.248
55019W        W26548  43.260  37.927  12.143
55020W        W26549  10.793  21.514   1.405
55021W        W26550  29.479  35.667   5.343
55022W        W26551  14.665  32.580   0.693
55023W        W26552  42.106  14.380  12.881
55024W        W26553   8.928  20.138   0.010
55025W        W26554  21.123  33.834  14.125
55026W        W26555  28.894  23.917  12.503
55027W        W26556  32.535  30.910   3.412
55028W        W26557  26.751   6.077  11.109
55029W        W26558   2.006  18.822  12.050
55030W        W26559  30.728  22.512  11.654
55031W        W26560  13.238  35.933  14.348
55032W        W26561  34.546  34.383   0.132
55033W        W26562  30.013  16.238   3.610
55034W        W26563   9.058  38.000  11.901
55035W        W26564   3.905  22.437  14.370
55036W        W26565  26.676  38.380   4.887
55037W        W26566  26.206  36.471  13.819
55038W        W26567   2.750  38.825   2.372
55039W        W26568  29.384  27.815  10.078
55040W        W26569  25.147  39.212   0.003
55041W        W26570  25.068  37.072   2.916
55042W        W26571   8.748  19.238   2.536
55043W        W26572  28.623  20.790  12.188
55044W        W26573  24.989  31.443   2.751
55045W        W26574  43.283  12.191   4.326
55046W        W26575  33.363  33.008  13.364
55047W        W26576   9.469  10.439  14.004
55048W        W26577  35.171   6.859  11.938
55049W        W26578  24.500  42.135  10.729
55050W        W26579  26.073  31.565  12.527
55051W        W26580   2.402  31.296  10.607
55052W        W26581  23.564   5.722   4.573
55053W        W26582  36.793  23.978  14.441
55054W        W26583  13.140   7.409  12.990
55055W        W26584  19.684  16.365   1.273
55056W        W26585   6.248  40.963   0.558
55057W        W26586  38.517   6.339  10.718
55058W        W26587  30.699  29.813  12.662
55059W        W26588  16.296  20.143   2.256
55060W        W26589  23.631  11.632   0.069
55061W        W26590   4.789  36.404   3.242
55062W        W26591  33.266   5.615   2.374
55063W        W26592   0.082  16.246  11.170
55064W        W26593   9.156  13.587   0.764
55065W        W26594  28.937  10.855   2.297
55066W        W26595  30.026   9.959  11.656
55067W        W26596  16.227   2.844   2.055
55068W        W26597  38.730  11.763  14.427
55069W        W26598  34.426  29.950   1.298
55070W        W26599  32.159  28.933   4.740
55071W        W26600  21.966   4.131  14.443
55072W        W26601   0.207  40.937  11.351
55073W        W26602  33.314  22.442  11.367
55074W        W26603  24.098  43.348  10.646
55075W        W26604  19.086  34.644  12.954
55076W        W26605  22.751  32.055  10.366
55077W        W26606  15.798  16.158  12.525
55078W        W26607  44.695  27.403  14.834
55079W        W26608  42.900  21.398  12.008
55080W        W26609  28.068  15.229   2.267
55081W        W26610  22.217  41.549   0.991
55082W        W26611  44.040  33.087   2.411
55083W        W26612   6.761  36.566   1.235
55084W        W26613  42.780  39.597   0.845
55085W        W26614  34.060  16.617   3.385
55086W        W26615  16.738  30.173  13.049
55087W        W26616  35.910  10.390  14.060
55088W        W26617   9.240   7.124  14.287
55089W        W26618   1.051  14.151  11.662
55090W        W26619  35.943  43.493  11.075
55091W        W26620  42.543  44.951   4.650
55092W        W26621  26.189  41.512  14.114
55093W        W26622   6.934  14.189   0.009
55094W        W26623  21.057   8.835  11.115
55095W        W26624  25.366   3.726   2.213
55096W        W26625  26.442   1.428  14.323
55097W        W26626  26.142   6.915  10.959
55098W        W26627   3.493  25.986   2.337
55099W        W26628   3.285  12.708  14.829
55100W        W26629  15.780   7.679  14.277
55101W        W26630   2.459  30.477   3.765
55102W        W26631  44.341  22.721  11.715
55103W        W26632  39.036  35.024   3.775
55104W        W26633  42.452   6.446   2.931
55105W        W26634   1.938  23.676  10.708
55106W        W26635   3.236  38.516   1.757
55107W        W26636  28.611  33.122   1.175
55108W        W26637  33.306  15.734   3.597
55109W        W26638  43.726  31.687   2.783
55110W        W26639  16.559  23.039   4.156
55111W        W26640  37.971  37.800  14.417
55112W        W26641   3.350  42.047   0.818
55113W        W26642  27.147  20.837  10.628
55114W        W26643  33.623  26.611   4.119
55115W        W26644  13.157   1.724   1.023
55116W        W26645  18.020  20.947  14.050
55117W        W26646  42.232  36.068  10.514
55118W        W26647  18.584  14.530   2.769
55119W        W26648  19.792  44.437   4.925
55120W        W26649  21.242   2.943  14.408
55121W        W26650   4.869  44.628   4.758
55122W        W26651  41.688   9.991   1.750
55123W        W26652  12.652   2.587   0.935
55124W        W26653   1.744  40.577  13.926
55125W        W26654  37.997   3.341   3.009
55126W        W26655  31.114  41.544   1.298
55127W        W26656  43.431  17.204  11.429
55128W        W26657   3.419  12.857   1.668
55129W        W26658  33.384  33.112   4.594
55130W        W26659  29.601  19.498  10.726
55131W        W26660  11.462  24.731  13.028
55132W        W26661  37.860  15.580   3.811
55133W        W26662  17.828  41.661   4.196
55134W        W26663  24.196  21.713   3.237
55135W        W26664  41.896  21.805   1.804
55136W        W26665  14.353  41.717  11.181
55137W        W26666  27.248   5.967  11.994
55138W        W26667  10.829  33.336  12.535
55139W        W26668  29.428  36.174  11.569
55140W        W26669  39.470   1.977  12.874
55141W        W26670  28.146   4.356  13.246
55142W        W26671   3.508  41.519  14.001
55143W        W26672  10.278   5.843   0.526
55144W        W26673  32.303  25.829   4.059
55145W        W26674  35.586  39.995   0.791
55146W        W26675  23.693  34.619   0.303
55147W        W26676  23.058  39.548  14.389
55148W        W26677   7.420  35.373   1.471
55149W        W26678  31.066  32.951   2.389
55150W        W26679  18.154  37.965  13.023
55151W        W26680   3.674  25.593  14.063
55152W        W26681  16.667  36.882  11.600
55153W        W26682  39.518  11.139  11.473
55154W        W26683  31.356  15.174   3.110
55155W        W26684  40.873  33.057   1.306
55156W        W26685  39.119   5.747   2.861
55157W        W26686   3.252   4.924   0.754
55158W        W26687   9.874  32.572   3.687
55159W        W26688  10.638  20.206  13.558
55160W        W26689  28.070  41.552   2.691
55161W        W26690  29.733  29.497   1.610
55162W        W26691  15.576  29.458   1.415
55163W        W26692  38.139  24.593   1.305
55164W        W26693  26.570  28.662  14.931
55165W        W26694  17.744  21.625  11.980
55166W        W26695   6.628  41.037   0.940
55167W        W26696  42.465  17.886  13.346
55168W        W26697   9.955   4.202  13.452
55169W        W26698  36.048  16.253   4.806
55170W        W26699  36.495  20.367   4.193
55171W        W26700  40.377  23.719   2.372
55172W        W26701  22.140  17.808   1.880
55173W        W26702   5.998  39.466   4.718
55174W        W26703   5.119   3.900  11.150
55175W        W26704  35.326  28.796   4.200
55176W        W26705   5.330  21.971  11.707
55177W        W26706   7.759  13.174   4.479
55178W        W26707   9.314   5.874   3.613
55179W        W26708  11.584  14.525  11.466
55180W        W26709   2.923  30.432   0.204
55181W        W26710  12.825  15.337   0.417
55182W        W26711  12.232   8.562   2.845
55183W        W26712  40.295  14.871  13.807
55184W        W26713  15.305  13.828   2.669
55185W        W26714  42.893  33.561   1.999
55186W        W26715  23.487  27.288   0.899
55187W        W26716   6.917  21.141   0.102
55188W        W26717  18.628   2.938   0.472
55189W        W26718  19.793   9.273  14.926
55190W        W26719  25.995  15.490  12.912
55191W        W26720  15.173  35.872   3.060
55192W        W26721  25.241  16.801   1.912
55193W        W26722  16.585  17.618   3.129
55194W        W26723  39.346  32.430  10.826
55195W        W26724  18.873  30.727   4.108
55196W        W26725   3.922   4.295   2.676
55197W        W26726  42.721   5.387   1.347
55198W        W26727   4.315   3.341  11.010
55199W        W26728  35.550   6.334  11.238
55200W        W26729  36.825  35.326  12.738
55201W        W26730   8.539  30.642  14.499
55202W        W26731   4.687  20.128  14.346
55203W        W26732  37.353  44.421  13.339
55204W        W26733  25.531  39.806   3.090
55205W        W26734  20.214  11.815  11.932
55206W        W26735  42.852   1.456   4.732
55207W        W26736  42.527  30.223   0.382
55208W        W26737  16.052  12.837   0.246
55209W        W26738  34.570  35.148  11.802
55210W        W26739  38.015  18.056   3.369
55211W        W26740   1.678   6.740  14.855
55212W        W26741  31.341   0.445   1.744
55213W        W26742  27.981  37.109   3.139
55214W        W26743   0.222  42.233   4.045
55215W        W26744  19.394  23.607   2.349
55216W        W26745  22.992  20.118  12.019
55217W        W26746  23.383   5.682   3.595
55218W        W26747  14.717  16.885  12.248
55219W        W26748   4.811  12.986  13.746
55220W        W26749   0.956  20.681  13.465
55221W        W26750   1.207  36.381   0.396
55222W        W26751  21.156  44.833   3.696
55223W        W26752  30.671  39.880  13.931
55224W        W26753  43.618  29.431   0.388
55225W        W26754   4.575  24.888   2.932
55226W        W26755  16.060  10.325  11.016
55227W        W26756  40.015  11.065  14.361
55228W        W26757   8.618  18.696   4.152
55229W        W26758  36.197  17.494   0.923
55230W        W26759  29.409  34.675   5.050
55231W        W26760  34.333  26.966   1.943
55232W        W26761  28.076  17.763   4.428
55233W        W26762  37.477  44.371   0.196
55234W        W26763  24.961  40.498   1.859
55235W        W26764   7.887   9.645   3.718
55236W        W26765  16.730  15.985   1.035
55237W        W26766  25.639  44.340  12.609
55238W        W26767  29.023  32.206  12.906
55239W        W26768  18.082  35.975   2.702
55240W        W26769   1.853  38.844   3.742
55241W        W26770  27.352  15.452  10.145
55242W        W26771  17.472   6.155   0.820
55243W        W26772   7.311   2.944   4.665
55244W        W26773  33.158   9.695  13.330
55245W        W26774  44.678  31.136   3.657
55246W        W26775   5.228  14.538   0.718
55247W        W26776  31.478  37.986   5.062
55248W        W26777  44.477  10.267  13.848
55249W        W26778   9.778  35.121   3.805
55250W        W26779   9.592  39.137  10.265
55251W        W26780  16.831  13.782   0.409
55252W        W26781  22.883  12.711   0.181
55253W        W26782  40.877  15.507  12.817
55254W        W26783  37.119   4.484  12.557
55255W        W26784  22.555  23.871  13.368
55256W        W26785  37.282  31.161  13.986
55257W        W26786  28.655  32.705  14.377
55258W        W26787  16.673   2.718   3.188
55259W        W26788  39.379  22.506  10.614
55260W        W26789  27.959  17.175  11.139
55261W        W26790   8.628  37.925   0.229
55262W        W26791  20.138  42.552   4.488
55263W        W26792  12.711  34.269   3.727
55264W        W26793  33.648  34.102   2.216
55265W        W26794  16.540  30.668  14.862
55266W        W26795   7.389   7.522  13.412
55267W        W26796  18.540  15.653  14.588
55268W        W26797  20.126  21.780   1.563
55269W        W26798  33.396  42.556  11.038
55270W        W26799  41.065  22.693   4.494
55271W        W26800   8.631  24.805   0.388
55272W        W26801  29.574   9.578   4.134
55273W        W26802  16.621  16.645   2.195
55274W        W26803   0.823   3.258  10.518
55275W        W26804  21.384  10.265   0.966
55276W        W26805  40.132  36.942  12.816
55277W        W26806  22.566  32.822  11.592
55278W        W26807  30.802  21.586   1.923
55279W        W26808  11.467   5.945   3.240
55280W        W26809  41.227  25.288   1.407
55281W        W26810   4.657   8.696   0.040
55282W        W26811   0.739   3.659  12.980
55283W        W26812  39.647   2.505   3.696
55284W        W26813  35.395   1.011   4.193
55285W        W26814  31.593  34.073   1.210
55286W        W26815   5.212  26.702   4.564
55287W        W26816  29.691  18.539  10.786
55288W        W26817  25.706  21.648  10.661
55289W        W26818   8.922  24.542   0.013
55290W        W26819  42.672  27.862  13.911
55291W        W26820   8.976   1.410  10.277
55292W        W26821   0.947  15.944   9.935
55293W        W26822  28.458  15.768  14.585
55294W        W26823  33.983  28.457   4.420
55295W        W26824  25.917  37.536   4.099
55296W        W26825   2.456  12.716  12.016
55297W        W26826  22.675  19.291  13.249
55298W        W26827  40.348  13.589  12.808
55299W        W26828  44.215   3.153   2.143
55300W        W26829  18.086   2.292  13.306
55301W        W26830  36.041  44.470   2.808
55302W        W26831  19.256  24.991  14.035
55303W        W26832   4.265  22.436  13.973
55304W        W26833  43.893  40.895  12.118
55305W        W26834   2.141  18.633  14.801
55306W        W26835  27.383  43.791   4.278
55307W        W26836   0.019  44.523  11.090
55308W        W26837   0.951  24.919  14.024
55309W        W26838  37.886  39.443   1.244
55310W        W26839  31.618  32.009  13.397
55311W        W26840  39.270   7.394  14.453
55312W        W26841   6.682  18.104   3.421
55313W        W26842  22.185   8.345  11.386
55314W        W26843  15.513  22.704  12.067
55315W        W26844   7.449  24.761   2.223
55316W        W26845  36.482  36.358  11.381
55317W        W26846  32.766  14.805   0.952
55318W        W26847   9.043  11.619  10.316
55319W        W26848  38.469  16.769   4.071
55320W        W26849  21.182  39.576  13.961
55321W        W26850  26.482   7.927   2.417
55322W        W26851  38.820  27.177   1.460
55323W        W26852   7.875   9.874  12.495
55324W        W26853  25.617  24.478   3.710
55325W        W26854   1.775   3.956   3.235
55326W        W26855  13.361  18.987   4.190
55327W        W26856  42.020  10.021  10.705
55328W        W26857  12.778  28.424  13.081
55329W        W26858  44.331   2.340   4.458
55330W        W26859  17.788  34.234   2.713
55331W        W26860  27.752  34.542  11.670
55332W        W26861  35.303  33.480  10.935
55333W        W26862  40.278  43.472   4.090
55334W        W26863  13.756  25.699  13.970
55335W        W26864  19.075  29.225  13.733
55336W        W26865  27.620  32.634  13.105
55337W        W26866   8.409  21.447   0.488
55338W        W26867  19.263   6.284   1.273
55339W        W26868  23.452   0.750   1.112
55340W        W26869  28.608  22.045  12.796
55341W        W26870   6.421  15.862   4.596
55342W        W26871  19.446  16.603  11.078
55343W        W26872   2.497  31.141  13.048
55344W        W26873  20.685  24.620   3.492
55345W        W26874  33.934  31.175  11.066
55346W        W26875  27.245  25.136  10.553
55347W        W26876  37.375  36.178  10.870
55348W        W26877  27.233  22.501  14.847
55349W        W26878  27.963  23.744   3.785
55350W        W26879  21.286   9.865   1.804
55351W        W26880  15.649  21.210  11.982
55352W        W26881  27.739  39.427   2.740
55353W        W26882   3.433   8.215  13.761
55354W        W26883  20.640  12.762  10.592
55355W        W26884  38.796  31.022   0.804
55356W        W26885   0.765   9.684  13.078
55357W        W26886  12.993  38.227  13.844
55358W        W26887  24.014  35.064  12.975
55359W        W26888  24.495  15.161  12.311
55360W        W26889  15.067   4.744  10.476
55361W        W26890   8.823  21.060   0.296
55362W        W26891  25.274  22.173   2.338
55363W        W26892  38.550  30.932   1.971
55364W        W26893   9.866  14.834   2.442
55365W        W26894  13.700  37.323   0.462
55366W        W26895  20.669  11.597  11.999
55367W        W26896   0.897  37.370  13.895
55368W        W26897  17.830  41.973  10.754
55369W        W26898  14.912  30.478  13.738
55370W        W26899   5.330  25.974   2.282
55371W        W26900   9.830  43.730  10.904
55372W        W26901  30.604  10.208   2.659
55373W        W26902  35.179  27.377  13.085
55374W        W26903  39.899   2.063   3.695
55375W        W26904   2.756  15.533  11.597
55376W        W26905  22.059   4.152  13.551
55377W        W26906  40.575  22.688   0.285
55378W        W26907  27.601  32.346  14.903
55379W        W26908  26.126  23.828  14.928
55380W        W26909  31.111  35.478   3.680
55381W        W26910  40.003  31.632  10.713
55382W        W26911  21.729  18.055   0.447
55383W        W26912  33.132  39.769   2.162
55384W        W26913  22.817  41.352  13.005
55385W        W26914  13.136   3.352  13.385
55386W        W26915  33.983  25.137   2.135
55387W        W26916  19.285  37.741   2.667
55388W        W26917   2.656  17.486   4.045
55389W        W26918  29.337  23.483   3.755
55390W        W26919  34.849   4.784  10.071
55391W        W26920  24.520  21.581   0.909
55392W        W26921  28.303  27.963  12.507
55393W        W26922  10.350   4.134   1.798
55394W        W26923  14.604  20.326  10.706
55395W        W26924   9.149  13.806  11.631
55396W        W26925  43.362  11.552  14.533
55397W        W26926  34.601  37.614   1.380
55398W        W26927   1.849  26.700   1.583
55399W        W26928  28.242  25.257  11.569
55400W        W26929   2.121   5.185  13.541
55401W        W26930  30.860  35.970  13.934
55402W        W26931  16.693   6.516  13.381
55403W        W26932   0.293  43.746   4.130
55404W        W26933  33.729  39.082  11.948
55405W        W26934  29.493  14.699   2.123
55406W        W26935  44.898  35.889  14.399
55407W        W26936  39.427  31.714  14.326
55408W        W26937  17.021  26.411  14.552
55409W        W26938   9.903  11.950   2.737
55410W        W26939  22.318  40.858   1.354
55411W        W26940  33.016  14.716  10.585
55412W        W26941  21.058  25.370  13.368
55413W        W26942  18.660  32.933   4.565
55414W        W26943  34.829  23.886   3.233
55415W        W26944  36.785  44.775   1.328
55416W        W26945  41.606   7.442  11.184
55417W        W26946  18.800  13.926  14.995
55418W        W26947  38.367  43.336  11.007
55419W        W26948  16.746  18.800   3.697
55420W        W26949  37.945  17.323   0.253
55421W        W26950  16.723  10.262   3.381
55422W        W26951  16.122  15.839   0.438
55423W        W26952  24.831  28.027  13.322
55424W        W26953   9.115  32.651  11.525
55425W        W26954  24.615  14.343   4.639
55426W        W26955  41.407   5.895  12.534
55427W        W26956  42.387  22.217  13.346
55428W        W26957   4.271  19.112   3.785
55429W        W26958   3.884  40.053  11.060
55430W        W26959  39.949  26.527  11.522
55431W        W26960  38.397  39.259  13.945
55432W        W26961  44.236  44.468  10.029
55433W        W26962  22.144  32.730  11.013
55434W        W26963   2.046  18.761  13.375
55435W        W26964   5.636  14.621   3.224
55436W        W26965  39.362  29.155  12.599
55437W        W26966  36.203  37.577  14.353
55438W        W26967   2.288  33.556  14.446
55439W        W26968  23.068  22.963  10.506
55440W        W26969  37.851  38.095  13.942
55441W        W26970  43.167  11.688   4.633
55442W        W26971  31.357  19.015  11.064
55443W        W26972  40.751  37.386  12.004
55444W        W26973  10.430  14.315  11.555
55445W        W26974  27.248  35.247  14.373
55446W        W26975  33.128  23.760  11.902
55447W        W26976  35.792   2.822   2.855
55448W        W26977   8.926  31.251   5.035
55449W        W26978  14.632  19.188   2.196
55450W        W26979  38.390  30.893   4.212
55451W        W26980  22.239  40.176  13.546
55452W        W26981  33.959  37.510   2.944
55453W        W26982  40.829  29.453  12.188
55454W        W26983  33.879  25.459  13.595
55455W        W26984  25.934  15.679  14.509
55456W        W26985  33.588  31.004   4.915
55457W        W26986  35.507   4.816   1.281
55458W        W26987   8.872  43.343   3.656
55459W        W26988  25.271  12.944   3.630
55460W        W26989  15.102  26.982   2.389
55461W        W26990   3.652  34.841  11.017
55462W        W26991  33.594  32.018   1.493
55463W        W26992   0.790  41.482  12.740
55464W        W26993  27.701   9.314  12.452
55465W        W26994  44.354  29.872  10.789
55466W        W26995   8.498  37.539   5.164
55467W        W26996  23.090  19.053  13.754
55468W        W26997   9.373  25.502   4.583
55469W        W26998  31.318   7.705  11.778
55470W        W26999  10.323   0.665  14.344
55471W        W27000  12.766  33.344  14.861
55472W        W27001  13.128   5.649   4.575
55473W        W27002  39.421   8.475   3.639
55474W        W27003  15.091   7.307   1.200
55475W        W27004  31.936  41.008   0.344
55476W        W27005   5.972  35.539  10.962
55477W        W27006   2.213  38.513  13.847
55478W        W27007  31.986  44.280   0.277
55479W        W27008  32.594  23.757  12.628
55480W        W27009   6.158   2.375  11.332
55481W        W27010  23.515  14.671  14.811
55482W        W27011  37.838  24.479   4.225
55483W        W27012  32.901   0.911  11.062
55484W        W27013  22.571  40.040  11.239
55485W        W27014  38.950  17.018   2.918
55486W        W27015  16.773  27.021  14.815
55487W        W27016  26.588  24.663   4.321
55488W        W27017  25.653  36.173  12.788
55489W        W27018  27.041  17.045   0.227
55490W        W27019  36.421  24.950  10.671
55491W        W27020  44.880  24.590  10.709
55492W        W27021  36.861  44.550   0.529
55493W        W27022   8.078   5.466   2.533
55494W        W27023   6.325   2.993   0.471
55495W        W27024  25.526  30.606  13.618
55496W        W27025  28.177  32.873   0.932
55497W        W27026  37.474  26.888   4.189
55498W        W27027  31.427   9.352   2.770
55499W        W27028  19.281   0.765  13.419
55500W        W27029   3.493  15.055  11.022
55501W        W27030  34.094  23.979   3.712
55502W        W27031   9.745  19.246   1.514
55503W        W27032  37.289  39.785  12.386
55504W        W27033  33.534  15.060  14.098
55505W        W27034  41.796  36.832  12.937
55506W        W27035  34.291  34.046  13.949
55507W        W27036  10.342   9.910  10.513
55508W        W27037  39.339  33.615  13.224
55509W        W27038  27.969   9.615  11.422
55510W        W27039   3.456  17.133   1.683
55511W        W27040  28.276   4.238   2.684
55512W        W27041   0.370   2.361  11.757
55513W        W27042   8.288  43.824  11.614
55514W        W27043  29.425  32.650  14.825
55515W        W27044  14.334   8.117   4.371
55516W        W27045  33.282   1.006  13.535
55517W        W27046  17.341  40.225   2.212
55518W        W27047  37.574  16.127  11.156
55519W        W27048   1.370  16.040  14.406
55520W        W27049  29.124  17.983   2.827
55521W        W27050   4.356  18.564  11.392
55522W        W27051  24.631  32.345  13.048
55523W        W27052  10.101  41.350  13.551
55524W        W27053  37.433   6.879   5.000
55525W        W27054   4.232   5.885   0.298
55526W        W27055  11.300   0.683   2.180
55527W        W27056   7.913  17.145   0.262
55528W        W27057  43.189   9.288  12.384
55529W        W27058  12.762   7.255  11.916
55530W        W27059  25.875  41.964  12.952
55531W        W27060   0.773  36.385   1.982
55532W        W27061  35.025   0.875   3.826
55533W        W27062   0.787  26.620  11.950
55534W        W27063  28.466  32.040  13.608
55535W        W27064  43.071  11.265  12.785
55536W        W27065  33.355  23.233  10.585
55537W        W27066  27.039  21.690  12.055
55538W        W27067  43.447  25.689  12.360
55539W        W27068  21.750  23.205  11.939
55540W        W27069  29.554  34.106  11.695
55541W        W27070  25.089  25.544  12.906
55542W        W27071  31.072   4.372  10.451
55543W        W27072  23.907  37.905  14.281
55544W        W27073   8.934  39.799  11.572
55545W        W27074  35.505   2.323  10.717
55546W        W27075  24.809  10.361  11.526
55547W        W27076  15.025  43.495   0.316
55548W        W27077  40.265  43.344   2.289
55549W        W27078  29.349   6.382   0.334
55550W        W27079  13.541  39.512   0.759
55551W        W27080  33.394   5.218   4.538
55552W        W27081  25.090  11.836   2.441
55553W        W27082  22.289   8.312   2.909
55554W        W27083  32.527   1.492   2.431
55555W        W27084  33.710  18.470  12.299
55556W        W27085  29.965   2.835  11.126
55557W        W27086   2.976  35.645  11.069
55558W        W27087  23.428  43.627   2.830
55559W        W27088   5.982  38.444   1.878
55560W        W27089  34.016  35.298  12.543
55561W        W27090  42.944  25.014   2.476
55562W        W27091  12.424  37.114  14.751
55563W        W27092  15.098  23.777   0.438
55564W        W27093  24.571  34.611   2.766
55565W        W27094   4.373  24.542  11.233
55566W        W27095  18.183   9.134   4.344
55567W        W27096  34.086   2.386   1.748
55568W        W27097  16.267  27.054  13.440
55569W        W27098  18.673   4.360   3.704
55570W        W27099  11.834   7.243   2.638
55571W        W27100  12.141  35.391   4.301
55572W        W27101  36.043  29.265   4.132
55573W        W27102   0.772  44.408   0.295
55574W        W27103   6.165  31.099  11.568
55575W        W27104  38.188   6.139  14.463
55576W        W27105  43.353   3.354   1.859
55577W        W27106  43.525  43.968  14.220
55578W        W27107  31.881  14.169   3.439
55579W        W27108  20.215  10.178   0.282
55580W        W27109  43.399  25.600  10.645
55581W        W27110  21.380  16.353  14.266
55582W        W27111  27.196  24.484   3.074
55583W        W27112   0.986   9.225   0.820
55584W        W27113  21.666  28.627  11.488
55585W        W27114  42.887  16.162   2.202
55586W        W27115   6.782  29.014  10.838
55587W        W27116  29.584  31.888   1.010
55588W        W27117  28.395  13.277   0.955
55589W        W27118  32.152   0.789   0.391
55590W        W27119  12.722  26.000   2.860
55591W        W27120  42.979   1.870   5.183
55592W        W27121  30.599   9.277  11.840
55593W        W27122  37.445  11.280  14.731
55594W        W27123  34.991  35.944   3.146
55595W        W27124  15.846  43.243  14.499
55596W        W27125   6.078  20.134   4.136
55597W        W27126  32.620  30.126  13.406
55598W        W27127  26.544  22.727  14.117
55599W        W27128  26.229  38.371  14.953
55600W        W27129  10.874  35.366   4.458
55601W        W27130  40.076   1.841   3.270
55602W        W27131  21.266  30.237   1.962
55603W        W27132   6.735  11.636  13.574
55604W        W27133   3.289   3.130  11.865
55605W        W27134  17.864  38.502   2.998
55606W        W27135   8.421  41.857   2.752
55607W        W27136  40.572  27.372  14.787
55608W        W27137  29.427  41.288  11.211
55609W        W27138  37.005  44.454  14.977
55610W        W27139  29.691   6.788  14.501
55611W        W27140  39.393  16.978   0.920
55612W        W27141  35.273   4.092  11.131
55613W        W27142   8.833  17.854  14.793
55614W        W27143  42.721  22.039   0.313
55615W        W27144  11.341  16.862   4.207
55616W        W27145  28.402  36.901   0.390
55617W        W27146  16.094  29.986  12.627
55618W        W27147  21.517   1.812  13.392
55619W        W27148  36.860  19.113   0.702
55620W        W27149   6.368  16.556   4.964
55621W        W27150  19.046  32.170   2.586
55622W        W27151   8.198  44.982  10.575
55623W        W27152  24.083  35.004   1.272
55624W        W27153  44.329  18.027   0.032
55625W        W27154   1.592  29.868   1.853
55626W        W27155  26.290  27.844   3.653
55627W        W27156  33.877  31.593  12.053
55628W        W27157  27.659   9.239  11.566
55629W        W27158  18.164  32.621   2.696
55630W        W27159  28.422  36.949  13.805
55631W        W27160  21.627  37.153  10.685
55632W        W27161  22.609  12.762  12.873
55633W        W27162  31.634  33.493  12.962
55634W        W27163  11.664   1.045   1.254
55635W        W27164  15.259  19.948   2.337
55636W        W27165  29.622  26.456   1.390
55637W        W27166  21.239  43.198   2.005
55638W        W27167  35.491  35.442   2.177
55639W        W27168  43.369  18.806   2.599
55640W        W27169  41.822   8.231   4.554
55641W        W27170  25.662   1.349   3.749
55642W        W27171  31.410  40.232   0.864
55643W        W27172   4.903  27.172   1.989
55644W        W27173  15.544  26.534  11.735
55645W        W27174  30.169   0.365  14.535
55646W        W27175  43.974  34.074   2.610
55647W        W27176  32.844  35.358  11.271
55648W        W27177  20.706  26.751  13.610
55649W        W27178   0.261  19.267  11.133
55650W        W27179   5.639  13.229  11.474
55651W        W27180   3.279  27.133   0.153
55652W        W27181  43.406  27.072  12.477
55653W        W27182  12.385  25.454   2.287
55654W        W27183  27.141   9.244  11.594
55655W        W27184  31.527  33.615  10.690
55656W        W27185  23.501   9.317  12.117
55657W        W27186  44.913  17.081  12.418
55658W        W27187  18.849  33.008  13.596
55659W        W27188  15.245  12.215   4.811
55660W        W27189  23.537   4.117   1.833
55661W        W27190   5.246   8.378   3.185
55662W        W27191  11.603  32.414  11.960
55663W        W27192   2.310  42.445   3.844
55664W        W27193  12.240  32.379   4.329
55665W        W27194  24.336  35.466  13.009
55666W        W27195  10.740  11.795   0.848
55667W        W27196  11.846  21.083  11.341
55668W        W27197   5.865  21.125   3.416
55669W        W27198  35.500  14.262  12.317
55670W        W27199  20.736  17.668  11.425
55671W        W27200  34.079  30.588  14.545
55672W        W27201  35.545  38.849  12.074
55673W        W27202  31.717  17.095  10.923
55674W        W27203  36.445  42.548   3.061
55675W        W27204  37.445  20.267   2.360
55676W        W27205  36.272  16.345   3.686
55677W        W27206  24.561  15.847   0.794
55678W        W27207  36.462  21.670  12.028
55679W        W27208   5.804  14.614  14.833
55680W        W27209  35.487  12.322   2.904
55681W        W27210  19.993   5.285  13.611
55682W        W27211  31.603  19.590   2.163
55683W        W27212  28.141  21.815  12.837
55684W        W27213  23.180   0.376   3.126
55685W        W27214  24.621  38.553   1.736
55686W        W27215  43.887  32.372   1.750
55687W        W27216   8.281  15.167   1.183
55688W        W27217  14.257  15.169   1.352
55689W        W27218  34.386  38.075   4.607
55690W        W27219  17.547   7.508   2.723
55691W        W27220  25.877  33.249  11.940
55692W        W27221   9.399  29.601   3.966
55693W        W27222   6.104  23.531  14.613
55694W        W27223  32.657  44.317  13.124
55695W        W27224   6.935  28.704   4.249
55696W        W27225  10.721  36.889  10.738
55697W        W27226  13.398   7.654   4.265
55698W        W27227  42.957   0.299   1.941
55699W        W27228  37.026  33.095  13.929
55700W        W27229  23.839  35.405  14.719
55701W        W27230  33.042  36.065  13.385
55702W        W27231  18.738  43.513  14.854
55703W        W27232  38.757  13.705  12.572
55704W        W27233  13.072  28.767  13.313
55705W        W27234  24.321   4.186   3.696
55706W        W27235  18.241  36.046  13.517
55707W        W27236  19.817   0.365   0.406
55708W        W27237  35.981   8.747  13.944
55709W        W27238   6.661  10.727   2.942
55710W        W27239   5.080  29.016   4.285
55711W        W27240   9.856   4.656  11.957
55712W        W27241   3.949  37.027  12.135
55713W        W27242   4.285  13.287  11.666
55714W        W27243  14.948  11.330   9.833
55715W        W27244   3.160  20.194  12.939
55716W        W27245  29.742  32.045  11.564
55717W        W27246  39.604  13.351   2.495
55718W        W27247  32.038  16.140   2.229
55719W        W27248   1.894  11.803  10.451
55720W        W27249  15.194  34.899  10.726
55721W        W27250  26.774   2.897  12.144
55722W        W27251  16.002   1.667  12.835
55723W        W27252   2.975  13.264   1.736
55724W        W27253   5.238   1.675   1.437
55725W        W27254  41.770  22.791  13.991
55726W        W27255  18.412   9.125   9.913
55727W        W27256  37.931   7.084   4.924
55728W        W27257   0.382  21.297   3.291
55729W        W27258  38.303  24.937  10.566
55730W        W27259   4.769  19.070   0.064
55731W        W27260  10.407  39.908   5.017
55732W        W27261  28.205  44.147  12.032
55733W        W27262   9.784  29.925   3.384
55734W        W27263   9.135  19.032  14.411
55735W        W27264   8.408  28.449  14.747
55736W        W27265  15.485  21.213  14.274
55737W        W27266  43.732  37.902   2.383
55738W        W27267  41.928   9.332   4.058
55739W        W27268   2.696  24.130  13.521
55740W        W27269  22.939  37.979   3.855
55741W        W27270  19.721   1.374   2.913
55742W        W27271  39.064  17.927  12.027
55743W        W27272  16.809   6.414  12.532
55744W        W27273  11.290  42.067  13.447
55745W        W27274  28.472  25.988  10.640
55746W        W27275  40.370  37.461   4.113
55747W        W27276  22.626  44.159   3.572
55748W        W27277   4.062  24.210  13.986
55749W        W27278  19.662  39.527  13.992
55750W        W27279  29.062   4.332   3.578
55751W        W27280   7.098  12.523  12.016
55752W        W27281  10.838  22.497  12.372
55753W        W27282  41.917  21.182  10.108
55754W        W27283   5.680  20.592  12.351
55755W        W27284   3.979  19.089  12.970
55756W        W27285   0.950   5.803  13.390
55757W        W27286  29.756  12.835   3.306
55758W        W27287  33.841  26.859  10.695
55759W        W27288  32.470  38.786   0.339
55760W        W27289  30.192   9.560   1.245
55761W        W27290  17.223  30.103  12.481
55762W        W27291   8.706   4.195  10.531
55763W        W27292  23.079  40.406  10.403
55764W        W27293  19.894  41.890   3.594
55765W        W27294  38.945  31.358  11.231
55766W        W27295  22.497  16.547   0.555
55767W        W27296  26.939  22.777  12.173
55768W        W27297  30.621  39.577   4.220
55769W        W27298   6.310  24.719  11.001
55770W        W27299  42.431  36.313   0.986
55771W        W27300   8.798   8.233   3.208
55772W        W27301  15.354   5.821   0.983
55773W        W27302  34.921  40.597   5.295
55774W        W27303  31.752  17.097  12.047
55775W        W27304  41.562  29.155   3.688
55776W        W27305  44.695  29.162  11.025
55777W        W27306  21.109  43.706   2.866
55778W        W27307  21.095   0.918  12.994
55779W        W27308  43.909  26.009  14.864
55780W        W27309  28.185  11.641   1.312
55781W        W27310  20.217  32.900  13.188
55782W        W27311  12.940   3.739   2.784
55783W        W27312  22.549  34.200   1.930
55784W        W27313  10.158  24.251  12.795
55785W        W27314  17.911  33.913   3.323
55786W        W27315  28.779  35.577  10.336
55787W        W27316  40.589  10.320  10.775
55788W        W27317  14.196  44.412   1.003
55789W        W27318  34.563   9.771  12.033
55790W        W27319  23.594  26.459  13.452
55791W        W27320  26.066  27.224  13.417
55792W        W27321   2.900   6.393  13.293
55793W        W27322  44.853  24.555   0.308
55794W        W27323  30.632  41.275  13.451
55795W        W27324   5.321  34.352  11.057
55796W        W27325  31.563  19.172  12.448
55797W        W27326  31.554  20.350   1.652
55798W        W27327  10.941  18.213  14.800
55799W        W27328   2.895  43.577   2.664
55800W        W27329  13.510   4.063   0.803
55801W        W27330  32.101  28.234   2.392
55802W        W27331  23.284  15.297   1.895
55803W        W27332  23.994   0.876  10.662
55804W        W27333  18.595   2.412   0.026
55805W        W27334   7.793   4.909   3.745
55806W        W27335  34.143  40.847   4.555
55807W        W27336   4.753  33.641   3.776
55808W        W27337  28.205  17.332   4.171
55809W        W27338  17.341  24.697  11.815
55810W        W27339  33.924  26.111   1.367
55811W        W27340  39.504   6.177  14.844
55812W        W27341   6.564  34.011   1.946
55813W        W27342  28.535  24.050   0.909
55814W        W27343  26.527   6.841  12.744
55815W        W27344   4.659  27.018  11.456
55816W        W27345   6.656  12.135  13.499
55817W        W27346   9.698  32.060   1.715
55818W        W27347   2.392  18.407  11.211
55819W        W27348  33.800   6.056   1.346
55820W        W27349  37.394  44.474   4.868
55821W        W27350  29.444  26.021  13.010
55822W        W27351  16.667   7.383  14.825
55823W        W27352   9.642   0.917   0.554
55824W        W27353  41.438   2.321  11.747
55825W        W27354  42.457  32.398  14.923
55826W        W27355  21.238  32.881  11.208
55827W        W27356  30.136  29.319  11.112
55828W        W27357   8.624  36.109   2.895
55829W        W27358  30.072  36.555   1.969
55830W        W27359   2.773  12.596  14.881
55831W        W27360  31.265  29.012   3.327
55832W        W27361  39.723  14.315  10.528
55833W        W27362  20.770  31.437   1.505
55834W        W27363   8.921  44.883  13.034
55835W        W27364  40.388   6.751   2.161
55836W        W27365  24.591   2.318  13.866
55837W        W27366  30.774  34.709  12.449
55838W        W27367   7.318  23.243   1.255
55839W        W27368  33.717  41.553   4.953
55840W        W27369  10.404  27.752   1.183
55841W        W27370   9.075  34.410   4.915
55842W        W27371  39.396  12.303   4.110
55843W        W27372  31.980  44.456   4.846
55844W        W27373   4.275   5.145   4.190
55845W        W27374   3.263  16.405  12.921
55846W        W27375  21.183  24.865   4.225
55847W        W27376  22.109   0.631  11.998
55848W        W27377  12.159   9.601   2.792
55849W        W27378  19.746   6.890   0.105
55850W        W27379  17.012  28.711  13.503
55851W        W27380  23.463   4.466   3.229
55852W        W27381  15.238   9.263   3.072
55853W        W27382  28.128  21.745   4.744
55854W        W27383  28.613  34.775  11.641
55855W        W27384  11.396  42.399   3.012
55856W        W27385   0.525  42.179   1.752
55857W        W27386  10.789  16.390  12.008
55858W        W27387  18.678   8.812  12.607
55859W        W27388  44.545  19.135   2.259
55860W        W27389  21.759  11.623   3.580
55861W        W27390  12.330  31.580  12.556
55862W        W27391  32.042  12.761  10.286
55863W        W27392  38.505  40.139   2.764
55864W        W27393  40.455  15.524   3.056
55865W        W27394  44.813   6.020   2.138
55866W        W27395   7.598  13.351   2.314
55867W        W27396   0.433  35.938   1.504
55868W        W27397   8.834  31.089  14.530
55869W        W27398  11.236  13.337   4.138
55870W        W27399  13.136   7.425  11.123
55871W        W27400   5.902  24.139   4.165
55872W        W27401  22.523   5.688   2.446
55873W        W27402  43.737  26.817   0.073
55874W        W27403  33.666  18.644  14.333
55875W        W27404  28.951   7.000  14.451
55876W        W27405  39.894   0.019  12.014
55877W        W27406  21.617  35.362   4.886
55878W        W27407  35.911  15.071   1.413
55879W        W27408  12.626  33.830  14.881
55880W        W27409   4.934   9.020   2.249
55881W        W27410  43.742  15.405  11.471
55882W        W27411  38.127  22.764   3.255
55883W        W27412  24.967  37.457  11.446
55884W        W27413   4.331   1.533   0.546
55885W        W27414   2.978  30.966  12.947
55886W        W27415  40.984  24.744  12.838
55887W        W27416  13.674  22.115  14.068
55888W        W27417  22.830  37.313  12.704
55889W        W27418   5.157  31.220   0.489
55890W        W27419  31.411  13.780   9.935
55891W        W27420  27.130  38.998  12.977
55892W        W27421   2.858  11.715  10.646
55893W        W27422  12.439  27.447   1.762
55894W        W27423  36.475   1.627  14.575
55895W        W27424   2.430  11.807   2.830
55896W        W27425  24.566  39.652  12.197
55897W        W27426   4.593  24.579  10.227
55898W        W27427   7.411  16.543  14.753
55899W        W27428   2.367  27.063   4.155
55900W        W27429  33.132  15.638   3.123
55901W        W27430   9.745  43.838   4.615
55902W        W27431  23.466  18.601  12.197
55903W        W27432  13.216  30.180   3.228
55904W        W27433   7.275   7.199  10.802
55905W        W27434  42.771   6.158  12.563
55906W        W27435  30.628  22.467  12.998
55907W        W27436  11.869  29.389  12.021
55908W        W27437  26.560  23.080   2.923
55909W        W27438   9.654  18.003  12.630
55910W        W27439  10.460  40.688   3.650
55911W        W27440  27.041  13.690  12.390
55912W        W27441  39.828  34.664   2.720
55913W        W27442   5.712  27.984  12.402
55914W        W27443   1.156  32.029   4.074
55915W        W27444  30.609  40.494  12.978
55916W        W27445  41.522  18.017  10.760
55917W        W27446   8.397  36.843  13.677
55918W        W27447  10.236  31.549   1.403
55919W        W27448   9.406  24.660  13.067
55920W        W27449  14.156  44.312  14.986
55921W        W27450  16.130  33.506   1.411
55922W        W27451  10.218  24.090  10.912
55923W        W27452  10.229  44.466  11.122
55924W        W27453   6.341   3.544  12.123
55925W        W27454  29.130  33.106   2.824
55926W        W27455  41.758  33.028  12.581
55927W        W27456  15.608  23.493   0.503
55928W        W27457   6.147  18.882   1.351
55929W        W27458  24.628  24.023  13.319
55930W        W27459  36.908  21.762   3.155
55931W        W27460  22.542  42.449   9.652
55932W        W27461  19.332   7.902  11.596
55933W        W27462  31.600  12.597   3.586
55934W        W27463  38.765   6.707  13.882
55935W        W27464  38.520  31.608  11.089
55936W        W27465  38.517  35.495   3.163
55937W        W27466  23.140  11.734  10.734
55938W        W27467  14.517  42.949  14.742
55939W        W27468  30.415  34.803   0.357
55940W        W27469   0.911   4.896  12.114
55941W        W27470  12.845  29.984  11.892
55942W        W27471  18.206  11.015   3.160
55943W        W27472  23.591  18.053   0.167
55944W        W27473  18.566  23.493  10.805
55945W        W27474  36.547  40.734   4.573
55946W        W27475  36.055  32.101  13.352
55947W        W27476   9.640  28.688   0.977
55948W        W27477  23.697  26.857   3.267
55949W        W27478  19.764  40.377  10.776
55950W        W27479  21.707  40.970   2.676
55951W        W27480  13.203  30.365   2.249
55952W        W27481   4.930  28.700   1.112
55953W        W27482  38.841  34.482   1.751
55954W        W27483   2.450  22.642  14.572
55955W        W27484  40.705  15.985  12.067
55956W        W27485   8.758  17.525  11.520
55957W        W27486  28.914  33.804  14.358
55958W        W27487  11.636  27.537  10.604
55959W        W27488  41.518  33.956  14.801
55960W        W27489  29.495  31.535  14.364
55961W        W27490   5.615   2.857   3.267
55962W        W27491  12.060  18.628   4.268
55963W        W27492  20.030  32.323  14.824
55964W        W27493   9.329   1.965  13.973
55965W        W27494  38.319  13.713  12.874
55966W        W27495  38.850  20.554  11.043
55967W        W27496   6.084  14.947  11.587
55968W        W27497   4.779   1.407   3.199
55969W        W27498  23.937  30.866   3.181
55970W        W27499  36.301  31.432   1.847
55971W        W27500  22.236   7.617  13.839
55972W        W27501  25.649  39.174  14.840
55973W        W27502   7.639   6.751  10.633
55974W        W27503  38.134  16.584  12.412
55975W        W27504  21.714  27.519  13.755
55976W        W27505   3.504  15.902   2.955
55977W        W27506  22.612  40.694   3.089
55978W        W27507   0.227  12.117  13.424
55979W        W27508   3.416   9.891   3.797
55980W        W27509   7.942  35.366   2.782
55981W        W27510  24.027  13.078   4.694
55982W        W27511   4.460  33.980   0.549
55983W        W27512  37.956  13.684   0.905
55984W        W27513  31.402  44.273   1.355
55985W        W27514  40.238  10.587   2.927
55986W        W27515  36.239  28.758  12.504
55987W        W27516  27.751  37.882  12.914
55988W        W27517  17.190  23.284   3.067
55989W        W27518   1.674  30.585   3.498
55990W        W27519  18.666  44.279  11.414
55991W        W27520  18.979  15.514   1.919
55992W        W27521  33.965   7.462   0.091
55993W        W27522   1.193   3.862  12.276
55994W        W27523   9.928  41.469   3.311
55995W        W27524  33.045   8.629   4.623
55996W        W27525  28.583  40.112   3.368
55997W        W27526   7.700  13.507   1.284
55998W        W27527   6.098  16.636  11.035
55999W        W27528  36.429  11.300  12.145
56000W        W27529  17.439   9.164   0.924
56001W        W27530   6.455  36.938  12.461
56002W        W27531  28.665  42.476  10.698
56003W        W27532  17.217   8.122  13.870
56004W        W27533  11.647  26.307  12.322
56005W        W27534  20.686  20.035  11.938
56006W        W27535  10.246  21.179  13.954
56007W        W27536  38.550  19.859  10.619
56008W        W27537  39.885  22.191   1.410
56009W        W27538  20.578  36.580   1.948
56010W        W27539   0.386  25.474   3.699
56011W        W27540  16.312  30.919   4.580
56012W        W27541  25.591  30.212  11.955
56013W        W27542   9.933  12.168  12.050
56014W        W27543  11.186  14.849  11.566
56015W        W27544   9.678  28.618   2.186
56016W        W27545  43.975  22.791  12.064
56017W        W27546  42.379  27.482   4.139
56018W        W27547   8.960  26.751   1.375
56019W        W27548  39.842  41.808   3.784
56020W        W27549  42.766  43.284   2.272
56021W        W27550  15.747   1.567  14.931
56022W        W27551  16.718   8.690  12.321
56023W        W27552  12.349  14.628  12.471
56024W        W27553   2.986  44.287  12.636
56025W        W27554  30.038   6.446   2.844
56026W        W27555  26.658   8.396  12.931
56027W        W27556  17.170   4.806  13.130
56028W        W27557  13.823   4.878   4.590
56029W        W27558  44.594  17.682  14.264
56030W        W27559  25.989  11.785  12.410
56031W        W27560  43.261   3.465  10.729
56032W        W27561  30.131   9.404  11.629
56033W        W27562  31.416  34.021   2.279
56034W        W27563  22.220  43.423   3.345
56035W        W27564  11.169  15.544  12.891
56036W        W27565  36.962  44.872   3.676
56037W        W27566  44.495  43.742   1.897
56038W        W27567   6.390  18.135   4.928
56039W        W27568   8.996  12.134  12.095
56040W        W27569  14.218   1.914   3.794
56041W        W27570   1.453  23.421   2.654
56042W        W27571  24.257  29.840  10.722
56043W        W27572  30.565   3.967  11.555
56044W        W27573  31.039  40.449   1.170
56045W        W27574   6.188  34.470  12.492
56046W        W27575  34.983  15.073   0.331
56047W        W27576  36.161  20.512   0.528
56048W        W27577  18.381  36.867  13.548
56049W        W27578  35.813  12.069   4.558
56050W        W27579  28.476   9.431  14.459
56051W        W27580  33.779  19.729   0.501
56052W        W27581   4.468  23.662  11.878
56053W        W27582  13.330  31.047   0.242
56054W        W27583  19.508  36.509   2.904
56055W        W27584  41.379  21.067  11.896
56056W        W27585  27.359   7.459   4.187
56057W        W27586  42.148  36.188  14.853
56058W        W27587  25.900   4.305  10.673
56059W        W27588  39.565   5.842  13.467
56060W        W27589   1.970  21.521  12.379
56061W        W27590  33.809  42.081   4.226
56062W        W27591  17.656  44.781  13.945
56063W        W27592  11.223  12.062  11.485
56064W        W27593  25.053   8.835  14.919
56065W        W27594  27.377  16.953  14.549
56066W        W27595  26.159  21.760  14.905
56067W        W27596  34.134  13.981   1.745
56068W        W27597  13.150  26.640   0.796
56069W        W27598   4.894  35.835   0.267
56070W        W27599   5.531  30.633  11.122
56071W        W27600   5.457  16.967  11.155
56072W        W27601  18.054  16.114  12.982
56073W        W27602  28.997  23.439   2.823
56074W        W27603  43.740  20.697  14.044
56075W        W27604   3.282   8.071  12.066
56076W        W27605   3.757  23.229   4.208
56077W        W27606   1.499  19.777   2.833
56078W        W27607  13.652   3.254  13.336
56079W        W27608  14.394  35.883   3.217
56080W        W27609  32.291  11.302  12.472
56081W        W27610  25.226  36.611  14.934
56082W        W27611  26.457   0.853   0.938
56083W        W27612  44.959  33.807   3.268
56084W        W27613   4.480  18.989  12.902
56085W        W27614  27.392  37.261   3.400
56086W        W27615  38.503  24.617   3.564
56087W        W27616  28.216  14.267   0.865
56088W        W27617   7.900  21.542   1.816
56089W        W27618   2.994  24.207   1.369
56090W        W27619  31.834  28.553   2.678
56091W        W27620  14.141  28.691  14.651
56092W        W27621   0.607  23.423   2.205
56093W        W27622  34.586  33.037   3.795
56094W        W27623  28.836  39.531  14.561
56095W        W27624   5.226  35.258   3.793
56096W        W27625  22.940   5.934  11.571
56097W        W27626  36.628  44.829   4.111
56098W        W27627  40.989  15.204   4.594
56099W        W27628   9.109   6.990   1.810
56100W        W27629  38.890  11.162  12.409
56101W        W27630  32.741  34.667   3.727
56102W        W27631  28.043  29.617   0.435
56103W        W27632   9.701  42.328  10.347
56104W        W27633  42.370   2.448  10.911
56105W        W27634  27.602  20.975  11.976
56106W        W27635   2.065   2.097  10.121
56107W        W27636  21.744   4.030   4.898
56108W        W27637  22.579   2.311   2.948
56109W        W27638  16.245  34.772   4.053
56110W        W27639  22.744  39.380   0.769
56111W        W27640  19.508  41.904  11.738
56112W        W27641   9.178  39.888   1.477
56113W        W27642  13.737  41.888   1.269
56114W        W27643  38.880   6.831  13.003
56115W        W27644   7.227  14.536  12.920
56116W        W27645   9.723  38.456  14.362
56117W        W27646  22.670  25.188   1.934
56118W        W27647  38.272  21.725  10.666
56119W        W27648   8.419  13.794  12.874
56120W        W27649   7.252  28.897  14.854
56121W        W27650  43.556  13.584  11.969
56122W        W27651  11.563  33.003   2.428
56123W        W27652   1.973  18.778  11.202
56124W        W27653  17.109  10.457   2.544
56125W        W27654  16.498  12.828   0.489
56126W        W27655  26.556  21.454  14.734
56127W        W27656  37.480  44.962   4.529
56128W        W27657  32.575  43.074  13.332
56129W        W27658  21.180  36.925  10.801
56130W        W27659  16.103  31.723   1.491
56131W        W27660  43.102  13.723  14.292
56132W        W27661  42.935  24.283  13.952
56133W        W27662  38.040  22.186  10.665
56134W        W27663  36.649  25.588   1.914
56135W        W27664  26.384  36.109   1.215
56136W        W27665  34.542  39.331  13.929
56137W        W27666  44.535   0.971  10.266
56138W        W27667  16.711  17.702  14.186
56139W        W27668   8.210   6.076   1.359
56140W        W27669  31.333   9.676  12.112
56141W        W27670  13.249   8.634   3.691
56142W        W27671  31.270  32.194  12.578
56143W        W27672  11.368  16.226   3.462
56144W        W27673  13.095  30.614   4.457
56145W        W27674   9.744  25.968  14.946
56146W        W27675   0.483  12.669   3.614
56147W        W27676  23.764   7.592  14.355
56148W        W27677  33.978  20.853  10.762
56149W        W27678  16.308  26.542   2.683
56150W        W27679  41.754  16.644   3.248
56151W        W27680   2.087  38.107   0.676
56152W        W27681  23.609  15.627   4.101
56153W        W27682   8.034  34.749   3.203
56154W        W27683   5.910   2.902   2.228
56155W        W27684  33.462  22.443  11.868
56156W        W27685  33.034  14.746   2.800
56157W        W27686  36.877  42.408  14.380
56158W        W27687  15.872  36.040  14.971
56159W        W27688   8.458   7.706  14.465
56160W        W27689  30.099   0.508  12.497
56161W        W27690  41.361   9.930   2.701
56162W        W27691  30.829  44.548  11.762
56163W        W27692   2.021   8.808   4.542
56164W        W27693  37.216   1.803   0.309
56165W        W27694  39.763  29.505  12.638
56166W        W27695  22.033  11.715  10.717
56167W        W27696  21.050  30.356   2.894
56168W        W27697  27.742  28.304  10.963
56169W        W27698  37.085  41.028  14.927
56170W        W27699  11.590  31.712  10.572
56171W        W27700   3.825  21.596   3.373
56172W        W27701  16.529   8.729  14.064
56173W        W27702  18.578  30.582  12.984
56174W        W27703  14.561  41.542   1.900
56175W        W27704   4.373  34.560   1.795
56176W        W27705   8.133  30.146   2.456
56177W        W27706  11.592  38.431   2.253
56178W        W27707  27.029  19.130  14.735
56179W        W27708  42.862   0.438  10.771
56180W        W27709  43.001  14.739   4.602
56181W        W27710  29.708  27.989  12.461
56182W        W27711   7.797   7.464  12.567
56183W        W27712  14.390  28.785  13.765
56184W        W27713  36.856  12.854  14.782
56185W        W27714  10.295  43.776  14.811
56186W        W27715   6.780   5.669   0.795
56187W        W27716  41.847  34.359  14.828
56188W        W27717  36.357   7.271  10.520
56189W        W27718   8.579  18.594   1.192
56190W        W27719  41.275  13.829  11.122
56191W        W27720   5.515  35.298   4.586
56192W        W27721  23.951  43.872  12.867
56193W        W27722  19.774   9.219   3.499
56194W        W27723   5.901   1.797  11.549
56195W        W27724  33.805  34.148  13.855
56196W        W27725  40.844  34.992  11.692
56197W        W27726  17.288  16.068  13.377
56198W        W27727  12.444  44.285   5.822
56199W        W27728  37.752   8.563  11.763
56200W        W27729  12.248  16.074  12.390
56201W        W27730   3.674   5.736   0.422
56202W        W27731  30.166  40.635   2.258
56203W        W27732  29.784  24.798   4.452
56204W        W27733  30.970  26.742   3.330
56205W        W27734  37.407   4.889   4.895
56206W        W27735  30.129  24.027  11.415
56207W        W27736   1.084  15.183  13.489
56208W        W27737  26.414  27.751   2.280
56209W        W27738  36.747  22.676   4.383
56210W        W27739  25.259   4.965   1.193
56211W        W27740  18.357  28.082  14.116
56212W        W27741  38.290  18.327  13.013
56213W        W27742   7.668  40.040  12.407
56214W        W27743  14.601   8.544  11.140
56215W        W27744  38.994  41.390   3.155
56216W        W27745  39.756  38.323  14.415
56217W        W27746   8.783   2.416  10.800
56218W        W27747  20.724  10.297   0.254
56219W        W27748   2.177   7.567  11.383
56220W        W27749  26.996  16.797   4.568
56221W        W27750  33.533  17.021   4.115
56222W        W27751  33.865  32.204   3.097
56223W        W27752  18.238   0.832   3.933
56224W        W27753  30.151  29.683   1.843
56225W        W27754  23.815   3.947   1.422
56226W        W27755   2.637  27.044  11.061
56227W        W27756  20.051  25.582  12.489
56228W        W27757  15.666  18.117  11.920
56229W        W27758  42.681  21.555  13.960
56230W        W27759  16.250  32.384  11.794
56231W        W27760  39.522  13.871  13.258
56232W        W27761   1.282  30.685   4.440
56233W        W27762   6.200  31.178   4.150
56234W        W27763  21.153   0.507   1.371
56235W        W27764  17.094  41.104   4.252
56236W        W27765  21.321  32.382  12.123
56237W        W27766   7.375  36.964  14.808
56238W        W27767  38.762   9.229   3.839
56239W        W27768  26.741  26.161   4.575
56240W        W27769  10.435  23.715   3.008
56241W        W27770  10.828  41.818   1.205
56242W        W27771  29.875  21.105  12.864
56243W        W27772  23.075   1.011  10.550
56244W        W27773  19.524  36.529  13.551
56245W        W27774  13.101  11.693  14.339
56246W        W27775  40.919   8.846  10.725
56247W        W27776  35.359  33.503   4.547
56248W        W27777  11.340  14.755   3.896
56249W        W27778  21.125   0.379  11.605
56250W        W27779   3.491  42.826  13.068
56251W        W27780   3.135  44.217  13.552
56252W        W27781  35.354  21.886   1.942
56253W        W27782  35.107  31.026   1.873
56254W        W27783  27.199  37.527   4.931
56255W        W27784  34.028  30.368   1.020
56256W        W27785  29.541   9.151  10.583
56257W        W27786  28.596  13.851   1.816
56258W        W27787  12.992  31.152   3.268
56259W        W27788  36.485  21.744  10.959
56260W        W27789   9.437  38.520  10.768
56261W        W27790  33.438  26.619  13.087
56262W        W27791  28.022  14.288  14.264
56263W        W27792  39.324  27.997   4.065
56264W        W27793  19.662  30.608   0.496
56265W        W27794  20.239  21.926  13.484
56266W        W27795   4.657  32.437   1.980
56267W        W27796   2.855  30.483  13.045
56268W        W27797  22.909  28.661   1.877
56269W        W27798  41.775   1.484   4.157
56270W        W27799  39.469  44.047   0.778
56271W        W27800  25.720  41.264  14.945
56272W        W27801  41.793  39.395  14.328
56273W        W27802  44.741  35.002   0.411
56274W        W27803   5.784  29.519   3.868
56275W        W27804   6.479  29.155   2.683
56276W        W27805  10.783  22.870  13.071
56277W        W27806  27.522  23.285  12.841
56278W        W27807  30.932  21.491   4.582
56279W        W27808   2.211  40.849  11.875
56280W        W27809  22.214   5.307  14.040
56281W        W27810  36.014  37.511  10.797
56282W        W27811   3.234  15.775   1.985
56283W        W27812  19.065  23.618   3.657
56284W        W27813  41.823  22.884   3.316
56285W        W27814   0.719  29.630   0.913
56286W        W27815  25.685  22.790  11.570
56287W        W27816  11.203  35.914  14.043
56288W        W27817  38.751  20.155  12.980
56289W        W27818  41.015   2.461   0.521
56290W        W27819   8.915  42.657   2.731
56291W        W27820  19.025  31.703   4.796
56292W        W27821  29.992  42.557  13.786
56293W        W27822   6.453  34.368   4.511
56294W        W27823  37.786  40.318   0.726
56295W        W27824   8.180   7.956   4.016
56296W        W27825  25.816  17.015   2.409
56297W        W27826  26.676  36.325  12.927
56298W        W27827  20.094   4.851   3.303
56299W        W27828  25.400   4.811   3.950
56300W        W27829  36.910  34.891   3.166
56301W        W27830  16.265   0.301  10.715
56302W        W27831  19.551   7.787   2.728
56303W        W27832  27.148  24.457   4.076
56304W        W27833   4.934  40.572   0.473
56305W        W27834  38.331  19.989  13.974
56306W        W27835  16.622  33.069  14.488
56307W        W27836  20.075  17.048   1.574
56308W        W27837  36.538  28.662  12.974
56309W        W27838   0.004   4.156   2.464
56310W        W27839  40.068   6.063  12.184
56311W        W27840  44.684  32.555  11.689
56312W        W27841  44.990  21.296  13.843
56313W        W27842   5.743   4.435  14.389
56314W        W27843  33.793  29.437   4.640
56315W        W27844   2.576  37.422  14.504
56316W        W27845   7.115  37.926  14.451
56317W        W27846  36.534   7.629  13.879
56318W        W27847  36.019  26.552   2.246
56319W        W27848  20.625  37.398   4.342
56320W        W27849  14.590  15.060  10.567
56321W        W27850  15.262  30.647   2.183
56322W        W27851  18.829  10.303   3.610
56323W        W27852  17.708  22.664   1.221
56324W        W27853  40.056   3.297  12.131
56325W        W27854   3.975   4.741   1.186
56326W        W27855  44.259  36.524  13.625
56327W        W27856  20.108  23.898  12.859
56328W        W27857  35.422   7.208   3.327
56329W        W27858  36.466  11.862   0.476
56330W        W27859  19.117  14.341  11.108
56331W        W27860  23.691  28.321  13.943
56332W        W27861  16.816  17.064   3.160
56333W        W27862  38.484  26.429   1.896
56334W        W27863  30.547  11.380  10.844
56335W        W27864  16.458  14.938   1.874
56336W        W27865  12.357  13.654   0.700
56337W        W27866  23.078  27.787   1.789
56338W        W27867   5.805  21.559  10.810
56339W        W27868  10.780  27.516  10.933
56340W        W27869  21.034  19.984   5.050
56341W        W27870  29.905  21.640   0.981
56342W        W27871  18.449  33.650   0.214
56343W        W27872  17.144  10.415   3.061
56344W        W27873  39.476   8.053  11.615
56345W        W27874  37.374  37.587  12.395
56346W        W27875  38.092   0.235   0.507
56347W        W27876  28.112  14.185  11.156
56348W        W27877  38.881   7.760   0.806
56349W        W27878  18.322  40.857  13.517
56350W        W27879  33.502  30.403  10.281
56351W        W27880  13.244  29.344  14.834
56352W        W27881   5.845  14.784  11.068
56353W        W27882  35.015  42.499  11.195
56354W        W27883  43.463   4.715  13.205
56355W        W27884  26.076  13.285   0.784
56356W        W27885  30.594  37.935   3.419
56357W        W27886  25.036  17.486   1.436
56358W        W27887  10.325  41.239   2.380
56359W        W27888   8.103  22.248   4.556
56360W        W27889   6.466   5.994   3.709
56361W        W27890  18.504  39.885  11.946
56362W        W27891   6.929  36.017  12.191
56363W        W27892   6.395  18.185  13.373
56364W        W27893  26.546  10.391   4.247
56365W        W27894  24.654  21.735  14.333
56366W        W27895  11.013  37.849  14.624
56367W        W27896  34.542  11.505  12.820
56368W        W27897  15.805  31.861  13.870
56369W        W27898  42.901  31.977  13.912
56370W        W27899  38.571  12.367  13.557
56371W        W27900  30.101  32.337   1.911
56372W        W27901  39.885  39.816   1.958
56373W        W27902  33.263   7.758  14.547
56374W        W27903  25.012  15.918   0.491
56375W        W27904  34.558  37.952  14.525
56376W        W27905  24.522  21.837   3.643
56377W        W27906  27.903   3.318   1.219
56378W        W27907  10.530  32.553  14.583
56379W        W27908  12.094  29.433   4.105
56380W        W27909   4.636  40.422   0.929
56381W        W27910  26.109  32.923  14.022
56382W        W27911  12.395  12.713   2.179
56383W        W27912   2.344  14.620  10.885
56384W        W27913   3.036  14.260  13.043
56385W        W27914  36.835  16.658  13.397
56386W        W27915  33.855  20.690  11.619
56387W        W27916  31.408  19.827  13.893
56388W        W27917   6.452  21.346   0.353
56389W        W27918  44.089   5.313  13.125
56390W        W27919   7.785  18.789  12.075
56391W        W27920  30.463  16.413   5.441
56392W        W27921  17.902  30.964  10.339
56393W        W27922  38.656  18.775   4.144
56394W        W27923   5.432  29.111   0.261
56395W        W27924  42.927  15.389   1.943
56396W        W27925  13.540  39.315   2.548
56397W        W27926   0.472  41.435  10.712
56398W        W27927  27.198   5.441  11.937
56399W        W27928  35.916  13.285   1.750
56400W        W27929  43.967   3.406  11.930
56401W        W27930  40.062  15.428  10.598
56402W        W27931   1.482  39.502  13.442
56403W        W27932  19.093  16.367   4.803
56404W        W27933  29.640  20.294   3.737
56405W        W27934   8.256   1.747   9.992
56406W        W27935   6.707  20.609   4.085
56407W        W27936  33.876  21.192   0.936
56408W        W27937  36.950  43.552   2.282
56409W        W27938  18.191  42.110  11.105
56410W        W27939  12.436   2.774   2.705
56411W        W27940  34.048   6.290   0.920
56412W        W27941   3.563  38.938  10.129
56413W        W27942  24.639  22.187  10.957
56414W        W27943   8.378  44.976  12.509
56415W        W27944  39.349  21.982  11.087
56416W        W27945  42.014  35.460   0.330
56417W        W27946  33.507  39.996   2.449
56418W        W27947  20.989  12.635   4.322
56419W        W27948   0.169  31.826   2.308
56420W        W27949  42.041  27.078   3.474
56421W        W27950  24.952  20.540  13.917
56422W        W27951   4.323  37.342   0.444
56423W        W27952  11.777  31.466   0.929
56424W        W27953  30.119  42.397  11.360
56425W        W27954  11.150  30.689  14.706
56426W        W27955  34.714  31.804   4.634
56427W        W27956  22.066  44.007  11.557
56428W        W27957  10.872  11.770  14.675
56429W        W27958  13.295  25.223   1.905
56430W        W27959  23.705  37.225   3.583
56431W        W27960  35.901  42.959   3.676
56432W        W27961  11.156  32.067   1.364
56433W        W27962  44.983  41.995  14.287
56434W        W27963   3.895  16.703   4.621
56435W        W27964  21.041  21.689  11.461
56436W        W27965  24.289  23.233   1.322
56437W        W27966  35.112  10.701  13.749
56438W        W27967  30.418  22.905  13.826
56439W        W27968  16.166  33.872  10.488
56440W        W27969  28.036  24.590  11.160
56441W        W27970  43.000  41.875   4.717
56442W        W27971  33.525   0.726   2.210
56443W        W27972  30.617  36.960   4.434
56444W        W27973  31.181   6.820  12.175
56445W        W27974   8.195  13.380   1.708
56446W        W27975   0.407   0.296  14.298
56447W        W27976  16.125  12.967  12.039
56448W        W27977  19.544  35.380   3.384
56449W        W27978  10.895  35.396   2.230
56450W        W27979  13.869  21.543   3.149
56451W        W27980  35.187   1.852  12.054
56452W        W27981  34.665  35.014  14.717
56453W        W27982  19.764  24.203  11.560
56454W        W27983  41.929  21.043  11.146
56455W        W27984  39.952   7.831   4.110
56456W        W27985  44.832  18.885  14.763
56457W        W27986  21.098   6.762  12.452
56458W        W27987  21.137  38.873   2.775
56459W        W27988  28.624   3.500   0.406
56460W        W27989  36.465   9.378   0.542
56461W        W27990  38.963  43.168   3.283
56462W        W27991  30.451  42.829  13.838
56463W        W27992   3.252  25.867   0.201
56464W        W27993   4.955  11.077   2.340
56465W        W27994  43.125   7.512  14.261
56466W        W27995  39.484   1.357   3.448
56467W        W27996   7.676   8.106  14.900
56468W        W27997   1.498  29.368   1.994
56469W        W27998  38.482  29.060  11.574
56470W        W27999  34.876   6.435  14.343
56471W        W28000  17.198  24.768  12.826
56472W        W28001  20.886  21.197  10.556
56473W        W28002  14.583   6.839   2.344
56474W        W28003   0.432   0.545  13.524
56475W        W28004  43.022  44.052  11.659
56476W        W28005  41.050  44.289   3.353
56477W        W28006  11.348  15.349  14.503
56478W        W28007  17.634  15.345   1.330
56479W        W28008   0.410  16.324   3.164
56480W        W28009  24.457  14.629  11.624
56481W        W28010  21.491   2.720   4.638
56482W        W28011  33.095   6.176   4.159
56483W        W28012   4.669   1.922   3.218
56484W        W28013  42.855  16.098  11.454
56485W        W28014  33.466  39.480   1.182
56486W        W28015  22.723  29.984  12.476
56487W        W28016  29.130  33.911   2.140
56488W        W28017   0.290  18.082   0.607
56489W        W28018   9.810  16.051  12.054
56490W        W28019  16.155  23.974   1.344
56491W        W28020  34.338  11.107   1.364
56492W        W28021  20.575  14.803  13.972
56493W        W28022  23.216  44.238   0.844
56494W        W28023   0.320   1.214   2.363
56495W        W28024  34.877  13.713   3.669
56496W        W28025  41.323  15.275  12.540
56497W        W28026  23.154   0.277   0.871
56498W        W28027  12.112  19.606   5.055
56499W        W28028  44.254  10.813   2.353
56500W        W28029  13.483  20.111  13.570
56501W        W28030  34.862  31.376  13.937
56502W        W28031  25.882   1.589  13.945
56503W        W28032  31.949   9.784   4.904
56504W        W28033   5.712  23.165  14.347
56505W        W28034  40.839  29.692   1.331
56506W        W28035  24.967  29.555  14.372
56507W        W28036  17.783  40.385  13.966
56508W        W28037  14.638  26.075   4.799
56509W        W28038  33.346  22.207  14.033
56510W        W28039  38.565  44.735   3.660
56511W        W28040   2.336  21.713  14.597
56512W        W28041  10.610  31.879  10.717
56513W        W28042  31.588  10.778  10.446
56514W        W28043  29.561  21.117   5.086
56515W        W28044  33.868  37.570   3.454
56516W        W28045  19.614  36.040  14.848
56517W        W28046  34.314  38.438   1.669
56518W        W28047  33.208   6.263  11.606
56519W        W28048  11.394   5.135  10.781
56520W        W28049  13.816  25.206   0.500
56521W        W28050   9.305  39.471  11.411
56522W        W28051  35.028  25.487  14.006
56523W        W28052  43.466   6.686  12.784
56524W        W28053  28.647  15.094   1.235
56525W        W28054  35.591  12.652   3.259
56526W        W28055   8.180  40.318   3.880
56527W        W28056  13.924   6.000   3.233
56528W        W28057  25.038  30.538   0.606
56529W        W28058  19.553   2.124   1.772
56530W        W28059  39.637  29.566  11.297
56531W        W28060  18.552  30.337   3.294
56532W        W28061   2.806  17.808  14.400
56533W        W28062  10.529  37.992  14.500
56534W        W28063  17.128  23.224  11.398
56535W        W28064   4.354  27.771  10.388
56536W        W28065  19.302  44.198   0.704
56537W        W28066  21.560  43.797   1.203
56538W        W28067  42.590  39.901   2.749
56539W        W28068   9.395  25.000  12.304
56540W        W28069  44.448   1.841   0.426
56541W        W28070  35.156  11.606  10.312
56542W        W28071   0.029  38.965   0.694
56543W        W28072   3.890  23.979  13.530
56544W        W28073  40.380   1.048   0.480
56545W        W28074  14.885  25.637  12.071
56546W        W28075  29.975  23.139  12.964
56547W        W28076   2.975  37.006  14.348
56548W        W28077  34.830  32.719  10.844
56549W        W28078  36.577   0.237  10.365
56550W        W28079  18.794  20.957  10.784
56551W        W28080   1.557   1.166   1.733
56552W        W28081  17.793  22.458  13.598
56553W        W28082  14.347   9.125  12.403
56554W        W28083   4.209  24.121   3.691
56555W        W28084  34.274  39.431  13.030
56556W        W28085  10.622  30.914   3.892
56557W        W28086  31.592  38.198   0.489
56558W        W28087  23.112  16.277   0.359
56559W        W28088  20.730   3.268   5.288
56560W        W28089   3.213  18.659  13.160
56561W        W28090  25.813  15.673   3.446
56562W        W28091  44.223   4.848  14.394
56563W        W28092  38.415  22.020   1.159
56564W        W28093   2.420  22.688  11.552
56565W        W28094  40.000  30.208   2.554
56566W        W28095  34.555  26.567   1.186
56567W        W28096  20.705  17.552   3.211
56568W        W28097  18.794  35.211  13.739
56569W        W28098  29.547  31.801   4.033
56570W        W28099   6.760  12.764   0.894
56571W        W28100   9.558  42.491   4.563
56572W        W28101   2.955  18.600   0.413
56573W        W28102  24.613  14.999  14.173
56574W        W28103  44.947  33.684  11.648
56575W        W28104  25.651  38.037  13.053
56576W        W28105  20.260  16.805  12.315
56577W        W28106  29.463  35.117   3.695
56578W        W28107  41.043  41.898   3.674
56579W        W28108  17.236   7.579   4.008
56580W        W28109  41.266  38.369  11.560
56581W        W28110   7.399   4.803  11.969
56582W        W28111   8.602  24.364   4.960
56583W        W28112   0.664   8.755   5.056
56584W        W28113  25.967  12.170  14.381
56585W        W28114  14.712  42.834   4.357
56586W        W28115  14.294  31.861  11.979
56587W        W28116  20.649  28.853  11.561
56588W        W28117  18.324  21.884   3.373
56589W        W28118  22.462  40.566   0.956
56590W        W28119  35.759  12.801   1.969
56591W        W28120  34.007  42.224  12.855
56592W        W28121  15.701  18.786   3.621
56593W        W28122  14.124  39.077   3.695
56594W        W28123  18.245  12.194   3.222
56595W        W28124  34.198   7.240  12.738
56596W        W28125  29.137  43.462  13.280
56597W        W28126  38.304  22.620  11.415
56598W        W28127  28.021  39.993   2.721
56599W        W28128  38.491  10.118   3.654
56600W        W28129  12.436  29.746   4.530
56601W        W28130  13.767   3.682   4.543
56602W        W28131  24.633  32.124   3.703
56603W        W28132  37.990   3.465   4.015
56604W        W28133  43.911   0.284  13.541
56605W        W28134  19.617  24.801  10.747
56606W        W28135  19.172   9.245   1.815
56607W        W28136   3.674  11.114  12.923
56608W        W28137  40.043   0.817  14.034
56609W        W28138   0.550   7.286  11.985
56610W        W28139  29.494  21.783  12.232
56611W        W28140  39.582  19.640  12.954
56612W        W28141  33.161  33.250   0.720
56613W        W28142  23.707  25.457   3.152
56614W        W28143  25.129   1.334  12.791
56615W        W28144  10.819   9.407  12.510
56616W        W28145  29.577   1.155  11.082
56617W        W28146  43.130   2.783   4.972
56618W        W28147   1.282   4.329  14.648
56619W        W28148  44.440   7.218   2.645
56620W        W28149  19.100  42.847  14.303
56621W        W28150  21.177  20.464  12.800
56622W        W28151  30.972  31.633   2.640
56623W        W28152  42.049  17.611  14.882
56624W        W28153  40.485  28.225  11.503
56625W        W28154  41.030  27.662  12.930
56626W        W28155  17.114  29.726  11.627
56627W        W28156  25.519  28.100   0.304
56628W        W28157  32.475  17.760  10.393
56629W        W28158  35.005  15.594  11.763
56630W        W28159  14.539  21.956  14.379
56631W        W28160  20.504  27.943  11.673
56632W        W28161   3.825  32.528  12.200
56633W        W28162  29.150  12.124  13.825
56634W        W28163   5.156  37.803  12.885
56635W        W28164  31.406  43.798  14.881
56636W        W28165   3.521  38.828  12.625
56637W        W28166  33.755  38.279  11.146
56638W        W28167  42.570  35.419   0.376
56639W        W28168  13.246  43.303   0.318
56640W        W28169  24.288  10.568   4.042
56641W        W28170  22.999   7.353  11.085
56642W        W28171  33.111  42.749   0.682
56643W        W28172  42.229  24.964  14.033
56644W        W28173   9.293   5.781  14.645
56645W        W28174  28.429  27.616   3.306
56646W        W28175  41.414   8.399  11.098
56647W        W28176  22.581  14.586   1.302
56648W        W28177  25.832  26.044   1.953
56649W        W28178   0.020  11.057  11.610
56650W        W28179   7.688  43.044   0.534
56651W        W28180  24.203   8.839   4.380
56652W        W28181  29.109  29.142  14.955
56653W        W28182  42.960  13.894   1.392
56654W        W28183  37.971   3.391   3.519
56655W        W28184  30.749  16.755  12.358
56656W        W28185  34.138  44.671   0.379
56657W        W28186  14.292  31.936   3.636
56658W        W28187  10.158  39.581  12.306
56659W        W28188  41.964  14.389   1.421
56660W        W28189  40.096   5.341  14.675
56661W        W28190  22.925  40.559  12.057
56662W        W28191  37.328  39.679   4.294
56663W        W28192  22.257   7.882   0.823
56664W        W28193  44.484   8.459  12.033
56665W        W28194  12.267  34.604   3.839
56666W        W28195  31.927  14.848   3.614
56667W        W28196  16.143  34.981   2.216
56668W        W28197  37.283  40.810  13.289
56669W        W28198   0.556  21.980  11.516
56670W        W28199   9.430  36.060  11.186
56671W        W28200  33.130  39.490   0.727
56672W        W28201  11.328  34.876   2.726
56673W        W28202  17.347   0.910  14.449
56674W        W28203  20.167  22.051   4.205
56675W        W28204  38.088  15.985  14.869
56676W        W28205  29.176   5.412  13.337
56677W        W28206   3.368  33.613   1.960
56678W        W28207   9.449  42.962  14.870
56679W        W28208  10.795   6.678   2.348
56680W        W28209  26.289  12.619  14.373
56681W        W28210  17.209  41.207   2.406
56682W        W28211  22.680  39.397   2.458
56683W        W28212   1.749  32.663   1.801
56684W        W28213   8.679  42.349   2.050
56685W        W28214  11.079   7.360   1.268
56686W        W28215   5.554  32.603  14.359
56687W        W28216  42.819  22.646   1.186
56688W        W28217  18.055  29.089   1.824
56689W        W28218  25.697  31.163   0.779
56690W        W28219   8.230  41.731   1.920
56691W        W28220  33.372  14.636  12.475
56692W        W28221  22.930  36.866  14.771
56693W        W28222  19.093  32.618  11.233
56694W        W28223  11.322   1.279   3.560
56695W        W28224   4.719  34.378   3.264
56696W        W28225  12.783  25.982  13.509
56697W        W28226  11.283  42.720   4.585
56698W        W28227  18.524  13.133   0.484
56699W        W28228   2.781   1.982  10.601
56700W        W28229  42.537  11.271  13.076
56701W        W28230  11.025  24.596   0.342
56702W        W28231  38.449  31.126   4.927
56703W        W28232  17.585  18.089  12.911
56704W        W28233  13.754  21.227   2.723
56705W        W28234  32.841   9.028  11.362
56706W        W28235  34.633   7.233   4.205
56707W        W28236  42.062  18.107  12.154
56708W        W28237   2.489  37.395  12.880
56709W        W28238  41.817  12.889   2.224
56710W        W28239   8.362  16.342   0.737
56711W        W28240  35.314  12.072   2.509
56712W        W28241  38.782   5.193   4.030
56713W        W28242  40.935  15.825   3.305
56714W        W28243  13.090   9.199   2.547
56715W        W28244  17.829   8.224   2.386
56716W        W28245   6.079  43.628  11.667
56717W        W28246  21.972  12.758  13.750
56718W        W28247   0.463  36.010  14.951
56719W        W28248  40.326  35.634  11.163
56720W        W28249   9.263   4.665  13.361
56721W        W28250  43.541  19.860  13.790
56722W        W28251  12.225  23.157   1.171
56723W        W28252   0.882  12.116  11.759
56724W        W28253   3.278  28.765  12.515
56725W        W28254  39.768  29.716  14.952
56726W        W28255  42.964   0.904  14.001
56727W        W28256   9.800  18.114   0.794
56728W        W28257  29.397  34.760  12.924
56729W        W28258   5.986   3.819  13.717
56730W        W28259  25.609   4.198   0.821
56731W        W28260  26.630   5.001  12.907
56732W        W28261  30.529   3.600   0.917
56733W        W28262  36.543  16.637  12.974
56734W        W28263  20.280   5.343  12.643
56735W        W28264   3.498  30.652   2.781
56736W        W28265  43.570  37.071   0.211
56737W        W28266  31.970  40.301   1.558
56738W        W28267  25.490  26.155  11.197
56739W        W28268  42.029   6.220   2.759
56740W        W28269  20.365  23.517   4.105
56741W        W28270   2.375  37.866   2.397
56742W        W28271   0.874  39.192  12.652
56743W        W28272   1.713  44.872   0.964
56744W        W28273  28.614   6.456  11.449
56745W        W28274  29.493   4.348   0.890
56746W        W28275  39.845   5.709   3.175
56747W        W28276   9.643  44.773  13.505
56748W        W28277  43.772   8.496   3.145
56749W        W28278  32.632   6.124  13.976
56750W        W28279   9.138  23.107  14.433
56751W        W28280  44.452   1.326  13.006
56752W        W28281   9.950  18.248   3.691
56753W        W28282  15.341   5.352   1.290
56754W        W28283   2.021  12.847  12.235
56755W        W28284  17.797   9.425  14.045
56756W        W28285  21.830   7.248   2.717
56757W        W28286  17.068  32.391  10.692
56758W        W28287  24.679  38.601  11.590
56759W        W28288  17.633  23.817  12.846
56760W        W28289  12.874  39.571   1.753
56761W        W28290  11.824   9.776  13.523
56762W        W28291   2.188  13.772  11.116
56763W        W28292  24.573  18.101   3.719
56764W        W28293  37.801  36.898  11.944
56765W        W28294  40.331  14.307   0.749
56766W        W28295   1.064  30.463  13.960
56767W        W28296   6.018  26.899  13.378
56768W        W28297   0.821   6.504   4.954
56769W        W28298  24.175  19.589  14.864
56770W        W28299  24.511   4.086  14.299
56771W        W28300  13.065  24.273   1.022
56772W        W28301  32.511  35.568  12.665
56773W        W28302   3.915  37.665  10.383
56774W        W28303  30.909  14.744   3.714
56775W        W28304  30.504  23.438   3.665
56776W        W28305   0.456  17.252  14.705
56777W        W28306  37.980  12.743   2.305
56778W        W28307  37.947  40.830   1.654
56779W        W28308  19.333  14.777   0.376
56780W        W28309   8.744  20.256   2.491
56781W        W28310  14.821  25.065  10.284
56782W        W28311  11.023  22.750  14.469
56783W        W28312  16.755  44.643   0.351
56784W        W28313  44.528  43.361  14.825
56785W        W28314  28.024  41.624   3.711
56786W        W28315  30.796  16.824   5.139
56787W        W28316  29.847  20.189   1.888
56788W        W28317  31.451  28.226   1.743
56789W        W28318  13.819   3.413   3.717
56790W        W28319  24.210  37.147   3.401
56791W        W28320  43.481   6.310   4.088
56792W        W28321  29.929  27.252   3.261
56793W        W28322  42.967  17.577  13.950
56794W        W28323  19.160  36.759  10.470
56795W        W28324  27.928  14.803  12.388
56796W        W28325   8.742   6.840  10.857
56797W        W28326  40.433   7.033  11.546
56798W        W28327  22.624  38.077  12.941
56799W        W28328  42.350   8.160  12.890
56800W        W28329  22.541  31.561   4.616
56801W        W28330  23.767   8.720  14.500
56802W        W28331  11.585  13.329  11.169
56803W        W28332  42.023  30.668   2.742
56804W        W28333  17.843  23.063  14.379
56805W        W28334   6.317   6.233  10.713
56806W        W28335  12.892   6.366  14.414
56807W        W28336   9.662  26.188  14.481
56808W        W28337  42.957  13.896  13.409
56809W        W28338  22.643  28.540  11.901
56810W        W28339   2.174  11.165   0.924
56811W        W28340  17.547  36.067  14.418
56812W        W28341  23.347  38.863  12.006
56813W        W28342  32.481  38.722  14.289
56814W        W28343  37.826   1.968  14.847
56815W        W28344  36.031   9.077   0.510
56816W        W28345  25.036  44.617  10.888
56817W        W28346  25.130   8.659   2.665
56818W        W28347  22.032  35.699   2.188
56819W        W28348  10.993  18.447   3.657
56820W        W28349  42.902  38.077  11.559
56821W        W28350   5.271  11.940  14.352
56822W        W28351  17.059  18.134  11.283
56823W        W28352  37.440   5.181   1.154
56824W        W28353  41.010   8.333  13.474
56825W        W28354  23.525   5.365   0.398
56826W        W28355  29.458  19.380  14.976
56827W        W28356  22.071   5.361   1.418
56828W        W28357  24.051  20.203  12.086
56829W        W28358  41.106  33.680  13.010
56830W        W28359  11.198  34.538  12.871
56831W        W28360  12.638  32.142   3.291
56832W        W28361  11.330  21.786  10.617
56833W        W28362  39.259  15.621   1.996
56834W        W28363  19.938  32.330   2.966
56835W        W28364  22.683   5.195   2.621
56836W        W28365  15.301   3.827  10.912
56837W        W28366  38.492   1.796  13.913
56838W        W28367  19.993   6.078   2.259
56839W        W28368   4.924   0.489  12.888
56840W        W28369  16.459   2.479   3.599
56841W        W28370  29.393  24.035  12.514
56842W        W28371  10.413  34.614  13.534
56843W        W28372  34.078  23.612  11.179
56844W        W28373  20.515  39.406   0.843
56845W        W28374  13.481  24.401  13.916
56846W        W28375  13.902  27.993  14.707
56847W        W28376   6.487  23.955  13.727
56848W        W28377  24.565  16.246  11.625
56849W        W28378  10.291  39.128   2.647
56850W        W28379  20.821  37.395  14.389
56851W        W28380   2.965  22.165   0.372
56852W        W28381  32.862  15.075  11.393
56853W        W28382   6.346  31.711   1.906
56854W        W28383  38.758  20.179  12.303
56855W        W28384  23.106   8.817   2.259
56856W        W28385   5.497  17.090  12.500
56857W        W28386   5.650  14.044   4.521
56858W        W28387   3.965  30.033  11.305
56859W        W28388   8.133  28.907  11.595
56860W        W28389  12.399  40.099   1.975
56861W        W28390  28.659  16.267   0.346
56862W        W28391  34.598  41.916   4.680
56863W        W28392   0.345  12.829   2.744
56864W        W28393  19.396   3.584   3.311
56865W        W28394  14.903  39.092   4.351
56866W        W28395  13.185  44.247   2.776
56867W        W28396  16.779  36.840   3.131
56868W        W28397   5.819  13.366  12.480
56869W        W28398   9.845  37.899  11.508
56870W        W28399  18.870   1.928   0.685
56871W        W28400  11.861  33.529   3.657
56872W        W28401  20.700  32.040   0.258
56873W        W28402   1.171  14.058  14.762
56874W        W28403  11.202  41.205   1.926
56875W        W28404   0.289   4.382   0.484
56876W        W28405  23.145   7.152   3.892
56877W        W28406  21.729  12.353   0.387
56878W        W28407  29.562  18.998  10.618
56879W        W28408  41.011  36.983  11.799
56880W        W28409  28.036  30.384  14.839
56881W        W28410  29.496  29.243  12.941
56882W        W28411   0.357   6.464  13.252
56883W        W28412  23.008  30.643  14.477
56884W        W28413   1.554  36.946   4.516
56885W        W28414   1.304   0.190   4.037
56886W        W28415  14.989  39.945   1.028
56887W        W28416  28.235   2.940   1.414
56888W        W28417   0.955  39.399   1.463
56889W        W28418  29.672   6.146  13.458
56890W        W28419   5.590   4.673  11.639
56891W        W28420  16.165  26.519   2.165
56892W        W28421   1.871  18.616   3.056
56893W        W28422  40.484  16.327   0.482
56894W        W28423   2.577   4.541  12.422
56895W        W28424  42.780   1.977  12.054
56896W        W28425  13.792  25.634  12.605
56897W        W28426   8.597  43.928   0.297
56898W        W28427   2.132  27.150   1.380
56899W        W28428  30.299  21.500   1.933
56900W        W28429  33.183   6.815  11.142
56901W        W28430  41.267  29.470  13.969
56902W        W28431  38.457  41.749  13.728
56903W        W28432  12.335  43.514   4.201
56904W        W28433   0.546   2.423  14.947
56905W        W28434  29.042   3.483  12.020
56906W        W28435  16.737  21.106  10.721
56907W        W28436  39.885  19.610   1.257
56908W        W28437   5.450   7.314  13.451
56909W        W28438  10.184  19.767  14.261
56910W        W28439  41.776  25.509   0.657
56911W        W28440  30.489   3.450   3.814
56912W        W28441  34.011   1.986   3.866
56913W        W28442   2.807  31.119   1.558
56914W        W28443  11.225   7.286  12.874
56915W        W28444   1.118   3.994   1.851
56916W        W28445   1.876  23.230   1.443
56917W        W28446  16.586  36.488   1.035
56918W        W28447  12.090  14.830  12.047
56919W        W28448  14.247  36.554  12.070
56920W        W28449   7.168  19.392  10.992
56921W        W28450  33.634   9.372  14.768
56922W        W28451   4.455  36.748  13.432
56923W        W28452  41.210  41.360  14.148
56924W        W28453  18.720  42.765   0.407
56925W        W28454   2.401  22.251   1.451
56926W        W28455   3.918  25.758  12.099
56927W        W28456  14.420  37.456  11.375
56928W        W28457  31.804  39.265  11.154
56929W        W28458  29.158  37.372   1.518
56930W        W28459  17.759  33.432   3.228
56931W        W28460  32.400  20.234   4.431
56932W        W28461  36.350  32.611   2.949
56933W        W28462   1.783  23.471   1.891
56934W        W28463   3.547   8.994  13.819
56935W        W28464   5.200  13.208  14.043
56936W        W28465   9.677  29.016   3.350
56937W        W28466  10.087  23.683  14.447
56938W        W28467  36.405  42.766   4.861
56939W        W28468  43.845  28.526  14.235
56940W        W28469  39.030  39.499   4.592
56941W        W28470   5.968   7.651  12.387
56942W        W28471   4.823  12.838   2.693
56943W        W28472  14.336  13.810  13.128
56944W        W28473  21.394  42.953   2.437
56945W        W28474   9.848   8.608  11.099
56946W        W28475  32.879  20.035  14.445
56947W        W28476  13.568  43.166   1.882
56948W        W28477  36.381  41.342   9.937
56949W        W28478  31.356  17.653   3.569
56950W        W28479  13.129  17.367  10.957
56951W        W28480   0.507  17.384   4.211
56952W        W28481  32.472  44.836   1.882
56953W        W28482  34.482   1.119   2.909
56954W        W28483  30.625   9.144  14.531
56955W        W28484  37.882  10.428   1.717
56956W        W28485  17.584   4.235  11.956
56957W        W28486  27.502  35.802   1.835
56958W        W28487  20.581  32.259  13.434
56959W        W28488  25.507  33.119   4.097
56960W        W28489  18.566   4.919   3.103
56961W        W28490  20.996  14.346  12.446
56962W        W28491  34.109  14.572   0.287
56963W        W28492   5.403  20.496  13.426
56964W        W28493  24.708   4.742   4.525
56965W        W28494  15.431  30.544   0.906
56966W        W28495  37.505  14.659  14.322
56967W        W28496   5.252  16.169   2.837
56968W        W28497  30.877  36.708   0.968
56969W        W28498  27.839  14.046  10.734
56970W        W28499  21.955  13.208  10.669
56971W        W28500  41.253  43.566  12.053
56972W        W28501  40.789   1.038   0.124
56973W        W28502  29.090  26.302   1.945
56974W        W28503  40.773  10.799   4.264
56975W        W28504  23.142  30.725   2.146
56976W        W28505  29.557  36.098   3.560
56977W        W28506  42.841   5.087   2.724
56978W        W28507  32.218   0.397   9.853
56979W        W28508  31.174  10.799   2.685
56980W        W28509   1.769   6.124  11.042
56981W        W28510  34.119  12.886   1.058
56982W        W28511  24.276  30.052  12.603
56983W        W28512  16.188  31.354  14.316
56984W        W28513  26.304  11.630   4.864
56985W        W28514  10.146  14.301  14.592
56986W        W28515   6.836  26.331   2.716
56987W        W28516  30.533  11.366   4.816
56988W        W28517  39.910   3.883   3.541
56989W        W28518  29.891   7.695   0.988
56990W        W28519  31.127  33.376  13.806
56991W        W28520  24.441  41.129  11.417
56992W        W28521   0.500   4.099  11.440
56993W        W28522  33.905  43.764  11.415
56994W        W28523   0.552   1.456  14.478
56995W        W28524  14.532   3.549   0.746
56996W        W28525  22.039  14.320  11.140
56997W        W28526  18.068  33.804  10.617
56998W        W28527   7.404  25.145  12.492
56999W        W28528   2.472   8.780   3.837
57000W        W28529   6.186  41.079  10.558
57001W        W28530  32.197  34.146  13.000
57002W        W28531   3.467  16.170  11.533
57003W        W28532  18.611  22.562  13.287
57004W        W28533  18.007  16.431  11.992
57005W        W28534   8.174  13.758   1.350
57006W        W28535   5.431  30.080  12.695
57007W        W28536   8.830  40.125   1.843
57008W        W28537  43.539  31.097  11.217
57009W        W28538  24.667  22.809   0.098
57010W        W28539  22.594  20.353   1.753
57011W        W28540   3.951   9.282  14.049
57012W        W28541   7.545   3.366   1.282
57013W        W28542  35.238  27.908   4.116
57014W        W28543   2.475  25.086  14.415
57015W        W28544   1.028  21.482  13.981
57016W        W28545  38.526  14.637   0.742
57017W        W28546  23.475   5.419   2.176
57018W        W28547  14.957  26.970  12.154
57019W        W28548   2.917   7.645  13.035
57020W        W28549   5.812   7.363   0.097
57021W        W28550  41.761  15.826   0.241
57022W        W28551  31.940  35.709   1.919
57023W        W28552  12.758  34.847  14.804
57024W        W28553   0.532   9.296  14.057
57025W        W28554   2.791  35.155  11.093
57026W        W28555  21.406  10.778   0.825
57027W        W28556   5.356   0.476  13.783
57028W        W28557  40.207  23.605   4.023
57029W        W28558  40.478  37.895   2.674
57030W        W28559   6.374  19.315  12.200
57031W        W28560  28.603  42.564  14.741
57032W        W28561  37.938  18.502  12.039
57033W        W28562  20.783  10.357  12.622
57034W        W28563  16.452  26.120  12.854
57035W        W28564  20.157  30.834  11.474
57036W        W28565  37.914   2.855   4.817
57037W        W28566  41.303  33.207  12.411
57038W        W28567  37.425   9.885  14.007
57039W        W28568  22.359  42.635   2.203
57040W        W28569  43.378  13.904   2.559
57041W        W28570  37.059  30.365   3.215
57042W        W28571  29.009  17.998  12.865
57043W        W28572   9.321  28.568   0.174
57044W        W28573   7.654  33.388   2.663
57045W        W28574  23.103  25.986  13.109
57046W        W28575   2.027  22.164   0.495
57047W        W28576  17.755  13.628  13.679
57048W        W28577  34.008   9.596   3.811
57049W        W28578  42.554  11.675  12.478
57050W        W28579  25.579  32.045   1.719
57051W        W28580  43.500  34.421  11.252
57052W        W28581  24.537  28.933   0.984
57053W        W28582  35.273  39.056  14.796
57054W        W28583  40.586  40.023  11.265
57055W        W28584  33.876  37.143  12.820
57056W        W28585  14.345  34.912   3.250
57057W        W28586  12.201  21.027   0.429
57058W        W28587  19.000   0.637   0.327
57059W        W28588  16.264  23.053   1.651
57060W        W28589  33.584  44.226  14.808
57061W        W28590   9.525  16.304  12.417
57062W        W28591  13.778   3.645  14.506
57063W        W28592  39.116  30.454   4.624
57064W        W28593   8.259  37.303   1.519
57065W        W28594  17.147  12.173   0.884
57066W        W28595  23.572   1.318  11.667
57067W        W28596  23.499  27.665   0.514
57068W        W28597  36.031  17.051   0.737
57069W        W28598  41.958  22.983   2.325
57070W        W28599  16.167  19.033   3.336
57071W        W28600  13.135  15.322  10.484
57072W        W28601  38.846  31.120   4.230
57073W        W28602  22.277   6.635   0.309
57074W        W28603  40.204  17.183  13.934
57075W        W28604   3.849  36.560   3.605
57076W        W28605  39.524  32.144  12.078
57077W        W28606  40.283  15.349   2.596
57078W        W28607  20.681  16.109   0.308
57079W        W28608   6.777  35.627   2.754
57080W        W28609   5.738  31.406   3.190
57081W        W28610   4.994  40.556  13.053
57082W        W28611  14.556  21.646   2.641
57083W        W28612  26.856  15.437  10.007
57084W        W28613   1.803  16.267   3.713
57085W        W28614  27.055  17.546   0.324
57086W        W28615   2.153   1.903  14.294
57087W        W28616  32.965  21.889  14.236
57088W        W28617  20.377   5.306   0.791
57089W        W28618  11.904  30.645   3.785
57090W        W28619  30.590  13.813   2.411
57091W        W28620  38.833  43.033   0.335
57092W        W28621  13.156  26.164   1.566
57093W        W28622  33.124  37.865  14.553
57094W        W28623  43.129  24.597   2.707
57095W        W28624  17.845  20.260   1.383
57096W        W28625  17.065  24.550   1.757
57097W        W28626   2.206  20.546   0.530
57098W        W28627  24.145  39.070  12.502
57099W        W28628   3.189  42.844   2.181
57100W        W28629  29.295   4.387   2.703
57101W        W28630  13.711  25.709   2.536
57102W        W28631  33.342  34.539  10.635
57103W        W28632   4.703  42.303  12.511
57104W        W28633  33.606  23.144  10.130
57105W        W28634  29.185  16.154   4.749
57106W        W28635  42.831  40.080  13.063
57107W        W28636  18.370   4.080   3.378
57108W        W28637   5.007  42.068  12.987
57109W        W28638  19.507  23.534   1.023
57110W        W28639   9.709  29.602   0.752
57111W        W28640  41.439  38.562   4.600
57112W        W28641  43.773  44.351  12.866
57113W        W28642  44.302  40.863   2.766
57114W        W28643   9.295  32.978  11.883
57115W        W28644  30.204  35.897  12.840
57116W        W28645  14.036  19.407   1.803
57117W        W28646  32.602  15.021  13.917
57118W        W28647   6.066  15.662  10.256
57119W        W28648  32.023  43.245  13.940
57120W        W28649  40.285  12.482  11.181
57121W        W28650  16.527   4.804  10.599
57122W        W28651  19.799  23.211   0.735
57123W        W28652  37.408  14.517  10.954
57124W        W28653  40.026  15.783  12.697
57125W        W28654  42.441   0.956   2.927
57126W        W28655  43.111  28.807  14.792
57127W        W28656  16.918   3.836   1.588
57128W        W28657  18.622  17.514   3.188
57129W        W28658  43.140   3.913  13.861
57130W        W28659  34.334   9.639  11.102
57131W        W28660  19.794   2.317   0.024
57132W        W28661  26.458   1.991   2.383
57133W        W28662  16.713   5.002  11.068
57134W        W28663  42.929  12.213   0.765
57135W        W28664  10.086   3.993   3.877
57136W        W28665  20.718  19.827   3.666
57137W        W28666  28.452  13.606   2.246
57138W        W28667  42.200  20.174   3.104
57139W        W28668  25.572  23.329  14.484
57140W        W28669  34.985   5.863  13.461
57141W        W28670   8.688   1.268   4.043
57142W        W28671  29.105  43.285   2.382
57143W        W28672  11.471  40.337  11.964
57144W        W28673   6.307  17.973   0.234
57145W        W28674   2.302  15.184   0.912
57146W        W28675  30.610  15.861   3.687
57147W        W28676  31.345   6.035   3.846
57148W        W28677   2.051  37.390  14.447
57149W        W28678  24.479  40.774   0.715
57150W        W28679  42.952  26.666  11.428
57151W        W28680   4.956   7.314   1.747
57152W        W28681  31.233  29.121   2.225
57153W        W28682  40.965  27.576   3.893
57154W        W28683   2.896   1.232   2.238
57155W        W28684  24.575   2.921   1.714
57156W        W28685  17.099  19.142  14.325
57157W        W28686  40.419  10.688  14.459
57158W        W28687  35.130  35.849   4.614
57159W        W28688  18.048  36.492  12.785
57160W        W28689  42.729  19.560   1.614
57161W        W28690   4.879  41.479  11.031
57162W        W28691  32.416  15.371  13.544
57163W        W28692  39.755  40.747  14.362
57164W        W28693  32.682  15.532  10.748
57165W        W28694  41.641  20.187   1.194
57166W        W28695   7.202  39.037  12.873
57167W        W28696  43.977  15.534  12.332
57168W        W28697  10.831  39.081   1.755
57169W        W28698   2.212  44.420  11.453
57170W        W28699  18.980   3.217  14.890
57171W        W28700  18.084  30.758   4.579
57172W        W28701  36.107   1.352  14.830
57173W        W28702  40.886  17.304   4.666
57174W        W28703  25.869  25.233   1.524
57175W        W28704   6.626  26.612  11.100
57176W        W28705  35.909   6.710   0.470
57177W        W28706  26.562  15.184   3.119
57178W        W28707  21.570  20.730   4.028
57179W        W28708  29.108  43.929  11.888
57180W        W28709  43.553   2.106   2.692
57181W        W28710  23.740  30.562  12.910
57182W        W28711  14.095  11.801   4.238
57183W        W28712  10.761  34.106   4.100
57184W        W28713  20.666  13.139   2.217
57185W        W28714  10.663   0.285   4.179
57186W        W28715  11.675  13.852   2.752
57187W        W28716  30.763  19.820  12.369
57188W        W28717  14.287  19.653   2.209
57189W        W28718  27.380   4.628   1.294
57190W        W28719  31.873  13.336  13.165
57191W        W28720  17.118   1.811  11.693
57192W        W28721  33.512  27.407  13.343
57193W        W28722   7.916  34.295   2.912
57194W        W28723  10.136  41.383  10.730
57195W        W28724  36.943   7.625  13.050
57196W        W28725  31.860  13.249  10.207
57197W        W28726  10.710  40.009  11.148
57198W        W28727  20.703  15.843   1.286
57199W        W28728  11.590  30.033   3.692
57200W        W28729   9.412  41.621  14.795
57201W        W28730  37.003  12.106   0.831
57202W        W28731  29.666  40.899   4.709
57203W        W28732  20.070  42.781  10.644
57204W        W28733  20.723   8.895  12.278
57205W        W28734  39.531  42.481  14.901
57206W        W28735  21.036   5.875   3.353
57207W        W28736  39.600  20.086   1.276
57208W        W28737  37.044   1.951  12.003
57209W        W28738  17.854  13.900   0.242
57210W        W28739  39.859  18.806  11.670
57211W        W28740  18.034  19.531  13.124
57212W        W28741  31.191  27.063  13.481
57213W        W28742  37.929  37.131   0.202
57214W        W28743  12.827  14.689  13.342
57215W        W28744  18.283  32.984  14.853
57216W        W28745  40.262  13.508   0.239
57217W        W28746  21.110  24.591  14.865
57218W        W28747  14.311  19.580  11.135
57219W        W28748   2.865  34.486  11.830
57220W        W28749  30.409  32.994   1.327
57221W        W28750  25.164   8.137  10.784
57222W        W28751  12.381  17.467   1.231
57223W        W28752  10.384  30.905   0.729
57224W        W28753  39.056  35.395  11.677
57225W        W28754  24.269  44.903  10.582
57226W        W28755  16.359  18.960   9.741
57227W        W28756  42.543   6.546  13.772
57228W        W28757  26.104   7.238  11.954
57229W        W28758   6.722   5.435  11.805
57230W        W28759  16.911  35.982  13.967
57231W        W28760   9.680  34.380   0.312
57232W        W28761  40.826   8.427   4.478
57233W        W28762  29.399  27.959  12.011
57234W        W28763  22.180  11.190  12.457
57235W        W28764   2.032  21.550   1.811
57236W        W28765  30.066  25.992   2.594
57237W        W28766  26.572  24.669   1.355
57238W        W28767  18.773  44.217   4.133
57239W        W28768  41.233  21.699   2.289
57240W        W28769   3.325  31.899  10.499
57241W        W28770  11.208  20.148   2.674
57242W        W28771   3.026  28.705   0.298
57243W        W28772  31.474  35.659  11.636
57244W        W28773   9.206  26.951   2.623
57245W        W28774  34.612  14.694   0.464
57246W        W28775  17.092  27.357   3.552
57247W        W28776  10.845  32.809   2.380
57248W        W28777  10.953  44.958   0.042
57249W        W28778  26.206  29.509  10.843
57250W        W28779  29.618  31.028  10.929
57251W        W28780  29.200   9.796  14.819
57252W        W28781  30.108   5.197   4.392
57253W        W28782  18.413  31.230   2.881
57254W        W28783  44.211   5.699   4.892
57255W        W28784   0.249  41.398   4.664
57256W        W28785  44.318  29.620   5.101
57257W        W28786  13.354  33.408   1.208
57258W        W28787  31.422  32.158   2.682
57259W        W28788  32.895  14.500  12.576
57260W        W28789  30.214  39.878  10.701
57261W        W28790  13.280  34.412  11.975
57262W        W28791  23.921  17.210  12.900
57263W        W28792   0.966   8.547   1.768
57264W        W28793  36.416  12.314   4.105
57265W        W28794  19.070  15.587  13.877
57266W        W28795  40.288  13.716  10.839
57267W        W28796   3.434   5.233   3.989
57268W        W28797   4.194  42.786  10.519
57269W        W28798  28.279  12.996  13.233
57270W        W28799   5.508  35.596   0.994
57271W        W28800  24.139  34.543   1.006
57272W        W28801  24.640  16.583  13.010
57273W        W28802  10.212  13.053  13.016
57274W        W28803  37.021  15.223   0.476
57275W        W28804  16.533  21.669   3.521
57276W        W28805  21.132   8.369   1.202
57277W        W28806  24.037  24.528  12.237
57278W        W28807  31.473  20.066  11.479
57279W        W28808  26.957  17.028   2.640
57280W        W28809  44.603  42.518   0.849
57281W        W28810   3.251  15.843   9.799
57282W        W28811  13.799  34.428   0.838
57283W        W28812   0.976  42.775  11.693
57284W        W28813  12.890   4.814   1.922
57285W        W28814  26.135  34.898   3.574
57286W        W28815  33.259  12.969  11.183
57287W        W28816  22.475   7.334   3.832
57288W        W28817  40.891  36.302  11.153
57289W        W28818  24.735  12.151   1.829
57290W        W28819  32.596   1.062  12.434
57291W        W28820  24.135  44.739   0.783
57292W        W28821   2.721  20.627  14.715
57293W        W28822  28.036  24.666   0.549
57294W        W28823  28.857  39.878   2.123
57295W        W28824   2.607  18.797  14.641
57296W        W28825  44.635  36.004   1.431
57297W        W28826  16.037  36.049   4.244
57298W        W28827   1.283  28.692  14.535
57299W        W28828   0.997  16.044   0.780
57300W        W28829  20.793  29.971  13.379
57301W        W28830  21.156  31.150   0.566
57302W        W28831  36.977  33.398  12.421
57303W        W28832  10.122   7.270  10.535
57304W        W28833  27.567   1.385   0.715
57305W        W28834  19.163  30.343   1.129
57306W        W28835  20.382  13.060  14.027
57307W        W28836   6.713  40.017   2.612
57308W        W28837   8.680   0.779  13.057
57309W        W28838   6.176   4.658  12.343
57310W        W28839  44.242  42.141   0.855
57311W        W28840  32.351  30.729  14.827
57312W        W28841  34.910  39.182  11.041
57313W        W28842  41.981  23.387   3.177
57314W        W28843   4.700  43.038   3.610
57315W        W28844   6.465   7.142   1.295
57316W        W28845  27.791  28.210  13.428
57317W        W28846   9.091  37.040   2.287
57318W        W28847  28.412  42.766   2.767
57319W        W28848  30.542  44.628  12.210
57320W        W28849  23.712  14.220   3.189
57321W        W28850  13.278  22.996   2.182
57322W        W28851  29.087   8.186   0.976
57323W        W28852  13.186  19.875  10.325
57324W        W28853  38.868   3.259   4.021
57325W        W28854  38.010  13.616   4.619
57326W        W28855  21.048   7.217   0.220
57327W        W28856  28.720  12.323   2.815
57328W        W28857  32.119  17.264  11.736
57329W        W28858  39.490  44.479   2.829
57330W        W28859  22.237  32.037   5.152
57331W        W28860  14.050  39.405   0.709
57332W        W28861   3.462  11.380   3.262
57333W        W28862  35.594  30.058   0.294
57334W        W28863  36.574  42.480  11.386
57335W        W28864   1.167  12.166  13.166
57336W        W28865  14.181  42.315   0.884
57337W        W28866  35.745   4.695  12.594
57338W        W28867  36.014  17.141  11.070
57339W        W28868  12.947  11.474  12.073
57340W        W28869  36.358  32.022  12.475
57341W        W28870  17.693  22.119  13.975
57342W        W28871  24.983  39.475   1.811
57343W        W28872  31.591  27.652  11.486
57344W        W28873  33.640   6.637   0.942
57345W        W28874  39.151  22.914  10.935
57346W        W28875  20.221  22.809   1.906
57347W        W28876  20.625  12.579  14.022
57348W        W28877  19.051  41.712  13.865
57349W        W28878  30.467  17.002  14.758
57350W        W28879  35.391  24.074  14.723
57351W        W28880  35.446   0.657  12.153
57352W        W28881  33.592  42.839   4.153
57353W        W28882   4.153  42.016  11.079
57354W        W28883  23.658   5.587  13.496
57355W        W28884  39.965  32.264  11.319
57356W        W28885  35.081  21.094  11.752
57357W        W28886  29.453  32.981   1.831
57358W        W28887   5.036  40.866   2.638
57359W        W28888   2.923   5.381   3.685
57360W        W28889  29.366   8.710  10.718
57361W        W28890  11.576  26.726   4.254
57362W        W28891  32.110  35.613  10.250
57363W        W28892  35.975  19.239   4.636
57364W        W28893  40.774  37.072  10.518
57365W        W28894  17.286  38.488   0.214
57366W        W28895   7.737  24.712   0.871
57367W        W28896  17.347  26.206  11.606
57368W        W28897  16.157  18.554  14.384
57369W        W28898  16.641  39.407   4.604
57370W        W28899  28.117  42.584   5.000
57371W        W28900  40.297  11.288   4.553
57372W        W28901  23.069  37.582  12.345
57373W        W28902   3.811  23.678   2.334
57374W        W28903   6.181  25.556  12.469
57375W        W28904  43.296   2.295   1.871
57376W        W28905   3.506  16.981  12.980
57377W        W28906  12.267  22.790  13.360
57378W        W28907  37.015  29.680  14.882
57379W        W28908  22.572  18.591   4.938
57380W        W28909   8.180  42.461   4.617
57381W        W28910  38.058   3.543  12.410
57382W        W28911  33.567  18.105  10.127
57383W        W28912   0.785   8.239   0.502
57384W        W28913  20.659   7.206   4.653
57385W        W28914  14.258  11.644  14.294
57386W        W28915  10.725  17.365  12.072
57387W        W28916  38.089  42.909   4.213
57388W        W28917  31.956  33.961   5.002
57389W        W28918  33.839  27.143  11.129
57390W        W28919   9.874  23.584  13.553
57391W        W28920  25.695   9.977  13.263
57392W        W28921  38.752  38.241  14.246
57393W        W28922  42.918   4.765  11.352
57394W        W28923  17.652  43.786  12.504
57395W        W28924  10.697   3.229   3.113
57396W        W28925  37.388  37.635  10.629
57397W        W28926  39.181   5.778  10.285
57398W        W28927  10.248  17.744   0.835
57399W        W28928   9.504  26.334   3.226
57400W        W28929   7.764  18.861  11.585
57401W        W28930   0.807  21.147   3.690
57402W        W28931  30.612  41.070   4.336
57403W        W28932  27.053   6.196   0.921
57404W        W28933  26.031  40.034  12.986
57405W        W28934  42.879  39.044   1.836
57406W        W28935   5.371  31.214   1.857
57407W        W28936  26.002  23.533   3.617
57408W        W28937  40.078  42.835   3.861
57409W        W28938   8.208  30.161   1.947
57410W        W28939   2.007   1.732  13.431
57411W        W28940  20.449  32.040  12.219
57412W        W28941   8.182  15.137   2.122
57413W        W28942  20.637  13.843   3.071
57414W        W28943   0.535   6.180  14.123
57415W        W28944  25.914  41.145   2.722
57416W        W28945   4.870  28.845   4.728
57417W        W28946  24.644  14.706  14.974
57418W        W28947  39.807  29.585   3.739
57419W        W28948   1.506   9.020   2.947
57420W        W28949  24.903  40.866   3.603
57421W        W28950  25.371  37.499   1.415
57422W        W28951   0.615  18.053  14.060
57423W        W28952  31.569  41.569   4.445
57424W        W28953  21.182  38.102   4.554
57425W        W28954  37.586  21.126  11.983
57426W        W28955  27.516  17.767   0.338
57427W        W28956  44.846  19.696   3.656
57428W        W28957  15.197   3.145   1.216
57429W        W28958   6.227  24.427  11.567
57430W        W28959  37.257  16.559   2.922
57431W        W28960  22.980   9.327   1.031
57432W        W28961  41.877   5.311  11.676
57433W        W28962   0.896   2.423  13.452
57434W        W28963  20.763   6.877  14.888
57435W        W28964  32.929   8.455  14.076
57436W        W28965  38.356  31.608   0.521
57437W        W28966  17.751  38.278  11.619
57438W        W28967  14.304   0.541   4.277
57439W        W28968  16.582  19.276   3.608
57440W        W28969  18.069   1.193   1.609
57441W        W28970   3.028  42.384   2.363
57442W        W28971  36.055   3.171  10.519
57443W        W28972   5.087  37.303  12.880
57444W        W28973  24.749  36.120  13.488
57445W        W28974  40.894  33.851   1.875
57446W        W28975  22.653  19.251   3.210
57447W        W28976   7.094  18.617  13.303
57448W        W28977  29.333   9.729  12.552
57449W        W28978  24.110  41.171   0.773
57450W        W28979  13.683  42.408   4.193
57451W        W28980  13.534  10.667  14.581
57452W        W28981  38.827  15.629   3.719
57453W        W28982  29.085  21.057  14.960
57454W        W28983  37.460  31.689  12.554
57455W        W28984   4.685  33.515   0.744
57456W        W28985  33.191  10.695  14.493
57457W        W28986   9.650  38.434   0.330
57458W        W28987  14.778  33.853  11.021
57459W        W28988  39.483  26.540  13.812
57460W        W28989   6.434   4.969  11.073
57461W        W28990   1.385  33.839   4.066
57462W        W28991  17.674  30.678  12.884
57463W        W28992   7.949  22.799  13.755
57464W        W28993  37.081  10.127   0.327
57465W        W28994   5.112  26.200   4.649
57466W        W28995  44.962  44.734  11.950
57467W        W28996  27.706   4.476   9.786
57468W        W28997  34.379  19.164  12.109
57469W        W28998  25.564  11.641  14.231
57470W        W28999   3.304  25.773  13.439
57471W        W29000  14.400  32.509   0.077
57472W        W29001  27.655  26.741  11.101
57473W        W29002  44.451  33.130   0.173
57474W        W29003   9.291  16.769  10.406
57475W        W29004  26.406  18.541  13.078
57476W        W29005   2.772  32.616   3.844
57477W        W29006  23.672  38.997   1.875
57478W        W29007  10.111   7.431  14.313
57479W        W29008  18.843  31.594   4.088
57480W        W29009  18.472  22.272   1.983
57481W        W29010   4.447  24.225   4.192
57482W        W29011  28.888  27.857   2.524
57483W        W29012   5.058  24.042   3.292
57484W        W29013  23.774  37.583   0.530
57485W        W29014  41.436   3.529  14.116
57486W        W29015  31.584  44.934  12.113
57487W        W29016  43.945   2.089  12.002
57488W        W29017   9.709  12.273   2.363
57489W        W29018   7.106   9.952  13.569
57490W        W29019  14.375   7.671  13.876
57491W        W29020  23.733   6.884  14.905
57492W        W29021  20.814  11.543  11.096
57493W        W29022  37.319   6.184  11.620
57494W        W29023  34.777   7.293  11.607
57495W        W29024  16.152  15.575  12.558
57496W        W29025  31.065  12.809  13.484
57497W        W29026  38.058  27.452   4.085
57498W        W29027   7.989  42.771  14.102
57499W        W29028  25.008  29.935   4.116
57500W        W29029   2.731  41.931  12.495
57501W        W29030  40.888  34.665   4.505
57502W        W29031  18.993  37.611  14.492
57503W        W29032  10.579  38.384   3.187
57504W        W29033  25.065  33.175   1.224
57505W        W29034  27.875  35.995   0.291
57506W        W29035  13.271  22.543   2.460
57507W        W29036  37.580  41.084  12.985
57508W        W29037  24.571  29.641  13.279
57509W        W29038  43.937  44.049   3.320
57510W        W29039  39.953  34.685  11.266
57511W        W29040  36.478  32.279  13.640
57512W        W29041  26.734  12.176   0.737
57513W        W29042   0.700  16.537  13.923
57514W        W29043  40.265   6.833  12.790
57515W        W29044  12.038  29.099  14.951
57516W        W29045  44.484   6.886  11.816
57517W        W29046  16.450   4.511  13.489
57518W        W29047  26.764   3.221   0.274
57519W        W29048  39.378  13.077   0.530
57520W        W29049  12.226  19.003  10.402
57521W        W29050  22.452  13.215   0.052
57522W        W29051   1.240  25.943   4.474
57523W        W29052  28.482  26.646   4.190
57524W        W29053   7.654   7.259  12.090
57525W        W29054  13.805   0.314  13.297
57526W        W29055  26.962  41.303   0.247
57527W        W29056  10.664  21.929   4.633
57528W        W29057  22.105  27.876  10.652
57529W        W29058  21.594  33.133  12.843
57530W        W29059   7.085  15.180  11.630
57531W        W29060   8.416  41.609   0.916
57532W        W29061  16.562  41.474   0.364
57533W        W29062  27.169  36.443   3.163
57534W        W29063  31.694   1.140   1.249
57535W        W29064  15.337  19.398  13.637
57536W        W29065  38.840   5.264  11.106
57537W        W29066  22.204   6.906   0.987
57538W        W29067  31.179   4.650  10.883
57539W        W29068   3.896  32.864   2.394
57540W        W29069  11.788  24.686   0.951
57541W        W29070  10.978   8.744   3.782
57542W        W29071  43.427  32.479  12.911
57543W        W29072  26.128  25.106   5.078
57544W        W29073  14.181  31.648  10.682
57545W        W29074  41.988  25.015   5.135
57546W        W29075  22.701  23.329  10.560
57547W        W29076  33.931  38.233  13.513
57548W        W29077   2.370  14.196   0.813
57549W        W29078  23.981  38.655  10.989
57550W        W29079   4.685  30.607   4.117
57551W        W29080  26.391  14.229   1.737
57552W        W29081  17.785  42.949   2.632
57553W        W29082  12.670  10.660   4.153
57554W        W29083   7.571  18.776  13.359
57555W        W29084  28.660  19.668   3.103
57556W        W29085  30.235  22.572   0.495
57557W        W29086  25.155  35.501  12.633
57558W        W29087   2.419  28.033  10.025
57559W        W29088  33.336  25.512   2.317
57560W        W29089  44.985  20.998  12.457
57561W        W29090  39.120  16.132  11.193
57562W        W29091  19.226   0.500   1.209
57563W        W29092  41.492   3.733  11.112
57564W        W29093   1.862  39.112   2.572
57565W        W29094  35.073  15.516  12.657
57566W        W29095  43.747  20.566   2.413
57567W        W29096  28.465  19.250  11.441
57568W        W29097  12.344  22.099  12.152
57569W        W29098  43.799  36.408  13.377
57570W        W29099  10.531  43.684   4.085
57571W        W29100  41.617   7.756  14.359
57572W        W29101  19.799  10.119   4.562
57573W        W29102  31.973   3.395  14.309
57574W        W29103  24.674  13.796   0.040
57575W        W29104   7.843   6.306   3.119
57576W        W29105  39.315  40.605  13.431
57577W        W29106  44.539  44.399  13.354
57578W        W29107  22.412  17.064  13.874
57579W        W29108   9.397   2.226  11.489
57580W        W29109  23.130  34.167  14.904
57581W        W29110  40.564   9.633  12.913
57582W        W29111  18.504  29.623  12.857
57583W        W29112  37.817   3.072  12.403
57584W        W29113  36.707  19.492  12.617
57585W        W29114  22.763   2.210  11.173
57586W        W29115  16.680  20.316  12.367
57587W        W29116  37.449  16.068   1.179
57588W        W29117  33.965  23.291  11.583
57589W        W29118  29.950   4.853   3.588
57590W        W29119  21.301   8.800   0.951
57591W        W29120  28.319  24.161  11.061
57592W        W29121  22.541  33.650   3.749
57593W        W29122  21.177  22.607  11.031
57594W        W29123  10.568   7.439   1.214
57595W        W29124   5.828  13.124  12.952
57596W        W29125  11.753  23.436   1.805
57597W        W29126  35.126  11.995  12.498
57598W        W29127  10.992  14.219  14.814
57599W        W29128  19.219  20.046   5.586
57600W        W29129  27.044  33.001  11.908
57601W        W29130  18.322   5.819   4.100
57602W        W29131  37.820  34.946  13.981
57603W        W29132  30.629  10.391  11.035
57604W        W29133  11.864  26.486   4.606
57605W        W29134  19.990  30.571  12.897
57606W        W29135  15.294  14.307  13.908
57607W        W29136  26.107  17.340  12.497
57608W        W29137   6.008   5.912   1.291
57609W        W29138  33.581  32.185  12.098
57610W        W29139  10.612  20.226  10.890
57611W        W29140  44.248  43.566  13.889
57612W        W29141  41.090  14.619  13.316
57613W        W29142  13.212  41.615   5.225
57614W        W29143  40.504  39.456   0.007
57615W        W29144   0.004  39.785   1.711
57616W        W29145  40.184  11.959  11.142
57617W        W29146  43.746  44.819  14.799
57618W        W29147  16.251  10.416   1.686
57619W        W29148  41.496  24.908   0.446
57620W        W29149   7.362   2.364  13.136
57621W        W29150  36.420  19.788   2.244
57622W        W29151   1.917  36.403  10.233
57623W        W29152  31.261  28.984  12.526
57624W        W29153   9.983  42.551  12.395
57625W        W29154   8.993   1.982   2.357
57626W        W29155  11.888  39.901  13.330
57627W        W29156  11.229  17.586   3.606
57628W        W29157  12.498  27.656  14.891
57629W        W29158  27.426  32.483  14.446
57630W        W29159   0.415  25.898   4.464
57631W        W29160  18.789  36.849  13.206
57632W        W29161  38.030   6.162   9.938
57633W        W29162   7.818  18.995   4.071
57634W        W29163  23.929   5.038  11.753
57635W        W29164  37.543  16.482   1.947
57636W        W29165  41.890  26.924  12.896
57637W        W29166  43.882  16.923  11.388
57638W        W29167  22.972  10.357   4.186
57639W        W29168  30.973  11.646  13.017
57640W        W29169  32.866   1.099  14.914
57641W        W29170  29.507  20.807  12.029
57642W        W29171  14.176  18.943  13.769
57643W        W29172  22.688  43.184   3.306
57644W        W29173  20.429  32.732  13.613
57645W        W29174  30.109  40.596  13.761
57646W        W29175  20.919   5.201  10.082
57647W        W29176  33.202  33.600  11.392
57648W        W29177   2.215  37.818  11.708
57649W        W29178  21.035   0.669  14.503
57650W        W29179   9.188  36.539   3.288
57651W        W29180   4.394   3.752   4.415
57652W        W29181  26.737  12.937  11.593
57653W        W29182   0.240  11.746   3.718
57654W        W29183   3.748  23.619  14.966
57655W        W29184  19.566  17.441   3.852
57656W        W29185   4.363  36.826   1.988
57657W        W29186  39.209   1.734  13.333
57658W        W29187  32.690  33.098  12.510
57659W        W29188  20.949   5.960   2.374
57660W        W29189  17.521   8.603  12.622
57661W        W29190  17.401   1.167  13.079
57662W        W29191  24.698  30.024  10.497
57663W        W29192  43.968  34.384  14.489
57664W        W29193  28.144  17.081   3.303
57665W        W29194  24.461  38.313  13.814
57666W        W29195  24.013  39.607   1.178
57667W        W29196  15.678   5.249   2.269
57668W        W29197  24.747  43.460   0.297
57669W        W29198  24.244  43.330   4.639
57670W        W29199  26.938  39.899   4.161
57671W        W29200  24.791  21.477   2.735
57672W        W29201  31.925  34.570  12.049
57673W        W29202   3.826  30.754  13.832
57674W        W29203  44.858  22.690  10.857
57675W        W29204  14.152   1.018   4.067
57676W        W29205  44.441   1.747  13.944
57677W        W29206  30.532  42.416  11.057
57678W        W29207   5.919   3.288  13.936
57679W        W29208   1.455   9.607   3.240
57680W        W29209   4.728  26.716  12.974
57681W        W29210  37.161  13.866  11.522
57682W        W29211  39.272  36.620   1.720
57683W        W29212   6.309  21.205   3.661
57684W        W29213  27.424  17.066  12.143
57685W        W29214  39.798   9.741  10.785
57686W        W29215   7.330  19.593  11.438
57687W        W29216   0.852  31.272  13.503
57688W        W29217  29.825  32.964  14.650
57689W        W29218  38.545  15.168   2.947
57690W        W29219  33.598  30.489   4.145
57691W        W29220   2.111   5.768   0.477
57692W        W29221   6.929  34.941   4.118
57693W        W29222  37.639  29.359  13.062
57694W        W29223  40.372   0.969   3.241
57695W        W29224   7.073  36.025  11.688
57696W        W29225  27.082   9.387  14.269
57697W        W29226  36.308  37.802  14.821
57698W        W29227  20.332  28.259   3.587
57699W        W29228  15.973  21.602   1.248
57700W        W29229  14.726  11.395   4.535
57701W        W29230  37.072  19.815  13.945
57702W        W29231  14.642  22.055   4.549
57703W        W29232   9.170  32.902   1.300
57704W        W29233  38.297  17.568   4.479
57705W        W29234  31.011  26.037   2.784
57706W        W29235   0.576  24.179   1.686
57707W        W29236  38.439  23.592  11.229
57708W        W29237  42.948  28.422   0.951
57709W        W29238  33.622   2.438   0.192
57710W        W29239  42.812  31.629  13.236
57711W        W29240  19.293   7.112  15.000
57712W        W29241  24.643  35.215  11.449
57713W        W29242  29.199  43.633  12.305
57714W        W29243  18.028  23.509   0.376
57715W        W29244  12.265  25.015  10.619
57716W        W29245   2.821  39.965  11.919
57717W        W29246  33.952   3.402  12.407
57718W        W29247  42.500  37.527  12.865
57719W        W29248   4.384  24.796  14.296
57720W        W29249   3.510  28.536   2.294
57721W        W29250  41.041  41.064   2.417
57722W        W29251  24.187  28.786  14.267
57723W        W29252  39.391  12.540  11.522
57724W        W29253  20.268   2.125  12.478
57725W        W29254  13.149  37.067   3.639
57726W        W29255  39.590  43.982   3.307
57727W        W29256  39.849  27.761   3.645
57728W        W29257   6.393   0.838   3.612
57729W        W29258   9.135  17.166  11.568
57730W        W29259  44.956  38.315  12.029
57731W        W29260  36.570  44.482  10.293
57732W        W29261  23.722  38.821  13.455
57733W        W29262   4.335  14.469   3.321
57734W        W29263  18.697   1.152  10.246
57735W        W29264  37.344  39.976   1.723
57736W        W29265  40.695  13.660  10.527
57737W        W29266  43.506  19.555  11.032
57738W        W29267   5.315  32.686   0.757
57739W        W29268   5.716  41.937   3.929
57740W        W29269  16.069  26.963   1.250
57741W        W29270  20.408  21.066  10.697
57742W        W29271  23.926   2.749   1.084
57743W        W29272   9.838   1.417  14.812
57744W        W29273  21.906  25.700   3.725
57745W        W29274  41.480  39.985  11.839
57746W        W29275   6.561   5.254   2.823
57747W        W29276  32.474  39.372  12.937
57748W        W29277  11.116  40.773  11.090
57749W        W29278  41.240  43.310  10.645
57750W        W29279  20.747  36.607  11.940
57751W        W29280  29.543  43.064   2.244
57752W        W29281  41.538  13.024   2.642
57753W        W29282   0.893  44.503  12.013
57754W        W29283  43.797  17.646   3.936
57755W        W29284   8.778  32.755  10.694
57756W        W29285  31.779   3.330   4.453
57757W        W29286  32.523  39.857   4.377
57758W        W29287  34.823  23.431  10.752
57759W        W29288   0.736   2.479   3.611
57760W        W29289  44.220  19.691  10.246
57761W        W29290  17.721  29.357  12.462
57762W        W29291  43.266   3.711   1.112
57763W        W29292  36.369  37.966  13.254
57764W        W29293  17.008  35.867   4.286
57765W        W29294   3.096  36.479  14.249
57766W        W29295   8.813  35.943  13.618
57767W        W29296  21.915  41.879   0.619
57768W        W29297  32.174  10.898  12.847
57769W        W29298   2.337   0.906   2.326
57770W        W29299   4.487   9.801  14.275
57771W        W29300  33.611  10.146  11.163
57772W        W29301   5.304   6.401   0.911
57773W        W29302  25.667  25.723  13.885
57774W        W29303  14.522  36.149   4.366
57775W        W29304   0.428  21.219  14.457
57776W        W29305   3.184   5.168  14.006
57777W        W29306  11.185   3.312   2.867
57778W        W29307  43.011  13.251   0.713
57779W        W29308   6.642  12.058   3.976
57780W        W29309  15.218  17.864  13.980
57781W        W29310  36.098  15.235   3.745
57782W        W29311  35.602  32.093   2.814
57783W        W29312  17.833  16.653   4.084
57784W        W29313  23.786  30.267  14.554
57785W        W29314  21.280  10.633  11.175
57786W        W29315  12.870  36.957   3.211
57787W        W29316  34.106  18.362   0.339
57788W        W29317  32.448  43.107  12.013
57789W        W29318   7.783   2.281  10.932
57790W        W29319  27.725  22.374   3.830
57791W        W29320  32.467   7.324   0.335
57792W        W29321  42.035   9.302  14.728
57793W        W29322   5.854  17.393  14.744
57794W        W29323  24.114  21.515   3.798
57795W        W29324  17.369  10.656   0.829
57796W        W29325  26.072  23.981  11.159
57797W        W29326  12.820  22.736   2.250
57798W        W29327   5.754   5.895   0.318
57799W        W29328  24.281  44.984  12.171
57800W        W29329  34.421  42.155  13.634
57801W        W29330   2.461  41.822  12.081
57802W        W29331   0.789  42.410   2.306
57803W        W29332  34.941  26.711  12.178
57804W        W29333   3.919  34.093   3.482
57805W        W29334  44.768  14.782  11.367
57806W        W29335  14.214  11.169  13.984
57807W        W29336  33.686  15.548   4.556
57808W        W29337  29.265  25.557  10.709
57809W        W29338   3.018  40.519  11.726
57810W        W29339  30.961  44.353   4.108
57811W        W29340  33.103  30.468  11.972
57812W        W29341  17.366  14.801  12.971
57813W        W29342   1.867  14.375  12.858
57814W        W29343   2.865  21.228   4.962
57815W        W29344  26.442  35.000   0.890
57816W        W29345  20.129   1.902   3.181
57817W        W29346   7.435  40.898   3.245
57818W        W29347  19.040  22.874   0.349
57819W        W29348  29.956   5.684   4.159
57820W        W29349  34.899  41.185  11.112
57821W        W29350   3.285  21.430   0.192
57822W        W29351  16.701   3.828   4.565
57823W        W29352   3.040  30.615  10.809
57824W        W29353  14.517  15.780   4.263
57825W        W29354  13.278  21.486  14.577
57826W        W29355  36.723  21.285   3.198
57827W        W29356   4.505  26.414   0.373
57828W        W29357  43.469  44.690   4.562
57829W        W29358   2.072  12.448   2.256
57830W        W29359  22.724  36.931   0.490
57831W        W29360  11.162  40.480   3.125
57832W        W29361   6.179  30.924  13.096
57833W        W29362  43.498  42.388  11.447
57834W        W29363  27.944  32.654   0.157
57835W        W29364  22.241   5.311  13.010
57836W        W29365   7.953  37.825   1.060
57837W        W29366  22.139  18.728   3.692
57838W        W29367   0.343  17.022  13.742
57839W        W29368  37.082   2.995   1.870
57840W        W29369   1.311  29.717  11.534
57841W        W29370  10.706  24.935   2.680
57842W        W29371   2.906   1.988  13.426
57843W        W29372  26.468  32.563   0.396
57844W        W29373   8.898   3.904   0.003
57845W        W29374  20.597  38.517   1.188
57846W        W29375  28.213  41.085   2.005
57847W        W29376  37.353  19.548  12.011
57848W        W29377   5.638  14.639  12.287
57849W        W29378  14.361  17.060  10.678
57850W        W29379  18.445  22.028  14.375
57851W        W29380  38.188  35.054   2.439
57852W        W29381  27.456  16.278  11.156
57853W        W29382  42.799  30.657   3.394
57854W        W29383  32.890  27.184   2.149
57855W        W29384  34.829   7.772  13.310
57856W        W29385  22.757  12.976  12.420
57857W        W29386  32.119  28.267  12.408
57858W        W29387  33.573  32.275  10.790
57859W        W29388   1.762  38.472  13.008
57860W        W29389  25.094   9.745   0.067
57861W        W29390   9.304  11.234  10.607
57862W        W29391   1.962   5.905   2.251
57863W        W29392  31.683   3.152  11.273
57864W        W29393  42.389  31.151   4.979
57865W        W29394  31.562   7.395  11.014
57866W        W29395  39.664  22.046  11.492
57867W        W29396  37.102  26.614  12.466
57868W        W29397  39.878  20.575  14.425
57869W        W29398  42.355  39.936  12.381
57870W        W29399  33.336  19.474  13.723
57871W        W29400  38.820  43.647   3.192
57872W        W29401  18.130  13.327   3.910
57873W        W29402  11.734   5.377  14.550
57874W        W29403  12.320  34.528  10.629
57875W        W29404  42.333  25.014  12.539
57876W        W29405  30.264  22.604   3.852
57877W        W29406  23.292  22.183   0.031
57878W        W29407  41.116  31.585  11.477
57879W        W29408  33.565  37.361  11.145
57880W        W29409  31.611  19.834   1.685
57881W        W29410  36.928  39.571   4.631
57882W        W29411  26.253  39.053  13.348
57883W        W29412  43.350  11.274   0.937
57884W        W29413  43.718  31.051  14.254
57885W        W29414   8.796  31.776   0.247
57886W        W29415  32.458  13.860   1.875
57887W        W29416  12.885   3.991   0.373
57888W        W29417   2.249  30.391   1.408
57889W        W29418  19.516  19.315  13.772
57890W        W29419  21.325  18.218  14.490
57891W        W29420  25.082  29.219   4.562
57892W        W29421  42.598  28.737   1.172
57893W        W29422  30.098  30.999  11.123
57894W        W29423  11.215  30.797   2.044
57895W        W29424   7.367  14.661   1.816
57896W        W29425  33.028  42.964   1.696
57897W        W29426  13.590  31.545   1.650
57898W        W29427  19.714  26.420   2.839
57899W        W29428  24.616  38.027   0.034
57900W        W29429  27.956   2.481   3.476
57901W        W29430  17.700  26.088  13.491
57902W        W29431  13.340  10.684  10.857
57903W        W29432   5.153   3.767  13.381
57904W        W29433   0.085  15.650  14.750
57905W        W29434  19.006   2.060  11.111
57906W        W29435  43.916  20.095  10.884
57907W        W29436   0.792  21.524  10.282
57908W        W29437  12.595  31.968   1.845
57909W        W29438   1.707  21.978   3.861
57910W        W29439  31.054  15.660   1.598
57911W        W29440   3.753   5.062   0.807
57912W        W29441  36.332  20.621   1.805
57913W        W29442  18.073  23.300  11.676
57914W        W29443  21.542  27.065  10.702
57915W        W29444  39.347  14.349   0.585
57916W        W29445   1.547  35.756   4.595
57917W        W29446   3.458   4.725  12.556
57918W        W29447  28.007  26.639   0.485
57919W        W29448  24.114  44.704   4.197
57920W        W29449  16.923   4.869   4.913
57921W        W29450   1.223  22.131  10.633
57922W        W29451  38.478  38.434  12.776
57923W        W29452   0.885  28.885   4.871
57924W        W29453  26.113  29.176  14.548
57925W        W29454  13.089   4.158   4.556
57926W        W29455  27.954  16.559   3.547
57927W        W29456  18.725  22.505   2.769
57928W        W29457  37.373  41.578   0.420
57929W        W29458  32.180  35.069   4.024
57930W        W29459   4.748  40.482  14.426
57931W        W29460  16.228  23.175   2.152
57932W        W29461  32.050  28.994   2.794
57933W        W29462  13.384  12.680  14.356
57934W        W29463  15.982  11.700   4.329
57935W        W29464   1.100  43.243   1.424
57936W        W29465  34.493   7.643   0.046
57937W        W29466  10.336  12.227  11.482
57938W        W29467  35.576  37.908   2.839
57939W        W29468  30.632  27.609  13.850
57940W        W29469  43.248  33.707  12.371
57941W        W29470  20.503  38.984   1.430
57942W        W29471  12.279  36.689   4.623
57943W        W29472  36.774  29.942  12.390
57944W        W29473  21.217  26.916   0.386
57945W        W29474  28.426   6.390   4.316
57946W        W29475   6.250  10.298  12.924
57947W        W29476  11.729  19.478   1.862
57948W        W29477  40.114  40.285   3.779
57949W        W29478  25.033  42.762   2.851
57950W        W29479  35.788  37.063  13.038
57951W        W29480   4.553  42.349   1.439
57952W        W29481  30.937   1.747  14.077
57953W        W29482  21.682  28.102  11.474
57954W        W29483   1.483   3.858   2.814
57955W        W29484  34.645   8.475   3.241
57956W        W29485  22.170  44.909   2.073
57957W        W29486   5.952  20.760  11.342
57958W        W29487   3.347   8.287  14.265
57959W        W29488  39.903  19.192   2.625
57960W        W29489   0.960  21.691  10.738
57961W        W29490  24.071  23.917  10.987
57962W        W29491   8.189   9.378  12.893
57963W        W29492  41.543  40.517   2.307
57964W        W29493  34.099  35.326  11.665
57965W        W29494  16.160   5.918  11.370
57966W        W29495   8.816  10.430   5.265
57967W        W29496  41.009  26.699   1.694
57968W        W29497   1.461  20.795  11.945
57969W        W29498  27.441  42.040   0.318
57970W        W29499  15.419  22.525  11.269
57971W        W29500  42.551  22.778  11.895
57972W        W29501  16.608   1.393   4.210
57973W        W29502   8.638  29.518  13.897
57974W        W29503  22.967  37.284   2.264
57975W        W29504  35.456  14.710  11.969
57976W        W29505  40.686  19.998   0.907
57977W        W29506  26.964  13.088   4.232
57978W        W29507   8.150   0.739  13.116
57979W        W29508  38.926  12.622  11.746
57980W        W29509  14.504   2.454   4.882
57981W        W29510  39.496  12.588  12.834
57982W        W29511  25.432  23.169   4.655
57983W        W29512  42.560  30.084  13.868
57984W        W29513  14.235  36.924  14.788
57985W        W29514  10.322   5.339   2.711
57986W        W29515  28.114  42.779   0.366
57987W        W29516  32.301  15.138   0.342
57988W        W29517  16.057  44.767  11.619
57989W        W29518  26.248  13.617   1.379
57990W        W29519  12.361  41.503   3.136
57991W        W29520  40.508  14.765   1.484
57992W        W29521  16.202  37.308  13.962
57993W        W29522  25.575  19.267   4.657
57994W        W29523   7.837  21.499  11.950
57995W        W29524  37.950   9.764   4.011
57996W        W29525   8.074  34.071  14.150
57997W        W29526  19.178  12.089   3.183
57998W        W29527  33.800  32.727  13.494
57999W        W29528  33.292  41.577  10.206
58000W        W29529   2.364   1.990  12.514
58001W        W29530   2.717  16.308  14.225
58002W        W29531   3.979  41.596  10.260
58003W        W29532  15.587   1.036  13.989
58004W        W29533  20.181  11.381   2.961
58005W        W29534  21.497  42.380  13.464
58006W        W29535  26.377   3.855   3.823
58007W        W29536  43.289   7.847   1.832
58008W        W29537  22.689  24.664   1.329
58009W        W29538  14.658  33.643  10.541
58010W        W29539  33.501   9.293   4.695
58011W        W29540  24.571   2.311  10.747
58012W        W29541  17.312  40.022  11.550
58013W        W29542   0.480   8.751  10.727
58014W        W29543   4.189  10.864  10.411
58015W        W29544  12.145  31.893   0.235
58016W        W29545  40.582   3.334   0.924
58017W        W29546  31.591  17.793  10.341
58018W        W29547  42.489  30.363   4.245
58019W        W29548  25.868  43.004  10.744
58020W        W29549  43.998  39.977  13.324
58021W        W29550  19.634   2.957   0.697
58022W        W29551  23.602   6.426   3.317
58023W        W29552  12.447  16.631   4.736
58024W        W29553  27.630  15.077  11.620
58025W        W29554  31.212  41.394  11.062
58026W        W29555  31.450   5.660   1.362
58027W        W29556   3.075   7.386  14.318
58028W        W29557   9.226  35.094  12.089
58029W        W29558  11.638  11.128   4.468
58030W        W29559   7.121  41.621  14.400
58031W        W29560  38.971  10.698  13.606
58032W        W29561  39.356   0.293   4.796
58033W        W29562  13.669  43.584   1.141
58034W        W29563  13.712   7.663  11.889
58035W        W29564  29.064  25.142  14.038
58036W        W29565  25.775  27.400   0.995
58037W        W29566  25.446  13.084  12.034
58038W        W29567  41.572  18.569   1.418
58039W        W29568  12.292  34.351   3.401
58040W        W29569  32.614  39.553   0.797
58041W        W29570  13.763  15.830  12.943
58042W        W29571   2.748  26.052  12.332
58043W        W29572   5.762  36.113   4.674
58044W        W29573  10.424   6.686  12.763
58045W        W29574   0.540  21.319  12.595
58046W        W29575   9.125  44.835  13.787
58047W        W29576  34.924  34.357   1.930
58048W        W29577  41.658  15.275   3.771
58049W        W29578  25.661   2.319   2.374
58050W        W29579  21.269  11.291  12.398
58051W        W29580  22.521  15.589  11.172
58052W        W29581  36.269  40.845  13.410
58053W        W29582  34.165  32.912   4.056
58054W        W29583  25.097  12.528  11.382
58055W        W29584   0.037  16.666   0.066
58056W        W29585  25.205  43.688  11.648
58057W        W29586  17.306  21.531  12.751
58058W        W29587   2.671  16.702  12.597
58059W        W29588  18.182  44.506   4.581
58060W        W29589  40.623  44.284  13.838
58061W        W29590  21.255  24.599   2.400
58062W        W29591   0.840  44.241  10.722
58063W        W29592  24.495  23.235   2.682
58064W        W29593  11.167  29.493   0.348
58065W        W29594   9.743  42.700   0.224
58066W        W29595  28.367   5.433   3.515
58067W        W29596  23.545  28.107   0.226
58068W        W29597   5.017  34.640   3.607
58069W        W29598  18.535  41.878   2.917
58070W        W29599  44.462  43.228   3.184
58071W        W29600  19.590  39.397  13.458
58072W        W29601   1.015  20.127  13.954
58073W        W29602  19.472  12.559  13.353
58074W        W29603  19.669  20.487   4.325
58075W        W29604  22.794  31.733  14.508
58076W        W29605  17.733  30.423  13.319
58077W        W29606  22.524   8.334  13.745
58078W        W29607  21.234  20.599   1.874
58079W        W29608   3.738  34.497  13.782
58080W        W29609  23.214  44.358  14.528
58081W        W29610  15.145  18.209  11.146
58082W        W29611  37.407   3.602  13.450
58083W        W29612   9.405  26.637  14.483
58084W        W29613  15.652  34.625  11.475
58085W        W29614  20.064   5.111   1.266
58086W        W29615  36.309  15.733   4.498
58087W        W29616   3.293  13.235   1.330
58088W        W29617  30.893   8.050  14.395
58089W        W29618   2.445  11.186  13.341
58090W        W29619  27.133  26.619   2.614
58091W        W29620  33.045  21.474   0.652
58092W        W29621   8.532   3.997  14.289
58093W        W29622  15.090  20.023  11.093
58094W        W29623   8.776   2.404   4.584
58095W        W29624  24.764  10.620   4.257
58096W        W29625   7.671  40.537  11.531
58097W        W29626  14.919  32.500   0.220
58098W        W29627  21.064  20.753  11.472
58099W        W29628  24.247  27.115  13.482
58100W        W29629  33.331  13.427   4.537
58101W        W29630  39.819   9.477   1.154
58102W        W29631  33.335   0.295   3.294
58103W        W29632  23.523  40.283   1.635
58104W        W29633  19.461  43.244   4.935
58105W        W29634  12.207  21.009  12.331
58106W        W29635   8.847  19.853   0.971
58107W        W29636  25.550  10.187   2.628
58108W        W29637  29.530  19.361   3.096
58109W        W29638  18.711  42.555  10.568
58110W        W29639   6.323  21.289   2.660
58111W        W29640  26.646   0.272  13.523
58112W        W29641   3.262  21.709   1.433
58113W        W29642  17.725   7.607  13.393
58114W        W29643  15.342  26.152  13.866
58115W        W29644  23.188  25.956  10.664
58116W        W29645  27.229  32.650   0.084
58117W        W29646  15.675   3.645  14.949
58118W        W29647  44.357  35.791   4.634
58119W        W29648   5.199  23.168  12.079
58120W        W29649  27.415  30.436  10.615
58121W        W29650  37.952  23.743   1.819
58122W        W29651  31.200  11.827   0.482
58123W        W29652   9.761   4.973   4.973
58124W        W29653   4.825  15.153  10.407
58125W        W29654  20.296   9.273   0.185
58126W        W29655  20.771  16.154  10.599
58127W        W29656   7.552  25.949   0.520
58128W        W29657   3.849  33.197   3.336
58129W        W29658  19.068  44.768   2.812
58130W        W29659  31.161  15.146  13.895
58131W        W29660  28.721  20.120  11.955
58132W        W29661  28.440   9.914   2.259
58133W        W29662  42.085  32.525   3.223
58134W        W29663  43.507  10.063  10.737
58135W        W29664  40.634  41.670   4.928
58136W        W29665   7.855  20.611  12.529
58137W        W29666  28.760  41.802  14.912
58138W        W29667  36.628  14.240   0.818
58139W        W29668  20.061  13.963   1.929
58140W        W29669   8.972   0.965  13.932
58141W        W29670  30.517   5.253   4.714
58142W        W29671  37.889  27.033   4.879
58143W        W29672   6.689   5.740   4.639
58144W        W29673  16.053  27.796   0.810
58145W        W29674  25.766  30.486  11.464
58146W        W29675  43.874  34.770   2.025
58147W        W29676  10.168   7.752   1.008
58148W        W29677   0.117  34.645  12.040
58149W        W29678  28.279  39.086  12.474
58150W        W29679   0.227   6.839   0.237
58151W        W29680  26.088  38.328  12.425
58152W        W29681  24.103  21.589  11.900
58153W        W29682  13.529  34.419   3.088
58154W        W29683  35.686  34.079  14.933
58155W        W29684  41.917  25.973  10.684
58156W        W29685  15.792  27.118   9.870
58157W        W29686  25.455  21.317  14.365
58158W        W29687  29.542  43.583   2.358
58159W        W29688  21.059   2.852  11.189
58160W        W29689   0.201   6.385  14.571
58161W        W29690  12.732  37.627  14.386
58162W        W29691  43.476  24.569   0.762
58163W        W29692  20.727  34.075  14.391
58164W        W29693  38.078  32.760  13.403
58165W        W29694  27.552  18.839   3.332
58166W        W29695  23.927  43.058  10.220
58167W        W29696  12.767  15.818  11.416
58168W        W29697  21.853  34.570   4.024
58169W        W29698  20.631  16.599   0.493
58170W        W29699   2.541   9.980  12.535
58171W        W29700  31.415  10.567   0.718
58172W        W29701  31.921   8.285  13.487
58173W        W29702  24.114  21.002  12.471
58174W        W29703   3.286  32.194  14.472
58175W        W29704   8.281   0.667  10.231
58176W        W29705   5.055  29.933  13.095
58177W        W29706   5.808  44.718   1.764
58178W        W29707   7.048  25.452   2.749
58179W        W29708  34.949  40.310  12.425
58180W        W29709  43.125  34.640   4.203
58181W        W29710  13.110  28.540  13.771
58182W        W29711  21.263   8.500   1.839
58183W        W29712   5.904  41.818   1.802
58184W        W29713  25.660  38.746  10.768
58185W        W29714  35.449   1.492  14.469
58186W        W29715   4.434  26.128  10.760
58187W        W29716  10.580  44.214  14.456
58188W        W29717   6.301  14.145  12.374
58189W        W29718  42.274  10.712  11.554
58190W        W29719   5.284  33.752  11.887
58191W        W29720  21.752  37.536   0.185
58192W        W29721  33.564  41.983  13.029
58193W        W29722  42.139  32.962   2.616
58194W        W29723  42.168  11.459  10.375
58195W        W29724  40.587   3.481   3.364
58196W        W29725  44.035  23.090   0.942
58197W        W29726  25.018  28.972   0.640
58198W        W29727  10.876  13.606   0.430
58199W        W29728  23.011  22.280  13.595
58200W        W29729  33.188  13.590   1.837
58201W        W29730  26.456  31.504   2.854
58202W        W29731   5.880  28.379  14.562
58203W        W29732   7.225  31.955  14.881
58204W        W29733  28.387  40.361  14.414
58205W        W29734  19.519  14.623   3.722
58206W        W29735  32.863  44.382   2.548
58207W        W29736  32.505  31.087   4.410
58208W        W29737  40.018  34.930  14.945
58209W        W29738  30.960  36.357  10.673
58210W        W29739  14.289   6.165  11.602
58211W        W29740  37.792  37.820   4.250
58212W        W29741   7.897  13.945   4.633
58213W        W29742  20.934  32.490  11.160
58214W        W29743  12.132   6.241   2.291
58215W        W29744  22.170  40.412   3.235
58216W        W29745  25.968  17.776   2.209
58217W        W29746  40.059  12.626  10.707
58218W        W29747  15.262  43.545   1.223
58219W        W29748   2.930   9.664   3.684
58220W        W29749  20.470  15.569  14.834
58221W        W29750   9.942  36.149  11.348
58222W        W29751  16.020   1.927   2.195
58223W        W29752  35.744  15.180  13.408
58224W        W29753  32.333  19.516  11.494
58225W        W29754  44.397   7.655  14.377
58226W        W29755  43.944   7.864   3.865
58227W        W29756   5.629  18.599  13.602
58228W        W29757   7.331  15.867   4.695
58229W        W29758  28.212  26.217   3.296
58230W        W29759   0.278   0.082  12.150
58231W        W29760  41.104  22.166   1.226
58232W        W29761  26.098  35.966  14.613
58233W        W29762  34.840  36.333  14.831
58234W        W29763  28.451  37.294   2.868
58235W        W29764   0.730   5.318  12.388
58236W        W29765  33.138   8.266   1.889
58237W        W29766   8.207  39.923   3.044
58238W        W29767   0.473  39.814   1.959
58239W        W29768  20.770  38.579   0.705
58240W        W29769   1.955  43.326  14.938
58241W        W29770  37.888  10.325  12.665
58242W        W29771  21.002  26.752  11.382
58243W        W29772  18.981  12.423  12.094
58244W        W29773  10.420  33.120  13.451
58245W        W29774  36.070  33.402   0.281
58246W        W29775  29.337   5.980   2.313
58247W        W29776  39.113   5.372  12.642
58248W        W29777  43.152   9.188   0.199
58249W        W29778  22.447  31.479   2.920
58250W        W29779  39.293  35.613  12.059
58251W        W29780   8.045  16.759  12.126
58252W        W29781  36.363  38.849  10.774
58253W        W29782  41.936  26.973  12.127
58254W        W29783  25.978  42.997  11.659
58255W        W29784  26.164  21.235   3.746
58256W        W29785  22.694  43.027   2.282
58257W        W29786  33.249   1.215  10.224
58258W        W29787  29.461  20.094   0.473
58259W        W29788  10.527  39.098   3.754
58260W        W29789  40.923  40.731   4.280
58261W        W29790  20.608  44.073  10.826
58262W        W29791  41.479  26.078  10.939
58263W        W29792  39.537  29.242   3.178
58264W        W29793  31.534  43.436  13.984
58265W        W29794  25.365  41.418  13.989
58266W        W29795  14.212  20.554  11.423
58267W        W29796  43.049   9.145  13.990
58268W        W29797  30.548  43.989   4.778
58269W        W29798   2.364  32.042   2.873
58270W        W29799   4.856  27.204  14.562
58271W        W29800  14.647  29.681   2.394
58272W        W29801  44.730  22.520   3.208
58273W        W29802  12.933  11.371   4.561
58274W        W29803  16.168  11.637   2.181
58275W        W29804  12.837  33.353  12.113
58276W        W29805  42.967  18.063   3.702
58277W        W29806  22.723  19.378   1.449
58278W        W29807  43.084  38.387  11.166
58279W        W29808  39.960  37.146   2.735
58280W        W29809  36.324  16.754   3.360
58281W        W29810  11.758  19.056  10.726
58282W        W29811  23.498  30.498  11.548
58283W        W29812  20.451  32.627  11.126
58284W        W29813  15.854  39.041  13.786
58285W        W29814  38.601  43.019  14.869
58286W        W29815  35.189  44.940   2.438
58287W        W29816  25.727  19.747  13.394
58288W        W29817  22.720  20.169  13.408
58289W        W29818   7.219  43.646  11.492
58290W        W29819  15.738  29.129   1.802
58291W        W29820  26.180  21.625   0.951
58292W        W29821  14.599  10.194  13.863
58293W        W29822  25.712  40.546   4.616
58294W        W29823  34.343  37.996   4.084
58295W        W29824  30.982  35.829  10.726
58296W        W29825  30.182   6.909  13.077
58297W        W29826   7.758  44.386   1.880
58298W        W29827   8.737  26.521  11.387
58299W        W29828  24.129  22.510   3.725
58300W        W29829  32.305   3.614  10.960
58301W        W29830  40.273  24.124  12.937
58302W        W29831  36.419  30.217  12.097
58303W        W29832  43.301   0.812  11.002
58304W        W29833   1.012  36.882  11.158
58305W        W29834   5.695  41.009   1.390
58306W        W29835  41.436  10.544   3.343
58307W        W29836  19.050  28.907  14.413
58308W        W29837  16.734  15.084   0.122
58309W        W29838  21.655  19.293   3.161
58310W        W29839  12.259   4.432   3.592
58311W        W29840   0.129  25.770   4.049
58312W        W29841  10.093  26.598   2.515
58313W        W29842  42.839   3.425   0.975
58314W        W29843  33.027   4.726   1.359
58315W        W29844  30.128  12.103   0.951
58316W        W29845   8.314  17.478  13.073
58317W        W29846  21.657   1.866  11.633
58318W        W29847  18.487   9.496   1.610
58319W        W29848  31.747  27.670   2.867
58320W        W29849  42.430   5.683  11.080
58321W        W29850  21.077  42.065   5.296
58322W        W29851   2.908  24.541  12.897
58323W        W29852  22.150  30.211  11.128
58324W        W29853  23.135  10.229  12.915
58325W        W29854  21.724   3.671  11.951
58326W        W29855  23.759  37.324  14.509
58327W        W29856  16.076  43.736   2.310
58328W        W29857  22.404  20.719   3.778
58329W        W29858   0.515  40.553   0.856
58330W        W29859  27.472   1.742  11.071
58331W        W29860  10.096  32.550  12.178
58332W        W29861  40.437  15.115   4.613
58333W        W29862  20.438  27.547   0.447
58334W        W29863  29.934  41.619  13.892
58335W        W29864   2.220  37.924   3.867
58336W        W29865   8.188  32.544   2.659
58337W        W29866  17.064   0.321   0.807
58338W        W29867  40.768   5.552   4.550
58339W        W29868  13.694   8.704   2.815
58340W        W29869  24.255  39.592  14.831
58341W        W29870   4.366  39.983  10.672
58342W        W29871   7.894   2.748  12.103
58343W        W29872  11.281   9.441  10.753
58344W        W29873  24.508  43.793   3.871
58345W        W29874  26.492   6.321  12.663
58346W        W29875  23.070  12.101  12.953
58347W        W29876  23.044  27.911  13.553
58348W        W29877   3.124   0.260  10.272
58349W        W29878  36.530  37.325   1.419
58350W        W29879  14.697   4.461  13.832
58351W        W29880  20.642  44.699  13.006
58352W        W29881  11.386  10.698   4.635
58353W        W29882  16.549  38.479   3.274
58354W        W29883  13.210  26.390  10.647
58355W        W29884  17.377  29.574   1.981
58356W        W29885  21.634  41.780  11.660
58357W        W29886   6.417   7.277   3.666
58358W        W29887   5.933  34.789   5.257
58359W        W29888  13.868  14.778  13.781
58360W        W29889  36.532  20.318   0.210
58361W        W29890  37.593   5.708   2.692
58362W        W29891  21.241  36.842  13.076
58363W        W29892  10.852  33.765  13.961
58364W        W29893   9.883   7.274   0.951
58365W        W29894  35.400  22.885   5.131
58366W        W29895  12.878  12.414   4.573
58367W        W29896  34.891  26.447  11.191
58368W        W29897  27.552  41.107  14.415
58369W        W29898  38.345  22.060  12.863
58370W        W29899  13.857   2.160   0.349
58371W        W29900   6.259   4.944  13.107
58372W        W29901  25.451   9.863   0.439
58373W        W29902  22.162  36.043   0.402
58374W        W29903  35.090  26.879  10.483
58375W        W29904   7.272  23.515   1.711
58376W        W29905  42.891   8.261   4.870
58377W        W29906  11.414  11.393  12.070
58378W        W29907  36.265  24.007  11.918
58379W        W29908  44.314  27.610  11.517
58380W        W29909   2.036  18.146   3.745
58381W        W29910  44.255  39.862  13.928
58382W        W29911   9.685  16.022   4.253
58383W        W29912  32.798   2.077  11.132
58384W        W29913  10.217  20.197   2.676
58385W        W29914  42.335  35.422   3.240
58386W        W29915   6.521  26.991   1.763
58387W        W29916  10.056  16.320   2.221
58388W        W29917  19.182   1.444  13.536
58389W        W29918  20.677   5.744   0.728
58390W        W29919  38.843  44.302   3.767
58391W        W29920  20.933  38.781   2.306
58392W        W29921  33.203  33.496   1.753
58393W        W29922  32.790   9.798   1.828
58394W        W29923   8.959  25.015   1.784
58395W        W29924  36.618   2.696   0.505
58396W        W29925   0.395   2.338  12.709
58397W        W29926  12.777  22.674   3.215
58398W        W29927  39.924  30.425  13.564
58399W        W29928  16.458  12.051  11.936
58400W        W29929   0.434  11.101  10.716
58401W        W29930  20.777  14.736  11.619
58402W        W29931  17.695  33.915  14.019
58403W        W29932   5.356  44.757   2.746
58404W        W29933  32.894  19.120  11.158
58405W        W29934  43.485  18.211  10.461
58406W        W29935  21.036  15.704  10.584
58407W        W29936  13.600  13.263  13.170
58408W        W29937  16.644  19.051   3.150
58409W        W29938  37.989   8.261  14.596
58410W        W29939  43.477  12.245  11.178
58411W        W29940  42.507  33.875   1.772
58412W        W29941  13.283   1.267  12.239
58413W        W29942  38.954  36.350  14.757
58414W        W29943  10.621   4.385   4.580
58415W        W29944   3.325   8.044   2.831
58416W        W29945  35.008  39.251  13.307
58417W        W29946   5.365  34.575  11.971
58418W        W29947  20.922  10.642   0.944
58419W        W29948  43.446   6.172  13.537
58420W        W29949  40.594   0.484  12.459
58421W        W29950   5.756  22.615   4.182
58422W        W29951  22.757   9.086   4.688
58423W        W29952   4.142  13.510   4.099
58424W        W29953  12.191  38.890  10.939
58425W        W29954  13.113  16.102  13.994
58426W        W29955   2.689  12.677   4.613
58427W        W29956  39.949  32.473   4.688
58428W        W29957   2.554  14.579   0.468
58429W        W29958  19.336   3.330  10.498
58430W        W29959   3.287  21.871  11.577
58431W        W29960  39.722  38.041   2.060
58432W        W29961  10.939  31.735   2.358
58433W        W29962  35.200  32.987  11.068
58434W        W29963  25.546  42.682  11.578
58435W        W29964  27.524  25.010  14.462
58436W        W29965  17.527  23.659  13.766
58437W        W29966   4.906  31.424   1.731
58438W        W29967  25.195  41.943   1.013
58439W        W29968   3.583  21.089   0.470
58440W        W29969  30.145   5.373   0.551
58441W        W29970  19.835  21.201  12.490
58442W        W29971  33.010  18.614  13.778
58443W        W29972  15.119  29.751   1.193
58444W        W29973  31.262   9.261   4.615
58445W        W29974   7.223  11.007  10.821
58446W        W29975  12.125  31.872  11.603
58447W        W29976  42.596   5.195   2.293
58448W        W29977  35.393  41.466  13.392
58449W        W29978  42.097  22.015  11.985
58450W        W29979  32.363  14.359  11.038
58451W        W29980  12.809   2.746   4.611
58452W        W29981  16.345   1.926   1.334
58453W        W29982  40.954   2.323   3.339
58454W        W29983  11.852  29.884   3.261
58455W        W29984  44.333  12.863   0.725
58456W        W29985  37.367   5.814  12.098
58457W        W29986  25.220   5.302   4.116
58458W        W29987  28.513  40.993  14.053
58459W        W29988  42.888  25.850  14.034
58460W        W29989   5.930   8.881  13.903
58461W        W29990  21.223  30.097   0.399
58462W        W29991  16.909   3.609   4.964
58463W        W29992  23.228  22.884   3.448
58464W        W29993  26.043  29.726   3.763
58465W        W29994   3.352  40.925  11.593
58466W        W29995  40.863  32.353  10.375
58467W        W29996  30.567  21.021   3.097
58468W        W29997  10.909  25.551   1.323
58469W        W29998  38.073  37.494   4.555
58470W        W29999  26.249  29.294   0.438
58471W        W30000  27.937  33.138  11.590
58472W        W30001  37.488  17.286  11.964
58473W        W30002   4.200  33.647   0.852
58474W        W30003  27.520  21.585   1.227
58475W        W30004  35.536  39.572  12.616
58476W        W30005  44.262  17.973   4.146
58477W        W30006   6.201   0.472   5.133
58478W        W30007   3.894  33.002   5.009
58479W        W30008  29.987   1.799   0.830
58480W        W30009   7.595  44.909   4.125
58481W        W30010  28.996  38.643   0.887
58482W        W30011  12.861  15.047   3.285
58483W        W30012  25.464  37.311   3.840
58484W        W30013  34.346   5.296   3.426
58485W        W30014  10.401  42.741   4.066
58486W        W30015  23.808  19.324   1.405
58487W        W30016   4.557  24.181   2.407
58488W        W30017  17.747   1.801   1.399
58489W        W30018  11.704  27.896   1.696
58490W        W30019  18.295  38.340   4.533
58491W        W30020  34.486  23.194   4.815
58492W        W30021  44.367  27.869   1.890
58493W        W30022   7.254  42.124  14.468
58494W        W30023  20.185  21.769   0.755
58495W        W30024  25.537  33.916   2.707
58496W        W30025  31.609  33.540   5.053
58497W        W30026  32.162  35.969  11.951
58498W        W30027  22.819   7.383   4.275
58499W        W30028   7.317  30.391  12.665
58500W        W30029   7.865  18.052   4.078
58501W        W30030  28.822  33.545   3.401
58502W        W30031  32.020  23.697   2.857
58503W        W30032   3.804  22.721   4.176
58504W        W30033  12.388  44.440   3.809
58505W        W30034  14.184  15.564  11.760
58506W        W30035  28.259   2.365   2.540
58507W        W30036   4.908   5.011  13.086
58508W        W30037  33.554   7.986   4.118
58509W        W30038  11.786  37.255   0.684
58510W        W30039  23.772   0.363   1.262
58511W        W30040  22.124  37.300   3.399
58512W        W30041  23.584  35.210  11.860
58513W        W30042  25.096  27.061  11.182
58514W        W30043  24.601   2.704  11.187
58515W        W30044  39.922  33.008   1.422
58516W        W30045  38.351  21.458   3.794
58517W        W30046  27.108  22.358  12.937
58518W        W30047  23.183  27.542  10.655
58519W        W30048  13.169  33.682  14.901
58520W        W30049  30.309  39.914   0.980
58521W        W30050   7.836  23.938   1.458
58522W        W30051  18.288  31.111  10.658
58523W        W30052  16.197  22.655   0.681
58524W        W30053  39.185  35.948  10.330
58525W        W30054  12.161  16.654  12.077
58526W        W30055   6.922  17.724   1.348
58527W        W30056  11.827  28.153  13.342
58528W        W30057   2.528  27.467   2.758
58529W        W30058   9.823   7.033   4.223
58530W        W30059  17.561  32.259  14.645
58531W        W30060   9.237   4.950   1.162
58532W        W30061   9.714  23.174   2.873
58533W        W30062  15.331  31.845  12.568
58534W        W30063  16.723  44.096   1.815
58535W        W30064  27.393   3.765  14.551
58536W        W30065  11.836  24.786   0.077
58537W        W30066  18.749  20.517  14.348
58538W        W30067  41.303  39.001  14.812
58539W        W30068  21.515   0.902   0.727
58540W        W30069  26.701  44.736  14.421
58541W        W30070  32.935   5.222   0.359
58542W        W30071   4.288  13.952   3.209
58543W        W30072  24.019  22.152   2.734
58544W        W30073  40.346  44.875   2.943
58545W        W30074  34.954   6.317  12.061
58546W        W30075   1.956   9.398  11.179
58547W        W30076  27.066  31.729  14.936
58548W        W30077  21.733  43.235   3.371
58549W        W30078  11.899  43.413  14.782
58550W        W30079  40.824  35.127   3.204
58551W        W30080  37.544  36.207   5.007
58552W        W30081  27.796  21.961  13.522
58553W        W30082   3.372  28.433   1.436
58554W        W30083  31.639  43.311  11.659
58555W        W30084  36.532  15.257  13.048
58556W        W30085  18.071  44.825   1.402
58557W        W30086   5.344  31.723   3.081
58558W        W30087  29.411  18.109  14.404
58559W        W30088  27.074  18.092   0.413
58560W        W30089  43.871  29.877   0.368
58561W        W30090  14.865  44.709   0.319
58562W        W30091  20.196   3.954   4.415
58563W        W30092  41.387  19.721   1.191
58564W        W30093  28.483  14.079   1.353
58565W        W30094   6.669  28.494  10.945
58566W        W30095  12.010  41.757  10.809
58567W        W30096  32.691  16.051   3.653
58568W        W30097   8.405  44.790  13.005
58569W        W30098  17.243  43.873  13.467
58570W        W30099  27.969  19.076  14.897
58571W        W30100  19.670   7.201   4.715
58572W        W30101  42.615  43.109  14.410
58573W        W30102   1.216  40.093   4.268
58574W        W30103  35.391  13.346  11.007
58575W        W30104   7.685  11.298  12.502
58576W        W30105  14.740   1.470  14.974
58577W        W30106   0.928  31.120   9.939
58578W        W30107  13.865   5.951   0.868
58579W        W30108  42.322   1.168  14.054
58580W        W30109  37.973  41.384  14.432
58581W        W30110  44.282  16.504  12.012
58582W        W30111   6.123  44.642  14.937
58583W        W30112  37.057   8.181   0.571
58584W        W30113  33.961   8.796   4.148
58585W        W30114  35.649  26.974   2.264
58586W        W30115  24.297  25.715   2.660
58587W        W30116  38.797  14.743   1.213
58588W        W30117  11.762  28.940   3.383
58589W        W30118  33.587  18.800  11.888
58590W        W30119  20.951  44.430   4.010
58591W        W30120   8.616  39.072  13.032
58592W        W30121  24.261   9.871   2.557
58593W        W30122  13.741  20.215  14.015
58594W        W30123   8.271   3.147  13.433
58595W        W30124   4.405  30.096  13.714
58596W        W30125  41.438  20.614  14.439
58597W        W30126  41.273   7.295   1.879
58598W        W30127   6.370   2.536  13.554
58599W        W30128  22.125   7.665  11.013
58600W        W30129  36.469  16.725   4.343
58601W        W30130  31.089  15.613  12.915
58602W        W30131  26.195   6.129  13.081
58603W        W30132  24.978  31.187   4.500
58604W        W30133  22.600  37.634   2.178
58605W        W30134  41.454  15.212  11.222
58606W        W30135  13.183  17.084  11.840
58607W        W30136   9.164  23.357  12.789
58608W        W30137  10.667  22.106   0.528
58609W        W30138  11.790   0.574   0.300
58610W        W30139   3.475  21.022   3.636
58611W        W30140   7.308  31.619   0.364
58612W        W30141   4.500  14.965   4.930
58613W        W30142  26.269  27.639  10.671
58614W        W30143  40.937  40.068   4.988
58615W        W30144  11.249  21.165   1.168
58616W        W30145  42.032   7.093  12.032
58617W        W30146  42.810   8.799  10.316
58618W        W30147  16.838  44.687  10.957
58619W        W30148  27.201  13.485   4.455
58620W        W30149  38.261  20.084   0.725
58621W        W30150  24.117   7.331   4.445
58622W        W30151  32.985   9.659  13.837
58623W        W30152  21.985  19.750  14.295
58624W        W30153  23.324  44.417   1.314
58625W        W30154  22.080  13.589  11.898
58626W        W30155  25.621  14.011   1.023
58627W        W30156  24.187   8.346   4.546
58628W        W30157   6.423  34.069  13.827
58629W        W30158  39.904  35.063  14.121
58630W        W30159   4.767  32.889  11.431
58631W        W30160  11.825  15.081  11.452
58632W        W30161  21.626  33.912   2.119
58633W        W30162   9.288   3.990   0.928
58634W        W30163   4.648   0.319   5.193
58635W        W30164   7.722  33.149   3.776
58636W        W30165  28.058  13.449  14.851
58637W        W30166   6.444  20.563  12.598
58638W        W30167  12.665   7.329  11.409
58639W        W30168  13.425  29.551   1.792
58640W        W30169   0.932  16.203   2.585
58641W        W30170  39.550  11.746   0.500
58642W        W30171  35.820  28.516  13.986
58643W        W30172  40.872   5.698   3.213
58644W        W30173   8.394  23.613   3.610
58645W        W30174  24.177  31.576   4.346
58646W        W30175  24.502  15.131   3.802
58647W        W30176  44.305   9.808  14.783
58648W        W30177   9.514   2.252   3.636
58649W        W30178  15.366  39.970  13.921
58650W        W30179   5.966  41.220   4.919
58651W        W30180   1.252   9.917   2.723
58652W        W30181  29.175  27.678   3.770
58653W        W30182  42.049  25.425   1.719
58654W        W30183  15.418   8.757   2.215
58655W        W30184  18.083  12.831   3.728
58656W        W30185   9.174  38.581   1.182
58657W        W30186   7.277  32.805   4.699
58658W        W30187  33.125  41.242  13.882
58659W        W30188   8.227  43.613  10.617
58660W        W30189  10.237  24.535   4.398
58661W        W30190  35.773   6.840   3.392
58662W        W30191   3.687  34.151  12.290
58663W        W30192  34.958   3.199   3.880
58664W        W30193   1.417  19.087   4.662
58665W        W30194  25.483  12.771   1.698
58666W        W30195  18.222   5.536  13.631
58667W        W30196   4.703  42.490  12.990
58668W        W30197  13.250   2.369   1.559
58669W        W30198  38.785   1.957  13.521
58670W        W30199  24.509  28.426  12.088
58671W        W30200  31.356  16.195  11.222
58672W        W30201  25.179  10.889   3.178
58673W        W30202   5.886   7.870   4.143
58674W        W30203   5.875  16.581  14.223
58675W        W30204  43.286  22.446   4.166
58676W        W30205  44.461  33.555  11.815
58677W        W30206  42.248  31.511  12.278
58678W        W30207  36.437  20.221   0.881
58679W        W30208  29.228  42.483  12.964
58680W        W30209  36.063   9.919  14.247
58681W        W30210  44.641  41.024  12.848
58682W        W30211  41.755  30.334  13.680
58683W        W30212   6.086  40.619  12.223
58684W        W30213  35.084  11.840  10.760
58685W        W30214   9.944  41.894  10.613
58686W        W30215  11.709  29.159   1.353
58687W        W30216  14.136  28.969   4.600
58688W        W30217   6.619  13.868  14.420
58689W        W30218  13.329  34.086  13.292
58690W        W30219  16.364  20.821  14.110
58691W        W30220  41.234   5.235   0.443
58692W        W30221  44.367  35.979  14.461
58693W        W30222  22.163   8.916   1.503
58694W        W30223   8.218   2.300  11.829
58695W        W30224   5.845   0.240   3.027
58696W        W30225  13.865  13.213  11.672
58697W        W30226  22.692  31.899  11.921
58698W        W30227   5.414   7.679   4.265
58699W        W30228  31.416   3.961  10.551
58700W        W30229   1.719  31.239  13.869
58701W        W30230  39.373  16.970  10.659
58702W        W30231  29.618  21.799   3.191
58703W        W30232  35.140   2.983  12.392
58704W        W30233   2.557  29.661  11.941
58705W        W30234  44.091  43.849  12.944
58706W        W30235  12.303  30.785  10.984
58707W        W30236  23.469   1.488   4.551
58708W        W30237  23.639   7.551   2.598
58709W        W30238  36.066  27.515   4.544
58710W        W30239  11.725   2.652  12.593
58711W        W30240  28.892  39.006  13.724
58712W        W30241   4.158  12.803   1.373
58713W        W30242   7.857  17.206  14.767
58714W        W30243  33.618  24.552   3.195
58715W        W30244  41.067  10.855   2.661
58716W        W30245  42.351  43.270   0.688
58717W        W30246   2.441  10.782   0.659
58718W        W30247  26.333   5.719   4.185
58719W        W30248   2.333   8.382  13.594
58720W        W30249   8.854  28.292   4.070
58721W        W30250  34.957  42.973   0.340
58722W        W30251  37.829  11.407   0.431
58723W        W30252  19.078  39.931  14.593
58724W        W30253  22.726  40.601  10.752
58725W        W30254  12.285  24.156   4.075
58726W        W30255   4.851  32.517   0.505
58727W        W30256  14.134  41.275   1.734
58728W        W30257  28.577  36.850  14.886
58729W        W30258  44.693  24.670   1.714
58730W        W30259  21.828  41.066   5.485
58731W        W30260  26.546  13.100  14.310
58732W        W30261  10.975  40.742   1.974
58733W        W30262  17.551  26.995  11.082
58734W        W30263  16.949  20.233   3.577
58735W        W30264  34.089   7.954   0.892
58736W        W30265   5.790  23.887   0.945
58737W        W30266  21.344  11.893  10.037
58738W        W30267   3.010   6.093  12.851
58739W        W30268  42.417  32.424   1.817
58740W        W30269  24.595  20.272  11.812
58741W        W30270  28.531   0.911  11.910
58742W        W30271   0.672  30.057  11.154
58743W        W30272  17.385   4.239   1.361
58744W        W30273  35.486  23.552   3.615
58745W        W30274   6.153  36.221   2.972
58746W        W30275   8.893  30.623  12.999
58747W        W30276   1.840  39.534   1.288
58748W        W30277  19.487  24.688   3.235
58749W        W30278  33.681  40.548   0.348
58750W        W30279  34.079  40.255   2.329
58751W        W30280   7.217   4.492   3.575
58752W        W30281  35.833  11.225  13.007
58753W        W30282   2.425  14.679   2.307
58754W        W30283  27.109  11.671   4.157
58755W        W30284   4.304  14.730  13.778
58756W        W30285  29.299  44.485  10.906
58757W        W30286  12.546  25.366  11.060
58758W        W30287  10.579   9.287   1.221
58759W        W30288   1.276  37.386  13.379
58760W        W30289  11.803   3.890  13.460
58761W        W30290  17.116  40.311  10.978
58762W        W30291   1.644  24.046   2.726
58763W        W30292  30.383   3.124   3.388
58764W        W30293  29.473  32.763  12.353
58765W        W30294   8.099  15.308   3.584
58766W        W30295  38.107   9.377   2.782
58767W        W30296  37.383  36.288  11.380
58768W        W30297  29.145   5.574  12.444
58769W        W30298  20.638  25.460  12.608
58770W        W30299  14.031  35.670  12.124
58771W        W30300  20.074  34.770  11.917
58772W        W30301  35.021  24.003   0.049
58773W        W30302  42.911  32.562   2.423
58774W        W30303  25.436   0.465  14.498
58775W        W30304  40.435  32.613   3.830
58776W        W30305  14.271   6.677   1.699
58777W        W30306  23.163   4.898   1.771
58778W        W30307  35.353  34.462  13.339
58779W        W30308  32.902  17.645  13.079
58780W        W30309  20.980   6.810   2.293
58781W        W30310  25.571   1.172   2.822
58782W        W30311  21.641  13.773   0.032
58783W        W30312  23.689   0.432  11.617
58784W        W30313  34.415   0.956  12.762
58785W        W30314  33.915  19.569   0.024
58786W        W30315  33.377  31.434   2.570
58787W        W30316  19.148   7.923  12.577
58788W        W30317  31.476  23.950  12.070
58789W        W30318  44.509  39.462  10.311
58790W        W30319  36.536  18.676  12.014
58791W        W30320  26.243  32.932  14.898
58792W        W30321  17.753  17.097   1.842
58793W        W30322   1.425   9.437  13.844
58794W        W30323  24.770   5.794   2.400
58795W        W30324  18.806  27.411  10.609
58796W        W30325  26.528  33.973  13.358
58797W        W30326   6.011  17.233   2.974
58798W        W30327  12.725  26.694   0.471
58799W        W30328   8.859  43.400   0.962
58800W        W30329   2.353   3.341   0.078
58801W        W30330  18.068  44.923   4.948
58802W        W30331  18.115  26.753  12.587
58803W        W30332  22.619   2.853   0.898
58804W        W30333  22.816  44.071   2.338
58805W        W30334  11.288  18.043  10.467
58806W        W30335  15.028  18.329  12.613
58807W        W30336  31.978  31.947   1.176
58808W        W30337  43.776   0.135  14.388
58809W        W30338   7.871  23.024   4.869
58810W        W30339  44.279  44.634  11.596
58811W        W30340   5.845  31.940   0.930
58812W        W30341  29.629  23.976   1.650
58813W        W30342  42.786  29.744   3.722
58814W        W30343  16.634  22.805   0.253
58815W        W30344  43.132  27.626  10.743
58816W        W30345  34.008  28.371  12.501
58817W        W30346  18.443  32.969   1.141
58818W        W30347   0.671  12.770  11.062
58819W        W30348  34.862  43.034   2.797
58820W        W30349  20.555  27.589  10.866
58821W        W30350  13.070  26.608   3.826
58822W        W30351  24.986  14.138   4.952
58823W        W30352  12.780  24.082   1.430
58824W        W30353  34.234  20.088  12.384
58825W        W30354   3.253  27.641  11.020
58826W        W30355  26.620  44.407  10.550
58827W        W30356   2.910   4.978   3.308
58828W        W30357  14.829  24.885  10.764
58829W        W30358  16.960  31.721   4.687
58830W        W30359  24.675  30.922   1.620
58831W        W30360  11.151  30.898  13.273
58832W        W30361   8.803  17.043   0.419
58833W        W30362   5.446  27.546  13.359
58834W        W30363  42.997  18.131  12.279
58835W        W30364  38.405  34.828  14.263
58836W        W30365  29.532  13.410   2.415
58837W        W30366  26.598  35.840  12.370
58838W        W30367  31.071   0.993  10.625
58839W        W30368  29.990   2.703  11.859
58840W        W30369  14.590  21.808  11.201
58841W        W30370  23.921  27.409   0.322
58842W        W30371  22.393  25.190  13.879
58843W        W30372  23.577  22.852  12.476
58844W        W30373   2.012  29.123  12.877
58845W        W30374  36.849  18.553  13.840
58846W        W30375  14.644  34.860  12.413
58847W        W30376  23.696  11.777   3.828
58848W        W30377  20.244  43.529   4.549
58849W        W30378   1.399  36.101  14.960
58850W        W30379  43.284  14.365   2.775
58851W        W30380  33.708  21.266   1.416
58852W        W30381   3.286  27.467   4.038
58853W        W30382  20.797   0.066   0.875
58854W        W30383  10.969  42.214   3.263
58855W        W30384  40.515   4.182  12.004
58856W        W30385   7.938  18.111   3.567
58857W        W30386  24.660  26.514   3.620
58858W        W30387  17.763  18.070   1.831
58859W        W30388  11.667   4.189   0.353
58860W        W30389  13.207   7.786   1.588
58861W        W30390  38.143  35.734  11.091
58862W        W30391  17.185  31.151  13.496
58863W        W30392   7.413   7.716  10.829
58864W        W30393  38.310  43.267  14.479
58865W        W30394  17.083  35.951   2.996
58866W        W30395   5.834   6.702  14.059
58867W        W30396  34.603   2.318   4.095
58868W        W30397  33.641  17.810   3.672
58869W        W30398  25.542   0.000   0.376
58870W        W30399   7.834   6.332   3.662
58871W        W30400   2.793  13.317  11.482
58872W        W30401  32.048  24.986  11.853
58873W        W30402  30.460  40.060  14.382
58874W        W30403  38.176   8.839   4.225
58875W        W30404   2.826  32.622  12.380
58876W        W30405  28.063  29.045   1.383
58877W        W30406  11.234  26.232   4.397
58878W        W30407  34.329  32.445   2.982
58879W        W30408   9.402  43.927  14.842
58880W        W30409  31.817   2.992   3.222
58881W        W30410  27.044  34.968  12.103
58882W        W30411  40.486  44.076   1.219
58883W        W30412   2.642  23.740   2.015
58884W        W30413  13.678  39.835   2.705
58885W        W30414   2.837   7.091   4.175
58886W        W30415   0.301  25.100  13.753
58887W        W30416  34.839  12.607   1.640
58888W        W30417  24.551   9.122  12.097
58889W        W30418  17.813  32.447   2.322
58890W        W30419  35.132  27.458   1.010
58891W        W30420  27.376  36.630   3.650
58892W        W30421  26.218  39.976   2.438
58893W        W30422  31.825   5.273  11.468
58894W        W30423  15.410   2.224  10.689
58895W        W30424   9.044  30.630  14.394
58896W        W30425  18.138   5.769   0.769
58897W        W30426  11.909  11.689  10.826
58898W        W30427  20.851   2.393   1.464
58899W        W30428  34.277   4.821   0.419
58900W        W30429  13.938  26.640  12.954
58901W        W30430  39.447  40.886   4.578
58902W        W30431  22.939  36.975   3.805
58903W        W30432  20.258  32.002  12.936
58904W        W30433   5.362  44.882   4.585
58905W        W30434  20.280  21.167   4.167
58906W        W30435  24.584  20.799  10.733
58907W        W30436  13.117  26.304  12.423
58908W        W30437  13.002  12.084  12.995
58909W        W30438  22.524  26.424   4.159
58910W        W30439  35.997  42.367   4.264
58911W        W30440   7.642  10.686   2.783
58912W        W30441  42.312   8.277  12.376
58913W        W30442  12.087   9.912  13.091
58914W        W30443  15.486  39.438  13.899
58915W        W30444  15.806   0.166   1.783
58916W        W30445  18.546  26.987   2.281
58917W        W30446  29.932  11.392   0.221
58918W        W30447   9.946  35.175  11.065
58919W        W30448  43.766  34.336   5.428
58920W        W30449  18.968  40.008   3.162
58921W        W30450  27.853  44.531  11.969
58922W        W30451   9.566  27.495  14.958
58923W        W30452   0.471  24.051  12.886
58924W        W30453   4.656   0.764   2.454
58925W        W30454  41.752  30.792  13.436
58926W        W30455  23.756  25.710  12.994
58927W        W30456  24.216  31.941   2.728
58928W        W30457  21.382  40.980  10.336
58929W        W30458   2.794  17.639  13.896
58930W        W30459  31.212  31.692  12.473
58931W        W30460  14.421  30.574  14.941
58932W        W30461  35.513  37.101   1.664
58933W        W30462  10.616  32.234  11.566
58934W        W30463  29.166  11.754   0.035
58935W        W30464  41.930  21.528   4.793
58936W        W30465  12.662  41.502   3.729
58937W        W30466  21.713  20.188   0.866
58938W        W30467  17.222  43.319   4.706
58939W        W30468  40.027  16.290   3.309
58940W        W30469   9.735   3.679   2.178
58941W        W30470  36.338   7.815  12.106
58942W        W30471  12.929  16.833   2.310
58943W        W30472  24.055  25.089   4.602
58944W        W30473   0.040  38.579  11.539
58945W        W30474  40.446  38.629   1.840
58946W        W30475   1.972  37.449   3.817
58947W        W30476  18.885  36.783   4.634
58948W        W30477  41.067   0.255  11.825
58949W        W30478  27.047   6.473  14.437
58950W        W30479  31.405   3.629  11.536
58951W        W30480  20.528  22.566  14.234
58952W        W30481   9.368  43.384  12.378
58953W        W30482   6.464  35.890  10.801
58954W        W30483  38.103  40.468  14.313
58955W        W30484  42.226  26.265  12.996
58956W        W30485  15.809  13.801  12.711
58957W        W30486  29.431  40.779  11.186
58958W        W30487  26.979  39.815   1.344
58959W        W30488   5.650  36.200   2.821
58960W        W30489  30.383   7.308  14.180
58961W        W30490  10.387  34.869   4.644
58962W        W30491   1.962  43.933   4.360
58963W        W30492  27.997   9.224   1.439
58964W        W30493   1.879  16.827  11.105
58965W        W30494  20.487   4.005  12.668
58966W        W30495  39.912   5.292   4.794
58967W        W30496  44.778  25.642   1.214
58968W        W30497  25.252   3.408   4.124
58969W        W30498  19.606  20.540   3.248
58970W        W30499  37.201  15.111   2.528
58971W        W30500  27.233  36.868  11.053
58972W        W30501   7.835  35.322  13.971
58973W        W30502  31.504  21.412   1.425
58974W        W30503   4.785  15.548   2.772
58975W        W30504  27.172   9.669  13.064
58976W        W30505  37.031  34.874  10.977
58977W        W30506  18.696  39.770   0.337
58978W        W30507  28.440  42.095  14.552
58979W        W30508   7.767  14.898   2.355
58980W        W30509   4.176  36.092  14.753
58981W        W30510  42.080   2.691   4.918
58982W        W30511  33.121  40.391   2.363
58983W        W30512   2.643   3.271   2.263
58984W        W30513  11.917   3.356  14.073
58985W        W30514  29.242  21.530  12.586
58986W        W30515  14.079  40.745   0.253
58987W        W30516   8.533  15.272   4.521
58988W        W30517  17.061  21.249   3.694
58989W        W30518  17.979   9.761   1.651
58990W        W30519  40.370  41.259   2.681
58991W        W30520  37.933   6.744   4.107
58992W        W30521  29.135  25.321   1.621
58993W        W30522   9.765  30.619  13.039
58994W        W30523  13.146  35.686   2.746
58995W        W30524  17.670  19.756  13.838
58996W        W30525  42.401  31.183  12.981
58997W        W30526  35.555  20.336  12.562
58998W        W30527  26.122  15.126   3.897
58999W        W30528  34.630  43.780  11.224
59000W        W30529  17.561  24.538   1.509
59001W        W30530  24.071  11.863   5.025
59002W        W30531   1.831  31.746  13.821
59003W        W30532  32.150  24.283   0.031
59004W        W30533  15.086  10.810  11.588
59005W        W30534  42.297  15.287   3.111
59006W        W30535  33.207   6.341   0.942
59007W        W30536  34.955  22.159  12.368
59008W        W30537   1.807  40.780  12.629
59009W        W30538   0.379  10.159   2.164
59010W        W30539   5.441  40.507   4.331
59011W        W30540  27.548  30.787   4.991
59012W        W30541  22.590  39.948  12.036
59013W        W30542   9.818  29.021  11.069
59014W        W30543  32.572  18.185  13.133
59015W        W30544  21.484  39.139  12.020
59016W        W30545  22.222  21.247  14.677
59017W        W30546  36.494   9.878  13.945
59018W        W30547  29.373  29.963  14.931
59019W        W30548   5.426  40.349   0.015
59020W        W30549   0.376   0.755   4.647
59021W        W30550  17.149  39.122  13.951
59022W        W30551   4.832  43.276   2.565
59023W        W30552  23.819  44.933   3.798
59024W        W30553  35.889  29.722  14.634
59025W        W30554  34.041  23.070   4.576
59026W        W30555  42.931  33.515   1.501
59027W        W30556  39.420  16.246   4.628
59028W        W30557  38.170  41.865   0.363
59029W        W30558  32.871  34.047   0.208
59030W        W30559   9.178   7.272   1.264
59031W        W30560  44.856  43.511  11.029
59032W        W30561  34.933  20.991  12.231
59033W        W30562  35.803  18.701   3.110
59034W        W30563  44.459  29.097  11.488
59035W        W30564   4.077   4.391  14.915
59036W        W30565  13.898  20.232   0.856
59037W        W30566  31.741  42.723   9.969
59038W        W30567  38.153   6.910  14.974
59039W        W30568  39.918  23.031   3.633
59040W        W30569  39.261  25.414   1.734
59041W        W30570  22.753   1.976   0.425
59042W        W30571   5.436  11.338   2.425
59043W        W30572  41.972  26.456   1.689
59044W        W30573  35.309  15.905  13.906
59045W        W30574   2.474  29.957  14.790
59046W        W30575  31.190  25.568  13.948
59047W        W30576  24.573  35.614  13.485
59048W        W30577   1.874  16.857  14.756
59049W        W30578   4.247  24.943  13.508
59050W        W30579  25.630  36.474   3.271
59051W        W30580  19.841  36.502   0.437
59052W        W30581  41.113  11.587  12.047
59053W        W30582  11.103  30.982   4.530
59054W        W30583  40.091  34.853   3.685
59055W        W30584  21.250  17.851   0.389
59056W        W30585  22.221  38.370   3.146
59057W        W30586  29.030  21.074   1.313
59058W        W30587   7.736  11.449  11.232
59059W        W30588   4.208  39.395  12.438
59060W        W30589  28.709  31.589   3.741
59061W        W30590  15.783  22.067   2.319
59062W        W30591  16.077  33.171  14.710
59063W        W30592  18.817  16.914  12.687
59064W        W30593  12.589   3.743  15.000
59065W        W30594   8.923  39.406  14.549
59066W        W30595  17.740  37.622  11.253
59067W        W30596  40.470  13.795   0.673
59068W        W30597  13.619  38.317   2.523
59069W        W30598  39.919  11.305   2.360
59070W        W30599  32.240  25.000   3.618
59071W        W30600  36.165   7.768   3.373
59072W        W30601  17.809  20.716  11.174
59073W        W30602  22.920   5.971   2.647
59074W        W30603   5.221  24.239  10.712
59075W        W30604  37.726  40.489  12.108
59076W        W30605  17.970  31.933   1.365
59077W        W30606  25.674   4.375  12.030
59078W        W30607  33.901   8.849   1.158
59079W        W30608  10.947  15.288  10.560
59080W        W30609   2.397  40.087   0.452
59081W        W30610  23.473  43.096  12.081
59082W        W30611  33.103  40.290  14.061
59083W        W30612  42.047   8.218   3.677
59084W        W30613  39.411  16.808   2.746
59085W        W30614  26.195  25.051  12.259
59086W        W30615  43.920  38.236  14.312
59087W        W30616  42.782  22.564   4.099
59088W        W30617  30.706  22.440   3.646
59089W        W30618   5.821  44.987  12.448
59090W        W30619  28.116  15.384  14.482
59091W        W30620  24.901   3.236   1.380
59092W        W30621   6.697  27.978  10.823
59093W        W30622   9.015   7.682   3.872
59094W        W30623  43.477  13.906  14.614
59095W        W30624  44.470  44.438   5.063
59096W        W30625  43.863   6.603  12.012
59097W        W30626   7.681   8.745  10.831
59098W        W30627   4.328  40.665  12.072
59099W        W30628  27.196  27.540   2.779
59100W        W30629  34.557   6.832   2.750
59101W        W30630   3.279  35.327   2.228
59102W        W30631   7.737  34.470   1.725
59103W        W30632  13.625   5.783  12.044
59104W        W30633  40.912   4.429   4.518
59105W        W30634  44.297  40.870  12.433
59106W        W30635  18.213  29.175  12.576
59107W        W30636  32.555  11.943  14.571
59108W        W30637  38.712  41.410   1.641
59109W        W30638  25.046  23.696   0.900
59110W        W30639   2.491  11.353  14.827
59111W        W30640  31.048  25.552  12.468
59112W        W30641  14.349  38.646   1.464
59113W        W30642  41.111  15.110  12.058
59114W        W30643   4.713  35.615  12.920
59115W        W30644  39.009  42.770  11.087
59116W        W30645  20.513  34.695  13.811
59117W        W30646  25.765  11.749  12.871
59118W        W30647  22.852  16.057  10.691
59119W        W30648  35.092  11.885   0.869
59120W        W30649  28.642  35.616   0.476
59121W        W30650  39.515  30.030   2.600
59122W        W30651  37.262  35.882  13.563
59123W        W30652   9.840  21.855  11.701
59124W        W30653  24.701  22.300  10.461
59125W        W30654  37.967  42.577   1.193
59126W        W30655  42.025  27.997  12.084
59127W        W30656  29.076  11.444  10.669
59128W        W30657  20.530   2.661  11.129
59129W        W30658  13.904   1.658   0.463
59130W        W30659  11.020  23.224   3.257
59131W        W30660  36.613  43.402   0.094
59132W        W30661  33.013  37.889  11.633
59133W        W30662  32.420   2.786  10.875
59134W        W30663  11.022  19.531   3.263
59135W        W30664  16.053   7.484  12.790
59136W        W30665  31.975  23.666   1.372
59137W        W30666   9.970  28.960  13.796
59138W        W30667  35.389  44.720   3.742
59139W        W30668  21.979  40.088  10.254
59140W        W30669  36.349   1.570  14.021
59141W        W30670   8.376  11.089   0.100
59142W        W30671   3.513  34.421   2.685
59143W        W30672  23.471  12.393  13.038
59144W        W30673  23.416  28.924  14.442
59145W        W30674  27.273  29.695   0.967
59146W        W30675  35.389  13.380   4.162
59147W        W30676   8.344  31.377   1.380
59148W        W30677  36.290  42.245   0.939
59149W        W30678   3.069  25.575   4.983
59150W        W30679  12.666  36.465   3.068
59151W        W30680  27.333  10.272   1.931
59152W        W30681   9.328  24.508  13.995
59153W        W30682  39.382  31.152  14.337
59154W        W30683   8.273  21.636  11.638
59155W        W30684  36.830   1.000   2.743
59156W        W30685  38.945  18.326   3.324
59157W        W30686  42.283  29.641   3.763
59158W        W30687  33.967  37.317  14.967
59159W        W30688  25.403  35.642  12.118
59160W        W30689  25.592  11.254  13.893
59161W        W30690  36.041  26.234   3.356
59162W        W30691   1.684  20.631  12.926
59163W        W30692  34.169  26.538  12.841
59164W        W30693   4.368  11.840   4.142
59165W        W30694  23.016  29.438  12.444
59166W        W30695  22.549  25.116  13.041
59167W        W30696  10.575  12.463   3.681
59168W        W30697  38.950  22.182   2.683
59169W        W30698  40.547  11.945   1.661
59170W        W30699  33.266   3.818   0.410
59171W        W30700  31.647  28.061  12.409
59172W        W30701  26.422  38.721  12.495
59173W        W30702   4.009  12.058   0.103
59174W        W30703  37.538  30.032  14.608
59175W        W30704  23.451  30.915   1.752
59176W        W30705  10.551  19.717  11.620
59177W        W30706  40.358   5.765   3.111
59178W        W30707  41.276  28.506  14.885
59179W        W30708  40.519  35.917  13.081
59180W        W30709  38.509  19.059   3.686
59181W        W30710   1.689   5.581  10.919
59182W        W30711  15.207  13.400  11.030
59183W        W30712  18.122  43.781  10.685
59184W        W30713  29.581  12.289  10.509
59185W        W30714  21.549   2.078  12.902
59186W        W30715  16.050  11.279  10.656
59187W        W30716  12.499  21.656  11.911
59188W        W30717   0.917  25.382  14.970
59189W        W30718  28.034   2.164  14.465
59190W        W30719   7.373  10.209   4.385
59191W        W30720   0.443   2.672  12.307
59192W        W30721  18.977  24.491   0.823
59193W        W30722  24.903  38.821   0.215
59194W        W30723   8.247  24.962   2.350
59195W        W30724  19.772  37.135   3.253
59196W        W30725  31.993  38.308   1.021
59197W        W30726   5.255  40.551  14.550
59198W        W30727   9.293   9.306   4.083
59199W        W30728  10.994  32.376  14.830
59200W        W30729  14.582  39.422  10.391
59201W        W30730  36.928  11.594   0.907
59202W        W30731   6.439  12.709  14.886
59203W        W30732  32.428  34.615   4.162
59204W        W30733   6.369   3.190   2.285
59205W        W30734  12.199  28.625  12.406
59206W        W30735  28.102   6.754   0.405
59207W        W30736  16.577   5.916  12.332
59208W        W30737   5.216  13.951  14.384
59209W        W30738  29.652  28.214  11.627
59210W        W30739   8.391  28.195   3.127
59211W        W30740  21.963   2.286  14.244
59212W        W30741  39.463  20.315  12.156
59213W        W30742   6.447  11.089   4.421
59214W        W30743  21.681  38.785   4.261
59215W        W30744  12.845  10.190  11.565
59216W        W30745  35.331  37.505  14.931
59217W        W30746  38.074  37.362  12.036
59218W        W30747  24.749  39.454  11.502
59219W        W30748  35.038  17.337  14.222
59220W        W30749  21.398  25.715   1.842
59221W        W30750  41.317  12.668   2.946
59222W        W30751  25.659  10.394   3.972
59223W        W30752  19.905   2.087   0.850
59224W        W30753  44.313  38.350   4.932
59225W        W30754  37.106  36.119   1.251
59226W        W30755  43.034  43.417  10.986
59227W        W30756  28.055  31.124  11.995
59228W        W30757  10.192  27.878  11.950
59229W        W30758  32.642  32.657   2.864
59230W        W30759  37.870   3.175   0.571
59231W        W30760  37.084  14.344  12.613
59232W        W30761  23.608  32.265  10.962
59233W        W30762  25.183   2.453   3.085
59234W        W30763   7.437  43.429  14.577
59235W        W30764  18.029  42.940  13.098
59236W        W30765  32.557  14.181   2.694
59237W        W30766  10.963  23.914   1.850
59238W        W30767  32.055   9.354   3.383
59239W        W30768  34.206  35.812  14.637
59240W        W30769  22.512   7.392  11.269
59241W        W30770  29.882  37.933   1.248
59242W        W30771  17.549  31.356  14.888
59243W        W30772  44.915  42.136  10.781
59244W        W30773  26.482  23.761   4.376
59245W        W30774   2.946   1.888   3.322
59246W        W30775   2.347  11.628  10.629
59247W        W30776   7.166  21.560  10.694
59248W        W30777   1.088  37.839   4.159
59249W        W30778  28.159  28.213  10.678
59250W        W30779  28.758  19.246  13.352
59251W        W30780  17.038  26.614  11.535
59252W        W30781   8.185  14.197   0.270
59253W        W30782   8.713  43.853   1.203
59254W        W30783   7.119  37.383   4.884
59255W        W30784  39.738  35.369   1.486
59256W        W30785   6.563  10.667  11.247
59257W        W30786  29.589   5.327   4.141
59258W        W30787  38.392   8.944   0.705
59259W        W30788  18.558  43.902   1.363
59260W        W30789   3.371  35.477  11.858
59261W        W30790  41.912  20.819   0.876
59262W        W30791  23.065   3.308  10.699
59263W        W30792  28.963  28.957   1.935
59264W        W30793  20.590  28.973  13.485
59265W        W30794  14.161  37.871  11.184
59266W        W30795  28.725  38.359  14.822
59267W        W30796   3.463  35.909   3.250
59268W        W30797  35.952  25.734  12.079
59269W        W30798  43.442  11.222   2.748
59270W        W30799  42.559   8.618   0.435
59271W        W30800  11.582  19.119  12.050
59272W        W30801  26.715  34.174  12.550
59273W        W30802  35.069   5.787  12.011
59274W        W30803  43.711  25.548   4.445
59275W        W30804  35.011  36.459   0.294
59276W        W30805  33.068  42.493   3.669
59277W        W30806   9.655  10.193  11.950
59278W        W30807   4.541  17.606   0.231
59279W        W30808  39.434   6.158  11.384
59280W        W30809  24.014   4.534  12.472
59281W        W30810  23.691   4.461   4.612
59282W        W30811  27.605  10.426   3.670
59283W        W30812  32.364  38.951   4.326
59284W        W30813   1.058   2.921   3.592
59285W        W30814  12.058  11.138  12.805
59286W        W30815  32.939  26.480   0.436
59287W        W30816  11.738  14.688  10.680
59288W        W30817   7.862  38.773   4.301
59289W        W30818  26.161   6.790  13.883
59290W        W30819  21.219   6.819   2.846
59291W        W30820  28.347   5.226  13.021
59292W        W30821  15.163  23.879   2.719
59293W        W30822   8.320  34.035   4.641
59294W        W30823  44.096  42.006   1.925
59295W        W30824  44.557  26.760   5.183
59296W        W30825  17.584  43.066  13.299
59297W        W30826  28.520  25.185  13.428
59298W        W30827   7.765  36.021  14.506
59299W        W30828  41.008  11.833  10.777
59300W        W30829  41.357  38.796   2.592
59301W        W30830  17.147  22.743   1.407
59302W        W30831  30.447  29.809  12.021
59303W        W30832   1.736  44.328   1.570
59304W        W30833  32.878   8.857   0.819
59305W        W30834  38.477  17.268  12.094
59306W        W30835  44.435  41.496  11.611
59307W        W30836  44.196  16.169  11.622
59308W        W30837  33.060  44.484  12.825
59309W        W30838  25.036  22.422   0.780
59310W        W30839  29.387   1.565   1.671
59311W        W30840  42.962  32.645  10.579
59312W        W30841  16.445  40.069  14.377
59313W        W30842   4.423  32.579  11.055
59314W        W30843   2.489  40.111   3.591
59315W        W30844   6.917  37.920  11.884
59316W        W30845  23.198  10.488   4.641
59317W        W30846  14.148  23.739   0.476
59318W        W30847  34.367  20.630   0.018
59319W        W30848   4.947  12.940  11.067
59320W        W30849   5.538  40.639  11.149
59321W        W30850   1.880  26.008  14.581
59322W        W30851  25.729   2.327   1.395
59323W        W30852  23.976  24.576   3.411
59324W        W30853  34.063   2.996   3.627
59325W        W30854  38.993  10.379   5.060
59326W        W30855   5.568  17.120   2.743
59327W        W30856  17.755   3.890   1.316
59328W        W30857   8.951  38.871   2.825
59329W        W30858  35.158  11.794   5.409
59330W        W30859  22.721  13.426   1.906
59331W        W30860  26.381  41.884  12.950
59332W        W30861  34.433  34.542  14.623
59333W        W30862  20.109  41.965  13.322
59334W        W30863  11.855   2.187   1.846
59335W        W30864   6.443  33.496  14.815
59336W        W30865  35.425   6.026  13.132
59337W        W30866  43.443  16.749  11.060
59338W        W30867  15.652  25.954   1.371
59339W        W30868  40.630  22.726   1.661
59340W        W30869   2.475  37.248   0.261
59341W        W30870  13.805   0.170  10.464
59342W        W30871  17.823  31.426  12.005
59343W        W30872  17.763  14.224  12.067
59344W        W30873  28.399  24.391  13.805
59345W        W30874   4.586  32.903  14.870
59346W        W30875  15.919  37.537  14.349
59347W        W30876  42.301  25.585  13.439
59348W        W30877  27.905  38.843  13.897
59349W        W30878   5.956  34.231   4.589
59350W        W30879  27.260  25.260   1.638
59351W        W30880   9.760   5.368   4.634
59352W        W30881  34.540  31.776  10.813
59353W        W30882  35.005  13.186   4.514
59354W        W30883  21.061  11.863  11.438
59355W        W30884   3.403   5.527   3.581
59356W        W30885  15.659  27.487   4.128
59357W        W30886  43.022  41.764  14.372
59358W        W30887  11.797  34.861   3.620
59359W        W30888  37.098  25.630  14.944
59360W        W30889  32.112  21.432  10.689
59361W        W30890  12.190  39.100  11.867
59362W        W30891  12.026  40.765  13.811
59363W        W30892  29.174  27.769   4.697
59364W        W30893   6.204  10.797   1.367
59365W        W30894  42.438  30.908   1.975
59366W        W30895  43.734  33.374   4.463
59367W        W30896  25.555  37.194  12.916
59368W        W30897   0.332  18.118  12.346
59369W        W30898  43.268  21.915   4.195
59370W        W30899  24.320  36.640   4.801
59371W        W30900  34.168  22.224   4.703
59372W        W30901  36.925   3.477   1.684
59373W        W30902  31.517  21.173  11.534
59374W        W30903  35.970  19.201  12.936
59375W        W30904  34.439   3.262  12.768
59376W        W30905  36.945  39.442   1.755
59377W        W30906  27.609   5.590   1.163
59378W        W30907  44.345  33.508  13.927
59379W        W30908  41.846  38.905  11.236
59380W        W30909  23.259  14.824  14.352
59381W        W30910   3.876   8.498   2.246
59382W        W30911  10.856  30.786   1.481
59383W        W30912  37.359   7.777   2.131
59384W        W30913   9.630   5.349  12.892
59385W        W30914  38.540   4.327   4.881
59386W        W30915  43.881  32.903  14.946
59387W        W30916  14.009   0.739   1.808
59388W        W30917   7.077  19.126  14.081
59389W        W30918  22.113  16.056  13.378
59390W        W30919  34.442  28.439  11.950
59391W        W30920  12.666  36.417   3.579
59392W        W30921  43.936  40.360  14.440
59393W        W30922  21.119  37.831  14.431
59394W        W30923  17.457  10.342  11.082
59395W        W30924  43.122  20.079   0.437
59396W        W30925  25.701  20.556  14.426
59397W        W30926   9.746   7.634   1.670
59398W        W30927  20.236   9.898   3.681
59399W        W30928  22.421   7.517   0.464
59400W        W30929  30.162  44.437   1.825
59401W        W30930  26.480  34.481   3.538
59402W        W30931  24.503   6.323  11.065
59403W        W30932  39.056  30.022   3.517
59404W        W30933  13.150  18.097   0.525
59405W        W30934  43.848  38.027  12.974
59406W        W30935  38.762   2.913  12.564
59407W        W30936  30.535  29.507   0.296
59408W        W30937   1.796   2.733  13.459
59409W        W30938   3.480   9.148  13.332
59410W        W30939  25.422  18.299  13.846
59411W        W30940  18.754   2.341   3.246
59412W        W30941  37.096  13.392   4.237
59413W        W30942   2.387   6.679  11.408
59414W        W30943  12.225  35.654   4.760
59415W        W30944  31.652  26.254   1.835
59416W        W30945   9.437  15.189   3.186
59417W        W30946  17.931  20.614   2.938
59418W        W30947  42.577  33.680  12.875
59419W        W30948   6.247  44.881  13.031
59420W        W30949  20.095  18.692   3.313
59421W        W30950  17.958  13.772   3.659
59422W        W30951  14.609  16.883   2.352
59423W        W30952   6.283  34.487  13.527
59424W        W30953   3.806  31.091   0.609
59425W        W30954  30.859  33.006  12.971
59426W        W30955  11.463  15.334   0.905
59427W        W30956   5.778  29.556   4.395
59428W        W30957  42.382  17.883   0.214
59429W        W30958  19.952  26.578  12.143
59430W        W30959  41.470   7.272   2.844
59431W        W30960  19.290  36.553   4.983
59432W        W30961  30.713  15.964   5.392
59433W        W30962  35.072  10.802   3.837
59434W        W30963  16.730  14.516   2.003
59435W        W30964  37.320  32.467   0.343
59436W        W30965  20.060  44.721  11.273
59437W        W30966  34.031  41.676  12.827
59438W        W30967  27.961  32.958  13.843
59439W        W30968  34.580  29.175   4.498
59440W        W30969  17.605   6.319   5.078
59441W        W30970  31.926  30.434  14.903
59442W        W30971  26.993   4.407  10.562
59443W        W30972  40.508  26.644  12.416
59444W        W30973  13.106  44.417  14.490
59445W        W30974  12.530  26.139   3.306
59446W        W30975  17.614  32.404   3.861
59447W        W30976   8.058  43.052   0.909
59448W        W30977  15.270  28.938   4.701
59449W        W30978  36.914   8.186  12.225
59450W        W30979  25.232   3.799  12.735
59451W        W30980  23.079  12.155  11.043
59452W        W30981  38.583   0.361  12.840
59453W        W30982   8.906  36.028  11.162
59454W        W30983  43.323   0.858  14.991
59455W        W30984  12.822   2.248  14.020
59456W        W30985   0.965  35.625  14.371
59457W        W30986  30.554   1.505  13.808
59458W        W30987  35.881  39.443   0.255
59459W        W30988  35.340  29.659  10.662
59460W        W30989  16.529  10.691   3.161
59461W        W30990  29.578  42.770  13.470
59462W        W30991   8.895  18.717   1.650
59463W        W30992  42.507  40.628   2.309
59464W        W30993  31.456  13.157   2.343
59465W        W30994   2.031   2.883  13.898
59466W        W30995   6.581   5.754   2.798
59467W        W30996  14.109  30.626   4.105
59468W        W30997   3.923   0.295  11.901
59469W        W30998  16.107  17.886  12.073
59470W        W30999  30.624   0.776   3.242
59471W        W31000   4.257  14.806  13.289
59472W        W31001   2.304  41.262  14.294
59473W        W31002  36.146   2.032  14.496
59474W        W31003  23.228  42.820   4.447
59475W        W31004  18.353  28.065  10.217
59476W        W31005  21.601  14.249  13.420
59477W        W31006  37.219  12.085   3.737
59478W        W31007  35.812  38.778   1.997
59479W        W31008  34.452  15.305   4.500
59480W        W31009   7.334  21.660  13.554
59481W        W31010  25.416  17.510   0.771
59482W        W31011  13.596  40.505   1.960
59483W        W31012  10.455  28.404  11.175
59484W        W31013   6.657  29.821  12.335
59485W        W31014  44.214   7.255   1.091
59486W        W31015   2.289  26.401  12.108
59487W        W31016  25.658  17.097   1.936
59488W        W31017   8.376   8.676   4.588
59489W        W31018  23.167  37.120   1.818
59490W        W31019  30.109   9.560  13.004
59491W        W31020  29.130  26.648  11.322
59492W        W31021  36.617  36.118   0.530
59493W        W31022   6.855  16.635  10.575
59494W        W31023  27.144  24.664  13.109
59495W        W31024  30.873  18.288  13.448
59496W        W31025   2.977  10.153   2.350
59497W        W31026  41.090  19.102   5.031
59498W        W31027  23.766  19.701  14.315
59499W        W31028  32.164  10.619  13.373
59500W        W31029  41.220  36.200   3.243
59501W        W31030  17.193  17.229   1.173
59502W        W31031  37.796  26.011   1.913
59503W        W31032  18.205  14.053   1.318
59504W        W31033  12.361  11.110   3.582
59505W        W31034  27.731  43.102   0.162
59506W        W31035  34.638   3.327  11.480
59507W        W31036  31.999  17.605   5.097
59508W        W31037  39.531   4.203   3.319
59509W        W31038  23.461   1.905  12.906
59510W        W31039  18.180  10.209   5.219
59511W        W31040  13.142  25.167  13.074
59512W        W31041   0.519   1.333  12.121
59513W        W31042  41.648  11.219   4.045
59514W        W31043  10.083  18.192   0.357
59515W        W31044  27.498  15.775  13.353
59516W        W31045  13.525  43.725   1.650
59517W        W31046  32.225  17.750   3.770
59518W        W31047  24.983   7.977  13.046
59519W        W31048  32.348  39.305  14.921
59520W        W31049   7.556   4.272   0.741
59521W        W31050  17.718  35.124  10.750
59522W        W31051   7.915  15.347  13.502
59523W        W31052  20.842   1.842  14.466
59524W        W31053  43.365  23.192   2.220
59525W        W31054  36.432  35.396   2.366
59526W        W31055  32.234   6.283   4.029
59527W        W31056  27.512  12.813  11.047
59528W        W31057  24.928  39.203   3.298
59529W        W31058  21.772  25.099   1.390
59530W        W31059   4.946  27.066   0.520
59531W        W31060  20.863  10.342   4.584
59532W        W31061  41.667  21.785  12.978
59533W        W31062   9.653   1.526  13.569
59534W        W31063  38.902  30.947  14.451
59535W        W31064  40.764  15.813  14.763
59536W        W31065   0.736  18.575   4.713
59537W        W31066  44.952  21.723  10.381
59538W        W31067   3.385  20.344  13.380
59539W        W31068  38.308  41.106   2.753
59540W        W31069  37.143  35.877   3.992
59541W        W31070  39.790  29.188  11.920
59542W        W31071  15.024   0.789   1.905
59543W        W31072  14.807  40.063  11.582
59544W        W31073  10.650   3.828   2.265
59545W        W31074  13.113  13.142  13.046
59546W        W31075  40.499  24.799   2.422
59547W        W31076  11.060  32.908  13.993
59548W        W31077  17.206  43.081   0.364
59549W        W31078  15.439  36.512   4.977
59550W        W31079   5.719   2.518  13.230
59551W        W31080  19.502   1.901  14.103
59552W        W31081   6.946  20.539  12.507
59553W        W31082  21.487  41.904  13.761
59554W        W31083   4.901  33.983   0.797
59555W        W31084   0.218  42.824  14.441
59556W        W31085   1.403  35.826   0.966
59557W        W31086  10.709  38.821   2.734
59558W        W31087  15.241   6.424  12.661
59559W        W31088  27.543  21.087   0.493
59560W        W31089  24.440  13.832  13.034
59561W        W31090  23.033  29.346   0.901
59562W        W31091  26.592   9.435   3.717
59563W        W31092  15.574   9.849   2.790
59564W        W31093  39.787  37.842   0.552
59565W        W31094  39.776  10.028  14.311
59566W        W31095   0.509  25.032  14.236
59567W        W31096   7.898  38.445  13.358
59568W        W31097  17.103  30.562  11.246
59569W        W31098   0.826  28.103   3.156
59570W        W31099   4.718  13.740   4.367
59571W        W31100   2.469  34.391  12.441
59572W        W31101  13.693  34.996   4.040
59573W        W31102  36.665  43.034   2.101
59574W        W31103   9.829  31.813   3.255
59575W        W31104  19.588  10.687   1.615
59576W        W31105  33.286   1.746  12.789
59577W        W31106  41.603  37.849  14.394
59578W        W31107  10.242   0.214  11.518
59579W        W31108  24.818  44.728   3.659
59580W        W31109  10.085  14.997  11.147
59581W        W31110  27.551  19.593  12.944
59582W        W31111  26.483  16.757   3.643
59583W        W31112  34.360  21.191  13.634
59584W        W31113  42.960  40.105   3.893
59585W        W31114  18.103  37.357   4.178
59586W        W31115  37.032  35.596   3.572
59587W        W31116   0.613  24.193  10.307
59588W        W31117   2.721  12.322  13.861
59589W        W31118   1.743   9.844   2.805
59590W        W31119   3.468  41.653  14.927
59591W        W31120  15.490   4.321  11.113
59592W        W31121  29.004   1.857   2.948
59593W        W31122   3.333  41.231   0.450
59594W        W31123  44.757   2.999  12.655
59595W        W31124  28.466  12.631  14.071
59596W        W31125  20.281  25.243   1.297
59597W        W31126  34.877  29.448  13.802
59598W        W31127  29.224   6.617  14.673
59599W        W31128  44.246   2.976  11.981
59600W        W31129  34.068  29.899   0.809
59601W        W31130  18.307  16.539  12.889
59602W        W31131  26.632  28.031   2.854
59603W        W31132  25.463  26.032  12.005
59604W        W31133  18.272   3.754   0.235
59605W        W31134  40.079   5.108  13.493
59606W        W31135  12.690  23.826  14.813
59607W        W31136  32.443  34.108   4.825
59608W        W31137   5.784  36.149  12.562
59609W        W31138   4.901  18.535  11.140
59610W        W31139  11.194  38.899  13.102
59611W        W31140   7.133  26.468  14.801
59612W        W31141   0.358  35.956   3.720
59613W        W31142  38.932  30.088   4.026
59614W        W31143  37.171  32.628  13.420
59615W        W31144  31.262  18.850   3.146
59616W        W31145  22.492  41.889   1.270
59617W        W31146  29.890   7.474   3.782
59618W        W31147   2.817  12.421   3.185
59619W        W31148  37.477  30.630  12.677
59620W        W31149   0.099  13.784   1.316
59621W        W31150  23.579  41.630  10.670
59622W        W31151  10.631   7.686   1.907
59623W        W31152  14.169  21.674   0.854
59624W        W31153  18.812  37.899  12.080
59625W        W31154  24.449  39.057  10.199
59626W        W31155  29.034  43.129  12.396
59627W        W31156  18.348  40.836   0.263
59628W        W31157  12.388   2.344   0.551
59629W        W31158  21.199  41.017  11.703
59630W        W31159  41.990  32.588  11.940
59631W        W31160   2.743  11.234   0.499
59632W        W31161  28.902  44.929  12.890
59633W        W31162  21.657  22.815   0.166
59634W        W31163   9.844  21.546   4.344
59635W        W31164  30.375   4.615   3.355
59636W        W31165  12.627  38.811   0.394
59637W        W31166   7.494  18.197  11.079
59638W        W31167  18.674  36.616  10.684
59639W        W31168  44.071  14.840   2.660
59640W        W31169  39.894  41.890  12.118
59641W        W31170  30.188  39.886  11.579
59642W        W31171  26.430  37.478   4.405
59643W        W31172  29.225   3.504  13.403
59644W        W31173  12.321  43.923  10.637
59645W        W31174  32.055  22.681   1.251
59646W        W31175   5.848   7.199   1.746
59647W        W31176  30.731  32.716   4.086
59648W        W31177  28.014  23.943   1.760
59649W        W31178  24.598  26.145  14.992
59650W        W31179  21.125  20.715  10.542
59651W        W31180  29.146   3.815  10.903
59652W        W31181  40.784  39.499   1.355
59653W        W31182  39.586  13.715   4.659
59654W        W31183  12.693   3.278   2.718
59655W        W31184  15.415  37.491  10.593
59656W        W31185   2.795  34.212  14.767
59657W        W31186  24.470  32.422   2.682
59658W        W31187  24.009   5.758  10.678
59659W        W31188  26.492  20.485  14.010
59660W        W31189  11.358  35.043  14.825
59661W        W31190  28.541  39.756   0.620
59662W        W31191  43.209  33.006  11.475
59663W        W31192  37.290  34.287  13.030
59664W        W31193  41.335  24.218  11.194
59665W        W31194  19.827  29.664  12.353
59666W        W31195  19.179   4.668   1.805
59667W        W31196  38.126  15.787  14.396
59668W        W31197  37.912  21.336  10.741
59669W        W31198  18.563  38.099   4.071
59670W        W31199  42.324  10.290   4.256
59671W        W31200   4.686   9.243   1.859
59672W        W31201  43.989  15.137  11.100
59673W        W31202  42.512  27.156   2.183
59674W        W31203  34.642   3.490   2.688
59675W        W31204   1.891  31.703  12.967
59676W        W31205  28.560  42.790   1.157
59677W        W31206  26.169  33.660  12.069
59678W        W31207  16.723  34.200   0.320
59679W        W31208  25.926  10.863  14.793
59680W        W31209  36.166  27.240  13.422
59681W        W31210  39.860  34.153   0.354
59682W        W31211  27.571  28.188   1.750
59683W        W31212  44.384  24.709   0.507
59684W        W31213  19.337   6.507   1.724
59685W        W31214  30.643   6.146  12.492
59686W        W31215  20.645   2.757   2.285
59687W        W31216  12.244  20.910   3.200
59688W        W31217  20.774  19.027   2.197
59689W        W31218  28.904   2.301   0.910
59690W        W31219  13.418  14.624  10.539
59691W        W31220  23.626  11.893  13.034
59692W        W31221  10.862  24.257   4.025
59693W        W31222  31.694  29.758   4.894
59694W        W31223  16.079  20.392   3.560
59695W        W31224  13.175  37.736   1.866
59696W        W31225  44.588  26.596   2.199
59697W        W31226   0.339  22.245  13.566
59698W        W31227  37.864  27.953   4.811
59699W        W31228  29.484  26.603   0.914
59700W        W31229  30.107  20.777  10.768
59701W        W31230  22.592  13.734   4.541
59702W        W31231  29.376  44.934   0.797
59703W        W31232  17.449  44.228   3.277
59704W        W31233  30.200   4.588   1.873
59705W        W31234  17.155  30.065   0.883
59706W        W31235   7.577  16.698   1.931
59707W        W31236  33.592   3.877   2.460
59708W        W31237  19.594  42.492   4.315
59709W        W31238  20.133  36.085   0.538
59710W        W31239  43.431  10.047  14.787
59711W        W31240   2.906  25.950  13.718
59712W        W31241  26.599  36.677  14.769
59713W        W31242  23.802  34.880  14.866
59714W        W31243   2.919  14.069   2.189
59715W        W31244  20.565  27.245  14.532
59716W        W31245   9.411   1.459  11.963
59717W        W31246  15.795  25.539  13.351
59718W        W31247   1.824  23.928  14.679
59719W        W31248  41.461   7.059   4.907
59720W        W31249   8.770   3.823  13.328
59721W        W31250   6.261  42.758  12.126
59722W        W31251  33.119  40.939   2.316
59723W        W31252  21.605   0.701   1.186
59724W        W31253  19.053   8.765   3.573
59725W        W31254  32.652  12.166   4.518
59726W        W31255  12.518   2.710   3.584
59727W        W31256  30.484   2.055  12.860
59728W        W31257  15.856   7.169   4.126
59729W        W31258  29.003  20.212   0.235
59730W        W31259  43.321  40.007  14.652
59731W        W31260  10.648  31.264  13.647
59732W        W31261  24.916  24.121  14.317
59733W        W31262  40.572  30.792   4.951
59734W        W31263   5.775  39.099  11.420
59735W        W31264  15.508   7.666  11.523
59736W        W31265  35.996  37.810  11.497
59737W        W31266  31.603  43.585  10.792
59738W        W31267  16.331  28.521   4.464
59739W        W31268   9.177  12.855  14.102
59740W        W31269  41.883  30.398   3.186
59741W        W31270   2.272   3.821  14.857
59742W        W31271   9.659  41.253  13.804
59743W        W31272  36.350  34.010   3.143
59744W        W31273   2.195  30.368  11.521
59745W        W31274  39.486  15.584   4.211
59746W        W31275  19.678   4.627   2.018
59747W        W31276  34.624  24.676   0.507
59748W        W31277   3.471   7.146  14.532
59749W        W31278  36.805  13.607   2.584
59750W        W31279  42.918  11.960   1.230
59751W        W31280  40.423  39.963   3.166
59752W        W31281  17.629  38.101  14.241
59753W        W31282  39.567  27.925   0.434
59754W        W31283  11.631   6.683   3.858
59755W        W31284  42.724  23.205   3.040
59756W        W31285  28.557  33.837  12.506
59757W        W31286  38.861  29.075   2.328
59758W        W31287  40.361  10.445  11.212
59759W        W31288   6.637  27.777   3.805
59760W        W31289  33.667  40.049   4.743
59761W        W31290   1.358   4.094   1.197
59762W        W31291   4.811  33.143  13.364
59763W        W31292  40.862  21.578   3.783
59764W        W31293  11.608  43.481   4.577
59765W        W31294  11.335  10.309  14.812
59766W        W31295   1.780  14.330  13.895
59767W        W31296  40.101  13.866   3.166
59768W        W31297   1.992  37.142  12.887
59769W        W31298  26.502  13.090  11.143
59770W        W31299   9.648  27.901  11.105
59771W        W31300  22.719   4.292  11.143
59772W        W31301  43.682   8.892  13.004
59773W        W31302  20.687   1.192  11.159
59774W        W31303  41.517  44.866   3.879
59775W        W31304  29.914   2.440  14.379
59776W        W31305  12.720   6.828  10.703
59777W        W31306   7.331  36.285   0.530
59778W        W31307  38.619  36.204  13.853
59779W        W31308  37.746  36.616   0.136
59780W        W31309  32.909   1.061   0.842
59781W        W31310   5.300  25.138   4.539
59782W        W31311   9.763   7.263  10.932
59783W        W31312  43.869  41.881  13.565
59784W        W31313   5.632  18.230  14.631
59785W        W31314   5.836   9.738   2.648
59786W        W31315   4.757  36.046   1.879
59787W        W31316  28.661   2.398   2.853
59788W        W31317  43.654  10.907   0.122
59789W        W31318  21.675  19.623   3.570
59790W        W31319  26.446  30.372   3.163
59791W        W31320  15.927  19.128   9.512
59792W        W31321  14.662  19.714   1.291
59793W        W31322  43.874  43.341  10.614
59794W        W31323  33.085  18.128  10.345
59795W        W31324  19.078  36.796  10.964
59796W        W31325  21.576  24.220  13.001
59797W        W31326  25.717  38.017   4.175
59798W        W31327  26.851  23.200   0.279
59799W        W31328  21.267   0.683  10.473
59800W        W31329  29.644   1.374   5.085
59801W        W31330  40.572   0.498   3.117
59802W        W31331  26.059  27.971  14.618
59803W        W31332  14.674  21.987   3.323
59804W        W31333  21.219  25.804   5.067
59805W        W31334  40.958  39.150  12.442
59806W        W31335  10.747  40.809   0.241
59807W        W31336   9.328  15.790   0.412
59808W        W31337  39.246  32.316  11.659
59809W        W31338  23.225   0.978  11.059
59810W        W31339   7.307   7.307  12.510
59811W        W31340  23.761   4.614  12.020
59812W        W31341   7.967  16.484  12.572
59813W        W31342  15.108  42.104  12.050
59814W        W31343  36.327  40.402  10.710
59815W        W31344   3.938  38.860   1.156
59816W        W31345  43.790  31.573   4.205
59817W        W31346   5.478  24.950   3.432
59818W        W31347  41.227  43.854   4.648
59819W        W31348   9.819   7.884  14.332
59820W        W31349  28.957  13.354   0.262
59821W        W31350  30.893  11.607  11.558
59822W        W31351  13.575  32.031   1.942
59823W        W31352  19.236   4.130  13.920
59824W        W31353  41.825  42.142  14.656
59825W        W31354  21.507  15.753  11.481
59826W        W31355  36.944  10.727   3.350
59827W        W31356  42.448  20.794  13.401
59828W        W31357   1.622   2.161  11.477
59829W        W31358   7.642  12.238   1.463
59830W        W31359  17.685   8.238  14.622
59831W        W31360  13.766  43.894   4.585
59832W        W31361   6.948   2.299   4.121
59833W        W31362  32.446  27.669   0.334
59834W        W31363  17.060  29.098   3.286
59835W        W31364  32.041  24.195  14.407
59836W        W31365  40.366  41.074  11.514
59837W        W31366  15.604  12.152  10.686
59838W        W31367  42.991  38.989  11.738
59839W        W31368  32.149  38.457   2.662
59840W        W31369   3.816  20.233   3.447
59841W        W31370  32.421   2.868  11.903
59842W        W31371   7.991  44.322  12.011
59843W        W31372   9.300  33.140  11.388
59844W        W31373  34.027  24.895  10.669
59845W        W31374  26.498  15.309   2.253
59846W        W31375  12.865  41.180  14.501
59847W        W31376  17.875  42.981  11.445
59848W        W31377  28.648  18.341  11.631
59849W        W31378  24.751   3.411   0.817
59850W        W31379  36.123  15.165   0.780
59851W        W31380  24.803   2.822  14.363
59852W        W31381  24.645   0.340  13.572
59853W        W31382  14.798  34.310  13.271
59854W        W31383  27.631  39.006  11.587
59855W        W31384   5.272  35.356  11.171
59856W        W31385  14.524   5.467  10.820
59857W        W31386  41.823  28.964   3.233
59858W        W31387  29.086  27.133  13.366
59859W        W31388  34.310   9.330  12.108
59860W        W31389   0.016  23.247   2.738
59861W        W31390  12.345  25.091   4.266
59862W        W31391   4.165  14.124  10.853
59863W        W31392  20.177  12.251   3.408
59864W        W31393  34.966  13.692  12.237
59865W        W31394  23.088  33.586   1.650
59866W        W31395  35.580   2.669  12.489
59867W        W31396  16.905  43.908  12.086
59868W        W31397   7.679  15.039  14.786
59869W        W31398   9.808  15.524   5.068
59870W        W31399  21.594  26.651  13.799
59871W        W31400  42.733   6.751   0.351
59872W        W31401  19.707  20.027   0.316
59873W        W31402  28.517  31.593  11.538
59874W        W31403  41.367  38.045  11.966
59875W        W31404  41.842  37.234  11.412
59876W        W31405  25.875  36.659   2.837
59877W        W31406  10.324  26.154  11.980
59878W        W31407  16.627  30.982   4.163
59879W        W31408  12.349   1.869  12.902
59880W        W31409   0.446  36.360   1.211
59881W        W31410  17.492  15.019   2.279
59882W        W31411  35.527   1.656  12.421
59883W        W31412  35.959   8.896   5.089
59884W        W31413  33.018  25.044  14.296
59885W        W31414   1.176  11.162  14.685
59886W        W31415  27.262  15.173   2.696
59887W        W31416  14.360  12.563  11.914
59888W        W31417  26.548  21.578   3.751
59889W        W31418  28.102  37.952  10.100
59890W        W31419  21.944   8.231   1.056
59891W        W31420  39.692  25.796  14.927
59892W        W31421  29.253  43.341   1.492
59893W        W31422  32.482  41.402   5.044
59894W        W31423   3.869  24.217  12.919
59895W        W31424  11.797  14.347  13.102
59896W        W31425  24.181   0.342   2.824
59897W        W31426  40.344  27.421   0.794
59898W        W31427  39.389  10.390   2.767
59899W        W31428  34.457  22.029  12.521
59900W        W31429  33.524  19.216   2.836
59901W        W31430  41.701  34.506   0.805
59902W        W31431  20.969  17.547  12.608
59903W        W31432  33.493  17.484  14.508
59904W        W31433  38.142  44.006   2.193
59905W        W31434  34.543  37.450   0.633
59906W        W31435  38.361  20.308  14.845
59907W        W31436  31.198  22.068   1.343
59908W        W31437  32.042  44.776   3.737
59909W        W31438  40.083   7.349  12.145
59910W        W31439  18.243  34.974  11.617
59911W        W31440   1.992  13.537  12.668
59912W        W31441  40.470  20.505   1.725
59913W        W31442  39.541  24.537   3.799
59914W        W31443  15.306   9.112  12.831
59915W        W31444  44.721  13.566   4.301
59916W        W31445  18.681   7.097  14.341
59917W        W31446   5.396  28.567  14.398
59918W        W31447  36.985  26.004   3.088
59919W        W31448   4.073   4.283  11.356
59920W        W31449  22.993  26.615  10.716
59921W        W31450  33.665  12.289   1.841
59922W        W31451  29.162  15.428   0.719
59923W        W31452  20.041  40.315  13.177
59924W        W31453  38.960   2.329  14.488
59925W        W31454   2.488  10.620   3.180
59926W        W31455  27.120   1.498   0.934
59927W        W31456  22.461  15.098   4.831
59928W        W31457   6.807  35.132   3.663
59929W        W31458   4.153  41.297  14.400
59930W        W31459   1.441  32.625  12.891
59931W        W31460  16.200  43.974   4.313
59932W        W31461  22.159  27.927   0.404
59933W        W31462  31.881   3.398  13.382
59934W        W31463  16.406  29.458  13.398
59935W        W31464  23.222  40.562   0.349
59936W        W31465   7.944  13.786  12.636
59937W        W31466  35.617  20.981   4.955
59938W        W31467   7.641  28.021  12.964
59939W        W31468  35.169  19.563  11.997
59940W        W31469  35.051   8.100   2.359
59941W        W31470  32.976  22.192  11.046
59942W        W31471  24.376  39.264  11.885
59943W        W31472  34.383  18.026  10.621
59944W        W31473  39.558  43.575  13.120
59945W        W31474  32.412  39.439   4.673
59946W        W31475  40.016   3.200  13.626
59947W        W31476  33.991  16.765   2.709
59948W        W31477   9.602  21.267  14.522
59949W        W31478  10.615   1.057  12.511
59950W        W31479  41.103  42.482   0.868
59951W        W31480  41.909   3.718   3.170
59952W        W31481  28.641  32.197  14.542
59953W        W31482  40.675  28.707  10.299
59954W        W31483   9.929  42.793  11.045
59955W        W31484   3.982  35.877   4.136
59956W        W31485  10.247  28.181   2.871
59957W        W31486  12.240  17.522  14.819
59958W        W31487  27.208  17.772  14.898
59959W        W31488  34.347  18.330  12.291
59960W        W31489   9.655  16.305   3.787
59961W        W31490  17.069  30.946  13.966
59962W        W31491  22.127  13.930  14.226
59963W        W31492  24.997  19.498  11.602
59964W        W31493  39.685  25.674  12.120
59965W        W31494   5.412  25.478  11.543
59966W        W31495  20.686  37.121   1.706
59967W        W31496   1.493  18.161  12.933
59968W        W31497  36.947  20.543   4.430
59969W        W31498  23.064  40.887  13.006
59970W        W31499  24.288  34.961   0.363
59971W        W31500   2.866  31.962   1.894
59972W        W31501  14.271  39.092   1.750
59973W        W31502  35.548  37.428   3.110
59974W        W31503  20.659  16.293  11.540
59975W        W31504   2.267   1.377  12.550
59976W        W31505  11.084   0.850   2.630
59977W        W31506  11.700  10.203  12.018
59978W        W31507  36.450  16.106  14.494
59979W        W31508   6.812   1.867  13.478
59980W        W31509  43.776  29.325  13.736
59981W        W31510   3.417  37.264  11.145
59982W        W31511  30.461   4.386   2.310
59983W        W31512  12.599  19.309   2.195
59984W        W31513   0.006  13.381   3.345
59985W        W31514  32.126  32.016   3.026
59986W        W31515   7.759  35.521   0.317
59987W        W31516  22.945  40.322   3.679
59988W        W31517  12.413   5.713  11.190
59989W        W31518   6.165  11.715   2.685
59990W        W31519  44.412  10.393   0.783
59991W        W31520   1.983  20.188  14.733
59992W        W31521   0.316  43.249   3.175
59993W        W31522  35.365  27.922   3.313
59994W        W31523   5.724   3.182   1.746
59995W        W31524  44.367  41.998  13.421
59996W        W31525  30.296   4.998  12.957
59997W        W31526  16.420   9.859   2.486
59998W        W31527  25.854  16.774   1.378
59999W        W31528  22.184  43.950  10.641
60000W        W31529   5.708  37.397  10.661
60001W        W31530   7.774  26.543  10.855
60002W        W31531  38.996   2.627  12.955
60003W        W31532  36.580  13.848   1.755
60004W        W31533   3.764  11.771  11.189
60005W        W31534  39.946  26.914   3.395
60006W        W31535   3.275  14.495   4.231
60007W        W31536  25.135   5.510   0.583
60008W        W31537  34.448  12.367   3.793
60009W        W31538  34.011  11.656  13.114
60010W        W31539   4.769  42.296   0.941
60011W        W31540  29.510   1.984   0.734
60012W        W31541   5.179  38.877   1.839
60013W        W31542  22.003  30.485  12.625
60014W        W31543  18.105  37.025   2.750
60015W        W31544  24.053  40.994   4.077
60016W        W31545  31.043  33.104  11.967
60017W        W31546  11.731  21.861   1.274
60018W        W31547  14.778   3.938   1.335
60019W        W31548  12.825  25.311   2.074
60020W        W31549  17.456  14.643  12.096
60021W        W31550  29.880  32.618   1.001
60022W        W31551   2.874  11.177  10.624
60023W        W31552  34.433   4.318  11.623
60024W        W31553   9.601  39.412   2.148
60025W        W31554   9.182  22.432   0.375
60026W        W31555  21.084   4.638   4.160
60027W        W31556  23.241   3.677  14.546
60028W        W31557   6.166  24.692  14.522
60029W        W31558  43.596  38.349  13.799
60030W        W31559  24.383  36.512  11.702
60031W        W31560  35.072  34.323  14.243
60032W        W31561  12.114  25.401   2.730
60033W        W31562  27.717  25.813  14.926
60034W        W31563  31.024  28.863   0.316
60035W        W31564   1.361   0.362   1.606
60036W        W31565  16.321  19.436   4.536
60037W        W31566  13.363  18.175  14.794
60038W        W31567  18.283  24.227   2.215
60039W        W31568  14.392  23.960   0.053
60040W        W31569  24.840  15.051   2.899
60041W        W31570  12.813  13.714   2.125
60042W        W31571  38.486  40.123   0.289
60043W        W31572   1.024   0.670   3.211
60044W        W31573   6.183  12.790   3.248
60045W        W31574  32.177  42.372  14.233
60046W        W31575  24.603   6.106   1.955
60047W        W31576  10.162   5.314   4.273
60048W        W31577  40.520  15.854  13.434
60049W        W31578   0.517  19.779   2.945
60050W        W31579  34.121  11.138  12.002
60051W        W31580  34.935  35.005   0.241
60052W        W31581  30.006   4.509  13.767
60053W        W31582  27.004  41.689   1.228
60054W        W31583  35.398   3.357  12.636
60055W        W31584  32.582  37.533   4.713
60056W        W31585  16.771   4.844   3.775
60057W        W31586  14.357   5.260   4.120
60058W        W31587  40.699  34.086  14.406
60059W        W31588  23.537  37.606  13.316
60060W        W31589  35.254   0.456  10.964
60061W        W31590  32.295  39.376  11.128
60062W        W31591  16.380  25.400   0.926
60063W        W31592  17.745   5.950   4.126
60064W        W31593  30.955   9.255   1.682
60065W        W31594  34.354  11.241  11.564
60066W        W31595  33.785  37.646   3.973
60067W        W31596  12.884  37.940   0.927
60068W        W31597  35.329  42.416   4.997
60069W        W31598   9.274  28.283  11.927
60070W        W31599  19.691  21.212  14.822
60071W        W31600  32.897   9.215  11.907
60072W        W31601   6.591   2.233  10.951
60073W        W31602  23.990  22.612  10.913
60074W        W31603  44.729  24.993   1.300
60075W        W31604   7.758  19.301  12.184
60076W        W31605   8.812  39.818   2.286
60077W        W31606  28.088  28.400  11.385
60078W        W31607  21.515  22.353   0.343
60079W        W31608  14.623  26.249  11.531
60080W        W31609  35.340  22.703   2.667
60081W        W31610   8.852  18.314   0.843
60082W        W31611   8.187  43.914   3.639
60083W        W31612  44.757  14.404  12.901
60084W        W31613   6.943  20.295  11.061
60085W        W31614  15.652  13.058  10.695
60086W        W31615  32.015  12.720  13.485
60087W        W31616  10.443   3.794   3.203
60088W        W31617  35.456   0.250   2.820
60089W        W31618   1.291  41.439   2.362
60090W        W31619   9.103   8.940   5.052
60091W        W31620   7.847  41.121   0.269
60092W        W31621  16.653  14.890   2.374
60093W        W31622  15.813  18.570  11.710
60094W        W31623  31.477  21.498  13.384
60095W        W31624  25.686  13.253   3.304
60096W        W31625  34.720  11.659   1.178
60097W        W31626  35.646   9.770  13.931
60098W        W31627  19.134   3.690  14.720
60099W        W31628  26.963  31.559  13.803
60100W        W31629  38.966  29.213  11.528
60101W        W31630   4.279   4.975  12.468
60102W        W31631  14.928  25.811  11.587
60103W        W31632  29.456  38.435  14.292
60104W        W31633  42.482  29.269   1.349
60105W        W31634   9.206  28.913   2.172
60106W        W31635  10.267   1.907   1.420
60107W        W31636  20.157  13.129  11.619
60108W        W31637   0.857   9.608  14.842
60109W        W31638  38.010  33.750  13.515
60110W        W31639  34.622  10.453  14.404
60111W        W31640   9.606  38.935  14.173
60112W        W31641  21.896  12.468  14.431
60113W        W31642   3.839  43.774   0.731
60114W        W31643  10.221  24.152  14.241
60115W        W31644  38.429   6.315  14.035
60116W        W31645  22.670  21.130   4.041
60117W        W31646  40.719  27.127   3.479
60118W        W31647  21.227  36.633   4.550
60119W        W31648  34.729  42.935  12.417
60120W        W31649   9.110  30.623  12.363
60121W        W31650  17.262  30.893  13.064
60122W        W31651   4.011  18.078  12.086
60123W        W31652  18.739  35.654  12.417
60124W        W31653  39.102  36.089  14.163
60125W        W31654  38.960  29.888  13.289
60126W        W31655   1.456  42.055  11.143
60127W        W31656  11.276   0.073  11.999
60128W        W31657   4.910  43.946   2.247
60129W        W31658  44.451  28.419  12.977
60130W        W31659  21.116  23.132   3.692
60131W        W31660  27.968  17.600  11.574
60132W        W31661  39.508  43.098   0.840
60133W        W31662  31.546  42.975  13.353
60134W        W31663   3.752  44.951   3.189
60135W        W31664  35.403  37.081  11.706
60136W        W31665  44.692  43.504  14.239
60137W        W31666  17.246  21.585  14.272
60138W        W31667   9.077  42.090  13.429
60139W        W31668   3.139  32.733   1.797
60140W        W31669  26.978  38.552   2.169
60141W        W31670  32.673  21.259  12.057
60142W        W31671  34.888   4.904  14.310
60143W        W31672  23.664   9.280   1.366
60144W        W31673  19.311  42.769  13.835
60145W        W31674  20.930   7.825   3.269
60146W        W31675   2.571  31.525   1.810
60147W        W31676  33.971  40.662  12.029
60148W        W31677  43.935  40.049  14.870
60149W        W31678  42.746  36.454   3.621
60150W        W31679  11.872  25.170   4.104
60151W        W31680  23.305   1.165   3.086
60152W        W31681  23.770  44.356  13.014
60153W        W31682  32.139  13.672  10.368
60154W        W31683  12.776  21.118  10.082
60155W        W31684  39.472   1.729   3.820
60156W        W31685  28.863   0.970  12.306
60157W        W31686  20.478  44.232   3.821
60158W        W31687  22.666  11.035  10.766
60159W        W31688  36.165   6.257  14.329
60160W        W31689  17.071  38.406  12.230
60161W        W31690  22.119  12.376  13.411
60162W        W31691  27.789  12.434  12.500
60163W        W31692  19.079  29.402   1.245
60164W        W31693  32.820  15.225   3.251
60165W        W31694  10.935  14.197  12.399
60166W        W31695  10.152  25.576   2.784
60167W        W31696   0.864  38.962  11.862
60168W        W31697  11.408   3.397   1.443
60169W        W31698  29.872  35.836   3.918
60170W        W31699  42.267  16.365  11.799
60171W        W31700  33.523  29.406   4.170
60172W        W31701  15.622  29.908  11.269
60173W        W31702   7.843  13.142  11.868
60174W        W31703  17.466  11.247   0.001
60175W        W31704   0.156  10.648  10.676
60176W        W31705  27.444  21.224   9.983
60177W        W31706  44.460   1.653   2.280
60178W        W31707  21.224  16.579  12.558
60179W        W31708  26.765   5.631  14.356
60180W        W31709  38.624  17.596  11.751
60181W        W31710  17.091  16.560  11.922
60182W        W31711  27.982  37.508  10.862
60183W        W31712  27.119  15.030  11.984
60184W        W31713  31.894   6.534   4.694
60185W        W31714  10.522  34.902  11.746
60186W        W31715   3.652  12.515  12.489
60187W        W31716  21.654   2.878  12.538
60188W        W31717  22.585  41.930  12.966
60189W        W31718   9.630  19.245  12.341
60190W        W31719  24.783  25.631   0.706
60191W        W31720  43.552  33.496   9.636
60192W        W31721  12.634  42.954   1.694
60193W        W31722  25.618  20.750  12.602
60194W        W31723  40.950  27.470   0.155
60195W        W31724  24.626  13.316  12.315
60196W        W31725   4.855   9.392  11.881
60197W        W31726  10.813   6.424  11.455
60198W        W31727  11.217  26.295  12.035
60199W        W31728  44.700  44.864  14.530
60200W        W31729  42.730   1.000   3.731
60201W        W31730  41.325  15.570  11.591
60202W        W31731   1.401  16.713   1.068
60203W        W31732  21.717  38.559   5.267
60204W        W31733  28.654  22.727   0.225
60205W        W31734  30.705  22.893   1.311
60206W        W31735  29.217  17.627  10.683
60207W        W31736  26.265  31.078  12.768
60208W        W31737   4.904  41.748   2.807
60209W        W31738  17.125  12.180  11.441
60210W        W31739  43.971  13.883  14.467
60211W        W31740  11.317  29.355  14.514
60212W        W31741  36.891   6.747  12.097
60213W        W31742   7.075  10.656   2.650
60214W        W31743  18.998   3.212   1.273
60215W        W31744   8.735  28.505  12.611
60216W        W31745  10.152   2.176   0.977
60217W        W31746  11.180   1.208  11.609
60218W        W31747  16.963  33.575  13.558
60219W        W31748   3.046  21.760   0.951
60220W        W31749  40.978  38.465   0.708
60221W        W31750   2.819   3.210  14.916
60222W        W31751   9.765  32.909  12.068
60223W        W31752   6.153  33.407   4.152
60224W        W31753   4.747  17.136  10.703
60225W        W31754  41.092  36.495  11.588
60226W        W31755  20.030  26.548  14.777
60227W        W31756   8.918  34.805  13.059
60228W        W31757  26.740   7.528   0.847
60229W        W31758  13.839  21.105  10.352
60230W        W31759   2.789  39.488   4.546
60231W        W31760  17.320  39.845  13.466
60232W        W31761  15.340  27.751   3.244
60233W        W31762  19.087  27.492  13.003
60234W        W31763  39.383  40.303   1.484
60235W        W31764  42.903  15.707  10.669
60236W        W31765  22.642  17.159  13.040
60237W        W31766  36.914   9.391  11.095
60238W        W31767  31.676  38.662   3.450
60239W        W31768   3.329  34.063  13.037
60240W        W31769  16.547  25.734   2.385
60241W        W31770   5.751   4.226  11.469
60242W        W31771  14.980  22.633   4.349
60243W        W31772  30.491  41.946   0.581
60244W        W31773   3.681  34.477  10.576
60245W        W31774  38.311  27.614   3.644
60246W        W31775  42.347  24.905  14.977
60247W        W31776   2.037  14.027  11.529
60248W        W31777  34.229  32.357  11.692
60249W        W31778   1.226  10.140   5.057
60250W        W31779  23.232  21.281  12.261
60251W        W31780  26.225  13.522  14.470
60252W        W31781  34.007  40.837   2.716
60253W        W31782  11.163  12.845   0.395
60254W        W31783  11.527  30.705  13.950
60255W        W31784  40.032  19.384   0.752
60256W        W31785   1.824   7.276   2.354
60257W        W31786  44.114  32.199  11.545
60258W        W31787   6.877  24.149  11.271
60259W        W31788  11.676  29.195   1.873
60260W        W31789   3.814   5.440  14.467
60261W        W31790  33.638   4.727  10.525
60262W        W31791  20.505  19.833  12.846
60263W        W31792  16.690   0.101   4.849
60264W        W31793  28.035  23.893  14.514
60265W        W31794  31.035  44.875   2.860
60266W        W31795  36.024  15.380  10.840
60267W        W31796  44.465  26.633  12.941
60268W        W31797   6.338  27.547   2.423
60269W        W31798  20.153  29.503  14.703
60270W        W31799  26.752  18.051  13.988
60271W        W31800   6.097   1.376  12.003
60272W        W31801  43.771  27.874  13.885
60273W        W31802   6.639  19.388  13.974
60274W        W31803   4.644  40.590  10.764
60275W        W31804   3.543  36.357  14.479
60276W        W31805   6.971   4.757  14.675
60277W        W31806  27.011  13.809   3.712
60278W        W31807  25.710  10.893   0.249
60279W        W31808  37.850  27.027  14.455
60280W        W31809  18.357   6.729   3.716
60281W        W31810  42.533   0.932   2.412
60282W        W31811  14.745  33.663   3.657
60283W        W31812   7.091   6.489   0.506
60284W        W31813  10.251  42.910  13.341
60285W        W31814  31.446  12.345   1.776
60286W        W31815  41.296  18.206  14.014
60287W        W31816  41.574   2.944  10.545
60288W        W31817  26.364  19.629  11.421
60289W        W31818   8.265  36.911   1.894
60290W        W31819  32.706  13.284  12.518
60291W        W31820  27.702  36.337  13.821
60292W        W31821  32.101  40.271  12.900
60293W        W31822   0.260  27.408  14.859
60294W        W31823   6.037  36.382   2.488
60295W        W31824  39.005  15.482  13.519
60296W        W31825   2.860  22.432   1.319
60297W        W31826  30.582  17.138   4.496
60298W        W31827  29.996  39.858  14.531
60299W        W31828  21.465   4.246  14.394
60300W        W31829  21.027  38.973   3.283
60301W        W31830  13.218  24.894  10.654
60302W        W31831  21.340   4.286  12.527
60303W        W31832  31.144  13.530   3.659
60304W        W31833  36.904  25.106  11.516
60305W        W31834  17.570  42.997   3.643
60306W        W31835   8.724  29.232   4.406
60307W        W31836  41.001  42.842  10.615
60308W        W31837  18.253   3.314   4.599
60309W        W31838   9.780   2.228  13.068
60310W        W31839  25.929  15.135  10.739
60311W        W31840  19.275  18.283  13.327
60312W        W31841   9.728   0.734  12.144
60313W        W31842   9.644   0.741   3.630
60314W        W31843  39.400  26.681  11.530
60315W        W31844   1.750  18.074   0.505
60316W        W31845  32.949  29.683  14.458
60317W        W31846  17.253  17.294   2.187
60318W        W31847   3.232  18.655  12.571
60319W        W31848  37.912  32.675  10.627
60320W        W31849  35.618  40.895  10.767
60321W        W31850  36.602  31.956   3.613
60322W        W31851  16.275  24.442   1.149
60323W        W31852   2.926  36.577  14.759
60324W        W31853  23.529  37.362   0.938
60325W        W31854   7.414  35.406   4.760
60326W        W31855   6.791  29.692  12.811
60327W        W31856  19.091  16.848  10.818
60328W        W31857  11.857  27.377  11.508
60329W        W31858   2.406  37.801   4.943
60330W        W31859  29.431  41.739  11.803
60331W        W31860  16.605  40.194  11.170
60332W        W31861  35.114  27.244  10.856
60333W        W31862   5.668   8.773  14.868
60334W        W31863  41.890  29.270  14.814
60335W        W31864  21.564  24.248  10.729
60336W        W31865   2.467  26.663  12.538
60337W        W31866  31.393  42.749   4.565
60338W        W31867  36.118  42.700  13.386
60339W        W31868   2.102  10.226   3.907
60340W        W31869  24.601  12.092  13.489
60341W        W31870  20.635   5.934   1.413
60342W        W31871  35.863  29.446  12.048
60343W        W31872  28.777  13.798   5.391
60344W        W31873  29.488  32.855  13.338
60345W        W31874   3.947   0.047  14.457
60346W        W31875  25.613  31.214  12.070
60347W        W31876  28.206   6.825   4.491
60348W        W31877   8.691   8.312   2.421
60349W        W31878   7.678  24.884  12.835
60350W        W31879  42.558  44.750  11.941
60351W        W31880  44.796  10.870   2.214
60352W        W31881  33.312  37.880   3.274
60353W        W31882   6.779  43.398   0.827
60354W        W31883  37.938  20.567   4.138
60355W        W31884  27.480  26.022  13.331
60356W        W31885  16.953  30.249  10.357
60357W        W31886  37.493  37.125  10.735
60358W        W31887  36.572   9.459   2.749
60359W        W31888  25.739  13.633   1.338
60360W        W31889  26.700  40.425  12.346
60361W        W31890   7.861   5.594   1.663
60362W        W31891   6.233  12.729   2.431
60363W        W31892   9.902  22.936   4.209
60364W        W31893  20.084  15.857  12.373
60365W        W31894  35.788  13.287  10.690
60366W        W31895  19.324  19.313  12.460
60367W        W31896  15.899   6.479   2.622
60368W        W31897  42.423   7.645  13.045
60369W        W31898  27.477  13.012   4.193
60370W        W31899  14.586  13.270   2.462
60371W        W31900  31.442  34.009   0.716
60372W        W31901   4.303   3.696   4.943
60373W        W31902  18.764   6.907  10.706
60374W        W31903  34.949  23.488   0.226
60375W        W31904  23.741   8.731  13.056
60376W        W31905  20.114  22.066  12.419
60377W        W31906   4.166  40.945  13.373
60378W        W31907  17.127  11.670  14.978
60379W        W31908  12.893  43.976   0.769
60380W        W31909   9.764   9.300   3.863
60381W        W31910  23.260  39.849  12.447
60382W        W31911  32.812   9.489   0.021
60383W        W31912  44.799  18.683   2.366
60384W        W31913  32.213   8.156   0.940
60385W        W31914  36.335  32.519  14.490
60386W        W31915  38.834   6.304   1.671
60387W        W31916  34.945  27.527   1.505
60388W        W31917  23.663  24.664  10.913
60389W        W31918  33.388  35.685  12.299
60390W        W31919  39.422  38.912   0.656
60391W        W31920  23.654  20.809  13.518
60392W        W31921  42.729  41.423   1.639
60393W        W31922   4.683  39.465   3.543
60394W        W31923  10.168  24.195   1.332
60395W        W31924  31.441  26.129   4.339
60396W        W31925  39.313  34.477   3.624
60397W        W31926  26.590  43.521   3.386
60398W        W31927  33.002  14.522  14.769
60399W        W31928  32.316  43.515  13.420
60400W        W31929  14.795  36.517   4.023
60401W        W31930  43.226  19.219   3.221
60402W        W31931   9.951  29.312   1.331
60403W        W31932  32.967   4.026  10.636
60404W        W31933   4.169  31.427   1.201
60405W        W31934   4.588  30.420   0.321
60406W        W31935  42.059  11.450  10.883
60407W        W31936  19.220   1.394  11.845
60408W        W31937  17.231  43.420   3.667
60409W        W31938  23.541  23.221  14.463
60410W        W31939  16.233  26.583   0.310
60411W        W31940  16.257  26.910  14.901
60412W        W31941  34.232  19.783   4.561
60413W        W31942  32.913  39.392   2.473
60414W        W31943  24.247  40.760  14.545
60415W        W31944  36.900   4.012  12.538
60416W        W31945   2.251  18.154   0.305
60417W        W31946  20.985  44.333  12.338
60418W        W31947  44.246  24.287   2.236
60419W        W31948   9.375  10.173   2.336
60420W        W31949   8.429  27.044   3.979
60421W        W31950  23.506  28.195  12.085
60422W        W31951  38.453  23.866  14.938
60423W        W31952  42.435  22.555  11.135
60424W        W31953  18.515  33.533   2.843
60425W        W31954   8.394  10.424   3.014
60426W        W31955  23.624  24.256  11.680
60427W        W31956  31.495  37.857   4.084
60428W        W31957  43.071  31.549  12.797
60429W        W31958  12.223  22.111  10.712
60430W        W31959   1.840  38.097  11.491
60431W        W31960  18.143  17.582  12.878
60432W        W31961  15.511  28.929   1.382
60433W        W31962  39.852   6.361   0.354
60434W        W31963  28.510  22.047  11.102
60435W        W31964  17.639  12.253   0.700
60436W        W31965  10.329  27.407  12.178
60437W        W31966  17.223  40.827  12.101
60438W        W31967   1.542  27.689   4.282
60439W        W31968  26.011  23.236  12.716
60440W        W31969  25.263  39.975  13.790
60441W        W31970  15.441  17.700   1.134
60442W        W31971  39.010   1.661  13.880
60443W        W31972  18.619  36.034  14.996
60444W        W31973  38.712  37.819  10.072
60445W        W31974  23.096   4.016  11.907
60446W        W31975  23.593  22.772  11.559
60447W        W31976  34.671  27.368  13.229
60448W        W31977  16.046  10.701   1.226
60449W        W31978  22.801   6.668  12.964
60450W        W31979  11.318  36.129   3.906
60451W        W31980   9.376  26.299  12.297
60452W        W31981  44.842  28.518  13.299
60453W        W31982  19.766   5.796  11.087
60454W        W31983  34.027  13.713   2.249
60455W        W31984  29.608  27.942   1.383
60456W        W31985  13.698   8.233   5.031
60457W        W31986   6.947  23.781  11.635
60458W        W31987  28.497  35.249  11.779
60459W        W31988  33.116  20.097  14.892
60460W        W31989  42.283   5.316   3.735
60461W        W31990  21.228   3.857   2.807
60462W        W31991   5.386  12.933  14.422
60463W        W31992  43.082  41.088   1.825
60464W        W31993  26.020  22.095   0.336
60465W        W31994  30.088  22.402   4.350
60466W        W31995  23.234  13.278   1.030
60467W        W31996  21.192  28.081   4.744
60468W        W31997   5.810  39.028   0.433
60469W        W31998   2.213  31.394  13.899
60470W        W31999  35.411  40.373   2.777
60471W        W32000  26.093  21.829   2.497
60472W        W32001  29.177  32.586   5.499
60473W        W32002   6.946   4.122  11.105
60474W        W32003   9.960  11.675   1.495
60475W        W32004  27.597  16.757  14.986
60476W        W32005   4.807  27.288   2.481
60477W        W32006  27.763   6.662   2.713
60478W        W32007  28.070  41.289  14.034
60479W        W32008  19.678  34.322   2.776
60480W        W32009  29.159  15.360  12.345
60481W        W32010  41.378  15.319   4.217
60482W        W32011  37.945  14.344  12.384
60483W        W32012  10.260  23.880   1.775
60484W        W32013  20.543   6.233  10.752
60485W        W32014   6.722   3.367   1.032
60486W        W32015   0.289  31.999  12.046
60487W        W32016  23.564  35.892   4.054
60488W        W32017  25.910  38.815  12.437
60489W        W32018   2.858   0.709  14.290
60490W        W32019  39.832  44.728   4.506
60491W        W32020  18.118  31.254  13.382
60492W        W32021  13.771   0.477  14.984
60493W        W32022  14.087   8.271   0.839
60494W        W32023  14.203  24.768   1.911
60495W        W32024   6.860  23.040   2.343
60496W        W32025  15.169  14.267   3.343
60497W        W32026  42.650  14.144   1.906
60498W        W32027   7.129   1.161   2.481
60499W        W32028  22.830  27.612  12.392
60500W        W32029  13.817  11.340  14.287
60501W        W32030  44.385  34.210   2.899
60502W        W32031   7.930  44.799  12.789
60503W        W32032  25.680  22.043   1.344
60504W        W32033  13.095   8.064  12.409
60505W        W32034  23.459  30.049   3.765
60506W        W32035  25.548   3.700   2.712
60507W        W32036  31.057  40.322   4.104
60508W        W32037  31.479  19.510  11.063
60509W        W32038   0.676  43.462   4.327
60510W        W32039   3.432   6.902   1.921
60511W        W32040  11.408  29.498   5.023
60512W        W32041   5.287  38.277  13.024
60513W        W32042  23.354  10.858   4.259
60514W        W32043  18.864  21.277  11.720
60515W        W32044   5.734   8.178   4.510
60516W        W32045  43.371   4.827   4.793
60517W        W32046   1.299  42.794  13.318
60518W        W32047  41.963  34.600  14.374
60519W        W32048  36.988  23.584   3.984
60520W        W32049  39.413  17.748   2.935
60521W        W32050  19.060  41.349  11.194
60522W        W32051  17.581  38.447  10.437
60523W        W32052  44.141  23.977   0.721
60524W        W32053   9.444  10.083  11.023
60525W        W32054  40.261  38.357  10.727
60526W        W32055  41.581  20.588  11.899
60527W        W32056  11.211   3.223   0.570
60528W        W32057   9.592  13.795   3.789
60529W        W32058  31.000   1.249  14.025
60530W        W32059  39.525  40.883  14.866
60531W        W32060   7.277  40.986  14.764
60532W        W32061  29.428  23.831   2.942
60533W        W32062   2.309  38.381   1.701
60534W        W32063  40.797   6.443   3.670
60535W        W32064  10.838  36.126   1.695
60536W        W32065   2.754  35.131  12.618
60537W        W32066  42.889  11.825   4.236
60538W        W32067  21.142  39.153  11.652
60539W        W32068  35.470  23.527  13.506
60540W        W32069   4.793  25.945   2.904
60541W        W32070   3.404  33.260   4.752
60542W        W32071  28.988  15.240  10.922
60543W        W32072  27.051  42.748  13.611
60544W        W32073  14.234   6.756   0.687
60545W        W32074   1.911  11.183  11.639
60546W        W32075  12.163  23.674   2.392
60547W        W32076  30.028  36.158   0.472
60548W        W32077   3.840  11.701  11.709
60549W        W32078  15.169  39.070  11.977
60550W        W32079  33.482  15.535  12.954
60551W        W32080  23.972  41.486  12.063
60552W        W32081  40.883  12.678   2.208
60553W        W32082  25.543   0.913   0.005
60554W        W32083  22.171   2.017   1.232
60555W        W32084   2.596  13.341   1.384
60556W        W32085  41.510  37.064  13.920
60557W        W32086  41.871  17.713   4.720
60558W        W32087  12.267  22.464   3.254
60559W        W32088  27.502   4.245   2.244
60560W        W32089  10.486  18.847   3.708
60561W        W32090  42.514  43.424   2.708
60562W        W32091  44.269  35.996  12.921
60563W        W32092  22.068  40.975  11.427
60564W        W32093  44.139  33.890  11.554
60565W        W32094   5.862  28.703   0.943
60566W        W32095  17.528  39.872   3.118
60567W        W32096  23.686  36.351   0.776
60568W        W32097  39.430  35.089  10.455
60569W        W32098  22.967  28.303  14.521
60570W        W32099  34.224  40.384   2.820
60571W        W32100   5.140  13.504   4.144
60572W        W32101  19.688  19.562   1.095
60573W        W32102   3.447  29.853  14.910
60574W        W32103  35.152  23.687   4.211
60575W        W32104   0.492   5.937  10.713
60576W        W32105  19.471  13.159  11.213
60577W        W32106  32.570   3.709  11.388
60578W        W32107  18.864  39.486   5.087
60579W        W32108   0.890  43.822  12.543
60580W        W32109  28.476  30.506  13.478
60581W        W32110  30.303  24.672   4.502
60582W        W32111   3.072   9.359  11.942
60583W        W32112  42.013  11.898  10.619
60584W        W32113   0.297   3.861  14.844
60585W        W32114  11.246  31.249  12.923
60586W        W32115  13.178  44.494   3.246
60587W        W32116  25.110   2.356  11.674
60588W        W32117  34.610  33.156  12.031
60589W        W32118   6.681  43.991   4.630
60590W        W32119  42.245  37.786  12.044
60591W        W32120  12.030  37.950  11.070
60592W        W32121  39.475  40.168   1.002
60593W        W32122  20.764  12.833   0.424
60594W        W32123  21.576  14.166   1.275
60595W        W32124  29.820  37.895   0.219
60596W        W32125  42.942  20.459  14.790
60597W        W32126  13.786  41.342   0.964
60598W        W32127  14.269  26.066   3.433
60599W        W32128  28.475  21.694   2.453
60600W        W32129  40.417  20.216   4.632
60601W        W32130  31.706   0.752  13.117
60602W        W32131   7.777  23.431   1.412
60603W        W32132  30.994  27.179  12.599
60604W        W32133  41.047   0.414  11.323
60605W        W32134  13.587   7.315  11.323
60606W        W32135  23.098   4.916   0.855
60607W        W32136  33.689   7.306  12.567
60608W        W32137  40.833  41.466  13.809
60609W        W32138  34.067  32.034   1.787
60610W        W32139  12.782  20.052   4.756
60611W        W32140   2.934  30.726   3.688
60612W        W32141  11.169  14.360  14.006
60613W        W32142  11.102  18.148   0.317
60614W        W32143  38.006  24.712  12.923
60615W        W32144  42.343  21.268  10.697
60616W        W32145  10.936  19.103  14.948
60617W        W32146  23.042  37.489   3.126
60618W        W32147  43.910  34.803  13.896
60619W        W32148  17.235   6.718  10.504
60620W        W32149  13.625  30.137  13.569
60621W        W32150  39.939  16.389   4.647
60622W        W32151  18.451  44.032   4.522
60623W        W32152  30.147  28.269   3.348
60624W        W32153  23.269   5.707  12.017
60625W        W32154  22.022  23.406  11.564
60626W        W32155  13.518   1.803  13.574
60627W        W32156   5.170  26.665   0.823
60628W        W32157  21.820   6.970   1.303
60629W        W32158  34.536  10.501   4.341
60630W        W32159  12.789  40.418   2.907
60631W        W32160  20.494  29.923   3.611
60632W        W32161   8.790  24.414  10.753
60633W        W32162   4.757  14.203  14.923
60634W        W32163  10.177  18.007  12.769
60635W        W32164  15.658  13.929   4.925
60636W        W32165  43.968  30.443   3.623
60637W        W32166  26.967  35.183   2.450
60638W        W32167  34.938  38.651   4.140
60639W        W32168   0.794  34.023   2.604
60640W        W32169   2.627  14.406  14.428
60641W        W32170  41.535  43.579   3.297
60642W        W32171  14.432   3.613  13.475
60643W        W32172  12.573  18.145  13.593
60644W        W32173  18.874  36.647   3.137
60645W        W32174  16.097  17.630  13.504
60646W        W32175   8.898  43.444  10.656
60647W        W32176  43.171  10.028   0.238
60648W        W32177  43.670  14.637  11.117
60649W        W32178  34.530   7.769   2.646
60650W        W32179  22.720  25.605   2.313
60651W        W32180  41.984  17.804  10.799
60652W        W32181   8.944  27.635  10.177
60653W        W32182  10.573   1.818  12.840
60654W        W32183  31.211  26.193  13.309
60655W        W32184  18.787  42.375  13.012
60656W        W32185  18.212   1.226   3.099
60657W        W32186  26.749  24.502  11.609
60658W        W32187  32.549   6.913   1.220
60659W        W32188  34.853  38.811   0.690
60660W        W32189  35.439  35.508   3.684
60661W        W32190  44.269   1.537  13.506
60662W        W32191  26.541   2.516  14.564
60663W        W32192  14.550  21.971  13.457
60664W        W32193  37.803  23.070  11.134
60665W        W32194   5.125   2.074   3.364
60666W        W32195  38.814   3.561  10.895
60667W        W32196  44.267   8.318  10.718
60668W        W32197  17.830  27.362   9.786
60669W        W32198  13.261  32.085  14.387
60670W        W32199  15.885  42.966   3.580
60671W        W32200  44.568  30.124   4.323
60672W        W32201  18.042   4.976  10.696
60673W        W32202  16.684   3.327   3.678
60674W        W32203  16.772  11.131   1.663
60675W        W32204   4.829   6.149   3.604
60676W        W32205   5.730  32.861   2.030
60677W        W32206   6.319   6.418  11.636
60678W        W32207  14.565  37.267   1.969
60679W        W32208  44.067  12.744  10.624
60680W        W32209   3.407  39.582   1.835
60681W        W32210  32.929  30.879   4.649
60682W        W32211  21.489  24.810   1.911
60683W        W32212  11.904  44.994  14.429
60684W        W32213   4.707   1.178  11.151
60685W        W32214  33.453  27.818  13.653
60686W        W32215  30.563  24.062   0.517
60687W        W32216  35.108  40.140   0.394
60688W        W32217  31.904  31.953  11.072
60689W        W32218  41.555  36.016  11.006
60690W        W32219  32.175  36.345  12.631
60691W        W32220  19.702  14.213   1.216
60692W        W32221  24.176  23.146  13.603
60693W        W32222   2.337  34.583   2.800
60694W        W32223  14.377  35.885   2.384
60695W        W32224   1.003  17.613   0.379
60696W        W32225  28.472  20.008   4.201
60697W        W32226   3.128  41.888  13.888
60698W        W32227  29.520  44.561  14.972
60699W        W32228  27.203   2.835   3.720
60700W        W32229  22.050  35.773  11.991
60701W        W32230  44.739  19.589  12.995
60702W        W32231  19.420  20.025  11.505
60703W        W32232  42.714  16.078  13.777
60704W        W32233   1.940  26.161   2.224
60705W        W32234  12.164  12.735   2.659
60706W        W32235  24.666  25.043  11.489
60707W        W32236   0.012   9.403  12.024
60708W        W32237  30.693  37.787  13.936
60709W        W32238  31.838  13.202   4.649
60710W        W32239  25.721  40.251   1.424
60711W        W32240  38.190  35.374   0.315
60712W        W32241   6.565  30.054  13.107
60713W        W32242  13.363  20.025   4.876
60714W        W32243  23.154  40.265   5.564
60715W        W32244  26.627  30.631   3.589
60716W        W32245  32.875  38.580  11.107
60717W        W32246  14.718   9.427  14.520
60718W        W32247  32.880  44.322  11.111
60719W        W32248  43.821  12.213   3.819
60720W        W32249  35.006  38.195   0.387
60721W        W32250  36.412  34.852   3.337
60722W        W32251  33.989  16.234   3.708
60723W        W32252  24.954  37.346  11.971
60724W        W32253  26.108  19.239   2.112
60725W        W32254  35.984  26.146  11.262
60726W        W32255  38.136  15.468   0.031
60727W        W32256  37.003   5.343  10.706
60728W        W32257   3.250   9.738   1.167
60729W        W32258   0.158  33.986   0.555
60730W        W32259  30.454  34.087  11.592
60731W        W32260  11.367  26.594  12.868
60732W        W32261  38.781  29.449  10.576
60733W        W32262   3.013  27.993   2.836
60734W        W32263   5.369  28.377  10.787
60735W        W32264  14.723   6.804  13.879
60736W        W32265   6.945   0.757   2.765
60737W        W32266   4.228  27.614   1.638
60738W        W32267   6.755  14.015  11.660
60739W        W32268  23.095  36.043   2.965
60740W        W32269   9.164  33.930   3.217
60741W        W32270   1.742   8.192   4.239
60742W        W32271  39.442  10.491   3.753
60743W        W32272  36.854   0.681   1.242
60744W        W32273  41.047  18.912   4.515
60745W        W32274   6.408  22.160   1.357
60746W        W32275  11.342  11.677  14.473
60747W        W32276   5.231  31.047  14.972
60748W        W32277  31.156   5.980   2.253
60749W        W32278   0.473  14.369   4.992
60750W        W32279   0.509  26.418   4.540
60751W        W32280  27.748  19.780   3.292
60752W        W32281   4.826  10.225   3.882
60753W        W32282  16.571  32.186   1.233
60754W        W32283  24.467  38.914   5.035
60755W        W32284  34.334   1.211  11.993
60756W        W32285  33.518  28.584  12.261
60757W        W32286   7.934  13.665   3.613
60758W        W32287  34.093   7.687   3.120
60759W        W32288  20.644  14.799   4.128
60760W        W32289  31.830  30.835   0.712
60761W        W32290  17.646  43.102   1.618
60762W        W32291  35.753   1.943  12.878
60763W        W32292   4.370  26.476   2.373
60764W        W32293  22.192  20.249  11.712
60765W        W32294   0.858   7.653  11.053
60766W        W32295  21.740  10.881  13.586
60767W        W32296  20.998  12.255  12.510
60768W        W32297   3.647  19.475   0.856
60769W        W32298  42.927  24.928  11.013
60770W        W32299  39.066  33.391  11.527
60771W        W32300  19.649  13.728   2.898
60772W        W32301   9.328  40.608   0.887
60773W        W32302  18.172  41.115  12.539
60774W        W32303  23.069  18.586   1.357
60775W        W32304  32.026  40.012   3.575
60776W        W32305  17.277  39.005   0.363
60777W        W32306  10.060  12.979  12.499
60778W        W32307  23.256  22.098   2.293
60779W        W32308  10.717  36.056   5.117
60780W        W32309   3.067  28.225   4.586
60781W        W32310  28.887  40.612  13.243
60782W        W32311  41.312  14.730  11.429
60783W        W32312  28.540  37.481  10.671
60784W        W32313  42.322  37.440   0.447
60785W        W32314   2.752  12.952  13.409
60786W        W32315  32.430  24.435  12.800
60787W        W32316  38.412  29.346  15.000
60788W        W32317  28.910  23.423  10.716
60789W        W32318   4.278   6.790  10.738
60790W        W32319  31.599   8.709   3.763
60791W        W32320  31.557  43.263   0.685
60792W        W32321   7.709  43.440  10.606
60793W        W32322   8.285   0.407  13.594
60794W        W32323  36.340   3.107   2.299
60795W        W32324  14.170   4.734  14.050
60796W        W32325  40.948  12.703   3.296
60797W        W32326  33.904   6.781   2.262
60798W        W32327  10.046  14.341   2.675
60799W        W32328   6.255   7.843   1.041
60800W        W32329  22.678   0.413   0.681
60801W        W32330   0.983   0.498  13.477
60802W        W32331  16.923  35.755  12.916
60803W        W32332   4.687  36.059  11.610
60804W        W32333  11.905  12.165  13.869
60805W        W32334  19.257  34.848   1.329
60806W        W32335  35.010  36.822   3.820
60807W        W32336   9.413   5.410  11.625
60808W        W32337  36.862  31.144  12.142
60809W        W32338  43.212  27.116  11.549
60810W        W32339  30.805  37.038   3.001
60811W        W32340  30.992   5.415   1.478
60812W        W32341  43.970  20.664  13.574
60813W        W32342  37.055   9.374   1.537
60814W        W32343   7.902  18.551   3.811
60815W        W32344  22.198   1.533  12.459
60816W        W32345  38.758  27.682  13.884
60817W        W32346  15.064  12.279  11.561
60818W        W32347   3.720  18.988   0.743
60819W        W32348  37.946  36.687  14.335
60820W        W32349  44.858  21.785   0.679
60821W        W32350   0.864  43.016  13.461
60822W        W32351  33.960  38.399  11.597
60823W        W32352  19.871   7.851  14.169
60824W        W32353   5.550  18.347   1.278
60825W        W32354  35.325   6.200  14.820
60826W        W32355  16.363  12.232  12.869
60827W        W32356  18.514   9.552  13.307
60828W        W32357  15.037  16.695  11.564
60829W        W32358  31.806   4.132  12.271
60830W        W32359  42.517  43.407  11.012
60831W        W32360  12.649  20.258  12.460
60832W        W32361  24.252  15.064  13.529
60833W        W32362  17.648  22.694   4.610
60834W        W32363  39.153  34.893  11.716
60835W        W32364  30.433  12.163   4.124
60836W        W32365  19.307  43.736   2.411
60837W        W32366   0.905  36.675   2.397
60838W        W32367  39.641  22.519   1.747
60839W        W32368   8.841  33.869   2.695
60840W        W32369   5.903  20.651  13.365
60841W        W32370  13.685  18.869  14.066
60842W        W32371   7.863  38.933   4.825
60843W        W32372  11.960  37.460   5.101
60844W        W32373  38.610   0.136  11.486
60845W        W32374  12.961   1.771   3.596
60846W        W32375  21.787  16.398   0.992
60847W        W32376   8.700  31.822  12.063
60848W        W32377  21.701  27.972  13.512
60849W        W32378  36.999  24.506  13.940
60850W        W32379  11.723   8.050   3.177
60851W        W32380  22.661  41.872   4.327
60852W        W32381  28.597  33.383  13.926
60853W        W32382   5.145  32.994   4.758
60854W        W32383  30.065   4.938  12.186
60855W        W32384  11.127  13.140   1.834
60856W        W32385   6.679  17.036   4.297
60857W        W32386  18.746   5.825   3.788
60858W        W32387  24.758   8.312  10.519
60859W        W32388  26.594  43.679  13.505
60860W        W32389  21.981  11.186  11.982
60861W        W32390   3.386  18.182   1.955
60862W        W32391   8.910  32.954  11.139
60863W        W32392  16.110   1.232  14.742
60864W        W32393  36.954  31.961   1.379
60865W        W32394  32.377  36.561   0.497
60866W        W32395  10.155  35.828  10.016
60867W        W32396  29.024  28.839  14.497
60868W        W32397  14.759  24.261   3.339
60869W        W32398  24.039  19.065  13.453
60870W        W32399  32.528   0.879   3.604
60871W        W32400  34.426  36.775   1.708
60872W        W32401  20.258   0.335  12.846
60873W        W32402   6.551   4.344  10.823
60874W        W32403  11.699   9.283  11.123
60875W        W32404  36.131  16.115  13.683
60876W        W32405  17.272  12.806  11.233
60877W        W32406   7.557  39.810  14.063
60878W        W32407  12.405  22.505  14.381
60879W        W32408   0.018  33.100  11.625
60880W        W32409   9.680  30.941  13.955
60881W        W32410  32.581  16.043  12.818
60882W        W32411   5.314  32.505   4.611
60883W        W32412  26.009   6.282  13.975
60884W        W32413  34.090  33.404   4.256
60885W        W32414  21.137   6.497  12.012
60886W        W32415  26.600   0.501  11.350
60887W        W32416  39.221   7.304   4.160
60888W        W32417  41.406  29.456   4.125
60889W        W32418  16.569   9.502  13.366
60890W        W32419  22.917  30.551   1.312
60891W        W32420  42.165  41.884   4.452
60892W        W32421  36.419   5.225   4.662
60893W        W32422   1.868  33.458  12.816
60894W        W32423  38.328  15.252  12.353
60895W        W32424  40.861  17.905   1.230
60896W        W32425  20.828  32.907   0.130
60897W        W32426  38.007  29.800  14.487
60898W        W32427   2.004  12.631  13.155
60899W        W32428   2.300   2.226  10.682
60900W        W32429   2.892  28.695  14.448
60901W        W32430  13.294  30.229   0.263
60902W        W32431  23.416  42.539  12.042
60903W        W32432  29.080   5.609  11.110
60904W        W32433  41.777  25.545  12.103
60905W        W32434  16.649  41.290   1.784
60906W        W32435   1.141  23.760  12.566
60907W        W32436  40.489  28.182   2.741
60908W        W32437  39.128  11.775   3.408
60909W        W32438  29.054  34.614  13.542
60910W        W32439  41.519  43.851   2.356
60911W        W32440  18.039  17.651  11.582
60912W        W32441  38.356  43.751  10.695
60913W        W32442   9.905  42.585   2.738
60914W        W32443   8.772  17.022   3.979
60915W        W32444   6.058   9.674   2.160
60916W        W32445  19.965  18.601   2.388
60917W        W32446  40.442  12.165  14.802
60918W        W32447  41.520   6.419   0.757
60919W        W32448  17.013   2.359   2.833
60920W        W32449  14.711   2.071   4.540
60921W        W32450   4.480   2.941   0.328
60922W        W32451   0.714   1.930   1.890
60923W        W32452  13.700  34.148  12.093
60924W        W32453   2.839  21.413   1.277
60925W        W32454   9.261   5.376   1.797
60926W        W32455  22.192  33.284   0.059
60927W        W32456   1.826  39.045  11.852
60928W        W32457  21.739  32.623   0.063
60929W        W32458  34.617   6.696  14.741
60930W        W32459  24.684  20.439  14.785
60931W        W32460  20.833  14.285   2.848
60932W        W32461  22.339  34.715   3.774
60933W        W32462  14.910  24.515   0.739
60934W        W32463   2.242   4.599   5.048
60935W        W32464  37.076  21.542  11.008
60936W        W32465   0.736  14.042  12.894
60937W        W32466  41.383   7.417   0.949
60938W        W32467  10.291  35.983   3.860
60939W        W32468   8.089  18.165   3.092
60940W        W32469  21.882  44.832  11.375
60941W        W32470   8.239  29.441   2.729
60942W        W32471  30.015   9.294   4.133
60943W        W32472  29.473  20.979   0.362
60944W        W32473   3.853  28.587  13.406
60945W        W32474  43.910   3.006  13.973
60946W        W32475  16.243   3.011   4.447
60947W        W32476   4.505  24.076   1.224
60948W        W32477  31.380  44.444   3.171
60949W        W32478   5.668   4.863  10.762
60950W        W32479  43.724  13.499  10.624
60951W        W32480  24.877  29.100  11.647
60952W        W32481  39.481  26.049   4.318
60953W        W32482   2.666  37.904  10.437
60954W        W32483  18.160  29.131  11.284
60955W        W32484  21.968  23.695   3.681
60956W        W32485  38.928   8.342   4.168
60957W        W32486  17.832  28.212  13.992
60958W        W32487  21.132  10.679   1.421
60959W        W32488  33.595  41.063  14.010
60960W        W32489  27.668  31.847   0.012
60961W        W32490   6.544  35.732  12.030
60962W        W32491  24.062  40.490   0.918
60963W        W32492   0.472  20.302   4.180
60964W        W32493  37.408  41.200   2.874
60965W        W32494   4.062  10.283  12.353
60966W        W32495  38.002  42.072   1.217
60967W        W32496  38.762  36.127  12.550
60968W        W32497   5.347  17.831  13.811
60969W        W32498  36.410  14.696   0.655
60970W        W32499  28.629   2.265  13.419
60971W        W32500  41.912  13.008   3.597
60972W        W32501  19.205  30.113   1.882
60973W        W32502  38.672  44.862  14.988
60974W        W32503  36.343   5.295  13.075
60975W        W32504   9.838   2.364   4.480
60976W        W32505  12.329  28.952   4.097
60977W        W32506  34.905  14.407  14.933
60978W        W32507   9.922  32.909  12.563
60979W        W32508   4.711  38.891   4.195
60980W        W32509  38.462  13.071   4.335
60981W        W32510  43.811  15.156  12.671
60982W        W32511  11.331  35.619   4.564
60983W        W32512  35.952  10.321  14.580
60984W        W32513  15.843  31.428  10.907
60985W        W32514  41.525   5.059   0.858
60986W        W32515  27.969  44.311  10.269
60987W        W32516  30.460   4.094   3.560
60988W        W32517  30.704  44.526   3.598
60989W        W32518   9.785  18.120  13.528
60990W        W32519  20.622  25.594   3.315
60991W        W32520  30.224   2.204  10.559
60992W        W32521  30.527   1.590  11.435
60993W        W32522  17.127  32.335   4.063
60994W        W32523  26.058   5.402   0.918
60995W        W32524  33.611   7.727   0.870
60996W        W32525  37.800  23.055  14.228
60997W        W32526   4.435  21.281  13.453
60998W        W32527   7.689  41.257  13.110
60999W        W32528  24.045   6.096   0.226
61000W        W32529  39.999  34.792  12.594
61001W        W32530   5.567  25.075   4.089
61002W        W32531  15.791  29.107   3.444
61003W        W32532  43.092  30.182  13.875
61004W        W32533   7.844  34.901  14.924
61005W        W32534  17.788  28.970   0.849
61006W        W32535  15.306  35.804  13.549
61007W        W32536   2.136  11.141   1.863
61008W        W32537  30.112   7.169   4.161
61009W        W32538   9.906   8.318   0.547
61010W        W32539  12.344  31.915   2.524
61011W        W32540  28.369  35.890  12.961
61012W        W32541   1.326   1.446  12.949
61013W        W32542  13.250  14.067  11.952
61014W        W32543  23.715  22.131  13.062
61015W        W32544  14.913   6.257  14.975
61016W        W32545   2.676   1.263   3.668
61017W        W32546  17.567  26.111   0.839
61018W        W32547  42.500  13.165   1.924
61019W        W32548   2.325  34.471  14.177
61020W        W32549  28.984   7.632  12.182
61021W        W32550  21.131  17.850  11.139
61022W        W32551   7.223  43.231  10.656
61023W        W32552  24.589  23.274   1.819
61024W        W32553  32.391   9.280  11.895
61025W        W32554   4.807   4.208   2.730
61026W        W32555  24.165  10.601   1.345
61027W        W32556  25.156   7.626   2.767
61028W        W32557  24.956  34.487  12.969
61029W        W32558  35.537  10.674  12.392
61030W        W32559  29.194   2.789  13.078
61031W        W32560  21.906   8.853   0.395
61032W        W32561  16.768  27.405  12.122
61033W        W32562   2.475   9.270  11.966
61034W        W32563  12.134  42.743   0.870
61035W        W32564   7.697   9.111   4.564
61036W        W32565   6.679  19.106   1.818
61037W        W32566  21.667  24.098   0.413
61038W        W32567  32.182   6.792  12.020
61039W        W32568  17.536  30.838  14.171
61040W        W32569  16.603   7.869   1.882
61041W        W32570  38.383  41.750  14.233
61042W        W32571  28.020   4.278   2.182
61043W        W32572   0.821  39.571  14.615
61044W        W32573  12.761  13.194  14.354
61045W        W32574   1.250  18.633  12.823
61046W        W32575   8.255  42.789   3.133
61047W        W32576  31.101  15.738   3.554
61048W        W32577  22.574  22.658   2.200
61049W        W32578  36.097  18.376  11.913
61050W        W32579  28.194  25.761   0.383
61051W        W32580  17.350  31.029   1.957
61052W        W32581   2.164  25.925   1.702
61053W        W32582  29.483  13.625   1.956
61054W        W32583   4.381  17.604   2.366
61055W        W32584  44.558  19.064  13.486
61056W        W32585  14.511  37.484  11.912
61057W        W32586  25.739   3.727  14.915
61058W        W32587  33.282  24.728   2.214
61059W        W32588   8.849   8.984  13.576
61060W        W32589  42.867  24.622  11.447
61061W        W32590  26.292  12.888  13.470
61062W        W32591  41.228   6.387   1.960
61063W        W32592  38.520   9.954  10.377
61064W        W32593   7.780  44.844   1.632
61065W        W32594  22.508  14.853   0.875
61066W        W32595  21.725  31.088  14.312
61067W        W32596   1.133  11.392   3.647
61068W        W32597  35.556  27.137  11.155
61069W        W32598  11.749  36.183   3.200
61070W        W32599  30.871   6.019  13.429
61071W        W32600  25.693  39.688  14.796
61072W        W32601  19.965  10.248  11.218
61073W        W32602  41.116  12.407  10.649
61074W        W32603  37.305  43.864  12.583
61075W        W32604  13.799  25.894   1.299
61076W        W32605  42.442  34.340  12.359
61077W        W32606  33.754  43.406  10.754
61078W        W32607  23.637  23.234   1.956
61079W        W32608   3.216  35.921   3.729
61080W        W32609  40.367  17.103  14.957
61081W        W32610  11.424  12.424   1.053
61082W        W32611  18.433  22.861   4.101
61083W        W32612   9.748  38.123   1.658
61084W        W32613  42.775  30.099  14.347
61085W        W32614  24.877  21.999  13.923
61086W        W32615  36.591   5.331   1.808
61087W        W32616   8.698  26.443  10.858
61088W        W32617  13.753  12.112  12.403
61089W        W32618  12.062  36.611  13.056
61090W        W32619  32.908   6.924   3.645
61091W        W32620  22.678   7.646   4.704
61092W        W32621  14.947  21.839   4.889
61093W        W32622  10.620  38.333   2.665
61094W        W32623  37.896  23.214   3.140
61095W        W32624  19.055  43.392   0.755
61096W        W32625   3.329  32.142  13.307
61097W        W32626  37.406   6.124   1.435
61098W        W32627  20.094  39.287   1.281
61099W        W32628  42.270  22.280  11.557
61100W        W32629  28.804  27.249  12.059
61101W        W32630  26.623  38.960  10.785
61102W        W32631  38.996  40.691  14.732
61103W        W32632  42.053  33.338  11.029
61104W        W32633  15.734   0.004  14.270
61105W        W32634  33.897  27.139  13.090
61106W        W32635  42.364  41.412   4.326
61107W        W32636   2.744  12.909   2.859
61108W        W32637   5.791   6.899  13.109
61109W        W32638  21.542  35.566  10.710
61110W        W32639   0.956   2.372   1.630
61111W        W32640   5.212  19.421   5.415
61112W        W32641  37.214  19.583  12.591
61113W        W32642   0.294  44.711  13.412
61114W        W32643  25.524  42.442   3.310
61115W        W32644  16.283  15.277  14.926
61116W        W32645   6.341  35.476  14.020
61117W        W32646  17.238   4.222   2.344
61118W        W32647  14.700   7.418  14.535
61119W        W32648  41.313  10.633  13.193
61120W        W32649  39.851  23.499   0.906
61121W        W32650  22.505  24.239  12.032
61122W        W32651   7.225  14.229   4.515
61123W        W32652  33.533  43.383   0.976
61124W        W32653  17.176  22.312  11.710
61125W        W32654  26.421  42.779   5.093
61126W        W32655  30.645  28.406  13.935
61127W        W32656   0.849  30.598  12.383
61128W        W32657   5.732  13.271   0.319
61129W        W32658  43.381  11.015   2.262
61130W        W32659  44.863  43.395   1.709
61131W        W32660  18.680  23.164   4.838
61132W        W32661  23.997  18.176  11.428
61133W        W32662   0.012   9.892  14.423
61134W        W32663  32.971  16.305   2.342
61135W        W32664  34.033  24.411   3.447
61136W        W32665  44.904  16.607   1.051
61137W        W32666  40.600  22.175  12.450
61138W        W32667  40.987  38.678  11.191
61139W        W32668  21.595  34.483  11.238
61140W        W32669  15.666  11.590   2.841
61141W        W32670  27.549  18.613  14.361
61142W        W32671   0.319  44.336  12.025
61143W        W32672  27.442  18.200  12.533
61144W        W32673  15.339  19.204  12.615
61145W        W32674  37.161   2.397   4.831
61146W        W32675  10.311  31.219  14.386
61147W        W32676   4.202  10.116   2.693
61148W        W32677  11.056   5.906   4.526
61149W        W32678  11.373  22.482  13.633
61150W        W32679  35.872  25.083  11.475
61151W        W32680  20.476  41.449   0.497
61152W        W32681  35.987  11.341  11.890
61153W        W32682  29.029   8.972  14.243
61154W        W32683  15.135  13.177   3.793
61155W        W32684  21.398  23.358   2.203
61156W        W32685  44.796  16.387  13.898
61157W        W32686  29.879   3.746  14.605
61158W        W32687   4.058  43.881   0.287
61159W        W32688  27.742  40.970   0.702
61160W        W32689  27.521  39.814  11.146
61161W        W32690  29.107  19.556   4.417
61162W        W32691  41.084  33.414   0.984
61163W        W32692  21.738  18.470   1.318
61164W        W32693   1.211  30.594  10.554
61165W        W32694  24.532  38.839   3.252
61166W        W32695  10.638  13.903   3.791
61167W        W32696  36.569  27.698  14.453
61168W        W32697  39.457   2.717   2.340
61169W        W32698  43.033   0.937  14.538
61170W        W32699  16.060  23.975   2.757
61171W        W32700  11.101  16.316  14.147
61172W        W32701  26.375  37.412  11.641
61173W        W32702  10.435  20.735  14.176
61174W        W32703  28.804  26.470  10.662
61175W        W32704  37.338  43.443  14.090
61176W        W32705  34.577   9.648  11.545
61177W        W32706  25.160  20.669   0.252
61178W        W32707  24.016  26.451  12.918
61179W        W32708   4.763   0.025  14.919
61180W        W32709  30.169  41.806  14.976
61181W        W32710  17.725  12.647   3.391
61182W        W32711  10.640  34.772  14.547
61183W        W32712  33.324  44.501   0.170
61184W        W32713   1.887  33.299   3.739
61185W        W32714  42.733  22.497   2.239
61186W        W32715  23.144  11.230  12.507
61187W        W32716  12.742  39.909  14.603
61188W        W32717  22.397  24.340   1.628
61189W        W32718   7.984  31.427  12.897
61190W        W32719  43.441   6.667   2.235
61191W        W32720  19.291   2.534   2.198
61192W        W32721  28.982   4.048  14.259
61193W        W32722  43.418   2.313   4.094
61194W        W32723  28.928   8.668  13.811
61195W        W32724   6.014  10.668   1.829
61196W        W32725  44.259  34.012  14.266
61197W        W32726  42.760  17.805  12.949
61198W        W32727  28.464   1.963  10.928
61199W        W32728  24.178  28.549  10.898
61200W        W32729  32.721  33.123  10.653
61201W        W32730  40.988  42.945   4.609
61202W        W32731  15.508   3.535   4.968
61203W        W32732  30.075  22.597   1.852
61204W        W32733  26.469   0.521  13.943
61205W        W32734  36.956  13.124  13.298
61206W        W32735  40.954  15.049   1.699
61207W        W32736  44.796   4.982  13.550
61208W        W32737  15.093  25.146  12.058
61209W        W32738  11.270  31.753   3.198
61210W        W32739  38.815   0.804   2.579
61211W        W32740  12.739  17.864   2.251
61212W        W32741  19.174  42.371   4.025
61213W        W32742  23.468  14.938  12.673
61214W        W32743  40.919  29.710  14.355
61215W        W32744  44.768  30.554   4.566
61216W        W32745  10.444  22.454  14.251
61217W        W32746  29.746  10.929  11.756
61218W        W32747  35.005  42.246   4.583
61219W        W32748  42.945  30.544   4.427
61220W        W32749   9.597   8.013  14.782
61221W        W32750   3.385   2.841  12.849
61222W        W32751   4.788   2.411  12.838
61223W        W32752  10.880  22.761   1.859
61224W        W32753   4.288  33.591   1.649
61225W        W32754   6.438  34.594   2.466
61226W        W32755  10.995  19.086  11.205
61227W        W32756   3.400  11.311  14.326
61228W        W32757  10.307  32.096  12.028
61229W        W32758   9.098  34.436   2.140
61230W        W32759  11.201  16.299   0.532
61231W        W32760  11.825  29.673   2.247
61232W        W32761  14.708  19.288  10.654
61233W        W32762  40.304  27.600  11.014
61234W        W32763   9.588  43.510   3.145
61235W        W32764  19.264  30.670  14.026
61236W        W32765  11.145  38.322  11.540
61237W        W32766  30.210   3.369  11.140
61238W        W32767  18.201  25.649   3.130
61239W        W32768  23.567  21.770  14.810
61240W        W32769  15.954  25.970   4.722
61241W        W32770  32.799  31.958  14.462
61242W        W32771  36.146   8.152  10.603
61243W        W32772   9.584  30.871   4.321
61244W        W32773  19.992  15.860   1.931
61245W        W32774   0.777   8.751  13.025
61246W        W32775   6.598  32.625   0.032
61247W        W32776  42.659   1.777   2.406
61248W        W32777  19.495  43.831   3.718
61249W        W32778  14.446  43.445   2.646
61250W        W32779  11.289  12.417  11.928
61251W        W32780   9.804  23.425   3.336
61252W        W32781   1.913  25.205   4.164
61253W        W32782  15.175  12.098  12.887
61254W        W32783  26.023   4.065   4.133
61255W        W32784  31.780  23.051  12.089
61256W        W32785   2.330  18.227   2.813
61257W        W32786  40.132  39.490  11.442
61258W        W32787  35.062  36.475  13.478
61259W        W32788  40.929  15.668   2.781
61260W        W32789   1.280  43.382  13.428
61261W        W32790  17.003  27.059  13.979
61262W        W32791  12.669  19.442  12.839
61263W        W32792  29.285  16.873  13.066
61264W        W32793  15.235  43.798  10.522
61265W        W32794   5.760  28.092   0.841
61266W        W32795  44.498  30.939  10.636
61267W        W32796  21.713  33.751   1.581
61268W        W32797  10.343  14.587   2.325
61269W        W32798  21.962  10.770  14.790
61270W        W32799  40.589  37.487  13.930
61271W        W32800  35.637  36.597   4.615
61272W        W32801  19.129  21.885   4.598
61273W        W32802  23.969  31.674  13.283
61274W        W32803  38.617  12.760  12.878
61275W        W32804  43.919  33.980  13.476
61276W        W32805  29.139  27.941   0.487
61277W        W32806  26.299  25.309   3.147
61278W        W32807  14.879  37.504  14.538
61279W        W32808  15.412   5.201  12.947
61280W        W32809  36.889  42.955  12.045
61281W        W32810  20.050  26.035   2.726
61282W        W32811  39.907  10.306  12.935
61283W        W32812  22.660  18.072  14.040
61284W        W32813  33.416  38.659   2.754
61285W        W32814  20.171  44.989   2.180
61286W        W32815  12.382  31.451   0.343
61287W        W32816   1.735  38.806   2.962
61288W        W32817   4.453  14.725  11.490
61289W        W32818  14.682  43.241   4.681
61290W        W32819  14.339  32.652   3.054
61291W        W32820  33.451  11.054   3.107
61292W        W32821  21.455  25.084  13.916
61293W        W32822  16.042  44.132   3.241
61294W        W32823   2.604  28.278  11.978
61295W        W32824  23.445   4.950   4.656
61296W        W32825  16.130  27.647   0.308
61297W        W32826  16.410  40.831   3.380
61298W        W32827  22.157   8.400   0.612
61299W        W32828  23.804   5.676   0.817
61300W        W32829   8.724  19.586   5.551
61301W        W32830  16.806  11.864   0.369
61302W        W32831  25.059  41.454  12.180
61303W        W32832  21.539  36.103  10.665
61304W        W32833   9.678  24.862  13.456
61305W        W32834  31.416  36.125   4.608
61306W        W32835   2.830   7.712   1.693
61307W        W32836  12.634  14.070   3.124
61308W        W32837   7.617  16.590   3.334
61309W        W32838  19.240   9.329   0.466
61310W        W32839  35.407  13.651   2.293
61311W        W32840  39.409  37.634  10.698
61312W        W32841  29.648  31.371  14.829
61313W        W32842  15.054  40.506   0.375
61314W        W32843  14.548  39.328   2.279
61315W        W32844  23.422   0.002  11.580
61316W        W32845   7.322   5.378   4.513
61317W        W32846   8.132  21.090   1.746
61318W        W32847  40.433  43.581   1.278
61319W        W32848   2.909  23.694   0.377
61320W        W32849   4.265   0.723  12.280
61321W        W32850  36.879   6.401   2.839
61322W        W32851  40.391  19.296   2.418
61323W        W32852  14.606  12.667  12.583
61324W        W32853  36.589  25.678  14.812
61325W        W32854  30.491  36.136  11.563
61326W        W32855  23.229   4.360   2.780
61327W        W32856  22.793  13.121  11.069
61328W        W32857  25.515  25.258  13.010
61329W        W32858  29.134  40.299  11.914
61330W        W32859   3.104   0.511   0.246
61331W        W32860   2.744  17.225  11.440
61332W        W32861  10.824  11.427   2.841
61333W        W32862  22.098  35.858   0.960
61334W        W32863   2.341  31.605   3.192
61335W        W32864  39.477  27.735  13.347
61336W        W32865  18.626  27.516   2.809
61337W        W32866  13.634  30.542   3.126
61338W        W32867  24.027  21.068  14.260
61339W        W32868  10.298  42.299   3.785
61340W        W32869  19.509  26.100   0.823
61341W        W32870  15.392  28.272   3.223
61342W        W32871   4.271  44.949  13.838
61343W        W32872  12.900  31.138  14.447
61344W        W32873   0.518  30.056   1.622
61345W        W32874  35.027  16.093  13.519
61346W        W32875  24.301   8.698  13.918
61347W        W32876  36.749  12.421   1.297
61348W        W32877  26.285  43.283  13.183
61349W        W32878  11.200  41.046  13.134
61350W        W32879  37.880  11.863   4.036
61351W        W32880  32.410  29.810  13.798
61352W        W32881  20.137  42.228  13.760
61353W        W32882  41.248   9.620   0.075
61354W        W32883  11.172  38.691   2.940
61355W        W32884  25.615  28.173   3.139
61356W        W32885  34.547  11.737   2.098
61357W        W32886  44.213  34.473   4.157
61358W        W32887  33.405  43.831  13.963
61359W        W32888  29.607   5.793  14.924
61360W        W32889   7.072  15.116   1.678
61361W        W32890  41.280  11.183   0.456
61362W        W32891   8.185   4.652  11.459
61363W        W32892   5.232   4.304   3.320
61364W        W32893  18.005  13.588  13.036
61365W        W32894  25.133  29.549  11.740
61366W        W32895  15.359  10.426   1.673
61367W        W32896  13.852   5.785  13.859
61368W        W32897  10.896  29.215   2.274
61369W        W32898  37.114   8.595   3.498
61370W        W32899  23.267   1.925  11.067
61371W        W32900  36.940   0.481  11.102
61372W        W32901  40.863  44.778   1.517
61373W        W32902  42.946  25.995   2.291
61374W        W32903   4.350   5.738   3.321
61375W        W32904  37.297  15.269  13.475
61376W        W32905  16.579  21.185   1.915
61377W        W32906   9.799  12.997  14.677
61378W        W32907  24.112   1.270   0.271
61379W        W32908   7.111  41.515   4.381
61380W        W32909  13.431  16.339   4.037
61381W        W32910  36.913  37.808   3.243
61382W        W32911  37.816  28.404   2.290
61383W        W32912   0.965  16.706  10.380
61384W        W32913  16.694   1.935   2.876
61385W        W32914  40.690  23.605   3.648
61386W        W32915  13.041  43.125  12.462
61387W        W32916  18.221   1.823   3.768
61388W        W32917  22.647   5.102   0.209
61389W        W32918  28.638  15.781   2.750
61390W        W32919  29.430  23.340  12.007
61391W        W32920  44.317  31.019  12.909
61392W        W32921  38.866  20.098   1.810
61393W        W32922   9.926  21.718   0.392
61394W        W32923  29.908  24.534  12.024
61395W        W32924  29.568   6.381  11.979
61396W        W32925   8.339  36.403   1.602
61397W        W32926  15.723  40.255  14.496
61398W        W32927   5.453  42.835   4.536
61399W        W32928  17.601  23.563   2.103
61400W        W32929   3.013   9.370  14.528
61401W        W32930  18.722  20.250  13.005
61402W        W32931  28.574   4.723   1.808
61403W        W32932   0.341  20.103   2.556
61404W        W32933  24.696  37.565   4.490
61405W        W32934  38.380  38.308  11.812
61406W        W32935  39.121   0.316   4.206
61407W        W32936  25.935  38.416  12.892
61408W        W32937   2.114  23.069   0.297
61409W        W32938  15.590   6.420   0.126
61410W        W32939  29.289   3.408  12.475
61411W        W32940  43.635  37.271  13.382
61412W        W32941  41.463  14.798  12.959
61413W        W32942  40.605  20.281   1.308
61414W        W32943  10.948  36.881   3.896
61415W        W32944  37.547  41.648  11.441
61416W        W32945  17.103  19.345  10.658
61417W        W32946  11.207  18.711  11.511
61418W        W32947  21.050  24.121   1.726
61419W        W32948   9.685  24.497   2.078
61420W        W32949   4.192   7.393   3.142
61421W        W32950  26.613  28.033  13.411
61422W        W32951  44.999  33.492   1.478
61423W        W32952  38.653   3.079  11.128
61424W        W32953  20.188  35.915  10.367
61425W        W32954  43.850  31.839  12.033
61426W        W32955   8.227  14.034   2.836
61427W        W32956  44.947   7.443  11.365
61428W        W32957  35.985  19.577   0.413
61429W        W32958  30.560  31.448   4.335
61430W        W32959  13.534  40.285   0.451
61431W        W32960  33.208  21.494  12.949
61432W        W32961  37.336   2.843  11.491
61433W        W32962  14.677  19.488  14.353
61434W        W32963  26.246  11.353  12.294
61435W        W32964  42.230  12.907   4.539
61436W        W32965  28.731  12.608   2.221
61437W        W32966  29.414  41.895  13.756
61438W        W32967   5.863   0.882  12.835
61439W        W32968   1.797   9.640   1.732
61440W        W32969  23.259  44.418  12.644
61441W        W32970  34.590   7.396   0.904
61442W        W32971  11.406  23.470   1.073
61443W        W32972  32.275  25.903   2.643
61444W        W32973  38.886  30.191   1.780
61445W        W32974  44.364  20.506   3.626
61446W        W32975  38.764  17.202  13.831
61447W        W32976  40.120  32.159  12.935
61448W        W32977  31.987  24.699  14.507
61449W        W32978   1.703  22.403   0.849
61450W        W32979  18.245  30.375   2.478
61451W        W32980  30.559   2.331   2.325
61452W        W32981  38.937  41.810   1.298
61453W        W32982  32.841  34.882   1.218
61454W        W32983   1.040  25.884   3.750
61455W        W32984   7.360  43.205   2.826
61456W        W32985  26.274  20.784  11.976
61457W        W32986  41.420  10.195   1.335
61458W        W32987   3.492  10.093  14.872
61459W        W32988  27.754  22.683   4.258
61460W        W32989   7.209  29.332   0.623
61461W        W32990  28.183   2.097  12.655
61462W        W32991   3.433   1.396   1.879
61463W        W32992  39.528  23.633  12.915
61464W        W32993  29.852  29.089   1.925
61465W        W32994  10.677  16.560  14.319
61466W        W32995  24.483  42.489   4.435
61467W        W32996  44.271  36.359   3.188
61468W        W32997  13.191  21.491  10.758
61469W        W32998  17.626  29.110   4.131
61470W        W32999  13.402  13.266   4.581
61471W        W33000  36.877  40.929   4.217
61472W        W33001   1.794  35.995   1.924
61473W        W33002  22.112  22.518   1.888
61474W        W33003  44.216   9.816  11.161
61475W        W33004  20.089  27.924  10.438
61476W        W33005  35.777  43.441  10.589
61477W        W33006   2.770   9.449  13.533
61478W        W33007   1.735  10.271   3.551
61479W        W33008  19.231   4.133  14.993
61480W        W33009  14.844  25.134   5.308
61481W        W33010  34.474  33.944  14.861
61482W        W33011  33.584  28.141  11.995
61483W        W33012  19.480  38.067   4.246
61484W        W33013  29.618  28.456  13.394
61485W        W33014  19.413  36.817   4.563
61486W        W33015  43.515  34.043  12.660
61487W        W33016   3.724  10.848   2.864
61488W        W33017  37.295  26.126  11.159
61489W        W33018  16.669   2.157  13.530
61490W        W33019  13.063  13.825   2.947
61491W        W33020  41.598  18.671  14.970
61492W        W33021   1.356  43.923  13.311
61493W        W33022  37.077  11.757  13.888
61494W        W33023  34.020  16.190  12.635
61495W        W33024  31.522  28.858  12.940
61496W        W33025  11.808  19.084  13.802
61497W        W33026  15.564  27.169   1.151
61498W        W33027  31.997  15.398   2.775
61499W        W33028  12.250   1.943   2.568
61500W        W33029   0.833  28.027  12.451
61501W        W33030  21.948  23.660   0.294
61502W        W33031   3.941  39.371   4.301
61503W        W33032  13.935   1.405   4.596
61504W        W33033  18.942  28.222  13.296
61505W        W33034  29.270  13.364  10.939
61506W        W33035  34.781   6.526   3.267
61507W        W33036  30.457  13.047   4.134
61508W        W33037  43.879  41.086   2.963
61509W        W33038  14.185   1.308  12.846
61510W        W33039  40.528  23.474   1.509
61511W        W33040  35.909  32.415   0.350
61512W        W33041  13.189  14.889  11.530
61513W        W33042  39.021  38.328  12.101
61514W        W33043   2.727   9.032   0.945
61515W        W33044  44.189  26.516  11.058
61516W        W33045  30.560   1.723   4.250
61517W        W33046  32.558  13.764   2.390
61518W        W33047  20.644  33.868  14.891
61519W        W33048  43.950  20.119  10.375
61520W        W33049  36.764  16.556   3.647
61521W        W33050   4.206   5.665  11.100
61522W        W33051  15.673   0.276  13.328
61523W        W33052  39.374   0.790   1.713
61524W        W33053  30.032  37.460  11.518
61525W        W33054  19.079   4.215   0.483
61526W        W33055  19.925  20.089  11.487
61527W        W33056  44.793  15.193   3.800
61528W        W33057   6.004  34.669  14.476
61529W        W33058  41.807  36.453  10.818
61530W        W33059  30.878  18.806  13.376
61531W        W33060  20.043  44.341  13.394
61532W        W33061  28.983   2.882   0.218
61533W        W33062  23.975  13.927   4.306
61534W        W33063  28.423  14.490  14.946
61535W        W33064   9.678  27.085  13.158
61536W        W33065  18.454  25.768  13.918
61537W        W33066  28.908  17.083  12.361
61538W        W33067  17.226  11.662  11.520
61539W        W33068  13.801   5.895  11.151
61540W        W33069  33.092  11.590   3.753
61541W        W33070  36.584  12.170  12.708
61542W        W33071   8.802  13.621  10.323
61543W        W33072  21.984  30.587   3.143
61544W        W33073  22.463   0.359  13.008
61545W        W33074  17.689  23.187   3.868
61546W        W33075  34.912  13.414  10.844
61547W        W33076  14.628  10.293  10.584
61548W        W33077  38.796  33.159   2.416
61549W        W33078  44.191  25.126   1.272
61550W        W33079  16.840  14.571  13.490
61551W        W33080  10.146  17.157   2.250
61552W        W33081  17.300  38.855   1.955
61553W        W33082  27.875  36.039  12.321
61554W        W33083  18.091   1.381   1.015
61555W        W33084   6.283  11.179  13.991
61556W        W33085  19.621  22.412   3.673
61557W        W33086  41.280  27.996  14.969
61558W        W33087  39.304   7.604   4.704
61559W        W33088  27.449   5.286   3.386
61560W        W33089  30.424  42.920   0.924
61561W        W33090  41.779  16.486   1.858
61562W        W33091  14.832   5.849  11.022
61563W        W33092  37.980  20.770   3.214
61564W        W33093   3.864  15.817  14.958
61565W        W33094  17.541   9.878  14.026
61566W        W33095  18.613   2.451  12.673
61567W        W33096   2.432  28.835  10.666
61568W        W33097  28.225  26.659   3.047
61569W        W33098  24.225   4.945  13.915
61570W        W33099  13.705  25.505   3.958
61571W        W33100  11.268  36.933   1.238
61572W        W33101  19.028  13.567  11.633
61573W        W33102  29.698  42.679  12.974
61574W        W33103   8.691  28.783  13.451
61575W        W33104  37.499  21.716   4.178
61576W        W33105   0.569  24.146   4.838
61577W        W33106  39.359  15.240  13.141
61578W        W33107  17.136   0.298   4.131
61579W        W33108  24.491  31.570   0.466
61580W        W33109  43.885  22.983   2.199
61581W        W33110  30.453  35.640   3.246
61582W        W33111  26.971   1.390   3.234
61583W        W33112   5.217  41.352   2.830
61584W        W33113   2.307  39.773  10.660
61585W        W33114  14.063   0.393   3.320
61586W        W33115  36.909  44.859   1.815
61587W        W33116  13.194  42.735  11.168
61588W        W33117  37.485  41.011  12.231
61589W        W33118  39.506   4.385  12.536
61590W        W33119  11.319  22.078   0.910
61591W        W33120  32.728  43.501  13.038
61592W        W33121  12.128  39.039  14.816
61593W        W33122  36.897  10.260  12.915
61594W        W33123  17.084  22.711   5.317
61595W        W33124  27.411  11.313   2.632
61596W        W33125  15.607   1.240  12.923
61597W        W33126   1.416  26.613  12.589
61598W        W33127  13.343  17.584   1.325
61599W        W33128  16.058   6.946  12.808
61600W        W33129  28.837  22.594   0.723
61601W        W33130  31.778  20.531  13.547
61602W        W33131  12.089  28.089   3.804
61603W        W33132  37.983  44.955   4.744
61604W        W33133  40.437  12.185  10.761
61605W        W33134   6.479   3.776   1.962
61606W        W33135  21.266   3.397  12.052
61607W        W33136  35.204  43.817  12.052
61608W        W33137   2.003  11.194   2.968
61609W        W33138  32.151  29.063   4.244
61610W        W33139  11.008   5.374  11.463
61611W        W33140  31.946  39.314   2.330
61612W        W33141  23.649  40.945  13.875
61613W        W33142  29.866  39.740   3.785
61614W        W33143  40.303  26.351  14.923
61615W        W33144  28.313   7.903  11.504
61616W        W33145   6.264  36.328   4.619
61617W        W33146  27.411   7.891   0.464
61618W        W33147  28.885  18.261   0.318
61619W        W33148  44.799  44.772  10.695
61620W        W33149  26.204  16.773   2.637
61621W        W33150  31.371  32.829   3.236
61622W        W33151  28.312  18.198   1.217
61623W        W33152  26.395  21.934  13.894
61624W        W33153   3.764  12.177   3.543
61625W        W33154   9.471  23.154  14.021
61626W        W33155   6.603  33.937  11.951
61627W        W33156   5.197  33.603  14.181
61628W        W33157  10.637  40.598   2.354
61629W        W33158  21.376  37.209  11.549
61630W        W33159   2.287  43.841   3.319
61631W        W33160   3.238  39.383  13.387
61632W        W33161  30.111  13.174   2.171
61633W        W33162  42.007  29.501   3.337
61634W        W33163  32.892  11.575  14.443
61635W        W33164  29.020  35.771   4.188
61636W        W33165  18.584  30.965  13.353
61637W        W33166  15.561  27.693  14.537
61638W        W33167  18.215  22.591   2.802
61639W        W33168  37.627   5.685   1.148
61640W        W33169   4.903   0.668   4.758
61641W        W33170  33.571  13.364   5.203
61642W        W33171  38.769   9.344   3.335
61643W        W33172   8.817   8.646   3.737
61644W        W33173  23.895   1.771  13.819
61645W        W33174  35.625  23.109   3.811
61646W        W33175  22.536   7.869  10.108
61647W        W33176  28.789  11.702  14.682
61648W        W33177  18.499  22.314  12.418
61649W        W33178  33.200  31.881   4.601
61650W        W33179  29.957  31.899   3.730
61651W        W33180  18.549  39.002  14.526
61652W        W33181  10.752  18.502  11.403
61653W        W33182  29.644  42.175  12.994
61654W        W33183  38.797  33.012   1.262
61655W        W33184  15.373  15.538  13.244
61656W        W33185   1.326  15.954  11.996
61657W        W33186  30.054   2.310  12.165
61658W        W33187   4.810  15.539  13.798
61659W        W33188  22.956  38.965   2.246
61660W        W33189  41.280  39.279  14.366
61661W        W33190  26.478   4.344  11.501
61662W        W33191  38.068  36.794   2.495
61663W        W33192  36.477  36.627   2.868
61664W        W33193   5.632  29.778   2.601
61665W        W33194   2.692  36.115  14.761
61666W        W33195  12.307  36.136  13.000
61667W        W33196  42.495   1.844  14.833
61668W        W33197  41.340  43.990   1.666
61669W        W33198  24.238  35.618  13.893
61670W        W33199  24.776  39.007   1.931
61671W        W33200  42.466  42.092  14.420
61672W        W33201  24.126  39.326  10.516
61673W        W33202  31.450  15.318  13.477
61674W        W33203  25.957  27.671   3.270
61675W        W33204  36.057   6.937   2.788
61676W        W33205   1.131  35.485   4.064
61677W        W33206  14.679   3.264   0.333
61678W        W33207   0.227  13.310  12.344
61679W        W33208  44.762   9.891   4.587
61680W        W33209  11.776  17.292  11.127
61681W        W33210  18.724  13.244  10.751
61682W        W33211  10.854  16.709   4.140
61683W        W33212  43.080  12.398  11.830
61684W        W33213  37.834   7.887   2.756
61685W        W33214  14.303   0.527  14.944
61686W        W33215  17.264  16.250  14.759
61687W        W33216  44.413  39.857  11.182
61688W        W33217  19.205   9.350  12.417
61689W        W33218  33.047   0.950   4.340
61690W        W33219   5.772  10.137   1.203
61691W        W33220  32.664  39.011   2.211
61692W        W33221  27.406  17.521   3.795
61693W        W33222  41.250  41.938   2.354
61694W        W33223   1.837  33.610   4.147
61695W        W33224  32.138  44.702   1.219
61696W        W33225  37.961  28.136  13.317
61697W        W33226  43.962   9.332  12.073
61698W        W33227  22.216   9.357   0.339
61699W        W33228  34.318  36.346  14.790
61700W        W33229   8.570  13.318   2.389
61701W        W33230  26.503  21.260   1.224
61702W        W33231  40.635  21.759   2.941
61703W        W33232   4.350  36.324   0.274
61704W        W33233  41.500  32.365   0.339
61705W        W33234  38.402   6.324  11.217
61706W        W33235  10.869  40.989   3.775
61707W        W33236  21.389   2.861  14.890
61708W        W33237  33.131  16.104   4.894
61709W        W33238  12.811  23.598   1.656
61710W        W33239  42.572   8.445  11.978
61711W        W33240  25.249  40.296  11.587
61712W        W33241  14.147  37.144  12.161
61713W        W33242   4.689   0.396  10.209
61714W        W33243  26.412  42.783   4.578
61715W        W33244   6.035  18.131  14.313
61716W        W33245   9.475  13.206  14.330
61717W        W33246  15.541   1.758   1.872
61718W        W33247  44.301  30.016   4.755
61719W        W33248  41.004  35.325   2.374
61720W        W33249   5.345  36.255  13.323
61721W        W33250  41.886  22.802  11.103
61722W        W33251  36.117   2.988  14.874
61723W        W33252  24.075  26.682   1.892
61724W        W33253  16.665  15.036   0.644
61725W        W33254  12.664  36.861   2.756
61726W        W33255  26.263  40.819  11.039
61727W        W33256  25.329  20.611  12.150
61728W        W33257  18.622  18.188   0.443
61729W        W33258  19.398  20.294  12.386
61730W        W33259  19.634  38.512  10.771
61731W        W33260  23.067  28.686  10.560
61732W        W33261  17.790   6.223   1.774
61733W        W33262  13.252  13.768  12.361
61734W        W33263  41.454  35.262   3.299
61735W        W33264   8.452  20.046   2.102
61736W        W33265  15.885  43.522   2.741
61737W        W33266  40.210  38.791  12.092
61738W        W33267  20.361  28.704   4.609
61739W        W33268   9.280  18.556  13.003
61740W        W33269  17.158   4.038   4.597
61741W        W33270  38.419   9.742   4.226
61742W        W33271  27.411  39.467  10.779
61743W        W33272  44.919  29.167  14.370
61744W        W33273   9.529  29.553  12.953
61745W        W33274   6.790  12.859   4.562
61746W        W33275  13.000  25.135   5.024
61747W        W33276   0.469   3.701   3.760
61748W        W33277  16.334  35.032   0.759
61749W        W33278   8.972  41.358   5.114
61750W        W33279  36.437  26.193   2.176
61751W        W33280   3.240   3.376   1.341
61752W        W33281  19.343  40.994  11.445
61753W        W33282  32.595  35.055  12.558
61754W        W33283  33.367  20.183   1.049
61755W        W33284  44.107  23.348   1.402
61756W        W33285  41.906  13.895   1.465
61757W        W33286  16.124   0.185   2.188
61758W        W33287  19.561  40.309  13.392
61759W        W33288   3.249   6.294  11.615
61760W        W33289  32.334  26.941   5.532
61761W        W33290  17.630  34.449  14.255
61762W        W33291  17.367   6.224  10.862
61763W        W33292  16.846  30.586  13.370
61764W        W33293  16.594  37.970   0.513
61765W        W33294  25.003  39.688   3.139
61766W        W33295   3.742   8.150  13.008
61767W        W33296  24.693  35.373   2.331
61768W        W33297  19.721  38.112   2.924
61769W        W33298  40.883   3.764  12.892
61770W        W33299   6.014   1.634   0.453
61771W        W33300  29.996  37.874  11.809
61772W        W33301  42.897  14.707  13.754
61773W        W33302  14.536  40.596   0.498
61774W        W33303  38.126  25.691   3.280
61775W        W33304   2.567  21.092   0.297
61776W        W33305   4.984  19.544  12.461
61777W        W33306  28.459  11.447  14.390
61778W        W33307  15.379  35.979  12.410
61779W        W33308  10.859  36.360  10.730
61780W        W33309  16.823   7.255   4.117
61781W        W33310  38.927  30.589   2.150
61782W        W33311   9.774  34.915  10.620
61783W        W33312  32.027  27.728   2.375
61784W        W33313  32.489   0.550  14.101
61785W        W33314  21.979  20.485  12.595
61786W        W33315  25.693  26.658   2.470
61787W        W33316  13.763  43.348   0.286
61788W        W33317  24.917  21.250  13.402
61789W        W33318  18.220  29.359  13.486
61790W        W33319  13.331  27.885   3.720
61791W        W33320  17.255  44.478   1.185
61792W        W33321  16.496  11.311   1.253
61793W        W33322   3.215  32.730  12.749
61794W        W33323  17.570  13.033   0.384
61795W        W33324  11.990  17.809  10.476
61796W        W33325  16.988  12.311   2.931
61797W        W33326  30.431   7.865  10.731
61798W        W33327   5.843  40.554   2.959
61799W        W33328   6.851  31.007   2.871
61800W        W33329  16.395  19.248  10.180
61801W        W33330   2.461   2.360  14.979
61802W        W33331  36.006  28.427  12.115
61803W        W33332   5.143   8.512  13.936
61804W        W33333  23.561  27.781  13.951
61805W        W33334  23.840  18.793  11.196
61806W        W33335  19.065  14.989   1.876
61807W        W33336   2.988   7.627  10.764
61808W        W33337  25.469  29.882   2.202
61809W        W33338  28.360  36.798  12.461
61810W        W33339  13.364   1.936   5.121
61811W        W33340  31.228  41.907  10.979
61812W        W33341  34.587  18.692   3.764
61813W        W33342  14.068  24.920   1.421
61814W        W33343   3.931   8.422  12.155
61815W        W33344  12.806   8.776  12.462
61816W        W33345  39.318  44.837  13.362
61817W        W33346  32.689  28.034   4.600
61818W        W33347  16.221  10.975  12.607
61819W        W33348  22.676  11.251   4.564
61820W        W33349  39.781  19.580   0.336
61821W        W33350   6.461   4.260  12.519
61822W        W33351  17.736  35.098   0.377
61823W        W33352  24.030  14.011   4.822
61824W        W33353  37.462  10.359   4.979
61825W        W33354  13.996   6.783   4.392
61826W        W33355  22.516  42.717  11.382
61827W        W33356  44.468  24.644   5.118
61828W        W33357  30.822  25.480  11.985
61829W        W33358  34.364  17.592  12.905
61830W        W33359  12.104   2.198   4.911
61831W        W33360  17.192   4.200   1.831
61832W        W33361   0.315  41.893   0.886
61833W        W33362  39.095  11.054   1.323
61834W        W33363  36.008  27.009  11.415
61835W        W33364  29.273  34.491  11.119
61836W        W33365  41.786   8.898   2.710
61837W        W33366  26.744  22.042   3.605
61838W        W33367   8.209   6.372  14.778
61839W        W33368  32.539  20.660  12.162
61840W        W33369   5.814  26.259  13.921
61841W        W33370  31.569  26.645   0.066
61842W        W33371  13.944  36.224  14.844
61843W        W33372  31.640  35.949  12.929
61844W        W33373  41.405   2.396  12.255
61845W        W33374  13.013  25.047   2.459
61846W        W33375  36.461  17.229   4.166
61847W        W33376  35.631   9.202  12.625
61848W        W33377  24.066  18.219   4.575
61849W        W33378  35.573  43.150   4.055
61850W        W33379  29.604   6.484  11.463
61851W        W33380   5.163  35.504   4.244
61852W        W33381  20.661   0.990   4.119
61853W        W33382  38.372  27.029   4.030
61854W        W33383   2.766  19.856  13.786
61855W        W33384  42.141   7.718  14.365
61856W        W33385  16.847   1.714  13.341
61857W        W33386   0.507  37.166   4.422
61858W        W33387  33.496  32.600   2.411
61859W        W33388  34.939  18.373   0.874
61860W        W33389  24.969  40.398   2.800
61861W        W33390  26.375  28.379   0.312
61862W        W33391   2.376  19.174  13.410
61863W        W33392  18.733  14.153   0.489
61864W        W33393  35.005  21.600   4.603
61865W        W33394  18.219  38.959  14.970
61866W        W33395  28.644  41.309  14.504
61867W        W33396  29.043   0.913  14.744
61868W        W33397  37.593  18.266  10.476
61869W        W33398  41.877   6.388   4.898
61870W        W33399   3.438   9.269  14.239
61871W        W33400   7.204   8.350   4.978
61872W        W33401   9.880   5.287  14.386
61873W        W33402  11.814  30.607   4.650
61874W        W33403  24.195  40.512  13.404
61875W        W33404   3.408  12.933  12.752
61876W        W33405   7.988  12.578   2.744
61877W        W33406  20.113  21.628   3.937
61878W        W33407  31.520  23.971   2.240
61879W        W33408  43.355  28.782   1.901
61880W        W33409  44.263  19.701  12.136
61881W        W33410   7.692  13.197  10.896
61882W        W33411  37.103   2.367  11.523
61883W        W33412  28.520  40.870  13.536
61884W        W33413  14.616  40.918  11.226
61885W        W33414  16.198  36.391  13.975
61886W        W33415   8.479  31.440  13.375
61887W        W33416  39.821  11.365  13.969
61888W        W33417  14.237  21.308   0.477
61889W        W33418  21.421  42.521   1.550
61890W        W33419  27.158   4.243   3.609
61891W        W33420   9.021   6.929   3.902
61892W        W33421  35.011  14.179  14.051
61893W        W33422  23.209  11.964  13.892
61894W        W33423  29.816  15.852  11.905
61895W        W33424  11.728  42.460   4.595
61896W        W33425  18.601  14.449  12.212
61897W        W33426  14.142  39.927  14.555
61898W        W33427  11.193  10.218  12.034
61899W        W33428  10.347  11.019   3.663
61900W        W33429  37.473  41.524   3.734
61901W        W33430  42.061  17.947  13.657
61902W        W33431   3.009   2.308  11.917
61903W        W33432   6.714  34.982  10.435
61904W        W33433  42.905  27.539  11.600
61905W        W33434  36.207  17.893   2.822
61906W        W33435  38.097   2.354   0.022
61907W        W33436  20.290  25.099   4.119
61908W        W33437  34.094  31.489  12.520
61909W        W33438   0.925   2.384  11.029
61910W        W33439  31.313  11.099   3.076
61911W        W33440  19.470  28.235  13.174
61912W        W33441  11.623  22.081  11.056
61913W        W33442  14.580  36.260   1.875
61914W        W33443   7.720  30.222  11.568
61915W        W33444   0.497  12.716  12.783
61916W        W33445  31.222  17.663  14.431
61917W        W33446  25.470  39.538   0.246
61918W        W33447  29.519  12.647  11.688
61919W        W33448  14.018  22.802  12.184
61920W        W33449  40.803  42.903   5.076
61921W        W33450  29.199  38.273  11.968
61922W        W33451  15.183  26.553  12.573
61923W        W33452  41.947   7.215   4.680
61924W        W33453  35.052  26.168  13.878
61925W        W33454  18.792   6.019   4.284
61926W        W33455  13.149  21.615   2.229
61927W        W33456  29.860  39.387  14.348
61928W        W33457  37.524  32.174  12.380
61929W        W33458  42.378   5.368   2.755
61930W        W33459  15.870  24.951   3.280
61931W        W33460  11.911  14.179  11.639
61932W        W33461  17.299  37.996  13.418
61933W        W33462  42.571   1.390  11.105
61934W        W33463   5.706  11.301  12.348
61935W        W33464  24.231  17.702  12.123
61936W        W33465  18.614  31.155  12.879
61937W        W33466  12.517  31.447   2.641
61938W        W33467  44.833  22.968  12.557
61939W        W33468   2.289  11.660  10.108
61940W        W33469  21.113  43.233  13.933
61941W        W33470  14.857  27.699  14.545
61942W        W33471  34.667   3.808   1.472
61943W        W33472  12.110  27.123   3.332
61944W        W33473  13.975  22.278   0.588
61945W        W33474  23.774   2.665  10.723
61946W        W33475  27.972   7.771   2.391
61947W        W33476  40.118  40.292  14.384
61948W        W33477  11.345  11.065  10.781
61949W        W33478   8.565  35.649  14.845
61950W        W33479  15.250   8.202   4.254
61951W        W33480  23.283  28.293   1.797
61952W        W33481  26.988   0.685   2.584
61953W        W33482  24.043  10.249  13.391
61954W        W33483  30.179  16.208  12.407
61955W        W33484  10.548   5.682   4.380
61956W        W33485  15.707  11.724  11.362
61957W        W33486  22.985  38.422  12.005
61958W        W33487   3.940  19.658   1.645
61959W        W33488  17.251  33.411   0.356
61960W        W33489  22.858  38.708   1.432
61961W        W33490   7.241   4.746   1.934
61962W        W33491  12.750  16.386   1.224
61963W        W33492  10.168   4.682   2.632
61964W        W33493  33.496  12.876   1.430
61965W        W33494  25.943  21.160  12.579
61966W        W33495  17.270  26.399  11.138
61967W        W33496  24.743  34.479  10.754
61968W        W33497  34.845   5.167   1.217
61969W        W33498  33.897  28.490  13.769
61970W        W33499   5.260  15.280  13.861
61971W        W33500   0.480  15.908  11.130
61972W        W33501   0.077  37.030   2.769
61973W        W33502  43.382   9.357  12.958
61974W        W33503  18.171   2.865  11.085
61975W        W33504  13.137  26.887   3.138
61976W        W33505  37.591  14.325   2.402
61977W        W33506  17.713   6.585  14.876
61978W        W33507  10.185  17.607   3.368
61979W        W33508   2.981  24.011   2.310
61980W        W33509  41.065  30.669   1.361
61981W        W33510  12.209  12.079   1.212
61982W        W33511   8.360  12.443   1.817
61983W        W33512  28.420   0.361  14.097
61984W        W33513  33.068   7.212  11.451
61985W        W33514  29.968  34.153   2.405
61986W        W33515  33.560   5.423   4.082
61987W        W33516  18.886  14.844  12.006
61988W        W33517  38.352  16.777  11.979
61989W        W33518  19.248  36.015  14.462
61990W        W33519  42.858  27.197   4.580
61991W        W33520  37.397  11.164  14.231
61992W        W33521   4.872   5.222   2.669
61993W        W33522  32.180  43.178   1.336
61994W        W33523  17.993  29.517  14.842
61995W        W33524  26.947   4.266   3.131
61996W        W33525  21.686  16.521  11.113
61997W        W33526  11.970  11.665   1.471
61998W        W33527   3.837   2.496  11.353
61999W        W33528  10.794   0.885  14.257
62000W        W33529  17.733  39.891   2.124
62001W        W33530  17.372   2.831  13.202
62002W        W33531   9.774  34.533  11.542
62003W        W33532  33.685  33.005  10.107
62004W        W33533  44.230  30.901   3.570
62005W        W33534   5.886  38.941  10.945
62006W        W33535   8.090  25.028  13.106
62007W        W33536  21.089  34.325   1.463
62008W        W33537   8.801  21.131  14.765
62009W        W33538  43.276   6.755  11.286
62010W        W33539  17.039  22.707  10.335
62011W        W33540   7.177   3.410   2.810
62012W        W33541   8.837   6.920   2.837
62013W        W33542   2.216  39.871  12.637
62014W        W33543   3.285  24.815  11.139
62015W        W33544  11.325   2.417  14.441
62016W        W33545  39.980  28.947   3.301
62017W        W33546   1.255  26.451  13.391
62018W        W33547  20.005  18.589  14.335
62019W        W33548  21.639  23.252   3.607
62020W        W33549  21.746   9.493   1.041
62021W        W33550  32.001   1.459  12.860
62022W        W33551  33.005  31.145   4.209
62023W        W33552  23.594  26.396  12.037
62024W        W33553  40.731   1.453   0.430
62025W        W33554   9.216  40.311   0.466
62026W        W33555  27.891   8.305   3.006
62027W        W33556  20.575   1.018   3.125
62028W        W33557  15.610  33.460  14.862
62029W        W33558  34.550  19.463   3.188
62030W        W33559  32.404  34.954  14.391
62031W        W33560  19.829  13.134  13.003
62032W        W33561  16.894  23.302  13.123
62033W        W33562  21.683  40.351  11.592
62034W        W33563  38.961  19.753   4.117
62035W        W33564  22.672   2.724   3.263
62036W        W33565  23.616  35.620  14.288
62037W        W33566  18.339  27.606  13.374
62038W        W33567  11.211  23.942  10.528
62039W        W33568  32.614  24.109  13.559
62040W        W33569  29.895  25.667   1.662
62041W        W33570   8.641  29.765   0.753
62042W        W33571   8.923  20.201   1.978
62043W        W33572   6.420   8.320   1.204
62044W        W33573   5.921  44.344  11.616
62045W        W33574  30.352  27.464  13.225
62046W        W33575   2.120  17.747   0.019
62047W        W33576  32.857  13.548  13.456
62048W        W33577  20.194  17.667   2.462
62049W        W33578  38.745   9.217  10.794
62050W        W33579  15.355   2.772  13.285
62051W        W33580  21.784  29.699   2.224
62052W        W33581  41.268  13.465  11.497
62053W        W33582  32.092  19.474   4.501
62054W        W33583   3.692  26.451   1.997
62055W        W33584  25.385  33.845   4.749
62056W        W33585  11.598  22.121  14.427
62057W        W33586  18.261  41.351   3.218
62058W        W33587  39.746   3.491  11.173
62059W        W33588  32.921  18.341   4.135
62060W        W33589  31.072   6.514   1.455
62061W        W33590   8.722  23.399  14.348
62062W        W33591  34.818   2.424   2.675
62063W        W33592  22.483  27.062   3.736
62064W        W33593  25.247  38.239  10.677
62065W        W33594   0.295  30.351  10.648
62066W        W33595  21.146  38.863  14.397
62067W        W33596  35.950  19.605  11.526
62068W        W33597  13.061   4.352   1.748
62069W        W33598  43.062   6.132  14.388
62070W        W33599   3.439  16.343   3.214
62071W        W33600  18.751  24.730   2.886
62072W        W33601  25.727  20.627  13.531
62073W        W33602  38.155   1.824   0.817
62074W        W33603  29.908  36.042  10.735
62075W        W33604  27.073  17.218  13.795
62076W        W33605  36.150  20.267  11.476
62077W        W33606  25.120  22.016   0.446
62078W        W33607  22.211  30.430   4.365
62079W        W33608   3.872   6.173   3.837
62080W        W33609  23.765  26.039   1.681
62081W        W33610  27.114  41.425   2.711
62082W        W33611   5.683  12.430  13.454
62083W        W33612  16.948  11.702   4.709
62084W        W33613  17.587  21.153   2.797
62085W        W33614  27.893  24.053  14.991
62086W        W33615  25.169  30.075   1.179
62087W        W33616  15.106  13.244  12.042
62088W        W33617  10.925  14.404  11.516
62089W        W33618  28.164  10.642  12.488
62090W        W33619  17.799  12.182  14.775
62091W        W33620  36.889   0.761  13.430
62092W        W33621  18.805  30.815  13.817
62093W        W33622  33.357  39.885  11.531
62094W        W33623   7.460   2.923  11.880
62095W        W33624  30.821  25.826   3.249
62096W        W33625  34.363  24.229   1.737
62097W        W33626  16.225  31.715  11.099
62098W        W33627   6.305   8.556   5.002
62099W        W33628  10.134  42.696  11.500
62100W        W33629  25.846  10.686   2.622
62101W        W33630  20.341  14.695  13.519
62102W        W33631   9.183   8.059   4.854
62103W        W33632  23.107   3.255   1.386
62104W        W33633  24.612   7.177  14.755
62105W        W33634  26.450  38.876   0.799
62106W        W33635   7.597  32.817  14.839
62107W        W33636   3.979  10.254  13.373
62108W        W33637   8.453  10.240   0.990
62109W        W33638  16.745  13.278  13.811
62110W        W33639  12.744  39.425  13.496
62111W        W33640  38.464  33.176   3.611
62112W        W33641  29.648  31.871  14.900
62113W        W33642  14.282  33.112  14.763
62114W        W33643  18.589  19.727  13.916
62115W        W33644  10.569  30.407  12.075
62116W        W33645  27.179  42.454  14.036
62117W        W33646  36.124   9.224  10.847
62118W        W33647  24.810  22.521   1.427
62119W        W33648  18.264  13.517   4.897
62120W        W33649  41.079  25.242  12.918
62121W        W33650  15.408  12.363  12.509
62122W        W33651   6.757   9.145  10.625
62123W        W33652  40.906  13.769  13.327
62124W        W33653  41.288  42.483   3.559
62125W        W33654  32.007  40.731  11.575
62126W        W33655  31.123  40.037   3.683
62127W        W33656  37.025  29.244   4.315
62128W        W33657   2.441  17.562  10.737
62129W        W33658   3.067  20.985  10.624
62130W        W33659   1.407  28.239  11.505
62131W        W33660  16.848  32.890  10.793
62132W        W33661  10.968  26.471   2.751
62133W        W33662  39.779  38.028   1.022
62134W        W33663  18.108  20.252   4.175
62135W        W33664  32.106  41.568  11.293
62136W        W33665   6.239  41.906  13.431
62137W        W33666  42.732   6.661   3.333
62138W        W33667  16.326   4.228   2.097
62139W        W33668  14.980  42.701  14.827
62140W        W33669  39.920  10.133  12.427
62141W        W33670  16.990  34.658   1.798
62142W        W33671  31.586  37.711   0.285
62143W        W33672  36.973  32.223   0.919
62144W        W33673  15.047   2.294   3.732
62145W        W33674  37.350   7.158  14.318
62146W        W33675   2.655  35.449   3.922
62147W        W33676  31.008   9.763   1.862
62148W        W33677  34.115  37.619  11.088
62149W        W33678  15.668  42.294  12.083
62150W        W33679  24.017   6.512  12.642
62151W        W33680  15.604  23.292   1.249
62152W        W33681  43.271  43.825   2.656
62153W        W33682  40.784   4.021  14.494
62154W        W33683  35.527  23.481  14.353
62155W        W33684  33.225  10.754   2.690
62156W        W33685  37.418   8.210   2.866
62157W        W33686  25.264   5.489   1.068
62158W        W33687   3.999   3.614  10.260
62159W        W33688  29.826   1.920  14.352
62160W        W33689   2.919  10.217  11.560
62161W        W33690  31.213   4.462   2.670
62162W        W33691   1.194  13.109   4.223
62163W        W33692  27.197   7.328   3.329
62164W        W33693  27.237  19.703   4.173
62165W        W33694   7.947  20.672  10.329
62166W        W33695  17.455  20.177   3.614
62167W        W33696  39.389  23.511  14.839
62168W        W33697  31.428  32.704   9.951
62169W        W33698   0.302  38.960   0.236
62170W        W33699  24.371  24.926   4.982
62171W        W33700  24.094   8.238   1.171
62172W        W33701  23.186  33.433  12.896
62173W        W33702  11.383  39.832  13.422
62174W        W33703  38.383  36.506  11.467
62175W        W33704  37.484   3.486  10.667
62176W        W33705  33.416  10.347  13.912
62177W        W33706  20.529   1.942   4.260
62178W        W33707   6.914  18.281   3.005
62179W        W33708  43.049   9.653   4.566
62180W        W33709  12.828  33.402   3.608
62181W        W33710   6.122  38.511  14.541
62182W        W33711   4.706  42.772   0.664
62183W        W33712  20.204  37.785  11.977
62184W        W33713  32.357  30.431   2.703
62185W        W33714  40.914  40.015   2.390
62186W        W33715  24.648  23.187  10.616
62187W        W33716  17.168  35.348  13.101
62188W        W33717   0.622  27.508  11.724
62189W        W33718  22.259   9.219  12.328
62190W        W33719  36.739  38.878  10.440
62191W        W33720   1.145  30.782  14.362
62192W        W33721  26.063  39.974   3.981
62193W        W33722  18.159  32.569   4.184
62194W        W33723   0.289  12.245   1.720
62195W        W33724  32.364  26.303   3.841
62196W        W33725   9.698  10.674   1.454
62197W        W33726  33.840  29.889  10.576
62198W        W33727   5.923  40.391   4.765
62199W        W33728   5.879  32.380  11.184
62200W        W33729  12.129  13.318   3.162
62201W        W33730   0.112  18.839   1.251
62202W        W33731  42.919  32.457   1.922
62203W        W33732  20.094   7.218   0.864
62204W        W33733   5.472  16.018  10.809
62205W        W33734  44.543  39.515  10.832
62206W        W33735  21.566  10.644  12.681
62207W        W33736   6.419  42.350   3.729
62208W        W33737  30.552  12.629   4.406
62209W        W33738  43.729  38.072   0.048
62210W        W33739  28.555   3.348  12.069
62211W        W33740  34.164  25.272  11.589
62212W        W33741  19.873   6.588   0.496
62213W        W33742  36.294  43.593   1.461
62214W        W33743  22.600  11.441   3.190
62215W        W33744   7.838   5.438   3.792
62216W        W33745  16.313  10.714  11.829
62217W        W33746   3.275  25.342  11.177
62218W        W33747  20.398  23.641   2.312
62219W        W33748  24.121  23.170  12.545
62220W        W33749  41.779  13.213  11.556
62221W        W33750  39.502  43.563   2.750
62222W        W33751  41.102  39.614  12.612
62223W        W33752  41.978   7.276   2.769
62224W        W33753  13.599  29.781   0.992
62225W        W33754  20.674  42.202  14.411
62226W        W33755  31.641  31.201  14.010
62227W        W33756  38.524  44.765   4.553
62228W        W33757  29.112   3.280  12.939
62229W        W33758   3.728   1.871   4.112
62230W        W33759   7.180  19.772   1.374
62231W        W33760   0.639   4.157  10.953
62232W        W33761   1.158   7.410   4.572
62233W        W33762  17.245  36.122  14.852
62234W        W33763  19.648  39.395   0.528
62235W        W33764  23.302  34.678  14.871
62236W        W33765   6.838   9.156   4.008
62237W        W33766   2.904  21.630  12.642
62238W        W33767   7.754  11.251  11.692
62239W        W33768  43.317  19.989  12.046
62240W        W33769  33.851  33.262  14.986
62241W        W33770   1.133   5.068   3.625
62242W        W33771  22.165  33.317   3.647
62243W        W33772  39.848  18.278   3.640
62244W        W33773   4.305   0.367  12.650
62245W        W33774  14.367   0.056   1.414
62246W        W33775  39.861  16.863   1.171
62247W        W33776  31.690  11.492  14.879
62248W        W33777   8.466  20.684  12.568
62249W        W33778  17.881  36.719   4.817
62250W        W33779   9.631   5.401   0.780
62251W        W33780  12.104  22.526   4.727
62252W        W33781   0.656  34.578  14.860
62253W        W33782  37.227   0.953   5.214
62254W        W33783   0.751  37.972  14.369
62255W        W33784   5.695   7.132  11.529
62256W        W33785   4.966  18.874  13.015
62257W        W33786  19.601  17.410   2.880
62258W        W33787  43.574  26.983  11.188
62259W        W33788  25.624  39.755  12.902
62260W        W33789  40.339  17.359   1.728
62261W        W33790  41.886   7.805   2.888
62262W        W33791  42.526   1.722   3.814
62263W        W33792   3.308   9.076   2.778
62264W        W33793  22.855  10.757   1.754
62265W        W33794  20.910  41.973  13.964
62266W        W33795   0.662  29.657  13.853
62267W        W33796   2.769  25.117  14.877
62268W        W33797   0.842  13.753   2.997
62269W        W33798   5.744  40.926   0.432
62270W        W33799  27.213  23.130  11.256
62271W        W33800   8.396  29.555   4.150
62272W        W33801   2.036  17.095   1.472
62273W        W33802  17.305   4.491  14.025
62274W        W33803  29.387  14.204   2.823
62275W        W33804  36.897  17.950   3.283
62276W        W33805  11.303   1.738  11.575
62277W        W33806   7.380  25.048  13.945
62278W        W33807  22.940   5.012  13.775
62279W        W33808  28.072  39.426   4.625
62280W        W33809  35.315  30.913   2.351
62281W        W33810  25.523   8.575  12.166
62282W        W33811  28.571  23.544   2.185
62283W        W33812   7.237  15.842   1.320
62284W        W33813   3.875  27.090  13.373
62285W        W33814  40.420   7.492   0.989
62286W        W33815  21.775  37.600  14.659
62287W        W33816  15.272  13.764  13.540
62288W        W33817  14.902   3.934  11.606
62289W        W33818   2.242  20.968   3.536
62290W        W33819  30.678  18.546   0.879
62291W        W33820  21.514  37.386   3.807
62292W        W33821  13.342  17.163  12.867
62293W        W33822   4.190   4.794   1.693
62294W        W33823  34.699  23.033   2.103
62295W        W33824  20.801  13.629   1.766
62296W        W33825  25.688  12.193  12.576
62297W        W33826   4.264  44.439   2.738
62298W        W33827   3.212   4.707   1.891
62299W        W33828  32.064  37.424   0.940
62300W        W33829  25.079  25.169   0.918
62301W        W33830   6.336  44.069  11.536
62302W        W33831  23.655  11.349   4.157
62303W        W33832   9.153  33.580  11.559
62304W        W33833  23.604  35.548   2.386
62305W        W33834  15.757  42.040   0.101
62306W        W33835  13.776  29.684  13.865
62307W        W33836  21.004  35.555   1.659
62308W        W33837  30.386   3.122   4.184
62309W        W33838  38.129  10.761  12.816
62310W        W33839  43.507  19.300   0.521
62311W        W33840  28.438  28.153  14.430
62312W        W33841   4.698  12.389   0.539
62313W        W33842  15.273  41.529  13.010
62314W        W33843  13.402   5.036  13.027
62315W        W33844  13.679   6.496  12.575
62316W        W33845  18.105  13.902   2.093
62317W        W33846  21.871   4.397  13.140
62318W        W33847  41.279   1.731  11.185
62319W        W33848  37.969  25.213  11.481
62320W        W33849   0.752  26.706  14.321
62321W        W33850  41.722  33.439  11.424
62322W        W33851  30.231  23.085   4.649
62323W        W33852  28.641  26.545   1.860
62324W        W33853   3.278  29.533   4.575
62325W        W33854  11.139  36.382  12.877
62326W        W33855  39.537  33.478  12.210
62327W        W33856  10.514  19.797  13.849
62328W        W33857  40.249  42.483   1.280
62329W        W33858  12.336  22.967   2.184
62330W        W33859  26.953   0.015   1.708
62331W        W33860  14.761  10.189   1.652
62332W        W33861  22.058  20.014   3.637
62333W        W33862  36.087   2.443   1.433
62334W        W33863  43.061   5.975  12.160
62335W        W33864  12.765  10.742  11.165
62336W        W33865  30.492  32.437  10.720
62337W        W33866   8.257  41.971   4.436
62338W        W33867  23.689  17.742  11.911
62339W        W33868  29.114  33.019   0.441
62340W        W33869  38.494  19.173  14.486
62341W        W33870  38.947  35.044  12.147
62342W        W33871  30.125   4.114   2.574
62343W        W33872  44.208  36.634  12.082
62344W        W33873  43.912   7.806   1.434
62345W        W33874   3.762  15.474   3.211
62346W        W33875  18.236  26.313   1.442
62347W        W33876  32.969  43.974  12.877
62348W        W33877  35.868  18.159   0.016
62349W        W33878   6.728  38.939   0.660
62350W        W33879  37.039  14.403   2.295
62351W        W33880  39.368  10.327  13.460
62352W        W33881   5.744  31.069  12.358
62353W        W33882  28.873   6.735  13.181
62354W        W33883  42.418   0.149  10.678
62355W        W33884  31.959  41.285   2.845
62356W        W33885  32.222  33.830  11.247
62357W        W33886  35.618  35.566  14.453
62358W        W33887  41.286  31.054  10.697
62359W        W33888   1.991   1.514   3.173
62360W        W33889  42.863  17.625   3.953
62361W        W33890  13.700  38.066  14.836
62362W        W33891  35.572  11.627  13.827
62363W        W33892  25.250   5.996   0.892
62364W        W33893  44.723  40.056  11.643
62365W        W33894  44.615   9.343  13.885
62366W        W33895  33.353  10.138   1.417
62367W        W33896  18.721  37.102  12.759
62368W        W33897  43.656  15.267   1.331
62369W        W33898   9.717  27.260   0.438
62370W        W33899  34.919  43.502   3.027
62371W        W33900  17.590   0.297   0.801
62372W        W33901  37.386  24.028  10.789
62373W        W33902  32.503  43.703   0.814
62374W        W33903  24.123  30.973  12.178
62375W        W33904  31.462  37.295  12.757
62376W        W33905   7.928   3.388   4.056
62377W        W33906  34.674  33.357  12.518
62378W        W33907  32.548  44.289  14.888
62379W        W33908  26.258  26.984   3.240
62380W        W33909  14.174  14.620  11.221
62381W        W33910   5.359  32.008   2.629
62382W        W33911  25.344  15.612  11.645
62383W        W33912  23.005  15.733  11.047
62384W        W33913  35.934   9.188   1.409
62385W        W33914  10.648  27.387   0.939
62386W        W33915  13.722  35.043  14.498
62387W        W33916  10.597  42.515  11.401
62388W        W33917  27.129  17.576   2.786
62389W        W33918  37.841  42.461   4.330
62390W        W33919   1.289  40.868  13.891
62391W        W33920  22.072  36.790   3.305
62392W        W33921  25.449  37.465   3.347
62393W        W33922  40.599  20.976  11.215
62394W        W33923  20.626  26.686   2.878
62395W        W33924  38.090  37.338  10.105
62396W        W33925  12.435  27.112  10.700
62397W        W33926  17.318  44.566   3.631
62398W        W33927  15.019   6.203  10.288
62399W        W33928  13.900  44.983  11.624
62400W        W33929  33.781   2.959   1.392
62401W        W33930   1.305   0.596  12.923
62402W        W33931  17.800  20.617   3.459
62403W        W33932   8.606  13.691  14.417
62404W        W33933  12.856   0.786   3.850
62405W        W33934  30.819  43.363  11.118
62406W        W33935  18.131   8.857  13.476
62407W        W33936  14.204   8.133  14.819
62408W        W33937  25.553  32.823   3.643
62409W        W33938   7.208  23.225   2.670
62410W        W33939   2.033  36.115   3.270
62411W        W33940  26.211  29.569   3.284
62412W        W33941  28.223  42.584  14.356
62413W        W33942  17.284  17.608  11.184
62414W        W33943   3.216  23.021  13.366
62415W        W33944   3.243   8.132  13.293
62416W        W33945  42.948  28.269  12.124
62417W        W33946  29.327   3.453   0.882
62418W        W33947   6.204  39.810   1.827
62419W        W33948   8.829   0.190  12.065
62420W        W33949  24.067  22.513  14.500
62421W        W33950  25.438  31.083  14.839
62422W        W33951  18.072  19.208   4.548
62423W        W33952  11.824  30.154  14.476
62424W        W33953  31.847  32.591  13.895
62425W        W33954  44.990  10.372   0.042
62426W        W33955  14.164  22.169   1.063
62427W        W33956  10.316   2.504   1.373
62428W        W33957  36.500   8.623  13.957
62429W        W33958  27.137   3.235  12.008
62430W        W33959  26.427   8.744   2.825
62431W        W33960   1.386  31.154  11.356
62432W        W33961  23.739  19.963  13.870
62433W        W33962  30.927  28.679   3.541
62434W        W33963  25.639  11.766  13.744
62435W        W33964  40.294  11.673   1.264
62436W        W33965   7.423  41.531   3.980
62437W        W33966  27.217   2.703  11.944
62438W        W33967  18.547  31.559  12.545
62439W        W33968  29.349  15.569  10.532
62440W        W33969  18.220  24.357   4.173
62441W        W33970   5.425  18.770  12.807
62442W        W33971   8.617  16.573   1.875
62443W        W33972  22.338   8.373  12.800
62444W        W33973   0.400  23.465   0.785
62445W        W33974   0.485  38.020  11.466
62446W        W33975  34.198  25.420   4.525
62447W        W33976  14.869  36.054  10.347
62448W        W33977  22.745  20.081   0.739
62449W        W33978  21.599  37.445   1.213
62450W        W33979  17.159  33.524  11.755
62451W        W33980  32.468   7.634   1.677
62452W        W33981  17.646  36.930   1.774
62453W        W33982  25.307  16.127  12.919
62454W        W33983  15.164   6.981   2.605
62455W        W33984  44.223   3.896  11.913
62456W        W33985  22.076   8.244  12.372
62457W        W33986  42.228  44.556  11.540
62458W        W33987  25.512  11.403   1.919
62459W        W33988  24.566  12.890  13.915
62460W        W33989  32.405  36.015   3.724
62461W        W33990   0.396  12.568  11.465
62462W        W33991   7.388  16.161   3.111
62463W        W33992   1.571  31.933   1.219
62464W        W33993   4.360  21.120  14.418
62465W        W33994  35.095  23.080   2.919
62466W        W33995  24.458   2.447   1.872
62467W        W33996  12.792  28.237  11.192
62468W        W33997  16.678   4.675  12.978
62469W        W33998  35.993  15.720  12.592
62470W        W33999  28.179  28.819   5.072
62471W        W34000  23.646  33.392  10.791
62472W        W34001  22.768  15.743   3.662
62473W        W34002  35.440  40.635   3.239
62474W        W34003  10.285   1.443  13.033
62475W        W34004  11.781  26.724   3.363
62476W        W34005  30.583  25.024  11.572
62477W        W34006  37.970   1.394   1.510
62478W        W34007  30.117   1.845   4.691
62479W        W34008  38.556  20.681   3.351
62480W        W34009  22.300  12.343   1.019
62481W        W34010  33.340   2.131  13.904
62482W        W34011  35.391  26.731  11.956
62483W        W34012  25.111  40.331   4.196
62484W        W34013  35.988  24.716   1.795
62485W        W34014  27.604  15.035   0.424
62486W        W34015  43.341  29.670  11.516
62487W        W34016  43.922  12.855   4.472
62488W        W34017  31.006   5.382  11.938
62489W        W34018   2.805   5.433   1.301
62490W        W34019   6.085  26.013   2.244
62491W        W34020  11.302   9.743   1.727
62492W        W34021   2.130  44.585   1.372
62493W        W34022  16.541  28.623   2.689
62494W        W34023  38.933   9.769  13.244
62495W        W34024  35.599  12.088   3.336
62496W        W34025  10.401   5.397  10.416
62497W        W34026  26.016  22.537  10.970
62498W        W34027  28.273  18.612  14.851
62499W        W34028   3.300  13.104  10.768
62500W        W34029  40.430  19.842   2.901
62501W        W34030   5.193   9.803   0.410
62502W        W34031   2.921  15.824  14.194
62503W        W34032  14.616  15.060  13.935
62504W        W34033   6.179  28.246  13.395
62505W        W34034  29.456  37.495   3.566
62506W        W34035   1.705  39.780  12.676
62507W        W34036  25.297  11.899  12.008
62508W        W34037   6.212  16.176  10.180
62509W        W34038  25.493  31.475  11.613
62510W        W34039  24.507  41.250  12.933
62511W        W34040  25.430  34.025  11.428
62512W        W34041   7.682  11.896   5.075
62513W        W34042  23.150  10.137   3.415
62514W        W34043   6.688  32.709  12.564
62515W        W34044  30.945   8.704  12.884
62516W        W34045  37.594   2.439  11.707
62517W        W34046  33.902  21.568   3.624
62518W        W34047  13.211  31.905   2.401
62519W        W34048  41.166  37.984   2.138
62520W        W34049  41.738  30.146  14.540
62521W        W34050  36.319  44.242  13.384
62522W        W34051  10.211  18.781   2.420
62523W        W34052  43.515   2.291   1.395
62524W        W34053  39.820  32.116  10.823
62525W        W34054  19.156  20.312  14.602
62526W        W34055   1.294  17.234   4.843
62527W        W34056  40.375  43.094   1.190
62528W        W34057  24.634  28.075   0.239
62529W        W34058  33.873  30.397   0.003
62530W        W34059   9.418   7.314   0.283
62531W        W34060  33.576  30.593   0.894
62532W        W34061  43.521  14.372  11.542
62533W        W34062   0.912  11.925   4.316
62534W        W34063  37.583  31.518  14.567
62535W        W34064  29.376  33.991  11.230
62536W        W34065   3.397  23.202  14.478
62537W        W34066  20.924  44.465   1.630
62538W        W34067  44.601  31.376  11.720
62539W        W34068  14.194  15.828   0.651
62540W        W34069  21.776  35.630  14.245
62541W        W34070  14.735  41.868   4.262
62542W        W34071  29.446  19.315  13.856
62543W        W34072  38.498   0.470  11.068
62544W        W34073  31.198  40.477  12.096
62545W        W34074  18.558  28.960   1.806
62546W        W34075  42.014   8.647  11.893
62547W        W34076  17.315  22.736   3.685
62548W        W34077  22.659  38.895   0.988
62549W        W34078  36.238  10.389  13.373
62550W        W34079  23.087  33.334   0.295
62551W        W34080   8.481   4.854   3.272
62552W        W34081   2.007  16.166   2.173
62553W        W34082   7.488  27.532   0.829
62554W        W34083  41.070  20.118   2.203
62555W        W34084  34.519  37.623  13.309
62556W        W34085   7.026  12.342  10.675
62557W        W34086  32.583  42.397   2.439
62558W        W34087   7.792   9.267  10.663
62559W        W34088   2.397  22.763   2.258
62560W        W34089  33.497  31.291   0.183
62561W        W34090  39.442  24.101  12.694
62562W        W34091  10.937  28.532   3.132
62563W        W34092   9.211  31.722  13.997
62564W        W34093  38.821   1.479  10.752
62565W        W34094  30.425   5.192  11.294
62566W        W34095  40.487  21.967  11.171
62567W        W34096  14.740   6.842   0.411
62568W        W34097   2.267  25.673  14.983
62569W        W34098  36.717   1.905   0.344
62570W        W34099  33.511  39.776  10.566
62571W        W34100  22.648  11.138   2.748
62572W        W34101  13.620  39.335  10.693
62573W        W34102  35.968  29.171   3.133
62574W        W34103  25.294  35.214   3.586
62575W        W34104   2.155  37.065   1.986
62576W        W34105  35.643   2.397   3.117
62577W        W34106  27.480  25.433   4.019
62578W        W34107  40.863  18.419   4.514
62579W        W34108  28.348  22.487   0.579
62580W        W34109  38.905   8.183   3.670
62581W        W34110  12.228   2.236  14.801
62582W        W34111   7.201  20.221   4.870
62583W        W34112   2.311  39.510  12.984
62584W        W34113  25.771  33.565   3.966
62585W        W34114  13.336  19.161   4.689
62586W        W34115  35.078  43.287   4.534
62587W        W34116   9.981  34.382  13.426
62588W        W34117  12.639  40.988   3.753
62589W        W34118   8.188   8.201   3.552
62590W        W34119  16.893  12.162  12.897
62591W        W34120  44.014  15.267  14.588
62592W        W34121  14.736   1.047  14.228
62593W        W34122   4.736  25.050  14.953
62594W        W34123  17.057  13.608   3.603
62595W        W34124  43.349  21.455   3.943
62596W        W34125  19.799  38.470  13.553
62597W        W34126  14.585   3.361  11.600
62598W        W34127   1.069  37.209  10.374
62599W        W34128  16.280  20.139  12.098
62600W        W34129  34.266  16.373   2.931
62601W        W34130  18.903  23.456   2.366
62602W        W34131  33.827  30.390  11.597
62603W        W34132  21.627  12.236   4.534
62604W        W34133  13.439  18.438  12.063
62605W        W34134   9.278   6.652  11.994
62606W        W34135   9.454  24.263   0.792
62607W        W34136   9.477  32.306   2.137
62608W        W34137  16.552   1.880   1.817
62609W        W34138  39.808  42.953   3.442
62610W        W34139  18.109   7.667   4.400
62611W        W34140  14.409  38.735   2.806
62612W        W34141   8.307  40.323   0.353
62613W        W34142  40.763  15.132   0.059
62614W        W34143  43.051  22.791   0.743
62615W        W34144  27.503  40.054   0.844
62616W        W34145  17.755  14.833   2.960
62617W        W34146  22.701  30.405   3.657
62618W        W34147  28.191  13.260   2.846
62619W        W34148  31.511   1.050  12.281
62620W        W34149   6.344  18.093  12.873
62621W        W34150  32.987  20.961  11.727
62622W        W34151   8.444  43.416  11.934
62623W        W34152  42.142  28.208  11.573
62624W        W34153  11.190   4.322   4.611
62625W        W34154  35.452   6.331   2.979
62626W        W34155  15.162  17.267  12.935
62627W        W34156   7.255   1.090  11.608
62628W        W34157  36.460  44.843  12.226
62629W        W34158  36.900  42.475   0.330
62630W        W34159  24.847  26.044  11.071
62631W        W34160  29.151  21.169   4.696
62632W        W34161  16.341   2.214  13.932
62633W        W34162   4.204  23.108  14.048
62634W        W34163  12.913   7.225   0.719
62635W        W34164  43.279  15.479  13.075
62636W        W34165  38.100  10.321  13.113
62637W        W34166  32.229  34.691   3.631
62638W        W34167   4.811  37.337  11.194
62639W        W34168  29.585  38.610  11.957
62640W        W34169  31.149  10.367  14.046
62641W        W34170  28.880  26.699   3.831
62642W        W34171  35.137  42.910  11.507
62643W        W34172  28.709  24.966  12.479
62644W        W34173  44.325   6.918   2.233
62645W        W34174  37.350  34.802  13.036
62646W        W34175  24.032   3.838   3.462
62647W        W34176  15.429  11.689   4.886
62648W        W34177  19.611  33.045  13.837
62649W        W34178   6.915  19.616   5.454
62650W        W34179  10.366   9.341   0.742
62651W        W34180   8.311  29.220  10.740
62652W        W34181  25.877  44.243  11.024
62653W        W34182  16.073  39.499  10.974
62654W        W34183  18.798  20.543  13.459
62655W        W34184  16.664  38.919  11.977
62656W        W34185  44.786  42.676  13.859
62657W        W34186  37.472  24.417   2.802
62658W        W34187  25.883   1.787   3.540
62659W        W34188  16.772   6.935  12.069
62660W        W34189   2.233  25.665  12.404
62661W        W34190  36.150  41.968   1.368
62662W        W34191   0.504   2.735  10.984
62663W        W34192  26.212  42.837  11.138
62664W        W34193  19.241  44.745   2.321
62665W        W34194  16.567   8.175  12.422
62666W        W34195   7.657   6.887  12.422
62667W        W34196  28.966   5.321  13.789
62668W        W34197  24.903  39.284  11.943
62669W        W34198   4.257  10.358   3.601
62670W        W34199  18.376  16.185   2.796
62671W        W34200  11.423  25.041  11.171
62672W        W34201   7.759   4.042   3.254
62673W        W34202  13.338  35.187  11.438
62674W        W34203  27.473  27.038   2.553
62675W        W34204   6.003  20.691   4.692
62676W        W34205  26.651  29.454   9.924
62677W        W34206  23.511  44.970  13.924
62678W        W34207  28.693   7.272  11.945
62679W        W34208   2.059  35.005   4.578
62680W        W34209   9.326  40.287   1.871
62681W        W34210  26.083  35.631  12.822
62682W        W34211  22.787   4.829  11.915
62683W        W34212   6.112  26.751  11.213
62684W        W34213  37.389  28.995  11.526
62685W        W34214  28.545  40.578   0.424
62686W        W34215  19.108  42.748  12.497
62687W        W34216  18.773  30.442  12.509
62688W        W34217  10.261  40.845  13.563
62689W        W34218  42.375  26.703   1.922
62690W        W34219  15.658  37.431  14.803
62691W        W34220   2.064   3.212   2.634
62692W        W34221   2.823   2.651   0.938
62693W        W34222  21.228  27.621  14.051
62694W        W34223  13.895  36.390   0.854
62695W        W34224   5.120  16.531   3.610
62696W        W34225   4.487   0.370  13.129
62697W        W34226  26.615  12.198  11.010
62698W        W34227  20.740  42.809  11.424
62699W        W34228   7.356  40.353   0.870
62700W        W34229   2.711  12.349   0.544
62701W        W34230   4.712  30.933  10.562
62702W        W34231  29.480   0.251   4.286
62703W        W34232   6.710  43.002  13.950
62704W        W34233  25.352  15.610   3.918
62705W        W34234   3.199  24.011  13.551
62706W        W34235  44.947   2.753  13.844
62707W        W34236  34.759  34.624   2.888
62708W        W34237  35.378  39.562   3.897
62709W        W34238  38.814  29.859  11.025
62710W        W34239  37.865   2.791  13.287
62711W        W34240  12.990  15.266   1.864
62712W        W34241   4.799  13.999  14.003
62713W        W34242  28.458  14.384   2.696
62714W        W34243  31.231  36.834   0.267
62715W        W34244  43.047  12.245   2.833
62716W        W34245  16.300  43.898   0.975
62717W        W34246  10.748  12.932   3.780
62718W        W34247  40.715  18.690   3.997
62719W        W34248   8.274  43.541   0.747
62720W        W34249  39.698  34.891  14.559
62721W        W34250  19.720   2.043  13.121
62722W        W34251  41.855   4.896  14.311
62723W        W34252  20.705  20.399   4.600
62724W        W34253  14.854  38.540   1.381
62725W        W34254  42.922   2.641   2.415
62726W        W34255  42.916  27.035   3.153
62727W        W34256   8.447  12.363  10.785
62728W        W34257  28.798  13.585  10.772
62729W        W34258   2.928   1.410   3.151
62730W        W34259   5.220  25.075  13.086
62731W        W34260  19.040   6.386   2.618
62732W        W34261  15.772  22.453   1.356
62733W        W34262  31.970  36.079   3.253
62734W        W34263  17.607   7.479   4.594
62735W        W34264   9.965  28.376   1.765
62736W        W34265  18.250  39.528   3.360
62737W        W34266  19.283   7.715   0.792
62738W        W34267  34.877  42.687   3.177
62739W        W34268  32.394  10.134   1.065
62740W        W34269  15.124  22.753  13.457
62741W        W34270  28.397  33.557  14.415
62742W        W34271  38.995  28.606  14.866
62743W        W34272  10.586  20.957  13.519
62744W        W34273  31.543  34.184   3.735
62745W        W34274  43.357  41.951   1.348
62746W        W34275  29.978  13.142   4.952
62747W        W34276  12.903  17.353  12.662
62748W        W34277   3.761  22.444   2.981
62749W        W34278  15.178  15.646  14.759
62750W        W34279   8.134  17.795   5.446
62751W        W34280  16.575  44.151   3.043
62752W        W34281   1.990   1.239   0.763
62753W        W34282   2.757  40.356  10.740
62754W        W34283  39.268  31.366   3.995
62755W        W34284  35.818  27.454   2.383
62756W        W34285  41.821  15.188  12.345
62757W        W34286   8.820  28.730  11.203
62758W        W34287  15.197  34.985  12.529
62759W        W34288  31.066   1.716  14.929
62760W        W34289  10.621  36.818   4.271
62761W        W34290  10.825  18.703  11.881
62762W        W34291  13.093  13.019   0.192
62763W        W34292  16.819  16.621  12.816
62764W        W34293  30.353  25.629  14.289
62765W        W34294  32.623  18.143   0.548
62766W        W34295  27.228  38.003   4.255
62767W        W34296  16.103  40.003  11.140
62768W        W34297  30.832   6.990   1.025
62769W        W34298  29.289   4.993   1.647
62770W        W34299  17.137  43.392  10.699
62771W        W34300  13.147   1.272   0.759
62772W        W34301  10.681  13.653   3.354
62773W        W34302  34.415   1.291  14.137
62774W        W34303  39.820  42.920  10.038
62775W        W34304  11.633  11.354  11.114
62776W        W34305  30.317  26.872  12.610
62777W        W34306  15.187  28.196   0.405
62778W        W34307  15.772  35.406  11.918
62779W        W34308   3.371  32.708  11.935
62780W        W34309   4.980  17.502   3.942
62781W        W34310  18.092  32.918  11.096
62782W        W34311  21.780  34.826   3.182
62783W        W34312  23.026  24.615  14.257
62784W        W34313   5.027   2.945  11.402
62785W        W34314  30.936  16.783  14.713
62786W        W34315  37.313  33.367  10.936
62787W        W34316  24.748  31.833   3.228
62788W        W34317  24.059  21.007  13.769
62789W        W34318  36.484  11.803   3.728
62790W        W34319  43.776  16.590  12.948
62791W        W34320  39.456   8.976   3.748
62792W        W34321  25.866  37.079   0.365
62793W        W34322   1.486  40.899   0.326
62794W        W34323  21.598  44.543   3.716
62795W        W34324  25.012  35.588   3.336
62796W        W34325  34.619  34.475  14.086
62797W        W34326  24.632  44.448   3.267
62798W        W34327  13.259  39.858   2.388
62799W        W34328  41.353  14.644   2.953
62800W        W34329  11.815  30.776   5.232
62801W        W34330   6.331  19.274  14.817
62802W        W34331   7.403   9.645   1.714
62803W        W34332  25.373  41.920  13.082
62804W        W34333  24.556  12.155  10.730
62805W        W34334  17.776  39.740   1.640
62806W        W34335  11.778  25.937  13.267
62807W        W34336  17.514  15.529   2.378
62808W        W34337  38.068  41.653   4.981
62809W        W34338  24.254   6.345  13.431
62810W        W34339  13.544  17.638  14.251
62811W        W34340  33.998  28.344   3.886
62812W        W34341  13.331  10.230   4.490
62813W        W34342   2.244  14.291   1.360
62814W        W34343  37.389  17.502  13.477
62815W        W34344  30.136  37.512  14.973
62816W        W34345  14.890  27.000  12.650
62817W        W34346  30.407   0.479   2.006
62818W        W34347   0.791   1.905   1.005
62819W        W34348  29.690   8.955   2.008
62820W        W34349  14.704  29.985  12.011
62821W        W34350  29.073  43.071  11.537
62822W        W34351  18.211   1.251   3.606
62823W        W34352  26.722  37.882   3.113
62824W        W34353  20.682   4.687   1.613
62825W        W34354  33.177  32.149   2.335
62826W        W34355   2.392  27.734  14.974
62827W        W34356  11.823  10.349  10.676
62828W        W34357  34.388  12.358  13.844
62829W        W34358  13.378   3.957   1.634
62830W        W34359   1.251  36.385  12.015
62831W        W34360  43.044  22.538  13.669
62832W        W34361  27.472  41.939   1.242
62833W        W34362  35.407  21.534   3.254
62834W        W34363  39.144  31.030  10.700
62835W        W34364  20.985  35.853   4.268
62836W        W34365  21.143   1.530  10.766
62837W        W34366   8.947  34.122   3.985
62838W        W34367  42.744  44.219  13.024
62839W        W34368  18.194  24.310   3.125
62840W        W34369   2.322  25.556   0.480
62841W        W34370  11.233  24.515  12.494
62842W        W34371  29.308   6.765  12.281
62843W        W34372  34.213  35.837   1.696
62844W        W34373   6.013  31.158   1.351
62845W        W34374  39.771  34.931   2.101
62846W        W34375   9.656  25.473  14.007
62847W        W34376  19.559  13.708   2.388
62848W        W34377  27.958  40.021  12.202
62849W        W34378   7.439  26.061  14.725
62850W        W34379  39.437  15.700  13.355
62851W        W34380  34.134  33.310  12.516
62852W        W34381  16.041   0.987   1.899
62853W        W34382  42.398  40.708   1.404
62854W        W34383  26.329   0.802   4.981
62855W        W34384  38.749  31.539  12.268
62856W        W34385  17.969  27.219  12.048
62857W        W34386  14.115   2.848  10.768
62858W        W34387   5.253  42.516   0.908
62859W        W34388  35.612  27.547  14.680
62860W        W34389  32.652  39.289  11.953
62861W        W34390  10.314  11.583  13.149
62862W        W34391   4.065   5.372   0.479
62863W        W34392  13.700   2.060  13.171
62864W        W34393  27.631  27.000  11.534
62865W        W34394  44.959  39.033  14.834
62866W        W34395  34.073  35.607   2.874
62867W        W34396  10.882  35.986   4.158
62868W        W34397   2.343  32.450  12.574
62869W        W34398  23.628  21.250   4.899
62870W        W34399  22.246   2.049  12.448
62871W        W34400  16.371  44.159   2.215
62872W        W34401   8.443  40.005   3.515
62873W        W34402  26.572  44.993  13.954
62874W        W34403  24.003  20.206   4.682
62875W        W34404   2.371  35.779  12.924
62876W        W34405   9.283  12.114  10.434
62877W        W34406  24.688   2.439   3.258
62878W        W34407  23.903  19.050  10.704
62879W        W34408  30.845   2.161  12.496
62880W        W34409  34.560  43.795  10.715
62881W        W34410   7.835  29.085  10.037
62882W        W34411   1.945  32.838   2.318
62883W        W34412  40.948  24.216   1.335
62884W        W34413  43.835   9.891   4.395
62885W        W34414  29.665  36.486  12.100
62886W        W34415  40.817  33.321   1.880
62887W        W34416  16.734  29.069   0.794
62888W        W34417  13.859  22.053   0.127
62889W        W34418  25.557  35.832  10.431
62890W        W34419  11.079  30.033   3.675
62891W        W34420  18.268  37.999   2.859
62892W        W34421  21.582  44.940  10.956
62893W        W34422  34.634  25.080   3.854
62894W        W34423  25.780  20.294  12.395
62895W        W34424  31.607  15.271   3.566
62896W        W34425   9.922  23.686   2.908
62897W        W34426  15.824   5.420   4.480
62898W        W34427  37.803  22.119  11.133
62899W        W34428  31.152  18.119   1.435
62900W        W34429  10.437  39.878   0.995
62901W        W34430   5.934  11.677   3.301
62902W        W34431  37.109   2.202   2.215
62903W        W34432  14.565  15.895  11.964
62904W        W34433  20.334  29.656   3.167
62905W        W34434  22.213  42.954   3.142
62906W        W34435  37.296  30.817   3.713
62907W        W34436  19.502  31.505  12.566
62908W        W34437   5.117  10.959  12.442
62909W        W34438  33.351   9.807  14.812
62910W        W34439  20.896  25.575  11.965
62911W        W34440  44.399  30.345  13.546
62912W        W34441  30.058  40.364   1.823
62913W        W34442  42.426  44.291  14.351
62914W        W34443  22.495  27.941  14.415
62915W        W34444  25.253  31.712   3.094
62916W        W34445  30.310  13.750   0.352
62917W        W34446  18.875  28.105  13.926
62918W        W34447  31.500  32.284  12.099
62919W        W34448   9.103  36.111  14.011
62920W        W34449   5.429   9.228   1.053
62921W        W34450  42.250  17.763   3.168
62922W        W34451   9.306  28.213  13.899
62923W        W34452  35.364  13.725  11.926
62924W        W34453   5.850   1.147  13.485
62925W        W34454   5.533  32.234  13.962
62926W        W34455  26.229  15.144   2.694
62927W        W34456  18.941  23.187   3.380
62928W        W34457  35.886  19.309  13.488
62929W        W34458  33.086  40.476  12.120
62930W        W34459   2.963  30.919  11.611
62931W        W34460   7.086  11.540  14.488
62932W        W34461   0.709  12.401  13.336
62933W        W34462  15.948   6.238  10.160
62934W        W34463  37.861  12.094   1.828
62935W        W34464  44.440  16.761   0.744
62936W        W34465  25.470  35.724  12.994
62937W        W34466  27.546   1.516   2.019
62938W        W34467   7.446  39.377   1.774
62939W        W34468  37.429   3.775  13.927
62940W        W34469  27.238  24.487  11.716
62941W        W34470  22.763  38.446   2.798
62942W        W34471  15.586  41.456   5.213
62943W        W34472  18.992   1.323  14.526
62944W        W34473  18.899  37.304  14.097
62945W        W34474  28.213  28.551  13.352
62946W        W34475  30.142  36.639   0.285
62947W        W34476  16.506   4.465   4.039
62948W        W34477  10.231  30.278   1.848
62949W        W34478  12.153  32.134  14.765
62950W        W34479  10.724  33.061  11.925
62951W        W34480  14.148   6.954   2.608
62952W        W34481  24.087  40.508  13.947
62953W        W34482   8.084  13.650  14.467
62954W        W34483  40.559   8.504  10.871
62955W        W34484  14.615  31.989  13.539
62956W        W34485  39.591  36.370   2.308
62957W        W34486  39.083  11.870   2.707
62958W        W34487  26.717  23.229  11.062
62959W        W34488   6.946   1.990  10.649
62960W        W34489   1.033  32.280  11.312
62961W        W34490  41.431  11.912  13.800
62962W        W34491  35.947   9.628   2.806
62963W        W34492  16.274   2.106  12.577
62964W        W34493  44.457  29.044  14.032
62965W        W34494  25.416  40.822   0.828
62966W        W34495  12.765  31.874   3.736
62967W        W34496  34.833  19.124  14.812
62968W        W34497  10.610  35.654   1.201
62969W        W34498  34.820  14.205  13.083
62970W        W34499   6.492  16.501  13.453
62971W        W34500  22.082  11.713  11.635
62972W        W34501  10.394  35.833  11.997
62973W        W34502  29.884  13.830  13.550
62974W        W34503  31.923  33.388  10.407
62975W        W34504  39.807  39.625   3.321
62976W        W34505  13.455  14.658  13.303
62977W        W34506  20.117  34.027  14.845
62978W        W34507  29.873  23.726   0.314
62979W        W34508  36.208  18.554  14.954
62980W        W34509  10.713  39.925   3.342
62981W        W34510  28.224  19.630   1.411
62982W        W34511  11.099   9.345  13.846
62983W        W34512  34.080   7.953  11.492
62984W        W34513  12.194  14.368  14.252
62985W        W34514   6.031  14.541   1.996
62986W        W34515  21.524  29.615   4.786
62987W        W34516  29.508  31.400   1.240
62988W        W34517  33.912   0.490  11.401
62989W        W34518  41.513  34.796   4.225
62990W        W34519   2.914   9.207   4.143
62991W        W34520  12.862   0.622   3.380
62992W        W34521  10.854  15.088  12.804
62993W        W34522  40.873  27.989   5.159
62994W        W34523  20.296  12.719   1.740
62995W        W34524  26.958  10.749   0.908
62996W        W34525  32.937  38.046   4.085
62997W        W34526  30.337  28.484  14.383
62998W        W34527  42.855  30.825  13.126
62999W        W34528  13.573  18.197   1.258
63000W        W34529  36.579   2.316  11.490
63001W        W34530  43.483  16.601  13.844
63002W        W34531  23.113   9.521  11.199
63003W        W34532  11.480  13.624  14.289
63004W        W34533  37.511  39.883   1.191
63005W        W34534  24.090  34.820   2.751
63006W        W34535  42.679  42.549   3.177
63007W        W34536  13.274  34.938   3.249
63008W        W34537  12.777  14.543   0.941
63009W        W34538   0.344  22.749   0.418
63010W        W34539  33.384  40.547  13.068
63011W        W34540  23.513  41.031   0.237
63012W        W34541  30.191  37.863  14.594
63013W        W34542  42.104  25.900  14.821
63014W        W34543  42.262  13.183  14.409
63015W        W34544  27.520  27.000  12.415
63016W        W34545  27.747   1.756   1.062
63017W        W34546  34.604  43.453  12.491
63018W        W34547  17.718   2.735   1.440
63019W        W34548  34.982  34.815  14.324
63020W        W34549  28.685  37.457  12.970
63021W        W34550  44.409   0.441  10.945
63022W        W34551  35.899  44.791  11.574
63023W        W34552  10.269  34.426  14.035
63024W        W34553  12.237   4.992  13.511
63025W        W34554   9.667  12.092   1.424
63026W        W34555  15.186  21.839   0.994
63027W        W34556   6.501   1.487   0.407
63028W        W34557  34.384  27.106   0.353
63029W        W34558  25.497  34.606  11.992
63030W        W34559  28.409  31.100   3.676
63031W        W34560  22.624  38.043   2.478
63032W        W34561  35.114  20.184   0.389
63033W        W34562  26.298  16.593  13.550
63034W        W34563  25.649  20.557   2.254
63035W        W34564   4.884   4.952   2.170
63036W        W34565  32.169  34.112  12.037
63037W        W34566  17.090  31.520   3.540
63038W        W34567  36.958   3.561  14.938
63039W        W34568  37.308  14.762   0.338
63040W        W34569   8.852  41.118   0.695
63041W        W34570  42.923  10.211   2.318
63042W        W34571  39.521  28.381   1.788
63043W        W34572  14.584  44.774   4.145
63044W        W34573   6.730   9.460   1.297
63045W        W34574  29.964  35.433  11.486
63046W        W34575  26.031   4.829   2.837
63047W        W34576  36.792  17.028  13.739
63048W        W34577   3.767  22.473  13.470
63049W        W34578  19.132  12.442   2.763
63050W        W34579  33.610  30.109   3.777
63051W        W34580  31.403  10.051   3.111
63052W        W34581   2.927  12.023   2.840
63053W        W34582   8.224  18.710  11.770
63054W        W34583  24.337   5.157   1.116
63055W        W34584  14.359  22.651  13.904
63056W        W34585  22.046  38.240   5.013
63057W        W34586  21.602  19.922   0.418
63058W        W34587  10.954  30.463  11.616
63059W        W34588  29.193  24.748   1.410
63060W        W34589  19.039  14.523  13.815
63061W        W34590   9.516  13.105  13.785
63062W        W34591  29.538  14.120   4.098
63063W        W34592  34.994  34.155   0.546
63064W        W34593  20.856  18.185   0.469
63065W        W34594  15.522  38.880  11.635
63066W        W34595  36.900  17.369   1.424
63067W        W34596  28.958   0.706  13.338
63068W        W34597  21.758  33.555   0.016
63069W        W34598   7.534  35.869   4.563
63070W        W34599  38.424  31.504  13.162
63071W        W34600  40.820  44.523   1.991
63072W        W34601  11.429  10.280  11.577
63073W        W34602  35.960  10.680   3.892
63074W        W34603   9.856  37.581   3.117
63075W        W34604  38.978  31.993  14.396
63076W        W34605  23.136  14.243   1.980
63077W        W34606  40.107  41.862   0.522
63078W        W34607  42.248  36.327   3.460
63079W        W34608   6.188  28.162  12.537
63080W        W34609   6.194  37.995   1.668
63081W        W34610  19.964   8.206   2.100
63082W        W34611   5.210  23.857   0.390
63083W        W34612   8.409  24.727  11.905
63084W        W34613  28.678  16.851  10.588
63085W        W34614  36.430  30.396  12.573
63086W        W34615   5.232  41.941  10.496
63087W        W34616   1.987  36.149   1.444
63088W        W34617  23.207  29.061   3.641
63089W        W34618   3.534  24.339   3.115
63090W        W34619   7.227  42.175  11.560
63091W        W34620   2.922  11.205   2.426
63092W        W34621  20.075  36.140   2.817
63093W        W34622  22.230  12.203  10.748
63094W        W34623  40.021  42.354   0.822
63095W        W34624   5.151  38.303  12.016
63096W        W34625   4.764  29.093  12.029
63097W        W34626  33.854  29.355  10.628
63098W        W34627  21.512  12.610  13.521
63099W        W34628  14.875  39.491  11.895
63100W        W34629  40.969  14.397   2.662
63101W        W34630  11.057  39.796   0.426
63102W        W34631  21.667  34.019  13.343
63103W        W34632  36.780  38.581   4.458
63104W        W34633   5.247   7.625  12.010
63105W        W34634  15.246  16.494   1.662
63106W        W34635   0.698  40.742  12.603
63107W        W34636  37.063  23.511  14.405
63108W        W34637  29.646   5.479   0.361
63109W        W34638   4.722   2.042   0.703
63110W        W34639  30.609  17.801  12.149
63111W        W34640  23.603  12.081  11.082
63112W        W34641  34.044  33.815   1.127
63113W        W34642   9.791  40.972  12.879
63114W        W34643  27.629  33.497  14.950
63115W        W34644  38.801  34.663   3.025
63116W        W34645  25.512  15.292  14.178
63117W        W34646   8.882   8.444  14.446
63118W        W34647  30.047  32.666   1.480
63119W        W34648  35.740  26.614   3.136
63120W        W34649  23.104  26.241  13.573
63121W        W34650  11.909  29.608   4.573
63122W        W34651  40.418  33.153   1.597
63123W        W34652  15.187  36.132  11.184
63124W        W34653  18.578  17.531  10.667
63125W        W34654  36.388  19.168  13.456
63126W        W34655   3.754  42.315  12.355
63127W        W34656   3.759  27.000   0.634
63128W        W34657   6.197  40.581   2.136
63129W        W34658  44.730   9.842  11.131
63130W        W34659  22.510  14.091   4.987
63131W        W34660   4.864  23.583  12.455
63132W        W34661  24.985  40.227  14.474
63133W        W34662  15.792  32.655   3.761
63134W        W34663   3.332  31.148  14.524
63135W        W34664  13.736  27.999  13.401
63136W        W34665  17.591  15.090   1.797
63137W        W34666  21.607  13.603   4.288
63138W        W34667  41.735   2.704   0.752
63139W        W34668  43.715  34.699  13.062
63140W        W34669   2.251  12.063  13.838
63141W        W34670   0.700  10.892   1.714
63142W        W34671  18.809   1.487   0.418
63143W        W34672  39.402  38.593   0.234
63144W        W34673  34.028  39.368  12.301
63145W        W34674  33.089  28.376  14.157
63146W        W34675  20.969   3.776  12.650
63147W        W34676  35.551  10.268   3.396
63148W        W34677  36.129  23.733  11.201
63149W        W34678  36.458   2.494   0.999
63150W        W34679  25.045   9.342   2.184
63151W        W34680  23.916  14.886   2.812
63152W        W34681   4.824  37.362  13.876
63153W        W34682   0.712  26.715  11.073
63154W        W34683  44.901  17.891   0.296
63155W        W34684  28.708  34.419   0.050
63156W        W34685   5.248  12.287  12.914
63157W        W34686  18.745  10.584  11.683
63158W        W34687  17.790  38.020  12.067
63159W        W34688  17.104  37.985   0.369
63160W        W34689  38.099  29.192   1.751
63161W        W34690  44.859  36.658  11.533
63162W        W34691  37.515  14.586  11.463
63163W        W34692   9.294  28.039  12.984
63164W        W34693  29.926  41.680  11.999
63165W        W34694  40.158  21.204   2.736
63166W        W34695  37.085  38.598   3.613
63167W        W34696  42.172  19.894   3.816
63168W        W34697   5.254  18.125  14.312
63169W        W34698  42.017   0.970  14.486
63170W        W34699   2.263   2.819  14.355
63171W        W34700  16.562   4.179  13.064
63172W        W34701   2.379  29.139  11.946
63173W        W34702  28.450   9.072   4.701
63174W        W34703  35.326   5.310   1.284
63175W        W34704  27.654  43.222   0.942
63176W        W34705  39.792  13.343  14.016
63177W        W34706  40.307  23.101  12.144
63178W        W34707   3.432  37.193  12.077
63179W        W34708  38.881  19.229   4.028
63180W        W34709   6.354   4.922  10.307
63181W        W34710  37.452  40.969   1.892
63182W        W34711  31.613  12.246  11.557
63183W        W34712   0.812  31.943   4.959
63184W        W34713   9.835   9.826  10.606
63185W        W34714   1.995  18.110   1.541
63186W        W34715   5.235  26.069   1.091
63187W        W34716  14.128   6.540   2.299
63188W        W34717  24.178   0.030  12.666
63189W        W34718  26.097  20.708  12.432
63190W        W34719   1.168   4.623  12.970
63191W        W34720  21.452  38.622   2.425
63192W        W34721   8.253  12.506   0.721
63193W        W34722  28.840  37.842   2.357
63194W        W34723   7.686   2.376   3.614
63195W        W34724  38.872  39.101   5.134
63196W        W34725  18.711  15.139   0.276
63197W        W34726  38.955  38.199  13.445
63198W        W34727   0.577  18.723  11.177
63199W        W34728  39.718  30.480  11.750
63200W        W34729  23.765  18.259  11.913
63201W        W34730  39.264  40.242  10.780
63202W        W34731  32.707  17.358   1.734
63203W        W34732  40.509  20.803   4.036
63204W        W34733  21.988  12.748   4.036
63205W        W34734  40.516  21.017   1.795
63206W        W34735  21.081  31.701   3.275
63207W        W34736  14.644  41.896  11.680
63208W        W34737   1.790   0.750  13.508
63209W        W34738   9.307   3.504  14.400
63210W        W34739  13.378  42.417   0.419
63211W        W34740  21.572   4.699  12.774
63212W        W34741  42.733  27.428   1.096
63213W        W34742  40.300  15.593  14.751
63214W        W34743  13.324  35.402  14.328
63215W        W34744  16.979  35.086   2.844
63216W        W34745  27.551  26.741  11.968
63217W        W34746   9.216  36.504  12.465
63218W        W34747  12.411  28.037   0.929
63219W        W34748   4.370  36.048  12.920
63220W        W34749  13.183  29.178  10.551
63221W        W34750  10.125  37.282   4.668
63222W        W34751  27.672  18.656  12.517
63223W        W34752  37.524  44.501  14.681
63224W        W34753  39.268  11.850   2.221
63225W        W34754   4.199  25.484   1.350
63226W        W34755  23.200   1.783   1.908
63227W        W34756  19.642  44.174  10.584
63228W        W34757   4.730  20.669  12.334
63229W        W34758  39.318  44.866   3.141
63230W        W34759  36.806   4.635   5.087
63231W        W34760  11.232  13.693  12.488
63232W        W34761  23.306  43.328   4.603
63233W        W34762  31.294  39.470  12.105
63234W        W34763  17.634  12.357  12.071
63235W        W34764  35.834  42.046  10.590
63236W        W34765  21.700  30.069  12.567
63237W        W34766  26.261  37.784   1.673
63238W        W34767  25.564  42.766  14.905
63239W        W34768  14.366  29.104  12.621
63240W        W34769  28.259  42.855   4.565
63241W        W34770  12.861   8.041  12.884
63242W        W34771  44.192  18.531   3.599
63243W        W34772   1.882  31.016   3.291
63244W        W34773  29.402   0.725  10.844
63245W        W34774  16.022  19.559   0.247
63246W        W34775  44.024   6.929  11.641
63247W        W34776   9.002  10.808  10.638
63248W        W34777  31.189   8.652  11.518
63249W        W34778  32.361   4.649  11.837
63250W        W34779   8.479   1.790  14.448
63251W        W34780  26.393  21.061  10.578
63252W        W34781   5.227   3.275  13.201
63253W        W34782   1.882  31.382  11.749
63254W        W34783  39.089  30.052  11.787
63255W        W34784  14.746  40.991  10.738
63256W        W34785  18.838   0.094   0.381
63257W        W34786   9.305  34.824   4.656
63258W        W34787   9.143   1.880  10.583
63259W        W34788  34.380   3.728  14.065
63260W        W34789   8.416  26.758  13.354
63261W        W34790  37.763  29.103  11.175
63262W        W34791  11.191  40.465   1.324
63263W        W34792  28.755  25.771  13.469
63264W        W34793  39.589  27.443  12.063
63265W        W34794  22.997   4.270  10.720
63266W        W34795  29.107   8.856   0.236
63267W        W34796  18.037  11.357   2.221
63268W        W34797  10.752  19.234  13.553
63269W        W34798  13.121  26.556  14.254
63270W        W34799  33.500   4.675   1.627
63271W        W34800   1.032  27.638   4.105
63272W        W34801  14.049  30.766   1.713
63273W        W34802  39.821  10.048  13.392
63274W        W34803  33.402  36.648   2.163
63275W        W34804  16.406   5.953  11.818
63276W        W34805  19.089  27.739   4.185
63277W        W34806  30.381  16.192  11.540
63278W        W34807  11.802  12.398   2.865
63279W        W34808  33.832   6.681   3.397
63280W        W34809  18.277   5.440  11.542
63281W        W34810  10.569  25.143  13.124
63282W        W34811  11.082  23.005  14.913
63283W        W34812  22.285  11.234  11.578
63284W        W34813  32.032  40.984   2.353
63285W        W34814  33.984  24.068  14.185
63286W        W34815   0.857   6.916   1.134
63287W        W34816  25.254  12.266   1.756
63288W        W34817  17.285  39.572   1.415
63289W        W34818  19.508  11.505   4.126
63290W        W34819  15.428  39.013  12.986
63291W        W34820   1.436  39.862  11.126
63292W        W34821  43.311  23.437  14.094
63293W        W34822  19.020   2.927   1.983
63294W        W34823  44.740  37.352  12.260
63295W        W34824  43.672   0.435   4.129
63296W        W34825  39.029  18.407   4.316
63297W        W34826   2.763  44.407   1.909
63298W        W34827   1.775  22.200   0.048
63299W        W34828  13.848  37.911   2.323
63300W        W34829  36.918  38.133   1.045
63301W        W34830  43.577  17.898  12.506
63302W        W34831  26.728  36.895   0.702
63303W        W34832  34.739   4.970   0.212
63304W        W34833  43.501  21.084  11.035
63305W        W34834  22.748  14.297  10.542
63306W        W34835  41.216  26.994  13.535
63307W        W34836  41.733  35.818   4.934
63308W        W34837  26.932  21.579   0.064
63309W        W34838  30.500  15.238  12.785
63310W        W34839  21.226   8.449  14.398
63311W        W34840  10.668  24.735   3.154
63312W        W34841  23.141  19.870  12.675
63313W        W34842  22.294  15.342   2.753
63314W        W34843  35.448  32.006  11.977
63315W        W34844  35.232   3.295   5.132
63316W        W34845  25.080   8.198  13.498
63317W        W34846   3.000  39.355  11.590
63318W        W34847  42.057  17.726  11.557
63319W        W34848  12.698  43.508   2.875
63320W        W34849   6.803   6.634  14.580
63321W        W34850  44.374  33.715  13.456
63322W        W34851  17.150  32.020   5.080
63323W        W34852  11.839  28.716   2.043
63324W        W34853  34.292  34.412  11.199
63325W        W34854  30.431   3.809   2.252
63326W        W34855  24.637  24.001   4.695
63327W        W34856  28.661  28.486  11.503
63328W        W34857  30.940  34.373  11.666
63329W        W34858   1.250  23.309   0.713
63330W        W34859  13.213  36.995  10.657
63331W        W34860  11.058  39.268  11.374
63332W        W34861   4.145   7.089   4.999
63333W        W34862  39.752  28.284  11.093
63334W        W34863   1.667   1.402  10.700
63335W        W34864   9.241   5.659  12.020
63336W        W34865  40.305  24.121   0.455
63337W        W34866  27.002  34.462  13.857
63338W        W34867  12.848  29.317   2.623
63339W        W34868  17.547  16.890   2.270
63340W        W34869   3.408  11.826   0.796
63341W        W34870  36.396  11.693   3.224
63342W        W34871  41.451  41.423  13.592
63343W        W34872  35.319  32.527   2.825
63344W        W34873  16.072   4.414  13.903
63345W        W34874   6.474  27.994   1.546
63346W        W34875  42.738  40.851  13.501
63347W        W34876  10.582  43.385   0.358
63348W        W34877  28.480  20.273  10.459
63349W        W34878  25.151  39.441   4.075
63350W        W34879   5.198  12.344   0.354
63351W        W34880  42.234  41.485   3.020
63352W        W34881  30.493  24.439  14.899
63353W        W34882   2.322   7.282   2.428
63354W        W34883  44.025   4.293  11.539
63355W        W34884  31.202   6.363   3.273
63356W        W34885   0.183  11.586  11.568
63357W        W34886   7.786  26.301   3.300
63358W        W34887   2.690  31.646  13.910
63359W        W34888  21.058  22.613   3.314
63360W        W34889   0.418  37.261   0.822
63361W        W34890   9.061  33.538   3.546
63362W        W34891  30.387  13.363   2.598
63363W        W34892  23.722   7.430   3.112
63364W        W34893  13.640  14.653   1.962
63365W        W34894  41.460  37.815   0.328
63366W        W34895  44.323  21.024   4.481
63367W        W34896  43.985   3.111  14.478
63368W        W34897  27.187   9.777   1.800
63369W        W34898   9.181  32.382   1.322
63370W        W34899  20.699  31.081   0.279
63371W        W34900   6.474  29.235  13.585
63372W        W34901  31.977   0.345  13.323
63373W        W34902  24.575  16.359   3.188
63374W        W34903  21.145   3.608   4.335
63375W        W34904   3.363  44.517  12.965
63376W        W34905  36.874  32.568  10.620
63377W        W34906  38.933  16.466  12.028
63378W        W34907  13.643  39.334  12.384
63379W        W34908  20.329   3.274   1.334
63380W        W34909  43.064  20.411  11.844
63381W        W34910  21.732  39.362  11.085
63382W        W34911  33.089  35.489   2.904
63383W        W34912  37.134  30.135   1.772
63384W        W34913   7.754  17.201   4.561
63385W        W34914  22.562  14.200   9.811
63386W        W34915   5.994   8.505  11.578
63387W        W34916  29.276  16.262   3.158
63388W        W34917  29.332  29.998  13.478
63389W        W34918  13.710  11.989  13.529
63390W        W34919  14.297  31.001  11.512
63391W        W34920  44.644  17.118   5.018
63392W        W34921  27.622  39.151  13.568
63393W        W34922  18.135   8.676  11.495
63394W        W34923  27.079  28.339  10.527
63395W        W34924  11.631   7.765   0.789
63396W        W34925   6.624   6.934   3.357
63397W        W34926  28.651  16.576  14.885
63398W        W34927   4.644   0.352   1.713
63399W        W34928  41.080   2.999   2.726
63400W        W34929  33.064  33.197   3.306
63401W        W34930  35.014   3.529   4.255
63402W        W34931   9.913   0.774  13.518
63403W        W34932  15.552  23.443  10.711
63404W        W34933   5.829   1.295   1.869
63405W        W34934   6.904  33.643   4.520
63406W        W34935  19.982  42.434  11.052
63407W        W34936  16.620  11.113   3.653
63408W        W34937   9.147  21.010  14.364
63409W        W34938   4.251  43.360  11.972
63410W        W34939  31.881  29.461   1.412
63411W        W34940  39.861  17.149   0.364
63412W        W34941  23.592   0.340   0.176
63413W        W34942  40.738  12.601  14.055
63414W        W34943  25.667  15.731   2.949
63415W        W34944  38.395  22.850  14.817
63416W        W34945  12.180  17.648   0.756
63417W        W34946  26.343   8.445   2.397
63418W        W34947  16.111   3.979   2.680
63419W        W34948   0.262  34.121   3.526
63420W        W34949  18.675  27.608   4.777
63421W        W34950  43.585   2.952   3.198
63422W        W34951   2.575  23.082  11.876
63423W        W34952  37.888  30.424  12.424
63424W        W34953  34.521  14.368   1.803
63425W        W34954   2.906  43.764  14.740
63426W        W34955   9.612  37.947   0.510
63427W        W34956  19.752  30.172  12.491
63428W        W34957  10.395   4.643   1.774
63429W        W34958  17.126  35.407  10.265
63430W        W34959  35.594  13.852  12.917
63431W        W34960  27.936   5.898   2.237
63432W        W34961   8.710  27.791   3.318
63433W        W34962  11.580  40.136   1.730
63434W        W34963   5.843  44.916   2.622
63435W        W34964  41.808  12.158  12.395
63436W        W34965  18.317  15.600   1.212
63437W        W34966  17.555  20.434  12.610
63438W        W34967   6.729  25.939   0.368
63439W        W34968   3.931  40.306   1.429
63440W        W34969  23.667  41.267  10.297
63441W        W34970   6.322  41.495   1.760
63442W        W34971  12.908   5.609  11.351
63443W        W34972  13.170  39.098   0.469
63444W        W34973  37.897  17.686   1.670
63445W        W34974  33.366   3.663   1.739
63446W        W34975  42.925  40.971   3.721
63447W        W34976  43.890  21.516  13.035
63448W        W34977  44.284  20.949   0.889
63449W        W34978   1.221   3.343   4.642
63450W        W34979   1.838  37.423  11.661
63451W        W34980  18.669  14.151  11.260
63452W        W34981  15.554  33.837  12.770
63453W        W34982  18.625   1.395   0.893
63454W        W34983  43.770   7.019   2.435
63455W        W34984   2.494  34.060  13.364
63456W        W34985  42.872  24.901  11.884
63457W        W34986  11.290  24.538  14.537
63458W        W34987  23.706  15.518  10.733
63459W        W34988   3.632  11.724  10.654
63460W        W34989  25.776  25.416   3.190
63461W        W34990  23.491   7.103  10.832
63462W        W34991   1.189   1.701   3.280
63463W        W34992  36.938   1.328  11.574
63464W        W34993  11.869  25.431  13.277
63465W        W34994   7.755  20.172   1.792
63466W        W34995  43.078  33.972   2.712
63467W        W34996   9.418  14.763  12.967
63468W        W34997  12.945  10.136   0.824
63469W        W34998  43.915  29.899  11.137
63470W        W34999  11.576   7.150  14.019
63471W        W35000   2.296   0.342  13.242
63472W        W35001  13.098  19.605  11.627
63473W        W35002  40.457  42.248  12.841
63474W        W35003  43.948  10.250  12.939
63475W        W35004   6.625  18.513  10.317
63476W        W35005  29.918  28.627   1.678
63477W        W35006  26.698  29.421   3.238
63478W        W35007  11.849  19.575  12.901
63479W        W35008  22.046  27.919   1.315
63480W        W35009  27.033  19.424  11.543
63481W        W35010   4.993   1.770   0.331
63482W        W35011  15.645  11.576  12.317
63483W        W35012  26.764  35.399  14.341
63484W        W35013  35.520  25.353   2.773
63485W        W35014  30.971  32.943  12.470
63486W        W35015  33.628   1.963  14.905
63487W        W35016   8.844  28.299   4.605
63488W        W35017  32.390  39.521   2.519
63489W        W35018  41.007   3.329  12.001
63490W        W35019   9.124  18.047  12.680
63491W        W35020  21.759  29.943  13.471
63492W        W35021  34.866   5.375   4.653
63493W        W35022  12.639  42.792  14.344
63494W        W35023  19.046  41.140  14.748
63495W        W35024  26.379  44.297  11.891
63496W        W35025  11.902  14.451  13.603
63497W        W35026  11.280  35.883   2.549
63498W        W35027   3.016   1.146   0.956
63499W        W35028  35.536  13.650   3.152
63500W        W35029  26.713  38.417  10.738
63501W        W35030   9.028  21.551   3.585
63502W        W35031   1.355  14.735  13.350
63503W        W35032   1.532  18.089   3.806
63504W        W35033  31.444   0.675   1.237
63505W        W35034  34.508  37.806  10.759
63506W        W35035  41.562   1.846  11.593
63507W        W35036  21.575  36.971   0.429
63508W        W35037   6.338  20.041   0.340
63509W        W35038  20.242  24.811   3.688
63510W        W35039  11.203  26.029   2.917
63511W        W35040  18.735   9.884  14.198
63512W        W35041  38.903  24.749  13.444
63513W        W35042  24.551  15.834   3.235
63514W        W35043  33.639  39.534   0.186
63515W        W35044  19.303  22.672   4.052
63516W        W35045  10.315  42.018   2.727
63517W        W35046  15.773  21.230   1.574
63518W        W35047  34.590  32.011   2.777
63519W        W35048  38.049  24.432  11.124
63520W        W35049  26.181   9.930  10.643
63521W        W35050  34.198  43.916   0.959
63522W        W35051  43.386  32.196  13.869
63523W        W35052  15.695  38.540   1.755
63524W        W35053  39.939  34.423  13.425
63525W        W35054   4.767  32.369  11.372
63526W        W35055  33.657   2.069   4.286
63527W        W35056  43.331  20.097   4.605
63528W        W35057  34.487  18.294   0.671
63529W        W35058  29.995  44.780   0.060
63530W        W35059  19.038  25.168   2.818
63531W        W35060  11.839  30.730  10.756
63532W        W35061  10.712   4.114  12.582
63533W        W35062  27.415  23.046   3.323
63534W        W35063  29.281  18.523   4.734
63535W        W35064  24.594  22.772   1.826
63536W        W35065  23.445  17.128   4.547
63537W        W35066  26.565  34.019  11.203
63538W        W35067   9.208  40.832   0.431
63539W        W35068  17.565  38.255   3.328
63540W        W35069   0.704  38.683   4.082
63541W        W35070   7.198   6.952   4.649
63542W        W35071  30.762  22.533   0.470
63543W        W35072   6.744   9.861   0.934
63544W        W35073   7.884  24.071  14.477
63545W        W35074   7.725  11.370  13.833
63546W        W35075  34.890  30.185   1.269
63547W        W35076   9.463  26.969   1.610
63548W        W35077  34.921  21.534   0.348
63549W        W35078  25.919   4.864  12.053
63550W        W35079  12.839  24.081  12.925
63551W        W35080  19.626  39.379   4.342
63552W        W35081  10.824  34.355  11.684
63553W        W35082  25.761   8.481   4.213
63554W        W35083  31.617  29.849  12.903
63555W        W35084  40.866   9.974   1.868
63556W        W35085  31.929  19.018  13.148
63557W        W35086  44.769  15.489   2.977
63558W        W35087  19.245  24.256  11.545
63559W        W35088   4.869  25.418   2.926
63560W        W35089  23.603  30.021   2.275
63561W        W35090  13.260  11.424   1.856
63562W        W35091  13.841  27.499  11.894
63563W        W35092  29.585  21.737   1.465
63564W        W35093  44.016  37.921   3.376
63565W        W35094   4.824   3.875   1.466
63566W        W35095   4.565  43.847   0.359
63567W        W35096  44.773  44.466   9.830
63568W        W35097  35.889  38.985   4.562
63569W        W35098   5.846  10.704   3.371
63570W        W35099   5.028  30.361   2.799
63571W        W35100  31.372  18.595   3.779
63572W        W35101   6.338  41.268  11.358
63573W        W35102   9.648   4.299   4.433
63574W        W35103  10.098  15.715   0.964
63575W        W35104  12.873  24.346   3.205
63576W        W35105  28.500   3.987   0.428
63577W        W35106  14.747   2.859  11.585
63578W        W35107  12.831  42.936  12.013
63579W        W35108  14.706  26.483  12.387
63580W        W35109  43.032  39.264  14.540
63581W        W35110  33.984  37.510   2.421
63582W        W35111   7.931   8.527  12.614
63583W        W35112  24.285  40.358   4.586
63584W        W35113  31.175  39.279   0.894
63585W        W35114  25.144  14.385   4.464
63586W        W35115  30.578  16.315  12.004
63587W        W35116  20.391  33.915  11.413
63588W        W35117  40.411  35.530  14.390
63589W        W35118  12.096  16.385  11.447
63590W        W35119  33.994  33.735  14.830
63591W        W35120  36.340  28.461  13.915
63592W        W35121   8.619  30.443   3.604
63593W        W35122  25.644  24.328   1.771
63594W        W35123  11.802  18.559  13.867
63595W        W35124   6.357  41.805  11.272
63596W        W35125  38.318  41.213   1.375
63597W        W35126  14.361   8.622   1.127
63598W        W35127  42.521  10.266   1.687
63599W        W35128  38.986  33.195  13.926
63600W        W35129  24.299  19.784  14.396
63601W        W35130  11.777  20.014   3.152
63602W        W35131  33.186  44.254  11.504
63603W        W35132  25.221   0.084  14.231
63604W        W35133  12.853  15.572   3.309
63605W        W35134  17.656  21.246  14.278
63606W        W35135  37.072  28.367   4.095
63607W        W35136   0.133  30.195   1.244
63608W        W35137  36.333  33.347  12.036
63609W        W35138  12.411   9.808   4.614
63610W        W35139  31.653  16.920  11.425
63611W        W35140  12.355  15.276  12.085
63612W        W35141  44.992  11.727   0.694
63613W        W35142  32.575  35.655   0.799
63614W        W35143  32.637  32.465   0.735
63615W        W35144  25.657  14.366  11.888
63616W        W35145   6.697  44.762  13.254
63617W        W35146  35.337  30.566   1.875
63618W        W35147   2.932  26.819  12.823
63619W        W35148  42.468  30.372   2.728
63620W        W35149   4.963  37.828  12.074
63621W        W35150  27.676   1.280  11.576
63622W        W35151  40.375  12.145  12.932
63623W        W35152  21.684  17.315   2.142
63624W        W35153  11.791  41.836   1.354
63625W        W35154  25.826  39.694  11.627
63626W        W35155  24.507  19.761   1.883
63627W        W35156  43.251   1.348  13.921
63628W        W35157  12.398  25.615  11.488
63629W        W35158  16.441  22.849  14.220
63630W        W35159  26.525  13.591  11.001
63631W        W35160  38.025  43.435   0.954
63632W        W35161   5.562   0.507  14.730
63633W        W35162  22.406  34.517  12.974
63634W        W35163  28.497  20.542   3.032
63635W        W35164  43.708  30.060  11.608
63636W        W35165   7.350  10.571   0.747
63637W        W35166  26.482  25.020   2.176
63638W        W35167  36.565  20.796   3.246
63639W        W35168  35.694  30.479   2.224
63640W        W35169   9.742   6.789  12.162
63641W        W35170  32.547   0.234   0.836
63642W        W35171   6.695  14.705  10.758
63643W        W35172  11.244   1.437   3.076
63644W        W35173  29.102  24.059   0.189
63645W        W35174  12.949  38.570   1.938
63646W        W35175  34.625  17.897   1.595
63647W        W35176  24.253   5.010   9.881
63648W        W35177  27.691   8.959   0.495
63649W        W35178  43.319  12.795   0.875
63650W        W35179  30.134  42.917  12.935
63651W        W35180   9.798  43.057   1.166
63652W        W35181  22.196  42.862  14.852
63653W        W35182  30.724  26.781  10.770
63654W        W35183  22.184  21.179   3.910
63655W        W35184  27.794  19.684   2.364
63656W        W35185  35.353  35.385  13.418
63657W        W35186   5.422   6.487  13.423
63658W        W35187   3.056  34.274  14.191
63659W        W35188  30.691  30.880  14.120
63660W        W35189  22.026  29.117   2.138
63661W        W35190   9.188  44.705   0.278
63662W        W35191  21.672  32.581  13.999
63663W        W35192  11.655   2.480   4.090
63664W        W35193  41.879  11.210  12.300
63665W        W35194  14.593  33.442  13.014
63666W        W35195  43.708  33.002   3.395
63667W        W35196   8.940  12.987  12.489
63668W        W35197  18.748  38.489   1.815
63669W        W35198  42.549  33.306   4.718
63670W        W35199   2.178  39.578  14.767
63671W        W35200  13.620  15.140  13.468
63672W        W35201  31.526  29.788   4.390
63673W        W35202  33.571   2.656   1.020
63674W        W35203   1.087   8.343  12.146
63675W        W35204  16.989   7.632  10.805
63676W        W35205  25.436  37.141  13.416
63677W        W35206  21.627  18.781   3.138
63678W        W35207  11.807  20.121  14.600
63679W        W35208  31.193  40.904  12.444
63680W        W35209   7.157  44.391   2.707
63681W        W35210  23.690  12.198  13.480
63682W        W35211  21.632  10.733  14.383
63683W        W35212  40.740  39.344  13.933
63684W        W35213  36.568  43.387  12.213
63685W        W35214  41.037  20.970   2.740
63686W        W35215  44.183   6.258   3.263
63687W        W35216  16.981   3.120   3.242
63688W        W35217  27.425  41.482   0.964
63689W        W35218  33.450   8.496   5.025
63690W        W35219  39.507  13.327  11.096
63691W        W35220   4.439   2.848   2.367
63692W        W35221  10.930  44.853  14.368
63693W        W35222  15.695  10.869   3.687
63694W        W35223  17.117   0.430   1.760
63695W        W35224  17.091   7.901   1.405
63696W        W35225  24.485  43.105  10.392
63697W        W35226  32.548  12.769   4.929
63698W        W35227  19.579  33.945  11.863
63699W        W35228  19.864  15.798   4.128
63700W        W35229  34.712  34.458   4.204
63701W        W35230  27.049   0.013   0.145
63702W        W35231  25.140  22.904   1.698
63703W        W35232  40.846  26.714  12.834
63704W        W35233   5.901  41.127   3.875
63705W        W35234  31.456   6.826  13.905
63706W        W35235  25.126   7.230  10.640
63707W        W35236  12.882  15.746  13.679
63708W        W35237   6.665  21.798   1.620
63709W        W35238  25.044   3.222   3.669
63710W        W35239  28.045  12.464  10.356
63711W        W35240  21.720  21.766  14.437
63712W        W35241  21.227  23.065  13.655
63713W        W35242   5.223  26.205   2.778
63714W        W35243  31.989  21.556   3.183
63715W        W35244  16.034  41.625   1.875
63716W        W35245  43.867  28.614  14.745
63717W        W35246  35.135  39.656  12.966
63718W        W35247  24.503  10.797  11.454
63719W        W35248  21.073  18.148  13.999
63720W        W35249  43.675  29.765   4.486
63721W        W35250  18.662   5.776  11.665
63722W        W35251   5.798  32.174  14.590
63723W        W35252   7.315  41.584  12.920
63724W        W35253  16.040  22.452  14.375
63725W        W35254   7.176   7.099  12.053
63726W        W35255  20.686   3.376  10.565
63727W        W35256   9.861  40.227  13.985
63728W        W35257   1.695   7.762   0.797
63729W        W35258  29.167  35.953   2.734
63730W        W35259  30.891  29.455   1.201
63731W        W35260  32.443  34.389   0.964
63732W        W35261   8.359  38.087   1.240
63733W        W35262  28.965  34.420   2.190
63734W        W35263  14.574  14.717   1.836
63735W        W35264  34.681  12.238   3.358
63736W        W35265  43.544  11.068  14.634
63737W        W35266   8.677   1.001  10.812
63738W        W35267  16.548  13.411  14.282
63739W        W35268   6.058  29.025  11.844
63740W        W35269   6.267  25.632   1.675
63741W        W35270  37.526  22.227  11.602
63742W        W35271  21.625  42.292  11.625
63743W        W35272   2.373  24.061   1.721
63744W        W35273  15.096  39.692  13.572
63745W        W35274  25.193  27.718  11.994
63746W        W35275  21.067  36.153   4.669
63747W        W35276   7.094  30.089  13.134
63748W        W35277  28.474  19.358   0.768
63749W        W35278  17.136   8.536  11.952
63750W        W35279  41.383   9.640  14.513
63751W        W35280  21.216   8.756  12.066
63752W        W35281  30.354  29.027  13.204
63753W        W35282  10.840   2.359  13.898
63754W        W35283   7.783  11.710  13.435
63755W        W35284  44.195  32.438   1.324
63756W        W35285  43.346   7.356   4.648
63757W        W35286  28.878   3.170  11.642
63758W        W35287  27.483  28.629   4.847
63759W        W35288  26.227   4.399  14.563
63760W        W35289  25.984  28.239   3.790
63761W        W35290   5.459  26.080  14.809
63762W        W35291  17.581  29.938  13.273
63763W        W35292  38.534  15.328   4.985
63764W        W35293   1.694  17.204   3.793
63765W        W35294  44.946  12.289  11.118
63766W        W35295  21.394  14.584   4.025
63767W        W35296  21.073   9.708  10.247
63768W        W35297  42.575  20.100   4.079
63769W        W35298  10.058  38.395  12.936
63770W        W35299  15.680   0.464  14.983
63771W        W35300   8.851  21.553   0.184
63772W        W35301  11.653  33.879   0.344
63773W        W35302  39.038  10.625  10.338
63774W        W35303  21.018   7.200  10.421
63775W        W35304  24.060  32.618   3.186
63776W        W35305  18.474  41.890   1.407
63777W        W35306  27.951  15.808   4.298
63778W        W35307  13.634  38.437  10.771
63779W        W35308  41.109  36.155  12.097
63780W        W35309  20.085  38.000  12.424
63781W        W35310  38.202  13.578   0.461
63782W        W35311   0.020  29.979   4.549
63783W        W35312  43.274  27.063  13.012
63784W        W35313  21.922  23.899  11.475
63785W        W35314   4.099  32.326  10.730
63786W        W35315  37.119   2.959   4.072
63787W        W35316   2.152  34.101   3.697
63788W        W35317  22.099   3.605   4.986
63789W        W35318   6.626  42.870  14.466
63790W        W35319   0.795   0.021  12.088
63791W        W35320  42.319  26.065  12.534
63792W        W35321   0.488  37.884  14.987
63793W        W35322  32.202   1.330   0.344
63794W        W35323  33.061  24.001  14.905
63795W        W35324  14.786  16.839   3.671
63796W        W35325  19.744  34.974   3.076
63797W        W35326  24.084  21.997   4.157
63798W        W35327   5.503  20.231  12.797
63799W        W35328   6.386  25.266  13.876
63800W        W35329   4.006  41.948  12.959
63801W        W35330  28.594  35.446   3.358
63802W        W35331  26.455  37.919  14.594
63803W        W35332  10.212  20.614   0.924
63804W        W35333  35.620  43.586  13.547
63805W        W35334  21.125  42.496   0.306
63806W        W35335  27.933  40.074   4.020
63807W        W35336  44.854   6.775   1.425
63808W        W35337  13.740  15.074   0.873
63809W        W35338   6.211   5.520  14.611
63810W        W35339   8.874  35.901  14.425
63811W        W35340   5.205  44.727  11.190
63812W        W35341   5.988  25.899   4.553
63813W        W35342  13.315   1.256  11.725
63814W        W35343  30.050  16.651  10.574
63815W        W35344  27.703  27.420   2.817
63816W        W35345  16.857  22.626   4.308
63817W        W35346   2.527  29.892  12.399
63818W        W35347  43.843  17.985  13.857
63819W        W35348   4.226  31.315  12.485
63820W        W35349   2.637  38.842  14.418
63821W        W35350  22.317   1.517  14.482
63822W        W35351  15.890  15.366  11.138
63823W        W35352  33.064  10.225   0.465
63824W        W35353   7.244  13.787   1.303
63825W        W35354  36.264  18.759  14.166
63826W        W35355  38.585  26.577  13.444
63827W        W35356  15.110  14.289  14.755
63828W        W35357  39.635  41.461  13.312
63829W        W35358   6.381   8.211   0.684
63830W        W35359   2.224  39.077   4.256
63831W        W35360  37.419  32.372  10.620
63832W        W35361  34.881  28.584  11.525
63833W        W35362  10.351   6.250   0.847
63834W        W35363  30.024  24.153   3.634
63835W        W35364   3.656  34.528   0.325
63836W        W35365  12.369   4.829  11.697
63837W        W35366  20.539   6.387   0.059
63838W        W35367   0.918  35.590   0.404
63839W        W35368  38.547  17.841  14.802
63840W        W35369  25.189   7.312  14.532
63841W        W35370  41.912  10.808   1.696
63842W        W35371  13.159  41.088   1.381
63843W        W35372  22.614  11.784   4.506
63844W        W35373   6.871   7.644  12.525
63845W        W35374  32.611  17.130   4.400
63846W        W35375  11.864  36.930   4.380
63847W        W35376  38.366   2.433  11.932
63848W        W35377  28.208  38.068  14.938
63849W        W35378  29.267  33.251  13.087
63850W        W35379  30.554  40.971   3.315
63851W        W35380   9.195  39.130  13.399
63852W        W35381  12.675  32.141   4.177
63853W        W35382  35.743  27.986  10.561
63854W        W35383  12.386  38.327  11.021
63855W        W35384  35.472   7.898   2.601
63856W        W35385  33.732  41.353  14.427
63857W        W35386  19.327  42.346   1.137
63858W        W35387  28.570  34.580   2.933
63859W        W35388  35.277  31.161  12.225
63860W        W35389  42.924  31.036  13.927
63861W        W35390  38.417  18.541   3.726
63862W        W35391  28.069  23.635   2.168
63863W        W35392   5.921  10.407   0.761
63864W        W35393   4.988  34.664   1.104
63865W        W35394  37.063   6.104   0.364
63866W        W35395  27.418  34.415   4.009
63867W        W35396   8.623  11.715  10.974
63868W        W35397  14.741  20.988   3.255
63869W        W35398  44.095  39.423   1.379
63870W        W35399  38.946  14.182  13.282
63871W        W35400   3.904  15.079  13.867
63872W        W35401  12.670  21.657   1.900
63873W        W35402  35.389  35.477  10.674
63874W        W35403  28.430  25.107  14.852
63875W        W35404  21.581  18.530  12.184
63876W        W35405   6.687  24.427   0.911
63877W        W35406  31.454  26.719  12.096
63878W        W35407  38.538  23.473  10.735
63879W        W35408  22.943   8.242   1.356
63880W        W35409  22.342   6.789  14.803
63881W        W35410  33.077  40.183   1.845
63882W        W35411  43.228  17.634  11.212
63883W        W35412  14.102  19.003   0.873
63884W        W35413  43.410   8.771  14.012
63885W        W35414  21.430  33.114   2.338
63886W        W35415  19.980   9.347  11.031
63887W        W35416  24.561   8.210  11.963
63888W        W35417   4.231  15.223   3.717
63889W        W35418  33.004  38.357   2.105
63890W        W35419  35.980  28.666   3.254
63891W        W35420  28.186  44.400   2.366
63892W        W35421  42.476   9.310   1.100
63893W        W35422  34.262  17.008   1.276
63894W        W35423  22.098  26.016  11.214
63895W        W35424  29.135   9.275   0.520
63896W        W35425   4.370  33.152  14.065
63897W        W35426  24.899   1.750  11.000
63898W        W35427  18.818  19.674   0.541
63899W        W35428  39.788  38.420   2.432
63900W        W35429  15.844  35.364  12.782
63901W        W35430   4.705  31.239   0.776
63902W        W35431  24.171  36.558   3.796
63903W        W35432  18.636  30.618  10.410
63904W        W35433  20.140  22.313   1.660
63905W        W35434  36.017  36.566   3.072
63906W        W35435  25.050  35.955  11.885
63907W        W35436  33.169   6.870   0.832
63908W        W35437  37.590  42.926   4.237
63909W        W35438  14.976   8.478  11.478
63910W        W35439  44.278  36.879   3.181
63911W        W35440   1.391   2.866   4.748
63912W        W35441  36.804  19.532   3.489
63913W        W35442  38.255  36.558   0.294
63914W        W35443  42.578  15.133  13.736
63915W        W35444   1.247   1.970  13.052
63916W        W35445   7.085   0.866   4.717
63917W        W35446  12.239  26.902   1.245
63918W        W35447  42.961  17.334  12.927
63919W        W35448  23.018  39.924   2.322
63920W        W35449  22.957  35.931   2.381
63921W        W35450  18.142  16.646   2.760
63922W        W35451   1.468  16.784   3.606
63923W        W35452   9.912  15.369   3.107
63924W        W35453  28.235   1.835   0.318
63925W        W35454  29.306  42.289   0.731
63926W        W35455  44.796  22.231   1.009
63927W        W35456  38.029  38.881   0.465
63928W        W35457  14.674  21.094   0.687
63929W        W35458  44.393  36.080  13.926
63930W        W35459  33.180  16.349   2.841
63931W        W35460  24.495  23.770   1.811
63932W        W35461   8.506  33.177  12.101
63933W        W35462  32.794  13.370  11.687
63934W        W35463  28.686   8.411   2.363
63935W        W35464  17.143  38.579  13.925
63936W        W35465  22.555   5.429  12.444
63937W        W35466   1.251  38.414   4.598
63938W        W35467  11.199  41.060  10.586
63939W        W35468  27.696  42.881  11.437
63940W        W35469  30.444  15.597   1.822
63941W        W35470  31.924  16.685  10.637
63942W        W35471  38.847  34.619   3.545
63943W        W35472  17.461  29.515  14.935
63944W        W35473  34.009  36.296  12.413
63945W        W35474  25.550  17.257  11.300
63946W        W35475  41.520  11.737   1.911
63947W        W35476  27.352  36.128  12.899
63948W        W35477  26.231  14.786  13.447
63949W        W35478   6.695   1.306   3.612
63950W        W35479  34.154  24.767  11.567
63951W        W35480  16.587  16.992   4.033
63952W        W35481  24.324  32.705  10.673
63953W        W35482  25.082  26.851  11.651
63954W        W35483  29.965   5.327   2.361
63955W        W35484   9.135  43.020   2.413
63956W        W35485  30.876  38.549   2.262
63957W        W35486  42.829  10.572   4.068
63958W        W35487   2.941  43.782   0.772
63959W        W35488  17.736  12.146  12.538
63960W        W35489  39.702  23.689   4.085
63961W        W35490   1.363  31.597  14.016
63962W        W35491  20.267  23.446  14.507
63963W        W35492   1.219  13.752   0.476
63964W        W35493  21.543  25.714  12.503
63965W        W35494  21.545  32.337   3.867
63966W        W35495  33.621  31.769  10.761
63967W        W35496   9.025   9.085  11.096
63968W        W35497   0.318   9.976  13.306
63969W        W35498  22.214   9.102  10.506
63970W        W35499  21.040  18.578   2.379
63971W        W35500  12.149  12.359   4.161
63972W        W35501  33.524  15.829  11.383
63973W        W35502  24.278  34.898   3.683
63974W        W35503  14.543  44.286  10.135
63975W        W35504   2.506  17.257  14.788
63976W        W35505  30.004  14.801   0.885
63977W        W35506  32.280  13.103   3.868
63978W        W35507   4.235  43.391   0.456
63979W        W35508  23.051  17.336   1.739
63980W        W35509  12.323  19.383  14.075
63981W        W35510  17.317  18.192  14.698
63982W        W35511  43.275  27.540   0.429
63983W        W35512  15.685  35.377   0.160
63984W        W35513  28.946  22.602  14.815
63985W        W35514  35.900  24.473   0.820
63986W        W35515   9.773   9.550  12.591
63987W        W35516  38.323  23.084  11.154
63988W        W35517  24.205  15.701   2.118
63989W        W35518  23.700  10.638   3.619
63990W        W35519  23.744   5.884  11.117
63991W        W35520  30.916  20.730   3.344
63992W        W35521   0.308  13.158   2.343
63993W        W35522  38.631   6.462  11.658
63994W        W35523  36.559  22.009   3.699
63995W        W35524  26.357  11.697   2.267
63996W        W35525  41.448  30.348  14.932
63997W        W35526  37.865  38.868  12.432
63998W        W35527  34.298  23.762   3.251
63999W        W35528  26.154  41.771  13.412
64000W        W35529   2.376   2.969   4.926
64001W        W35530   2.289  23.788  14.860
64002W        W35531  11.301  11.595   3.791
64003W        W35532  28.099  26.452   4.971
64004W        W35533   1.072  36.416  10.517
64005W        W35534  23.469   9.294   3.265
64006W        W35535  27.102   3.237   4.593
64007W        W35536  15.185  36.999  10.563
64008W        W35537  36.880   4.895   1.880
64009W        W35538   8.774  20.703   1.151
64010W        W35539   1.426  25.270  11.090
64011W        W35540  13.085  30.648   0.523
64012W        W35541  32.590  38.502   2.912
64013W        W35542  44.421  29.610   1.540
64014W        W35543   9.577  40.464  11.496
64015W        W35544  44.259  11.271  11.812
64016W        W35545  30.260   1.125   3.137
64017W        W35546  32.920  24.638  12.973
64018W        W35547   9.180  29.135   4.108
64019W        W35548  20.150  10.290  10.730
64020W        W35549  31.189  29.302  12.094
64021W        W35550  29.047  35.613   4.669
64022W        W35551  22.547  43.240  11.443
64023W        W35552  10.866  36.577   3.493
64024W        W35553   2.941  34.454   1.240
64025W        W35554  17.356  19.274  11.509
64026W        W35555   9.872  18.193  10.228
64027W        W35556  19.615   9.894   4.096
64028W        W35557  34.331   4.559  13.448
64029W        W35558  16.731   8.309  14.274
64030W        W35559   8.764  35.622   1.247
64031W        W35560   3.734  43.434  14.338
64032W        W35561  22.850  28.443   3.793
64033W        W35562  44.848  15.466  12.403
64034W        W35563  23.702  40.876  11.242
64035W        W35564  28.853  16.030  14.012
64036W        W35565   0.210  23.747   3.405
64037W        W35566   4.611   7.712  13.505
64038W        W35567  35.888   2.757   3.729
64039W        W35568  35.357  42.277   2.347
64040W        W35569  22.120  38.745   1.875
64041W        W35570  40.979   3.206   2.240
64042W        W35571  26.852  37.324   3.149
64043W        W35572  42.535  35.733   1.721
64044W        W35573  27.937   2.406  11.715
64045W        W35574  30.994  25.032  12.447
64046W        W35575   6.420  20.936   0.822
64047W        W35576  33.710   1.375   4.910
64048W        W35577  35.827  15.009   4.164
64049W        W35578  11.350   8.318   0.832
64050W        W35579  30.380  30.954  13.321
64051W        W35580  39.543  34.048   3.758
64052W        W35581  36.111  43.760  13.478
64053W        W35582  12.565   7.325   4.074
64054W        W35583  39.546  40.999  13.913
64055W        W35584  10.828  40.091   4.773
64056W        W35585  11.555   2.841  13.029
64057W        W35586  24.664  11.901   1.202
64058W        W35587  22.966  17.593  13.066
64059W        W35588   4.291  10.740  12.399
64060W        W35589  16.052   3.505  13.003
64061W        W35590  26.167  30.046  14.028
64062W        W35591  11.627   6.211  11.564
64063W        W35592  23.261  40.806   2.459
64064W        W35593  21.478   6.287   2.746
64065W        W35594  43.866  17.334  13.458
64066W        W35595  37.320  22.017  14.373
64067W        W35596  20.723  13.602   4.153
64068W        W35597  19.456  42.936  12.824
64069W        W35598   9.203  12.117   4.580
64070W        W35599   4.380   3.703  14.449
64071W        W35600  18.733  37.567   3.191
64072W        W35601  36.211   6.301  12.584
64073W        W35602  34.048  36.607   1.279
64074W        W35603  34.153  20.625  11.208
64075W        W35604  42.605  29.619  10.713
64076W        W35605  15.660  11.914  12.707
64077W        W35606  24.284  40.672   0.061
64078W        W35607   7.787  28.471   0.510
64079W        W35608  29.455  28.027  14.243
64080W        W35609  32.758  14.346   0.664
64081W        W35610   1.699  17.817  14.726
64082W        W35611  36.289  13.175   2.480
64083W        W35612  28.915  21.626   0.774
64084W        W35613   6.964  22.146   0.481
64085W        W35614  38.697  40.427  12.001
64086W        W35615  13.745  32.926   0.792
64087W        W35616  11.210  34.582  11.953
64088W        W35617   7.377   3.693  13.316
64089W        W35618  10.275  39.920   4.017
64090W        W35619  25.589  19.533  10.598
64091W        W35620  34.031  24.691  10.181
64092W        W35621  32.303  37.350  11.710
64093W        W35622  24.975  36.041   1.298
64094W        W35623  25.217   0.067   3.612
64095W        W35624   0.819  20.095  12.241
64096W        W35625  34.711  16.448  10.891
64097W        W35626  39.530  36.483   3.810
64098W        W35627  31.211  34.538  13.531
64099W        W35628  44.374  40.936  13.318
64100W        W35629  20.476  17.222   4.103
64101W        W35630  37.913  17.891   1.162
64102W        W35631   4.309  43.746  14.027
64103W        W35632  24.660  18.767  14.782
64104W        W35633  28.713   2.908   3.628
64105W        W35634  20.652   9.141   4.942
64106W        W35635  30.672   9.401  14.067
64107W        W35636  29.434  10.344  11.181
64108W        W35637  21.482   6.890  12.107
64109W        W35638  24.922  24.438  12.424
64110W        W35639  21.445   8.826   4.646
64111W        W35640  25.775  22.586  10.139
64112W        W35641   5.314  37.299  14.774
64113W        W35642  24.741  29.520  12.079
64114W        W35643   8.226  29.685  12.052
64115W        W35644  17.355   6.190   1.360
64116W        W35645   0.003  37.759   2.358
64117W        W35646  41.827  29.678   4.352
64118W        W35647  40.118  27.963  14.091
64119W        W35648  40.478  41.413  11.882
64120W        W35649   1.935  26.203   4.063
64121W        W35650  23.573  43.741   0.208
64122W        W35651  20.165  34.089   4.145
64123W        W35652  26.980  13.249   1.248
64124W        W35653  33.131  37.837   1.382
64125W        W35654  41.251  23.697  11.191
64126W        W35655  25.662  40.534   3.285
64127W        W35656  23.984  40.571   2.882
64128W        W35657  35.976   5.295   0.451
64129W        W35658  25.114  11.561  11.654
64130W        W35659   9.494  32.538  14.472
64131W        W35660  32.530  41.587  10.320
64132W        W35661  35.948  44.512   1.225
64133W        W35662  32.927  25.486   1.682
64134W        W35663   7.381  33.903  11.232
64135W        W35664   8.762  44.990   2.310
64136W        W35665  30.660  31.463   3.827
64137W        W35666  18.083   3.385   5.172
64138W        W35667  43.231  38.391   4.146
64139W        W35668  21.346   4.696  12.234
64140W        W35669   3.482  33.030   0.716
64141W        W35670   3.690   4.745   1.659
64142W        W35671  21.089  33.192  11.735
64143W        W35672  12.795   9.431   2.173
64144W        W35673  26.625   6.714  12.242
64145W        W35674   7.431   4.219  11.011
64146W        W35675   8.176  14.752   1.471
64147W        W35676  21.641  20.427   0.377
64148W        W35677  26.464  16.296  14.507
64149W        W35678   1.494  28.609   2.214
64150W        W35679  18.232  38.483   1.706
64151W        W35680   1.824  17.641   4.615
64152W        W35681  16.544  44.207  11.167
64153W        W35682  29.288  26.545  14.437
64154W        W35683  33.096  29.840   3.102
64155W        W35684  40.936   1.881   1.210
64156W        W35685  39.955  31.015  11.912
64157W        W35686   7.698  12.098   2.838
64158W        W35687  30.231   8.443   3.914
64159W        W35688   6.113  27.752  12.134
64160W        W35689  12.569   5.776  10.685
64161W        W35690  23.972  30.170   3.815
64162W        W35691   1.686  24.551   3.259
64163W        W35692  23.217  30.573  12.859
64164W        W35693  11.821  44.034  12.524
64165W        W35694  38.881  27.226   0.501
64166W        W35695  33.491   6.267   3.391
64167W        W35696  42.182   3.865   2.125
64168W        W35697  39.344  19.498   2.186
64169W        W35698   0.975  33.974  14.103
64170W        W35699  32.159   2.883  13.045
64171W        W35700  23.234   0.992   4.321
64172W        W35701   8.876  13.735  14.846
64173W        W35702   4.266  24.777   1.055
64174W        W35703  29.147  31.022   1.225
64175W        W35704   0.258  17.206  12.852
64176W        W35705  24.072   2.562   3.201
64177W        W35706  37.492   5.199   2.633
64178W        W35707  44.891  43.089   2.909
64179W        W35708   2.160  20.628  14.983
64180W        W35709  42.982   7.743  11.538
64181W        W35710  26.974  20.575  11.043
64182W        W35711  36.289   1.166  14.370
64183W        W35712  33.046  18.772   3.124
64184W        W35713  15.471   2.418   2.873
64185W        W35714  20.213  22.937  14.602
64186W        W35715  34.183  15.423  10.987
64187W        W35716  17.572  18.333   3.718
64188W        W35717  16.935  10.741   3.451
64189W        W35718  23.973  27.432  14.787
64190W        W35719  24.085  33.892  11.527
64191W        W35720  10.428  13.376  10.581
64192W        W35721  10.762  24.887   1.762
64193W        W35722  38.805  40.916  13.475
64194W        W35723  21.421   2.567  10.882
64195W        W35724  12.874  21.248   2.519
64196W        W35725  28.380  10.284   1.772
64197W        W35726  17.055  31.996  13.049
64198W        W35727  30.908  44.515  13.867
64199W        W35728  21.752  39.774   3.969
64200W        W35729   0.301  19.303   2.821
64201W        W35730  28.047   4.718   3.676
64202W        W35731   3.440  23.989  14.791
64203W        W35732  35.837  29.559   3.746
64204W        W35733  16.074  35.927  14.227
64205W        W35734   6.663  26.395   0.005
64206W        W35735  39.855   3.733  12.393
64207W        W35736  13.918  13.205   4.551
64208W        W35737   8.789  32.033  14.151
64209W        W35738  11.194  31.166  11.056
64210W        W35739  18.631  25.068   5.223
64211W        W35740  13.572  11.404   1.307
64212W        W35741   4.665  13.903  11.992
64213W        W35742   4.117  20.638   0.359
64214W        W35743  28.706  14.098  10.700
64215W        W35744  19.299   2.513   4.098
64216W        W35745  26.146   0.970  12.545
64217W        W35746  14.134  16.775  11.071
64218W        W35747  40.947  10.235   0.519
64219W        W35748  41.546  16.847  11.624
64220W        W35749  37.135  15.280   4.564
64221W        W35750   6.793  34.554  13.861
64222W        W35751  15.701  32.160  10.357
64223W        W35752  37.949  13.508   1.845
64224W        W35753  44.398  13.757   4.654
64225W        W35754  30.013  42.718   3.349
64226W        W35755  31.903  35.933  11.512
64227W        W35756  38.258  41.234   1.887
64228W        W35757  12.118  35.874  10.473
64229W        W35758  17.354  37.527  10.183
64230W        W35759  27.520  30.048  11.550
64231W        W35760   5.444  15.374  12.093
64232W        W35761  41.561  37.115   1.882
64233W        W35762  18.124  22.549   4.577
64234W        W35763  44.733  12.252  14.319
64235W        W35764  29.555  30.653  11.746
64236W        W35765  26.277  18.129   2.004
64237W        W35766  18.511   7.680  11.181
64238W        W35767  42.103  31.026   0.238
64239W        W35768  25.023  15.651   2.404
64240W        W35769  41.876  20.108  11.979
64241W        W35770  13.629   6.422   4.477
64242W        W35771  27.843  21.110   0.086
64243W        W35772   3.428  25.180   4.248
64244W        W35773  26.030  31.147  11.801
64245W        W35774  35.353  14.195  10.641
64246W        W35775   1.423  10.820  14.992
64247W        W35776  23.178  34.884  11.898
64248W        W35777  26.955  40.158   3.739
64249W        W35778  26.995  42.176   1.418
64250W        W35779  29.184  19.318   1.387
64251W        W35780   6.201  42.028  14.413
64252W        W35781  19.967  21.838  13.911
64253W        W35782  39.926   8.743  13.969
64254W        W35783  37.653  13.611   0.489
64255W        W35784  27.929  28.464   0.668
64256W        W35785  13.858  37.823  10.773
64257W        W35786   2.318   8.306   2.177
64258W        W35787  12.288  21.939  12.644
64259W        W35788   3.005  42.015   2.782
64260W        W35789  29.685  25.423   4.586
64261W        W35790  18.749  44.524  12.977
64262W        W35791   6.661  20.986   1.940
64263W        W35792  38.811  16.074  11.698
64264W        W35793  39.007   4.140  12.410
64265W        W35794   3.087  31.546   1.693
64266W        W35795  34.560   8.696  11.028
64267W        W35796   6.686   3.137  10.944
64268W        W35797  40.824  19.526   2.803
64269W        W35798  26.805   4.423   0.196
64270W        W35799  42.605  39.693  11.099
64271W        W35800  35.855  23.774  12.075
64272W        W35801   3.024  21.625  13.409
64273W        W35802  38.825  20.246   3.385
64274W        W35803  43.688  40.553   0.751
64275W        W35804  18.027   2.792   2.860
64276W        W35805  35.202   6.010  14.316
64277W        W35806   6.152  44.281   2.684
64278W        W35807  40.461  24.799  13.557
64279W        W35808  21.867  10.503   0.942
64280W        W35809   0.705  43.324  12.567
64281W        W35810   0.937  15.992   2.111
64282W        W35811  14.867  10.358  11.601
64283W        W35812  21.041  37.895  12.019
64284W        W35813  26.118  27.129  10.675
64285W        W35814  22.291  40.914   3.418
64286W        W35815  23.606  24.743  11.919
64287W        W35816  27.782  31.055   1.328
64288W        W35817  40.964  42.853  11.568
64289W        W35818  26.361  31.068   4.595
64290W        W35819  21.113   8.014   1.887
64291W        W35820  27.042  15.113  13.910
64292W        W35821  34.508  20.002   4.185
64293W        W35822   7.921  23.793   2.834
64294W        W35823  21.061  33.354  13.959
64295W        W35824  25.186  16.321  10.951
64296W        W35825  24.404  32.798   1.820
64297W        W35826  28.545  41.501  14.001
64298W        W35827  15.168  28.481   4.880
64299W        W35828  28.063  25.272   1.006
64300W        W35829  43.223  13.602  11.532
64301W        W35830  34.426   0.324  12.291
64302W        W35831  36.115  25.457   2.768
64303W        W35832  38.077   6.300   0.657
64304W        W35833  26.864   5.962  11.628
64305W        W35834  44.881  40.905   2.320
64306W        W35835  42.836  43.457   4.663
64307W        W35836  16.072  24.030  11.981
64308W        W35837  11.362  34.165  11.683
64309W        W35838  38.578  20.968   3.838
64310W        W35839  25.509  36.954   2.115
64311W        W35840  39.695  44.322  12.612
64312W        W35841  36.362  37.044   4.085
64313W        W35842  36.658  30.736   4.084
64314W        W35843  14.262   9.098   1.369
64315W        W35844  29.166  36.217   3.210
64316W        W35845  24.305  22.447   4.221
64317W        W35846  39.025  27.682   0.269
64318W        W35847  13.104  20.245  12.200
64319W        W35848   4.985  42.413  13.837
64320W        W35849  41.755  12.227  13.268
64321W        W35850  23.294  20.856  14.852
64322W        W35851  37.057  32.176   3.799
64323W        W35852  28.771   1.615  14.397
64324W        W35853  32.320  13.227   4.831
64325W        W35854  21.234  33.245  14.922
64326W        W35855  39.648  24.892  14.729
64327W        W35856   1.128  36.505  13.006
64328W        W35857  33.455  16.724   2.629
64329W        W35858   1.010  34.965   1.622
64330W        W35859   6.355   5.634  13.856
64331W        W35860   1.845  19.705  13.841
64332W        W35861   4.936   9.090   1.380
64333W        W35862  36.880  15.663   4.252
64334W        W35863  40.469  34.370   4.624
64335W        W35864  30.194  38.438  13.360
64336W        W35865  11.195   8.117  14.418
64337W        W35866   9.043  32.016   0.981
64338W        W35867  39.793   1.867   2.846
64339W        W35868  20.647  13.311  13.589
64340W        W35869  36.584  11.691   1.477
64341W        W35870   6.012  22.588   0.489
64342W        W35871  10.315  13.415  14.976
64343W        W35872  11.343  27.970   1.280
64344W        W35873  29.934  21.143   1.862
64345W        W35874  39.791  43.434  11.332
64346W        W35875   9.808   5.733   2.329
64347W        W35876  32.719  43.290  14.274
64348W        W35877   9.717   9.339   4.378
64349W        W35878  36.481  10.606   3.156
64350W        W35879  18.869   8.707  14.330
64351W        W35880  37.279  15.391  12.405
64352W        W35881  10.657  29.307   2.734
64353W        W35882  33.753  17.296  10.251
64354W        W35883  10.883  12.589   4.134
64355W        W35884  13.625  43.903  13.524
64356W        W35885   2.806  14.272  13.920
64357W        W35886  14.572   4.945  13.713
64358W        W35887  14.798  23.487   2.815
64359W        W35888  25.100   9.324  14.762
64360W        W35889  40.001  18.769   2.342
64361W        W35890  10.255  34.897  13.054
64362W        W35891  41.865  35.970   0.422
64363W        W35892  38.960   0.015  10.505
64364W        W35893   4.026  24.164   2.371
64365W        W35894  35.883  20.204   4.327
64366W        W35895  42.366  17.201  13.954
64367W        W35896  44.312  23.232  11.667
64368W        W35897   9.895   4.972   0.973
64369W        W35898  30.165   3.044  11.535
64370W        W35899   9.608  14.251  11.978
64371W        W35900  27.094   1.417  10.899
64372W        W35901  13.221  38.088  13.400
64373W        W35902  37.733  41.955   2.398
64374W        W35903  35.942  19.690  14.900
64375W        W35904  12.200   4.658   0.510
64376W        W35905  35.886  35.884   3.696
64377W        W35906  32.625  38.658  13.781
64378W        W35907  18.539  34.530   3.082
64379W        W35908   1.962  42.975  10.748
64380W        W35909  31.408  18.119   4.638
64381W        W35910   6.249  30.624   3.336
64382W        W35911  33.441  40.350  14.513
64383W        W35912  22.558  11.175   1.004
64384W        W35913  24.220  15.822   1.257
64385W        W35914   7.990   2.395   4.051
64386W        W35915  43.491  21.598   0.513
64387W        W35916  34.964   0.273   4.560
64388W        W35917  42.788  20.018  11.044
64389W        W35918  18.142  39.961  11.218
64390W        W35919  44.389  42.258   3.243
64391W        W35920  31.630  37.468  12.292
64392W        W35921   5.302  29.444  14.414
64393W        W35922  40.848  25.664   4.567
64394W        W35923  23.127  21.193   3.641
64395W        W35924  21.579   6.937  13.457
64396W        W35925  16.934   2.252   0.533
64397W        W35926   2.993  42.405  13.517
64398W        W35927   8.865  23.584   0.908
64399W        W35928  30.104   1.748  13.916
64400W        W35929  40.972  28.898   0.435
64401W        W35930  19.569  41.520  13.878
64402W        W35931   5.151   8.704   4.160
64403W        W35932  18.150   8.372  10.663
64404W        W35933   8.228  23.180   1.377
64405W        W35934  25.761  11.631  11.980
64406W        W35935  31.368  18.825   2.631
64407W        W35936   1.925   1.440   3.698
64408W        W35937   1.461  24.654   1.235
64409W        W35938   6.221   7.252  12.087
64410W        W35939  32.659  25.926   1.697
64411W        W35940  32.851  38.099   3.132
64412W        W35941  30.134  33.931  12.151
64413W        W35942  20.797  39.248   3.731
64414W        W35943   8.040  12.442   2.236
64415W        W35944  21.639  25.559   3.272
64416W        W35945  31.342  21.671   2.781
64417W        W35946  12.937  24.020  11.151
64418W        W35947   8.184   6.924   1.874
64419W        W35948   3.793  27.231   2.850
64420W        W35949  37.332  23.294   1.397
64421W        W35950  13.414  10.268  13.353
64422W        W35951  38.877  12.740   2.442
64423W        W35952  40.858  44.836  12.947
64424W        W35953  20.777   3.369   1.114
64425W        W35954  29.192  15.596  13.989
64426W        W35955  35.476  14.812   1.165
64427W        W35956  13.735   1.992  14.046
64428W        W35957   7.229  39.850  12.642
64429W        W35958  20.148  38.793   4.018
64430W        W35959  10.890   4.418  11.429
64431W        W35960  39.392  36.525  12.877
64432W        W35961   8.374  35.647   4.807
64433W        W35962  25.090  12.056  11.553
64434W        W35963  14.637   3.726   3.694
64435W        W35964  18.542  21.626   2.981
64436W        W35965  32.156  38.945  11.895
64437W        W35966  30.875  35.410   0.424
64438W        W35967  13.953  37.242   2.307
64439W        W35968  26.711   0.275   2.336
64440W        W35969   2.420  40.740  10.628
64441W        W35970  36.292  29.571   2.296
64442W        W35971  15.487  21.498   2.958
64443W        W35972  31.346   1.612  11.174
64444W        W35973  13.841   5.551   2.300
64445W        W35974  23.545  11.202   2.768
64446W        W35975  30.633  32.174   1.866
64447W        W35976   8.914  14.159  13.555
64448W        W35977  34.972  13.356   2.383
64449W        W35978   7.951   9.276   0.898
64450W        W35979  14.713  27.778   2.487
64451W        W35980  16.878  19.400  10.202
64452W        W35981  36.501  32.880  11.173
64453W        W35982  21.458  23.631  12.995
64454W        W35983  22.691  30.002   3.158
64455W        W35984  12.047  24.893   2.801
64456W        W35985   0.384  13.280   4.650
64457W        W35986  35.837  33.385  11.989
64458W        W35987  12.808  16.724   4.367
64459W        W35988   2.899  12.020  12.030
64460W        W35989  11.807  23.046   0.342
64461W        W35990   4.497  35.881   4.096
64462W        W35991  28.008  26.028   3.746
64463W        W35992  24.879  16.595   1.137
64464W        W35993  31.132   8.416   1.012
64465W        W35994  24.955  11.708  11.197
64466W        W35995  28.647   6.279   1.466
64467W        W35996  32.956  39.613   1.184
64468W        W35997   0.059  36.008   1.143
64469W        W35998  19.441  34.397   0.435
64470W        W35999  16.647  28.073   4.584
64471W        W36000   4.265  36.763   4.804
64472W        W36001  18.067  28.751   0.450
64473W        W36002  17.558  42.534   4.380
64474W        W36003  39.602  16.606  12.381
64475W        W36004  17.079   6.483  12.096
64476W        W36005  37.397  11.057  10.615
64477W        W36006  13.093   4.501  11.060
64478W        W36007   2.026  16.721   1.883
64479W        W36008   1.496   5.229   3.209
64480W        W36009  23.813  17.248   4.150
64481W        W36010  29.175   8.619   1.691
64482W        W36011  42.457  33.574   2.258
64483W        W36012  33.202  26.920   4.078
64484W        W36013  44.054  41.785   4.524
64485W        W36014  24.458  40.330   1.914
64486W        W36015  21.756  27.198  11.603
64487W        W36016  33.379  23.528   4.671
64488W        W36017  38.548  23.319  14.959
64489W        W36018  19.436  41.804  13.426
64490W        W36019   4.292  44.971   1.539
64491W        W36020  32.366  32.990   1.678
64492W        W36021  27.986   1.760  14.848
64493W        W36022  31.623  16.961   0.849
64494W        W36023  32.626  11.185  14.746
64495W        W36024  27.872  24.514   1.824
64496W        W36025  24.915  26.118   0.868
64497W        W36026  40.618  38.483   2.718
64498W        W36027  27.998   8.703   2.690
64499W        W36028  11.429   5.685  13.205
64500W        W36029  25.507  44.224   2.019
64501W        W36030  23.319  37.070  10.723
64502W        W36031   0.513  25.697  13.146
64503W        W36032  15.264  23.016  11.108
64504W        W36033  14.073   0.748  12.464
64505W        W36034  21.962  28.390   3.906
64506W        W36035   6.676  42.395   0.835
64507W        W36036  35.042   8.395   1.938
64508W        W36037  37.369   8.201   1.821
64509W        W36038  13.755  35.492  11.695
64510W        W36039  27.495   9.223  10.679
64511W        W36040   6.098  24.269   0.781
64512W        W36041  40.923   5.526  14.610
64513W        W36042  39.027   2.961   2.114
64514W        W36043   7.244  16.457  11.890
64515W        W36044   9.866  44.016  11.373
64516W        W36045  17.335  17.040  11.965
64517W        W36046  24.421  24.453  12.570
64518W        W36047  28.647  36.471  12.146
64519W        W36048  22.492  16.543  12.085
64520W        W36049  19.175  38.434   4.471
64521W        W36050   4.756  31.481   0.275
64522W        W36051  18.878  20.771  13.915
64523W        W36052  23.157  27.548   3.726
64524W        W36053  41.524  44.113   3.176
64525W        W36054  15.292  25.097   0.276
64526W        W36055   3.553  22.888   1.677
64527W        W36056   2.292   5.644   4.149
64528W        W36057  20.344  40.829  14.281
64529W        W36058   2.111  33.522  14.956
64530W        W36059  31.813  35.060   4.937
64531W        W36060  13.576  39.833  12.220
64532W        W36061  23.925  14.596  13.926
64533W        W36062   8.625  19.693  12.573
64534W        W36063  25.243  10.062  11.565
64535W        W36064   6.437  18.161   3.954
64536W        W36065   5.801  32.497   4.388
64537W        W36066  13.330  23.698  13.471
64538W        W36067  18.550  43.158   3.338
64539W        W36068   0.961  41.153   3.612
64540W        W36069  12.527   6.082   3.994
64541W        W36070  12.208  34.594   1.923
64542W        W36071  34.879  32.156   1.417
64543W        W36072  31.165   5.869  11.381
64544W        W36073  43.790   7.666  14.992
64545W        W36074  14.910  43.318  13.431
64546W        W36075  11.205   3.976  12.478
64547W        W36076  30.476  22.975  12.958
64548W        W36077  31.547  10.298  10.638
64549W        W36078  23.089  16.360   0.881
64550W        W36079  16.203  18.858  10.423
64551W        W36080  16.024  12.691   1.321
64552W        W36081   5.714   8.814   2.663
64553W        W36082  39.458   6.241   2.382
64554W        W36083  34.452  40.634   2.411
64555W        W36084  44.747  16.496   4.187
64556W        W36085  41.464  34.024   4.667
64557W        W36086  12.857  24.463   4.534
64558W        W36087  31.823  26.415  13.867
64559W        W36088  19.594  30.910  12.023
64560W        W36089   1.695  38.636  12.164
64561W        W36090  24.262   8.733  12.948
64562W        W36091  11.245  23.465  14.738
64563W        W36092  17.266  17.220   0.675
64564W        W36093  33.581  23.319   0.292
64565W        W36094   0.980  10.608   2.614
64566W        W36095  16.172  15.204   2.252
64567W        W36096  40.480  30.901  11.889
64568W        W36097  10.663   1.240  14.617
64569W        W36098  29.069   2.962  10.851
64570W        W36099  27.463  43.926   2.410
64571W        W36100  28.001  18.754   0.282
64572W        W36101   5.015  44.487  14.093
64573W        W36102   0.455   9.367   0.022
64574W        W36103  17.348   9.956   5.043
64575W        W36104  38.378   7.945   1.757
64576W        W36105  13.583   7.990   4.598
64577W        W36106  14.820  43.884  14.499
64578W        W36107   1.252  13.132   2.251
64579W        W36108  39.392  43.507   4.587
64580W        W36109   8.327  24.206  12.629
64581W        W36110  26.191   6.632   4.722
64582W        W36111  42.664   2.732  13.463
64583W        W36112  27.374  44.720   4.287
64584W        W36113  27.983  43.606   0.856
64585W        W36114   4.235  16.021   3.705
64586W        W36115  22.454  23.520   0.362
64587W        W36116  14.724  27.567   2.004
64588W        W36117   1.136  35.592   3.232
64589W        W36118   9.731  29.402  13.808
64590W        W36119  40.155  19.860   0.882
64591W        W36120  37.254  35.117   3.488
64592W        W36121  39.962  40.981   0.782
64593W        W36122  19.729  33.629  14.936
64594W        W36123  27.470  25.235  11.046
64595W        W36124  10.093  40.510  10.666
64596W        W36125  40.827  17.986  11.691
64597W        W36126  21.856  35.802  11.064
64598W        W36127  35.769  43.202   2.738
64599W        W36128  26.166  24.607   3.967
64600W        W36129   5.799   9.760   1.707
64601W        W36130  20.970  16.564   1.967
64602W        W36131  16.736  16.222  11.704
64603W        W36132  23.517  21.192   2.713
64604W        W36133  23.448  13.177   3.882
64605W        W36134  14.881  34.822   1.766
64606W        W36135  37.379  33.634   0.717
64607W        W36136  31.047  13.734   3.167
64608W        W36137  29.429  20.821  11.135
64609W        W36138  33.048  32.158   4.160
64610W        W36139  39.598  15.325   2.276
64611W        W36140  40.977   0.239  13.253
64612W        W36141   3.372  34.858   2.456
64613W        W36142  14.786   2.803   2.518
64614W        W36143   5.659   8.853   4.242
64615W        W36144  21.362   5.281   1.791
64616W        W36145  15.611  11.271  13.520
64617W        W36146  31.057  32.332  10.556
64618W        W36147  24.598  35.238  12.610
64619W        W36148   6.778  23.551  13.859
64620W        W36149   7.113  10.281   0.376
64621W        W36150  16.390  38.538  14.789
64622W        W36151  21.747  14.425  12.943
64623W        W36152  32.912  23.516  10.611
64624W        W36153  20.526  39.411  12.801
64625W        W36154  34.442  39.634  14.356
64626W        W36155  22.643  12.576  11.599
64627W        W36156  21.775  41.951   2.810
64628W        W36157  32.896  41.129  11.412
64629W        W36158  28.959   7.703   1.386
64630W        W36159  11.283  16.790  11.888
64631W        W36160  35.913  42.982  11.111
64632W        W36161  29.632  39.521  10.856
64633W        W36162  27.022  41.722  13.682
64634W        W36163   8.756   7.942  12.273
64635W        W36164  34.838  17.745   4.834
64636W        W36165   1.704   9.074   0.104
64637W        W36166   1.174  36.840   1.099
64638W        W36167  15.375  27.033  12.521
64639W        W36168   9.322  23.379  11.360
64640W        W36169  31.260  19.562   4.116
64641W        W36170  37.712  33.449  13.192
64642W        W36171  41.184  38.247   0.266
64643W        W36172  16.306  32.598   1.469
64644W        W36173  24.714  29.090  14.461
64645W        W36174  33.385  14.756  14.487
64646W        W36175  32.439   5.726   4.650
64647W        W36176  44.903  15.057  14.477
64648W        W36177   5.392  40.492   2.687
64649W        W36178  40.568  42.455  13.956
64650W        W36179  25.937   4.292  11.562
64651W        W36180  10.203  25.051  14.309
64652W        W36181  39.286   9.878  14.424
64653W        W36182   9.164  33.917  11.961
64654W        W36183  14.840  32.527  12.369
64655W        W36184   5.036   1.762  13.583
64656W        W36185   4.687  16.731   4.345
64657W        W36186  36.818  39.575   2.316
64658W        W36187  20.759  40.882  11.958
64659W        W36188  20.202   8.416   3.349
64660W        W36189  36.581  40.602  12.532
64661W        W36190  38.882  42.831   2.671
64662W        W36191  12.724  12.869  13.324
64663W        W36192  35.711  43.072  14.719
64664W        W36193   2.579  35.092   4.545
64665W        W36194   3.337  41.534  12.524
64666W        W36195  19.900  19.567   3.788
64667W        W36196  42.379  30.886  11.473
64668W        W36197   8.181  42.360  13.006
64669W        W36198  18.581  28.692   0.698
64670W        W36199  42.780  19.126  13.080
64671W        W36200  14.218  26.587  11.625
64672W        W36201  36.513  14.079   0.303
64673W        W36202  36.978  17.253   2.912
64674W        W36203  30.940   8.854   1.299
64675W        W36204  33.000  32.960   0.321
64676W        W36205  27.086   3.836  12.470
64677W        W36206  28.161   9.740  10.560
64678W        W36207  33.087  25.471   2.789
64679W        W36208   3.411   0.061  12.600
64680W        W36209  37.785  34.983   4.872
64681W        W36210  31.066  12.661  13.987
64682W        W36211  21.942  34.012  10.655
64683W        W36212   4.284  15.343  12.596
64684W        W36213  20.508  44.430   4.321
64685W        W36214  25.902  34.282  11.591
64686W        W36215  14.860  31.374  11.843
64687W        W36216  38.973  37.988   3.131
64688W        W36217  38.516  40.970  11.657
64689W        W36218  22.007  39.447  13.208
64690W        W36219  20.099  23.629   0.793
64691W        W36220  27.031  15.223  10.477
64692W        W36221   8.815  12.352  12.556
64693W        W36222  20.542  24.531  10.428
64694W        W36223   2.240   9.276   4.294
64695W        W36224  38.660  23.635   1.338
64696W        W36225  19.082  27.530   3.732
64697W        W36226   4.808  15.015  13.915
64698W        W36227  26.641  32.121   9.962
64699W        W36228  15.551  25.908  12.516
64700W        W36229  23.010  40.332  12.958
64701W        W36230  15.073  13.485   2.333
64702W        W36231  36.812   3.843   2.823
64703W        W36232  36.028  41.029   4.605
64704W        W36233  38.676  35.163   4.715
64705W        W36234   5.236  43.831   4.606
64706W        W36235  10.110  17.020   1.374
64707W        W36236  12.611   2.358   4.930
64708W        W36237   2.457  44.878   2.719
64709W        W36238  20.653  36.770  14.859
64710W        W36239  44.859  43.087  12.960
64711W        W36240   5.059  22.382  12.462
64712W        W36241   8.599   2.179   1.834
64713W        W36242  10.865  38.477  11.075
64714W        W36243  41.974   5.402   4.142
64715W        W36244   9.129  43.723  14.394
64716W        W36245  17.040  14.599  11.122
64717W        W36246  11.334  21.032  11.305
64718W        W36247  30.259   9.410   3.549
64719W        W36248  37.446  13.467   2.010
64720W        W36249  12.844  27.179  11.631
64721W        W36250  12.018  12.903  14.420
64722W        W36251  41.021  14.116   4.211
64723W        W36252  10.743   4.382   1.491
64724W        W36253  35.001   0.338   0.248
64725W        W36254  14.611  15.306  12.595
64726W        W36255  25.372  38.997   1.112
64727W        W36256   4.514  11.653   3.668
64728W        W36257  25.611  35.659   4.453
64729W        W36258  32.826  10.257   1.376
64730W        W36259   7.432   9.550   2.239
64731W        W36260  36.725   9.142  11.881
64732W        W36261  19.100  44.251  12.208
64733W        W36262  40.045  22.863   5.042
64734W        W36263  41.431  33.037  11.600
64735W        W36264  31.179   1.131   1.169
64736W        W36265  24.884  30.573   2.916
64737W        W36266  38.515  23.144  12.681
64738W        W36267   1.701  34.145   1.829
64739W        W36268  43.472   0.397   3.170
64740W        W36269  10.595  37.106  14.274
64741W        W36270  29.917  26.348   2.258
64742W        W36271  37.058  13.715  13.740
64743W        W36272  12.130   2.558   0.939
64744W        W36273  35.951  10.734   4.980
64745W        W36274  15.181  25.379  11.457
64746W        W36275  15.784  22.795  14.880
64747W        W36276  39.559  34.913   3.739
64748W        W36277  31.922  30.357   0.919
64749W        W36278  37.013   0.585   4.128
64750W        W36279  42.334  20.323  12.118
64751W        W36280   3.802  24.595   1.262
64752W        W36281  12.669  17.047  13.978
64753W        W36282  11.759  18.245  12.556
64754W        W36283  42.120  20.570  11.071
64755W        W36284  12.700  32.478  12.307
64756W        W36285  33.083  18.406   5.017
64757W        W36286   1.375  36.887   2.271
64758W        W36287  13.870  15.975  14.602
64759W        W36288   1.401  26.257   3.588
64760W        W36289  22.255  31.984  12.730
64761W        W36290  14.763  12.552  13.976
64762W        W36291  43.359  18.051  14.706
64763W        W36292   8.872  43.231   1.972
64764W        W36293  11.082  11.363  13.020
64765W        W36294  39.198  31.817  11.599
64766W        W36295  29.667  15.316   1.358
64767W        W36296  38.891  22.617  11.744
64768W        W36297  16.439   8.888  14.546
64769W        W36298  11.804   7.397  12.212
64770W        W36299   5.485  32.874  12.050
64771W        W36300  40.302  30.393  11.137
64772W        W36301  24.278  11.928   0.837
64773W        W36302   8.707  10.155  12.022
64774W        W36303  16.278   8.391  14.513
64775W        W36304   0.544   1.351  10.825
64776W        W36305  42.231  15.133   2.611
64777W        W36306   3.313   7.399   1.225
64778W        W36307  42.365  23.101   1.329
64779W        W36308   1.336  33.371   2.412
64780W        W36309  12.961  28.109  10.672
64781W        W36310  10.920   5.044  12.532
64782W        W36311   8.611  34.883   1.830
64783W        W36312  31.527  37.282   2.162
64784W        W36313   0.850   9.083  14.818
64785W        W36314  38.400  38.548  14.425
64786W        W36315  34.861  14.682  14.278
64787W        W36316  17.655  40.590   0.374
64788W        W36317  12.781   2.949   2.308
64789W        W36318  27.248  12.215  11.574
64790W        W36319  14.286  40.965  13.903
64791W        W36320   9.939  36.521  13.990
64792W        W36321   6.347  42.187  14.887
64793W        W36322  41.486  28.010  14.375
64794W        W36323  16.377  16.648   0.815
64795W        W36324  41.112  42.214   1.337
64796W        W36325  40.771  25.628  13.560
64797W        W36326   2.442  41.952  12.979
64798W        W36327  13.890   7.743   0.354
64799W        W36328  32.876  26.438  11.702
64800W        W36329  31.605  20.807   0.594
64801W        W36330  10.839  22.974   2.370
64802W        W36331   8.844   6.939   4.950
64803W        W36332  38.841  26.659  12.875
64804W        W36333  29.932  36.393   2.834
64805W        W36334   5.959  16.178  10.750
64806W        W36335  16.753  35.178  14.292
64807W        W36336   8.337  34.464  13.924
64808W        W36337  33.184  32.692   0.748
64809W        W36338  21.690  16.736  11.584
64810W        W36339  42.328  33.900  10.706
64811W        W36340  29.124  36.416   0.511
64812W        W36341  23.113  38.829   3.540
64813W        W36342  18.498  24.624   1.006
64814W        W36343  15.866  20.581  13.921
64815W        W36344  25.535  20.010  10.870
64816W        W36345  36.744  38.067   0.583
64817W        W36346  23.083  29.883   4.093
64818W        W36347  31.907   9.934   4.350
64819W        W36348  30.213  42.403  14.246
64820W        W36349  18.597   0.872   0.053
64821W        W36350  11.935  29.683  13.250
64822W        W36351  32.351  39.992   0.693
64823W        W36352  35.780   8.797  11.279
64824W        W36353  25.697  44.993   1.789
64825W        W36354  39.777  38.931  12.986
64826W        W36355  26.755  25.750  13.896
64827W        W36356  38.579  40.964  14.864
64828W        W36357   6.621  37.057  13.634
64829W        W36358   1.211  37.656   2.891
64830W        W36359  15.258  14.679   3.641
64831W        W36360  27.478  36.116   2.877
64832W        W36361  15.868  23.907  10.814
64833W        W36362  24.234  10.354  14.751
64834W        W36363  19.313  24.596   2.136
64835W        W36364  10.228  19.704   2.908
64836W        W36365  14.039  11.457   0.135
64837W        W36366  27.869  40.516  13.534
64838W        W36367  32.493   3.877   1.480
64839W        W36368  41.479  38.619  13.943
64840W        W36369   8.768  33.641  10.241
64841W        W36370  35.566  40.440   0.437
64842W        W36371  20.567  14.724   2.687
64843W        W36372  17.001  28.203   1.232
64844W        W36373  37.492   8.627   2.607
64845W        W36374   1.966  34.501  11.745
64846W        W36375  23.731  28.697  12.584
64847W        W36376   5.359  40.967  10.600
64848W        W36377  31.006   5.868  10.492
64849W        W36378  33.037  41.091   3.252
64850W        W36379  15.625  15.124   2.577
64851W        W36380  27.088  14.328  14.488
64852W        W36381   2.415  36.823   0.612
64853W        W36382  17.512  34.027   3.639
64854W        W36383  40.421  39.067   3.561
64855W        W36384  43.168   6.325   1.259
64856W        W36385  33.527   0.026   4.632
64857W        W36386  25.186  21.483  11.543
64858W        W36387  35.472   9.429   1.257
64859W        W36388  16.278  24.048   3.243
64860W        W36389  30.565  44.269  14.506
64861W        W36390  20.762  18.969  13.140
64862W        W36391  18.626  24.483  12.135
64863W        W36392  16.006  15.823   2.819
64864W        W36393  23.331  24.440  10.592
64865W        W36394  28.202  16.635  12.012
64866W        W36395  40.058  23.257  13.920
64867W        W36396  16.715  19.014  13.958
64868W        W36397   5.264  23.732   4.612
64869W        W36398   1.214  14.710   0.696
64870W        W36399  37.150  35.303  12.343
64871W        W36400   4.700  35.889   2.392
64872W        W36401  44.441  33.906   3.322
64873W        W36402   6.311  38.066  14.718
64874W        W36403   5.862   1.857  14.635
64875W        W36404  20.108  20.526  10.613
64876W        W36405  12.311   0.194   4.137
64877W        W36406  29.583  40.741   4.220
64878W        W36407  22.161   7.204   2.311
64879W        W36408  36.144  13.777   4.408
64880W        W36409  30.728  20.585  13.823
64881W        W36410  40.871  23.736   4.612
64882W        W36411  25.544   0.687   2.663
64883W        W36412   2.487  43.342   3.916
64884W        W36413  27.381  40.605  14.443
64885W        W36414  17.144   1.456  14.519
64886W        W36415  22.948   0.741   1.238
64887W        W36416  27.438  36.486  13.404
64888W        W36417   7.641  13.876   2.223
64889W        W36418  32.105  23.688  14.293
64890W        W36419  28.446  28.023  11.509
64891W        W36420  12.093  41.475  14.993
64892W        W36421  36.357  35.507  11.936
64893W        W36422   9.892  32.618   0.856
64894W        W36423  21.026  19.984  14.171
64895W        W36424  39.511   2.606  13.745
64896W        W36425   9.775   6.471  13.942
64897W        W36426  28.105  36.318   4.189
64898W        W36427   5.134  35.636  13.912
64899W        W36428  36.081  24.607   2.313
64900W        W36429  34.380  15.923   0.637
64901W        W36430  28.920  39.290  11.908
64902W        W36431  21.231   1.826  12.566
64903W        W36432   3.993  20.858  11.022
64904W        W36433  39.059  34.789   1.396
64905W        W36434  13.186  24.068  11.620
64906W        W36435  18.513   6.859  13.905
64907W        W36436  33.380  34.550  11.660
64908W        W36437   7.304  21.820  12.591
64909W        W36438  28.370  23.157  13.893
64910W        W36439  18.956   6.575  11.900
64911W        W36440  25.588  22.998   2.439
64912W        W36441  43.369  40.161  12.981
64913W        W36442  19.158  18.256   3.267
64914W        W36443  30.614  18.789   1.710
64915W        W36444   1.890   8.903  11.755
64916W        W36445  28.916  20.715   3.365
64917W        W36446  37.529  11.317  11.488
64918W        W36447  24.725  16.795  11.684
64919W        W36448  44.988  36.962  13.450
64920W        W36449  27.434  34.186  11.062
64921W        W36450  35.224  43.872   2.861
64922W        W36451  23.118  42.482   1.743
64923W        W36452  12.245  38.993   0.691
64924W        W36453   9.435  12.710  11.589
64925W        W36454   8.481  31.619  12.875
64926W        W36455   7.219  17.065  14.625
64927W        W36456  27.285  13.227  12.996
64928W        W36457   1.492   4.562  11.539
64929W        W36458  37.395  17.489   1.774
64930W        W36459   4.186  31.706   3.226
64931W        W36460  11.199  22.198   1.401
64932W        W36461  43.197   5.365   4.187
64933W        W36462  39.836  25.558   2.369
64934W        W36463  37.326   6.437   1.924
64935W        W36464  26.210  44.945   1.848
64936W        W36465  37.884  37.422  10.598
64937W        W36466   7.797  22.614   0.789
64938W        W36467  33.971  33.883  10.582
64939W        W36468   0.079  24.355   0.793
64940W        W36469  33.456  18.908   1.340
64941W        W36470  42.651  23.479   5.008
64942W        W36471  22.170   0.883   1.814
64943W        W36472  15.878  43.015   0.493
64944W        W36473  26.952  16.302  11.081
64945W        W36474  13.329  17.005  13.578
64946W        W36475  43.033   0.467  14.754
64947W        W36476   2.860  11.447   2.911
64948W        W36477  25.950   1.973   0.637
64949W        W36478  41.971  20.247   2.648
64950W        W36479   0.937  27.160  14.504
64951W        W36480  10.587   0.312   2.012
64952W        W36481   4.331   4.181  11.794
64953W        W36482   9.346  35.301   0.801
64954W        W36483  31.341  44.927   1.689
64955W        W36484  40.754   5.410   0.597
64956W        W36485  24.918  19.370  12.499
64957W        W36486  21.647  23.734  11.867
64958W        W36487  22.450   6.561  11.231
64959W        W36488   8.359  13.376   3.623
64960W        W36489  30.633   9.211  10.470
64961W        W36490  32.422   4.444   2.368
64962W        W36491  33.854  20.575  14.963
64963W        W36492   7.407  10.801  11.662
64964W        W36493  18.606  29.380   2.638
64965W        W36494  35.899   5.579  10.602
64966W        W36495   0.423   4.907  12.508
64967W        W36496  12.827  26.589  12.043
64968W        W36497  14.634  14.656   4.782
64969W        W36498  10.850  10.341   0.066
64970W        W36499  40.852  13.708  12.823
64971W        W36500  27.517  38.855  14.906
64972W        W36501  31.509  44.969   3.065
64973W        W36502  17.077  42.791  14.941
64974W        W36503  35.655  15.370   2.703
64975W        W36504  23.996  30.017   1.762
64976W        W36505  28.199  26.030  14.923
64977W        W36506   1.155  30.247   4.178
64978W        W36507  23.403   0.240  13.019
64979W        W36508   3.451  24.750  12.578
64980W        W36509  10.887  36.797  13.062
64981W        W36510  37.372  14.249  12.180
64982W        W36511  29.046  34.037  13.409
64983W        W36512   3.865  44.350  10.209
64984W        W36513   5.318  36.804  13.311
64985W        W36514  34.025  30.436   3.276
64986W        W36515  32.860  26.755   2.445
64987W        W36516  14.218  43.758  14.772
64988W        W36517  32.549  31.918  12.131
64989W        W36518   7.874   2.737   1.865
64990W        W36519   9.160  18.595  11.952
64991W        W36520   7.144  17.643   0.849
64992W        W36521  30.544  15.806  10.620
64993W        W36522  24.761  43.360  11.238
64994W        W36523  31.636  24.447  10.663
64995W        W36524  30.403  33.427   2.769
64996W        W36525  40.341   9.182   4.716
64997W        W36526  31.164  30.030  12.633
64998W        W36527  42.450   2.391   3.238
64999W        W36528  40.178  12.295  13.931
65000W        W36529  14.803  33.500  11.435
65001W        W36530  27.993  13.630   3.829
65002W        W36531  29.931  26.737  12.925
65003W        W36532   5.708   9.649   0.337
65004W        W36533  25.966  39.845   4.482
65005W        W36534  12.761   6.731  13.590
65006W        W36535   6.347  30.735  10.746
65007W        W36536  33.560  19.411   1.434
65008W        W36537   2.538  13.087   3.894
65009W        W36538  32.495   9.318  14.368
65010W        W36539  43.841  26.504  14.692
65011W        W36540  28.547  35.799   4.628
65012W        W36541  17.657   2.150  12.479
65013W        W36542  27.679  39.570   0.861
65014W        W36543  27.050  42.230  13.588
65015W        W36544  29.468  30.905  14.938
65016W        W36545  33.032  34.565   2.884
65017W        W36546  20.793  43.828   1.964
65018W        W36547  26.603  10.330  11.494
65019W        W36548  35.001  40.235   1.852
65020W        W36549  39.445  23.999   0.258
65021W        W36550  21.778   4.150   2.632
65022W        W36551  44.008  16.381  13.502
65023W        W36552  10.613   2.204   2.222
65024W        W36553   4.600  26.629   1.930
65025W        W36554  44.969  37.135   4.499
65026W        W36555  27.051  43.020  14.045
65027W        W36556  39.833  25.999  13.403
65028W        W36557  38.360   7.407   1.465
65029W        W36558   5.608  27.039  11.958
65030W        W36559  27.819   4.293  12.047
65031W        W36560   6.452  23.271   2.104
65032W        W36561  23.379  22.596  12.919
65033W        W36562  26.953   7.578  11.055
65034W        W36563  38.293  41.779  12.034
65035W        W36564  44.191  31.114   1.512
65036W        W36565  15.202   4.459   2.816
65037W        W36566  25.190  27.880   5.250
65038W        W36567  12.157  35.703  11.574
65039W        W36568  11.596  35.816   0.263
65040W        W36569  20.047  37.080   1.372
65041W        W36570  28.444  38.600  12.568
65042W        W36571   6.176  21.970  11.552
65043W        W36572  34.379  32.473   1.930
65044W        W36573  23.229  17.177   2.212
65045W        W36574  12.819  13.282   1.781
65046W        W36575  21.137  39.945   3.236
65047W        W36576   3.561  33.599   5.115
65048W        W36577  44.236  13.643   3.413
65049W        W36578  32.662  16.019   5.141
65050W        W36579   9.330  43.290  11.375
65051W        W36580  41.169  10.997  11.218
65052W        W36581   2.140  18.765   2.240
65053W        W36582   5.151  26.256  14.295
65054W        W36583  10.800  20.169   4.043
65055W        W36584   2.088  18.495  10.783
65056W        W36585  40.254  42.983  14.639
65057W        W36586  17.704   1.159  12.608
65058W        W36587  17.136  18.729  13.999
65059W        W36588  31.631  24.748   4.097
65060W        W36589   8.540  36.909   3.405
65061W        W36590  37.608  37.849   3.749
65062W        W36591  22.822  29.052   2.706
65063W        W36592   4.951  11.588  12.466
65064W        W36593  27.165  36.472  13.839
65065W        W36594   8.803  34.630  14.675
65066W        W36595  33.506  18.568  10.363
65067W        W36596  14.153  40.389  14.859
65068W        W36597  17.317  40.833   3.320
65069W        W36598  37.333  26.635   4.625
65070W        W36599  41.740  38.468   3.692
65071W        W36600  11.069  38.380   3.359
65072W        W36601  22.505  12.208   2.655
65073W        W36602  41.348  12.275   3.780
65074W        W36603  41.082  22.707   0.342
65075W        W36604  12.826  24.592   2.651
65076W        W36605  15.855  18.502  12.209
65077W        W36606  26.067  34.631   1.935
65078W        W36607   2.476  35.097   3.612
65079W        W36608  24.193  15.429  14.919
65080W        W36609  22.604  32.554  14.701
65081W        W36610  28.965   7.610   4.874
65082W        W36611  35.335  10.255   1.557
65083W        W36612  38.467  32.877   4.578
65084W        W36613  29.029  24.607  13.913
65085W        W36614   6.474   4.155  13.907
65086W        W36615  19.148  33.816   4.249
65087W        W36616  20.002  20.630   1.506
65088W        W36617  28.548   1.387   2.635
65089W        W36618   8.126  10.824   3.163
65090W        W36619  39.021   9.912   2.136
65091W        W36620  24.540  29.954   0.013
65092W        W36621  41.577  15.160  13.946
65093W        W36622  24.211  42.911  11.745
65094W        W36623   4.720  34.631  13.268
65095W        W36624  16.269  41.198  13.037
65096W        W36625  10.633  15.838   1.808
65097W        W36626   4.109  35.993   0.646
65098W        W36627   5.737  23.963   0.367
65099W        W36628   2.782  24.563  13.817
65100W        W36629  21.155  40.123  10.976
65101W        W36630   8.303  13.823  11.002
65102W        W36631  41.141  12.322  14.211
65103W        W36632  40.527  25.627   1.245
65104W        W36633   8.838  37.852   1.281
65105W        W36634  19.564  18.200   1.219
65106W        W36635  31.859  44.935   0.812
65107W        W36636  11.328  13.346   0.286
65108W        W36637  27.651  30.466   1.282
65109W        W36638   7.673  40.421   4.577
65110W        W36639  31.085  18.490  13.020
65111W        W36640  35.165  36.449  12.010
65112W        W36641  27.875  41.461   0.705
65113W        W36642  12.912  39.948  11.461
65114W        W36643  33.001  23.955   2.749
65115W        W36644  14.007  11.271  10.717
65116W        W36645   3.353   1.516   3.957
65117W        W36646  33.336  24.330   4.079
65118W        W36647  17.273  19.008   1.422
65119W        W36648  12.655   1.953   0.334
65120W        W36649  40.272  40.184  14.893
65121W        W36650  21.527   7.152   1.669
65122W        W36651  24.016  26.937  13.925
65123W        W36652  27.091   3.847   0.808
65124W        W36653  26.694   9.232   4.199
65125W        W36654   2.366   3.197   3.053
65126W        W36655  17.979   8.650  14.483
65127W        W36656   1.617  40.917  13.463
65128W        W36657  12.084  44.733   4.097
65129W        W36658  17.676  13.733  11.380
65130W        W36659  15.062  14.636  12.152
65131W        W36660  29.438  24.783  11.034
65132W        W36661  36.130   0.649  14.429
65133W        W36662   1.709  43.503  14.497
65134W        W36663  30.693   0.567   2.437
65135W        W36664  21.579  11.832  11.520
65136W        W36665  41.444   7.843  12.815
65137W        W36666  17.206   2.669   3.226
65138W        W36667  18.957  32.218   2.094
65139W        W36668  17.154  28.270   2.124
65140W        W36669  18.115   7.774  14.596
65141W        W36670  29.878  24.166  12.391
65142W        W36671  42.018  26.020  12.080
65143W        W36672  24.776  28.667   2.838
65144W        W36673  40.983  16.096  12.484
65145W        W36674  34.632  32.052  13.511
65146W        W36675  19.598   9.566   3.127
65147W        W36676  16.761  18.135   3.238
65148W        W36677  13.579   0.150   0.325
65149W        W36678  10.341  37.410  11.708
65150W        W36679  14.218  13.401  13.401
65151W        W36680  37.577  40.264   2.158
65152W        W36681  12.421  11.409  13.036
65153W        W36682  16.719  25.230   1.673
65154W        W36683  24.626  24.144   0.342
65155W        W36684   3.719  17.357  14.455
65156W        W36685  44.513  41.434  13.456
65157W        W36686  31.047  16.091   1.306
65158W        W36687  36.603  32.387  11.034
65159W        W36688  38.879  21.072  11.921
65160W        W36689   2.275  41.210  13.324
65161W        W36690  12.059  38.452   3.191
65162W        W36691  39.049   4.020   2.288
65163W        W36692   9.161  29.191  14.306
65164W        W36693  41.421  42.947   4.359
65165W        W36694  30.196   9.865  14.899
65166W        W36695  26.602   4.014   0.983
65167W        W36696   0.299  22.451   0.885
65168W        W36697  10.067   0.713   0.841
65169W        W36698  15.179  34.029   0.796
65170W        W36699  40.931  13.618  13.922
65171W        W36700  34.672  29.100  14.211
65172W        W36701  28.549  21.549  11.239
65173W        W36702   2.440  26.107   2.339
65174W        W36703   4.938   2.892  14.430
65175W        W36704  30.867  41.511  14.195
65176W        W36705  21.374  31.570   0.343
65177W        W36706  44.186  41.401  13.897
65178W        W36707   2.768   1.236  12.591
65179W        W36708  17.277  29.599  12.525
65180W        W36709   6.948  12.689  14.763
65181W        W36710   5.711  30.841  12.832
65182W        W36711   7.287  43.901  13.099
65183W        W36712   2.710  33.612  13.916
65184W        W36713  38.938   9.831  13.831
65185W        W36714   8.110  14.785  14.650
65186W        W36715  42.224  22.796  11.511
65187W        W36716  26.050   0.748   1.338
65188W        W36717  11.404  26.900  10.123
65189W        W36718  34.586  25.155  10.948
65190W        W36719  20.440  42.354   1.839
65191W        W36720  27.618   8.361  13.735
65192W        W36721  30.058   8.850   2.853
65193W        W36722  10.194  29.629  13.781
65194W        W36723   0.792   7.577   1.891
65195W        W36724   6.627   9.170   1.807
65196W        W36725  25.380  40.827   1.850
65197W        W36726  13.758   1.019   3.723
65198W        W36727  35.614   5.185  12.430
65199W        W36728   5.138   0.795  12.030
65200W        W36729  12.885  22.666  10.589
65201W        W36730  40.331  29.381  12.960
65202W        W36731  20.686  37.155   3.170
65203W        W36732  42.293   7.901   3.272
65204W        W36733  27.878  41.500   4.180
65205W        W36734  35.460  43.724   3.858
65206W        W36735  30.105   6.104  14.802
65207W        W36736  16.249   8.102  14.957
65208W        W36737   7.815  37.919  11.385
65209W        W36738  39.070  23.112  11.653
65210W        W36739  27.979  35.474  13.935
65211W        W36740  21.929  21.634   4.952
65212W        W36741  25.834   2.705   3.644
65213W        W36742   8.606  34.747   1.237
65214W        W36743  36.327  39.490  11.565
65215W        W36744  12.884  25.675  14.450
65216W        W36745  43.346  10.631  13.825
65217W        W36746  36.309   5.383   0.044
65218W        W36747  14.569   2.291   3.941
65219W        W36748  18.630  40.282   1.845
65220W        W36749   0.546  37.618  11.163
65221W        W36750  25.627   5.548   4.386
65222W        W36751  31.941   9.130  11.690
65223W        W36752  12.738   2.731  14.246
65224W        W36753  19.543   6.954   3.402
65225W        W36754  14.753   4.464  11.455
65226W        W36755   4.441  28.706   0.921
65227W        W36756  18.730  10.853   4.371
65228W        W36757  42.100   0.501  11.451
65229W        W36758  33.959  15.077   4.534
65230W        W36759  15.825   9.087  13.193
65231W        W36760  17.903  15.151   3.852
65232W        W36761  35.629  10.544   1.179
65233W        W36762  24.787   3.029   4.939
65234W        W36763  23.693  43.774   2.105
65235W        W36764  27.434  16.524   3.629
65236W        W36765   7.660  40.758   1.170
65237W        W36766  10.140   8.191  14.038
65238W        W36767   2.420  13.583   0.392
65239W        W36768  38.535  40.081  11.183
65240W        W36769  39.998  37.441  13.083
65241W        W36770  34.879  35.157  12.557
65242W        W36771  39.737  10.237   3.093
65243W        W36772  15.871  33.478   0.402
65244W        W36773  12.657  35.909   3.763
65245W        W36774  16.862  31.415  12.305
65246W        W36775  10.705  37.912  13.780
65247W        W36776   9.739   4.205  10.735
65248W        W36777  39.184  12.774   4.839
65249W        W36778  15.302  38.024   2.230
65250W        W36779  19.809  18.108  14.436
65251W        W36780  33.466  28.847   1.255
65252W        W36781   4.670  17.089  11.640
65253W        W36782  24.950   0.306   4.146
65254W        W36783   0.913  15.817   4.648
65255W        W36784   0.224  20.490  11.607
65256W        W36785  21.893  43.011   2.322
65257W        W36786  12.355   4.727   1.305
65258W        W36787  23.121  20.431   4.774
65259W        W36788   1.806  26.541  11.974
65260W        W36789  36.258  36.849  12.008
65261W        W36790  21.268  26.621   2.351
65262W        W36791  42.812  16.662   2.980
65263W        W36792  19.551  16.782   0.382
65264W        W36793   7.209   0.991   4.211
65265W        W36794   9.653  39.844   4.598
65266W        W36795  10.260  21.585   4.680
65267W        W36796  31.526  21.943   3.236
65268W        W36797  18.099  18.344   1.220
65269W        W36798  11.533  17.384   4.982
65270W        W36799   5.795  28.630  11.036
65271W        W36800  14.156  23.571  13.917
65272W        W36801  20.055  12.201  14.568
65273W        W36802  15.643  21.990   1.196
65274W        W36803  21.664   3.245   2.693
65275W        W36804   3.377   3.308  13.126
65276W        W36805  23.340  24.460   4.187
65277W        W36806  40.422  20.812   1.311
65278W        W36807  23.915  13.180   1.447
65279W        W36808   6.454  42.160  13.047
65280W        W36809   3.690  26.547  14.830
65281W        W36810  10.409  29.971  14.212
65282W        W36811   6.115  43.230  11.996
65283W        W36812   6.881   8.106  14.348
65284W        W36813  37.820  16.573  11.144
65285W        W36814  43.990  35.596  11.511
65286W        W36815  43.418   8.352   0.468
65287W        W36816  19.606  32.663  14.774
65288W        W36817   8.255  17.212   0.958
65289W        W36818   9.357  32.863   0.799
65290W        W36819  12.111  29.204   0.865
65291W        W36820  14.503  10.458   4.914
65292W        W36821  38.938  17.530   2.802
65293W        W36822  32.139  23.211  11.023
65294W        W36823  24.552  35.113   2.773
65295W        W36824  21.295  37.423   0.415
65296W        W36825  35.920  21.169  13.855
65297W        W36826   0.192  30.953  12.058
65298W        W36827  38.459  21.705   1.776
65299W        W36828   7.415  39.763  11.665
65300W        W36829  41.903  32.983  13.076
65301W        W36830  18.025   4.200   2.896
65302W        W36831  40.979  41.582   4.066
65303W        W36832  22.608  43.069  13.771
65304W        W36833  31.918   0.801   3.793
65305W        W36834  12.371   8.722   1.499
65306W        W36835  43.780  16.667   2.996
65307W        W36836  19.012  21.685  14.826
65308W        W36837  35.538  27.226   4.074
65309W        W36838  27.199  29.345   3.154
65310W        W36839  15.140  28.763  10.856
65311W        W36840   3.355  31.260  11.569
65312W        W36841  17.434  34.951  14.973
65313W        W36842  16.962  27.591   4.456
65314W        W36843  41.487  34.945  13.921
65315W        W36844  42.345   3.440   4.012
65316W        W36845  43.271  30.172  13.057
65317W        W36846  10.818   9.370  11.608
65318W        W36847  13.766  38.784   2.401
65319W        W36848  42.724  36.028   1.315
65320W        W36849  16.761  35.487  13.865
65321W        W36850  27.334   2.286  12.804
65322W        W36851  40.222  28.568   2.520
65323W        W36852  40.922  36.537   1.023
65324W        W36853  17.732   4.767   3.878
65325W        W36854  20.002  34.804   1.776
65326W        W36855  24.415  42.645  12.117
65327W        W36856  44.121   3.438   2.570
65328W        W36857  22.187  36.645   2.638
65329W        W36858  19.581  16.534   3.463
65330W        W36859   9.378  11.750  14.443
65331W        W36860   3.916  14.567  14.924
65332W        W36861  21.018  29.620  13.829
65333W        W36862  44.899  15.644  11.913
65334W        W36863  30.191   4.271  13.337
65335W        W36864   1.952  22.045  11.557
65336W        W36865  18.794  32.998  14.755
65337W        W36866  23.231   2.564   2.182
65338W        W36867  38.084   1.070   3.730
65339W        W36868   9.169   1.086   4.063
65340W        W36869  24.128  37.484  11.743
65341W        W36870  32.988  39.513  14.245
65342W        W36871   2.024   4.852  11.019
65343W        W36872  24.256   5.541  14.478
65344W        W36873  12.216  15.571  12.498
65345W        W36874  27.586  34.710   2.646
65346W        W36875  34.999  13.426  14.956
65347W        W36876  32.893  23.720   1.325
65348W        W36877  27.418  20.302  12.493
65349W        W36878  38.993   2.019  11.673
65350W        W36879  18.823  31.249   9.901
65351W        W36880  42.764  35.418   0.882
65352W        W36881   7.405   2.722  12.358
65353W        W36882  11.585  28.116   3.063
65354W        W36883   2.317  21.518   0.456
65355W        W36884  37.036  32.143   4.669
65356W        W36885   3.335  20.148  11.199
65357W        W36886  38.298  23.097  14.354
65358W        W36887  40.793  41.749   3.231
65359W        W36888  10.399   4.949  13.220
65360W        W36889  43.871  14.427   1.349
65361W        W36890  35.227   4.945   2.798
65362W        W36891  16.157  39.349   3.303
65363W        W36892  44.655   0.878  14.397
65364W        W36893  44.726  32.861  12.097
65365W        W36894  14.732  14.784  12.841
65366W        W36895  16.608  23.699  12.851
65367W        W36896   4.845  39.480   0.319
65368W        W36897  39.055  19.086   2.276
65369W        W36898  33.378   6.771   2.201
65370W        W36899   5.521   7.249   1.345
65371W        W36900  42.969   1.788   0.089
65372W        W36901   9.604  34.408   4.814
65373W        W36902  41.929  27.748  11.641
65374W        W36903   3.275  12.601  10.449
65375W        W36904  24.479  30.522   4.492
65376W        W36905   3.414  33.065   1.236
65377W        W36906  16.140  14.238  10.609
65378W        W36907  43.796  15.509  13.209
65379W        W36908  24.646  16.247   2.136
65380W        W36909   5.229  29.981   2.349
65381W        W36910  34.665   4.692  14.781
65382W        W36911  44.554  10.481  13.373
65383W        W36912   5.652  17.550   1.841
65384W        W36913  17.197  31.909  10.443
65385W        W36914  43.901  38.589   3.757
65386W        W36915  43.634  27.992   3.659
65387W        W36916  40.064  42.763  12.130
65388W        W36917  39.133   3.607  13.954
65389W        W36918   3.212  19.284  11.212
65390W        W36919  36.479  42.325  13.471
65391W        W36920  38.036  17.360  12.844
65392W        W36921  43.789  16.202   1.222
65393W        W36922  10.831  12.057   1.288
65394W        W36923   9.133  21.289   0.861
65395W        W36924   0.469  41.100   0.423
65396W        W36925   5.495  23.041   0.695
65397W        W36926  41.981  26.626   3.718
65398W        W36927  11.031  34.986  13.093
65399W        W36928  16.381  34.705   3.004
65400W        W36929   0.911   2.800   1.298
65401W        W36930  15.084  15.030   1.210
65402W        W36931  17.239  32.505   3.143
65403W        W36932   8.669  23.359   2.330
65404W        W36933  13.093  17.404   1.738
65405W        W36934  23.000  29.339   4.155
65406W        W36935   4.947  44.225  14.555
65407W        W36936  14.903  31.642  13.808
65408W        W36937  18.804  32.022  10.615
65409W        W36938  24.740   5.744  12.304
65410W        W36939  41.744  24.150  12.032
65411W        W36940  39.968  27.465  11.393
65412W        W36941   5.810  33.844   2.139
65413W        W36942  17.036  15.026   1.948
65414W        W36943  12.935   1.734  14.805
65415W        W36944  32.275  28.285   3.806
65416W        W36945  21.123  13.701   3.459
65417W        W36946  36.867  15.900   2.319
65418W        W36947  29.576  25.936   2.726
65419W        W36948   5.196   3.099   4.223
65420W        W36949  29.372  10.126  11.656
65421W        W36950  27.450  20.184   3.189
65422W        W36951  28.862  13.506   0.767
65423W        W36952  36.265  22.502   2.793
65424W        W36953  36.023  21.484   2.614
65425W        W36954   2.685   8.457  10.780
65426W        W36955  11.307   2.546  11.987
65427W        W36956  40.367  28.380  12.749
65428W        W36957  23.292  11.747  12.179
65429W        W36958   7.078  21.677   1.317
65430W        W36959   4.655  28.520  13.267
65431W        W36960   6.731  15.985   1.113
65432W        W36961  26.585  39.038  12.110
65433W        W36962   9.664  35.339  11.880
65434W        W36963   5.911   5.618   0.903
65435W        W36964  41.782  21.940  10.867
65436W        W36965  35.745  16.300  10.644
65437W        W36966  41.061  12.934   4.425
65438W        W36967  37.022  39.354  14.440
65439W        W36968  32.732   4.463  10.706
65440W        W36969   2.389  42.869   2.677
65441W        W36970   5.246   3.605   1.299
65442W        W36971  29.298  35.538  10.279
65443W        W36972  19.540  14.795   2.756
65444W        W36973  15.957  19.024   5.640
65445W        W36974  27.581   8.002   2.637
65446W        W36975   2.287  41.332   4.559
65447W        W36976  33.805  10.248   0.916
65448W        W36977  41.750  20.130  13.464
65449W        W36978  22.555   3.275   2.150
65450W        W36979  29.604  36.768   1.926
65451W        W36980   7.431   0.214  10.735
65452W        W36981  26.133  25.611   3.793
65453W        W36982  32.116   8.820  11.161
65454W        W36983  32.689   7.224   0.807
65455W        W36984  18.322  27.131  14.219
65456W        W36985   7.388  36.345   1.942
65457W        W36986  15.315  38.849   4.162
65458W        W36987  16.176  44.128  14.847
65459W        W36988  36.991  41.126  13.941
65460W        W36989  18.263   4.275   0.230
65461W        W36990  37.996  25.630  13.483
65462W        W36991   6.373  18.005  12.020
65463W        W36992  14.152   5.073   3.320
65464W        W36993  35.615   1.458   3.678
65465W        W36994  34.353  16.656   4.248
65466W        W36995  28.573  17.164   0.913
65467W        W36996  25.424  16.759   4.633
65468W        W36997  23.233  36.573   0.898
65469W        W36998  13.330  23.529  11.647
65470W        W36999   4.936  21.493  14.378
65471W        W37000  16.643  13.649  11.587
65472W        W37001  11.823  37.965   2.387
65473W        W37002  15.372  34.026   4.353
65474W        W37003   4.463  28.287  11.193
65475W        W37004  27.912  36.844   0.511
65476W        W37005  18.759  44.365  13.877
65477W        W37006  30.020  44.912  10.705
65478W        W37007  33.096   4.852   0.039
65479W        W37008  40.108  36.171  13.286
65480W        W37009  37.082   9.643  13.510
65481W        W37010  31.278   3.899   3.384
65482W        W37011  15.073  20.492  10.844
65483W        W37012  11.440  27.750  14.967
65484W        W37013  33.625  24.637   4.349
65485W        W37014   9.814   8.404  14.468
65486W        W37015   3.302  43.483   5.172
65487W        W37016  35.764  18.136  12.828
65488W        W37017  38.305  27.928  14.977
65489W        W37018  42.569  32.135  13.365
65490W        W37019  29.592  22.652   4.352
65491W        W37020  41.763  15.154  14.860
65492W        W37021  25.282  16.304   0.116
65493W        W37022  25.294  37.090  12.469
65494W        W37023  26.006   7.120   2.805
65495W        W37024  29.171  17.060   2.088
65496W        W37025  23.539  17.121  12.570
65497W        W37026  39.013  31.648   2.438
65498W        W37027  19.731   1.843   4.583
65499W        W37028  41.368  43.480   0.335
65500W        W37029  43.276  18.995   0.893
65501W        W37030   4.734  14.920  14.446
65502W        W37031  31.398  44.658  11.720
65503W        W37032  32.296  15.666   5.043
65504W        W37033  12.938  31.334  12.971
65505W        W37034  25.204  29.682  12.216
65506W        W37035  26.744  19.027  13.079
65507W        W37036  12.055  15.725  12.030
65508W        W37037  25.971  24.775   0.374
65509W        W37038   2.436   0.315   0.768
65510W        W37039  44.362  38.490   0.180
65511W        W37040  19.170  40.196  11.606
65512W        W37041  19.542  39.323  12.529
65513W        W37042  18.764   7.320  13.875
65514W        W37043  16.043  37.858   3.437
65515W        W37044   9.864   5.781  11.213
65516W        W37045  44.396   5.297  13.528
65517W        W37046  20.700  29.077  14.871
65518W        W37047   5.806  34.706  13.535
65519W        W37048  37.866  26.764  12.855
65520W        W37049  27.552  18.157   0.677
65521W        W37050  38.883  21.599  14.017
65522W        W37051  43.506  20.260   3.213
65523W        W37052  21.669  11.389   4.364
65524W        W37053  21.779   8.331   3.057
65525W        W37054  34.640  19.764   1.815
65526W        W37055  40.300  24.960   4.179
65527W        W37056   0.813  19.610  14.647
65528W        W37057  30.705  32.161  11.119
65529W        W37058   9.586  35.932   1.258
65530W        W37059  13.911  10.005   3.153
65531W        W37060  27.315  24.732   0.750
65532W        W37061   5.199   5.206  14.574
65533W        W37062  35.809  22.725   2.449
65534W        W37063  10.400  16.198   0.881
65535W        W37064  42.722  13.655   0.943
65536W        W37065  38.425  37.574  13.782
65537W        W37066  39.375  28.204  12.655
65538W        W37067   6.338  34.197  11.183
65539W        W37068  43.430  40.506  14.377
65540W        W37069  23.288  36.595  12.468
65541W        W37070  14.634   2.389   3.429
65542W        W37071  27.093  39.110   4.520
65543W        W37072   6.234   8.219   4.617
65544W        W37073  43.875  38.740   0.223
65545W        W37074   3.840   0.973   3.141
65546W        W37075   5.761   4.727   1.769
65547W        W37076  21.137  12.740  10.872
65548W        W37077  22.001  27.168  14.934
65549W        W37078  15.825   1.010  11.825
65550W        W37079   4.209  42.992   3.376
65551W        W37080  38.522   0.965  11.942
65552W        W37081   9.257  20.786   4.628
65553W        W37082  27.408  14.658  12.369
65554W        W37083  35.822   3.723  13.944
65555W        W37084  16.688  20.432  14.278
65556W        W37085  43.970  21.557   3.289
65557W        W37086   2.283   7.370   3.304
65558W        W37087  28.467  11.858  11.086
65559W        W37088   4.725   5.467  14.511
65560W        W37089   6.829  17.022   2.284
65561W        W37090  42.702   7.457  11.195
65562W        W37091  32.343  26.480  13.923
65563W        W37092   1.463  41.029   0.839
65564W        W37093  30.977  12.205  14.710
65565W        W37094  21.182  22.733   2.787
65566W        W37095  16.301  43.286  12.384
65567W        W37096   4.583  16.713   0.937
65568W        W37097   0.850   3.487  12.483
65569W        W37098  43.374  17.581  14.959
65570W        W37099  34.318   2.863  13.076
65571W        W37100  22.602  19.191  12.222
65572W        W37101  20.594  18.141   1.333
65573W        W37102  23.743  41.991   0.604
65574W        W37103  15.070  39.951  12.014
65575W        W37104  39.686  31.941  11.643
65576W        W37105  36.684  33.450   2.982
65577W        W37106  39.585   2.148   4.106
65578W        W37107  25.566  13.920  10.595
65579W        W37108  40.511   2.977  10.708
65580W        W37109   8.269  41.833   1.399
65581W        W37110  31.044   6.688   0.260
65582W        W37111  16.314   9.175  12.970
65583W        W37112  40.663  35.137   4.493
65584W        W37113  24.424  24.621   0.480
65585W        W37114   8.836   8.884   0.417
65586W        W37115  24.922  13.110  11.975
65587W        W37116  13.282  27.703   4.557
65588W        W37117  38.417  32.052   0.971
65589W        W37118  24.134  12.295   0.044
65590W        W37119  23.011  23.297   1.220
65591W        W37120  12.682  42.524   2.879
65592W        W37121  21.292  18.759   4.379
65593W        W37122  37.155  34.915  14.994
65594W        W37123   1.892  20.119  12.399
65595W        W37124   9.405  15.757  13.819
65596W        W37125  16.729  21.939  11.277
65597W        W37126  14.719  14.187   4.560
65598W        W37127  25.606  22.322  14.375
65599W        W37128   1.599   8.847   2.457
65600W        W37129  22.452  43.806  14.529
65601W        W37130   6.806  32.899   0.490
65602W        W37131  34.937   1.451  14.339
65603W        W37132   3.120  37.076  10.756
65604W        W37133  30.175  27.052   2.338
65605W        W37134   5.876  16.355   4.988
65606W        W37135   0.482   4.472   1.237
65607W        W37136  39.147  41.747  13.199
65608W        W37137  18.023  20.322   4.696
65609W        W37138  10.673   1.447   1.911
65610W        W37139  20.582   3.001   3.550
65611W        W37140  25.154  31.070   1.443
65612W        W37141  17.216  21.857  11.417
65613W        W37142   5.773  42.503  12.386
65614W        W37143  34.732   5.630   1.429
65615W        W37144  15.853  19.060  11.535
65616W        W37145   3.909  22.465   3.708
65617W        W37146   2.293  41.027   2.667
65618W        W37147  42.122   6.367   2.031
65619W        W37148  36.663  10.422   0.267
65620W        W37149  34.354  34.476  10.682
65621W        W37150  41.300  30.522  13.533
65622W        W37151   0.906  22.562   1.229
65623W        W37152   5.558  14.066  10.764
65624W        W37153  40.926  23.608  10.818
65625W        W37154  28.331  42.089  10.756
65626W        W37155  23.362  40.634   3.697
65627W        W37156   3.965  24.108   1.198
65628W        W37157   2.831   7.605  13.932
65629W        W37158  36.467   4.778  12.114
65630W        W37159  38.407   8.626  12.857
65631W        W37160  40.343   3.045   3.262
65632W        W37161  33.417  33.470  13.598
65633W        W37162  17.713  21.738  12.998
65634W        W37163  29.203   8.021   3.212
65635W        W37164  33.056  38.332  13.811
65636W        W37165  33.957  15.682   2.744
65637W        W37166  17.088  23.252  11.899
65638W        W37167  10.248  16.664   4.899
65639W        W37168   9.725   2.845   2.073
65640W        W37169   7.215  25.734   1.475
65641W        W37170  29.552  37.138  13.877
65642W        W37171  10.753  43.927   2.755
65643W        W37172   2.001  34.953  14.913
65644W        W37173  33.278  12.316  13.943
65645W        W37174  40.997  34.863   1.478
65646W        W37175   2.032  18.076  13.818
65647W        W37176  30.629  11.640   1.793
65648W        W37177  11.357  11.146  14.445
65649W        W37178   5.296  10.004   4.921
65650W        W37179  13.876  34.401  10.852
65651W        W37180  24.356  28.527   0.253
65652W        W37181  20.157  31.390  10.791
65653W        W37182   0.438  15.817   4.019
65654W        W37183  39.554   2.209   2.167
65655W        W37184  35.925  23.084  13.150
65656W        W37185  35.433  27.450   0.545
65657W        W37186  33.514  11.837   1.208
65658W        W37187   9.885  35.425  10.588
65659W        W37188  36.397  27.174  13.925
65660W        W37189  33.019  28.206   2.270
65661W        W37190  12.749  30.634   1.391
65662W        W37191  18.263  39.475  12.898
65663W        W37192   3.836  42.867   4.062
65664W        W37193  35.908  31.656  14.969
65665W        W37194   6.898  30.323  11.497
65666W        W37195  28.628  12.124   3.704
65667W        W37196  16.488   0.420  11.184
65668W        W37197  32.457  25.022   1.423
65669W        W37198  17.815  27.510   3.197
65670W        W37199  26.401   5.134   0.656
65671W        W37200  16.858  28.254   5.019
65672W        W37201  16.494   3.266  13.141
65673W        W37202   0.861  34.448   2.898
65674W        W37203  14.592  25.467   0.100
65675W        W37204   7.856   3.492   0.677
65676W        W37205  13.077   3.360   3.996
65677W        W37206   0.742  39.186  13.669
65678W        W37207  16.874  17.150   0.341
65679W        W37208  31.702  39.616   4.139
65680W        W37209  11.355  35.827   3.073
65681W        W37210  40.987  22.316  11.253
65682W        W37211  10.970  26.173   0.881
65683W        W37212  14.354  12.318   3.415
65684W        W37213  32.093  10.847  12.352
65685W        W37214  27.759  35.287  14.399
65686W        W37215   6.158  18.035   2.565
65687W        W37216  37.993  41.076  13.977
65688W        W37217  41.422  24.958  14.540
65689W        W37218   5.186  13.932  11.600
65690W        W37219  37.499  24.472  14.013
65691W        W37220  15.655  12.908   3.639
65692W        W37221  37.420  17.266   2.229
65693W        W37222  19.742   6.101   3.621
65694W        W37223  20.968  42.400  13.546
65695W        W37224  33.113  22.276  14.544
65696W        W37225  41.020  20.097  11.545
65697W        W37226  12.099  15.989   1.845
65698W        W37227  20.798  32.952   2.950
65699W        W37228   1.737   2.237   2.706
65700W        W37229  10.548  41.898  14.320
65701W        W37230  21.783  16.142   2.615
65702W        W37231  21.412   5.193   0.902
65703W        W37232  33.317  29.378   2.952
65704W        W37233   2.275   1.751   2.731
65705W        W37234  29.094   4.390   2.225
65706W        W37235  26.064  24.052   4.863
65707W        W37236  15.870  43.694   4.047
65708W        W37237   4.136  42.472   3.380
65709W        W37238  32.600  37.766  12.004
65710W        W37239  33.427  27.961  13.079
65711W        W37240  18.190  14.261  11.362
65712W        W37241   7.694   2.381  12.671
65713W        W37242  11.629  39.040  14.946
65714W        W37243  37.847  43.809   2.856
65715W        W37244  21.149  42.750  12.123
65716W        W37245  36.444  17.698  11.639
65717W        W37246   0.006  34.937  14.450
65718W        W37247  30.765  43.302  14.441
65719W        W37248  33.698   5.953  11.041
65720W        W37249  27.717   5.392  13.529
65721W        W37250   0.458  17.193   3.300
65722W        W37251  27.959  27.971  14.391
65723W        W37252   6.912   4.983  11.998
65724W        W37253  13.739   7.632   3.895
65725W        W37254   6.457  10.369   1.215
65726W        W37255  29.962  40.871   0.426
65727W        W37256  40.856  10.442  11.379
65728W        W37257  37.363  21.848   1.350
65729W        W37258  39.002  35.615  11.230
65730W        W37259   1.402  23.203  11.198
65731W        W37260  29.063  10.443  12.024
65732W        W37261  20.498   5.174  13.407
65733W        W37262  31.356  40.427  12.603
65734W        W37263   4.773  13.354   1.720
65735W        W37264   1.957   9.426  11.693
65736W        W37265  35.612  23.136   4.356
65737W        W37266   0.497   1.764  10.501
65738W        W37267  39.512  15.937  14.286
65739W        W37268  27.752   9.042   1.855
65740W        W37269  43.771  10.653   1.999
65741W        W37270  26.751   8.304   0.994
65742W        W37271  28.096  21.314   3.352
65743W        W37272   3.429   1.230   2.370
65744W        W37273  20.646  12.549  11.088
65745W        W37274   4.075  36.751   4.009
65746W        W37275  18.504  34.893  14.208
65747W        W37276  32.676  28.279  11.564
65748W        W37277  12.334   5.700   1.449
65749W        W37278  27.141  44.523   4.724
65750W        W37279  18.173  23.026  13.957
65751W        W37280  42.992   6.640  14.405
65752W        W37281  35.963  19.394  14.406
65753W        W37282  28.891   4.950  13.416
65754W        W37283  38.404   6.277   2.652
65755W        W37284  26.168  18.862  12.504
65756W        W37285   6.290  33.167  12.464
65757W        W37286  41.394  17.668   4.247
65758W        W37287   3.039  41.668  12.129
65759W        W37288  41.993  17.247  10.739
65760W        W37289  14.135  42.490   2.247
65761W        W37290  42.147   1.721   2.925
65762W        W37291  44.814  41.864   0.709
65763W        W37292  37.866   5.727  13.604
65764W        W37293   0.342  13.082  11.428
65765W        W37294  16.827  41.651  11.682
65766W        W37295   9.092  16.609   0.927
65767W        W37296   0.821  33.903   0.025
65768W        W37297   8.214   1.973  14.847
65769W        W37298  32.559  34.518   1.450
65770W        W37299  30.442  34.196   3.154
65771W        W37300   0.782  32.085  10.583
65772W        W37301  35.686  15.762   0.270
65773W        W37302  16.064  31.360   2.585
65774W        W37303   6.655   1.256   2.736
65775W        W37304  37.868  22.625   0.944
65776W        W37305   0.491  37.544   0.391
65777W        W37306  37.035  38.058  11.501
65778W        W37307  32.828   1.517  12.834
65779W        W37308  42.002   7.171  14.037
65780W        W37309  43.248   5.405   2.786
65781W        W37310  22.958   1.193  12.987
65782W        W37311  19.504  34.973  11.051
65783W        W37312  25.960   9.658  12.954
65784W        W37313  44.489  27.034  12.134
65785W        W37314  16.463  12.485   5.370
65786W        W37315  29.697  31.016  14.439
65787W        W37316  23.617   1.643  12.081
65788W        W37317  29.573   4.245  13.870
65789W        W37318  41.867  19.335  13.583
65790W        W37319  22.354  10.677   1.874
65791W        W37320  40.569   2.715   1.633
65792W        W37321  15.189  33.582  11.083
65793W        W37322  42.278  44.149  10.511
65794W        W37323   7.150   7.530   4.814
65795W        W37324  22.267   6.224  14.218
65796W        W37325  38.411   9.403  13.284
65797W        W37326  22.335  36.510  14.252
65798W        W37327  12.713  39.068  10.935
65799W        W37328   2.087  22.685   0.646
65800W        W37329  34.294   2.465   2.845
65801W        W37330  40.622  27.981  12.956
65802W        W37331   6.856  13.115  11.180
65803W        W37332   8.748  39.118  14.054
65804W        W37333  35.945  20.224  13.120
65805W        W37334  18.558  21.200  13.245
65806W        W37335   1.479  27.074   0.960
65807W        W37336  30.563  18.270   1.757
65808W        W37337  35.366  41.528   0.410
65809W        W37338  17.752  40.880  12.814
65810W        W37339  18.076  27.590   3.642
65811W        W37340  41.055  38.216   1.192
65812W        W37341  13.733  13.417   4.125
65813W        W37342  38.447   3.401   4.253
65814W        W37343  19.815  15.850   0.328
65815W        W37344  43.350  28.424   3.719
65816W        W37345  44.507   4.953  12.021
65817W        W37346  12.621   8.555   1.922
65818W        W37347  12.136  16.894   2.747
65819W        W37348  15.360  14.562   4.190
65820W        W37349  12.527  32.688   1.358
65821W        W37350  33.379  39.982  13.125
65822W        W37351   4.751  35.116  11.023
65823W        W37352   0.932  40.768   1.275
65824W        W37353  38.801  10.680   2.580
65825W        W37354  25.475  23.447  12.500
65826W        W37355   1.243  19.676   2.341
65827W        W37356  41.212  35.926   4.179
65828W        W37357  21.045  39.982  14.868
65829W        W37358   3.422  44.072  12.462
65830W        W37359  34.541  19.163   4.547
65831W        W37360   3.420  38.360  12.457
65832W        W37361   1.808  15.779   1.877
65833W        W37362  22.079  32.341   2.692
65834W        W37363   7.613  15.424  12.255
65835W        W37364  37.307   6.817   0.724
65836W        W37365  39.419  13.094  12.918
65837W        W37366  26.473  38.296   0.781
65838W        W37367  25.263   5.960  12.915
65839W        W37368  29.474  44.504   3.177
65840W        W37369  11.602  10.286  13.352
65841W        W37370   4.119  31.463  10.972
65842W        W37371  25.592  24.787  11.095
65843W        W37372  11.852  29.087   2.892
65844W        W37373  18.838  44.334   1.491
65845W        W37374  36.552  31.542  12.332
65846W        W37375  21.223  10.668   3.210
65847W        W37376  34.598  36.283   1.709
65848W        W37377  27.400  25.010   3.763
65849W        W37378  25.671  41.564  13.366
65850W        W37379  17.968  10.089   2.820
65851W        W37380   6.633  13.164  11.689
65852W        W37381  24.590  26.563  11.144
65853W        W37382  30.314  36.891   2.912
65854W        W37383  41.481   3.385   0.961
65855W        W37384  37.911  44.563  13.993
65856W        W37385  15.261  41.853   2.546
65857W        W37386  35.403  18.617   0.892
65858W        W37387  19.346  27.053  13.017
65859W        W37388  36.966  28.162   0.156
65860W        W37389   7.427  38.198   3.313
65861W        W37390  15.424  35.503  11.552
65862W        W37391   6.693  21.269  12.647
65863W        W37392  13.721  30.029   3.296
65864W        W37393  24.173  43.831  14.716
65865W        W37394   2.956  22.662  14.092
65866W        W37395  20.067  27.596   1.322
65867W        W37396  12.233  20.033   0.352
65868W        W37397  22.598  36.841   4.174
65869W        W37398   6.459   5.783  12.992
65870W        W37399  28.156  10.330   0.318
65871W        W37400  23.005  18.003   2.754
65872W        W37401  29.490  31.939   2.711
65873W        W37402  31.507   7.833   2.365
65874W        W37403  33.641  44.278   4.155
65875W        W37404  39.001  23.970   2.096
65876W        W37405   3.000  44.857  13.103
65877W        W37406   6.860  19.992  14.829
65878W        W37407   9.898  41.836  13.023
65879W        W37408  38.738  10.245   3.204
65880W        W37409   0.201  16.231   0.361
65881W        W37410  38.116  13.109  11.163
65882W        W37411  35.612  11.670   1.014
65883W        W37412   7.446  31.035  12.021
65884W        W37413  36.140  16.778   1.256
65885W        W37414  12.729  40.318   1.396
65886W        W37415  15.182  21.311   3.692
65887W        W37416  29.245   3.771  13.894
65888W        W37417  38.005   3.286   4.489
65889W        W37418  42.825  35.529  14.913
65890W        W37419  21.584  26.136   0.386
65891W        W37420  26.898  23.648  11.739
65892W        W37421   2.809  32.854   5.431
65893W        W37422  43.951   6.548   2.303
65894W        W37423  35.767  12.077  13.089
65895W        W37424   8.771   9.191  14.938
65896W        W37425   6.232  15.264   3.266
65897W        W37426  27.649   1.392   3.789
65898W        W37427  31.767  42.251  14.517
65899W        W37428  10.643  28.096   3.195
65900W        W37429  18.276  28.119  11.535
65901W        W37430  19.386  25.089   0.921
65902W        W37431   0.059  34.760  12.912
65903W        W37432  35.853  32.379  14.383
65904W        W37433  14.807   5.313   1.317
65905W        W37434  44.472  25.549  13.911
65906W        W37435  44.570   1.908  10.492
65907W        W37436   7.053  32.736  14.766
65908W        W37437  30.483   9.166   1.476
65909W        W37438  11.685  44.366   3.205
65910W        W37439  42.503  37.903  12.486
65911W        W37440  11.147  10.874   3.317
65912W        W37441  16.144  20.925   1.785
65913W        W37442   5.654  11.722  12.905
65914W        W37443  43.911  18.960  13.907
65915W        W37444   8.358  17.535   3.315
65916W        W37445  42.968  38.723   0.469
65917W        W37446   5.069  28.686  11.830
65918W        W37447  29.988   7.958   2.632
65919W        W37448  16.348  28.833  11.474
65920W        W37449  35.093  33.086   4.347
65921W        W37450   7.051  27.013   1.801
65922W        W37451   7.803  23.576  10.528
65923W        W37452  16.566  17.270   2.749
65924W        W37453   4.932  40.279  11.698
65925W        W37454  40.440  38.547  11.724
65926W        W37455  26.882  24.532  10.712
65927W        W37456   7.401  21.304  14.484
65928W        W37457  16.061  33.956  12.585
65929W        W37458  28.228  22.412  12.006
65930W        W37459  28.342   6.887   0.894
65931W        W37460   6.690  33.850  14.468
65932W        W37461  25.537  39.083  12.153
65933W        W37462  40.092  10.326  10.679
65934W        W37463  10.793  34.019  12.060
65935W        W37464  32.369  22.742  10.696
65936W        W37465  16.567  29.710   3.814
65937W        W37466   1.381  12.251  11.225
65938W        W37467  36.534  36.448   3.353
65939W        W37468   1.750  11.203   0.558
65940W        W37469  18.939  27.579   0.258
65941W        W37470   9.631  23.000   1.018
65942W        W37471   7.230  40.590  13.061
65943W        W37472   2.755  36.869  13.485
65944W        W37473  42.862  21.028   2.682
65945W        W37474  17.846   2.718   2.380
65946W        W37475  13.076   5.408  12.086
65947W        W37476  33.338  13.039   2.615
65948W        W37477   8.219  17.306  10.666
65949W        W37478  44.571  28.540   0.314
65950W        W37479   2.732  35.564   4.405
65951W        W37480  10.127  16.304  14.092
65952W        W37481  26.005   0.751  13.012
65953W        W37482  24.205   7.449  11.916
65954W        W37483   0.848   9.093   3.022
65955W        W37484   9.707  38.414   2.652
65956W        W37485   5.131  31.969  12.887
65957W        W37486  12.778   0.413   4.178
65958W        W37487  19.594  36.602  13.024
65959W        W37488  33.815   8.894  14.776
65960W        W37489   8.774   3.657  10.454
65961W        W37490  37.406  10.312  11.682
65962W        W37491   1.410  36.356   0.869
65963W        W37492   0.223   6.892   2.227
65964W        W37493  39.299  39.773   4.231
65965W        W37494  17.202   8.709   0.838
65966W        W37495  36.294  33.539   3.885
65967W        W37496   2.348  16.128   0.788
65968W        W37497  11.236  35.293   1.308
65969W        W37498  20.906  40.376  12.649
65970W        W37499  24.856  33.890   4.684
65971W        W37500   4.823  37.532   0.482
65972W        W37501  35.541  40.182   2.289
65973W        W37502  35.335  12.878   2.824
65974W        W37503   0.696  17.986   4.199
65975W        W37504  29.013   6.824   1.392
65976W        W37505  38.147  26.559   0.379
65977W        W37506   4.484  23.260   2.338
65978W        W37507  28.789  29.514   0.873
65979W        W37508   3.885  13.704   4.931
65980W        W37509   7.245  17.883   4.021
65981W        W37510  18.511  27.208   4.523
65982W        W37511  13.584   3.538   0.807
65983W        W37512   9.806  11.141   3.742
65984W        W37513   1.365  39.317   1.790
65985W        W37514  37.407  42.876  12.825
65986W        W37515   9.806  34.679   3.530
65987W        W37516  12.691   9.684  11.813
65988W        W37517   6.151  31.351   2.825
65989W        W37518  18.971   9.797  10.514
65990W        W37519   7.238  40.148   4.468
65991W        W37520  24.639  30.943  10.963
65992W        W37521   9.747  18.155  14.466
65993W        W37522  28.631  33.845  13.690
65994W        W37523  14.055  39.421   2.452
65995W        W37524  28.854  32.500   4.191
65996W        W37525  37.691   4.827  10.492
65997W        W37526  33.435   5.237   2.691
65998W        W37527   4.414  14.858  10.541
65999W        W37528  42.937  26.919   3.666
66000W        W37529  12.144  13.836   3.219
66001W        W37530   4.132   0.365  13.524
66002W        W37531  11.479  39.345  11.084
66003W        W37532  38.608  33.176  11.633
66004W        W37533  19.521  10.109  12.054
66005W        W37534  38.427  37.996  14.555
66006W        W37535  10.387  25.746  12.898
66007W        W37536  33.431  25.913   3.489
66008W        W37537  17.879   7.376   3.310
66009W        W37538  34.401  14.085   2.228
66010W        W37539   8.415  36.175  14.895
66011W        W37540  18.121  31.615   2.695
66012W        W37541  16.028  20.500  11.868
66013W        W37542  35.064  11.631  13.728
66014W        W37543   6.718  25.647   1.428
66015W        W37544  25.087  42.855  11.427
66016W        W37545  17.276  34.034  14.277
66017W        W37546  34.826  11.426  12.375
66018W        W37547  21.216  12.701  10.379
66019W        W37548  40.291   6.624   4.576
66020W        W37549  39.166  22.949  10.423
66021W        W37550  12.538   1.333   4.739
66022W        W37551  30.741  26.981  14.390
66023W        W37552   4.107  26.649  13.523
66024W        W37553   9.992  15.749   4.620
66025W        W37554  34.326  30.225  14.824
66026W        W37555  42.110   2.214   2.773
66027W        W37556  44.991  11.171  13.079
66028W        W37557  20.196  44.318   0.838
66029W        W37558  15.306  11.052  10.286
66030W        W37559  35.361  21.463  13.504
66031W        W37560  32.510  33.892   2.648
66032W        W37561   3.995  38.429  12.367
66033W        W37562  23.914  34.878  10.376
66034W        W37563  15.233  16.837   1.267
66035W        W37564   6.920   7.678   0.834
66036W        W37565  25.040   5.533  11.467
66037W        W37566  36.138  39.974   2.301
66038W        W37567  35.529   4.186   3.202
66039W        W37568  37.260  42.913   3.743
66040W        W37569   5.232  42.659  14.989
66041W        W37570  39.045   5.183   0.482
66042W        W37571  24.266  42.806   1.437
66043W        W37572  21.629   0.052   3.807
66044W        W37573  29.833   4.315   1.614
66045W        W37574  11.856  12.688   2.226
66046W        W37575   7.082  25.045   0.455
66047W        W37576  33.011  29.932  10.648
66048W        W37577  13.079   0.982  13.525
66049W        W37578  43.826   7.292   1.425
66050W        W37579  24.369   3.883   1.424
66051W        W37580  19.746  25.168   1.458
66052W        W37581  36.964  28.965   4.763
66053W        W37582   3.398   8.628  13.433
66054W        W37583   8.583  25.647  11.063
66055W        W37584  43.947  34.844   2.540
66056W        W37585  39.036  13.925   0.565
66057W        W37586  23.482   3.260  10.997
66058W        W37587  12.708  16.640   3.858
66059W        W37588  20.004   0.886   0.369
66060W        W37589  35.335  15.752  14.874
66061W        W37590  19.066  35.566   1.902
66062W        W37591  17.530  28.103  12.156
66063W        W37592   7.813  24.711   2.663
66064W        W37593  17.538  13.808   4.615
66065W        W37594  41.510   7.253  14.948
66066W        W37595   3.744  35.450   0.687
66067W        W37596   8.281   5.907   1.860
66068W        W37597  39.529  33.534  11.694
66069W        W37598   8.723  13.141  11.993
66070W        W37599  18.411   3.307  11.133
66071W        W37600  34.443  25.202   1.208
66072W        W37601  32.083   0.251  10.993
66073W        W37602  14.295   8.690   3.729
66074W        W37603  44.490  23.004   9.822
66075W        W37604   6.599  29.655   2.763
66076W        W37605  36.886  38.123  13.302
66077W        W37606  25.004   0.002   4.561
66078W        W37607   5.380  32.434   3.590
66079W        W37608  32.611  25.636   1.276
66080W        W37609   9.911  38.731  12.573
66081W        W37610  39.416  44.368  11.084
66082W        W37611   6.241  40.106   0.306
66083W        W37612   2.975  31.366  14.221
66084W        W37613  27.514  27.664   3.227
66085W        W37614  19.796  18.799  12.542
66086W        W37615   0.521  10.897   0.844
66087W        W37616   9.701   4.753  11.113
66088W        W37617  39.831  13.672  12.706
66089W        W37618   4.413   4.482   0.337
66090W        W37619  10.338  29.537  11.959
66091W        W37620  29.362   8.270  10.962
66092W        W37621  44.348  25.972   3.781
66093W        W37622  30.743   8.225   0.079
66094W        W37623   6.445  31.078  14.054
66095W        W37624  39.831   3.442  14.943
66096W        W37625  11.838   8.148  10.874
66097W        W37626  16.971  14.061  13.489
66098W        W37627  17.564  24.179  10.978
66099W        W37628  30.964  17.753  14.877
66100W        W37629   5.245  29.512   4.283
66101W        W37630   4.739  41.328   0.734
66102W        W37631   8.851  12.845  11.567
66103W        W37632  24.234  17.170  10.991
66104W        W37633  23.466   6.342  11.125
66105W        W37634  28.991   5.210  10.761
66106W        W37635  35.618   5.309   3.678
66107W        W37636  10.571   5.312   3.949
66108W        W37637   9.716  41.921   4.582
66109W        W37638  38.697  20.176   4.261
66110W        W37639  32.114  15.776   4.072
66111W        W37640  36.480  20.235  14.356
66112W        W37641   6.151  30.763  12.555
66113W        W37642  40.677  39.614   4.354
66114W        W37643   4.135  28.117   1.738
66115W        W37644   9.640  36.720  14.404
66116W        W37645  18.740   1.881  10.706
66117W        W37646  31.512   2.746  11.721
66118W        W37647   4.777  10.190   1.945
66119W        W37648  18.329  11.565   0.731
66120W        W37649   0.254  35.085   0.425
66121W        W37650  20.246   9.814  10.872
66122W        W37651  30.173  32.152  12.867
66123W        W37652  33.995  35.880   0.943
66124W        W37653  10.756  10.810   4.576
66125W        W37654  32.121   8.654  13.818
66126W        W37655  10.667  21.547  12.287
66127W        W37656   2.298   4.295  13.480
66128W        W37657  17.031  28.222  13.370
66129W        W37658  12.853  40.763   2.255
66130W        W37659  18.873   9.050   3.081
66131W        W37660  23.146  30.922  11.434
66132W        W37661   0.303  31.413   1.300
66133W        W37662  42.768   3.959  13.061
66134W        W37663   2.887  24.792   3.737
66135W        W37664  36.901  25.765   0.424
66136W        W37665  10.851   5.550  12.430
66137W        W37666  39.843  43.578  11.833
66138W        W37667  35.017  40.829  12.445
66139W        W37668  34.074   9.195  11.014
66140W        W37669  32.607   1.890  11.576
66141W        W37670  35.303  38.452  11.175
66142W        W37671  18.597  14.530  14.097
66143W        W37672  44.778   8.137  10.888
66144W        W37673  14.374  22.902  11.556
66145W        W37674   4.250  10.632  12.911
66146W        W37675  39.413   3.139   0.832
66147W        W37676  31.145  10.150  14.526
66148W        W37677  42.786  17.664  12.112
66149W        W37678  31.999  22.790  12.548
66150W        W37679  35.558  44.237   1.460
66151W        W37680  44.354  35.831   3.133
66152W        W37681  36.959   9.992  10.032
66153W        W37682  37.384   9.378   3.257
66154W        W37683   3.518  36.545   4.516
66155W        W37684  26.670   0.754  10.501
66156W        W37685   5.211  18.318  13.826
66157W        W37686   2.927  32.385  11.939
66158W        W37687  22.951  34.435  11.934
66159W        W37688  20.101   0.737   0.843
66160W        W37689  19.637  31.002  13.845
66161W        W37690  42.766   8.658   1.700
66162W        W37691  25.117   4.372  12.034
66163W        W37692  18.720  19.497   3.405
66164W        W37693   3.294  25.683   1.372
66165W        W37694   5.476  13.776   1.353
66166W        W37695  28.655  10.795   4.499
66167W        W37696   7.939  12.735  12.231
66168W        W37697  30.356   0.974  13.377
66169W        W37698  27.573  30.485   0.695
66170W        W37699  11.265  24.015  13.401
66171W        W37700   0.071  43.004  11.673
66172W        W37701   2.233  35.921   2.296
66173W        W37702  32.899  38.835   3.624
66174W        W37703  16.608  15.975   0.526
66175W        W37704  35.691  41.536  11.246
66176W        W37705  31.711  41.281   2.002
66177W        W37706  25.333   3.939  14.650
66178W        W37707  17.813   4.257   0.934
66179W        W37708   1.810  10.184   0.701
66180W        W37709   4.184  31.072  14.044
66181W        W37710  14.684  15.588   4.705
66182W        W37711  35.464   9.106   1.651
66183W        W37712  36.327  13.589   2.786
66184W        W37713   3.865  30.637   0.806
66185W        W37714  11.829  31.950   1.178
66186W        W37715  19.832   4.573  13.142
66187W        W37716  32.424  10.960  11.533
66188W        W37717   6.457  20.269   2.308
66189W        W37718   6.577  44.399  12.901
66190W        W37719  18.716  22.052  13.411
66191W        W37720  38.592  26.673   3.680
66192W        W37721  11.068  27.023   0.279
66193W        W37722   0.446   4.518   2.189
66194W        W37723  41.733  40.608  11.439
66195W        W37724  28.993  20.544  11.109
66196W        W37725  36.451  13.341   0.861
66197W        W37726  20.093  31.574   4.706
66198W        W37727  24.948   0.836   1.350
66199W        W37728  13.567  42.060  13.403
66200W        W37729  41.746   3.553  10.069
66201W        W37730  10.733   1.653   1.407
66202W        W37731  28.094  26.910   4.692
66203W        W37732  31.906  10.586   2.293
66204W        W37733  42.753   0.948   0.839
66205W        W37734  27.066  22.281   1.789
66206W        W37735  15.580  14.244  12.543
66207W        W37736  33.660  10.884   4.213
66208W        W37737  22.045  34.750  11.991
66209W        W37738  25.956  19.194   2.606
66210W        W37739  24.458  37.848   2.914
66211W        W37740  22.616   5.115  11.494
66212W        W37741  20.364  11.835   2.726
66213W        W37742  24.566   5.778   1.534
66214W        W37743  42.959  20.986  14.892
66215W        W37744  21.638  25.606   0.500
66216W        W37745  34.194  36.033   2.178
66217W        W37746   1.424  10.432  13.964
66218W        W37747  25.405   5.172   0.264
66219W        W37748  43.583  32.853   4.412
66220W        W37749  23.654  40.699   1.929
66221W        W37750  31.117  38.683  11.579
66222W        W37751  43.806  13.135   2.458
66223W        W37752   9.361  11.941   3.826
66224W        W37753  11.268  19.232   4.249
66225W        W37754  22.741  40.849   2.213
66226W        W37755  37.736  13.143   3.743
66227W        W37756  41.020  30.725  14.207
66228W        W37757  10.706  28.486  12.999
66229W        W37758  24.676  10.772  12.853
66230W        W37759  13.655   1.272   3.204
66231W        W37760  41.765  28.697   3.865
66232W        W37761   5.531  28.239   0.385
66233W        W37762  12.542   6.801  12.079
66234W        W37763  26.472  27.665   3.204
66235W        W37764  39.964   1.543   3.689
66236W        W37765  43.323   1.351  14.422
66237W        W37766  11.150  44.171   2.302
66238W        W37767  44.823  38.291   4.862
66239W        W37768  22.198  21.950   1.005
66240W        W37769  39.741  13.050  10.739
66241W        W37770  15.346  32.901  10.692
66242W        W37771   3.844  25.831   1.255
66243W        W37772  32.070  31.065   3.288
66244W        W37773   7.437  26.945  11.505
66245W        W37774   5.605  26.380   4.682
66246W        W37775  32.152  14.897   2.746
66247W        W37776  21.506  38.083  13.771
66248W        W37777  15.483  22.200   0.745
66249W        W37778   2.770   0.515  13.369
66250W        W37779  30.649  44.822   0.358
66251W        W37780   3.367  22.215   1.343
66252W        W37781   7.196  44.875   2.432
66253W        W37782  31.066   3.117   4.956
66254W        W37783  31.100  12.749   2.237
66255W        W37784   6.200  20.970   1.726
66256W        W37785  25.235  20.739  13.496
66257W        W37786  32.385  36.292   1.422
66258W        W37787  29.556   5.813   1.877
66259W        W37788  29.503  42.942   1.252
66260W        W37789  28.950  39.974  14.817
66261W        W37790  15.092  36.377   1.730
66262W        W37791  38.477  40.390   3.204
66263W        W37792  31.331  11.220   4.127
66264W        W37793  26.178  31.365   0.741
66265W        W37794  22.262  13.823  11.070
66266W        W37795   1.983  16.777   3.694
66267W        W37796   7.847  20.745   0.685
66268W        W37797  27.686   8.364  14.303
66269W        W37798  21.530  31.463   4.068
66270W        W37799   2.673  22.713   1.819
66271W        W37800   7.130   6.255  12.086
66272W        W37801  39.467   0.393  10.734
66273W        W37802   8.332  39.824   0.340
66274W        W37803  15.182  24.676  14.749
66275W        W37804  14.191  24.941  10.943
66276W        W37805  25.239   0.313   1.326
66277W        W37806   8.820  23.020  10.669
66278W        W37807  22.995   1.472  10.322
66279W        W37808  21.322   9.733   0.836
66280W        W37809  37.920  19.478  11.584
66281W        W37810  10.718   3.007  12.564
66282W        W37811   6.415  18.347  11.643
66283W        W37812  44.753  41.963   4.035
66284W        W37813  30.658  12.926  14.830
66285W        W37814  27.692  31.946  12.804
66286W        W37815  17.419  12.599  10.566
66287W        W37816  38.217   6.746   4.606
66288W        W37817  29.692  18.059  12.579
66289W        W37818  44.695  33.364   3.213
66290W        W37819   2.972  42.950  12.473
66291W        W37820  22.005  16.335  11.589
66292W        W37821  26.757  15.059   2.623
66293W        W37822  39.954  13.786   3.709
66294W        W37823  11.499  22.589  10.991
66295W        W37824  20.574   0.309   2.324
66296W        W37825  27.635  44.362   3.999
66297W        W37826  17.887  25.617   2.375
66298W        W37827  34.145  11.109   2.777
66299W        W37828  28.582   1.045   2.201
66300W        W37829   5.649  40.250  10.811
66301W        W37830  19.798  41.951   4.545
66302W        W37831  31.505  35.147  11.859
66303W        W37832  32.109   0.073   4.149
66304W        W37833  22.135   1.459  11.632
66305W        W37834   5.717  25.010  11.051
66306W        W37835  16.032  39.534  10.466
66307W        W37836  16.716   6.201  11.452
66308W        W37837  18.032  24.258  13.536
66309W        W37838  26.069  21.233  12.060
66310W        W37839  22.724  10.066  11.090
66311W        W37840   0.908  20.110  12.760
66312W        W37841  22.514  18.092   0.756
66313W        W37842  39.555  16.022   0.724
66314W        W37843   0.670   3.232   2.934
66315W        W37844  22.540  34.583   0.893
66316W        W37845  25.495  11.613   5.074
66317W        W37846   7.703  41.093  10.224
66318W        W37847  13.766  17.988  11.503
66319W        W37848  37.722   6.908  11.215
66320W        W37849  26.888  23.089  13.436
66321W        W37850  10.093  37.890   1.955
66322W        W37851  12.143  23.704  13.149
66323W        W37852  31.185  15.109   2.247
66324W        W37853   3.256  44.644  14.966
66325W        W37854  27.503  37.832  11.113
66326W        W37855   9.636  16.815   2.856
66327W        W37856  36.862  34.386  12.738
66328W        W37857  12.901  25.936   4.182
66329W        W37858   1.448  21.746  12.287
66330W        W37859  24.232  16.829  11.662
66331W        W37860  23.627  41.087  12.967
66332W        W37861  22.013   7.895   1.433
66333W        W37862  13.134  39.004   1.473
66334W        W37863  21.955   4.266  10.688
66335W        W37864  41.340  15.161   2.803
66336W        W37865  29.551   5.763   3.191
66337W        W37866  41.874  30.647   0.714
66338W        W37867  13.384  35.459   3.179
66339W        W37868  22.752  30.454  14.914
66340W        W37869   2.868  17.637   2.501
66341W        W37870  27.100  32.212  13.600
66342W        W37871  10.198  20.867   0.372
66343W        W37872   2.299  15.169   0.352
66344W        W37873  32.113  22.312  12.450
66345W        W37874  41.932  22.346   4.185
66346W        W37875  32.220  17.098  10.747
66347W        W37876  37.555  25.421   2.450
66348W        W37877   7.059   9.413  10.982
66349W        W37878   9.655  28.421   0.525
66350W        W37879  14.193   3.864  13.080
66351W        W37880   3.206  30.133  10.942
66352W        W37881  30.396  40.324  13.415
66353W        W37882  21.026   6.221   4.561
66354W        W37883  14.271  25.121   0.997
66355W        W37884  24.698  17.504  12.045
66356W        W37885   4.141  36.593  13.854
66357W        W37886  44.542  10.651   3.818
66358W        W37887  23.026  33.096   3.069
66359W        W37888  13.941  38.119  12.916
66360W        W37889  12.673  18.213   1.695
66361W        W37890  19.385  21.048   4.097
66362W        W37891  37.035   9.172  13.790
66363W        W37892  35.360  13.882   1.332
66364W        W37893  29.756   1.230   1.887
66365W        W37894  12.351  11.596   3.750
66366W        W37895   0.203  34.037  13.917
66367W        W37896  10.855  14.745  14.892
66368W        W37897  42.814  22.273   3.664
66369W        W37898  29.117  35.951   0.881
66370W        W37899  24.581  32.853  13.883
66371W        W37900   7.638  20.636  11.900
66372W        W37901  39.425  10.894  13.423
66373W        W37902  30.788   5.199   3.369
66374W        W37903   4.298   7.008   3.732
66375W        W37904  16.364   5.370  12.770
66376W        W37905  23.927  27.577   4.196
66377W        W37906  26.626  26.727  12.957
66378W        W37907  15.909  32.631  11.523
66379W        W37908   3.795   7.716   1.427
66380W        W37909   9.199  33.086  13.277
66381W        W37910  10.474  25.571  13.482
66382W        W37911   9.550  18.941  11.922
66383W        W37912  13.189   1.918  10.403
66384W        W37913  16.955  28.475   4.519
66385W        W37914  12.388   3.725   2.856
66386W        W37915  29.667  28.413  12.130
66387W        W37916  18.878  15.506   4.140
66388W        W37917  27.615  10.389  14.024
66389W        W37918  33.281  18.483  13.340
66390W        W37919  10.523  43.486  10.054
66391W        W37920  38.607   6.409   3.112
66392W        W37921  30.919  28.604  12.644
66393W        W37922  20.639   2.970  11.528
66394W        W37923  26.202  39.792  13.818
66395W        W37924  40.500  10.391   4.303
66396W        W37925  20.773  41.313  11.486
66397W        W37926  28.782  28.251   2.165
66398W        W37927  16.753  18.289  13.395
66399W        W37928  39.806   9.167  12.177
66400W        W37929  25.717  10.714  11.239
66401W        W37930  28.381  21.612   3.790
66402W        W37931  13.007  42.694  10.260
66403W        W37932  16.261  21.279  11.575
66404W        W37933   7.131  15.533  12.404
66405W        W37934  38.878  14.725   1.730
66406W        W37935  19.736  38.378  12.305
66407W        W37936   2.810   2.817  11.169
66408W        W37937   3.041  14.716   0.453
66409W        W37938  33.501  32.299   0.365
66410W        W37939  31.833   4.217  11.667
66411W        W37940  29.553  28.464   2.627
66412W        W37941   6.885  32.958  13.046
66413W        W37942   1.401  12.339   0.430
66414W        W37943  10.812  22.738   3.878
66415W        W37944   4.260   8.386   3.377
66416W        W37945  26.058  35.732   2.350
66417W        W37946   7.074  10.693  11.204
66418W        W37947  23.240  25.474  14.023
66419W        W37948  37.079  21.117   3.572
66420W        W37949  34.001   2.961   0.916
66421W        W37950  12.319  39.179  11.343
66422W        W37951  15.412  19.471  10.243
66423W        W37952  11.718  17.337   1.960
66424W        W37953  13.563  21.725   2.743
66425W        W37954  22.692   5.931  11.113
66426W        W37955   7.425   1.638   0.236
66427W        W37956  24.537  40.374  11.205
66428W        W37957  24.222  14.923  10.752
66429W        W37958  18.246  23.511   1.417
66430W        W37959   5.975  21.447  14.660
66431W        W37960  36.592   1.301   1.886
66432W        W37961   4.122   9.234   4.833
66433W        W37962  10.326  16.715   3.406
66434W        W37963  38.785  42.484  12.498
66435W        W37964  13.758  18.489   2.260
66436W        W37965  10.295   4.896   4.559
66437W        W37966  35.431  31.387   1.205
66438W        W37967  26.931   2.922  13.922
66439W        W37968  38.059  42.452  11.144
66440W        W37969  35.550  28.072  11.440
66441W        W37970  24.521   9.432   1.368
66442W        W37971  26.214  15.054  11.946
66443W        W37972  34.518   3.981   4.643
66444W        W37973  14.658  37.808   1.867
66445W        W37974  40.052  18.677  11.220
66446W        W37975   8.261  12.892   1.592
66447W        W37976  21.193  42.054  11.498
66448W        W37977  21.566  13.863   0.539
66449W        W37978   8.428  10.117  13.435
66450W        W37979  28.031  30.637   0.428
66451W        W37980  25.620  41.579   0.359
66452W        W37981  10.230   3.483   2.387
66453W        W37982  28.065   7.647  10.813
66454W        W37983  22.714  41.494  10.775
66455W        W37984   0.242  10.717  12.862
66456W        W37985   9.418  44.441   2.981
66457W        W37986   7.308  18.543  11.953
66458W        W37987   4.452  31.715   0.681
66459W        W37988  31.167  27.517   1.193
66460W        W37989  13.770  12.639   1.646
66461W        W37990  12.704   5.048  14.329
66462W        W37991  36.016   1.994   4.861
66463W        W37992   4.403  28.859  12.365
66464W        W37993  14.915   6.324   4.424
66465W        W37994  11.872  29.039   3.864
66466W        W37995  19.865  35.768   3.592
66467W        W37996  10.228  27.824  14.461
66468W        W37997  30.451  36.876  11.240
66469W        W37998   0.736  43.543   1.215
66470W        W37999  26.051  35.022  10.485
66471W        W38000  19.573  23.676   0.551
66472W        W38001  23.578  21.268   3.869
66473W        W38002  33.928   8.832   3.195
66474W        W38003  15.759  24.517  11.095
66475W        W38004  13.089  26.785   1.300
66476W        W38005   7.783  27.743   3.369
66477W        W38006  28.018  41.809  12.214
66478W        W38007  38.842  12.207  10.433
66479W        W38008   4.763  43.766   0.843
66480W        W38009  16.858  23.768   1.325
66481W        W38010  20.095  30.455   3.653
66482W        W38011  39.810  24.030   1.683
66483W        W38012  31.624  19.216  10.663
66484W        W38013  20.174   7.483   3.665
66485W        W38014  11.419   8.565   3.633
66486W        W38015  31.987  16.632  12.072
66487W        W38016  18.028   9.222   1.732
66488W        W38017   1.048  26.630  12.947
66489W        W38018   4.334  11.006  11.602
66490W        W38019  43.826  37.107  14.781
66491W        W38020  18.415   9.763   0.230
66492W        W38021  11.724  38.007   1.882
66493W        W38022   8.345   9.610   1.702
66494W        W38023  36.925  12.622  13.436
66495W        W38024   3.223  38.391   0.415
66496W        W38025  27.650  14.528   0.395
66497W        W38026   8.191  36.482  12.208
66498W        W38027  16.753   5.787   3.343
66499W        W38028  42.789  20.177   4.541
66500W        W38029   3.699  18.690  12.773
66501W        W38030  29.088  20.314  11.564
66502W        W38031   0.825  37.384   2.659
66503W        W38032   6.749  34.786  13.365
66504W        W38033  37.917  16.338   3.670
66505W        W38034  17.241  28.086   2.817
66506W        W38035  33.104  18.631   4.547
66507W        W38036  26.034  11.289   2.331
66508W        W38037  33.173  24.928   3.270
66509W        W38038  38.956  37.557  11.593
66510W        W38039  13.352  24.086   3.251
66511W        W38040  36.552  21.910   0.509
66512W        W38041  13.140  20.189  10.716
66513W        W38042  24.787  36.388  13.933
66514W        W38043   5.747  43.319  14.515
66515W        W38044  30.719  30.541   1.257
66516W        W38045   1.552  44.434  12.619
66517W        W38046  29.028  44.538  12.588
66518W        W38047   7.296  18.107   2.203
66519W        W38048  41.775  37.821  11.192
66520W        W38049  28.557  33.133  11.890
66521W        W38050   1.705  18.600  12.435
66522W        W38051  39.601  14.671  14.493
66523W        W38052  32.965  12.186   1.198
66524W        W38053  22.937  35.137  12.879
66525W        W38054  24.698  27.554   3.760
66526W        W38055  30.216  10.844   3.770
66527W        W38056  38.577   7.301  12.578
66528W        W38057  14.583  22.439  11.624
66529W        W38058  27.663  29.682  14.395
66530W        W38059  31.951  26.721   2.320
66531W        W38060  33.578   1.529   0.200
66532W        W38061  37.551  34.631   0.859
66533W        W38062  42.932  18.540   2.828
66534W        W38063   4.661  36.365   4.032
66535W        W38064  12.332  29.069  11.103
66536W        W38065  18.263  30.978   0.958
66537W        W38066   8.168  30.961   0.134
66538W        W38067  13.309  18.516  13.373
66539W        W38068   5.290  43.577   1.663
66540W        W38069  13.872  30.936   2.851
66541W        W38070  22.235   5.399  14.557
66542W        W38071  16.662  41.874   3.124
66543W        W38072  12.040   2.411   2.320
66544W        W38073   3.511  39.282  11.520
66545W        W38074  37.512  21.532  14.532
66546W        W38075  13.089  30.490   3.930
66547W        W38076   5.329  11.206   1.948
66548W        W38077  11.713  28.166  14.764
66549W        W38078  22.982  14.176  12.526
66550W        W38079   2.430  28.296  10.739
66551W        W38080  33.149  20.726  11.010
66552W        W38081  18.749   7.420   1.673
66553W        W38082   9.681  21.784  14.214
66554W        W38083  11.068  28.039  12.219
66555W        W38084  20.472   0.646   2.761
66556W        W38085  31.642  14.283   2.995
66557W        W38086  21.899  32.267  10.967
66558W        W38087  27.543  24.725  13.832
66559W        W38088  28.228  22.215  13.665
66560W        W38089  23.490   4.681  13.325
66561W        W38090  40.058  31.454   2.813
66562W        W38091   0.400  15.362   0.314
66563W        W38092  11.946   3.726   2.582
66564W        W38093  13.257   1.028   4.956
66565W        W38094  40.820  24.968   2.826
66566W        W38095  31.602  25.419   2.244
66567W        W38096  44.698  27.641  10.974
66568W        W38097  31.598   9.825   1.278
66569W        W38098  28.641  13.930  13.195
66570W        W38099  14.950  27.813  13.165
66571W        W38100  39.379  27.726  12.449
66572W        W38101   6.162   3.875   1.511
66573W        W38102  11.260  11.259  12.559
66574W        W38103  27.091  13.232  14.336
66575W        W38104   5.237   1.805   0.824
66576W        W38105  34.264  15.434   0.769
66577W        W38106  27.596  27.935   2.760
66578W        W38107  23.499  39.112   2.344
66579W        W38108  35.480  28.884  11.563
66580W        W38109   2.493  29.615  11.082
66581W        W38110  35.082   4.530  11.460
66582W        W38111   5.076  24.454  11.663
66583W        W38112   5.729  22.735  11.528
66584W        W38113  37.944   4.825   3.169
66585W        W38114  30.637   8.688   1.677
66586W        W38115  11.146   7.302  10.720
66587W        W38116   5.911  11.703  10.631
66588W        W38117  25.209  19.763  13.368
66589W        W38118   7.699  35.415  11.187
66590W        W38119  25.184  13.438   3.700
66591W        W38120   8.745   7.838   5.078
66592W        W38121  13.642  23.580   0.560
66593W        W38122  37.366  37.455  11.507
66594W        W38123  31.049   0.790  13.852
66595W        W38124  16.813  39.590  11.546
66596W        W38125  43.917  16.712   1.423
66597W        W38126  36.705  24.234   2.295
66598W        W38127  20.112  25.249   2.757
66599W        W38128  29.938  21.244   0.311
66600W        W38129  38.058  12.809   4.083
66601W        W38130  32.068  28.570   5.100
66602W        W38131  30.055  12.082  12.845
66603W        W38132  17.127  42.973  10.305
66604W        W38133   7.949  34.014  11.215
66605W        W38134  24.155  29.198   2.232
66606W        W38135  17.672  10.367   4.979
66607W        W38136  38.351  22.598  10.514
66608W        W38137  42.766  31.970   4.797
66609W        W38138  18.231  36.346   1.296
66610W        W38139  15.251  21.092   3.207
66611W        W38140  22.500  30.681  14.504
66612W        W38141   5.895  22.412  11.915
66613W        W38142  24.781  31.846  10.873
66614W        W38143  38.762   4.815   3.209
66615W        W38144  26.519  10.429   2.393
66616W        W38145  27.923  38.677  12.572
66617W        W38146  40.899  32.784  10.663
66618W        W38147  42.450  28.757   3.635
66619W        W38148  33.349  33.532  10.541
66620W        W38149   4.609  15.856  11.988
66621W        W38150  43.187  22.260  13.040
66622W        W38151  42.413  43.909   3.870
66623W        W38152  13.748  36.222   2.252
66624W        W38153  30.513  23.688  10.790
66625W        W38154  33.411  11.661  13.434
66626W        W38155  20.587  26.943   0.809
66627W        W38156  29.864  35.360   0.042
66628W        W38157  23.264   5.387  14.004
66629W        W38158   4.506   0.398   4.537
66630W        W38159  24.018  11.763   4.222
66631W        W38160  28.539  42.934  14.126
66632W        W38161  42.328   4.921  14.542
66633W        W38162  14.805  25.092   0.393
66634W        W38163   8.085  36.145   2.875
66635W        W38164   6.882  43.974  11.205
66636W        W38165   2.419  20.864  12.890
66637W        W38166  18.776  18.861   1.828
66638W        W38167  31.240  10.676  14.463
66639W        W38168  13.704   4.731   1.232
66640W        W38169   0.459  42.710   4.045
66641W        W38170  44.176  32.859  12.979
66642W        W38171  41.148  19.954   0.197
66643W        W38172  36.963  27.545   3.935
66644W        W38173  41.964  27.125   2.375
66645W        W38174  14.231  17.901  14.775
66646W        W38175  11.738   2.806   4.588
66647W        W38176   6.784  38.797  10.706
66648W        W38177   7.360   8.859   1.554
66649W        W38178  23.137  27.016   4.990
66650W        W38179   4.956  39.524  14.277
66651W        W38180  34.402  13.244  13.161
66652W        W38181  40.020   8.920   2.267
66653W        W38182  32.015   2.283  12.383
66654W        W38183   2.948  14.274   0.202
66655W        W38184  11.126  25.211   1.922
66656W        W38185  33.872  15.690  12.663
66657W        W38186  30.401   9.843  13.978
66658W        W38187  20.742  16.348  13.674
66659W        W38188  23.273  44.349   2.283
66660W        W38189  29.865  26.500  11.942
66661W        W38190  27.575  34.682  12.922
66662W        W38191  19.508  40.621  12.991
66663W        W38192  23.459  40.587  12.073
66664W        W38193   5.341  35.801   4.622
66665W        W38194  23.078  39.032  11.193
66666W        W38195   0.184  43.237  12.561
66667W        W38196  30.330  42.743  12.099
66668W        W38197  18.520  29.632   2.173
66669W        W38198  43.093  42.489  11.998
66670W        W38199   6.429  25.952  14.911
66671W        W38200  31.868  18.782   3.667
66672W        W38201   1.736  10.418   1.150
66673W        W38202  14.079   1.406  14.788
66674W        W38203  26.418  39.525  10.464
66675W        W38204   3.623  10.163   1.275
66676W        W38205   7.563   0.467   1.204
66677W        W38206  14.071  34.899   0.984
66678W        W38207  38.829  19.626   2.182
66679W        W38208  41.098  15.900   2.294
66680W        W38209  44.975  27.187  10.983
66681W        W38210  38.125  38.593  13.967
66682W        W38211  38.852   7.677  14.381
66683W        W38212  11.298  23.723   3.247
66684W        W38213  44.367  43.475   0.326
66685W        W38214  10.639   3.017   1.722
66686W        W38215  15.960   4.441  10.895
66687W        W38216  26.349  12.841   2.813
66688W        W38217  25.694  43.380   1.298
66689W        W38218  43.215  29.063   4.128
66690W        W38219  26.640  16.786  14.524
66691W        W38220  35.002   0.238  13.509
66692W        W38221  10.818  36.696   1.100
66693W        W38222  28.035   3.898   5.033
66694W        W38223   7.894  41.057  13.523
66695W        W38224   2.242  41.522   0.714
66696W        W38225  33.007   3.515  10.560
66697W        W38226  16.664  30.645  13.854
66698W        W38227  40.111  41.599  13.092
66699W        W38228  38.704  13.532   0.518
66700W        W38229  33.214  19.701  14.233
66701W        W38230  37.514  11.001   0.522
66702W        W38231  42.783  36.870  12.882
66703W        W38232  23.007  44.576   3.749
66704W        W38233  26.850  31.703  12.897
66705W        W38234   5.218  19.522  13.271
66706W        W38235  35.905   9.341  13.066
66707W        W38236  20.768  38.509   3.308
66708W        W38237  21.051  39.958  12.320
66709W        W38238  42.975   5.410   0.881
66710W        W38239  14.329  30.901   1.298
66711W        W38240  25.035   8.379  12.111
66712W        W38241  13.797  14.618  14.953
66713W        W38242  31.088  16.653   0.301
66714W        W38243  25.096  23.827  11.110
66715W        W38244   9.326  23.683   4.541
66716W        W38245  44.954   5.187   2.470
66717W        W38246  18.291  15.141   4.898
66718W        W38247  18.286  23.202  12.544
66719W        W38248  36.374  33.966   4.170
66720W        W38249  25.210  44.589  11.447
66721W        W38250  30.976  14.342   0.595
66722W        W38251  35.565  40.782   4.583
66723W        W38252  31.348  35.973  14.032
66724W        W38253  19.723  23.102  10.602
66725W        W38254  41.530   6.329  12.287
66726W        W38255  29.868  24.138   1.202
66727W        W38256  26.253  39.706  13.326
66728W        W38257  28.200  23.299   4.534
66729W        W38258  17.105  11.108   3.815
66730W        W38259  26.472  24.208   1.645
66731W        W38260  20.570  44.864   2.731
66732W        W38261  22.216  22.069   3.239
66733W        W38262  14.854  29.221   0.853
66734W        W38263  36.320  38.812   0.012
66735W        W38264   1.490  26.081  11.434
66736W        W38265  39.296  21.673  11.500
66737W        W38266   6.224  12.710  10.775
66738W        W38267  24.489   8.069  11.367
66739W        W38268  18.725   9.260  10.488
66740W        W38269  17.614  33.062   0.195
66741W        W38270  11.401  32.058   0.892
66742W        W38271  31.946  16.653   3.641
66743W        W38272   2.344   4.041  14.384
66744W        W38273  42.364  35.939  14.455
66745W        W38274  29.558  24.504  14.438
66746W        W38275  11.333   9.343   4.151
66747W        W38276   3.718  28.700   3.692
66748W        W38277  10.594  11.765  10.206
66749W        W38278  12.292  43.588   3.314
66750W        W38279   8.649   2.938   0.003
66751W        W38280  29.288  21.805   1.954
66752W        W38281   9.656  26.665  13.560
66753W        W38282  26.989   6.477  13.914
66754W        W38283  35.374  16.232   4.302
66755W        W38284  27.236  12.321   1.621
66756W        W38285  37.891  40.871   0.304
66757W        W38286  19.223  37.847   1.263
66758W        W38287  14.045  25.549  10.742
66759W        W38288  13.832  20.780   3.773
66760W        W38289  44.195   4.427  11.054
66761W        W38290  20.022   3.252   1.749
66762W        W38291  10.819   3.804  12.153
66763W        W38292  20.123   8.904   0.503
66764W        W38293  30.986  19.042  12.852
66765W        W38294   4.615   4.940  11.575
66766W        W38295  28.402  19.817  14.517
66767W        W38296  19.318   2.193  11.521
66768W        W38297   7.356  12.733  10.745
66769W        W38298   6.706   3.310  11.435
66770W        W38299   7.333  17.512  12.975
66771W        W38300  22.512   0.972   0.479
66772W        W38301  33.797  35.313  11.253
66773W        W38302  10.837   6.304   1.816
66774W        W38303   4.726  10.634  13.179
66775W        W38304  39.870   5.622  11.981
66776W        W38305  40.566  34.406   2.284
66777W        W38306   7.449  35.854  12.999
66778W        W38307  31.531  19.629  12.089
66779W        W38308   3.795  41.511   4.397
66780W        W38309  36.757   3.542  11.187
66781W        W38310   1.418  25.116   1.452
66782W        W38311  25.191  13.862   4.552
66783W        W38312  13.792   6.324   3.643
66784W        W38313  16.504   2.584  14.242
66785W        W38314   9.671  40.253   0.754
66786W        W38315  37.543  26.964  13.252
66787W        W38316  10.331  20.928   5.209
66788W        W38317   4.373  30.917  13.603
66789W        W38318  40.259  27.105  14.423
66790W        W38319  12.085  28.667  13.394
66791W        W38320  13.711   0.758   3.260
66792W        W38321  31.692  42.232  12.868
66793W        W38322  18.213   2.669   1.284
66794W        W38323  39.553   8.825  13.628
66795W        W38324  29.116   9.250  12.475
66796W        W38325  15.576  24.530   3.362
66797W        W38326  29.630   2.995  11.673
66798W        W38327  28.549   6.402  12.277
66799W        W38328  24.999   8.732   4.777
66800W        W38329   2.319  11.652  13.534
66801W        W38330  36.543  30.270  13.363
66802W        W38331  35.522  36.465  10.363
66803W        W38332  26.168  31.181   2.075
66804W        W38333  40.458   1.976   1.726
66805W        W38334   7.836  43.884  10.849
66806W        W38335  20.733  41.861  11.410
66807W        W38336  41.448  29.128   0.400
66808W        W38337   0.482  10.491  11.029
66809W        W38338   8.107  42.041   0.898
66810W        W38339   7.116   3.241  14.521
66811W        W38340  24.720  34.804  13.877
66812W        W38341  18.323  30.107   2.908
66813W        W38342  30.335  25.228  13.961
66814W        W38343  30.376  24.631   2.645
66815W        W38344  31.382  11.850  13.354
66816W        W38345  37.484  19.911   1.399
66817W        W38346  32.482  29.520  14.733
66818W        W38347  13.672  32.788  11.084
66819W        W38348  28.685  31.358   3.287
66820W        W38349  28.033  33.670  13.550
66821W        W38350   7.769  28.616  12.519
66822W        W38351  21.008  40.394   0.880
66823W        W38352  24.504  40.248  13.726
66824W        W38353  18.267  41.675  14.005
66825W        W38354  13.630  12.244  13.066
66826W        W38355  41.666  16.789   2.299
66827W        W38356  34.798  37.537   5.205
66828W        W38357   9.187  25.095  12.849
66829W        W38358  23.204   1.895   4.782
66830W        W38359  34.117  26.561   1.520
66831W        W38360   9.995  20.745   4.160
66832W        W38361  39.883  37.362   1.444
66833W        W38362  43.478  13.123  11.744
66834W        W38363  24.064  29.517   4.126
66835W        W38364   3.713  29.324   0.347
66836W        W38365  14.138  15.034   0.483
66837W        W38366   9.241  44.415   1.961
66838W        W38367  33.026  32.454   3.751
66839W        W38368   0.361   5.868  14.499
66840W        W38369  36.062  11.734  13.933
66841W        W38370   2.032  36.505  14.426
66842W        W38371  30.465  17.580  13.957
66843W        W38372  30.060   2.339   4.509
66844W        W38373  17.543  23.117  12.111
66845W        W38374   1.003  38.360  11.217
66846W        W38375  18.870  40.785  14.400
66847W        W38376  13.759  11.097  14.793
66848W        W38377  43.891  37.370  10.621
66849W        W38378  25.276  12.797   4.506
66850W        W38379   1.810   6.230  14.435
66851W        W38380  39.985  26.414   2.475
66852W        W38381  31.186  14.850  11.735
66853W        W38382  27.629  35.631   2.885
66854W        W38383   8.695  26.540   3.749
66855W        W38384  25.647   5.198   2.417
66856W        W38385  21.705  17.218  14.393
66857W        W38386  14.556  19.112  11.101
66858W        W38387  39.038  30.426   2.709
66859W        W38388  17.558  17.112  13.308
66860W        W38389  25.060   4.242  13.551
66861W        W38390  38.779   2.912   0.321
66862W        W38391  40.060  24.582  14.848
66863W        W38392  29.983  35.008  11.788
66864W        W38393  31.784  43.658   2.819
66865W        W38394  16.633  11.762  14.862
66866W        W38395  23.679  39.679  10.693
66867W        W38396   1.424  33.509  13.046
66868W        W38397  35.463  32.046  14.337
66869W        W38398  30.498  13.002  12.119
66870W        W38399  41.752  35.835  14.925
66871W        W38400  31.929  17.556  11.116
66872W        W38401  21.730  27.660   0.309
66873W        W38402  26.977  25.122   0.758
66874W        W38403  39.995  16.687   3.639
66875W        W38404  29.149   6.723   4.339
66876W        W38405  31.469  16.333  12.257
66877W        W38406   4.728  10.626   0.308
66878W        W38407  33.298  43.659   2.339
66879W        W38408   8.763  17.998   4.605
66880W        W38409  10.227  39.385  13.796
66881W        W38410  22.217  37.359  14.389
66882W        W38411  10.378   9.590   2.718
66883W        W38412  21.595  14.752  14.855
66884W        W38413  23.840  19.720   4.562
66885W        W38414   0.387  31.912   0.931
66886W        W38415  10.136  22.908  11.708
66887W        W38416  27.923  41.205   0.252
66888W        W38417   6.850  30.059  11.938
66889W        W38418  33.991  42.831   0.202
66890W        W38419  35.626  24.212  13.789
66891W        W38420  36.318  28.416  11.640
66892W        W38421   6.131   6.952  10.771
66893W        W38422  14.531  40.523  11.690
66894W        W38423  26.557  16.269   3.083
66895W        W38424  21.656  38.011   0.950
66896W        W38425  18.180  16.948   4.540
66897W        W38426   6.440  19.930   5.235
66898W        W38427  18.247  14.613  14.453
66899W        W38428  43.926  43.751   4.319
66900W        W38429   2.208  33.770   1.403
66901W        W38430  19.075  41.440   4.482
66902W        W38431  29.944  42.885   1.521
66903W        W38432  23.912  12.192  13.987
66904W        W38433  13.547  38.310   0.315
66905W        W38434   6.839  31.898   1.604
66906W        W38435  28.519  32.084  10.291
66907W        W38436   2.506  15.218  14.855
66908W        W38437  25.430  43.809   4.151
66909W        W38438  31.725  12.209  14.448
66910W        W38439  22.949   5.915  13.784
66911W        W38440  39.870  15.287  14.899
66912W        W38441   7.829  15.690   4.569
66913W        W38442   2.296  24.526  11.916
66914W        W38443  16.102  13.868  13.393
66915W        W38444   6.527  29.186  10.025
66916W        W38445  41.029  39.490  14.845
66917W        W38446  12.222   4.410   2.094
66918W        W38447  14.215   1.463  11.361
66919W        W38448  32.413  25.686  11.253
66920W        W38449   3.918  39.473   1.811
66921W        W38450  10.594  27.532  10.448
66922W        W38451  10.654  22.532  14.738
66923W        W38452  16.162  42.125   1.849
66924W        W38453   6.671  44.868  12.734
66925W        W38454  12.199  42.892  10.738
66926W        W38455  17.945   4.308   4.313
66927W        W38456  18.532   6.678   1.863
66928W        W38457   8.823   6.853   1.372
66929W        W38458   3.290  17.775   4.584
66930W        W38459  37.528   3.465   0.898
66931W        W38460  17.221   8.948  13.673
66932W        W38461   3.118   1.038   3.872
66933W        W38462  23.773  11.640   2.932
66934W        W38463  43.497  35.870   1.610
66935W        W38464   4.813  29.826   3.664
66936W        W38465  31.605  24.076   0.228
66937W        W38466  19.046   7.361   2.140
66938W        W38467  35.509   4.542   0.701
66939W        W38468  13.485   1.186   4.541
66940W        W38469  43.777  13.832  12.416
66941W        W38470  10.948  34.047  13.533
66942W        W38471   7.727  23.749  11.049
66943W        W38472  16.470   6.836   1.324
66944W        W38473   1.665  43.523  11.632
66945W        W38474  30.261  23.526  11.281
66946W        W38475  20.805  39.042  12.457
66947W        W38476  42.034   6.667  13.825
66948W        W38477  10.953  17.043   1.622
66949W        W38478  27.946   6.837   1.319
66950W        W38479  34.506  42.688   0.293
66951W        W38480  18.265  25.209   2.299
66952W        W38481  41.754   0.787  11.205
66953W        W38482  28.116   6.233   1.633
66954W        W38483   7.776  19.558  14.506
66955W        W38484   2.948  36.991   0.334
66956W        W38485  37.697  41.031   3.289
66957W        W38486  32.914  22.689   4.268
66958W        W38487  35.367  24.734  13.636
66959W        W38488  35.373  40.028   4.113
66960W        W38489  28.504  39.972   2.889
66961W        W38490  39.189  20.697  10.681
66962W        W38491  43.203  21.733   1.345
66963W        W38492  26.135  31.703   0.349
66964W        W38493  24.413   4.140   0.222
66965W        W38494  21.316  34.573  12.580
66966W        W38495  10.320  14.759   2.805
66967W        W38496  16.754  39.656  14.270
66968W        W38497   2.419  43.292   4.423
66969W        W38498  38.220  39.019   1.417
66970W        W38499  26.986  22.243  11.212
66971W        W38500   1.308  27.018  11.388
66972W        W38501  37.101  22.958   2.721
66973W        W38502  15.769  34.884   1.870
66974W        W38503   8.923   4.363   1.263
66975W        W38504  15.157  20.253   2.739
66976W        W38505  41.698  19.517  11.708
66977W        W38506  30.900  21.280  11.085
66978W        W38507  37.551  44.938   1.385
66979W        W38508   2.819  20.225  11.146
66980W        W38509  28.516  44.517  13.626
66981W        W38510  32.910  21.259  12.611
66982W        W38511  29.681   5.292  13.430
66983W        W38512  25.565  31.607  13.399
66984W        W38513   7.163   2.409   3.668
66985W        W38514  25.672  29.353   1.307
66986W        W38515  26.446   2.883  11.708
66987W        W38516   3.394  22.639  11.931
66988W        W38517  15.142  38.516  14.550
66989W        W38518  14.164  34.040  12.608
66990W        W38519  33.654   2.259   2.065
66991W        W38520  14.780  35.075   3.485
66992W        W38521   5.303  14.718   0.234
66993W        W38522  20.658   2.275   2.492
66994W        W38523  20.492  16.105   4.892
66995W        W38524  38.193  28.045   1.442
66996W        W38525  37.744  35.054   3.349
66997W        W38526  26.940  44.268  14.342
66998W        W38527  27.534   0.606  13.896
66999W        W38528  14.712  35.935  11.270
67000W        W38529   9.329  36.359   0.838
67001W        W38530  30.460  31.930   2.682
67002W        W38531  18.025  28.249   0.558
67003W        W38532  30.386  22.951  12.114
67004W        W38533   2.293  24.419  13.776
67005W        W38534   6.069  20.082   0.817
67006W        W38535  43.402  17.523   4.747
67007W        W38536  23.157  22.508   3.791
67008W        W38537   6.166   8.981  11.656
67009W        W38538  31.326  41.448  12.441
67010W        W38539   6.285  33.419   9.772
67011W        W38540   7.781  25.665  14.318
67012W        W38541  20.142  38.292   1.251
67013W        W38542  14.410  19.379   4.903
67014W        W38543   4.516  26.115  12.639
67015W        W38544  19.161  32.081  13.167
67016W        W38545  42.122  13.774  11.921
67017W        W38546   4.941  24.644   2.672
67018W        W38547  34.616   6.363  10.528
67019W        W38548  42.014  16.797   0.349
67020W        W38549  21.057  35.443  12.168
67021W        W38550  23.747  10.395  12.620
67022W        W38551  20.174   9.291  12.287
67023W        W38552  13.011   0.785   0.685
67024W        W38553  25.112  14.207   2.424
67025W        W38554   3.402  25.591   4.581
67026W        W38555  12.848   4.934  12.954
67027W        W38556  32.194  24.547   4.773
67028W        W38557   6.807  39.878  13.828
67029W        W38558  44.500  22.561  12.667
67030W        W38559   8.875  22.453  12.448
67031W        W38560   0.171  35.622  14.775
67032W        W38561  25.152  41.345   0.383
67033W        W38562   4.811  32.614   1.521
67034W        W38563  18.516   1.793   4.208
67035W        W38564  22.641  10.681   1.210
67036W        W38565  25.683  20.474   3.935
67037W        W38566   4.277  41.250   2.385
67038W        W38567  36.863  28.583  13.970
67039W        W38568  15.668  37.956  11.307
67040W        W38569  17.978  10.210   1.971
67041W        W38570  41.470  12.039   4.218
67042W        W38571  17.766  23.574   1.613
67043W        W38572  18.670  13.189   4.609
67044W        W38573  30.912   6.661   3.632
67045W        W38574  41.286  33.444  13.413
67046W        W38575   1.870  12.424  14.754
67047W        W38576   6.866   3.611  11.050
67048W        W38577  39.673  17.314  14.058
67049W        W38578  30.108  16.568  13.627
67050W        W38579  34.834   0.476  13.935
67051W        W38580   9.083  43.171   4.088
67052W        W38581  27.391  40.884   1.681
67053W        W38582  10.292  21.605   2.118
67054W        W38583  25.937  37.342   4.581
67055W        W38584  37.983  40.885   4.494
67056W        W38585  43.490   6.838   4.062
67057W        W38586   9.921  25.657  12.060
67058W        W38587  17.008  10.277  10.813
67059W        W38588   8.991   6.408  12.368
67060W        W38589  19.649  16.650   4.015
67061W        W38590  27.937  33.953  14.825
67062W        W38591  18.638   1.556  13.396
67063W        W38592  41.408  34.939   0.727
67064W        W38593  27.583  38.066   3.263
67065W        W38594   6.857  24.489   3.972
67066W        W38595  41.761  17.099   3.007
67067W        W38596   5.196  30.565   4.052
67068W        W38597  27.407   6.343   0.010
67069W        W38598  38.301  31.130   3.751
67070W        W38599  27.958  19.631   0.921
67071W        W38600  32.079  42.163   1.238
67072W        W38601  18.829  41.599  14.798
67073W        W38602  39.375  18.091   4.539
67074W        W38603  23.972  16.119   0.910
67075W        W38604  44.915  14.090   1.689
67076W        W38605  25.495   6.355  11.420
67077W        W38606  32.279  31.692  10.827
67078W        W38607  41.726  16.242   1.205
67079W        W38608  20.745  11.193   3.673
67080W        W38609   2.959   6.614  12.808
67081W        W38610   9.461  19.811   2.368
67082W        W38611  27.229  21.093   0.922
67083W        W38612  43.536  33.405   3.743
67084W        W38613  11.077   2.762  10.631
67085W        W38614  17.468  27.464   4.422
67086W        W38615  23.318  16.311  14.891
67087W        W38616  15.960  19.556  10.261
67088W        W38617   6.642  32.538  10.719
67089W        W38618  41.955  33.827  11.096
67090W        W38619  30.003  19.022   1.250
67091W        W38620   4.224  14.129  14.941
67092W        W38621  31.610   7.368   2.093
67093W        W38622  33.680  32.432   5.083
67094W        W38623  39.910   3.369   1.955
67095W        W38624  10.311   1.981   2.964
67096W        W38625   1.028  41.687   3.742
67097W        W38626  44.292  42.481   1.270
67098W        W38627  39.394   7.450   3.668
67099W        W38628   6.166   1.316   3.630
67100W        W38629   7.795  22.522   4.869
67101W        W38630  14.118   8.704  11.897
67102W        W38631  39.772  32.172   3.424
67103W        W38632  12.771  39.005   4.485
67104W        W38633  24.192  17.332   0.390
67105W        W38634  12.168  34.902   0.531
67106W        W38635   4.113  16.520   1.022
67107W        W38636   7.421  39.434  14.573
67108W        W38637  36.863  35.979   1.696
67109W        W38638   7.822   3.952  11.221
67110W        W38639   6.438  12.687  12.530
67111W        W38640  17.689  21.812   3.967
67112W        W38641  44.035  32.077  12.465
67113W        W38642  39.892  22.685   1.243
67114W        W38643  28.526  20.797   1.259
67115W        W38644  42.694  21.055   4.468
67116W        W38645   8.724  16.915  12.361
67117W        W38646   8.283  14.305  14.791
67118W        W38647  16.040  22.609  12.036
67119W        W38648   1.730   6.996  10.898
67120W        W38649  37.942  38.521  13.143
67121W        W38650  16.167  10.758  10.120
67122W        W38651  43.782  33.952  12.232
67123W        W38652   1.285  30.424   2.786
67124W        W38653  34.200  21.136  11.592
67125W        W38654  14.145  17.975  13.442
67126W        W38655   4.001  38.549  14.969
67127W        W38656   7.000  41.069  11.035
67128W        W38657  21.207  39.490  11.091
67129W        W38658  34.073   2.219  14.942
67130W        W38659  11.307   8.317  10.941
67131W        W38660  40.721  27.001  13.665
67132W        W38661  11.194  22.263  11.284
67133W        W38662  34.938   7.317  10.668
67134W        W38663  18.929  19.090  10.697
67135W        W38664  23.136  19.840   2.445
67136W        W38665   2.901  31.645  10.697
67137W        W38666  15.300  25.483  12.410
67138W        W38667   1.274   9.761  12.057
67139W        W38668  33.087  11.981  10.953
67140W        W38669   6.187  42.838  11.164
67141W        W38670   7.377   5.820  12.164
67142W        W38671  27.126  25.865  12.976
67143W        W38672  30.388  12.808   1.824
67144W        W38673  34.860  32.677  14.472
67145W        W38674  19.890  41.167   1.840
67146W        W38675  18.845   5.428  13.950
67147W        W38676  28.130  40.470  11.992
67148W        W38677   8.151  42.630   2.303
67149W        W38678  14.749  14.266  11.974
67150W        W38679   5.781   9.227  12.345
67151W        W38680  33.561  22.999  12.005
67152W        W38681  24.480  39.504   1.927
67153W        W38682  24.174  35.294   4.963
67154W        W38683  22.477  36.820   4.673
67155W        W38684   5.716   1.527   0.846
67156W        W38685  43.820   2.377   3.690
67157W        W38686  28.052  20.574   1.356
67158W        W38687  33.826  10.313  12.869
67159W        W38688  25.636   3.297   0.257
67160W        W38689  29.072  33.148  13.974
67161W        W38690  31.420  36.427   2.119
67162W        W38691   8.410  42.604  12.589
67163W        W38692  24.016  15.821   0.215
67164W        W38693  22.026  39.635   0.232
67165W        W38694  15.413  30.075   3.362
67166W        W38695   9.784   0.455  11.620
67167W        W38696  27.993  32.629   1.367
67168W        W38697  28.654   6.423   3.316
67169W        W38698   1.274  42.925   0.674
67170W        W38699   2.966  28.593   2.282
67171W        W38700  30.354  43.626  12.036
67172W        W38701  35.726  23.221   4.912
67173W        W38702   0.256  15.657  13.456
67174W        W38703  24.117  37.296   0.266
67175W        W38704   7.873   4.073  11.709
67176W        W38705  13.652  35.115   3.529
67177W        W38706   1.751   9.176   2.065
67178W        W38707  37.522  11.018   4.223
67179W        W38708  30.486  44.145  10.136
67180W        W38709  35.273  25.004  12.113
67181W        W38710  18.145   5.870   1.934
67182W        W38711  14.625  18.479   4.646
67183W        W38712  22.301  29.009  12.549
67184W        W38713  35.501  14.608  13.433
67185W        W38714  25.181  24.915   4.722
67186W        W38715  15.208  20.558   3.184
67187W        W38716  12.426  33.017   4.611
67188W        W38717  14.638  22.281   5.021
67189W        W38718  26.742  22.670   0.081
67190W        W38719  40.428  13.646   3.505
67191W        W38720   0.315  24.221   0.336
67192W        W38721  37.159  10.120  13.317
67193W        W38722   6.429  33.570   1.253
67194W        W38723  20.757  30.436   2.451
67195W        W38724  10.895  43.263   5.636
67196W        W38725  40.567  29.966   3.850
67197W        W38726   0.639  27.564  12.264
67198W        W38727  35.434   9.195  14.324
67199W        W38728   5.348  16.159  11.277
67200W        W38729   5.141  34.084   4.258
67201W        W38730  19.965  44.775  12.041
67202W        W38731  38.638   4.907  14.835
67203W        W38732  17.585  15.115  13.465
67204W        W38733  11.460   4.267  13.417
67205W        W38734  13.450   1.730   3.763
67206W        W38735   2.777  21.228  12.975
67207W        W38736  40.276  22.247  13.126
67208W        W38737  38.494  31.243  14.513
67209W        W38738  28.033  20.825   3.128
67210W        W38739  38.546  28.140  14.033
67211W        W38740  39.670  40.008   3.693
67212W        W38741   7.896   1.484   4.160
67213W        W38742  14.688  33.342  10.957
67214W        W38743  43.204   6.460   3.666
67215W        W38744   4.265  40.658  11.236
67216W        W38745  25.968  35.988   1.495
67217W        W38746  43.731  28.714   0.675
67218W        W38747  33.754  37.510  10.683
67219W        W38748  42.857   0.246   2.866
67220W        W38749  34.859   8.472   5.082
67221W        W38750  34.165   0.389   0.787
67222W        W38751  21.272  33.655  12.099
67223W        W38752   7.123  15.635  10.996
67224W        W38753   4.895  38.545  12.866
67225W        W38754  41.285  30.568  10.938
67226W        W38755  29.939  20.964   3.174
67227W        W38756   0.927  38.940  10.551
67228W        W38757  28.669  12.911  13.614
67229W        W38758  12.824  12.041  13.908
67230W        W38759   1.541  21.745   0.048
67231W        W38760  24.590  25.651  12.670
67232W        W38761   9.158  25.319  11.973
67233W        W38762  41.794  31.981   1.193
67234W        W38763  11.453  21.553   0.913
67235W        W38764  37.024  39.609   2.810
67236W        W38765  19.982  33.370  12.417
67237W        W38766  34.784  33.659  10.675
67238W        W38767  41.815  14.298   2.261
67239W        W38768  16.867  28.070  11.381
67240W        W38769  22.294  22.094   0.479
67241W        W38770  20.829   7.283   2.412
67242W        W38771  12.790  11.658   0.693
67243W        W38772  44.027  19.190   2.243
67244W        W38773  17.247  28.686  11.641
67245W        W38774  38.025  41.379   3.117
67246W        W38775   8.215  33.184   1.460
67247W        W38776   7.461  42.488   3.668
67248W        W38777  15.622  20.221   1.237
67249W        W38778  43.503  28.055  14.266
67250W        W38779  40.340  32.579   4.353
67251W        W38780  24.030  20.941  10.726
67252W        W38781  24.108   9.086  13.628
67253W        W38782  13.852  43.456  13.373
67254W        W38783  22.855   4.672   0.454
67255W        W38784  15.929  11.925   9.495
67256W        W38785  20.602   9.782  14.294
67257W        W38786  35.351  26.276   1.182
67258W        W38787  26.142  27.486  14.993
67259W        W38788   4.191  17.860   1.159
67260W        W38789  36.888   3.491  13.513
67261W        W38790  41.980  41.336   2.310
67262W        W38791   1.979   6.228   4.502
67263W        W38792  37.536  43.695  13.658
67264W        W38793  29.582  31.875  11.095
67265W        W38794  28.017  42.041   4.873
67266W        W38795  18.197  18.188  13.744
67267W        W38796   2.637  12.427  11.130
67268W        W38797  26.002  41.555  10.668
67269W        W38798  21.681  28.534   2.696
67270W        W38799  16.762  32.076  13.496
67271W        W38800  12.955  31.472  11.837
67272W        W38801   3.542   5.036  13.503
67273W        W38802  33.398  17.709  12.969
67274W        W38803   7.062   0.559   1.342
67275W        W38804  24.134  40.954  11.009
67276W        W38805  33.492  41.922   2.919
67277W        W38806   9.346  19.421  11.939
67278W        W38807  31.158   9.189  10.618
67279W        W38808   0.523  14.659  13.995
67280W        W38809  22.000  15.094   4.583
67281W        W38810   6.063  20.171   3.106
67282W        W38811  34.230   5.757   3.164
67283W        W38812  37.580  43.386   0.021
67284W        W38813   4.708  42.465   4.475
67285W        W38814  27.618  28.980   0.378
67286W        W38815  16.169  35.620  11.152
67287W        W38816  30.877  27.191  13.098
67288W        W38817  29.108  40.531   3.346
67289W        W38818  31.902   6.041   4.930
67290W        W38819  41.834   8.147  11.915
67291W        W38820  23.053  20.026  10.781
67292W        W38821  13.933   4.310  14.882
67293W        W38822  36.770  10.441  13.453
67294W        W38823   0.009  13.204   0.021
67295W        W38824  33.366  34.457  11.152
67296W        W38825  28.112  39.208  11.560
67297W        W38826  22.051   1.836   3.932
67298W        W38827  13.711   2.349   1.363
67299W        W38828  26.019  37.541   1.300
67300W        W38829   4.145  10.893  10.951
67301W        W38830   7.271  15.961   1.817
67302W        W38831   7.131  36.355   4.209
67303W        W38832  40.849  43.495  12.847
67304W        W38833  31.545  27.138  13.876
67305W        W38834  23.974  24.014  13.983
67306W        W38835  26.099  22.896  13.876
67307W        W38836   8.628  43.448   4.865
67308W        W38837  21.556   8.312  10.646
67309W        W38838  43.493  21.175   2.657
67310W        W38839  41.089  25.068   4.512
67311W        W38840  27.038  42.234  12.605
67312W        W38841  15.837  10.352  10.200
67313W        W38842   8.776   1.405   4.574
67314W        W38843  39.310  22.266   0.792
67315W        W38844  44.578  30.427  11.524
67316W        W38845  23.676  12.438   0.249
67317W        W38846  21.519  29.105   0.258
67318W        W38847  11.156  15.702   3.230
67319W        W38848  39.344  31.084  13.131
67320W        W38849  10.648  36.201   1.217
67321W        W38850  10.316   7.729   3.925
67322W        W38851  11.217  25.897  14.841
67323W        W38852  20.337  40.101  11.208
67324W        W38853  27.523   0.919  12.814
67325W        W38854  30.647  33.164  11.186
67326W        W38855  37.341  22.641   0.779
67327W        W38856   9.678  30.150  11.894
67328W        W38857   2.372  14.710  12.250
67329W        W38858  40.929  34.878   2.755
67330W        W38859  19.802  38.156  12.831
67331W        W38860   7.906  23.551  11.480
67332W        W38861  10.058  32.745  11.249
67333W        W38862  21.431  10.871   1.798
67334W        W38863  30.314  22.000  11.215
67335W        W38864  27.150  27.242   2.216
67336W        W38865   2.328  37.014  13.240
67337W        W38866  33.061  29.113   4.414
67338W        W38867  36.053   1.886   3.112
67339W        W38868   7.470  40.842   0.688
67340W        W38869  31.662   7.496  10.495
67341W        W38870  30.502  14.719   1.437
67342W        W38871  37.980  37.351   2.781
67343W        W38872  17.626  15.027  14.882
67344W        W38873  31.640  18.150   1.256
67345W        W38874  20.672   3.827   4.169
67346W        W38875  37.740  26.520  14.556
67347W        W38876  19.269  22.289  11.060
67348W        W38877  14.699  21.717   0.835
67349W        W38878  39.473  29.942   1.676
67350W        W38879   4.154   0.689   2.341
67351W        W38880  35.454   3.683  11.394
67352W        W38881  40.868  19.985   4.595
67353W        W38882  32.759  27.186   4.187
67354W        W38883  38.909   7.395  10.338
67355W        W38884  22.583  23.817   4.509
67356W        W38885  36.454  25.740  11.788
67357W        W38886   3.379  21.378  10.471
67358W        W38887  33.155  22.742  13.903
67359W        W38888  12.215  41.728   4.861
67360W        W38889  21.053  25.262  12.873
67361W        W38890  11.747  43.762  14.395
67362W        W38891  15.962  23.120   3.260
67363W        W38892   9.792  10.954  12.359
67364W        W38893  40.817  28.685   4.640
67365W        W38894  19.330  14.890  14.469
67366W        W38895  32.639  19.596  14.364
67367W        W38896   4.371  15.796  13.976
67368W        W38897  16.755  36.327   3.161
67369W        W38898  36.395  38.310  14.765
67370W        W38899   8.549  11.696  13.291
67371W        W38900  11.553  37.868  14.508
67372W        W38901  31.502  29.542   1.740
67373W        W38902   1.278  44.285   0.397
67374W        W38903  19.283  12.046  14.063
67375W        W38904  28.070  24.676   4.160
67376W        W38905   2.176  37.895  13.541
67377W        W38906   9.968  31.106   1.469
67378W        W38907  28.632  18.313   0.812
67379W        W38908  29.075  30.543  12.951
67380W        W38909  23.603   4.879  12.431
67381W        W38910  20.944  36.853   1.303
67382W        W38911  19.133  22.999   2.172
67383W        W38912  16.175  35.654   3.887
67384W        W38913  31.133  43.385  11.691
67385W        W38914  19.473  37.802   2.173
67386W        W38915  31.908  37.998   2.645
67387W        W38916  39.329  20.581  12.989
67388W        W38917  12.367  26.274  11.074
67389W        W38918   3.265  28.454   3.653
67390W        W38919  10.204  40.737   0.034
67391W        W38920  32.287   5.400  10.757
67392W        W38921  31.645  15.236  14.842
67393W        W38922  27.252  31.642  11.935
67394W        W38923  39.029   1.026   5.307
67395W        W38924   7.617  25.255   2.209
67396W        W38925  38.500   1.599   0.232
67397W        W38926  39.914  10.371  11.418
67398W        W38927  19.128   1.036   4.110
67399W        W38928  35.296  22.212   4.089
67400W        W38929   1.415   2.189   4.218
67401W        W38930   7.773  34.999   3.551
67402W        W38931  11.093  19.483  12.471
67403W        W38932  27.023  22.044  11.662
67404W        W38933  28.651  12.631  14.941
67405W        W38934  39.855   5.420   0.138
67406W        W38935   1.897  35.480   3.843
67407W        W38936  10.606  38.985  10.246
67408W        W38937  13.385  10.196  14.366
67409W        W38938  13.246  14.539   1.283
67410W        W38939  12.776  23.587  14.345
67411W        W38940  40.821  13.189   2.222
67412W        W38941  23.464  28.975   0.931
67413W        W38942   0.404  38.051   0.468
67414W        W38943  37.390  14.050  10.733
67415W        W38944  35.878  29.822   5.067
67416W        W38945  20.147   8.737  14.919
67417W        W38946   8.902  29.704  12.439
67418W        W38947  12.695  34.405   1.711
67419W        W38948  43.419  37.789   1.930
67420W        W38949   4.096  17.036  10.283
67421W        W38950  31.359  31.229  14.878
67422W        W38951   2.854  22.152  13.391
67423W        W38952  36.142  42.222  12.544
67424W        W38953  36.514  18.183  13.518
67425W        W38954   3.435  20.068  12.499
67426W        W38955  42.650  41.585  11.946
67427W        W38956  24.688  10.949  14.427
67428W        W38957  31.069  36.960   4.156
67429W        W38958  17.282  35.627   0.014
67430W        W38959  20.174  28.932   4.132
67431W        W38960  32.021   1.325   4.623
67432W        W38961  32.569  21.045   0.681
67433W        W38962  29.991  37.280   2.707
67434W        W38963   1.929  33.440  13.317
67435W        W38964  18.069  13.852   4.569
67436W        W38965  17.959  30.452   3.011
67437W        W38966  36.941   7.211  11.865
67438W        W38967  27.543  17.683   4.299
67439W        W38968  19.585  28.051   1.492
67440W        W38969  26.143  15.272  14.943
67441W        W38970  41.938  16.008   0.691
67442W        W38971  20.154   4.754   1.729
67443W        W38972  11.822  12.676  13.036
67444W        W38973   9.610   8.174  11.238
67445W        W38974  20.232  13.513  11.229
67446W        W38975  29.066  43.474  12.782
67447W        W38976  25.227  15.288  14.827
67448W        W38977  37.650  15.575   2.784
67449W        W38978  27.743   9.599  12.001
67450W        W38979  30.302   8.863   0.721
67451W        W38980  14.063   0.265   4.681
67452W        W38981  11.900  32.636  10.699
67453W        W38982  16.572  32.492  10.951
67454W        W38983  32.734   9.654  12.536
67455W        W38984  31.660   5.955  12.988
67456W        W38985   0.405   8.617   0.499
67457W        W38986  23.518  28.098  14.367
67458W        W38987  44.692  27.508   1.224
67459W        W38988  10.173   1.417   2.225
67460W        W38989  24.942  39.275   1.344
67461W        W38990  32.758  13.157  14.897
67462W        W38991  10.723  11.664  11.942
67463W        W38992  43.229  44.968  13.507
67464W        W38993   1.559  30.933  12.829
67465W        W38994  25.260  12.642  13.452
67466W        W38995   6.222  15.179   0.679
67467W        W38996  39.238  38.318  14.412
67468W        W38997  28.986  41.212  13.934
67469W        W38998  37.361  27.178   3.748
67470W        W38999   3.418  12.928  11.820
67471W        W39000  25.874  11.622  10.846
67472W        W39001  17.246  22.428  12.428
67473W        W39002  21.936   7.936  13.482
67474W        W39003   6.276  19.658   3.287
67475W        W39004  25.928  10.172  10.267
67476W        W39005  33.507   3.211   0.194
67477W        W39006  38.486  35.575  14.956
67478W        W39007  19.110  10.816   0.374
67479W        W39008  27.215  31.424   3.438
67480W        W39009   7.341  28.872   3.949
67481W        W39010  16.722  22.769   5.683
67482W        W39011  15.737  20.776  14.426
67483W        W39012  32.154  29.188   2.317
67484W        W39013   7.259  30.165   4.125
67485W        W39014  11.419  30.712  11.100
67486W        W39015  28.326  17.951  11.557
67487W        W39016  28.152  33.377   0.879
67488W        W39017   7.116   0.720   0.424
67489W        W39018   7.301  28.492   4.875
67490W        W39019  37.467  25.192  12.801
67491W        W39020  44.421  29.555  11.707
67492W        W39021  40.248  41.308  12.657
67493W        W39022   0.174  16.518   4.528
67494W        W39023  13.945  44.091  14.485
67495W        W39024  21.591  41.302   5.070
67496W        W39025  43.250  41.709   3.361
67497W        W39026   7.968   0.961   3.039
67498W        W39027  23.120  33.333   1.199
67499W        W39028  29.514  27.201  11.537
67500W        W39029  30.272  44.759  12.646
67501W        W39030  29.646  43.445   4.607
67502W        W39031  14.618   1.669  11.609
67503W        W39032   9.397  24.387   2.910
67504W        W39033  44.813  43.552   2.297
67505W        W39034   2.917   3.112   3.627
67506W        W39035  12.441  27.936   2.363
67507W        W39036  42.394  25.172   2.637
67508W        W39037   1.346  39.635   0.820
67509W        W39038  42.255   2.316  14.817
67510W        W39039  39.858  17.166   2.758
67511W        W39040  30.560  38.858   1.789
67512W        W39041  26.078   3.464  13.885
67513W        W39042   0.522  40.285  12.403
67514W        W39043   9.953  23.944  13.174
67515W        W39044  14.573  12.708   4.567
67516W        W39045  26.669  26.987  12.525
67517W        W39046   7.255  25.444  12.109
67518W        W39047  32.856  40.823  11.826
67519W        W39048  12.576  36.462   4.078
67520W        W39049  34.966  21.046  13.105
67521W        W39050   4.371  33.512   0.331
67522W        W39051  22.376  41.180  13.471
67523W        W39052  25.017  15.431   0.309
67524W        W39053  15.474  28.205   5.242
67525W        W39054  16.798  42.072  11.375
67526W        W39055  26.585  25.901   3.710
67527W        W39056  40.534  25.446  14.904
67528W        W39057   5.461  26.582  10.159
67529W        W39058  40.220  40.418   1.974
67530W        W39059  37.017   8.701   2.436
67531W        W39060   9.330  29.679  12.100
67532W        W39061  27.398  42.291  11.805
67533W        W39062   8.694  18.316  12.823
67534W        W39063  30.016  21.458   4.124
67535W        W39064  25.711  38.500  13.353
67536W        W39065  28.000  26.043  11.419
67537W        W39066  39.844  38.758   4.067
67538W        W39067  13.825   7.683  12.784
67539W        W39068   7.724  22.257  12.917
67540W        W39069  22.086  20.988  12.502
67541W        W39070  33.608  16.276  12.331
67542W        W39071  17.989   3.790   3.585
67543W        W39072  26.922  19.291  10.800
67544W        W39073   5.018  22.004  10.390
67545W        W39074  16.081   0.884  13.960
67546W        W39075  20.564   0.478  14.732
67547W        W39076  40.558  12.135  14.252
67548W        W39077  26.545   1.366   4.531
67549W        W39078  32.039  17.793  14.061
67550W        W39079  23.736  35.610  11.571
67551W        W39080   4.362   8.223  14.504
67552W        W39081  14.370   4.868  12.949
67553W        W39082  33.575   7.441   5.006
67554W        W39083  23.786  41.585   3.648
67555W        W39084   5.449  42.177   3.361
67556W        W39085  22.044  20.762  14.822
67557W        W39086  16.657  23.185  14.883
67558W        W39087   1.408  20.655  11.074
67559W        W39088  16.960  22.983   2.255
67560W        W39089  39.927  10.334  11.921
67561W        W39090  24.902  27.204   1.979
67562W        W39091  21.129   0.527  13.646
67563W        W39092  15.282  21.962   1.557
67564W        W39093   0.165   1.665  13.502
67565W        W39094  30.573  16.739   0.316
67566W        W39095  28.121   4.482   3.213
67567W        W39096  31.919  11.657  13.399
67568W        W39097  28.196   4.975  14.889
67569W        W39098   3.672  20.721  14.235
67570W        W39099  40.097  27.218   2.164
67571W        W39100  12.260  37.438  14.337
67572W        W39101  37.661   5.687   3.193
67573W        W39102  30.664  29.422  13.047
67574W        W39103  28.206   8.218  12.544
67575W        W39104   5.458  16.752   0.003
67576W        W39105  27.389  25.985   0.367
67577W        W39106   0.996  33.658  13.377
67578W        W39107   3.254  17.498  13.656
67579W        W39108  17.999  14.599  11.024
67580W        W39109  36.720   0.273   4.441
67581W        W39110  34.101   4.489  14.207
67582W        W39111  42.206  34.129  14.376
67583W        W39112   5.673  38.775   4.143
67584W        W39113   4.710  10.104  13.932
67585W        W39114  12.240  14.161   0.712
67586W        W39115  33.197  28.001   2.844
67587W        W39116  38.395  25.048  12.866
67588W        W39117  24.257  18.656  12.598
67589W        W39118   9.699  25.647   5.039
67590W        W39119  32.283  34.446  14.332
67591W        W39120  25.214  20.558   4.160
67592W        W39121   8.437  42.020  13.878
67593W        W39122  36.939  14.287   4.131
67594W        W39123  32.978  41.996  11.896
67595W        W39124  23.536  33.345  14.949
67596W        W39125  36.869   5.906  11.555
67597W        W39126   7.621   3.791   2.802
67598W        W39127  19.137   1.496   0.861
67599W        W39128   8.771  32.053  10.302
67600W        W39129  44.647  43.109  12.489
67601W        W39130   3.773  26.225  13.511
67602W        W39131  22.088   6.406   4.651
67603W        W39132  40.966  23.242  11.697
67604W        W39133   1.680   0.816   0.898
67605W        W39134  26.229  10.662   3.006
67606W        W39135  28.073  10.163  12.262
67607W        W39136   7.951  42.060   2.708
67608W        W39137  31.092  44.687   1.263
67609W        W39138  40.879  30.198   1.154
67610W        W39139  29.655  43.918   1.992
67611W        W39140  35.865  17.498   2.707
67612W        W39141  14.749  42.991  13.823
67613W        W39142  32.443   5.745  14.982
67614W        W39143  25.053  42.908   4.331
67615W        W39144  29.714  25.249   3.259
67616W        W39145  32.278   6.139   1.779
67617W        W39146   9.192  12.935  11.959
67618W        W39147  33.637   6.781  14.469
67619W        W39148  22.040   8.164   4.308
67620W        W39149   4.809  35.884   4.578
67621W        W39150  40.621  31.581  12.414
67622W        W39151  30.175  31.433   3.727
67623W        W39152   4.828   6.896  11.399
67624W        W39153   5.768   4.158   4.572
67625W        W39154   2.696  13.734   1.737
67626W        W39155  27.463  28.074  14.377
67627W        W39156   2.901  26.050  14.774
67628W        W39157  16.793  39.113  12.866
67629W        W39158   5.962   0.963   1.498
67630W        W39159  26.883   3.791   3.770
67631W        W39160  30.532  20.757  12.964
67632W        W39161  27.959  30.896   0.875
67633W        W39162  23.709  41.091   2.259
67634W        W39163  33.696   5.796   3.285
67635W        W39164  41.394  40.865   5.005
67636W        W39165   7.113  16.591   3.413
67637W        W39166  32.105  14.542  14.995
67638W        W39167  31.497  37.562  11.370
67639W        W39168   8.753  40.583   0.456
67640W        W39169  10.753  21.168  13.974
67641W        W39170  25.660  32.227  11.946
67642W        W39171   6.708  21.756   5.157
67643W        W39172   5.856  33.738   4.397
67644W        W39173   8.449  41.776  11.554
67645W        W39174  34.185   6.832  12.134
67646W        W39175  41.241  41.340  12.333
67647W        W39176  34.028  11.017  11.158
67648W        W39177  27.288  26.746   2.117
67649W        W39178  15.203   7.887   5.507
67650W        W39179  26.839  33.555  13.179
67651W        W39180  27.502  24.953  11.904
67652W        W39181   4.190  39.617  11.989
67653W        W39182  17.563  23.634   0.699
67654W        W39183   3.300  33.922   4.153
67655W        W39184  38.951  15.277   3.312
67656W        W39185   7.251  13.994  11.133
67657W        W39186  29.148  18.200   0.769
67658W        W39187  10.513  11.326   0.933
67659W        W39188  29.996  17.606   2.317
67660W        W39189  43.820  17.683  12.065
67661W        W39190  33.303  13.683   0.422
67662W        W39191  31.678  37.734  12.920
67663W        W39192  43.442  14.780   1.295
67664W        W39193  39.012  21.675   2.760
67665W        W39194   8.728  32.686   1.438
67666W        W39195  26.482   9.998  12.917
67667W        W39196   8.212  12.160  14.394
67668W        W39197  10.858  13.348  11.593
67669W        W39198   9.999  25.914   3.657
67670W        W39199  16.183  40.209  14.829
67671W        W39200  10.576  40.315   0.332
67672W        W39201  36.834  34.115  10.635
67673W        W39202  42.370  20.472   1.724
67674W        W39203  36.958  34.445  11.785
67675W        W39204  26.196  22.503   3.162
67676W        W39205   1.793   9.912   1.282
67677W        W39206  23.873   4.423   1.574
67678W        W39207   5.738  24.391   2.878
67679W        W39208  11.142  19.106   2.270
67680W        W39209  38.078  21.342   2.610
67681W        W39210  39.319  26.606   1.735
67682W        W39211   7.958  21.533   2.374
67683W        W39212   5.452  18.148   3.171
67684W        W39213  42.061  34.748  10.750
67685W        W39214  19.577  17.850   4.133
67686W        W39215  28.207   7.318   2.458
67687W        W39216  30.380  41.576  14.442
67688W        W39217  30.574  10.613   0.993
67689W        W39218  41.962  16.572  14.882
67690W        W39219  40.830  19.380  12.514
67691W        W39220   8.096  32.285  13.387
67692W        W39221   0.826  39.029   1.841
67693W        W39222  44.951  44.989  14.102
67694W        W39223  39.461   7.082   1.768
67695W        W39224  16.003   8.120   2.618
67696W        W39225  30.018  19.203   3.829
67697W        W39226   7.580  16.224   1.204
67698W        W39227   3.181   6.344   3.364
67699W        W39228   4.664  34.747  14.756
67700W        W39229  15.411  32.353   4.807
67701W        W39230   0.381  44.535  10.718
67702W        W39231  43.019  42.931   3.153
67703W        W39232  25.924  44.391  14.366
67704W        W39233   1.739  37.623  14.838
67705W        W39234   9.748  26.854  14.067
67706W        W39235   6.454   5.299  14.229
67707W        W39236   7.666  19.579   0.032
67708W        W39237  10.467  35.608  12.488
67709W        W39238   7.865  16.217   0.757
67710W        W39239  16.933  38.373   4.627
67711W        W39240  28.579  21.053   0.259
67712W        W39241   7.310  36.309   4.738
67713W        W39242  24.182  22.968   0.882
67714W        W39243  35.850   7.186  14.946
67715W        W39244  33.088  18.076  12.378
67716W        W39245   9.381   1.200  14.834
67717W        W39246  38.398  40.065  14.446
67718W        W39247   3.308  17.632   2.779
67719W        W39248  14.201  27.942  11.256
67720W        W39249   6.756  12.538   1.377
67721W        W39250  24.742  40.794  12.933
67722W        W39251   5.313  38.878   4.513
67723W        W39252  10.265   0.278  13.409
67724W        W39253  10.242   2.512  11.042
67725W        W39254   1.180  13.139   1.391
67726W        W39255  40.062  14.790   0.685
67727W        W39256  29.195  18.657   1.744
67728W        W39257  14.297  23.065  10.668
67729W        W39258  10.639  21.154   0.402
67730W        W39259   9.391   7.607  14.481
67731W        W39260  25.699   5.785  14.481
67732W        W39261  13.933   8.447  11.503
67733W        W39262   5.405  24.632  12.014
67734W        W39263  38.466  42.428  13.493
67735W        W39264  10.381  29.384  12.871
67736W        W39265  11.692  26.658  10.506
67737W        W39266  44.373   8.881  13.840
67738W        W39267   0.491  27.250  14.224
67739W        W39268   8.439  25.544   1.785
67740W        W39269   9.056   1.950   0.420
67741W        W39270  23.561  44.035   4.030
67742W        W39271  35.846  13.559  11.149
67743W        W39272  19.999  37.429  14.829
67744W        W39273  37.606  32.986  13.446
67745W        W39274  41.034  44.034  10.745
67746W        W39275  13.636   0.562  12.847
67747W        W39276  18.743   4.411  13.800
67748W        W39277  31.182  40.981   4.608
67749W        W39278  37.573  38.861   5.101
67750W        W39279  11.712   6.672  10.642
67751W        W39280  25.077   6.975  14.960
67752W        W39281  23.128  31.503   3.097
67753W        W39282  41.391  27.417   4.135
67754W        W39283  18.785  44.219   3.342
67755W        W39284  35.746  35.858  13.433
67756W        W39285  18.987  38.945   1.942
67757W        W39286  24.773  41.522  12.590
67758W        W39287  28.876  33.011  11.204
67759W        W39288  41.061   5.818  13.459
67760W        W39289  39.020  40.729   0.747
67761W        W39290   5.905  44.710   0.386
67762W        W39291   8.736  43.981  11.398
67763W        W39292   0.406  15.134   0.769
67764W        W39293  44.982  15.671   3.822
67765W        W39294  36.179  21.570   4.563
67766W        W39295  27.702   0.459   0.821
67767W        W39296   8.142  41.587  14.343
67768W        W39297  24.936  40.922  10.591
67769W        W39298  14.773   4.874   0.667
67770W        W39299  43.732  21.780  12.087
67771W        W39300  32.206  21.736  12.877
67772W        W39301  14.972   7.676  11.157
67773W        W39302  41.812  17.073   3.529
67774W        W39303   7.374   6.442   4.628
67775W        W39304  21.058  14.561  13.010
67776W        W39305  43.353  32.534  11.387
67777W        W39306  36.238   7.570   9.790
67778W        W39307  12.587  32.722  11.464
67779W        W39308  11.243  34.999   2.216
67780W        W39309  23.413   3.865   2.269
67781W        W39310   2.833  42.311   4.562
67782W        W39311  29.930  27.795   3.321
67783W        W39312   5.914  28.140  13.844
67784W        W39313  17.657  38.948   1.147
67785W        W39314  14.328  25.999   1.443
67786W        W39315   1.437  25.146   0.880
67787W        W39316  32.581   8.855  14.061
67788W        W39317  15.489  42.236   0.503
67789W        W39318  26.442  19.739   3.820
67790W        W39319  21.695   8.446  11.492
67791W        W39320  34.567   5.400   2.426
67792W        W39321  35.002  26.180   1.594
67793W        W39322  39.243  43.923  14.844
67794W        W39323   4.556   5.481   0.269
67795W        W39324  26.531  39.281  14.867
67796W        W39325  29.360  44.490  14.082
67797W        W39326  23.371  16.804   0.886
67798W        W39327  24.527  10.242  13.085
67799W        W39328  35.652   8.797   3.244
67800W        W39329  39.929  21.555   4.713
67801W        W39330  40.075  35.605  12.453
67802W        W39331  34.604  15.771   4.705
67803W        W39332  25.383  30.479   2.823
67804W        W39333  24.595   9.483  12.460
67805W        W39334   6.306  22.235   4.067
67806W        W39335  28.440  24.679  13.351
67807W        W39336   4.829  42.319  14.972
67808W        W39337  14.214  41.937   3.562
67809W        W39338  34.403  28.471   1.150
67810W        W39339  34.572   0.490  13.392
67811W        W39340  40.081  15.424   2.114
67812W        W39341  33.872   3.659  11.977
67813W        W39342  18.564  11.323   2.258
67814W        W39343  15.820  16.176   1.282
67815W        W39344  40.155  29.499  13.578
67816W        W39345  32.578  14.357   3.427
67817W        W39346  26.207  43.257   1.252
67818W        W39347  12.087   3.845  14.878
67819W        W39348  34.457  38.925   4.526
67820W        W39349  15.620  25.947  13.038
67821W        W39350  20.751  24.752  14.538
67822W        W39351  36.913  19.692   3.014
67823W        W39352  34.091   1.355  12.531
67824W        W39353  13.297   7.589   0.655
67825W        W39354   8.043  11.733  14.026
67826W        W39355  17.285  16.753  14.535
67827W        W39356  35.644   6.894  12.874
67828W        W39357   0.994  26.237  14.442
67829W        W39358  27.141  15.606   4.749
67830W        W39359  10.754   6.941   1.274
67831W        W39360   3.289  20.556   3.807
67832W        W39361  44.027  25.245  14.391
67833W        W39362  18.949   9.201   4.720
67834W        W39363  25.386   3.621   4.565
67835W        W39364  28.861  24.091   1.300
67836W        W39365  14.494  38.500   0.988
67837W        W39366  20.457  43.577   0.481
67838W        W39367   3.207   0.822  11.914
67839W        W39368  32.241  16.945  14.775
67840W        W39369  17.205  40.892   0.893
67841W        W39370  34.663  16.227   0.926
67842W        W39371  31.663  43.136   2.832
67843W        W39372  22.192  38.714   3.543
67844W        W39373   0.473  11.420  11.117
67845W        W39374  40.415  43.349   1.758
67846W        W39375  27.200  14.178  12.491
67847W        W39376  19.202  30.183  13.859
67848W        W39377  37.719  24.681  14.947
67849W        W39378  43.038   5.938   3.614
67850W        W39379  39.110  16.242   0.849
67851W        W39380  14.070  22.198  12.768
67852W        W39381  26.141   2.347  12.478
67853W        W39382  15.611  44.286  11.156
67854W        W39383  23.619  38.944   0.000
67855W        W39384  16.172  34.177  14.992
67856W        W39385  31.018  42.291  11.225
67857W        W39386  16.696   8.215   4.301
67858W        W39387  42.367   2.034   4.182
67859W        W39388  39.891  14.663  11.154
67860W        W39389  21.428  12.919  13.084
67861W        W39390  12.577  11.721   3.282
67862W        W39391  25.245  21.989   3.838
67863W        W39392  39.384  40.949   1.615
67864W        W39393  25.208  43.340   4.624
67865W        W39394  37.552  16.502   2.478
67866W        W39395  10.339  27.168   1.883
67867W        W39396  31.002   1.469  14.485
67868W        W39397  41.299  17.965  14.496
67869W        W39398  15.194   5.870  13.386
67870W        W39399  11.237  12.888   0.913
67871W        W39400  40.941   7.649  12.907
67872W        W39401   2.421  16.363   1.917
67873W        W39402   1.008  20.137   0.268
67874W        W39403   7.708  31.194  12.489
67875W        W39404  28.186  33.979  12.827
67876W        W39405  38.080  30.969  12.058
67877W        W39406  22.277  19.230  13.585
67878W        W39407   8.290   2.495   0.671
67879W        W39408  24.156  25.454   4.137
67880W        W39409  39.537  32.410   1.307
67881W        W39410  23.048   3.892   1.887
67882W        W39411   0.673   3.846   3.213
67883W        W39412   6.454  21.504  14.446
67884W        W39413  43.184  42.833  10.715
67885W        W39414  15.302  43.863  11.750
67886W        W39415  32.453  16.847  11.997
67887W        W39416  42.374  21.000   2.904
67888W        W39417  31.231   0.477  11.456
67889W        W39418  29.973  10.882  14.845
67890W        W39419  15.746  13.607  13.708
67891W        W39420  38.471  32.554  13.143
67892W        W39421  25.672  43.231  12.051
67893W        W39422  28.997  31.026  12.138
67894W        W39423   0.306  18.426  14.257
67895W        W39424  30.872  31.041   3.622
67896W        W39425   7.863   0.415   2.345
67897W        W39426  41.481  42.900   4.889
67898W        W39427  19.663   5.149  10.388
67899W        W39428  41.302   6.208  10.414
67900W        W39429  39.092   6.257   3.053
67901W        W39430   2.016   8.733   2.169
67902W        W39431   4.530  10.675   1.953
67903W        W39432   0.478   6.120   3.641
67904W        W39433   5.915  32.099   1.418
67905W        W39434   9.114  40.439  13.598
67906W        W39435  14.085  25.548   0.799
67907W        W39436  15.625  11.403  14.840
67908W        W39437   3.795  24.989  14.797
67909W        W39438   6.277  27.072   0.379
67910W        W39439  27.806  33.053   3.730
67911W        W39440  16.601  38.987  14.765
67912W        W39441   3.417   5.183  11.690
67913W        W39442  30.984  11.656   4.762
67914W        W39443  43.522  44.683   1.404
67915W        W39444   3.989   1.453  11.828
67916W        W39445  35.587  41.586  12.057
67917W        W39446   0.368  24.143  12.026
67918W        W39447  20.090  33.349   3.186
67919W        W39448  13.254   5.269  10.477
67920W        W39449  27.663  40.327  12.518
67921W        W39450   7.902  27.561  13.012
67922W        W39451  33.023  44.544   3.982
67923W        W39452  17.706  22.268   2.011
67924W        W39453  35.496  28.504  11.184
67925W        W39454  43.422  21.188  12.043
67926W        W39455  21.722   8.444   2.089
67927W        W39456  18.524   5.703   2.296
67928W        W39457  20.449  37.444  13.062
67929W        W39458   9.317  34.102   1.316
67930W        W39459  41.621  39.801   1.463
67931W        W39460  26.850   8.802  11.613
67932W        W39461  17.375  33.326  11.336
67933W        W39462  18.593   5.227  13.455
67934W        W39463  15.299  16.626  12.015
67935W        W39464   8.817  12.651   3.281
67936W        W39465  21.160  33.865   3.819
67937W        W39466   5.613  12.957  13.408
67938W        W39467  28.428  31.194  14.998
67939W        W39468  18.676  24.153   4.043
67940W        W39469   6.789  27.652  14.617
67941W        W39470  29.632  35.586   3.436
67942W        W39471  18.631  24.668  12.622
67943W        W39472   4.660  33.451   3.306
67944W        W39473  17.048  20.612   1.289
67945W        W39474   4.709  25.582   1.192
67946W        W39475  28.613   8.627   4.935
67947W        W39476  31.672  22.243  10.725
67948W        W39477  10.670  17.608   0.477
67949W        W39478  24.660  16.679  14.908
67950W        W39479  44.356  26.997   1.955
67951W        W39480  34.020  26.250  11.581
67952W        W39481  43.345  23.882  12.605
67953W        W39482  31.987  10.125  13.244
67954W        W39483  43.921  28.214   1.863
67955W        W39484   8.149  24.799  10.592
67956W        W39485  24.549  33.970  14.409
67957W        W39486  13.273  27.489  13.028
67958W        W39487  29.136  10.841  14.251
67959W        W39488  30.498  33.052   0.773
67960W        W39489  24.955   1.332   1.546
67961W        W39490  39.097   2.289   4.157
67962W        W39491  10.766  30.505   1.916
67963W        W39492   0.175  16.824   4.120
67964W        W39493  41.160  21.849   4.098
67965W        W39494  40.609  11.434   0.767
67966W        W39495   8.111  40.584  13.511
67967W        W39496  26.098  22.182  12.149
67968W        W39497  17.914  22.786   4.137
67969W        W39498  20.451  40.291   2.789
67970W        W39499  23.768  24.565   2.948
67971W        W39500  43.247  39.434   4.568
67972W        W39501   7.453  18.322   3.669
67973W        W39502  23.515  18.853   1.345
67974W        W39503  13.576  41.915  10.689
67975W        W39504  21.522  43.401  10.618
67976W        W39505   7.814  35.518  11.693
67977W        W39506  17.772  39.250  11.452
67978W        W39507  33.500  10.856  13.868
67979W        W39508  11.348  36.116   4.428
67980W        W39509  38.456  33.386   4.534
67981W        W39510  30.918  44.686  14.915
67982W        W39511  12.764   9.646   4.251
67983W        W39512  17.487  22.058  12.676
67984W        W39513  37.231  29.566  13.354
67985W        W39514  13.689  36.896  12.419
67986W        W39515  37.309   0.156  11.260
67987W        W39516  34.986  22.811  13.012
67988W        W39517  25.027   7.419  11.534
67989W        W39518  19.447  11.018  12.163
67990W        W39519  26.722   4.517   0.776
67991W        W39520  33.577  36.454   1.711
67992W        W39521  12.544  43.052  11.606
67993W        W39522  14.639  14.205   5.061
67994W        W39523  14.072   3.309   4.264
67995W        W39524  34.786  11.703  14.225
67996W        W39525  39.355  19.601   1.289
67997W        W39526   6.652  23.566   0.789
67998W        W39527  16.874   1.356  14.971
67999W        W39528  33.350  31.381   4.611
68000W        W39529   8.658  11.891   2.245
68001W        W39530  24.492  21.801   1.800
68002W        W39531  41.857  10.323   0.489
68003W        W39532  41.086  29.517  13.071
68004W        W39533  28.822  15.284   4.565
68005W        W39534  16.801  22.767   2.878
68006W        W39535  33.587   2.440  14.675
68007W        W39536  35.842  23.196   3.278
68008W        W39537  27.244  15.168   5.610
68009W        W39538   9.850  18.783  12.425
68010W        W39539   2.677  43.990   3.789
68011W        W39540  18.323  31.697   3.172
68012W        W39541  27.389  37.342  11.086
68013W        W39542  19.252  27.211   4.114
68014W        W39543   7.700  17.204  10.742
68015W        W39544   3.371  35.019   3.357
68016W        W39545  16.781  43.448   3.381
68017W        W39546  23.526  15.254  14.472
68018W        W39547  31.052  17.591  12.028
68019W        W39548  22.445   3.548  11.506
68020W        W39549  17.582  39.615  12.389
68021W        W39550   5.134  18.714   2.032
68022W        W39551   2.795  40.920  11.492
68023W        W39552  33.317  23.491  14.872
68024W        W39553  32.601  28.870   4.491
68025W        W39554  13.633  42.864   0.408
68026W        W39555  37.749  38.132   1.112
68027W        W39556   7.217   2.416   1.839
68028W        W39557  26.337  35.020  12.254
68029W        W39558   1.573  14.933   1.621
68030W        W39559  36.426   3.385   1.861
68031W        W39560  39.046  17.396   4.118
68032W        W39561  20.666  20.721   1.228
68033W        W39562   3.269  37.330   1.474
68034W        W39563  15.203  39.145   0.782
68035W        W39564  31.726  32.137  14.902
68036W        W39565   5.980   3.867   0.958
68037W        W39566   0.744  11.124   3.369
68038W        W39567  12.670  13.255   0.391
68039W        W39568   1.398   1.856  10.617
68040W        W39569   5.802  33.120   0.310
68041W        W39570  29.868  42.044   1.977
68042W        W39571  23.138  10.811  11.752
68043W        W39572  29.153  18.516  10.778
68044W        W39573  38.633  30.540  13.126
68045W        W39574  16.838  25.623  14.829
68046W        W39575  38.531  41.984  11.623
68047W        W39576  30.522  32.860   2.314
68048W        W39577   0.294  19.114  14.966
68049W        W39578  10.198   8.825  13.695
68050W        W39579  15.138  16.248   2.367
68051W        W39580  33.831  42.528  10.405
68052W        W39581  28.138  21.005  13.431
68053W        W39582  41.717  27.070  13.365
68054W        W39583   0.312   8.058  13.473
68055W        W39584  21.038  16.075   1.665
68056W        W39585  20.198  34.188   2.840
68057W        W39586  38.316  36.357   2.617
68058W        W39587  10.162   8.133   2.792
68059W        W39588  25.594   1.437  14.805
68060W        W39589  18.942  42.469   0.806
68061W        W39590  33.915  12.086   1.440
68062W        W39591  15.319  44.259  13.712
68063W        W39592  26.942  40.940   2.803
68064W        W39593  41.963  42.434  13.248
68065W        W39594   0.867   7.140  11.132
68066W        W39595  38.427  44.544  13.243
68067W        W39596  37.883  22.526   2.864
68068W        W39597  30.043  41.318  14.804
68069W        W39598  40.296  37.171   3.121
68070W        W39599  18.121  17.161   2.810
68071W        W39600  39.319  24.599   0.990
68072W        W39601   4.051  18.856   3.393
68073W        W39602   5.815  19.298   2.168
68074W        W39603  34.559  28.910   1.366
68075W        W39604  30.406  18.388   2.245
68076W        W39605  28.011   0.011  12.013
68077W        W39606  42.715  28.725   1.714
68078W        W39607  26.635  44.199  13.503
68079W        W39608  33.955  34.269   1.825
68080W        W39609  10.120  42.112  12.647
68081W        W39610   3.278  19.628  11.634
68082W        W39611  23.559  40.834   4.158
68083W        W39612  29.004  39.000   4.506
68084W        W39613  22.163  19.043  14.907
68085W        W39614   5.982  39.838  10.732
68086W        W39615   3.818  11.306  10.932
68087W        W39616  14.768  40.481   0.964
68088W        W39617  29.608  33.820  10.236
68089W        W39618  14.822  19.571  11.084
68090W        W39619  37.463   4.650   3.932
68091W        W39620   3.020  18.006   3.102
68092W        W39621  29.545  42.946   4.034
68093W        W39622  14.121  21.193  13.974
68094W        W39623  24.977  14.025  14.388
68095W        W39624   3.770  39.444   3.274
68096W        W39625  18.128   0.392   4.725
68097W        W39626   2.871  15.079   1.420
68098W        W39627   3.645  13.760  12.026
68099W        W39628   4.219  33.290   1.231
68100W        W39629  26.784  18.184  11.306
68101W        W39630  25.291  21.121   0.620
68102W        W39631  26.672  44.092  11.248
68103W        W39632   1.802   6.762  14.356
68104W        W39633  10.690  17.975  14.401
68105W        W39634  13.832   8.677   5.272
68106W        W39635  19.731  10.581   2.594
68107W        W39636  42.056  36.934  13.397
68108W        W39637  27.960  43.942   2.268
68109W        W39638  10.633  29.912  12.177
68110W        W39639  34.594  21.307   1.678
68111W        W39640  34.361   6.264   0.047
68112W        W39641  23.503  19.226   0.993
68113W        W39642  36.909  19.591  11.667
68114W        W39643   9.949   3.790   1.727
68115W        W39644  36.249  29.524   1.432
68116W        W39645  44.222   8.921  11.168
68117W        W39646  30.535   5.825  14.875
68118W        W39647   7.236  12.270  12.463
68119W        W39648  19.992  37.815  11.077
68120W        W39649  20.660  39.888  12.643
68121W        W39650  13.322  10.654   0.408
68122W        W39651  26.603  27.209  13.848
68123W        W39652  12.707  30.870  13.046
68124W        W39653  41.905   4.629   2.659
68125W        W39654  18.958  19.216   3.053
68126W        W39655  41.073  20.651  11.901
68127W        W39656  39.764  19.009   1.669
68128W        W39657   9.896   7.528   4.241
68129W        W39658   4.383   7.503   3.633
68130W        W39659  20.693   3.152  11.021
68131W        W39660  15.264  37.803  14.813
68132W        W39661   4.251  22.296  13.470
68133W        W39662   6.235  20.758   4.221
68134W        W39663   8.414  12.958   2.757
68135W        W39664  30.057  37.510  10.453
68136W        W39665  14.330  39.829  12.924
68137W        W39666   4.576  29.115   4.091
68138W        W39667  40.460   4.194   0.021
68139W        W39668  20.109  17.283  13.120
68140W        W39669   7.279   0.400   4.790
68141W        W39670   6.952  13.731   4.579
68142W        W39671   4.481  16.748   2.467
68143W        W39672  34.564  39.545  11.278
68144W        W39673  20.925  21.501  10.984
68145W        W39674  24.487  32.124   2.272
68146W        W39675   9.690  11.698   0.463
68147W        W39676  36.328  29.596  14.404
68148W        W39677  35.036   0.508   1.271
68149W        W39678  33.939  22.558  12.020
68150W        W39679   7.222  25.496   1.916
68151W        W39680  19.361   8.826  12.395
68152W        W39681  17.784   0.539  11.509
68153W        W39682  40.415  43.366   3.062
68154W        W39683  29.365  36.138   4.036
68155W        W39684  41.956  16.992   0.821
68156W        W39685   8.146  23.673   4.073
68157W        W39686   3.346  16.301   2.687
68158W        W39687  13.967  29.369   4.959
68159W        W39688  32.923  33.370  14.258
68160W        W39689  13.894  24.503   3.802
68161W        W39690   6.974   0.488   2.275
68162W        W39691  31.843  34.988   1.431
68163W        W39692  16.313   2.012  13.101
68164W        W39693   3.577   7.012   2.917
68165W        W39694   7.407  17.736  13.869
68166W        W39695   9.052  41.383   4.203
68167W        W39696   0.997  15.921  12.755
68168W        W39697  30.023  41.106  13.784
68169W        W39698  14.339  28.236  14.826
68170W        W39699  28.866  13.666   3.626
68171W        W39700  21.709  39.996  12.899
68172W        W39701  37.022  39.141   2.154
68173W        W39702  35.991  25.178  12.981
68174W        W39703  24.633  28.088  14.247
68175W        W39704   0.489   1.726  13.926
68176W        W39705  27.133   2.687  14.430
68177W        W39706   1.767   0.741   3.513
68178W        W39707  13.887   7.446  13.508
68179W        W39708  14.088  22.625   3.677
68180W        W39709  36.416  35.939   0.088
68181W        W39710   9.135  24.520   1.109
68182W        W39711  21.199  44.355  10.535
68183W        W39712   7.403  14.313  14.749
68184W        W39713   2.017  40.821  14.348
68185W        W39714   5.804  28.108  11.398
68186W        W39715   3.757  37.865   3.236
68187W        W39716  13.850  34.544   4.525
68188W        W39717  31.232   8.472   1.540
68189W        W39718  33.396  25.283   1.479
68190W        W39719  27.283   1.716   0.353
68191W        W39720  21.751   0.545   2.931
68192W        W39721   5.196   2.318   0.738
68193W        W39722  38.095  41.069  13.086
68194W        W39723  35.961  40.917   2.342
68195W        W39724   9.353  26.664  13.122
68196W        W39725  18.829  40.514   2.265
68197W        W39726  17.205   8.896  10.990
68198W        W39727  28.132  18.251   2.102
68199W        W39728  26.914  31.045  10.512
68200W        W39729   1.634  40.540   2.621
68201W        W39730  20.252  35.081  10.552
68202W        W39731   6.882  10.357  13.350
68203W        W39732  13.754  18.989   3.502
68204W        W39733  26.749  41.905   1.790
68205W        W39734  41.892   2.266   0.204
68206W        W39735  42.251   1.429   1.674
68207W        W39736  18.109  11.302   1.298
68208W        W39737  14.659  23.948   5.159
68209W        W39738  17.555  16.193   4.110
68210W        W39739   5.278  33.949  11.403
68211W        W39740  35.143  44.364  11.535
68212W        W39741  25.056   0.578   0.918
68213W        W39742  35.130  16.237  14.863
68214W        W39743  33.532  37.534  14.741
68215W        W39744  39.845  38.820   0.373
68216W        W39745  13.587  34.606   3.562
68217W        W39746  43.700   2.853  14.971
68218W        W39747  35.519  34.386   1.030
68219W        W39748  18.132  11.832  12.891
68220W        W39749   8.338  21.485  11.158
68221W        W39750  15.192   4.376  14.015
68222W        W39751  19.819   4.276  10.664
68223W        W39752  35.171  37.808  13.166
68224W        W39753   8.635   7.387   3.079
68225W        W39754  36.376  44.942   1.764
68226W        W39755  24.576  35.668  10.529
68227W        W39756   5.886  33.614  13.443
68228W        W39757  42.924  39.987   1.188
68229W        W39758  38.475  38.573  10.330
68230W        W39759  32.785   1.766   4.765
68231W        W39760  40.924  18.621   3.530
68232W        W39761  16.704  17.470   0.787
68233W        W39762  21.745  40.547   2.346
68234W        W39763  26.957   1.835   2.336
68235W        W39764   1.878   8.901  12.621
68236W        W39765   5.245  21.084   4.697
68237W        W39766  27.105  22.679  14.374
68238W        W39767   9.799  37.060  11.075
68239W        W39768   0.388  16.714   0.471
68240W        W39769  44.884  19.145   3.738
68241W        W39770  30.168  24.211  12.834
68242W        W39771   5.178  36.483   2.861
68243W        W39772  39.120  31.401   1.003
68244W        W39773   3.821  11.504   1.090
68245W        W39774  26.733  16.019   1.806
68246W        W39775  31.098  43.731  10.841
68247W        W39776  18.047   7.314   0.525
68248W        W39777  35.864  18.759   1.423
68249W        W39778  34.875  39.749   1.890
68250W        W39779  28.231  26.241   0.705
68251W        W39780  14.102  31.838   1.352
68252W        W39781  37.014   9.903  11.008
68253W        W39782  42.554  21.521  12.944
68254W        W39783  34.085  27.433  12.570
68255W        W39784   9.359  35.054   4.146
68256W        W39785  28.198  27.402   4.656
68257W        W39786  12.605  35.387   3.610
68258W        W39787   5.773  19.162  12.836
68259W        W39788  25.506   0.519  13.461
68260W        W39789  29.121   3.375   3.729
68261W        W39790  14.054  40.258   0.378
68262W        W39791   9.317  36.548  13.443
68263W        W39792  25.968  17.026  11.133
68264W        W39793  23.091  11.215   2.482
68265W        W39794  38.568   3.368  11.549
68266W        W39795  28.492  15.554   3.184
68267W        W39796  38.523  13.677   4.462
68268W        W39797   1.219  13.668  11.510
68269W        W39798  35.430  44.982   3.292
68270W        W39799  29.159  13.964   0.886
68271W        W39800  19.563  30.250   3.727
68272W        W39801   6.833   2.394  13.337
68273W        W39802  43.581   7.010   0.871
68274W        W39803  32.336  29.965  11.687
68275W        W39804  15.595  33.037   0.445
68276W        W39805  19.803  35.557   4.358
68277W        W39806  25.218  10.683   1.401
68278W        W39807  18.873  18.674  12.578
68279W        W39808  22.285  43.655   0.279
68280W        W39809  13.371  30.484   9.786
68281W        W39810   2.401   4.369   3.639
68282W        W39811  23.773   1.948   2.921
68283W        W39812   8.365  29.056  13.872
68284W        W39813  36.567  11.945   1.930
68285W        W39814  38.552  27.139  11.569
68286W        W39815   8.831   4.237  11.023
68287W        W39816   9.681   3.393   3.401
68288W        W39817  19.030  18.480   0.327
68289W        W39818   7.326  22.597   1.332
68290W        W39819   9.314  30.872   3.177
68291W        W39820  13.892  22.900  11.708
68292W        W39821   8.754  35.340  12.093
68293W        W39822  18.383  16.812  13.306
68294W        W39823  21.923  39.377   3.101
68295W        W39824  28.065  15.332  12.444
68296W        W39825  10.797  34.244  12.819
68297W        W39826   5.896  14.545   1.499
68298W        W39827  13.079   5.289  14.739
68299W        W39828  22.076  33.853  13.081
68300W        W39829  44.361  14.092  12.855
68301W        W39830   9.843  38.701   0.835
68302W        W39831  13.515  32.422  13.478
68303W        W39832  27.880  39.908  14.851
68304W        W39833   1.912  36.659  11.247
68305W        W39834  32.097  31.086  12.012
68306W        W39835  18.805  13.084  12.959
68307W        W39836  23.132  18.754   2.167
68308W        W39837  38.234  42.580  14.009
68309W        W39838  15.834   3.642  11.547
68310W        W39839  25.499  16.751  12.141
68311W        W39840   0.417  16.760   0.981
68312W        W39841  15.766  15.584   2.358
68313W        W39842  22.910   2.777   1.324
68314W        W39843   9.806  37.520   2.171
68315W        W39844  25.040  29.505  11.228
68316W        W39845  33.344  13.642  13.665
68317W        W39846  42.938  43.994  12.538
68318W        W39847  30.603  27.956   0.205
68319W        W39848  40.010  44.469   2.899
68320W        W39849  33.521  12.903   3.814
68321W        W39850  39.324  26.457   1.187
68322W        W39851   9.675  35.836   0.368
68323W        W39852  36.505  43.559   0.984
68324W        W39853  37.472   4.455  10.759
68325W        W39854  22.136   0.683   3.283
68326W        W39855  31.567   5.724   4.228
68327W        W39856   8.957  15.825  11.113
68328W        W39857  43.167  12.246  10.772
68329W        W39858  21.532  20.265  12.495
68330W        W39859  10.231  44.548   0.267
68331W        W39860  25.067  16.600  13.782
68332W        W39861  18.307  10.889   2.441
68333W        W39862  10.255  38.076  12.473
68334W        W39863  37.652  24.034  12.075
68335W        W39864   1.880  20.918   2.362
68336W        W39865  31.994  24.719   1.377
68337W        W39866   4.420  13.814  11.179
68338W        W39867  27.977   3.047  13.312
68339W        W39868  25.391   5.696  14.071
68340W        W39869  32.890  20.111   4.683
68341W        W39870  30.532  35.172  12.479
68342W        W39871   5.419  34.473   3.895
68343W        W39872  40.935  24.731  13.796
68344W        W39873  22.741  25.554  13.932
68345W        W39874  17.073  42.911  12.947
68346W        W39875   0.259   0.472   0.255
68347W        W39876  38.695   7.256   4.160
68348W        W39877  12.587  32.449   2.799
68349W        W39878  13.551   0.315   1.334
68350W        W39879  12.571  43.834   1.149
68351W        W39880  12.714  27.211   0.407
68352W        W39881  19.538  34.391  13.077
68353W        W39882  35.861  17.756   3.191
68354W        W39883   6.732  35.094   2.682
68355W        W39884  41.496   6.824  14.675
68356W        W39885  23.443  15.783  13.192
68357W        W39886  22.481  19.681   3.493
68358W        W39887  22.488   6.750  13.399
68359W        W39888  27.690  12.050   0.731
68360W        W39889  35.436  34.903   0.931
68361W        W39890  25.137   1.179   4.128
68362W        W39891   9.566   9.140  11.153
68363W        W39892  41.112  43.823  14.961
68364W        W39893  32.216  31.938  13.475
68365W        W39894  18.444   9.970  10.211
68366W        W39895  33.567  18.565   0.864
68367W        W39896  34.137  36.458  11.938
68368W        W39897  32.569  20.604   0.994
68369W        W39898  35.100  39.753  10.187
68370W        W39899  10.298  17.578   4.310
68371W        W39900  14.375  13.040  14.325
68372W        W39901  37.940  37.586   3.302
68373W        W39902  10.883   1.677   5.745
68374W        W39903  16.443  41.918   4.130
68375W        W39904  15.564   5.039  13.514
68376W        W39905  21.479  42.436   5.256
68377W        W39906  24.764  13.906  11.088
68378W        W39907  35.907  37.338  14.880
68379W        W39908  15.619  18.945  13.503
68380W        W39909  16.516  12.974  10.921
68381W        W39910  34.947  25.735  11.897
68382W        W39911  30.769  21.323   0.846
68383W        W39912  30.583  29.959   1.745
68384W        W39913   8.753   7.240  14.112
68385W        W39914   7.617  38.892  11.658
68386W        W39915  13.120  37.401   3.256
68387W        W39916  28.680  12.275   0.932
68388W        W39917   6.467  35.514  10.229
68389W        W39918  26.675  16.583   2.670
68390W        W39919  37.983   6.080  13.216
68391W        W39920  29.780  18.915   2.650
68392W        W39921  44.900  42.556  13.001
68393W        W39922  36.134  30.225  11.652
68394W        W39923  31.555  39.014  13.500
68395W        W39924  31.948   9.352  14.568
68396W        W39925  43.099  35.389  14.474
68397W        W39926  20.642  30.595   0.929
68398W        W39927  13.818  28.583  10.609
68399W        W39928  13.379  18.555   0.659
68400W        W39929  39.273  20.210   3.122
68401W        W39930  24.793  31.182   0.627
68402W        W39931  41.986  28.172  14.314
68403W        W39932  23.909  40.174   4.884
68404W        W39933  19.967  14.509  11.245
68405W        W39934  40.007   5.380   1.442
68406W        W39935  14.430  44.716   2.318
68407W        W39936   3.220  38.253  11.989
68408W        W39937  11.728  35.880   3.626
68409W        W39938  39.421   6.707   0.552
68410W        W39939  35.478   0.493   3.368
68411W        W39940  35.373  30.583  12.901
68412W        W39941  16.660  35.375   4.627
68413W        W39942  13.243  25.621   3.720
68414W        W39943  24.170  33.240   1.977
68415W        W39944  19.263  24.022  13.002
68416W        W39945  26.620  11.665  13.413
68417W        W39946  10.748  15.604  12.085
68418W        W39947  22.614  18.792   3.917
68419W        W39948  17.359  12.934  12.903
68420W        W39949   8.501   1.458  10.512
68421W        W39950  39.777  24.489   1.921
68422W        W39951   6.257   7.545  13.882
68423W        W39952  14.175  39.375   4.844
68424W        W39953   4.767  43.444   4.567
68425W        W39954   6.506  12.342  10.593
68426W        W39955   3.525  17.572   0.478
68427W        W39956  19.406   0.953  11.030
68428W        W39957  33.540   3.316   5.058
68429W        W39958  35.094  17.158  12.115
68430W        W39959  15.556  19.064  14.002
68431W        W39960  23.506   5.763  14.434
68432W        W39961  11.766  17.731   3.644
68433W        W39962  14.862  17.413   0.329
68434W        W39963  23.123  14.016  13.564
68435W        W39964  35.899  17.676  11.577
68436W        W39965  26.143   5.174  12.921
68437W        W39966  44.002  32.314  14.069
68438W        W39967   9.427  23.641   3.642
68439W        W39968   8.757  41.035   0.204
68440W        W39969  17.329  33.033  13.304
68441W        W39970  27.347  29.713  12.537
68442W        W39971   6.564  11.452   1.404
68443W        W39972   0.220  18.171   2.358
68444W        W39973   9.641  29.075  13.377
68445W        W39974  33.022  44.204   3.577
68446W        W39975  32.511   0.520  13.594
68447W        W39976  12.114  40.262   0.438
68448W        W39977  31.371   3.923  13.003
68449W        W39978  35.114  12.516   4.121
68450W        W39979  42.680  18.052   3.247
68451W        W39980   1.525  36.275  10.688
68452W        W39981  13.189  38.807  12.929
68453W        W39982   3.765  40.886   3.259
68454W        W39983  21.569  23.152   1.721
68455W        W39984  19.698  41.261   2.346
68456W        W39985  19.781  20.011   2.434
68457W        W39986  26.896  32.602  10.686
68458W        W39987  17.671   9.182  13.562
68459W        W39988  12.352  23.316  13.433
68460W        W39989  21.692   7.250  10.976
68461W        W39990  21.050  15.711  12.177
68462W        W39991  26.924   2.077   1.882
68463W        W39992  12.109  38.121   1.260
68464W        W39993   2.736  16.837   0.737
68465W        W39994   7.899   8.164  14.441
68466W        W39995  21.710  40.568   0.255
68467W        W39996  42.810  44.805   3.339
68468W        W39997   6.480  29.017   0.448
68469W        W39998  10.620  16.766   1.885
68470W        W39999  11.292   1.779   0.733
68471W        W40000  18.244   8.118  12.135
68472W        W40001  13.813   5.477   3.259
68473W        W40002   8.355  43.217   0.009
68474W        W40003  33.345  14.870   2.379
68475W        W40004  19.135  10.109   4.135
68476W        W40005  43.462  41.135  11.888
68477W        W40006  35.147  32.547   0.725
68478W        W40007  16.751  17.537  11.953
68479W        W40008  14.460  35.141   3.895
68480W        W40009  11.321  41.314   4.313
68481W        W40010   3.853   8.308   0.380
68482W        W40011  11.608  26.009   4.701
68483W        W40012  23.579  35.868   3.091
68484W        W40013  18.074  41.826   3.371
68485W        W40014   4.190   1.498   3.787
68486W        W40015   2.252  10.294  11.852
68487W        W40016  37.675   7.587  14.258
68488W        W40017  19.999  28.611   2.329
68489W        W40018   3.488   6.742   4.249
68490W        W40019  43.279  31.374   2.820
68491W        W40020   7.687  18.447   2.206
68492W        W40021  30.982   0.363  12.781
68493W        W40022  30.533  36.650   1.740
68494W        W40023  14.186  19.588  14.466
68495W        W40024  10.313   8.185  13.512
68496W        W40025  33.282  32.480  13.347
68497W        W40026  20.820  43.853   1.451
68498W        W40027  33.569  28.949  14.970
68499W        W40028   1.519   5.353  11.386
68500W        W40029  12.354  40.294  14.419
68501W        W40030  31.826  23.158  13.484
68502W        W40031  23.016  30.827  13.273
68503W        W40032  27.479  27.634   2.359
68504W        W40033   0.723  21.085  13.240
68505W        W40034  17.776  33.814   0.965
68506W        W40035  33.050   9.915  12.873
68507W        W40036  17.146  42.892   4.414
68508W        W40037   6.387  26.804   0.813
68509W        W40038  40.523   5.306   3.322
68510W        W40039   5.706  10.250  13.866
68511W        W40040  27.748  19.496  14.717
68512W        W40041  18.286   7.212   4.260
68513W        W40042  18.276   6.310   1.588
68514W        W40043  37.079  28.916   3.904
68515W        W40044  26.870  10.118   3.376
68516W        W40045  36.482  40.210   4.587
68517W        W40046   7.984  12.250   3.655
68518W        W40047   6.773  10.221   2.439
68519W        W40048  20.831  17.857   4.065
68520W        W40049   4.130  17.116   2.403
68521W        W40050  37.353  27.796   5.270
68522W        W40051   7.754  39.020   0.882
68523W        W40052   1.555  43.454   1.392
68524W        W40053  17.246  41.333   3.358
68525W        W40054  42.397  18.221  12.981
68526W        W40055  12.783  29.318  11.229
68527W        W40056  30.197  21.637  14.041
68528W        W40057  38.063  31.833  11.159
68529W        W40058   4.952  42.530   2.405
68530W        W40059   7.398   9.818   3.663
68531W        W40060  22.249  19.796   2.702
68532W        W40061  35.937  23.674   0.317
68533W        W40062  34.841  29.643  12.443
68534W        W40063  17.815   9.877   0.980
68535W        W40064  21.604  13.809   2.798
68536W        W40065  29.011  10.733  14.736
68537W        W40066  25.197   3.527   1.047
68538W        W40067  37.042  15.802   0.554
68539W        W40068  21.001  43.433   1.199
68540W        W40069  42.806  32.001  11.932
68541W        W40070  41.508   6.025  11.263
68542W        W40071  28.138  18.369  11.793
68543W        W40072   8.238  28.415  12.483
68544W        W40073  33.612  14.295  14.448
68545W        W40074  25.091   4.740  11.622
68546W        W40075  24.673   3.938  13.325
68547W        W40076   5.506  13.773  11.217
68548W        W40077   0.415  13.869   2.707
68549W        W40078  14.785   5.422  13.792
68550W        W40079   3.118  28.697   4.788
68551W        W40080  15.341   3.898   0.228
68552W        W40081  15.408  43.495  13.327
68553W        W40082   8.295   0.323   4.639
68554W        W40083  17.562  36.549   2.669
68555W        W40084  19.276  40.283   3.871
68556W        W40085  27.700  24.928  10.474
68557W        W40086   5.086  22.280   2.657
68558W        W40087  43.966  36.018   3.415
68559W        W40088   7.208  26.212   0.250
68560W        W40089  31.619  39.749   0.984
68561W        W40090  17.223   6.673   4.988
68562W        W40091  33.344  13.390   4.027
68563W        W40092   6.617   6.301  12.121
68564W        W40093   0.964  39.994   2.676
68565W        W40094   9.062  11.660  14.902
68566W        W40095  29.751  29.195  10.362
68567W        W40096  37.418  44.569  12.450
68568W        W40097  23.633   2.664   3.576
68569W        W40098   2.271   8.407   3.122
68570W        W40099  15.018  42.328   2.701
68571W        W40100   4.855  40.633  12.040
68572W        W40101   1.489   8.255  14.232
68573W        W40102  14.602   2.380  14.989
68574W        W40103  14.721  16.216  14.899
68575W        W40104   1.911  26.055  12.209
68576W        W40105  43.640  39.407  11.107
68577W        W40106   2.750  24.175   3.584
68578W        W40107   1.580  16.000   1.482
68579W        W40108  14.268  21.373   2.213
68580W        W40109   6.142  28.011  14.308
68581W        W40110  41.350   8.610   2.708
68582W        W40111   5.734   8.933  11.924
68583W        W40112  21.770   7.017   3.195
68584W        W40113  22.964  17.373   4.480
68585W        W40114   5.538  33.170   0.810
68586W        W40115  18.561  28.492   2.795
68587W        W40116   8.187  24.004  13.102
68588W        W40117  38.315  43.725   3.137
68589W        W40118  17.326   7.907  11.192
68590W        W40119  15.412  21.525  11.453
68591W        W40120  15.023  42.980  11.063
68592W        W40121  44.912   9.670  13.431
68593W        W40122  42.565  10.885  11.979
68594W        W40123  33.609  39.538  14.000
68595W        W40124  38.214  27.529   2.105
68596W        W40125  23.405  27.073  10.603
68597W        W40126  30.280  13.783  11.572
68598W        W40127  13.132  39.273  13.131
68599W        W40128  32.505  30.694   4.044
68600W        W40129  44.168  19.593  13.046
68601W        W40130   1.942   5.850  10.560
68602W        W40131  21.527   4.288  13.519
68603W        W40132  23.989  41.468  12.929
68604W        W40133   7.685  24.121   1.932
68605W        W40134  10.767  36.400   0.691
68606W        W40135   9.264  33.437   0.088
68607W        W40136  25.773  26.058  11.606
68608W        W40137  28.373  25.586   4.416
68609W        W40138  24.035   4.256  10.723
68610W        W40139  39.524   2.511  12.804
68611W        W40140  19.333  21.653  13.488
68612W        W40141  35.724  21.200   2.290
68613W        W40142  25.080  20.877   3.172
68614W        W40143  42.988  42.269  14.472
68615W        W40144  11.551  38.975   1.215
68616W        W40145  24.199  31.244  13.499
68617W        W40146  30.141  30.039  11.662
68618W        W40147  41.312  32.702  12.479
68619W        W40148  11.584  24.172  14.261
68620W        W40149   6.176  11.326  14.702
68621W        W40150  34.971  42.033  11.460
68622W        W40151  11.832  36.338  10.565
68623W        W40152   0.918  38.019  12.022
68624W        W40153  31.065   9.098  14.226
68625W        W40154  15.710  11.823  13.209
68626W        W40155  27.211   4.250  14.851
68627W        W40156   1.357  41.539  14.081
68628W        W40157  34.056  43.345   4.634
68629W        W40158   8.655  12.394   0.311
68630W        W40159  35.591  27.659  14.161
68631W        W40160  38.436  36.835   2.866
68632W        W40161  17.331  30.237   2.455
68633W        W40162  43.745   7.809   0.511
68634W        W40163   2.500  19.254  11.795
68635W        W40164  28.248  33.041  14.367
68636W        W40165  20.237  10.664   2.755
68637W        W40166  20.526  22.000   0.395
68638W        W40167  33.062  42.468  12.150
68639W        W40168  18.557  32.497   4.837
68640W        W40169  16.471  29.031   2.149
68641W        W40170  26.084   8.630   1.389
68642W        W40171  39.487  27.449   2.780
68643W        W40172  41.977  37.289  11.904
68644W        W40173   4.499  18.008  11.909
68645W        W40174   4.503  34.516   4.315
68646W        W40175  32.901  16.818  12.640
68647W        W40176   0.292  44.514  12.856
68648W        W40177  10.628  43.026   0.704
68649W        W40178   4.827   3.753   4.729
68650W        W40179  25.274  10.366   1.804
68651W        W40180  17.055  17.774   3.905
68652W        W40181  33.094  43.676   4.491
68653W        W40182  24.199  39.578  12.599
68654W        W40183  30.509  26.963  11.234
68655W        W40184  29.012   9.077   4.090
68656W        W40185  12.798   8.206  11.984
68657W        W40186  32.882  23.446   3.167
68658W        W40187  34.288  27.039  10.904
68659W        W40188  27.510  30.642  12.365
68660W        W40189   4.493   2.433   1.890
68661W        W40190  39.080  42.202  10.273
68662W        W40191   6.293  37.988   3.397
68663W        W40192  32.650   2.146  13.438
68664W        W40193  43.340  16.565   2.120
68665W        W40194  41.052  15.266  13.983
68666W        W40195  17.814  39.589   4.263
68667W        W40196  43.835  38.812   4.256
68668W        W40197  27.301   6.451   0.521
68669W        W40198  44.354  10.219   5.161
68670W        W40199  18.833  32.884   3.675
68671W        W40200   5.700  26.891   4.637
68672W        W40201  36.397  21.268  10.762
68673W        W40202  27.531  15.155   2.251
68674W        W40203  38.809  25.742  11.552
68675W        W40204  29.556   6.147   1.499
68676W        W40205   1.225  35.523  13.920
68677W        W40206  28.853  19.895   2.244
68678W        W40207  16.841  23.209  14.389
68679W        W40208  37.154   5.982   2.724
68680W        W40209   2.080   4.374   3.223
68681W        W40210  16.693  19.066   2.641
68682W        W40211  22.811  40.904  13.470
68683W        W40212  12.230  18.482   1.364
68684W        W40213  21.215  37.766   0.807
68685W        W40214  32.857  15.526   3.654
68686W        W40215  26.703  30.391   1.418
68687W        W40216  14.089  22.005  11.032
68688W        W40217   6.911   0.031  14.232
68689W        W40218  10.301  39.420   0.233
68690W        W40219  40.590  26.702   1.313
68691W        W40220  14.712  18.521  12.970
68692W        W40221   4.338  12.907   2.390
68693W        W40222  29.240  12.629  12.467
68694W        W40223  14.098  36.842  13.433
68695W        W40224   5.668   1.793   1.667
68696W        W40225  15.470  22.053  11.523
68697W        W40226  20.100   5.377  13.125
68698W        W40227  34.850   9.766  12.458
68699W        W40228  10.356  12.055   1.906
68700W        W40229  24.468  36.945  13.233
68701W        W40230  26.644  44.489  13.967
68702W        W40231  39.508  36.503   4.323
68703W        W40232  13.048  22.927  14.898
68704W        W40233   3.159  10.361   3.731
68705W        W40234  18.112  40.348   0.346
68706W        W40235  40.618   9.021   1.316
68707W        W40236   1.451  32.946   3.593
68708W        W40237   4.694  39.067   5.248
68709W        W40238  23.687  30.475  13.847
68710W        W40239  14.056  24.430   1.186
68711W        W40240   8.170  15.166   2.645
68712W        W40241  16.453   8.963   0.472
68713W        W40242  24.765  25.788  13.942
68714W        W40243   8.949  20.874   4.188
68715W        W40244   7.873  13.755  13.137
68716W        W40245   8.798  18.208  13.319
68717W        W40246  40.927  22.688  10.936
68718W        W40247   4.203  10.878  14.466
68719W        W40248   5.820  43.259  14.005
68720W        W40249   6.681  34.599  12.441
68721W        W40250  33.079  29.183  11.587
68722W        W40251  34.323  23.733  12.069
68723W        W40252   0.446  34.437   0.624
68724W        W40253  44.768  36.354   0.418
68725W        W40254  44.101   8.727   0.395
68726W        W40255  44.248  34.429   3.349
68727W        W40256  30.766  34.098   1.754
68728W        W40257  13.410  26.955  14.562
68729W        W40258  16.428  27.437   0.899
68730W        W40259  41.921  39.115   0.730
68731W        W40260  40.947  21.533  14.807
68732W        W40261  43.547   0.466  14.746
68733W        W40262  31.084  32.465   1.232
68734W        W40263  23.730  36.091  12.175
68735W        W40264  41.033  24.900   3.687
68736W        W40265  12.211  29.921   4.110
68737W        W40266  36.057  10.027  13.725
68738W        W40267  37.418  32.324   1.698
68739W        W40268  15.715  27.769  13.582
68740W        W40269  33.534  24.167  13.983
68741W        W40270  29.975   4.411   0.674
68742W        W40271  10.411  32.407   4.567
68743W        W40272  10.101  44.353  14.310
68744W        W40273  18.694   7.228  10.305
68745W        W40274  18.656   6.337  11.528
68746W        W40275  44.191   2.260  10.654
68747W        W40276  18.712  32.932  11.480
68748W        W40277  39.289  42.155   0.739
68749W        W40278  40.657  22.191  11.602
68750W        W40279  20.016  32.101  11.947
68751W        W40280  38.090  31.196   3.284
68752W        W40281  12.640  12.766  13.819
68753W        W40282   0.071  36.409  10.695
68754W        W40283   0.814   3.992  12.601
68755W        W40284   7.812   8.202   0.822
68756W        W40285  30.291  26.788  12.099
68757W        W40286  22.550  28.660   4.152
68758W        W40287   9.205   7.687  14.953
68759W        W40288  16.241  25.163  11.500
68760W        W40289  18.188   9.170  11.340
68761W        W40290  33.842   2.017   0.384
68762W        W40291   9.197  43.705  11.660
68763W        W40292   5.623   6.887  10.678
68764W        W40293  37.874  19.661   1.927
68765W        W40294  27.090  36.174   4.322
68766W        W40295   6.967  20.177   2.341
68767W        W40296  44.319  27.222   3.388
68768W        W40297  24.935  27.627   1.211
68769W        W40298  40.153  26.740   1.623
68770W        W40299  26.995  36.514   0.936
68771W        W40300  25.658   4.750  11.588
68772W        W40301  25.460  22.267   3.101
68773W        W40302  43.770  28.508   2.703
68774W        W40303  38.405  10.476   1.748
68775W        W40304  42.015  33.702   1.041
68776W        W40305  44.262  16.196   4.492
68777W        W40306  39.883   4.845   3.635
68778W        W40307  11.701  29.986  12.872
68779W        W40308  27.411  24.180   2.646
68780W        W40309  15.726   5.410   0.295
68781W        W40310  13.094  21.591   4.670
68782W        W40311  20.744   0.641  14.050
68783W        W40312  34.395   3.548  10.659
68784W        W40313  13.604  29.175  13.234
68785W        W40314  43.027  36.392  14.658
68786W        W40315   7.341  39.352  13.533
68787W        W40316  12.716  19.172  14.356
68788W        W40317  33.433  25.786  14.839
68789W        W40318  36.571  12.381   2.261
68790W        W40319   3.889  43.042  11.803
68791W        W40320  24.020  38.841   3.821
68792W        W40321  14.534   8.167  13.894
68793W        W40322  28.962  10.192  13.359
68794W        W40323  33.011  13.579   3.680
68795W        W40324   1.436  14.223   3.597
68796W        W40325   7.013   2.947  11.617
68797W        W40326  20.588   4.761  11.080
68798W        W40327   9.726   8.278   2.398
68799W        W40328  28.121   0.987  11.050
68800W        W40329  18.267  39.929   1.570
68801W        W40330  40.983  27.679  14.690
68802W        W40331  19.659   7.989   1.057
68803W        W40332   4.465   0.876  13.289
68804W        W40333  16.603  28.949   3.529
68805W        W40334  31.401  44.879  14.945
68806W        W40335  40.564  29.908  13.781
68807W        W40336  34.968  24.210  11.762
68808W        W40337   0.720  20.562  13.933
68809W        W40338  40.883   9.210   3.162
68810W        W40339  40.239  12.169  13.419
68811W        W40340  15.338  15.342  11.090
68812W        W40341  20.647   6.711  14.337
68813W        W40342  38.875  13.317   1.256
68814W        W40343  18.606   1.197   2.454
68815W        W40344  14.611  24.203  13.508
68816W        W40345  25.720  44.868   3.676
68817W        W40346  41.296  30.070   2.773
68818W        W40347   6.845  25.032  14.897
68819W        W40348  27.149   6.937  13.757
68820W        W40349  20.208  23.691   2.822
68821W        W40350  40.079  24.463  14.329
68822W        W40351  13.678  39.422   3.051
68823W        W40352  36.049  28.954  13.800
68824W        W40353  23.940  40.254   1.932
68825W        W40354   7.986  25.836  13.024
68826W        W40355  21.374  22.079   0.792
68827W        W40356  24.736  40.469   3.265
68828W        W40357  19.597  26.530   3.908
68829W        W40358  39.564  24.110  10.769
68830W        W40359  16.256  31.184   1.282
68831W        W40360   4.837  20.635  13.715
68832W        W40361  32.005   6.095   2.684
68833W        W40362  39.928  40.553  12.968
68834W        W40363  21.711  37.602  12.012
68835W        W40364  22.949  42.104   5.184
68836W        W40365  25.119  40.012   0.821
68837W        W40366   5.840  14.187  12.162
68838W        W40367  29.950  42.768   0.041
68839W        W40368  23.949   3.125  10.848
68840W        W40369   3.712  42.585  14.200
68841W        W40370  31.311  37.957   4.565
68842W        W40371  11.209   9.132   0.389
68843W        W40372   9.433  35.193  11.034
68844W        W40373   4.476  28.221  14.001
68845W        W40374  42.003   0.196   2.936
68846W        W40375  14.691  44.027  13.917
68847W        W40376  36.267   8.706   1.261
68848W        W40377  36.853  32.031   2.273
68849W        W40378  40.915  35.462  10.756
68850W        W40379  12.794   0.786  12.068
68851W        W40380  33.446  38.943   4.576
68852W        W40381  15.506  39.960   4.229
68853W        W40382  43.539  25.063   0.606
68854W        W40383  20.680   9.453  11.522
68855W        W40384  41.436   4.477   2.910
68856W        W40385  29.294  18.964   2.807
68857W        W40386  23.206  32.925   4.535
68858W        W40387   2.053  33.962   0.917
68859W        W40388  13.700   0.852   4.220
68860W        W40389  37.084  30.898   3.254
68861W        W40390   6.276   2.770   3.583
68862W        W40391  43.732   7.329  11.606
68863W        W40392  35.719  20.162  14.871
68864W        W40393  19.482  25.312  14.783
68865W        W40394   1.753  44.343  13.982
68866W        W40395  17.183  38.310  12.902
68867W        W40396  16.867   6.386   0.029
68868W        W40397  27.267  31.264  13.501
68869W        W40398  33.158  23.658   1.758
68870W        W40399   6.607  25.103   4.791
68871W        W40400  36.136  33.088  13.475
68872W        W40401  21.029  34.539  12.082
68873W        W40402   4.050  38.856  12.876
68874W        W40403  23.763  11.214  14.724
68875W        W40404  42.289  26.224  10.430
68876W        W40405  38.355   5.545   3.591
68877W        W40406  17.804   0.018  13.359
68878W        W40407  23.770  40.456  12.482
68879W        W40408  30.555  30.260   0.827
68880W        W40409  42.125   5.760   0.950
68881W        W40410  24.306  44.246  12.944
68882W        W40411  34.819  22.915   3.342
68883W        W40412  41.464  14.676   1.046
68884W        W40413  34.316  28.502  12.912
68885W        W40414  32.640  43.366  11.598
68886W        W40415  17.138  29.755   2.449
68887W        W40416   0.288  36.603   1.974
68888W        W40417  24.548  33.986  12.519
68889W        W40418  16.852  33.303  14.070
68890W        W40419  21.913  12.964  11.123
68891W        W40420  42.379  14.045  14.752
68892W        W40421  19.187   2.550  11.133
68893W        W40422  14.192  14.240   3.730
68894W        W40423  31.499  39.153   4.283
68895W        W40424  11.357  27.208  11.548
68896W        W40425  28.585  13.554  14.892
68897W        W40426  10.851  40.810  12.353
68898W        W40427  22.979  24.899   0.633
68899W        W40428  43.085  20.609   0.336
68900W        W40429  43.777   2.562   1.781
68901W        W40430   0.636   5.309   2.179
68902W        W40431  34.566  30.613  13.357
68903W        W40432  17.722  43.383  14.834
68904W        W40433  43.761  33.476  12.432
68905W        W40434  31.418  27.070  12.907
68906W        W40435   6.327  13.667   0.649
68907W        W40436  20.238  10.144   2.808
68908W        W40437  39.619  28.757  11.207
68909W        W40438  15.222  12.007   2.708
68910W        W40439  21.692  28.192   0.437
68911W        W40440  36.934   9.213   0.347
68912W        W40441   0.472  14.365  11.158
68913W        W40442  35.275   8.789  10.306
68914W        W40443   7.808   6.127   1.678
68915W        W40444  26.201  12.729   1.436
68916W        W40445  37.987  25.003   1.022
68917W        W40446  22.862  12.727   4.104
68918W        W40447   2.439  26.641   2.761
68919W        W40448  22.214  17.212   0.246
68920W        W40449  39.540  15.167  12.079
68921W        W40450  36.809  16.072   2.826
68922W        W40451  40.528  41.733  12.795
68923W        W40452  27.262   4.149  12.868
68924W        W40453   1.991  43.890   1.712
68925W        W40454   7.932  21.707   0.268
68926W        W40455  39.117  24.971  14.319
68927W        W40456  26.242  12.705   2.337
68928W        W40457  38.996  33.948  12.870
68929W        W40458  23.277  31.972  14.528
68930W        W40459  24.409   0.451   4.117
68931W        W40460  44.694  13.567  10.660
68932W        W40461  44.229  10.288   3.592
68933W        W40462  17.242  11.773  13.046
68934W        W40463  38.899  38.590  12.526
68935W        W40464  26.026  36.923   3.263
68936W        W40465  16.092   1.269   0.251
68937W        W40466  36.082  30.045   4.595
68938W        W40467  38.454  13.781  11.997
68939W        W40468  18.507  26.145   1.975
68940W        W40469  38.053   6.221  13.699
68941W        W40470  40.133  22.620   1.711
68942W        W40471  24.603  10.400   1.505
68943W        W40472  15.181   4.818   5.161
68944W        W40473  26.484  41.041   3.560
68945W        W40474  21.298  40.011   2.739
68946W        W40475  33.140  40.101   4.672
68947W        W40476   9.197  27.668   3.516
68948W        W40477   5.666  38.406  12.171
68949W        W40478  37.046  16.356   2.450
68950W        W40479  20.537  42.425   4.061
68951W        W40480   0.438  27.428  13.670
68952W        W40481   9.120  11.685  10.812
68953W        W40482  39.805  26.984  11.215
68954W        W40483  16.679   4.946  11.956
68955W        W40484  21.392  23.938   1.304
68956W        W40485  43.253   1.244  12.523
68957W        W40486  14.891  43.004   3.837
68958W        W40487   7.033  33.132   0.943
68959W        W40488  37.405  38.578   4.203
68960W        W40489  24.402  41.846   3.623
68961W        W40490  38.393  32.632  12.621
68962W        W40491  36.599  37.367   3.218
68963W        W40492  37.620  22.950   2.712
68964W        W40493  44.237  41.297   4.607
68965W        W40494  34.456  41.962  10.816
68966W        W40495  42.318  22.539   2.550
68967W        W40496  33.418  19.134  11.076
68968W        W40497  40.381   7.770  13.859
68969W        W40498  15.212  42.800  13.957
68970W        W40499  13.286   2.121  11.361
68971W        W40500  16.496   0.664   0.322
68972W        W40501   6.374  16.658  12.957
68973W        W40502  34.275  10.617   0.358
68974W        W40503  34.030  30.243   1.542
68975W        W40504  14.493  15.006  11.066
68976W        W40505  39.321  20.806  13.849
68977W        W40506   2.021   7.757  14.738
68978W        W40507  23.981  16.689  13.005
68979W        W40508   4.960  10.542  13.886
68980W        W40509  39.030  38.985   4.652
68981W        W40510  24.710  41.366  11.019
68982W        W40511  16.928  36.853   4.492
68983W        W40512  30.690  12.740   3.383
68984W        W40513  20.824  24.892  13.219
68985W        W40514  34.143  22.930  14.041
68986W        W40515  33.223  18.911   4.977
68987W        W40516   0.796  16.768   1.780
68988W        W40517  26.115  18.771   2.324
68989W        W40518  14.595  17.530  10.629
68990W        W40519  30.894   0.149   0.739
68991W        W40520   9.942  18.299   2.611
68992W        W40521   7.742  36.960  11.099
68993W        W40522  17.327  39.523  11.389
68994W        W40523   9.395  29.040  13.852
68995W        W40524  12.597   1.732  12.039
68996W        W40525   2.909  29.003   2.657
68997W        W40526  44.482   0.460  11.442
68998W        W40527   7.909   0.446  10.563
68999W        W40528  16.723  42.398  14.985
69000W        W40529  22.532   3.291  12.445
69001W        W40530  24.571  42.870   4.097
69002W        W40531  27.484  16.289   3.177
69003W        W40532  37.998  13.400  10.731
69004W        W40533  16.037  33.375  13.431
69005W        W40534  18.033  41.619  11.161
69006W        W40535  13.130  15.079  13.380
69007W        W40536  35.437  37.884  13.599
69008W        W40537  24.943  27.982  10.828
69009W        W40538  27.154  30.657   3.622
69010W        W40539  16.194  39.302   0.961
69011W        W40540  30.076   7.954   3.886
69012W        W40541  18.235  41.543  11.616
69013W        W40542  43.198  10.334   2.776
69014W        W40543   3.451  19.105  13.006
69015W        W40544  39.446  42.379  13.133
69016W        W40545  28.520  12.611   3.513
69017W        W40546  39.277   9.397  10.948
69018W        W40547  21.186   5.829   1.940
69019W        W40548  15.665  40.024   3.730
69020W        W40549  44.276  29.343  13.626
69021W        W40550  35.863   4.767  14.304
69022W        W40551   3.478  20.608   3.325
69023W        W40552  28.643  24.914   2.498
69024W        W40553  27.106  17.377   1.677
69025W        W40554   7.350  24.269  14.770
69026W        W40555  11.380  44.318  12.524
69027W        W40556   6.418   9.320   2.264
69028W        W40557  44.428   7.161  13.440
69029W        W40558  11.962  23.134   3.730
69030W        W40559  14.367  22.724   5.063
69031W        W40560  33.444  19.355   3.690
69032W        W40561  33.985   2.270   3.229
69033W        W40562   4.283  36.437   4.380
69034W        W40563  29.354   5.184   3.711
69035W        W40564  43.434  39.113  14.849
69036W        W40565  44.619  42.296  11.183
69037W        W40566  11.991  27.759  14.928
69038W        W40567  15.037   8.638  12.817
69039W        W40568  40.031   9.344   2.621
69040W        W40569  28.725   6.717   4.667
69041W        W40570   0.368  42.356  10.701
69042W        W40571  31.542   9.053  14.622
69043W        W40572   8.749   6.876  13.289
69044W        W40573  40.971  34.791   0.973
69045W        W40574   0.165   1.408  11.752
69046W        W40575  16.641  17.147   1.299
69047W        W40576  29.174  28.454  12.013
69048W        W40577  41.884  44.208   3.782
69049W        W40578   9.783  24.702   3.117
69050W        W40579   9.135  38.081  13.360
69051W        W40580  25.065  29.621   2.484
69052W        W40581  16.117   0.267  11.497
69053W        W40582  32.998  23.751  11.098
69054W        W40583  42.683  13.604  13.077
69055W        W40584  21.123  11.439   2.777
69056W        W40585  23.707  16.646  14.870
69057W        W40586  12.102  12.667   0.494
69058W        W40587  12.268  12.919  12.994
69059W        W40588  41.359  19.756  12.646
69060W        W40589  40.339   4.668   3.765
69061W        W40590  24.045  10.696  11.153
69062W        W40591  28.939  44.493   3.098
69063W        W40592  11.643  13.699   3.247
69064W        W40593  25.474   7.268   3.648
69065W        W40594  25.443  17.157   1.480
69066W        W40595  19.006  33.964   1.267
69067W        W40596  37.421  41.108  11.463
69068W        W40597  19.532   0.757  12.514
69069W        W40598  36.665   9.836   4.187
69070W        W40599  37.126  16.286  14.818
69071W        W40600  20.615   6.484  13.626
69072W        W40601   7.143   9.779   1.242
69073W        W40602  23.761  15.845   2.335
69074W        W40603  22.646  25.765   3.271
69075W        W40604   5.558  13.617  11.798
69076W        W40605   3.069  11.825  11.493
69077W        W40606  25.566  10.689   5.080
69078W        W40607  28.928  15.777  12.132
69079W        W40608  10.589   7.281  14.460
69080W        W40609  41.534  15.260   0.311
69081W        W40610   2.480  44.858  11.535
69082W        W40611  15.009  28.148  12.766
69083W        W40612  20.696  44.635  13.932
69084W        W40613   0.982  13.798   1.484
69085W        W40614  19.773  34.833   1.263
69086W        W40615  14.171  30.417  12.632
69087W        W40616  31.124  10.543  12.574
69088W        W40617  33.393  27.643  12.003
69089W        W40618  28.612  36.420  13.324
69090W        W40619  35.020  14.549   1.222
69091W        W40620   8.833  17.309  12.011
69092W        W40621  24.118   1.284  13.855
69093W        W40622   4.842  16.256   4.550
69094W        W40623  15.032  28.508   3.814
69095W        W40624  26.184  41.496  11.577
69096W        W40625  27.984  11.040  12.803
69097W        W40626  19.759   8.255   2.560
69098W        W40627  20.263  11.265  12.646
69099W        W40628   6.981  12.736  12.465
69100W        W40629   5.456   0.028  14.565
69101W        W40630  17.520  15.808  12.562
69102W        W40631  11.475  33.945  13.513
69103W        W40632  15.661  42.030   1.773
69104W        W40633  28.917  41.981  14.437
69105W        W40634  13.332  34.621   4.336
69106W        W40635  42.598  38.334   4.009
69107W        W40636  23.296  37.077  11.586
69108W        W40637  14.350   1.822   0.018
69109W        W40638  15.621   5.338   1.746
69110W        W40639  37.476  42.090   4.424
69111W        W40640   3.864  18.010  11.595
69112W        W40641  26.467  37.407  14.405
69113W        W40642  17.857  19.250  11.459
69114W        W40643  19.312  38.544   0.833
69115W        W40644  18.009  18.327   4.020
69116W        W40645  39.020  26.792   3.964
69117W        W40646  44.573  13.562  13.993
69118W        W40647  39.832  19.539  13.407
69119W        W40648  15.126  25.295   3.740
69120W        W40649  33.074  44.931  11.972
69121W        W40650  12.279  16.827  10.738
69122W        W40651  35.630   2.571   4.156
69123W        W40652  43.052   3.683  11.140
69124W        W40653  33.083  39.395  11.505
69125W        W40654  11.890  15.703  13.883
69126W        W40655  35.032   8.860  11.228
69127W        W40656  33.320  43.922   1.312
69128W        W40657  39.676  32.794   2.255
69129W        W40658  28.725  21.169   0.877
69130W        W40659   4.232  20.172  11.591
69131W        W40660  43.312  28.999   0.426
69132W        W40661  40.021  11.232  11.594
69133W        W40662  13.098  42.849   4.809
69134W        W40663  20.998  10.063  13.009
69135W        W40664  38.876  33.496   1.490
69136W        W40665  12.196   0.995  14.473
69137W        W40666  10.053  34.375   2.263
69138W        W40667  25.630  24.047  13.387
69139W        W40668  31.646  42.522   4.202
69140W        W40669   8.277   9.350  14.960
69141W        W40670  35.691  43.891  12.176
69142W        W40671  35.953  18.219  12.371
69143W        W40672  18.624   1.468   2.900
69144W        W40673  41.820  34.894  12.579
69145W        W40674  43.757  44.356  14.981
69146W        W40675  32.848  27.497  13.974
69147W        W40676  12.106  22.725   0.873
69148W        W40677  40.531  19.271  13.382
69149W        W40678  28.015   5.894   0.268
69150W        W40679  37.486  21.814  14.978
69151W        W40680  16.746  21.133  14.261
69152W        W40681  19.365   5.382  12.405
69153W        W40682  35.254  21.065   2.392
69154W        W40683  39.855   6.113  10.521
69155W        W40684  39.678  13.329  14.573
69156W        W40685  44.005   4.906  12.034
69157W        W40686  33.481  22.508   2.193
69158W        W40687  41.557  14.721  13.505
69159W        W40688   6.106   6.152  13.008
69160W        W40689  15.606  37.717   3.646
69161W        W40690  32.518  42.825  11.055
69162W        W40691  30.223   2.852   4.609
69163W        W40692   9.920   2.760  12.031
69164W        W40693  32.830  19.713  13.885
69165W        W40694  27.572   6.168   0.865
69166W        W40695   6.151  12.213   0.221
69167W        W40696  27.259  26.987   5.061
69168W        W40697  41.537  43.300   0.832
69169W        W40698   1.413  15.583   2.758
69170W        W40699  15.592  13.383   4.513
69171W        W40700  10.812  16.741  10.691
69172W        W40701  40.295  29.626   4.547
69173W        W40702  20.751  38.831  11.627
69174W        W40703  13.566   7.323  10.808
69175W        W40704  20.573  17.369   2.740
69176W        W40705  33.592  33.934  12.345
69177W        W40706  43.988  41.575  14.759
69178W        W40707  41.448  17.291  11.946
69179W        W40708  12.749  36.007   3.265
69180W        W40709  13.275  32.962   4.938
69181W        W40710  13.584   7.795   2.996
69182W        W40711  43.876  26.526   3.623
69183W        W40712  22.495   0.654   1.471
69184W        W40713  23.259  16.277  13.043
69185W        W40714  11.146  38.850  12.299
69186W        W40715  15.710  28.192  10.718
69187W        W40716  33.655  43.651  14.426
69188W        W40717  14.992  39.964   4.364
69189W        W40718   8.060  27.865  12.610
69190W        W40719  44.874  19.922  13.396
69191W        W40720  23.711  28.471  10.656
69192W        W40721  18.692   2.783   0.981
69193W        W40722  37.333  43.685   2.721
69194W        W40723  16.321   7.203  10.361
69195W        W40724   0.758  31.278   0.097
69196W        W40725  19.310  33.981  10.632
69197W        W40726  26.672  43.901  12.067
69198W        W40727  24.113  14.611   2.369
69199W        W40728  29.039  27.397   2.334
69200W        W40729  35.485  14.631   2.604
69201W        W40730  31.033  28.201   3.714
69202W        W40731  19.280  43.416   3.482
69203W        W40732   8.377  33.575  10.704
69204W        W40733  16.508  34.489  11.655
69205W        W40734   8.896  20.385   4.287
69206W        W40735  19.036  25.633  11.660
69207W        W40736  20.641  12.375   2.853
69208W        W40737  15.726  39.687  10.042
69209W        W40738  35.352  28.624  10.672
69210W        W40739  23.923   8.146  12.578
69211W        W40740  17.417   3.855   3.621
69212W        W40741  42.189  38.592   3.464
69213W        W40742  11.806  14.601   4.080
69214W        W40743  12.328  43.033   2.263
69215W        W40744  36.705  27.444   0.826
69216W        W40745  10.691  35.267  12.820
69217W        W40746  31.152   4.104   1.279
69218W        W40747  16.308  27.009   2.373
69219W        W40748  44.583  38.058   3.656
69220W        W40749  36.405  35.789   1.485
69221W        W40750  32.620   0.974  11.495
69222W        W40751  20.105  19.949   1.335
69223W        W40752  35.065   8.884  11.727
69224W        W40753  43.263  40.924  14.744
69225W        W40754  18.230   9.600   5.113
69226W        W40755  16.491  28.526   3.196
69227W        W40756  30.540   3.738  13.414
69228W        W40757   5.959   2.919  12.854
69229W        W40758  25.113  35.491   4.387
69230W        W40759  16.212  41.058   1.924
69231W        W40760  37.852  17.841   4.617
69232W        W40761  37.612  15.544   1.907
69233W        W40762  36.600  28.851   1.820
69234W        W40763  20.246  34.595   2.389
69235W        W40764  21.086   5.740   0.411
69236W        W40765   6.474  36.695   3.801
69237W        W40766  18.046  32.241   1.793
69238W        W40767   2.948  11.298   1.414
69239W        W40768  14.427  20.373  12.894
69240W        W40769  29.503   2.144   3.836
69241W        W40770   9.107  33.172  12.377
69242W        W40771  38.329  21.673   2.294
69243W        W40772  25.713  26.041  10.457
69244W        W40773   8.028   4.875  10.607
69245W        W40774   9.379   3.776  14.851
69246W        W40775  14.198  28.456   4.614
69247W        W40776  15.690  18.290   3.311
69248W        W40777  11.165  24.540  13.444
69249W        W40778  35.506   8.157   1.965
69250W        W40779  20.721  15.982   2.450
69251W        W40780  37.343  19.853  13.511
69252W        W40781  30.340  14.150  12.942
69253W        W40782  21.741   7.283  13.017
69254W        W40783  16.204  16.777  14.017
69255W        W40784  14.812  14.597  10.730
69256W        W40785   2.030  10.267  10.583
69257W        W40786  20.155  26.038   4.052
69258W        W40787  27.499  31.645   2.134
69259W        W40788  20.751  23.234  13.718
69260W        W40789  41.532  18.108   0.388
69261W        W40790  20.729  26.090  11.907
69262W        W40791  10.687  36.576  14.305
69263W        W40792  32.582   2.774   4.648
69264W        W40793   2.374   8.224  12.566
69265W        W40794  24.797   6.459   4.064
69266W        W40795  39.892  35.329  10.427
69267W        W40796  13.427  33.582   9.923
69268W        W40797  26.284  43.980   3.206
69269W        W40798   1.564  17.264  12.380
69270W        W40799  15.674  20.726   3.340
69271W        W40800   9.760  14.266   3.676
69272W        W40801  19.769  40.986   3.153
69273W        W40802  34.502  17.745   3.686
69274W        W40803  14.447  32.536   4.522
69275W        W40804   6.055  21.010   0.486
69276W        W40805  44.508  31.514   0.781
69277W        W40806  19.013  33.504  10.524
69278W        W40807   2.714  38.573   2.831
69279W        W40808  25.091   4.494   4.774
69280W        W40809  38.405   1.684   2.431
69281W        W40810   4.525  16.149  12.497
69282W        W40811  28.227  16.696   0.786
69283W        W40812  14.199  19.489   4.050
69284W        W40813  30.100  44.098  14.313
69285W        W40814  17.857  35.906  11.489
69286W        W40815  29.631  27.709  11.557
69287W        W40816  11.226   9.002  12.528
69288W        W40817  32.058  33.539  14.256
69289W        W40818  36.254  32.653   3.925
69290W        W40819  40.334  11.659  11.521
69291W        W40820  23.140  36.530  10.637
69292W        W40821  41.034  28.111   0.888
69293W        W40822  37.601  31.568  13.053
69294W        W40823   1.516  41.444   2.850
69295W        W40824  10.156   2.903  14.294
69296W        W40825   7.116  42.633  14.443
69297W        W40826  18.222  37.561  12.501
69298W        W40827  43.270  36.442   3.479
69299W        W40828  41.367  13.056  10.651
69300W        W40829  17.095  12.201   4.804
69301W        W40830  25.026  39.049  13.712
69302W        W40831   2.137  20.254  10.543
69303W        W40832  18.635   2.895   1.492
69304W        W40833   6.930  44.317   1.381
69305W        W40834  37.593  23.134  13.769
69306W        W40835   2.812  39.531  13.680
69307W        W40836  22.499   8.339   1.819
69308W        W40837  25.152  23.494   4.274
69309W        W40838   5.839  34.082   0.338
69310W        W40839  39.390   8.087  12.920
69311W        W40840  20.073  36.419   1.873
69312W        W40841  39.875  33.395   0.888
69313W        W40842  41.347  16.479   1.495
69314W        W40843   9.443  12.266  11.343
69315W        W40844  22.047  11.986  14.353
69316W        W40845  44.436  31.441   2.354
69317W        W40846  35.316  12.650  14.834
69318W        W40847  43.220  16.172  12.123
69319W        W40848  35.118  36.785  14.855
69320W        W40849  10.744  37.617  14.216
69321W        W40850  40.945   0.285  13.766
69322W        W40851  31.113  20.992  10.054
69323W        W40852  20.863  31.588   0.455
69324W        W40853  32.157  25.568  13.956
69325W        W40854  29.538  14.833  11.973
69326W        W40855  19.532  10.147   3.304
69327W        W40856  20.682  37.573   3.860
69328W        W40857   0.435  37.780   3.253
69329W        W40858  10.631   5.348  14.932
69330W        W40859  32.136  29.688   2.351
69331W        W40860  17.574  27.965  11.224
69332W        W40861  16.052  15.126   3.912
69333W        W40862  34.437   5.748   3.683
69334W        W40863   5.759   0.528  12.468
69335W        W40864  33.368  15.234  11.259
69336W        W40865  40.039  18.191   1.302
69337W        W40866  14.321  39.293  11.254
69338W        W40867  26.272  27.895  11.118
69339W        W40868  40.037   8.760  11.192
69340W        W40869  29.907  26.223  13.020
69341W        W40870   8.190  33.422  11.171
69342W        W40871  33.758  38.711   4.995
69343W        W40872  22.797   4.981  14.288
69344W        W40873  27.184  39.646   3.755
69345W        W40874  13.181  29.313   2.215
69346W        W40875  29.084  32.021  10.005
69347W        W40876  33.848  11.386  13.504
69348W        W40877  39.390  37.929  13.588
69349W        W40878   1.882  38.739  13.514
69350W        W40879  22.246   0.947  10.768
69351W        W40880  21.987   2.050  14.945
69352W        W40881  22.565  23.842  10.592
69353W        W40882  17.131   6.660   1.902
69354W        W40883  19.245  20.493   2.363
69355W        W40884  21.672  42.231   3.261
69356W        W40885  30.309  44.543  11.745
69357W        W40886  35.859  44.469   3.723
69358W        W40887  20.006  26.720   4.500
69359W        W40888   6.803  13.688  14.873
69360W        W40889  21.664  22.584  10.902
69361W        W40890  41.364  23.118   4.606
69362W        W40891   7.748   6.878   0.475
69363W        W40892   0.260   8.164   3.637
69364W        W40893   6.716  39.843   0.219
69365W        W40894   7.934  25.562   1.245
69366W        W40895   7.737  17.679   1.734
69367W        W40896   4.762   7.118   0.752
69368W        W40897  16.554  38.056   1.501
69369W        W40898  11.367   3.277  13.203
69370W        W40899  26.080   9.138   3.631
69371W        W40900  43.172  21.547   2.490
69372W        W40901  22.861  24.988  11.361
69373W        W40902  13.959  13.260   1.237
69374W        W40903  32.941  12.156  11.817
69375W        W40904  35.306  44.282  12.429
69376W        W40905  10.912  32.800   4.223
69377W        W40906  24.015  31.531   1.367
69378W        W40907  31.132  33.421   2.187
69379W        W40908  41.088  10.211   0.015
69380W        W40909   2.743  22.201  13.919
69381W        W40910  26.234  22.168   3.588
69382W        W40911  42.994  17.805   4.941
69383W        W40912  44.945   7.799   1.369
69384W        W40913  29.864  38.785   2.824
69385W        W40914  42.780  21.225  13.359
69386W        W40915  11.753  44.574   0.591
69387W        W40916  23.780  32.434  12.192
69388W        W40917  36.843   4.592  11.079
69389W        W40918  20.559  30.431   1.961
69390W        W40919  13.656  11.783  11.566
69391W        W40920   9.339  30.137  14.132
69392W        W40921   8.028  34.543  11.444
69393W        W40922  39.940   0.837  13.539
69394W        W40923  37.354  40.003  14.307
69395W        W40924  24.567  20.767   3.201
69396W        W40925  27.290  20.903   2.912
69397W        W40926  24.417  24.296   4.306
69398W        W40927   1.837   4.245   2.765
69399W        W40928  10.830  10.028   3.956
69400W        W40929  16.159  26.463  13.997
69401W        W40930   8.068  17.568  14.445
69402W        W40931   6.128  20.760   1.240
69403W        W40932   0.311  39.621  14.403
69404W        W40933  26.950  41.430   4.321
69405W        W40934  28.239  16.747  11.151
69406W        W40935  32.584   9.145  12.394
69407W        W40936  32.075   4.386   4.367
69408W        W40937  15.278  32.872   4.578
69409W        W40938  24.238   1.814   2.780
69410W        W40939  17.515  35.493   1.762
69411W        W40940  14.681  18.759   0.923
69412W        W40941  31.198  17.077   0.563
69413W        W40942  30.634  42.432   2.194
69414W        W40943  18.535  15.667  14.025
69415W        W40944  19.206   5.181  10.671
69416W        W40945  36.540  26.676  13.934
69417W        W40946  36.481  41.726  11.763
69418W        W40947  37.086   4.817  13.861
69419W        W40948   1.892  30.970  11.441
69420W        W40949  42.180  20.343  11.614
69421W        W40950  36.509  15.665   0.752
69422W        W40951  43.522  28.935  10.289
69423W        W40952  12.143   9.888   3.229
69424W        W40953  12.629  29.806   2.723
69425W        W40954   2.223  44.362   0.773
69426W        W40955  13.932  30.423   4.539
69427W        W40956   3.368  42.620  12.589
69428W        W40957  12.331  19.690   2.437
69429W        W40958  10.361  40.038  12.098
69430W        W40959  29.459  11.272  12.557
69431W        W40960  18.007  28.924  14.447
69432W        W40961   7.399  11.108  13.064
69433W        W40962  17.194  42.787   3.372
69434W        W40963   6.650  27.100   4.407
69435W        W40964  30.555  20.445   1.040
69436W        W40965  11.550   6.278   4.585
69437W        W40966  44.256  17.307  10.515
69438W        W40967   0.868  14.040  11.212
69439W        W40968  44.304  10.578  11.603
69440W        W40969   7.626  32.659  12.571
69441W        W40970   5.813  26.717   0.694
69442W        W40971  33.051  26.935  11.880
69443W        W40972  32.647  42.278   1.930
69444W        W40973  43.676  18.551  12.187
69445W        W40974  15.698  10.221   2.418
69446W        W40975  29.621  28.941   1.297
69447W        W40976   4.916  36.884  13.646
69448W        W40977   2.624  32.397  11.123
69449W        W40978  42.787   9.725   0.988
69450W        W40979  40.789  16.005  12.980
69451W        W40980  35.029  42.279  14.599
69452W        W40981  18.480  37.486  14.761
69453W        W40982   9.616  44.493  13.058
69454W        W40983  24.516  38.371  12.245
69455W        W40984  11.838  28.008  10.705
69456W        W40985  13.768  22.994  12.615
69457W        W40986  32.733  33.772  11.336
69458W        W40987  37.399  23.129  12.046
69459W        W40988  19.531  34.061   3.220
69460W        W40989   1.019  37.529  14.421
69461W        W40990  29.883  15.920   4.943
69462W        W40991  20.847  23.330   4.101
69463W        W40992  15.650  27.163  11.617
69464W        W40993  11.480  38.155   3.610
69465W        W40994  26.588  20.154  10.975
69466W        W40995   8.452   6.834  12.856
69467W        W40996  43.069   8.761   0.489
69468W        W40997  39.167  24.268   4.082
69469W        W40998   4.567  28.815  11.483
69470W        W40999  33.678  22.791   0.241
69471W        W41000  44.108  32.291   3.693
69472W        W41001  22.939  33.053   2.253
69473W        W41002  23.252  31.154  10.412
69474W        W41003  36.703   9.419   3.632
69475W        W41004  25.652  29.074   5.300
69476W        W41005  17.631  14.674   1.493
69477W        W41006  33.998   3.233  10.547
69478W        W41007  14.731   0.791   2.345
69479W        W41008  44.699  29.571   4.626
69480W        W41009   1.530  27.070  14.051
69481W        W41010   7.080  11.769   2.947
69482W        W41011  24.715  19.268  10.805
69483W        W41012   9.304  40.392   1.369
69484W        W41013  21.436  20.139  12.005
69485W        W41014  38.653  13.729   1.503
69486W        W41015  35.623  11.855  12.631
69487W        W41016  43.817  17.138  12.975
69488W        W41017  24.728  40.525  13.372
69489W        W41018   0.809  44.333  13.008
69490W        W41019  23.244   8.932  12.338
69491W        W41020  43.020  44.714   1.345
69492W        W41021  14.813  12.602   0.218
69493W        W41022  42.085  39.707  11.083
69494W        W41023  15.309  16.874  11.128
69495W        W41024  36.436  37.555   4.109
69496W        W41025  14.695  33.434  14.739
69497W        W41026   0.123  25.076   5.090
69498W        W41027  16.777  37.105   3.662
69499W        W41028  28.691  43.575  14.751
69500W        W41029  38.904  31.627   3.329
69501W        W41030  26.438  20.969  14.823
69502W        W41031   3.195  44.340  10.934
69503W        W41032  10.915  39.877  13.636
69504W        W41033   2.466  31.416  14.361
69505W        W41034  34.007  38.021   3.675
69506W        W41035   0.249  27.293  12.462
69507W        W41036  38.017  31.257   0.341
69508W        W41037  35.031  38.864   2.156
69509W        W41038  19.266  37.394   0.426
69510W        W41039  25.008   8.420   3.129
69511W        W41040   8.846  44.878   3.228
69512W        W41041  44.440  44.864  12.062
69513W        W41042   7.119  10.067   1.638
69514W        W41043  15.641  25.037   4.682
69515W        W41044  33.877   8.612  12.545
69516W        W41045  28.436   1.225  14.432
69517W        W41046  28.157  12.347  11.597
69518W        W41047  38.782  21.662  10.618
69519W        W41048  16.529  22.175  12.550
69520W        W41049  44.444   7.704   0.319
69521W        W41050  20.625   8.154   2.075
69522W        W41051  31.368   7.402   3.766
69523W        W41052  13.850   5.039   2.227
69524W        W41053  26.237  18.046  13.980
69525W        W41054  26.105  38.888  12.899
69526W        W41055  41.456  14.322  11.140
69527W        W41056  33.397   6.443  13.490
69528W        W41057   4.778   3.703   2.883
69529W        W41058  10.218  10.211   0.281
69530W        W41059  30.134  10.264   4.521
69531W        W41060  14.706   1.989  10.681
69532W        W41061  18.144  24.742  10.904
69533W        W41062  18.458  15.714  11.658
69534W        W41063  31.228   2.730   4.631
69535W        W41064  34.505  16.215  13.621
69536W        W41065  28.448   2.436   0.695
69537W        W41066  25.500  16.049  13.382
69538W        W41067  40.527  31.585  10.659
69539W        W41068  30.373  30.909   3.645
69540W        W41069  28.631   6.937   1.960
69541W        W41070  39.579  36.589  13.908
69542W        W41071   6.672  22.168   0.903
69543W        W41072  40.821  42.546   2.698
69544W        W41073  39.305  23.691  12.408
69545W        W41074  12.301  14.722  13.868
69546W        W41075  44.219  23.783  12.367
69547W        W41076   5.363  24.621  11.215
69548W        W41077  22.262  23.567  14.316
69549W        W41078  36.837   0.031   0.339
69550W        W41079  27.644  34.406   3.078
69551W        W41080  17.187  36.760  10.850
69552W        W41081  41.934   6.341  13.087
69553W        W41082  15.776  29.684  13.961
69554W        W41083  23.224  29.567  12.956
69555W        W41084  32.447  35.012   1.747
69556W        W41085  14.796  44.705  11.887
69557W        W41086   6.680  15.095   4.340
69558W        W41087   0.630   5.257  13.848
69559W        W41088   2.588  42.036   3.725
69560W        W41089  20.819  35.998   1.873
69561W        W41090  11.701  36.837   0.977
69562W        W41091  10.205  33.457   2.330
69563W        W41092  20.561  31.021   1.208
69564W        W41093  40.902  21.523   4.416
69565W        W41094  34.136   1.004  14.499
69566W        W41095   0.029  28.207  14.447
69567W        W41096  39.510  35.895   4.599
69568W        W41097  15.780  10.404   3.459
69569W        W41098  20.614  33.858  12.038
69570W        W41099  29.195  21.362  10.744
69571W        W41100  44.751  10.824  14.272
69572W        W41101  38.991   6.641  14.353
69573W        W41102  36.227  23.008   1.894
69574W        W41103  21.332   8.697   2.325
69575W        W41104   0.423  43.826  14.564
69576W        W41105  32.406   7.789   2.163
69577W        W41106  14.326  41.925   2.225
69578W        W41107  42.499  43.843   3.369
69579W        W41108  10.941  33.514  12.053
69580W        W41109  12.141  26.791  13.340
69581W        W41110  11.733  20.806  12.256
69582W        W41111   9.333  20.760   3.363
69583W        W41112  25.120  39.129  13.233
69584W        W41113  37.957  19.123   0.683
69585W        W41114   2.090  13.910  13.886
69586W        W41115  22.103  24.871   3.006
69587W        W41116  25.972  17.143   3.111
69588W        W41117   9.900  23.740   3.822
69589W        W41118   2.713   0.284   3.566
69590W        W41119   8.808   7.259   3.559
69591W        W41120  18.090   8.983  12.560
69592W        W41121  44.504  18.175   0.494
69593W        W41122  42.294   4.450  10.495
69594W        W41123   6.709  33.976   1.443
69595W        W41124  20.206  34.565   1.358
69596W        W41125  30.871   6.476   0.988
69597W        W41126  33.486  42.742   3.280
69598W        W41127   7.850  24.814  14.014
69599W        W41128  19.113  36.187  14.973
69600W        W41129  15.252   8.918   1.751
69601W        W41130  43.817  35.319  11.935
69602W        W41131   6.539  41.592  13.805
69603W        W41132  25.998   4.819   3.891
69604W        W41133  19.301  24.780  11.465
69605W        W41134  11.760  20.258  13.072
69606W        W41135  25.680  14.873  12.024
69607W        W41136  38.940  38.530   3.190
69608W        W41137  39.179  24.648  14.723
69609W        W41138  21.159   9.748  13.386
69610W        W41139  23.287  17.202  14.369
69611W        W41140  11.280  43.504   1.678
69612W        W41141  14.572  40.727   3.231
69613W        W41142  40.406  43.196  13.016
69614W        W41143  27.724   3.212   2.237
69615W        W41144  30.115  25.869   2.099
69616W        W41145  41.985  36.903   3.083
69617W        W41146  28.453  31.992  12.274
69618W        W41147  24.735   7.231   1.266
69619W        W41148  33.119  44.386   1.103
69620W        W41149  33.382  16.201   1.950
69621W        W41150  34.423  21.765   1.833
69622W        W41151   2.442  40.358  12.482
69623W        W41152  14.516  16.647  11.455
69624W        W41153  25.032  40.949  14.833
69625W        W41154  29.224  38.839  10.430
69626W        W41155  20.268  37.405   2.554
69627W        W41156   4.480  10.247  12.631
69628W        W41157  15.741  40.565   1.612
69629W        W41158  16.894   3.232  12.818
69630W        W41159  28.131  12.611  14.969
69631W        W41160  43.747  39.495   4.674
69632W        W41161  44.361  18.326  11.209
69633W        W41162  12.091  10.411   3.295
69634W        W41163  19.135  34.910  12.049
69635W        W41164   1.748   9.583  14.998
69636W        W41165  24.500  25.679  14.355
69637W        W41166  26.149  27.314   2.379
69638W        W41167  25.659   9.136   0.964
69639W        W41168  14.186  14.900   2.745
69640W        W41169  15.327  18.517  10.548
69641W        W41170   2.389  20.746  14.338
69642W        W41171  19.837  29.039   3.604
69643W        W41172  30.596  30.368   3.378
69644W        W41173   6.487   1.549  11.718
69645W        W41174  32.505  43.060  13.851
69646W        W41175  39.095   0.193  11.686
69647W        W41176   0.854  40.736  12.098
69648W        W41177  35.951   1.293  12.455
69649W        W41178   8.171  10.286  12.570
69650W        W41179  38.735  14.301  10.818
69651W        W41180  42.782  20.720   3.125
69652W        W41181  21.237  11.388   1.916
69653W        W41182  14.144   3.905   3.735
69654W        W41183  23.509   7.919  12.454
69655W        W41184   9.471  20.633  14.182
69656W        W41185   5.816  16.334  13.117
69657W        W41186  20.287  15.046   4.411
69658W        W41187  18.526  14.358   0.047
69659W        W41188  42.098  18.764  11.149
69660W        W41189   6.911  40.376   4.852
69661W        W41190  25.980  32.725   0.455
69662W        W41191  16.101  29.873  13.368
69663W        W41192  41.348  16.128   3.201
69664W        W41193  21.810   8.772  10.673
69665W        W41194   3.682  20.674   4.243
69666W        W41195  26.880  41.077  12.139
69667W        W41196  37.387  19.565  13.088
69668W        W41197  40.453  19.756  12.447
69669W        W41198   4.373  16.110   0.785
69670W        W41199   9.293  31.133   2.725
69671W        W41200  22.011  27.656   0.833
69672W        W41201   7.878   7.234   4.159
69673W        W41202  31.127  18.823   0.959
69674W        W41203  30.351  24.701  10.619
69675W        W41204  18.787  12.920   0.953
69676W        W41205  23.259  38.374   3.690
69677W        W41206  39.711   7.184   3.362
69678W        W41207  14.531  30.636  10.734
69679W        W41208  17.927  38.583   3.568
69680W        W41209   9.593  18.036  12.051
69681W        W41210   9.190  25.473  12.472
69682W        W41211  30.107   1.359  11.667
69683W        W41212   1.970  26.860  14.228
69684W        W41213  22.234   9.791   4.831
69685W        W41214  34.918  44.885   1.409
69686W        W41215   9.192  25.767  11.644
69687W        W41216  35.854   6.651  12.468
69688W        W41217  32.312  37.927  14.302
69689W        W41218  15.291  34.348   4.779
69690W        W41219  42.899  19.263   3.619
69691W        W41220   6.847  42.584  11.937
69692W        W41221  10.590  27.901  11.443
69693W        W41222  35.407  25.123   3.251
69694W        W41223  41.312  31.909  13.131
69695W        W41224   1.283   8.953   0.440
69696W        W41225  23.558  38.888  13.976
69697W        W41226  35.939  29.000  10.707
69698W        W41227   9.961  10.830   4.968
69699W        W41228  28.084  37.870   4.455
69700W        W41229  25.146  18.459  12.463
69701W        W41230  27.399  30.397  12.964
69702W        W41231   0.418  35.516   0.214
69703W        W41232  34.378   9.676  14.666
69704W        W41233   6.927  30.578   4.117
69705W        W41234  27.894  10.802  13.900
69706W        W41235  41.305  38.420  14.397
69707W        W41236  37.514  25.939  12.174
69708W        W41237  42.455  33.902  11.993
69709W        W41238  23.152  22.594  12.355
69710W        W41239   6.427  23.947   1.056
69711W        W41240  17.129  21.416  11.768
69712W        W41241  17.673  42.278  12.701
69713W        W41242  30.839  34.278  10.770
69714W        W41243  30.552  25.750   1.173
69715W        W41244   7.198  28.589  13.923
69716W        W41245   4.834  36.946  13.126
69717W        W41246   3.425   4.558  12.055
69718W        W41247  42.359  19.060   3.394
69719W        W41248  38.332  36.899  13.524
69720W        W41249   6.807  14.079  13.463
69721W        W41250  37.165   3.273   1.271
69722W        W41251  32.994   2.247   4.065
69723W        W41252  22.081   5.840   4.626
69724W        W41253  24.533   7.999   2.328
69725W        W41254  26.763  42.661  14.290
69726W        W41255  25.720  38.547   1.351
69727W        W41256  31.094  17.760   0.727
69728W        W41257   1.098  38.813  12.943
69729W        W41258  29.167  14.827  13.127
69730W        W41259   6.889   1.869   0.374
69731W        W41260  34.091   7.764  14.375
69732W        W41261   7.759  33.328  14.833
69733W        W41262   3.344  37.310  14.097
69734W        W41263  30.122  44.131   0.188
69735W        W41264  36.360   9.914   2.707
69736W        W41265  15.743   3.222  10.326
69737W        W41266   4.407  44.434   4.579
69738W        W41267   7.411  25.038   1.777
69739W        W41268  38.179   5.323  13.512
69740W        W41269  10.160   6.823   0.789
69741W        W41270  20.511  18.564   0.390
69742W        W41271  37.484  38.916   3.813
69743W        W41272  25.049  26.240  13.441
69744W        W41273  19.037  26.049   2.799
69745W        W41274  41.075  27.192  12.703
69746W        W41275  11.379  27.646   3.199
69747W        W41276  11.287  42.932  14.290
69748W        W41277  22.531  37.982   2.968
69749W        W41278  21.721  27.158   0.438
69750W        W41279  23.467  38.343   4.221
69751W        W41280  21.672  18.746  10.683
69752W        W41281  33.915   8.632  13.265
69753W        W41282  37.439  15.714  12.033
69754W        W41283  36.298  24.470   4.140
69755W        W41284  18.112  32.404   3.697
69756W        W41285  14.436  38.458  11.864
69757W        W41286  26.076  35.563  10.530
69758W        W41287  24.580  22.179   0.725
69759W        W41288  35.977  11.070   1.299
69760W        W41289  17.587  11.926   3.682
69761W        W41290  32.989  44.424  11.957
69762W        W41291   4.888  37.887   1.311
69763W        W41292  41.312  33.708  12.392
69764W        W41293  23.821   4.950   0.308
69765W        W41294  32.962  40.231  12.987
69766W        W41295  31.317  31.683   4.914
69767W        W41296  31.574  39.195  12.524
69768W        W41297  34.467  15.747   4.202
69769W        W41298  26.138  24.130  14.439
69770W        W41299  35.047  15.439  10.722
69771W        W41300   3.829  37.483  11.897
69772W        W41301  23.005   4.878  13.276
69773W        W41302  28.947   6.534   1.798
69774W        W41303   7.348  23.282   2.174
69775W        W41304  12.124  24.615  14.050
69776W        W41305  27.952   5.023  13.261
69777W        W41306  19.213  15.130  12.576
69778W        W41307  42.431  19.838   0.241
69779W        W41308   5.553  11.058  13.167
69780W        W41309  24.727  30.614   3.564
69781W        W41310  37.817  22.060  11.989
69782W        W41311  21.599   2.063   3.815
69783W        W41312  39.073  17.200   4.590
69784W        W41313  24.260   9.082  12.550
69785W        W41314  30.408  38.586  12.247
69786W        W41315  14.739  25.593   3.505
69787W        W41316  28.928  37.867  13.666
69788W        W41317   2.327  33.402  11.185
69789W        W41318  24.040  39.355   1.647
69790W        W41319  12.600  22.813   4.044
69791W        W41320  22.710  12.302   4.361
69792W        W41321   6.096  24.066   2.722
69793W        W41322   3.996  12.142  11.549
69794W        W41323  27.583   2.220   4.164
69795W        W41324   0.563  34.174   2.179
69796W        W41325  31.388  23.480   4.119
69797W        W41326   2.277  29.141  11.109
69798W        W41327  43.867   6.302  14.451
69799W        W41328  24.530  34.902  14.404
69800W        W41329   6.668   1.720  12.612
69801W        W41330   4.338  20.090   1.376
69802W        W41331   3.270  13.394  14.060
69803W        W41332  14.573  28.429   4.214
69804W        W41333  24.078  42.919   3.873
69805W        W41334  43.926  29.177  14.625
69806W        W41335  39.487  10.744   0.695
69807W        W41336  39.736  20.877  13.151
69808W        W41337  24.477  14.185  10.755
69809W        W41338   1.455  31.125   2.178
69810W        W41339  21.422  28.154   1.368
69811W        W41340  14.781  36.530  12.089
69812W        W41341  15.205  44.996  13.396
69813W        W41342  11.183   8.430   4.593
69814W        W41343  44.938  31.473   0.465
69815W        W41344  16.020   7.153  11.974
69816W        W41345   8.058  18.368   1.020
69817W        W41346   9.198   3.439   3.194
69818W        W41347   9.658  35.497  11.400
69819W        W41348   0.678  15.900   3.298
69820W        W41349  34.344   1.429  14.703
69821W        W41350  26.883  14.185  12.919
69822W        W41351  27.637  32.136   2.928
69823W        W41352   5.925   1.463   1.342
69824W        W41353  15.843  42.305   2.236
69825W        W41354  37.897  38.732   2.335
69826W        W41355  14.846  31.614   2.296
69827W        W41356   0.749  18.321  13.464
69828W        W41357  29.837   8.176   1.613
69829W        W41358  42.111  11.626   2.821
69830W        W41359  26.096  39.946   1.215
69831W        W41360  19.846  23.494   4.151
69832W        W41361   0.230   4.993   2.080
69833W        W41362  30.066  18.557  13.050
69834W        W41363   9.399   6.428  11.559
69835W        W41364  23.503   8.307  12.839
69836W        W41365  23.156  23.363   3.255
69837W        W41366  28.214  35.316  13.463
69838W        W41367  44.167  27.970   3.811
69839W        W41368  11.394  20.054  14.932
69840W        W41369  12.809  28.385   4.217
69841W        W41370  25.171  35.423  11.703
69842W        W41371  10.867  42.868  13.773
69843W        W41372  20.274  34.353  13.435
69844W        W41373  44.768  12.658  13.956
69845W        W41374   5.801  20.210   4.577
69846W        W41375  17.257   6.119   4.165
69847W        W41376  39.554   8.814  12.455
69848W        W41377   0.997   8.289  13.035
69849W        W41378   7.289  16.160   4.220
69850W        W41379   4.893   4.360   2.213
69851W        W41380  34.406  28.722  11.524
69852W        W41381   5.403  43.827   2.671
69853W        W41382  19.643  27.484   0.808
69854W        W41383  30.431  23.034  14.749
69855W        W41384  18.799  28.886  12.667
69856W        W41385  28.515   5.014   0.316
69857W        W41386  42.672  22.409  13.994
69858W        W41387  21.819  38.044   3.170
69859W        W41388  13.390  32.443  11.540
69860W        W41389   9.565   0.103  11.223
69861W        W41390  25.500   1.803  12.158
69862W        W41391  40.242  12.803  13.972
69863W        W41392  34.409   5.384   4.358
69864W        W41393  39.490  38.730  14.683
69865W        W41394  31.882   2.908  13.526
69866W        W41395  44.750  44.471   4.175
69867W        W41396  35.849  16.781   3.676
69868W        W41397  42.845   2.820   0.770
69869W        W41398  36.181  24.763  13.328
69870W        W41399   6.346  12.880   1.386
69871W        W41400  24.507   9.979  13.531
69872W        W41401  40.755   3.827   0.886
69873W        W41402  14.907  23.095   0.758
69874W        W41403   7.722  16.273   3.706
69875W        W41404  34.200  27.031  10.381
69876W        W41405   6.244   6.662   0.355
69877W        W41406   4.676  22.613  13.413
69878W        W41407  43.323   7.179   3.713
69879W        W41408  31.254   5.153  14.857
69880W        W41409  28.372  15.192  11.512
69881W        W41410  42.210  36.155   2.570
69882W        W41411   0.469   6.955  12.385
69883W        W41412   2.674   9.304   4.587
69884W        W41413  16.962  23.435  12.482
69885W        W41414  18.168  30.176  10.365
69886W        W41415  42.209   5.376   1.301
69887W        W41416  36.550  39.599  12.028
69888W        W41417  21.826  33.096  10.633
69889W        W41418  17.150   2.420   3.685
69890W        W41419  21.698  20.782  14.454
69891W        W41420  14.555  22.605   2.691
69892W        W41421   4.380  29.552   1.869
69893W        W41422   6.354  24.905   3.433
69894W        W41423  44.047  27.942  12.098
69895W        W41424   0.602  27.733  14.049
69896W        W41425  34.360  11.992  14.245
69897W        W41426  35.053  11.747  11.556
69898W        W41427  15.907   7.566   1.386
69899W        W41428  32.979   5.811  11.709
69900W        W41429   4.850  40.050  10.876
69901W        W41430  25.701   4.490   3.646
69902W        W41431   9.852  26.718   0.422
69903W        W41432  34.868   2.501   3.657
69904W        W41433  34.371  33.607  12.188
69905W        W41434   1.262  42.372  10.775
69906W        W41435  36.785  22.968   1.732
69907W        W41436  19.878  22.658  11.708
69908W        W41437  16.238  42.533  13.124
69909W        W41438  16.216  28.056  10.558
69910W        W41439  21.146  31.697   2.368
69911W        W41440   6.465  24.661   0.060
69912W        W41441  19.741  37.565  12.013
69913W        W41442  12.697  39.827  12.433
69914W        W41443   3.948  31.547   0.773
69915W        W41444  33.156  32.888   2.897
69916W        W41445   1.351  22.719  13.852
69917W        W41446  33.177  32.215  11.619
69918W        W41447   9.265  39.800   0.440
69919W        W41448  14.600   3.045  14.435
69920W        W41449   1.225  39.883  12.886
69921W        W41450  36.031   6.341  12.112
69922W        W41451   8.239  35.974   1.893
69923W        W41452  11.711  42.994   3.730
69924W        W41453  35.952  17.027   4.129
69925W        W41454   4.716  30.955   0.308
69926W        W41455  41.796  42.900  14.126
69927W        W41456  24.777  28.537   0.764
69928W        W41457  34.030  18.846  11.618
69929W        W41458  43.547  42.390  10.912
69930W        W41459  42.074  28.088   2.053
69931W        W41460  13.737   4.523   2.294
69932W        W41461  19.279  24.510  11.025
69933W        W41462  33.413  32.956  12.841
69934W        W41463  42.412  27.920   0.625
69935W        W41464  12.269  34.877   3.394
69936W        W41465  37.458  37.455  12.910
69937W        W41466  29.645  33.590  14.037
69938W        W41467  38.408  30.565   0.865
69939W        W41468  42.807   0.487   2.383
69940W        W41469  32.009  31.584   3.336
69941W        W41470  23.785  18.174   1.466
69942W        W41471  33.555  44.989  13.570
69943W        W41472  42.732  35.954  10.462
69944W        W41473  14.898  21.736  13.811
69945W        W41474  16.145  16.247  13.910
69946W        W41475  13.829  30.177   4.067
69947W        W41476  21.054  43.346   4.103
69948W        W41477   8.175   6.686   3.808
69949W        W41478   6.888  35.472  13.955
69950W        W41479   4.275  25.781  11.136
69951W        W41480  18.838  21.762   1.535
69952W        W41481  20.440  20.097  11.470
69953W        W41482  34.153   9.313  11.514
69954W        W41483  26.201  15.284  13.326
69955W        W41484  36.939   4.416   4.627
69956W        W41485   8.882  24.706  13.079
69957W        W41486  42.251  23.768  11.314
69958W        W41487  26.460   7.152   4.082
69959W        W41488   8.155  39.392   3.920
69960W        W41489  38.359  29.300  10.326
69961W        W41490  14.105  30.158  12.055
69962W        W41491  10.133  34.782  14.407
69963W        W41492   6.385   3.307  13.683
69964W        W41493  30.015   9.881   3.376
69965W        W41494  15.658  21.146   3.728
69966W        W41495   7.890  38.082  13.748
69967W        W41496  43.823  44.304  10.591
69968W        W41497  42.503  35.610  10.800
69969W        W41498  29.685   9.117  11.722
69970W        W41499   4.517   0.767  10.927
69971W        W41500  12.843  21.035   0.836
69972W        W41501  17.563  20.656   1.243
69973W        W41502  43.405  32.881   1.240
69974W        W41503  31.096  40.239   3.194
69975W        W41504   6.674   4.725   3.603
69976W        W41505  30.099  39.923   2.832
69977W        W41506   9.698  41.092  14.323
69978W        W41507  29.771  25.095  10.232
69979W        W41508   9.924  16.164   3.347
69980W        W41509  31.177  42.370  10.728
69981W        W41510   9.240  41.451  13.984
69982W        W41511   2.515  40.655   2.403
69983W        W41512  36.887  40.602  13.018
69984W        W41513  35.913  35.452  14.891
69985W        W41514  32.702  31.540   3.666
69986W        W41515  20.387  31.413  11.581
69987W        W41516   8.772   3.461   1.303
69988W        W41517  39.322  16.137  11.668
69989W        W41518   9.836  25.960  14.040
69990W        W41519   4.635   0.220  13.592
69991W        W41520  40.561  15.721   1.523
69992W        W41521   7.800  15.434   2.294
69993W        W41522   0.833  13.520  14.195
69994W        W41523   1.479  26.597  13.832
69995W        W41524  11.749  25.694   0.428
69996W        W41525  40.021   6.505  11.920
69997W        W41526   7.894  14.142  14.012
69998W        W41527   0.900  16.982   5.103
69999W        W41528   6.476  38.354   4.106
70000W        W41529  31.683   0.543  12.107
70001W        W41530   6.751  41.504  11.087
70002W        W41531  35.337   6.867   1.048
70003W        W41532  23.154  20.584   4.271
70004W        W41533   2.711  38.547  11.981
70005W        W41534  12.664   7.759  13.609
70006W        W41535   4.440  38.596   1.721
70007W        W41536   0.848  16.092  11.867
70008W        W41537  35.628  15.240  14.283
70009W        W41538  41.299  39.422   1.343
70010W        W41539  15.734  30.202  13.906
70011W        W41540   3.241  30.375   1.044
70012W        W41541   3.748  18.303   4.973
70013W        W41542  16.807  20.615   0.803
70014W        W41543   0.746  35.591  14.839
70015W        W41544   4.230   1.991  11.163
70016W        W41545   6.234   3.374   0.847
70017W        W41546  21.088  14.117   1.082
70018W        W41547   6.274  14.611  12.961
70019W        W41548  36.601  20.801   2.363
70020W        W41549  30.828  41.444  12.272
70021W        W41550  15.706  34.572  13.737
70022W        W41551  40.260  22.114  13.639
70023W        W41552  15.885  17.427   1.089
70024W        W41553  38.325  27.883   3.216
70025W        W41554   2.490   4.861   1.441
70026W        W41555  30.924   4.687  13.994
70027W        W41556  10.059  13.667  11.199
70028W        W41557  18.595  44.013   1.894
70029W        W41558  10.933  40.496   3.582
70030W        W41559   2.255  43.905  13.094
70031W        W41560  25.136  21.696  14.552
70032W        W41561  23.990  29.001  10.809
70033W        W41562  32.656  35.487   2.592
70034W        W41563   6.593  14.999   3.841
70035W        W41564  10.819  14.613   0.386
70036W        W41565  28.884  25.663  14.382
70037W        W41566  24.521   6.991  10.524
70038W        W41567  40.492  42.852  10.716
70039W        W41568  16.607  12.574   2.655
70040W        W41569  41.239   9.279   4.978
70041W        W41570  16.837  32.594   0.282
70042W        W41571   2.845  34.310   3.141
70043W        W41572  34.966   7.686  13.884
70044W        W41573   4.015  24.672   2.268
70045W        W41574  30.974  14.860   3.224
70046W        W41575  32.659  10.422   3.652
70047W        W41576   8.751   9.600  12.918
70048W        W41577  16.513  15.826   1.882
70049W        W41578   9.261  19.813  11.055
70050W        W41579   6.954  39.795  10.557
70051W        W41580   2.373  43.202  11.997
70052W        W41581   7.580  34.864  13.950
70053W        W41582  22.914  28.088  11.241
70054W        W41583  13.194  16.425  14.845
70055W        W41584  39.314  12.858  10.526
70056W        W41585   4.357   4.991   0.215
70057W        W41586  20.412  24.674  12.269
70058W        W41587  32.108   6.668  14.556
70059W        W41588  29.976  25.104   2.581
70060W        W41589   4.901  15.868   0.718
70061W        W41590  35.719  24.133  12.872
70062W        W41591  22.212  19.328   0.707
70063W        W41592  38.706  43.676   2.709
70064W        W41593  26.905  30.502  11.160
70065W        W41594   0.033  25.077  14.493
70066W        W41595   1.974  34.893  13.062
70067W        W41596  23.286  31.471  11.908
70068W        W41597   5.241  24.259  14.532
70069W        W41598  23.932  14.131  14.912
70070W        W41599  12.590  32.083   0.065
70071W        W41600  39.357  24.180  11.227
70072W        W41601   5.656  23.009   1.509
70073W        W41602   0.209  23.714   2.872
70074W        W41603   6.740  41.902   3.072
70075W        W41604  34.518   2.011  10.785
70076W        W41605  39.575   6.377   2.883
70077W        W41606  15.185  18.818  12.316
70078W        W41607   9.253  44.933  11.931
70079W        W41608  26.870  25.261  13.750
70080W        W41609  38.916  34.688  13.953
70081W        W41610  33.288   3.295   4.615
70082W        W41611  26.975   9.307   2.260
70083W        W41612  30.514  35.177  13.337
70084W        W41613  29.474  43.907  10.513
70085W        W41614  39.974   1.165   4.692
70086W        W41615  23.441  12.773   1.070
70087W        W41616   5.972  19.739   4.489
70088W        W41617  31.260  14.576  12.965
70089W        W41618  24.492  25.287  14.722
70090W        W41619  18.034  33.198  12.098
70091W        W41620  32.081   3.504   3.238
70092W        W41621  31.672  27.212   0.770
70093W        W41622  41.935  36.922   4.065
70094W        W41623  24.522   3.146   4.500
70095W        W41624  35.561  30.002  13.714
70096W        W41625  11.031  20.733  12.481
70097W        W41626  22.458  17.005  10.652
70098W        W41627  40.041  17.741   1.927
70099W        W41628  15.100  15.186  14.983
70100W        W41629   9.837  41.712   1.785
70101W        W41630  18.188  42.328  11.954
70102W        W41631   7.453  44.876  11.166
70103W        W41632   1.231  17.007  12.102
70104W        W41633  33.487  21.866   0.734
70105W        W41634  33.027  38.332   2.657
70106W        W41635  43.852  23.410   3.684
70107W        W41636  18.140  37.886   1.416
70108W        W41637  29.113  12.329   0.684
70109W        W41638   9.300  31.613   3.821
70110W        W41639  34.857   4.721   3.745
70111W        W41640  27.043  25.467   4.335
70112W        W41641  22.520  25.645  14.400
70113W        W41642  26.994  35.047  13.400
70114W        W41643  21.865  11.801   4.585
70115W        W41644  44.783  42.523   1.435
70116W        W41645  29.574  36.980   1.456
70117W        W41646  20.146  31.122   0.448
70118W        W41647  17.182  39.359  13.239
70119W        W41648  33.424  27.109  12.909
70120W        W41649   9.799   6.667  14.547
70121W        W41650  16.100  10.154  13.963
70122W        W41651   0.673  34.621   1.936
70123W        W41652  34.045   7.251  13.599
70124W        W41653   3.116   1.747  12.089
70125W        W41654  18.867  34.631  12.445
70126W        W41655   9.800  17.781   1.179
70127W        W41656  20.634   8.256   1.104
70128W        W41657  41.784  18.473  11.434
70129W        W41658  14.207   7.189  13.811
70130W        W41659  32.000  21.843   0.714
70131W        W41660  41.774  43.532  12.349
70132W        W41661  34.692  15.612   1.325
70133W        W41662  18.716   9.946   1.452
70134W        W41663  42.969  18.656  14.442
70135W        W41664  33.911  42.110  14.671
70136W        W41665  30.352  23.508   0.471
70137W        W41666  30.426  38.871  13.976
70138W        W41667  14.538  28.613   2.385
70139W        W41668  43.655   4.379   4.796
70140W        W41669  20.770  21.035   3.386
70141W        W41670  19.783  43.054  13.788
70142W        W41671   0.837   7.896  11.839
70143W        W41672  23.946  31.477   2.704
70144W        W41673  25.973  14.149  10.830
70145W        W41674  30.614  21.206   4.925
70146W        W41675  13.164  10.704  10.369
70147W        W41676   3.179   6.775  14.716
70148W        W41677  43.494   4.637  14.948
70149W        W41678  23.721   5.409   3.196
70150W        W41679  26.068  40.780   0.301
70151W        W41680  42.283  15.286   1.234
70152W        W41681  14.177   5.969   0.421
70153W        W41682  35.538  44.941   1.969
70154W        W41683   2.943  14.881   4.078
70155W        W41684  21.799  40.009   0.973
70156W        W41685   3.387  42.563   0.695
70157W        W41686   2.313  42.879   4.130
70158W        W41687  41.323  37.541  11.126
70159W        W41688  35.228  23.575   0.834
70160W        W41689  33.618   9.226  11.283
70161W        W41690  44.041  15.105  12.013
70162W        W41691  41.495  25.461   3.302
70163W        W41692  24.548  38.016   4.750
70164W        W41693  24.060  36.395  10.730
70165W        W41694  12.102  15.097  13.536
70166W        W41695  29.094  14.714  14.586
70167W        W41696  26.621  11.349   9.970
70168W        W41697  16.681  30.022   0.663
70169W        W41698  17.449   4.641   1.673
70170W        W41699  43.888  10.685  10.682
70171W        W41700  23.255  36.587   3.652
70172W        W41701  24.306  26.799   5.204
70173W        W41702  37.530   1.811  13.942
70174W        W41703  34.990  25.456   4.085
70175W        W41704   1.660  21.874   0.946
70176W        W41705  32.040   2.530  14.809
70177W        W41706  14.559  40.331   3.550
70178W        W41707   4.975  40.694   4.134
70179W        W41708   9.680  41.546   0.240
70180W        W41709  20.759  33.462   0.812
70181W        W41710   0.780   1.471  12.547
70182W        W41711  35.475  38.982  13.335
70183W        W41712  26.569  42.865  10.726
70184W        W41713  19.063  22.586   3.133
70185W        W41714   2.275  31.955  13.968
70186W        W41715  39.941  32.818  11.411
70187W        W41716  10.873  31.966   2.834
70188W        W41717  27.335  38.524   4.174
70189W        W41718  14.303  11.699   3.768
70190W        W41719  36.684  37.440  14.548
70191W        W41720  12.859  31.620  12.503
70192W        W41721  10.551  29.170   4.016
70193W        W41722   0.781  29.370   3.159
70194W        W41723  28.869   4.339  12.960
70195W        W41724  21.199  32.392   2.724
70196W        W41725  34.789   0.510   4.990
70197W        W41726  24.339  37.712   2.048
70198W        W41727  11.778   4.310   3.351
70199W        W41728   4.695   7.710   1.531
70200W        W41729  22.944  10.752   2.272
70201W        W41730  19.756  43.867   4.173
70202W        W41731  43.368  32.331   2.171
70203W        W41732   4.957  39.056   1.372
70204W        W41733  18.283  19.648  10.629
70205W        W41734  40.814  37.273   0.257
70206W        W41735   3.998  18.326   1.264
70207W        W41736  36.292  24.251  13.283
70208W        W41737  29.199  44.760   1.243
70209W        W41738   1.680  42.723   0.410
70210W        W41739  10.764   8.096  14.749
70211W        W41740   3.919  35.768  10.862
70212W        W41741  22.301  11.193   0.453
70213W        W41742  31.117  24.015   1.928
70214W        W41743  41.537  29.085   2.786
70215W        W41744   0.454  27.206   3.266
70216W        W41745  21.013  35.470  13.579
70217W        W41746  34.525  42.328   3.833
70218W        W41747  19.722  30.705  14.274
70219W        W41748  34.427  20.552  10.792
70220W        W41749  15.344  29.472   0.819
70221W        W41750  10.653  29.592   4.291
70222W        W41751  39.263  25.403   0.407
70223W        W41752  11.218  34.920   0.303
70224W        W41753  25.078  22.495  10.775
70225W        W41754  32.907  33.519  12.328
70226W        W41755  23.294  37.469   2.655
70227W        W41756   6.199   6.356  14.936
70228W        W41757  44.452   5.304  14.536
70229W        W41758  28.635  20.753  13.545
70230W        W41759  13.703  29.078  10.446
70231W        W41760   8.803  37.736   0.739
70232W        W41761  32.414  24.596   3.875
70233W        W41762   2.494  26.628   4.954
70234W        W41763  23.492   9.664   0.407
70235W        W41764  19.520  15.767  10.717
70236W        W41765  24.524   9.857   2.102
70237W        W41766  32.351  43.480   4.432
70238W        W41767   2.765  34.641  14.412
70239W        W41768  25.808  32.431  12.393
70240W        W41769  17.205  43.019  11.589
70241W        W41770  37.887  36.030  10.748
70242W        W41771  37.913  42.406  14.430
70243W        W41772   0.302   4.587  11.517
70244W        W41773  42.583   6.973   2.923
70245W        W41774  25.110  17.803   1.847
70246W        W41775  39.436  12.730   2.245
70247W        W41776  31.670  19.196   4.484
70248W        W41777  26.865  36.525   2.713
70249W        W41778  27.038  43.779   2.670
70250W        W41779  31.619  35.929   0.034
70251W        W41780  40.396  20.511   0.397
70252W        W41781  22.131   7.709  14.366
70253W        W41782   1.895  41.521  14.878
70254W        W41783  28.004   4.369  10.429
70255W        W41784  27.764   8.197  12.285
70256W        W41785  39.461  33.008  13.000
70257W        W41786  34.135  30.090  14.335
70258W        W41787  16.628  33.914  10.773
70259W        W41788   4.117  33.708   4.309
70260W        W41789  37.735  39.389   0.679
70261W        W41790   0.721   7.286   1.457
70262W        W41791  14.638  40.967   0.872
70263W        W41792  11.240   1.972   5.520
70264W        W41793  29.959  27.205  14.962
70265W        W41794  34.512  30.017   4.871
70266W        W41795  13.617  25.148  12.623
70267W        W41796  12.957  21.409  11.895
70268W        W41797   5.945  17.159  11.144
70269W        W41798   7.132  24.224   3.631
70270W        W41799  32.711  15.177   1.305
70271W        W41800  20.064  41.075   2.721
70272W        W41801  39.429  44.759  11.852
70273W        W41802  28.668   9.250   3.760
70274W        W41803   3.675  33.683   3.257
70275W        W41804  37.637  41.661   4.193
70276W        W41805  16.710  12.580   4.907
70277W        W41806   5.330  23.855  12.538
70278W        W41807  13.437  39.372   4.377
70279W        W41808   9.038  29.513  11.685
70280W        W41809   5.373  22.476   3.741
70281W        W41810   5.963  15.880  14.931
70282W        W41811  16.822  31.951  14.906
70283W        W41812   6.477  29.894   0.277
70284W        W41813  36.611   5.704  12.889
70285W        W41814  25.952  42.949   3.308
70286W        W41815  42.079   8.188   2.288
70287W        W41816  18.496   1.171  14.643
70288W        W41817  18.120   6.148   2.897
70289W        W41818  33.357  25.241  12.554
70290W        W41819   5.279  33.949  13.020
70291W        W41820   0.496  21.136   1.335
70292W        W41821  25.986  40.022  11.992
70293W        W41822  44.878  26.123   0.981
70294W        W41823   8.990  10.138   0.906
70295W        W41824  37.391  21.263   2.369
70296W        W41825  15.271   0.014   0.311
70297W        W41826  10.040   2.663  12.934
70298W        W41827  36.572   3.817   3.283
70299W        W41828  33.199  34.730  14.591
70300W        W41829   1.558   8.665   3.322
70301W        W41830  41.067  35.580   3.363
70302W        W41831  24.977  41.929   1.920
70303W        W41832  33.972  27.408   1.012
70304W        W41833  32.625  36.894  14.671
70305W        W41834  30.951   6.711  13.956
70306W        W41835  28.893  43.972   3.192
70307W        W41836  41.902   8.981  12.563
70308W        W41837  26.147   9.861   1.517
70309W        W41838  22.085  17.820   0.910
70310W        W41839   8.555   9.837   0.686
70311W        W41840   8.966  43.974  13.962
70312W        W41841  34.510  25.553   0.830
70313W        W41842  44.472  35.920   2.234
70314W        W41843  24.978  28.109   2.400
70315W        W41844  24.070  13.830  10.725
70316W        W41845   4.142  34.994   4.635
70317W        W41846  15.575  39.530  10.754
70318W        W41847  43.937  31.036  12.469
70319W        W41848  12.718   4.501  12.666
70320W        W41849  18.384   8.029   3.689
70321W        W41850  17.576  31.468  12.450
70322W        W41851  33.500  13.345   3.559
70323W        W41852  44.452  20.766  10.968
70324W        W41853  40.775   6.967  14.405
70325W        W41854   0.438  36.393  14.586
70326W        W41855   0.744  26.696   3.249
70327W        W41856  36.975  34.861  12.515
70328W        W41857  15.062  17.573  13.571
70329W        W41858  31.994  27.952  13.776
70330W        W41859  33.567  10.295   2.727
70331W        W41860  19.389  41.842  14.263
70332W        W41861  43.463  32.076   3.763
70333W        W41862   5.435  11.799  12.445
70334W        W41863  42.417  18.325   5.007
70335W        W41864  30.460  15.635   0.328
70336W        W41865  25.735  24.648   2.795
70337W        W41866  41.788  17.261   1.222
70338W        W41867  29.043  33.249   1.996
70339W        W41868  40.564  33.851   2.831
70340W        W41869   0.496  40.138   2.394
70341W        W41870   7.477  16.835   4.857
70342W        W41871  14.317  33.457   5.020
70343W        W41872  39.556  30.519   0.952
70344W        W41873  42.590  19.802   3.064
70345W        W41874   7.808   4.467  13.651
70346W        W41875  24.310  13.482  11.077
70347W        W41876  26.064  36.889   4.801
70348W        W41877  10.921   7.170  12.105
70349W        W41878  43.034  39.498   3.243
70350W        W41879  43.901   6.685   4.824
70351W        W41880  12.224   4.821  14.030
70352W        W41881   3.155   8.765  12.477
70353W        W41882  40.363  36.619  13.159
70354W        W41883  18.717  18.600  13.069
70355W        W41884   4.980  27.460  11.051
70356W        W41885  14.202   1.999  11.428
70357W        W41886  33.377  15.708   2.660
70358W        W41887  26.437  13.173  14.810
70359W        W41888  39.033  12.244  13.374
70360W        W41889  18.250  28.399  13.079
70361W        W41890  34.591  17.238   4.873
70362W        W41891  11.759  11.899  14.281
70363W        W41892  21.124   7.781  11.168
70364W        W41893  34.819   6.865  13.370
70365W        W41894  18.924  19.226   4.072
70366W        W41895  22.465  37.311  10.375
70367W        W41896   1.714  37.661  13.496
70368W        W41897  25.457  26.044   0.246
70369W        W41898   0.259  20.421   3.649
70370W        W41899  38.417  25.157   1.291
70371W        W41900   8.197   4.668  12.472
70372W        W41901  18.623   5.309  14.796
70373W        W41902  18.274   4.441  14.736
70374W        W41903  20.120  42.846  14.507
70375W        W41904   3.265  34.673  14.521
70376W        W41905  37.451  38.533  14.426
70377W        W41906  31.577  27.125   0.279
70378W        W41907   0.792  37.677   5.254
70379W        W41908  36.388  23.591  10.762
70380W        W41909  25.719   0.041  13.554
70381W        W41910  15.166   6.424   3.367
70382W        W41911  22.545   2.312   3.940
70383W        W41912   0.271  16.888  11.998
70384W        W41913  27.599  17.973  10.836
70385W        W41914  44.792  33.968   1.388
70386W        W41915  25.693  15.096   1.317
70387W        W41916  37.376   6.401   4.729
70388W        W41917  23.620  39.878   9.677
70389W        W41918  12.748  21.526  14.481
70390W        W41919  13.335   4.083   2.795
70391W        W41920  11.382   1.014  12.038
70392W        W41921  14.669   2.469   2.910
70393W        W41922  20.292  19.599  10.679
70394W        W41923  17.841  19.006   0.028
70395W        W41924   1.826  15.841  12.071
70396W        W41925  23.979  38.242  12.204
70397W        W41926  27.923   9.877  10.994
70398W        W41927  43.445   9.421  11.380
70399W        W41928   9.815  28.837   0.281
70400W        W41929   9.260  15.253   0.933
70401W        W41930  13.356  33.388   3.778
70402W        W41931  33.542  11.878  13.890
70403W        W41932   1.523  36.874  12.989
70404W        W41933  31.476  39.969  12.002
70405W        W41934   6.146  29.904   2.586
70406W        W41935  16.259  44.306  11.585
70407W        W41936  29.215  43.514   2.825
70408W        W41937   8.367  14.646   1.002
70409W        W41938  28.636   3.651   1.722
70410W        W41939  43.975  30.148  13.339
70411W        W41940   5.192  36.072  11.632
70412W        W41941  33.529  12.927   4.700
70413W        W41942  10.092  22.954  12.512
70414W        W41943   9.917  13.748   2.331
70415W        W41944   0.464  25.443   0.561
70416W        W41945  31.223  32.173   0.066
70417W        W41946  29.945  19.612   4.143
70418W        W41947  15.348  17.750  11.323
70419W        W41948  35.931  44.564   0.291
70420W        W41949  23.016  32.878  11.324
70421W        W41950  23.760  44.235  14.476
70422W        W41951  17.994  11.061  11.214
70423W        W41952  12.695  43.930   1.632
70424W        W41953   6.693   8.882  12.934
70425W        W41954  18.215  11.702   0.238
70426W        W41955  33.463   4.717  12.412
70427W        W41956  18.546   2.073  13.433
70428W        W41957  19.623  30.803   2.254
70429W        W41958  20.052   7.864  13.080
70430W        W41959  23.480  25.447   0.370
70431W        W41960   9.303  22.138   3.338
70432W        W41961  18.704  21.087  14.270
70433W        W41962  22.552  24.071  11.080
70434W        W41963  22.643  38.341  11.163
70435W        W41964  27.672  14.581   4.836
70436W        W41965  10.250  22.528   5.075
70437W        W41966  39.167  43.398  13.437
70438W        W41967   8.353  16.318  10.672
70439W        W41968  28.085  16.213   0.919
70440W        W41969  38.422  21.240  10.688
70441W        W41970  11.043   2.857  13.908
70442W        W41971   3.498  11.330   2.384
70443W        W41972  17.082  18.630  14.507
70444W        W41973  26.030  26.709   2.861
70445W        W41974  31.126  36.129  11.117
70446W        W41975  20.688  40.436   2.222
70447W        W41976  35.362  38.060  14.920
70448W        W41977  39.823  18.629  13.822
70449W        W41978  15.557  33.020   2.284
70450W        W41979  10.118   0.792   3.415
70451W        W41980  27.971  13.367  11.664
70452W        W41981  42.956  11.841  10.555
70453W        W41982  38.043   2.268   1.385
70454W        W41983  10.049   1.844  12.781
70455W        W41984  39.416  10.550   0.221
70456W        W41985  40.709  30.087  11.209
70457W        W41986  43.550   9.249  14.881
70458W        W41987  39.986  20.151  13.510
70459W        W41988  41.835  26.837  13.809
70460W        W41989   0.798  11.917  11.257
70461W        W41990   2.289  20.193   0.915
70462W        W41991  19.252  29.875  14.430
70463W        W41992  13.299  22.134   4.369
70464W        W41993  23.054  13.071  12.812
70465W        W41994  10.471  34.646   3.248
70466W        W41995  43.982   9.630  12.523
70467W        W41996  22.642  40.325   4.116
70468W        W41997  27.675  34.549   1.337
70469W        W41998   6.060  19.155  11.828
70470W        W41999  19.524   6.957  13.809
70471W        W42000  20.093  30.524   4.535
70472W        W42001   4.953  27.689  14.445
70473W        W42002  10.060  42.298   4.292
70474W        W42003   6.180   6.038  14.535
70475W        W42004   4.868  13.517  13.807
70476W        W42005   8.641  10.340  14.469
70477W        W42006  20.928   7.710  12.436
70478W        W42007   4.000   4.354   3.183
70479W        W42008  11.737   7.715   4.541
70480W        W42009  14.653  26.525   1.871
70481W        W42010  41.806  32.620   2.798
70482W        W42011  42.540  16.594  12.556
70483W        W42012  39.090  25.525  12.841
70484W        W42013  17.632   8.729  10.736
70485W        W42014  13.159  32.684  11.157
70486W        W42015  31.513  29.105  11.655
70487W        W42016  12.871   5.427   3.096
70488W        W42017  41.684  25.459   4.308
70489W        W42018  19.004  32.174  12.004
70490W        W42019  13.424  41.384  12.881
70491W        W42020  26.638   1.467  11.639
70492W        W42021  38.331  29.047  14.558
70493W        W42022  25.765  29.783  14.213
70494W        W42023  24.437  12.697   3.964
70495W        W42024  30.015  43.762   3.263
70496W        W42025  17.149  12.667   4.589
70497W        W42026  34.041  42.070   2.149
70498W        W42027  38.521   0.314   2.130
70499W        W42028  30.006  38.349  10.466
70500W        W42029  14.559   0.162   4.516
70501W        W42030  21.053  23.976   3.019
70502W        W42031  10.876   0.430  12.656
70503W        W42032  21.069   1.048   3.262
70504W        W42033  34.447  18.524   2.880
70505W        W42034   3.904  10.388  14.411
70506W        W42035  19.565  24.484   2.766
70507W        W42036  27.441  21.547   0.707
70508W        W42037  37.911  16.520   4.281
70509W        W42038   2.375   0.220   4.042
70510W        W42039  42.471  13.372   4.678
70511W        W42040   6.374   2.036   0.417
70512W        W42041  29.902  34.161   3.213
70513W        W42042  14.334  44.051   5.100
70514W        W42043  25.868  15.569   3.946
70515W        W42044   6.444  23.948  11.573
70516W        W42045  24.132  19.086   4.379
70517W        W42046  43.629  43.844  10.799
70518W        W42047  20.320  31.507   1.250
70519W        W42048   5.203   3.664  10.703
70520W        W42049  39.758  34.101  10.696
70521W        W42050  16.582  15.476  12.300
70522W        W42051  16.816  39.379   1.534
70523W        W42052  13.889  33.124   1.703
70524W        W42053  20.809  18.236   1.833
70525W        W42054  36.924   8.460  10.741
70526W        W42055   1.050  22.067  11.509
70527W        W42056  44.840  35.916  10.798
70528W        W42057   8.853  11.665  11.958
70529W        W42058  39.477  15.188  10.976
70530W        W42059   1.427  43.570  12.068
70531W        W42060  23.715  17.300  13.467
70532W        W42061  10.227  23.709  13.931
70533W        W42062   8.348  28.900  11.136
70534W        W42063  19.024  29.698   2.172
70535W        W42064  10.653  24.229  14.601
70536W        W42065   0.469   1.945   2.740
70537W        W42066  32.175  11.689   3.675
70538W        W42067  25.243  14.105  12.724
70539W        W42068  43.594   3.024  11.911
70540W        W42069  44.881  31.436  12.159
70541W        W42070   0.383  29.133   3.610
70542W        W42071  26.601  36.653  12.040
70543W        W42072  14.471  36.042  14.703
70544W        W42073  22.433   1.048  14.323
70545W        W42074  16.892   3.855   3.730
70546W        W42075  31.006  38.725   4.190
70547W        W42076  16.055  31.839  14.389
70548W        W42077  15.759   2.416   1.222
70549W        W42078  17.315  35.799  12.553
70550W        W42079  26.619  21.702  14.294
70551W        W42080   9.310  42.233  11.109
70552W        W42081  32.003  27.951  12.028
70553W        W42082  41.599  22.331  12.625
70554W        W42083  13.389  38.932   4.639
70555W        W42084   4.341  11.351  11.159
70556W        W42085  32.631  18.313   1.500
70557W        W42086  25.795  11.401  13.429
70558W        W42087   0.330  29.715  11.476
70559W        W42088  18.761  17.639  12.007
70560W        W42089   4.226   9.591   4.079
70561W        W42090   7.412  17.323   0.459
70562W        W42091  26.426  44.581   1.200
70563W        W42092  40.965  38.598   2.321
70564W        W42093  43.632  12.622   4.105
70565W        W42094  27.240  13.664  11.924
70566W        W42095  17.737  35.855  13.569
70567W        W42096  16.591  24.468  10.298
70568W        W42097  23.548  18.202  13.602
70569W        W42098  14.077   0.629   5.052
70570W        W42099  44.763  36.503   3.232
70571W        W42100  29.857  37.495   0.958
70572W        W42101  23.688  17.431   1.380
70573W        W42102  32.644  20.667   2.495
70574W        W42103  40.856  23.970   2.366
70575W        W42104  32.127  41.907   2.721
70576W        W42105   4.890   4.091  10.101
70577W        W42106  39.240  21.965   0.370
70578W        W42107   2.218   4.777   2.886
70579W        W42108  27.011  25.386  11.314
70580W        W42109  25.663  24.667   4.182
70581W        W42110   8.831  40.869   2.599
70582W        W42111  16.803  25.012  11.106
70583W        W42112  21.750  40.490  13.769
70584W        W42113  34.476  14.797  11.738
70585W        W42114  34.522  37.942   3.616
70586W        W42115  14.588  43.908  13.401
70587W        W42116  11.882  34.509   0.788
70588W        W42117  18.081  41.498   1.922
70589W        W42118  37.070  12.701   0.336
70590W        W42119   8.171  10.748  10.999
70591W        W42120  14.185  19.470  10.659
70592W        W42121  26.933   2.278  13.526
70593W        W42122  21.128   7.029   0.704
70594W        W42123  26.906  17.227   3.104
70595W        W42124  34.362   4.746   1.718
70596W        W42125  17.106  21.842  13.845
70597W        W42126  11.364   2.310   0.515
70598W        W42127   5.360  19.375   0.757
70599W        W42128  39.897  27.110   2.901
70600W        W42129  43.005   6.398  13.925
70601W        W42130  24.923  36.105   0.780
70602W        W42131   9.886  35.910   3.049
70603W        W42132  16.317   2.995   0.022
70604W        W42133  25.608  13.129  11.136
70605W        W42134   0.327  43.568   0.577
70606W        W42135  29.628  36.896  14.336
70607W        W42136  22.745  32.925   1.447
70608W        W42137   9.904  27.680  13.490
70609W        W42138  25.503   7.200  12.969
70610W        W42139  21.849  33.513  13.551
70611W        W42140   5.881  42.484  11.890
70612W        W42141   7.660  10.931   3.316
70613W        W42142  41.977  38.786  13.986
70614W        W42143   2.604  33.711  14.888
70615W        W42144  35.938   2.282  12.431
70616W        W42145  17.657  24.071  11.874
70617W        W42146  26.472  25.041   3.947
70618W        W42147  36.467   0.846  13.999
70619W        W42148  14.039  30.976  12.430
70620W        W42149  35.928  42.290  14.868
70621W        W42150  42.497  32.925  14.940
70622W        W42151  30.716   5.184  12.659
70623W        W42152   8.525   7.652   3.763
70624W        W42153  16.027  39.890   4.104
70625W        W42154  35.245  28.163  10.433
70626W        W42155  35.498  25.213  13.863
70627W        W42156  18.240  24.754   2.875
70628W        W42157  39.268  16.099  13.055
70629W        W42158   9.588  11.748  14.940
70630W        W42159  33.532  38.588  12.933
70631W        W42160   0.219  24.120   2.138
70632W        W42161  39.391  29.394   4.526
70633W        W42162  43.517  19.261   4.164
70634W        W42163  13.222  39.161   0.978
70635W        W42164  24.639  11.132   0.812
70636W        W42165  26.094  38.819  11.571
70637W        W42166  43.090  35.346   0.361
70638W        W42167  39.978   4.172  12.689
70639W        W42168  39.736   5.299   2.817
70640W        W42169   2.073  29.214  14.258
70641W        W42170  14.638  37.255   3.792
70642W        W42171  34.625  44.436   1.450
70643W        W42172   8.854  34.176  11.061
70644W        W42173  39.937  38.285   3.648
70645W        W42174  34.918   3.960  12.500
70646W        W42175  30.502  23.147   0.849
70647W        W42176  16.251  36.203   3.797
70648W        W42177  35.354  19.726   3.716
70649W        W42178   2.850   9.273   0.504
70650W        W42179  23.920  40.038   4.366
70651W        W42180  43.070   8.936   3.582
70652W        W42181   3.012  29.717  12.201
70653W        W42182  34.084  34.905   4.013
70654W        W42183  40.052  14.841   0.162
70655W        W42184   0.908  10.870  11.617
70656W        W42185  38.446  43.739   1.869
70657W        W42186  17.012  38.005  10.956
70658W        W42187  41.864  30.518  14.181
70659W        W42188   8.940  28.178  13.545
70660W        W42189  11.698  18.576  11.560
70661W        W42190   5.929  10.250   2.790
70662W        W42191   1.744   3.206   1.258
70663W        W42192  31.003  34.375  12.158
70664W        W42193  10.816  40.298   2.754
70665W        W42194  40.180  30.086  12.379
70666W        W42195   2.042  21.166   0.171
70667W        W42196  32.907   2.809   3.345
70668W        W42197  20.204  44.520   1.313
70669W        W42198   5.634   7.775  13.274
70670W        W42199  27.420  15.672  12.834
70671W        W42200  21.017  12.356  10.033
70672W        W42201  13.604  11.926   4.177
70673W        W42202  23.859  13.527   3.978
70674W        W42203  16.753  38.139   3.629
70675W        W42204  33.427  21.083  13.896
70676W        W42205  17.097  34.347  13.031
70677W        W42206  13.655  38.893   3.205
70678W        W42207  12.885  23.283  12.635
70679W        W42208   0.099  10.823   0.256
70680W        W42209   5.121   2.724  12.609
70681W        W42210  13.696  14.041   3.194
70682W        W42211   8.066  14.140   2.349
70683W        W42212  17.846   6.688   3.573
70684W        W42213  42.531  16.678   1.270
70685W        W42214  32.598   0.111  12.081
70686W        W42215  42.370   4.473   1.842
70687W        W42216  11.205  33.075  13.123
70688W        W42217  17.680   1.799  12.062
70689W        W42218  13.016   8.610  13.368
70690W        W42219  22.661   3.669   2.881
70691W        W42220   8.644  28.041   0.607
70692W        W42221  30.012  30.385  12.573
70693W        W42222  32.942  27.139  12.774
70694W        W42223  38.595   2.391   4.236
70695W        W42224   2.406   7.746  12.359
70696W        W42225   5.489  24.222   2.179
70697W        W42226  37.630   4.658   4.469
70698W        W42227  31.856  36.455  14.857
70699W        W42228  28.468  37.562  11.545
70700W        W42229  18.197  34.583   2.689
70701W        W42230  24.830   8.094  14.903
70702W        W42231  10.130  15.183   3.539
70703W        W42232  20.287  10.193  14.391
70704W        W42233  34.388  16.069  11.561
70705W        W42234  24.228  15.194   1.925
70706W        W42235  18.471  33.455  14.743
70707W        W42236  44.252   6.746   2.714
70708W        W42237  25.193  41.450  13.520
70709W        W42238  29.539   2.148  11.097
70710W        W42239  28.475  23.135   2.879
70711W        W42240  44.868  25.032   0.032
70712W        W42241  11.421  44.327   2.756
70713W        W42242  14.313   5.823  11.144
70714W        W42243  24.476  42.005  11.594
70715W        W42244  37.510  19.798  11.583
70716W        W42245  35.436   9.250   0.426
70717W        W42246  32.131  44.725  10.980
70718W        W42247   9.898  15.896   2.928
70719W        W42248  15.529  15.711  11.991
70720W        W42249  42.450   3.948  10.661
70721W        W42250   0.641  32.769  10.541
70722W        W42251  14.402   6.746   4.073
70723W        W42252  20.057  23.795  11.610
70724W        W42253  27.997   0.887  11.937
70725W        W42254  41.250   3.574   4.644
70726W        W42255  29.236  28.175  12.466
70727W        W42256  14.518  21.953  12.482
70728W        W42257  34.654  10.855   4.775
70729W        W42258   3.023  38.556  14.252
70730W        W42259  23.492   2.151  12.052
70731W        W42260   1.819  15.611  11.102
70732W        W42261  38.392  42.961   2.530
70733W        W42262  21.732   2.911   4.220
70734W        W42263  44.785  34.426   1.685
70735W        W42264  30.527  12.367  13.979
70736W        W42265   9.127  30.046  13.094
70737W        W42266  40.501  41.764   1.701
70738W        W42267  23.704   9.001   2.676
70739W        W42268  19.025  12.056  14.497
70740W        W42269   4.740   9.157  10.887
70741W        W42270  43.021  35.193   3.584
70742W        W42271  16.690  43.714   0.622
70743W        W42272  40.399  17.734  11.662
70744W        W42273  11.759  10.370   3.750
70745W        W42274  22.625   2.227   3.441
70746W        W42275  29.922  18.570  13.556
70747W        W42276  18.272  17.444   2.367
70748W        W42277  33.077  42.410   1.658
70749W        W42278  29.733  34.849  12.549
70750W        W42279  23.554  28.292   4.615
70751W        W42280  42.459  21.330   1.871
70752W        W42281  28.503  39.397  14.194
70753W        W42282  11.372  16.722  10.430
70754W        W42283  40.854   6.783   1.846
70755W        W42284  33.184  11.355   0.602
70756W        W42285  41.946  32.157   2.553
70757W        W42286  16.389  15.351  12.953
70758W        W42287  19.717  21.123  13.774
70759W        W42288  43.717  39.869   4.224
70760W        W42289  31.943  39.742  11.280
70761W        W42290  29.288  24.238  12.982
70762W        W42291  21.878   5.221   1.878
70763W        W42292  19.318  15.795   4.109
70764W        W42293  22.625  33.061  14.542
70765W        W42294  38.893  37.597  10.553
70766W        W42295  17.264  22.220  14.855
70767W        W42296  35.058  33.030   1.476
70768W        W42297  29.196  32.162  14.833
70769W        W42298  14.784  21.959  11.662
70770W        W42299  28.383  12.711   0.911
70771W        W42300  14.357  25.576   4.671
70772W        W42301  15.113  20.874   0.566
70773W        W42302  19.509   3.851  10.710
70774W        W42303  42.406  40.413   1.846
70775W        W42304  31.832   1.722  11.143
70776W        W42305   4.988  34.936  10.183
70777W        W42306  36.147  19.776   0.875
70778W        W42307  26.569  44.967   0.420
70779W        W42308  30.133  38.680   3.607
70780W        W42309  13.108  10.018   4.079
70781W        W42310  29.594  34.163   3.629
70782W        W42311  32.081  30.216  12.641
70783W        W42312  35.384   6.451  12.502
70784W        W42313  36.889  11.334  14.087
70785W        W42314  20.198  37.861   2.787
70786W        W42315  39.325  20.487   0.294
70787W        W42316   5.539  19.752   3.966
70788W        W42317  41.770  20.136   4.512
70789W        W42318  38.015  16.031  13.477
70790W        W42319  33.936  14.584   3.277
70791W        W42320  32.917   9.806   3.178
70792W        W42321  30.968  19.107   2.796
70793W        W42322   2.272  26.631   2.280
70794W        W42323  28.157   8.367  11.547
70795W        W42324  27.174   9.481   4.139
70796W        W42325  15.269  36.976  11.068
70797W        W42326  23.430   5.340  12.613
70798W        W42327  15.156  30.138  11.142
70799W        W42328   0.018  31.276   3.210
70800W        W42329  10.500  14.369  13.325
70801W        W42330   8.206  21.073  14.009
70802W        W42331  42.239  41.900  11.029
70803W        W42332  32.973  29.377  14.917
70804W        W42333  12.091  32.143   1.683
70805W        W42334  42.369  36.344  12.166
70806W        W42335  33.997  38.463   2.455
70807W        W42336   2.445  24.957  13.910
70808W        W42337  44.263  15.565  10.102
70809W        W42338   4.912  32.022  11.012
70810W        W42339  19.684  31.689  14.516
70811W        W42340  18.548   2.474  12.175
70812W        W42341   9.133  27.168  10.990
70813W        W42342  31.659  28.574   1.413
70814W        W42343  26.048  16.132  10.737
70815W        W42344  37.209   5.243  13.236
70816W        W42345  18.497  20.305   4.495
70817W        W42346   7.836  41.837   2.258
70818W        W42347  13.466  13.144   1.385
70819W        W42348   4.439  25.076   3.377
70820W        W42349   2.717   7.397  13.459
70821W        W42350  16.250  35.966  12.492
70822W        W42351  39.505  14.240   2.917
70823W        W42352  44.149  17.133   3.634
70824W        W42353  17.429  13.546  14.588
70825W        W42354  36.267  28.560   3.675
70826W        W42355  33.349  18.663   1.831
70827W        W42356  22.581  37.595  13.133
70828W        W42357  42.115  31.836  11.466
70829W        W42358  38.468   5.395  14.014
70830W        W42359  11.799   4.908  13.762
70831W        W42360  32.051  12.730   4.770
70832W        W42361  41.438  29.890   2.316
70833W        W42362  29.019  42.878  10.711
70834W        W42363  39.481   5.652  14.843
70835W        W42364  36.667  28.554   0.353
70836W        W42365  31.683  24.758  12.596
70837W        W42366  40.583   5.788  10.474
70838W        W42367  35.789  19.640  13.887
70839W        W42368  38.146  20.722   3.686
70840W        W42369  29.225   9.300   4.496
70841W        W42370  34.863  19.998  13.790
70842W        W42371  11.655  16.779  12.876
70843W        W42372  28.986  44.664  14.423
70844W        W42373  11.818  19.926   1.084
70845W        W42374  37.974  38.390  12.653
70846W        W42375  34.503  32.626   3.469
70847W        W42376  42.725  40.260  11.686
70848W        W42377  43.846  39.283  12.602
70849W        W42378  29.388  36.989   4.097
70850W        W42379  24.178  16.741  14.686
70851W        W42380  36.600  24.994  14.391
70852W        W42381  25.498  22.512   1.589
70853W        W42382   2.657  26.101   1.875
70854W        W42383  33.599   3.417   2.197
70855W        W42384  37.631  17.033  13.489
70856W        W42385  33.456  14.396   2.197
70857W        W42386  16.532  22.336  14.338
70858W        W42387  44.833  34.378  10.088
70859W        W42388  20.817  33.551  13.411
70860W        W42389  20.710  12.576   0.908
70861W        W42390  24.416  30.582  11.296
70862W        W42391  23.571  21.157   1.783
70863W        W42392  31.878  21.610  14.827
70864W        W42393  22.809  14.705   0.484
70865W        W42394   7.419  11.078   1.781
70866W        W42395  31.192  36.047   2.874
70867W        W42396  12.770  28.817   2.404
70868W        W42397   7.282  14.271  12.475
70869W        W42398  25.503   2.759   0.596
70870W        W42399  11.421   0.419   3.171
70871W        W42400  33.571  39.952   1.924
70872W        W42401  20.824  41.456  10.714
70873W        W42402  26.944  32.177  13.099
70874W        W42403   9.711  16.330   2.667
70875W        W42404  37.381  20.169   3.724
70876W        W42405  41.308   9.352  13.982
70877W        W42406  29.027  44.293  13.514
70878W        W42407   7.210  40.462   3.081
70879W        W42408   5.111  40.342  12.593
70880W        W42409  40.251  31.015  12.828
70881W        W42410  14.823  24.375  10.607
70882W        W42411   8.959  43.934  13.103
70883W        W42412  18.436  40.460   4.194
70884W        W42413   9.881  25.466  14.957
70885W        W42414   8.797  36.617   2.929
70886W        W42415  29.212  22.139   3.201
70887W        W42416   3.500  39.741   2.940
70888W        W42417  19.543  26.227  13.004
70889W        W42418  21.674  34.004  14.796
70890W        W42419  38.794  37.241  13.616
70891W        W42420  11.333  34.663  10.503
70892W        W42421  25.092   3.156  12.435
70893W        W42422  24.707   1.661   2.860
70894W        W42423  17.191  39.366   1.890
70895W        W42424   6.445  36.025   2.588
70896W        W42425   8.698   3.401   3.105
70897W        W42426  36.740  27.772  13.173
70898W        W42427  44.417  29.550  12.209
70899W        W42428  42.424  17.655   1.658
70900W        W42429   7.082   4.505   2.432
70901W        W42430  24.137  15.216   0.401
70902W        W42431  20.218   2.438   1.031
70903W        W42432  10.390  23.122   4.301
70904W        W42433  13.749  16.942   0.487
70905W        W42434  27.209  14.673   1.783
70906W        W42435  18.763  35.005   0.205
70907W        W42436   4.447  34.053   3.590
70908W        W42437  26.675  33.891   1.396
70909W        W42438   2.175  39.340   2.229
70910W        W42439  30.936  18.585   3.479
70911W        W42440   9.809   9.638  13.926
70912W        W42441  11.051  41.509  14.864
70913W        W42442  31.456  17.351  12.423
70914W        W42443   4.491  24.082  10.967
70915W        W42444  23.602  42.782   1.796
70916W        W42445   8.219  34.364   0.469
70917W        W42446   3.114  18.683  10.721
70918W        W42447   1.543  44.305   3.683
70919W        W42448  30.514  43.018  14.874
70920W        W42449   2.742   5.580  11.583
70921W        W42450  27.816  24.667  14.711
70922W        W42451   8.309  11.583   0.381
70923W        W42452  11.377  35.716  12.364
70924W        W42453  41.338  26.167   1.259
70925W        W42454  35.021  19.771  14.234
70926W        W42455   3.202  33.025  14.877
70927W        W42456  34.469  16.421   0.474
70928W        W42457  10.252   5.550   9.883
70929W        W42458  28.451   5.160   2.662
70930W        W42459  21.665  27.990  14.035
70931W        W42460  13.849  27.085   0.764
70932W        W42461  30.906  25.491   0.233
70933W        W42462  43.497  33.730  13.639
70934W        W42463  11.593   4.451   0.801
70935W        W42464  44.414  44.828   2.479
70936W        W42465  18.906  16.225   2.917
70937W        W42466  34.099   0.988   1.828
70938W        W42467  23.416  10.271   1.121
70939W        W42468  31.001  30.907   0.328
70940W        W42469  35.286   4.657   4.608
70941W        W42470  15.799  26.729  12.384
70942W        W42471  43.060  16.120  10.973
70943W        W42472  41.815  27.178   4.310
70944W        W42473  19.734   0.369  12.077
70945W        W42474  39.514   0.924   0.810
70946W        W42475  27.868  22.497   2.913
70947W        W42476   5.687  39.201  14.574
70948W        W42477  25.119  22.710   2.367
70949W        W42478   1.874  30.433  12.124
70950W        W42479  14.581  39.938   3.884
70951W        W42480  41.287   2.268   4.644
70952W        W42481  29.393  39.369  13.107
70953W        W42482   0.999  12.427   4.221
70954W        W42483  21.184  19.697   1.485
70955W        W42484  44.853  22.512  12.310
70956W        W42485  16.764  42.577   0.880
70957W        W42486  41.981  12.410   0.429
70958W        W42487   2.922  26.742  14.445
70959W        W42488  25.134  22.953  14.772
70960W        W42489  15.857  16.689  10.341
70961W        W42490  32.467  22.191  12.890
70962W        W42491  15.189   6.892  12.925
70963W        W42492  18.336   0.770   3.410
70964W        W42493   4.858   1.599   1.786
70965W        W42494  26.505  25.541   2.185
70966W        W42495   6.605  41.892   0.835
70967W        W42496  25.660  42.889  12.525
70968W        W42497  25.718  23.870   3.127
70969W        W42498  27.399  14.973   5.074
70970W        W42499  38.149  33.613  10.453
70971W        W42500   7.291  35.401   0.102
70972W        W42501  38.317  22.082  11.091
70973W        W42502   8.187   8.195   4.472
70974W        W42503   8.658  10.402  12.457
70975W        W42504  32.932  28.526   4.663
70976W        W42505   5.989  23.976  14.864
70977W        W42506  23.271  15.774   3.746
70978W        W42507  12.088  18.669  13.048
70979W        W42508  26.864  32.964  12.934
70980W        W42509   2.123  19.604   4.532
70981W        W42510   6.214  29.385   1.806
70982W        W42511  18.033  18.712   0.446
70983W        W42512  20.538  28.401   1.364
70984W        W42513  38.613   4.664  10.379
70985W        W42514  36.860  41.626   0.700
70986W        W42515  40.037   2.937   0.212
70987W        W42516  22.295  24.894   0.322
70988W        W42517  10.643   9.314   1.746
70989W        W42518  39.341  33.380   0.330
70990W        W42519  18.787  36.340  12.212
70991W        W42520  31.890  39.593   3.230
70992W        W42521  43.401  44.206   3.576
70993W        W42522  10.890  38.956  13.548
70994W        W42523  22.180  24.462  14.297
70995W        W42524   1.847  43.324   1.814
70996W        W42525  16.457  26.108   4.629
70997W        W42526  18.287   4.148   1.199
70998W        W42527  28.624  11.205  13.949
70999W        W42528  35.189  32.118   1.015
71000W        W42529  43.447   9.427   4.343
71001W        W42530   8.372  12.602   4.780
71002W        W42531   1.731  23.923   0.202
71003W        W42532   7.766  22.115  14.947
71004W        W42533  28.496  38.539  14.391
71005W        W42534   4.296  16.831  10.720
71006W        W42535  21.815  21.931   0.310
71007W        W42536  22.197   3.809  13.922
71008W        W42537  36.952   1.230  10.683
71009W        W42538  20.443  26.184   3.645
71010W        W42539  27.589  13.054  11.501
71011W        W42540  33.824  20.478  14.381
71012W        W42541  32.066  34.330  12.509
71013W        W42542   8.714  40.355  10.733
71014W        W42543  16.347  16.965   4.645
71015W        W42544  23.040  43.383   3.717
71016W        W42545  34.104  30.409   4.192
71017W        W42546  17.691  15.318  11.615
71018W        W42547  28.084   5.127   4.051
71019W        W42548  11.281   6.167  13.010
71020W        W42549  25.710  28.961  12.121
71021W        W42550  35.483  43.569   4.347
71022W        W42551  37.309  41.520   4.585
71023W        W42552  12.740  12.335  14.890
71024W        W42553  41.901  40.059   1.820
71025W        W42554  44.051   1.912   0.080
71026W        W42555   1.617   9.459  13.101
71027W        W42556   1.061  32.049   1.256
71028W        W42557  11.750  26.064   3.668
71029W        W42558   2.547  15.496   4.120
71030W        W42559  36.154  14.368   3.236
71031W        W42560  27.139  16.611   2.916
71032W        W42561   3.902   6.932   4.038
71033W        W42562  26.697  44.439  13.032
71034W        W42563  10.325  30.794   1.777
71035W        W42564  27.087  15.143  12.899
71036W        W42565  19.170  31.154   2.872
71037W        W42566  14.388   3.518  14.377
71038W        W42567  44.379   8.131   3.710
71039W        W42568   3.834  24.710   0.243
71040W        W42569  10.218  28.698  10.763
71041W        W42570  38.102  14.807  12.555
71042W        W42571  39.317  16.314  13.929
71043W        W42572  42.729  12.087  10.996
71044W        W42573  13.026  35.570  13.061
71045W        W42574  14.215  38.581  12.323
71046W        W42575  18.176  39.914   0.059
71047W        W42576   3.343  16.628   2.272
71048W        W42577  37.378  11.713  13.471
71049W        W42578   5.288  14.100   0.982
71050W        W42579  44.832  19.788  14.612
71051W        W42580  13.445  31.218   4.260
71052W        W42581  28.339  29.535  12.388
71053W        W42582  20.565  16.526  13.120
71054W        W42583   5.208  10.764  11.988
71055W        W42584  32.628   6.494   4.340
71056W        W42585  35.374  17.633   4.697
71057W        W42586  39.491  26.898   3.156
71058W        W42587  15.772  19.421  12.380
71059W        W42588  18.232  32.609   0.782
71060W        W42589  16.503   4.728   0.342
71061W        W42590  10.605  33.636   4.201
71062W        W42591  13.230  14.261   3.201
71063W        W42592  43.179  28.800  11.100
71064W        W42593   9.762  25.245   1.415
71065W        W42594  36.511  21.595   2.804
71066W        W42595  44.077  38.485  12.978
71067W        W42596  30.994  34.312   3.139
71068W        W42597   6.829  33.342  14.495
71069W        W42598  13.889  29.467  11.133
71070W        W42599  35.489  17.696  12.811
71071W        W42600  36.706  33.157   0.762
71072W        W42601  12.428   4.937   3.643
71073W        W42602  32.830   4.723   0.499
71074W        W42603  20.726  32.153   4.266
71075W        W42604  36.948   9.625  14.566
71076W        W42605  17.057  38.874  11.040
71077W        W42606   3.320  11.887  13.039
71078W        W42607  13.910  10.634  12.580
71079W        W42608  16.526  24.492   3.279
71080W        W42609  32.003   1.072   0.823
71081W        W42610  21.205  12.092  12.959
71082W        W42611  18.023  34.080   2.280
71083W        W42612  34.620  18.131  14.295
71084W        W42613  18.576   3.614   3.539
71085W        W42614  40.496  34.670  12.557
71086W        W42615   0.033  14.046  11.600
71087W        W42616  13.584  19.606   4.620
71088W        W42617   2.511  36.171   4.163
71089W        W42618   4.681  18.320   3.729
71090W        W42619  42.224  33.407   4.234
71091W        W42620  29.490  21.718  14.617
71092W        W42621  17.255  10.287  13.326
71093W        W42622  19.857  25.622  14.635
71094W        W42623  17.973  27.393   4.506
71095W        W42624  23.567  17.738  13.845
71096W        W42625   1.270  37.907  13.451
71097W        W42626  43.958  22.256  14.293
71098W        W42627  25.290   9.671  11.086
71099W        W42628   4.661  17.117  12.161
71100W        W42629  42.587  29.871   2.844
71101W        W42630  43.097  27.947   3.621
71102W        W42631  15.678  19.227   3.333
71103W        W42632  34.611  25.640   2.702
71104W        W42633  27.650  44.292  10.682
71105W        W42634  15.018  29.220   2.284
71106W        W42635   5.646  43.397   1.982
71107W        W42636   9.272  16.072   2.561
71108W        W42637  25.252  23.640   4.830
71109W        W42638   1.686  26.419   0.821
71110W        W42639  21.158  36.016   0.436
71111W        W42640  36.769  20.755  11.134
71112W        W42641  18.663  17.153  14.574
71113W        W42642  21.488   2.689  12.079
71114W        W42643  37.884  31.663   3.234
71115W        W42644  13.839  12.709  11.909
71116W        W42645  41.229  29.528   5.027
71117W        W42646  12.991  21.769   4.166
71118W        W42647  20.996  17.576  13.134
71119W        W42648  18.862  36.149  10.537
71120W        W42649  18.110  14.119  14.834
71121W        W42650   4.133  17.646  14.255
71122W        W42651  41.001  29.010  14.905
71123W        W42652  17.004   9.909   3.135
71124W        W42653  20.521   5.418   4.040
71125W        W42654  40.104  19.203  11.027
71126W        W42655   9.758   3.229   2.409
71127W        W42656  21.556  33.035  11.595
71128W        W42657  34.773  31.296  12.081
71129W        W42658  28.063  41.444   9.576
71130W        W42659  13.129  27.039  12.056
71131W        W42660  32.877  19.201  13.030
71132W        W42661  30.456  38.606  10.317
71133W        W42662  16.140   7.808  13.943
71134W        W42663  38.635  11.289  13.285
71135W        W42664  34.408  12.911   3.727
71136W        W42665  21.124   3.137  10.737
71137W        W42666  39.406  41.397   4.497
71138W        W42667  44.214   2.281   0.931
71139W        W42668  17.748  16.344   1.435
71140W        W42669   1.923  17.072  13.829
71141W        W42670  35.153  11.307  11.934
71142W        W42671   2.930  21.468  10.725
71143W        W42672  16.093   0.555  11.915
71144W        W42673  37.600  22.559   1.886
71145W        W42674  38.581  41.991  10.704
71146W        W42675  18.216  11.752  14.164
71147W        W42676  39.830   5.437   1.916
71148W        W42677  41.100   8.660   3.148
71149W        W42678  24.869  38.080  12.504
71150W        W42679  11.441  25.425   1.274
71151W        W42680  12.898   9.789  12.820
71152W        W42681   4.414   7.807  14.196
71153W        W42682  38.080   2.662   2.907
71154W        W42683   5.327  34.893   2.694
71155W        W42684  11.516   9.900  14.559
71156W        W42685  22.095  30.699  11.265
71157W        W42686  18.331   4.641  10.946
71158W        W42687  25.382  16.552  11.669
71159W        W42688   2.197   6.581  12.720
71160W        W42689   8.126  19.343  10.767
71161W        W42690  33.116  14.381  14.277
71162W        W42691  10.848  19.391   4.515
71163W        W42692  22.077  36.969   4.959
71164W        W42693  41.264  35.982  14.237
71165W        W42694   6.009  19.757  11.552
71166W        W42695  22.434   5.844  13.776
71167W        W42696  24.072  41.057   3.069
71168W        W42697  30.469  27.663   0.992
71169W        W42698  42.482  33.348   1.756
71170W        W42699  27.549  20.711   1.209
71171W        W42700  28.065  36.969   1.363
71172W        W42701   4.040  33.215   4.091
71173W        W42702  35.518  37.046  14.670
71174W        W42703  16.654  35.737  11.092
71175W        W42704  16.227  11.246   4.747
71176W        W42705  17.845  16.085   3.668
71177W        W42706  38.001   4.290   1.483
71178W        W42707  18.746  40.354  14.057
71179W        W42708  13.784   6.202  12.994
71180W        W42709  11.505  20.171  10.936
71181W        W42710  27.491  32.897  14.734
71182W        W42711  20.079  23.645  13.319
71183W        W42712  29.135  32.471   0.269
71184W        W42713  35.520  34.363  13.835
71185W        W42714  27.433   7.853  11.465
71186W        W42715  23.715   0.722   4.311
71187W        W42716  42.051  19.585   0.030
71188W        W42717   2.458  14.651   3.200
71189W        W42718  12.241  28.709   2.722
71190W        W42719  35.506  32.472  12.509
71191W        W42720  23.645  22.062  11.211
71192W        W42721  12.030  20.318   4.509
71193W        W42722  20.099  19.746   0.858
71194W        W42723   4.756  24.139  10.530
71195W        W42724   1.351   3.150  10.537
71196W        W42725  16.835   5.940  14.742
71197W        W42726  10.212  30.459   0.569
71198W        W42727  40.952   5.347  13.619
71199W        W42728  24.609  10.501  13.548
71200W        W42729   0.603  24.136  14.440
71201W        W42730  24.041  33.380   4.566
71202W        W42731  23.608  15.281  11.974
71203W        W42732  36.690  17.766  12.090
71204W        W42733  29.037   0.808   2.204
71205W        W42734  16.190   7.881  14.485
71206W        W42735  29.067   1.787   0.938
71207W        W42736  14.879   8.392  13.456
71208W        W42737  20.343  27.462  14.085
71209W        W42738  38.399   2.879  11.563
71210W        W42739  21.092  37.926   5.488
71211W        W42740   6.463   0.360  14.392
71212W        W42741  29.971  35.578  13.178
71213W        W42742  24.581  36.382   3.272
71214W        W42743  19.382  11.206   3.716
71215W        W42744  31.692  27.179   2.754
71216W        W42745   2.295  42.486   3.333
71217W        W42746  34.070  41.171  12.053
71218W        W42747   1.075  18.534  11.181
71219W        W42748  34.659  11.789  10.463
71220W        W42749  30.406  27.122   1.460
71221W        W42750  26.764  19.994  13.118
71222W        W42751   5.826  23.285  13.267
71223W        W42752  28.472  28.588   3.377
71224W        W42753  27.591  11.919   4.859
71225W        W42754  35.721  13.272   0.293
71226W        W42755  37.415  23.175   4.038
71227W        W42756  33.594  12.695   2.323
71228W        W42757  34.896  41.985  13.759
71229W        W42758  14.551  43.044  10.911
71230W        W42759  25.178   6.484  12.898
71231W        W42760   3.566  10.207  12.439
71232W        W42761  15.025  25.077  12.588
71233W        W42762  29.342  13.865  14.360
71234W        W42763  29.155  27.149   3.758
71235W        W42764  31.100  18.120   3.630
71236W        W42765   1.328  11.865   3.781
71237W        W42766   3.021   1.889  11.607
71238W        W42767  17.290  11.385   2.907
71239W        W42768  23.198  26.664   4.075
71240W        W42769  12.673  21.223  14.911
71241W        W42770  17.087  39.588  12.427
71242W        W42771  20.698   8.118  10.448
71243W        W42772  19.743   0.266  10.643
71244W        W42773  13.211  38.186   2.799
71245W        W42774   0.426  44.951   2.717
71246W        W42775  31.279  23.522   2.108
71247W        W42776   1.305  17.710   4.639
71248W        W42777   9.318  29.183  14.813
71249W        W42778  40.069  21.749   1.605
71250W        W42779  16.875  32.532   2.248
71251W        W42780  15.122  15.114  13.454
71252W        W42781  21.929  29.522  11.522
71253W        W42782  20.491  12.386   0.469
71254W        W42783  24.341   0.572  11.518
71255W        W42784  36.934  38.574  13.035
71256W        W42785  13.574   9.233  12.934
71257W        W42786  10.880   4.466   2.841
71258W        W42787  13.544  29.714   4.083
71259W        W42788  42.254  15.642   0.863
71260W        W42789  15.212  42.443   3.657
71261W        W42790  43.419   9.587  10.547
71262W        W42791   7.754  25.956   3.687
71263W        W42792  10.582  16.219   2.234
71264W        W42793  26.903  43.043  10.315
71265W        W42794  23.655  36.128   0.310
71266W        W42795  32.559  29.467  10.961
71267W        W42796  14.140   6.684  13.782
71268W        W42797  40.363  44.254   0.758
71269W        W42798  33.431  37.019  12.035
71270W        W42799  27.930  21.621  10.408
71271W        W42800  27.683  34.103  11.941
71272W        W42801   5.255   6.063   2.707
71273W        W42802   8.266   3.436   4.946
71274W        W42803   3.864  44.371  12.398
71275W        W42804  12.177  31.481   3.854
71276W        W42805   0.481  42.293   2.728
71277W        W42806  34.056  39.432  13.763
71278W        W42807  43.947  26.669   2.631
71279W        W42808  35.595   6.448  13.383
71280W        W42809   1.048   8.754   4.084
71281W        W42810  37.427  35.399   2.139
71282W        W42811  19.349  13.767   1.922
71283W        W42812  32.422  32.635   4.654
71284W        W42813  36.317  13.707   3.852
71285W        W42814  37.542  44.112  12.225
71286W        W42815  24.914  43.972   0.843
71287W        W42816   5.952  38.315   4.105
71288W        W42817  12.789  19.299   1.237
71289W        W42818  43.043  18.773   4.655
71290W        W42819  28.070  43.724  13.937
71291W        W42820  14.745  20.473   2.976
71292W        W42821   8.322   4.953  11.038
71293W        W42822  21.561  11.292   1.519
71294W        W42823   0.352   9.777  10.944
71295W        W42824   1.450  41.569  14.592
71296W        W42825  23.432  28.360   2.625
71297W        W42826  17.784  25.017   1.355
71298W        W42827   6.416   3.678   3.312
71299W        W42828  21.056  26.590   1.442
71300W        W42829   2.868  25.702  11.985
71301W        W42830  13.459  37.124  11.590
71302W        W42831  25.569  13.410  10.706
71303W        W42832   0.207  14.547  11.559
71304W        W42833  12.128  38.729   4.785
71305W        W42834  43.524  22.327   1.220
71306W        W42835  11.771   8.956   5.011
71307W        W42836  18.966  21.848  10.977
71308W        W42837  32.881   7.293   1.723
71309W        W42838  16.779  16.131  14.533
71310W        W42839   1.486  42.082  12.833
71311W        W42840  27.939  22.404   0.882
71312W        W42841  34.469  19.136  14.412
71313W        W42842  16.068   6.746  10.294
71314W        W42843  28.617  22.564  11.116
71315W        W42844   6.186  13.848  13.376
71316W        W42845  31.930   2.631   1.984
71317W        W42846  21.062  11.899   0.457
71318W        W42847  16.056  44.373   1.101
71319W        W42848  19.792  23.135   3.342
71320W        W42849  26.940  21.082  14.850
71321W        W42850  26.259  42.298  11.117
71322W        W42851  39.008  20.560   2.085
71323W        W42852  16.580  17.659  10.644
71324W        W42853   9.998  33.532   1.334
71325W        W42854  18.736  31.901  11.618
71326W        W42855  16.299  42.250  10.685
71327W        W42856   6.834  13.949   2.581
71328W        W42857  39.380  39.286  12.898
71329W        W42858   0.870  10.461  13.560
71330W        W42859  41.851  35.884  11.546
71331W        W42860  38.335  43.264   4.483
71332W        W42861  24.236  43.352  14.430
71333W        W42862  37.568  43.706   0.931
71334W        W42863  20.781  34.169  11.624
71335W        W42864  35.028  44.376   0.204
71336W        W42865  15.751  13.376   1.908
71337W        W42866  23.927  21.305  13.366
71338W        W42867  38.046   8.726  10.937
71339W        W42868  44.351  39.015   0.231
71340W        W42869  31.267  25.272  12.093
71341W        W42870   5.800  18.058  12.421
71342W        W42871  38.532  15.342  13.743
71343W        W42872  41.857  26.256  11.649
71344W        W42873   6.561   2.743   3.064
71345W        W42874  35.061  17.271  14.735
71346W        W42875  30.934  11.095  11.595
71347W        W42876   7.363   7.146   1.231
71348W        W42877   4.703  28.710   0.118
71349W        W42878   0.456  11.118   1.324
71350W        W42879  28.175  36.387   0.484
71351W        W42880  31.284  18.994  14.768
71352W        W42881   9.171   1.566  13.347
71353W        W42882  38.717   4.324   3.478
71354W        W42883   9.593   8.155  12.004
71355W        W42884  23.037  33.967  12.714
71356W        W42885   7.430  26.945  10.592
71357W        W42886  40.949  39.869   0.809
71358W        W42887  42.040  18.298  10.971
71359W        W42888  33.014  17.565   1.361
71360W        W42889   8.648  42.775  13.688
71361W        W42890   4.342  42.821   1.452
71362W        W42891  24.650   4.458  13.313
71363W        W42892   8.416  22.629   2.781
71364W        W42893  18.271  14.621   1.768
71365W        W42894  41.369  17.605   0.401
71366W        W42895  32.576  10.260  12.043
71367W        W42896  38.417  22.843  11.852
71368W        W42897  34.458  43.927  13.615
71369W        W42898   2.456  10.245  10.866
71370W        W42899  36.849  30.071   2.603
71371W        W42900  38.849  38.435  11.622
71372W        W42901  19.324   6.727   2.865
71373W        W42902  29.207  38.874   4.053
71374W        W42903  10.345  27.034   2.373
71375W        W42904  27.865  38.399  13.015
71376W        W42905  15.151  35.611   4.134
71377W        W42906  29.393  28.447  14.517
71378W        W42907  34.087  32.064   2.664
71379W        W42908   3.564  26.691  13.447
71380W        W42909   4.204  39.692   3.498
71381W        W42910  20.085  16.325  13.142
71382W        W42911  37.509  16.116  13.535
71383W        W42912  19.818  43.907  11.810
71384W        W42913  30.340  24.275   4.855
71385W        W42914  18.137   4.777   4.191
71386W        W42915   7.870   9.130   3.783
71387W        W42916   8.797   3.908   1.023
71388W        W42917  37.980  18.985  12.237
71389W        W42918  27.097  41.337   1.614
71390W        W42919  40.740  43.879  14.492
71391W        W42920  31.396   2.360   2.563
71392W        W42921  28.238  42.093   0.616
71393W        W42922  26.680  20.173   3.599
71394W        W42923  23.534  27.196   2.294
71395W        W42924  19.765   3.954   4.101
71396W        W42925  33.580  17.046  12.045
71397W        W42926  12.016   0.333   1.929
71398W        W42927   2.349   0.302  10.936
71399W        W42928  14.845  17.806  11.455
71400W        W42929  21.677  36.993  13.848
71401W        W42930  11.875  20.525   1.650
71402W        W42931  22.776  42.564  10.974
71403W        W42932  34.543  42.090  14.602
71404W        W42933  23.498  27.476   1.807
71405W        W42934   6.438  30.145  11.628
71406W        W42935  43.494   6.490   0.202
71407W        W42936  22.495  34.666   5.037
71408W        W42937  42.966  13.213   2.867
71409W        W42938  37.549  33.854  12.877
71410W        W42939   3.349  13.051   4.887
71411W        W42940   7.719   4.316   4.475
71412W        W42941  20.759  11.309  12.507
71413W        W42942  11.303  26.619  10.846
71414W        W42943  21.445  34.184   0.282
71415W        W42944   5.279  31.790  10.581
71416W        W42945  38.815  30.139  14.798
71417W        W42946   7.158  14.414  13.763
71418W        W42947  32.483   9.810  14.006
71419W        W42948   8.351  33.899   0.727
71420W        W42949  42.649  40.501  11.157
71421W        W42950  12.046  23.853   1.913
71422W        W42951  30.167  13.231   0.366
71423W        W42952  37.578  40.344   4.540
71424W        W42953  19.747  21.070  12.014
71425W        W42954   3.531  16.208   1.350
71426W        W42955  28.588  16.063   0.825
71427W        W42956  26.962  44.802  10.583
71428W        W42957  31.068  34.037   2.686
71429W        W42958  36.401   3.791   2.423
71430W        W42959  38.577  14.301  12.057
71431W        W42960   3.550  24.156  13.930
71432W        W42961  10.887  42.802   4.268
71433W        W42962  34.607  26.566   1.693
71434W        W42963  28.149  26.766  13.010
71435W        W42964  31.707  31.479   1.837
71436W        W42965  28.097  29.688  11.230
71437W        W42966  27.435  27.664   1.842
71438W        W42967   5.697  15.105   3.368
71439W        W42968  16.795  23.972  10.299
71440W        W42969  18.226  18.367   3.150
71441W        W42970  16.585  25.150   3.772
71442W        W42971  43.029  11.669   1.633
71443W        W42972  19.539  19.751   2.827
71444W        W42973  42.351  24.006   3.643
71445W        W42974  23.116  27.498   2.226
71446W        W42975  41.105  23.125  12.650
71447W        W42976   9.973  21.598  13.837
71448W        W42977   0.583   7.864   2.748
71449W        W42978   3.775  14.100   0.784
71450W        W42979  28.923  41.929   3.097
71451W        W42980  35.462  39.568   1.080
71452W        W42981  39.704  44.984  13.037
71453W        W42982  32.061  14.860   4.143
71454W        W42983  38.038  25.010   0.512
71455W        W42984  30.067  17.124  13.330
71456W        W42985  40.795  32.435  14.418
71457W        W42986  19.211  32.187  13.920
71458W        W42987  17.093  21.045  10.330
71459W        W42988  36.170  23.974  14.049
71460W        W42989  16.252   3.917  11.676
71461W        W42990  27.618  31.993  10.547
71462W        W42991  35.269  32.635   3.669
71463W        W42992   4.810  26.580   4.877
71464W        W42993  11.811  20.694  13.307
71465W        W42994   5.877  18.211  13.317
71466W        W42995  37.541  41.395  11.884
71467W        W42996  31.967   8.439   1.312
71468W        W42997  31.963   4.092   1.730
71469W        W42998   8.269   7.307  12.749
71470W        W42999  18.669  35.050  10.690
71471W        W43000  10.562   8.444  12.189
71472W        W43001  32.834   2.968  13.766
71473W        W43002  42.091  23.256  11.081
71474W        W43003   1.151  14.441  10.356
71475W        W43004  42.219   1.368  12.473
71476W        W43005  36.453  11.767   0.983
71477W        W43006  37.089  31.697  13.965
71478W        W43007  35.947  33.648  14.874
71479W        W43008   2.795  43.691   4.643
71480W        W43009  40.145  38.279   2.771
71481W        W43010  44.759  18.171  13.068
71482W        W43011  21.674  18.768   1.762
71483W        W43012  44.357  23.219  10.552
71484W        W43013   2.403  13.556   4.067
71485W        W43014  12.148  35.579   2.740
71486W        W43015  17.971   6.921  10.919
71487W        W43016  34.648  23.714   4.314
71488W        W43017  43.810  16.272   4.746
71489W        W43018   8.047  40.329   2.747
71490W        W43019  32.861  26.135  12.484
71491W        W43020  12.535  27.978  14.465
71492W        W43021  27.933   8.952   0.042
71493W        W43022  13.650   4.697  14.221
71494W        W43023  25.247   5.217  13.910
71495W        W43024   1.017   9.807   0.289
71496W        W43025  39.927   6.719  13.452
71497W        W43026  27.080  41.727  12.553
71498W        W43027  37.616   2.767   3.161
71499W        W43028  25.271  38.307   4.203
71500W        W43029  12.720  20.809  13.329
71501W        W43030  33.645  14.571  10.951
71502W        W43031  11.544   0.792  11.608
71503W        W43032  21.500   9.777   2.310
71504W        W43033  13.256   3.841   3.891
71505W        W43034  24.097  17.612   2.339
71506W        W43035  25.068  19.981  11.728
71507W        W43036  41.297  33.162   2.034
71508W        W43037  42.016  33.129  11.960
71509W        W43038   5.906  18.634  14.498
71510W        W43039   9.828   7.894  11.604
71511W        W43040  10.301  24.592  14.524
71512W        W43041  42.340  11.177   0.454
71513W        W43042  32.016  36.908   4.578
71514W        W43043  29.708  27.439  10.226
71515W        W43044  35.506   7.325  13.735
71516W        W43045   6.426   3.325   4.583
71517W        W43046  21.948   1.772  11.244
71518W        W43047  35.782   2.736  10.630
71519W        W43048  40.652   9.115  13.010
71520W        W43049  29.622  10.553   0.385
71521W        W43050   1.863  20.758   4.210
71522W        W43051  22.121   3.905   4.572
71523W        W43052  24.750   5.251   2.330
71524W        W43053  15.865  17.503  13.956
71525W        W43054  42.547   8.523  13.207
71526W        W43055   1.208   5.679   2.666
71527W        W43056  15.133  18.643  14.301
71528W        W43057  41.985   9.105   1.141
71529W        W43058  12.781  33.173  13.989
71530W        W43059  35.424  24.006  13.271
71531W        W43060  10.361  36.391   3.549
71532W        W43061  42.024  12.293  10.265
71533W        W43062   8.437   9.333   3.488
71534W        W43063  10.153   4.420   4.364
71535W        W43064  17.001  34.036   0.991
71536W        W43065  17.062   6.381  13.053
71537W        W43066   8.944  12.696  14.971
71538W        W43067  17.648  31.866   5.052
71539W        W43068  14.564  11.422   0.035
71540W        W43069   8.226  42.971  12.266
71541W        W43070   3.291   1.296   1.359
71542W        W43071  33.953  23.227  14.477
71543W        W43072  10.379  35.911  11.495
71544W        W43073  12.354  15.678   3.498
71545W        W43074  29.541  17.281  10.507
71546W        W43075   0.011  24.560  11.204
71547W        W43076  22.654  29.417   0.346
71548W        W43077  32.547   8.760   2.385
71549W        W43078  35.167  38.961  13.766
71550W        W43079  43.384  36.923   3.664
71551W        W43080  40.828  19.800  12.798
71552W        W43081  31.089  14.766  13.517
71553W        W43082   8.351  18.303   1.577
71554W        W43083  24.388  13.609   4.220
71555W        W43084  27.018  30.695  14.891
71556W        W43085   9.421  15.100   2.243
71557W        W43086  34.589  42.990  13.039
71558W        W43087  31.044  26.359  10.937
71559W        W43088  18.321  38.868   3.743
71560W        W43089  33.664  44.402  12.355
71561W        W43090  13.421  11.440   2.381
71562W        W43091  25.273  11.949  12.807
71563W        W43092  36.738  16.180   0.784
71564W        W43093   3.286  28.912  13.904
71565W        W43094  20.684   1.517   3.302
71566W        W43095  34.476  21.231  13.142
71567W        W43096  15.852   8.579   1.316
71568W        W43097   5.715  36.340   1.495
71569W        W43098  16.155  13.010  14.396
71570W        W43099  17.656  15.836   0.556
71571W        W43100  20.590   5.206  14.837
71572W        W43101  29.573  39.732   4.255
71573W        W43102  32.995  16.616   4.760
71574W        W43103  30.670  33.522   0.641
71575W        W43104  31.580  22.166   4.546
71576W        W43105  41.587  39.138  13.916
71577W        W43106  37.526   5.274   2.121
71578W        W43107  41.897  41.968   1.661
71579W        W43108  21.124   7.487   0.941
71580W        W43109  17.248  15.772   4.113
71581W        W43110  17.808   7.941   4.688
71582W        W43111  25.450  40.994   2.341
71583W        W43112   1.719  35.509  11.964
71584W        W43113  18.546  38.125  14.309
71585W        W43114  29.697   8.809  13.466
71586W        W43115  30.003  15.547  14.413
71587W        W43116  43.225   3.880   0.291
71588W        W43117  41.470   9.547   0.541
71589W        W43118  30.620  17.869  11.203
71590W        W43119  17.532  18.242   1.278
71591W        W43120  39.628  43.001   4.307
71592W        W43121  19.766  37.903  14.800
71593W        W43122  27.089  35.735   1.360
71594W        W43123  28.955  36.580  10.358
71595W        W43124  16.087  16.032   3.329
71596W        W43125  25.171   3.996   1.710
71597W        W43126  12.516  30.134  11.517
71598W        W43127  19.832  19.008  11.642
71599W        W43128  28.541  13.910  11.156
71600W        W43129  23.917  13.748  13.293
71601W        W43130  37.099  20.107  11.596
71602W        W43131  14.751  23.838   4.177
71603W        W43132  23.497  29.774   4.641
71604W        W43133  29.510  24.368   5.114
71605W        W43134  26.965  35.916  13.674
71606W        W43135  35.562   2.307  11.570
71607W        W43136  44.387  16.667  13.699
71608W        W43137  34.395  30.389  12.450
71609W        W43138  35.046  30.897   4.230
71610W        W43139   4.885  22.662  12.940
71611W        W43140  12.392  38.625  14.959
71612W        W43141  31.807  28.441  14.664
71613W        W43142  39.838  24.668   0.964
71614W        W43143   5.443  22.210   1.255
71615W        W43144  44.364  13.963   1.731
71616W        W43145  38.853  18.134   2.388
71617W        W43146  43.883  25.935   3.160
71618W        W43147  14.919  38.306  11.054
71619W        W43148  12.242  41.256  11.512
71620W        W43149  32.031  30.485   4.185
71621W        W43150  26.475  10.239  14.713
71622W        W43151   0.439  16.441   2.664
71623W        W43152  29.540  25.751   3.292
71624W        W43153  25.124  21.622   0.090
71625W        W43154  19.738  37.059   0.966
71626W        W43155  14.725   1.306   0.488
71627W        W43156   6.251  30.325   2.893
71628W        W43157  44.011  16.213   3.176
71629W        W43158  22.044  22.136  13.942
71630W        W43159  16.875  40.076   2.365
71631W        W43160  30.079  13.528  14.454
71632W        W43161  27.346  42.807   4.521
71633W        W43162  10.892   7.981   2.240
71634W        W43163  32.579   4.998   4.131
71635W        W43164  38.755  12.491  12.397
71636W        W43165  44.473  10.352  10.134
71637W        W43166  37.792  20.003   3.281
71638W        W43167  19.796   6.889   2.959
71639W        W43168  39.605  35.379   4.555
71640W        W43169  28.033   2.097  13.930
71641W        W43170  29.134  35.541  11.173
71642W        W43171  11.304  38.649   0.867
71643W        W43172   1.769  41.554   1.410
71644W        W43173  32.494  18.428  13.579
71645W        W43174  34.732   1.484   2.073
71646W        W43175  40.382  23.653   4.516
71647W        W43176   6.333  33.042  11.468
71648W        W43177  12.067   6.302   4.465
71649W        W43178  31.697  12.982   5.100
71650W        W43179  40.129  21.777  12.051
71651W        W43180   1.342  21.001  12.977
71652W        W43181  35.318  28.435  11.708
71653W        W43182  12.696  25.649   3.781
71654W        W43183  26.743  13.154  12.981
71655W        W43184  16.759  27.728  12.563
71656W        W43185  28.076  12.068   4.631
71657W        W43186  18.817  22.501   4.107
71658W        W43187  29.622  44.112   2.476
71659W        W43188  12.534  21.516   2.883
71660W        W43189  23.263  32.445   0.818
71661W        W43190  34.951  37.066   2.533
71662W        W43191  39.292  17.162  13.705
71663W        W43192  20.733  21.181   0.329
71664W        W43193  39.139   2.862  11.129
71665W        W43194  40.281  33.076   4.265
71666W        W43195  21.318  12.308  11.585
71667W        W43196   6.394  44.037  11.011
71668W        W43197  18.686  32.086  12.581
71669W        W43198  35.312   1.051  10.239
71670W        W43199  41.288  43.815   4.133
71671W        W43200  27.882  19.953  14.912
71672W        W43201  42.356  33.065  12.858
71673W        W43202   4.486  20.999   0.321
71674W        W43203   6.272  16.826   4.535
71675W        W43204  32.532   2.391  11.690
71676W        W43205  44.250  29.188   4.154
71677W        W43206  36.287  21.496   3.727
71678W        W43207  13.273   9.101   0.331
71679W        W43208  26.707   2.295   4.517
71680W        W43209  39.348  40.380  14.939
71681W        W43210  38.822  17.804   3.240
71682W        W43211  20.468  16.727   1.815
71683W        W43212  42.418   7.483   2.930
71684W        W43213  43.364   7.950   2.706
71685W        W43214  12.263  33.864  13.919
71686W        W43215   7.666   1.882   2.884
71687W        W43216   2.409  11.572   0.690
71688W        W43217   6.155   5.819   4.103
71689W        W43218  31.567   4.367   3.063
71690W        W43219   6.065  37.025   3.813
71691W        W43220  25.480  11.360   0.316
71692W        W43221  12.565  14.692   2.378
71693W        W43222   1.712  26.212   1.731
71694W        W43223  19.172   6.149  14.895
71695W        W43224  19.712  31.598  11.592
71696W        W43225  44.482  23.973  13.075
71697W        W43226  11.193  15.760  10.893
71698W        W43227   7.353  36.452  11.744
71699W        W43228   3.978  38.355   3.258
71700W        W43229  29.432  11.758   1.353
71701W        W43230  21.115  37.425   4.124
71702W        W43231  35.688  14.536  11.563
71703W        W43232   1.727  43.697   2.162
71704W        W43233  29.660  24.137  11.628
71705W        W43234  17.733  40.897  13.857
71706W        W43235  40.462  30.042   4.875
71707W        W43236  22.452  42.921   0.885
71708W        W43237  30.422   5.488   3.626
71709W        W43238  14.856   9.247   2.733
71710W        W43239  24.775  32.325  13.914
71711W        W43240   6.643   8.322   2.312
71712W        W43241   8.955  19.781   1.674
71713W        W43242   7.643  30.083   0.637
71714W        W43243  44.861  14.471   2.924
71715W        W43244  12.756  35.152   2.217
71716W        W43245  13.277  28.183   3.299
71717W        W43246  25.587   9.204  10.485
71718W        W43247  36.600  27.510   2.878
71719W        W43248  11.355   2.916   4.271
71720W        W43249  28.980   6.167  14.335
71721W        W43250   8.220   0.937  12.172
71722W        W43251  14.782  36.238  13.550
71723W        W43252  12.689  21.920  13.583
71724W        W43253   9.410  42.985   4.512
71725W        W43254   6.874  23.224  11.297
71726W        W43255  33.393  16.165   0.430
71727W        W43256  14.965  25.689   4.023
71728W        W43257   8.801  21.199   2.862
71729W        W43258   0.231  22.921  11.583
71730W        W43259   7.088  27.516   3.836
71731W        W43260  19.412  26.411   2.027
71732W        W43261  42.031  12.062   1.428
71733W        W43262  17.584  27.432   2.648
71734W        W43263  42.973   0.013   3.862
71735W        W43264   3.882  12.609  13.415
71736W        W43265  36.421  27.505  11.961
71737W        W43266   8.074   0.927  11.047
71738W        W43267  13.921  11.061   4.673
71739W        W43268   4.966  10.002   0.859
71740W        W43269  13.849  19.705  14.843
71741W        W43270  28.228  25.162   4.854
71742W        W43271  34.970  38.990   4.568
71743W        W43272  11.772  17.269   2.766
71744W        W43273   8.316   1.722   3.377
71745W        W43274  32.631  27.167   2.864
71746W        W43275   0.557  14.669   1.831
71747W        W43276  31.534   7.854   3.920
71748W        W43277  26.895   1.918  13.927
71749W        W43278   1.405  36.813   0.620
71750W        W43279   3.801  14.784  14.468
71751W        W43280  13.152  32.313  13.107
71752W        W43281  21.965  28.829  12.194
71753W        W43282   8.064  26.733  12.965
71754W        W43283  10.366   3.786   1.381
71755W        W43284  40.732  11.269   0.295
71756W        W43285  41.869  29.178   4.204
71757W        W43286  16.741  11.205   4.688
71758W        W43287  28.214  43.713   3.900
71759W        W43288   3.745  34.693   1.687
71760W        W43289  15.625  19.533  11.495
71761W        W43290  20.265   5.870  11.191
71762W        W43291  16.752  31.121  11.267
71763W        W43292  39.360  18.040   3.563
71764W        W43293  11.931  20.544  11.459
71765W        W43294  21.570  26.748  12.454
71766W        W43295  27.524  10.235   4.179
71767W        W43296   3.485  20.087   4.452
71768W        W43297  25.744   5.659   2.192
71769W        W43298   1.403  35.582  12.373
71770W        W43299  31.413  27.559   0.491
71771W        W43300   2.429  26.914   0.435
71772W        W43301  27.335  30.568   3.107
71773W        W43302   7.825   0.800  11.471
71774W        W43303  43.900  40.487   4.844
71775W        W43304  20.789  35.840  13.263
71776W        W43305  11.268  24.921  13.875
71777W        W43306  24.454  34.856  12.296
71778W        W43307  38.047  14.878   2.680
71779W        W43308  30.564  33.144  11.692
71780W        W43309   8.654  30.025   3.879
71781W        W43310  10.510  27.426  14.244
71782W        W43311  22.091   7.736   2.339
71783W        W43312   6.699  27.105  12.125
71784W        W43313  10.930  41.829  11.525
71785W        W43314  37.797  15.630  11.126
71786W        W43315  11.422  36.812  12.988
71787W        W43316  40.847  35.165  12.181
71788W        W43317  20.932   5.436   3.103
71789W        W43318  24.610  22.677   4.724
71790W        W43319  44.515   7.943  12.019
71791W        W43320  38.803   1.391  13.446
71792W        W43321  16.229  43.795  11.530
71793W        W43322  40.397   7.619   2.868
71794W        W43323  14.049  28.459  13.474
71795W        W43324   0.721  27.126  12.607
71796W        W43325  27.597  15.572  12.364
71797W        W43326  12.675  11.244  11.108
71798W        W43327   7.246  29.112  10.581
71799W        W43328   8.435  40.936   3.211
71800W        W43329  24.869   6.551   5.415
71801W        W43330  34.269  18.193  12.794
71802W        W43331  19.298  19.263  13.315
71803W        W43332  14.900  44.232  12.982
71804W        W43333   8.841  34.781   2.882
71805W        W43334  31.007  39.488  13.940
71806W        W43335  17.490   5.154  11.812
71807W        W43336  34.859  24.629  12.836
71808W        W43337  36.864  18.584   0.511
71809W        W43338   9.078   8.164  11.946
71810W        W43339  23.686  30.741   2.201
71811W        W43340  13.538   5.699  10.717
71812W        W43341  15.832  30.919   1.495
71813W        W43342  29.114  11.227   3.337
71814W        W43343  35.533   0.788   0.958
71815W        W43344  15.473   1.312   2.485
71816W        W43345  43.496   0.249  11.320
71817W        W43346  42.918  32.106  14.810
71818W        W43347  39.848   2.775  13.337
71819W        W43348  40.439  40.829   1.755
71820W        W43349  39.569   8.189  14.731
71821W        W43350  28.058  16.992  13.416
71822W        W43351  23.043  19.033  10.999
71823W        W43352  38.921  36.948  12.115
71824W        W43353  33.694  16.910  12.988
71825W        W43354  41.002  44.462   2.875
71826W        W43355   1.143  36.126   3.248
71827W        W43356  41.418   0.235  13.528
71828W        W43357  18.582   2.496  13.169
71829W        W43358  37.861  39.424  11.240
71830W        W43359  19.042  20.577  12.641
71831W        W43360   5.963   7.385   4.314
71832W        W43361  19.894   9.964  11.651
71833W        W43362   2.018  37.679  11.252
71834W        W43363  16.295  12.374   9.492
71835W        W43364  35.007  31.543  10.869
71836W        W43365   3.531  43.278   1.340
71837W        W43366  37.069  27.826  14.403
71838W        W43367  36.483  28.915   2.776
71839W        W43368  25.602  18.266   3.601
71840W        W43369  27.750  18.322   1.152
71841W        W43370   4.363  14.726   3.770
71842W        W43371  43.182  22.692   2.408
71843W        W43372   3.615  30.173   2.016
71844W        W43373  17.888  25.772  10.726
71845W        W43374   2.543   0.733  12.968
71846W        W43375  39.960  44.030  12.044
71847W        W43376  12.915  33.461   2.609
71848W        W43377   4.844   1.508  10.792
71849W        W43378  18.671  25.294  13.839
71850W        W43379  10.138  32.680   0.349
71851W        W43380  42.265  11.623   3.329
71852W        W43381  27.112   5.572   3.658
71853W        W43382  12.315  33.081  14.857
71854W        W43383   5.334  38.477  10.686
71855W        W43384  16.145  16.758   1.899
71856W        W43385  38.550  28.853  14.968
71857W        W43386  13.271  23.383  14.346
71858W        W43387  38.975  43.292  13.902
71859W        W43388  10.842  27.724  11.864
71860W        W43389   9.742  21.033  13.526
71861W        W43390   2.161  14.848  12.707
71862W        W43391   9.186   9.992   3.218
71863W        W43392  31.724  38.126   1.881
71864W        W43393  30.613  26.637   1.551
71865W        W43394  18.074  15.926  13.841
71866W        W43395   2.399  16.554   0.454
71867W        W43396  23.363  27.811   0.980
71868W        W43397   8.806  39.545  11.158
71869W        W43398  18.493   1.689   2.254
71870W        W43399  30.658  26.844   2.947
71871W        W43400   6.243  20.544   3.736
71872W        W43401  23.579   8.961  13.508
71873W        W43402  33.974   5.949   1.825
71874W        W43403  17.840  33.258  14.742
71875W        W43404  33.635  30.597   3.602
71876W        W43405   4.314  29.937   3.711
71877W        W43406  35.779  28.088  14.389
71878W        W43407   8.159  18.003   0.178
71879W        W43408   6.164  36.234   1.220
71880W        W43409  42.892  21.521   4.204
71881W        W43410  19.209  12.523  13.852
71882W        W43411  24.984  14.322  13.092
71883W        W43412  32.518  19.278  10.682
71884W        W43413  17.051  17.843  12.470
71885W        W43414  40.025  25.285  14.875
71886W        W43415   7.831  43.821  11.852
71887W        W43416   4.644  35.326   0.289
71888W        W43417   4.350  26.797  10.683
71889W        W43418  12.606  29.531  12.534
71890W        W43419   5.715  12.185   2.437
71891W        W43420  10.651  19.198   0.406
71892W        W43421  16.747  38.540   0.916
71893W        W43422  42.219   9.304   1.577
71894W        W43423   9.142  20.538   3.801
71895W        W43424   3.231  42.199   4.244
71896W        W43425  12.276  15.277  12.967
71897W        W43426  23.291  34.372   4.689
71898W        W43427   7.865  37.271  14.839
71899W        W43428  17.753  40.937   4.680
71900W        W43429  16.046   1.877   4.181
71901W        W43430   3.779  13.314   0.306
71902W        W43431  14.255  14.195  12.814
71903W        W43432   7.383  36.887  12.053
71904W        W43433   2.295  17.895  11.148
71905W        W43434  19.617   7.946   1.805
71906W        W43435  25.716  44.289  14.841
71907W        W43436   0.929  10.832   1.202
71908W        W43437   3.345   5.433   0.707
71909W        W43438  10.279  44.523   1.665
71910W        W43439  30.743  30.567   3.824
71911W        W43440  29.305  36.344  12.667
71912W        W43441  36.399   5.371   3.309
71913W        W43442  36.417  26.463  14.388
71914W        W43443  44.831   7.668  12.757
71915W        W43444  21.126  29.327   3.014
71916W        W43445   3.893  33.227   9.970
71917W        W43446  13.092  24.695   4.093
71918W        W43447   5.897   9.782  10.619
71919W        W43448  19.822  25.093   3.230
71920W        W43449   3.298   8.975  12.899
71921W        W43450   4.296  18.102  10.448
71922W        W43451   3.757   0.508   0.368
71923W        W43452  22.096  36.659  11.047
71924W        W43453   1.023   2.851   2.215
71925W        W43454  32.848  36.432  14.770
71926W        W43455  19.638  28.091  14.087
71927W        W43456  24.478  13.374   0.264
71928W        W43457   4.218  30.076  14.207
71929W        W43458  40.566  28.245  14.111
71930W        W43459  25.259   6.225   4.158
71931W        W43460  12.255  23.698  14.557
71932W        W43461  21.609  39.600   2.764
71933W        W43462  28.134  11.086  14.241
71934W        W43463  28.395  39.995   1.944
71935W        W43464   2.455  18.798  11.532
71936W        W43465   0.486   2.828  10.486
71937W        W43466  37.345  20.232   1.017
71938W        W43467  33.578  41.283  11.953
71939W        W43468  31.967  32.052   3.538
71940W        W43469  14.659  30.234   3.759
71941W        W43470  40.809   7.916   4.443
71942W        W43471  10.717  19.206  10.756
71943W        W43472  19.796  39.040  11.684
71944W        W43473  32.399   7.820  14.343
71945W        W43474  36.890   5.380  11.596
71946W        W43475  40.073  23.008  13.452
71947W        W43476  29.821  25.982   1.236
71948W        W43477  28.878  20.541   4.786
71949W        W43478  39.782   9.906  11.640
71950W        W43479  34.047  14.066   4.114
71951W        W43480  24.155   1.856   4.994
71952W        W43481  42.912   7.321  13.804
71953W        W43482  44.639  29.414   0.790
71954W        W43483   1.062  44.253   3.819
71955W        W43484  34.757  17.477  13.823
71956W        W43485  21.592  33.108  13.356
71957W        W43486   7.013   3.359   0.036
71958W        W43487   7.925  16.795   3.696
71959W        W43488  24.290  24.241  14.960
71960W        W43489  20.647   4.468  10.400
71961W        W43490  24.559  17.333   2.957
71962W        W43491  32.633   5.237  11.098
71963W        W43492  17.783  29.471   1.605
71964W        W43493   5.739  20.246  10.668
71965W        W43494  25.139   6.961  12.638
71966W        W43495   9.287  12.606   4.663
71967W        W43496  44.219  11.398   0.715
71968W        W43497  31.180  22.124   2.249
71969W        W43498  40.335  44.221  13.007
71970W        W43499  31.364  24.654  13.476
71971W        W43500   9.084  28.887  12.497
71972W        W43501  13.335  33.501   4.719
71973W        W43502   4.904  28.401  11.444
71974W        W43503  22.404  28.733   1.743
71975W        W43504  22.676  40.807  14.494
71976W        W43505  14.988  36.597  11.261
71977W        W43506   0.517  44.668  12.359
71978W        W43507  43.245  41.424  14.023
71979W        W43508   4.395   9.899   3.109
71980W        W43509  18.488   1.726  11.562
71981W        W43510  31.060   9.692   4.894
71982W        W43511  12.397  29.065  12.617
71983W        W43512   7.638   9.686   1.102
71984W        W43513  25.345  16.213  12.106
71985W        W43514  42.351  35.325  13.990
71986W        W43515  20.417  23.676   4.986
71987W        W43516   2.859   8.584   3.496
71988W        W43517  19.654  10.819   1.134
71989W        W43518  42.704  34.487   3.315
71990W        W43519   3.373   9.951  11.515
71991W        W43520  15.576  35.269   3.933
71992W        W43521  37.990  44.248  12.049
71993W        W43522  12.613   0.723  13.512
71994W        W43523  16.738   7.097   4.614
71995W        W43524  34.477  24.008  11.663
71996W        W43525  40.202  30.564  14.001
71997W        W43526  25.401  42.273  12.092
71998W        W43527   2.520  29.551   0.086
71999W        W43528  11.166   4.483   4.125
72000W        W43529  34.969   6.466   1.797
72001W        W43530  22.816  13.253   3.054
72002W        W43531  17.140  25.677  10.710
72003W        W43532   8.785   1.531   3.179
72004W        W43533  12.618   6.156  11.490
72005W        W43534  12.046  24.672   4.183
72006W        W43535  16.447  19.272   0.922
72007W        W43536  41.368   0.050  10.603
72008W        W43537  28.953  17.228  11.833
72009W        W43538  29.229  32.615  11.142
72010W        W43539  24.512  43.439  14.848
72011W        W43540   1.255  32.787   1.739
72012W        W43541  25.080  43.426  13.119
72013W        W43542  33.099  34.878  12.570
72014W        W43543   5.933  18.163  11.066
72015W        W43544  39.050  42.734   0.786
72016W        W43545  16.485  29.500   2.826
72017W        W43546  20.908  23.282  12.359
72018W        W43547   1.204  23.757   4.171
72019W        W43548  32.085  18.811   4.574
72020W        W43549  33.493  36.358   4.045
72021W        W43550   5.887  22.842  12.946
72022W        W43551  38.310   0.313   4.490
72023W        W43552   9.394  38.842  12.543
72024W        W43553  31.193  30.883   3.249
72025W        W43554   0.404  21.423   2.329
72026W        W43555  14.531   1.293   1.404
72027W        W43556   8.338  41.848  12.964
72028W        W43557  31.886  36.375  10.700
72029W        W43558  15.157  24.498   4.727
72030W        W43559  40.890  20.093  10.675
72031W        W43560  31.460  30.063   1.432
72032W        W43561  40.900   6.478  14.564
72033W        W43562   9.881  17.246  11.001
72034W        W43563  42.939  11.283   2.853
72035W        W43564  18.325  32.644   1.574
72036W        W43565  24.730   1.362   2.432
72037W        W43566  34.535   7.907   4.511
72038W        W43567  37.389  39.447   1.465
72039W        W43568  13.231  40.309   5.134
72040W        W43569  34.413  37.008   0.913
72041W        W43570  13.284  33.038  10.793
72042W        W43571  24.934  14.265  14.873
72043W        W43572  16.290   5.447  10.770
72044W        W43573  39.855   5.832  13.903
72045W        W43574  21.063  19.227  10.707
72046W        W43575  20.927  43.519   0.284
72047W        W43576  29.894  24.032   4.965
72048W        W43577  38.365  19.196   4.197
72049W        W43578  21.672  44.293   3.246
72050W        W43579  31.635  36.043   4.164
72051W        W43580  43.563  21.225   3.160
72052W        W43581  28.352  33.678   0.476
72053W        W43582  21.361  11.750  13.310
72054W        W43583   2.149  41.368  11.861
72055W        W43584  21.293  38.347  14.438
72056W        W43585  30.521  11.051  10.467
72057W        W43586  19.287   5.796   3.733
72058W        W43587   1.052  31.815   2.783
72059W        W43588  27.173  12.447  13.652
72060W        W43589  33.334  32.291  10.266
72061W        W43590  20.580  28.034   0.675
72062W        W43591  34.188  35.937   4.349
72063W        W43592  38.087  42.284   3.222
72064W        W43593  10.128  23.200   0.180
72065W        W43594  20.724  10.853   2.671
72066W        W43595  22.730  17.776   3.209
72067W        W43596   3.439  33.138   1.760
72068W        W43597  38.429  36.361   3.109
72069W        W43598  43.526   9.818  14.321
72070W        W43599  39.872   6.715  10.508
72071W        W43600  38.408  31.724   2.445
72072W        W43601  32.896  21.110  13.123
72073W        W43602  11.700  13.629   1.375
72074W        W43603  30.022  26.755  14.670
72075W        W43604  25.158  12.608   4.024
72076W        W43605  10.099  41.962   3.200
72077W        W43606   8.115   4.846  13.863
72078W        W43607   1.136  25.078  12.771
72079W        W43608  34.973  37.827   0.731
72080W        W43609  39.594  31.941   0.278
72081W        W43610  43.576  28.448   1.564
72082W        W43611  15.965  37.341   3.633
72083W        W43612  37.806   0.644   3.802
72084W        W43613  23.483   6.644   0.827
72085W        W43614  22.695   4.410   1.965
72086W        W43615  17.143  22.693   9.821
72087W        W43616   2.598  22.941   0.480
72088W        W43617   5.481  17.861   1.425
72089W        W43618  12.905   3.817   1.891
72090W        W43619  43.771  35.449  13.747
72091W        W43620  31.010  41.576  13.699
72092W        W43621  26.207  33.095  11.103
72093W        W43622  18.049  16.366  11.107
72094W        W43623   5.716  21.045   1.864
72095W        W43624  32.258  14.117   3.101
72096W        W43625   5.509  17.297   2.276
72097W        W43626   7.196  13.227  10.751
72098W        W43627  39.009  37.739   1.483
72099W        W43628  21.172   7.975  10.696
72100W        W43629  25.031  22.615   3.213
72101W        W43630  33.505  39.010   1.892
72102W        W43631   6.192  38.775   4.194
72103W        W43632   6.774  16.094   1.642
72104W        W43633  30.028  35.910   1.869
72105W        W43634   8.349  31.698   4.130
72106W        W43635   9.337  37.963   3.782
72107W        W43636  42.432  33.891   2.682
72108W        W43637  38.976  39.101  12.579
72109W        W43638   2.407  30.955  12.336
72110W        W43639  10.576  25.141  11.569
72111W        W43640  30.744  21.011   4.481
72112W        W43641  29.122  32.054   0.833
72113W        W43642  17.092  20.569  11.717
72114W        W43643  33.322  32.529   3.340
72115W        W43644  19.174  36.396   4.396
72116W        W43645  39.552  42.073  10.959
72117W        W43646  15.573   6.878   0.952
72118W        W43647   5.219  37.510  10.473
72119W        W43648   9.836  21.622   1.834
72120W        W43649  23.447  32.604  13.533
72121W        W43650  24.993  14.668   0.839
72122W        W43651  32.642   3.423  13.665
72123W        W43652  43.429  11.059  10.774
72124W        W43653   1.324   9.158   4.250
72125W        W43654  31.669  11.403   2.806
72126W        W43655   2.805  28.464  12.646
72127W        W43656  28.520   5.441   4.032
72128W        W43657  40.380  20.718   4.526
72129W        W43658  11.300  16.041  12.650
72130W        W43659   5.269  38.460  13.506
72131W        W43660   8.741  32.261  10.774
72132W        W43661  44.552  14.215  11.463
72133W        W43662   0.606   4.839  13.070
72134W        W43663  12.096  42.713  12.493
72135W        W43664   3.478  12.271  13.379
72136W        W43665  24.260  33.775   2.771
72137W        W43666   5.226  39.065   0.368
72138W        W43667  34.862  43.784   1.987
72139W        W43668  32.021  18.762   0.051
72140W        W43669  34.454  14.343  14.021
72141W        W43670  26.772   2.299  14.961
72142W        W43671  23.022   2.518   5.223
72143W        W43672  21.998   4.495   2.327
72144W        W43673  39.124   4.694  14.871
72145W        W43674  25.743  29.650  10.534
72146W        W43675  36.483  37.736   4.583
72147W        W43676   4.487  11.311   4.072
72148W        W43677  18.740  28.139   3.445
72149W        W43678  40.749  25.543  11.224
72150W        W43679  14.681   9.542  12.481
72151W        W43680   6.449  27.405   3.470
72152W        W43681   4.270  25.016  11.412
72153W        W43682  11.338   5.765   2.358
72154W        W43683  30.193   5.624   1.960
72155W        W43684  23.801  22.594  13.279
72156W        W43685  33.636  13.358  11.519
72157W        W43686  16.088  30.462   1.753
72158W        W43687  32.188  23.477  10.183
72159W        W43688  42.347  31.037   4.065
72160W        W43689   2.496  32.742   4.956
72161W        W43690   0.084  31.127   1.835
72162W        W43691   0.684  26.768   1.218
72163W        W43692  30.401  42.009   1.986
72164W        W43693  44.422   8.870  14.876
72165W        W43694  10.136  16.623   0.993
72166W        W43695  35.407   2.925   3.838
72167W        W43696  41.994  19.063   4.110
72168W        W43697   3.725  38.006   4.546
72169W        W43698  11.432  20.085   2.204
72170W        W43699  26.133  22.706  10.510
72171W        W43700  20.542  39.949  12.119
72172W        W43701  34.512  38.301   0.656
72173W        W43702   4.339  28.204   0.858
72174W        W43703   0.436  19.637   0.711
72175W        W43704  18.611  19.677   2.453
72176W        W43705  26.167  20.102   2.713
72177W        W43706   4.976   4.708  13.512
72178W        W43707  26.002   0.951  13.505
72179W        W43708  11.799   0.385  12.611
72180W        W43709  12.217  37.891   1.731
72181W        W43710  37.404  36.992   4.822
72182W        W43711  20.820  43.073   3.172
72183W        W43712  34.342   8.790  14.753
72184W        W43713  26.068  32.865  12.236
72185W        W43714  24.783  11.771  12.059
72186W        W43715  41.909   5.674   2.057
72187W        W43716   4.559  21.588   2.574
72188W        W43717  34.466   5.973   1.038
72189W        W43718  24.444   5.419  12.616
72190W        W43719  27.874  30.528  12.803
72191W        W43720  25.492  22.144   0.833
72192W        W43721  19.218  13.084  11.645
72193W        W43722  12.951  29.770   1.775
72194W        W43723   1.205  15.750   1.213
72195W        W43724  11.211  36.997  11.649
72196W        W43725  42.895  18.954  11.145
72197W        W43726   0.949  26.391   3.764
72198W        W43727   3.665   2.352   4.803
72199W        W43728  14.019  44.312   4.775
72200W        W43729  16.781  43.249   2.070
72201W        W43730  22.001  24.458   4.278
72202W        W43731  37.854  42.863   4.683
72203W        W43732   5.310   4.675   2.325
72204W        W43733  19.671  32.194  12.975
72205W        W43734   1.332  35.419  10.319
72206W        W43735   4.243  40.147  12.050
72207W        W43736   7.911  32.700  10.673
72208W        W43737  27.618  34.885   4.034
72209W        W43738  30.682  24.433   1.355
72210W        W43739   2.178  18.779   4.988
72211W        W43740  13.769  33.786  11.144
72212W        W43741  40.843  37.388   0.764
72213W        W43742  24.574  24.879  13.851
72214W        W43743  11.927  10.168   0.828
72215W        W43744   4.422   1.663  14.282
72216W        W43745  40.856  11.915  12.932
72217W        W43746  27.006  11.313  13.480
72218W        W43747  14.031  43.837  10.599
72219W        W43748  10.784  36.136   3.247
72220W        W43749  38.532  17.855   2.704
72221W        W43750   3.162   8.638  13.933
72222W        W43751   4.370  25.738  14.665
72223W        W43752   0.863  20.959   0.861
72224W        W43753  41.872   2.659   1.917
72225W        W43754  44.762  26.711  14.345
72226W        W43755  20.163  33.946   4.633
72227W        W43756  24.437  16.091   1.676
72228W        W43757  40.341  33.573   0.763
72229W        W43758   3.386  29.588  12.699
72230W        W43759  42.030  22.186  10.479
72231W        W43760  13.560  28.733  13.520
72232W        W43761   9.767  29.370   0.264
72233W        W43762   7.931  28.471  11.110
72234W        W43763  22.131  20.301   4.505
72235W        W43764  37.451   9.171  12.548
72236W        W43765  18.280  26.274  14.043
72237W        W43766  39.495  11.864   3.826
72238W        W43767  22.763   8.301  11.408
72239W        W43768  42.784  28.360  13.945
72240W        W43769   8.055  43.047   3.524
72241W        W43770  44.781  31.963  12.134
72242W        W43771  21.334  38.329   1.575
72243W        W43772  33.926   5.439  12.406
72244W        W43773   3.579  21.025   1.662
72245W        W43774  34.886   9.089   3.175
72246W        W43775  35.658   7.442   2.356
72247W        W43776  25.371  37.132  14.735
72248W        W43777   2.920  29.987  11.726
72249W        W43778  25.412  30.355  11.087
72250W        W43779  40.110  17.155   2.161
72251W        W43780  29.645  15.186   2.154
72252W        W43781   2.322   7.098   4.265
72253W        W43782  24.056  11.268   2.616
72254W        W43783   2.408  22.317   4.146
72255W        W43784   4.646  15.867   3.172
72256W        W43785  28.459  31.546  14.554
72257W        W43786  17.706  25.364  14.852
72258W        W43787  37.368  22.637   2.372
72259W        W43788  29.133   0.546   1.774
72260W        W43789   3.304  28.030  14.010
72261W        W43790   4.898  14.441   1.296
72262W        W43791   3.507  32.242  11.357
72263W        W43792  26.273  11.340  10.986
72264W        W43793  10.048   0.376   3.722
72265W        W43794  35.023   2.266   1.594
72266W        W43795  32.744  36.062  13.794
72267W        W43796  35.307  13.903   2.763
72268W        W43797  21.197   7.362  12.139
72269W        W43798   5.449  42.341  11.134
72270W        W43799  42.540  17.586  14.764
72271W        W43800  32.570  19.736  11.915
72272W        W43801   3.784  23.071  12.103
72273W        W43802  18.459  14.674  10.595
72274W        W43803  31.461  10.321   1.202
72275W        W43804  30.774  31.984  12.630
72276W        W43805  24.494  12.385   1.102
72277W        W43806  10.004  14.564  11.455
72278W        W43807  25.446   0.060  11.339
72279W        W43808  35.507  30.888  14.253
72280W        W43809  16.617  16.486  12.115
72281W        W43810  39.108  38.225   1.321
72282W        W43811  37.470  22.757  12.998
72283W        W43812  21.268  37.832   5.015
72284W        W43813   1.890  19.105  13.025
72285W        W43814   6.344   9.422   3.245
72286W        W43815  36.358   0.590   4.743
72287W        W43816  33.659   5.714  13.182
72288W        W43817  23.316   8.590  10.779
72289W        W43818  30.493   5.401   4.125
72290W        W43819   7.967  20.093   2.251
72291W        W43820  22.394  24.149   2.867
72292W        W43821  18.585   0.267  14.462
72293W        W43822  14.859  32.037  12.523
72294W        W43823   5.938  22.147   1.181
72295W        W43824  27.789  29.251  11.236
72296W        W43825  21.282   3.297   1.709
72297W        W43826  12.883   2.042   1.358
72298W        W43827  25.839  12.147  12.050
72299W        W43828  27.473  24.000  11.638
72300W        W43829  36.814  27.558   3.407
72301W        W43830  11.704  15.414  12.417
72302W        W43831  43.707  17.184   1.294
72303W        W43832  28.521  32.199   2.735
72304W        W43833  12.257  14.848  10.744
72305W        W43834  36.522  13.047  13.028
72306W        W43835  19.438  26.455  13.461
72307W        W43836  30.228  13.757   1.436
72308W        W43837  25.393  22.049  13.894
72309W        W43838   9.670  37.634  14.796
72310W        W43839  29.156  18.985  13.085
72311W        W43840  34.805   7.073  11.091
72312W        W43841  35.533   7.827   4.090
72313W        W43842  37.897  42.216  12.426
72314W        W43843  16.833   2.831   3.666
72315W        W43844  16.130  26.375   4.284
72316W        W43845   6.392  16.923  10.647
72317W        W43846  11.827   1.215  13.267
72318W        W43847  36.495  39.740   2.693
72319W        W43848  33.416  30.589  14.256
72320W        W43849   6.415   4.737   0.982
72321W        W43850  18.077  36.072   0.887
72322W        W43851  19.613  35.471  10.949
72323W        W43852   6.532   8.011  10.817
72324W        W43853  31.190  44.342   3.639
72325W        W43854  37.930  42.052   4.021
72326W        W43855  12.220  15.150   3.578
72327W        W43856  37.628   3.438  12.993
72328W        W43857  39.729  31.490   4.232
72329W        W43858  25.045  44.059   1.738
72330W        W43859  39.296  34.932   2.311
72331W        W43860   1.032  35.615   4.560
72332W        W43861   5.523  36.814  11.044
72333W        W43862  22.751   3.498   1.707
72334W        W43863  39.017  19.388   4.488
72335W        W43864   6.530  31.028   4.878
72336W        W43865  26.477  12.790   1.869
72337W        W43866  31.731  33.920  11.057
72338W        W43867  27.719  12.356  13.805
72339W        W43868  26.716   5.114   2.128
72340W        W43869  34.851  16.364  14.447
72341W        W43870  26.728  33.692  10.845
72342W        W43871  15.117   3.039  11.925
72343W        W43872  25.875   3.783  10.575
72344W        W43873  29.427   3.834  12.041
72345W        W43874  30.579  24.084  12.145
72346W        W43875  36.470  20.692   4.646
72347W        W43876  39.874  17.024   3.278
72348W        W43877  21.788   6.864  13.945
72349W        W43878  44.498  36.318   3.642
72350W        W43879  32.671  23.131   0.241
72351W        W43880   6.682  38.520   3.661
72352W        W43881  11.828  26.138   1.231
72353W        W43882  32.040  23.146   1.465
72354W        W43883  20.534  44.977  14.899
72355W        W43884  42.133   2.222   3.735
72356W        W43885  42.461  15.235   0.582
72357W        W43886  35.089  39.868  14.921
72358W        W43887  22.061  27.078  11.214
72359W        W43888  38.294  44.951   3.268
72360W        W43889  28.239  39.752  13.938
72361W        W43890  23.039  24.483  12.946
72362W        W43891  34.434  18.976  13.030
72363W        W43892  22.614   2.507  13.104
72364W        W43893   5.361   0.856  13.392
72365W        W43894  29.317  17.826   1.487
72366W        W43895  36.150  37.050   2.825
72367W        W43896  19.599   2.925  13.264
72368W        W43897   3.706   5.589  11.624
72369W        W43898   0.968   0.994   0.260
72370W        W43899   5.695  11.641  14.371
72371W        W43900  36.513  39.996   1.312
72372W        W43901  21.447  25.591  11.996
72373W        W43902  22.652   4.762   2.349
72374W        W43903  30.068  28.144   1.509
72375W        W43904   6.456  25.171  10.010
72376W        W43905  37.362  11.895  14.859
72377W        W43906  36.754   5.628   2.214
72378W        W43907  33.303  13.201   0.674
72379W        W43908  15.815  10.684   1.697
72380W        W43909  32.820   7.150  13.945
72381W        W43910  28.681  17.072   2.278
72382W        W43911  44.039  41.483   1.889
72383W        W43912  28.262   8.906   1.793
72384W        W43913  13.243  44.229  13.969
72385W        W43914  38.541   3.904  14.619
72386W        W43915  28.143  35.955  11.068
72387W        W43916  23.967  20.362  13.617
72388W        W43917  30.616  18.183   1.247
72389W        W43918  22.273  17.264   3.779
72390W        W43919  42.992  12.323  12.347
72391W        W43920   2.288  22.997  13.748
72392W        W43921   5.681   7.147   3.437
72393W        W43922  37.293  18.592   1.284
72394W        W43923  27.079  21.686  14.598
72395W        W43924  25.181  23.979  14.746
72396W        W43925   1.847  36.391   2.836
72397W        W43926  24.327  42.542  11.046
72398W        W43927  15.660  30.504  10.067
72399W        W43928  36.478   4.839   3.364
72400W        W43929  44.554   0.041   1.447
72401W        W43930   4.745  27.541  11.511
72402W        W43931  33.755   2.913  12.423
72403W        W43932  11.228  10.230  12.864
72404W        W43933  32.085  24.071   2.253
72405W        W43934  11.633  33.916   0.911
72406W        W43935  22.795  22.230   5.056
72407W        W43936  27.132  26.192  11.703
72408W        W43937  11.727   9.435  14.416
72409W        W43938  33.987  34.314   0.934
72410W        W43939  21.450  22.075   2.579
72411W        W43940  24.217  25.416   2.243
72412W        W43941   9.354  10.433   3.439
72413W        W43942  33.891  12.157  13.069
72414W        W43943   3.716   5.228  13.940
72415W        W43944  30.035  35.850   0.041
72416W        W43945  39.040  13.156   3.153
72417W        W43946   2.194  17.752   1.859
72418W        W43947  43.490  16.720  12.528
72419W        W43948  18.752  12.199   4.108
72420W        W43949  15.452  23.689   4.484
72421W        W43950  22.677   7.299  14.864
72422W        W43951  24.210  23.072   4.919
72423W        W43952  20.810   4.172   2.855
72424W        W43953  22.051  41.006   5.014
72425W        W43954  18.550   3.683  10.796
72426W        W43955  24.471  16.708   2.305
72427W        W43956   9.608  39.505  13.352
72428W        W43957  38.057  23.502  10.905
72429W        W43958  21.518  29.177  10.652
72430W        W43959  41.029  12.127  12.005
72431W        W43960  22.693   7.330   1.481
72432W        W43961   3.762  23.864  11.027
72433W        W43962  44.292  15.429  13.310
72434W        W43963  17.924  20.207  14.570
72435W        W43964  36.108   8.919   4.585
72436W        W43965  16.193  30.462  14.006
72437W        W43966  42.338   8.890  12.228
72438W        W43967  34.148  17.581   2.084
72439W        W43968   0.941  23.455   1.300
72440W        W43969  24.772  11.895  13.989
72441W        W43970  38.386  42.222  14.438
72442W        W43971   7.765  15.815   1.469
72443W        W43972  24.250   1.804   1.853
72444W        W43973  13.828  32.645   3.847
72445W        W43974  36.083  33.015  11.456
72446W        W43975  18.006  28.197   1.378
72447W        W43976  20.075   5.669  13.937
72448W        W43977  29.633  36.056   2.530
72449W        W43978  10.251  39.694  11.754
72450W        W43979  24.833   5.165   0.263
72451W        W43980  13.081  40.608   1.763
72452W        W43981  22.604   2.921  14.462
72453W        W43982  43.887  19.140   5.019
72454W        W43983  23.827  19.270   3.696
72455W        W43984  21.204  19.735   3.899
72456W        W43985   4.885  23.210  12.842
72457W        W43986  25.563  25.650   4.490
72458W        W43987   1.933  25.974   0.826
72459W        W43988  14.232  16.917   3.142
72460W        W43989  17.182  38.815  13.003
72461W        W43990  10.463  42.243   4.965
72462W        W43991  40.444   1.776   0.708
72463W        W43992  39.745  34.401  12.923
72464W        W43993   0.452  20.287  12.539
72465W        W43994  28.216   2.866   3.696
72466W        W43995  16.377  19.048   4.902
72467W        W43996   6.675  25.962  11.179
72468W        W43997  40.852  40.808  14.996
72469W        W43998  39.757   2.991  14.034
72470W        W43999  41.804  41.444  11.432
72471W        W44000  37.280   9.808  11.473
72472W        W44001  12.707  20.197  10.434
72473W        W44002  14.151   2.254  13.323
72474W        W44003   0.975  35.428  10.735
72475W        W44004  17.301  39.873  14.442
72476W        W44005  22.083  15.052  13.648
72477W        W44006  16.185  42.903   4.315
72478W        W44007  16.185  29.549  12.942
72479W        W44008  12.287  30.700   0.858
72480W        W44009  12.189  38.905   3.383
72481W        W44010  28.161  21.579  10.873
72482W        W44011   7.979  19.202  13.878
72483W        W44012  30.209   7.113  11.265
72484W        W44013   3.368  19.318  12.064
72485W        W44014   0.225  35.117   4.793
72486W        W44015   3.186   3.197   3.191
72487W        W44016   1.170  16.869  12.579
72488W        W44017  14.232  22.345  12.305
72489W        W44018   8.121  23.153  14.935
72490W        W44019  24.584  19.346   4.199
72491W        W44020  28.192  27.172   2.107
72492W        W44021   5.930   7.471   3.769
72493W        W44022   8.087  27.542   2.428
72494W        W44023  31.419  39.840   2.731
72495W        W44024  14.173  33.116   3.226
72496W        W44025  31.194   5.752  13.017
72497W        W44026   2.083  28.985  11.563
72498W        W44027  26.092  11.879   1.556
72499W        W44028  24.467  25.458   3.700
72500W        W44029  14.233  43.958   3.328
72501W        W44030  26.603  29.406   1.407
72502W        W44031  12.874   3.273   1.850
72503W        W44032  38.371   5.667  12.020
72504W        W44033   9.656  24.058  10.909
72505W        W44034  13.823  42.722   0.881
72506W        W44035   8.390  23.127  13.911
72507W        W44036  38.524  29.395   3.310
72508W        W44037   6.519  30.923  13.521
72509W        W44038  15.525  38.112  12.876
72510W        W44039  28.401   3.655  10.680
72511W        W44040  23.179  13.726  12.636
72512W        W44041  43.449  43.437  12.087
72513W        W44042  20.588  21.557   2.655
72514W        W44043  41.020  40.789  14.102
72515W        W44044  19.700  26.708   2.394
72516W        W44045  24.021  39.214   4.181
72517W        W44046   7.244   7.214  13.018
72518W        W44047   3.709  18.780   3.782
72519W        W44048  39.816  14.159   2.113
72520W        W44049  19.171  27.915   9.929
72521W        W44050  10.217  44.753   0.798
72522W        W44051  25.436  18.806   4.478
72523W        W44052  43.542  29.237  11.757
72524W        W44053  44.807  14.807   3.313
72525W        W44054  27.540  39.280   3.636
72526W        W44055   4.998  13.952   1.406
72527W        W44056  20.579  21.524   3.194
72528W        W44057  36.598  38.333  11.673
72529W        W44058  19.510  28.655   3.354
72530W        W44059   2.800  12.798  11.617
72531W        W44060  24.496  22.153  12.437
72532W        W44061  42.269  16.195   1.058
72533W        W44062  34.583   3.824  11.607
72534W        W44063  17.821  13.081  13.019
72535W        W44064  12.214  14.738   1.983
72536W        W44065  22.223  32.589  13.903
72537W        W44066   7.018  29.528  10.397
72538W        W44067   8.321  33.923   0.189
72539W        W44068  44.426   9.941   3.254
72540W        W44069  13.915  20.596   3.295
72541W        W44070  10.707  42.365  10.374
72542W        W44071  25.217  13.564  12.089
72543W        W44072   9.873   5.660   1.191
72544W        W44073   1.932  28.408   1.926
72545W        W44074  28.451   7.708  13.438
72546W        W44075  44.198  44.163  14.801
72547W        W44076  17.699  18.640  12.945
72548W        W44077  42.441  38.602   2.599
72549W        W44078  31.058  28.647   2.258
72550W        W44079   3.459  15.766   0.982
72551W        W44080  35.762  43.569   0.375
72552W        W44081  38.471  20.810  14.876
72553W        W44082  35.026  23.949   4.657
72554W        W44083   2.318  15.184  14.354
72555W        W44084  11.664   0.482  12.016
72556W        W44085  17.180  41.441  11.367
72557W        W44086  11.419  32.595   3.809
72558W        W44087   2.515  17.918   3.184
72559W        W44088   4.502   0.826  12.776
72560W        W44089  31.727  24.942  10.481
72561W        W44090  39.631  30.692  12.932
72562W        W44091  21.441   6.731   0.392
72563W        W44092  19.520  15.698  12.945
72564W        W44093  13.322   7.040  14.892
72565W        W44094  39.369   2.025  14.696
72566W        W44095   9.935  43.522   2.699
72567W        W44096   0.477  36.106   2.825
72568W        W44097  42.805   3.094   2.214
72569W        W44098   8.363  44.922  11.154
72570W        W44099  36.448   4.610  11.645
72571W        W44100  21.956  13.287   1.394
72572W        W44101  42.088  20.232   0.284
72573W        W44102  32.019  30.194  14.459
72574W        W44103  26.195  44.562  14.797
72575W        W44104   2.264   2.792   0.295
72576W        W44105  23.387  19.075  10.618
72577W        W44106  32.982  27.645   4.281
72578W        W44107  20.621  44.228   1.147
72579W        W44108  20.145   0.019   1.358
72580W        W44109  26.782  28.058   3.350
72581W        W44110  28.019  22.790   3.808
72582W        W44111  11.267   9.060   2.760
72583W        W44112   6.352  44.043   0.672
72584W        W44113  38.033  32.342  12.873
72585W        W44114  41.904  19.499  10.711
72586W        W44115   6.302  16.953   0.467
72587W        W44116   5.480  10.313  12.016
72588W        W44117  43.778  21.169   0.506
72589W        W44118  17.326  11.196   0.869
72590W        W44119  30.288  43.214   1.325
72591W        W44120  10.209   2.734  11.529
72592W        W44121   0.515  37.864  10.698
72593W        W44122  40.996  14.689   0.756
72594W        W44123   0.746  25.114   4.204
72595W        W44124  20.755  21.752  14.426
72596W        W44125   6.675  36.459  12.376
72597W        W44126  17.324  30.642  13.552
72598W        W44127   5.646  41.843   0.384
72599W        W44128  11.067  23.785  11.789
72600W        W44129  21.078  31.236   4.154
72601W        W44130   5.881  25.978   1.718
72602W        W44131  29.487  42.313  12.501
72603W        W44132  27.242  26.819   4.269
72604W        W44133  23.758  39.270   3.734
72605W        W44134  44.307  34.601   1.796
72606W        W44135  10.457  25.071  13.678
72607W        W44136  20.222  41.941   2.207
72608W        W44137   9.634  34.029   2.541
72609W        W44138   8.380  22.161  13.546
72610W        W44139  33.531  31.575  14.764
72611W        W44140  23.165  31.883   2.715
72612W        W44141  29.172  28.174  13.264
72613W        W44142  31.073  38.359   0.692
72614W        W44143  36.774  33.891   2.297
72615W        W44144  26.336  34.737  12.677
72616W        W44145  29.921  29.164   0.424
72617W        W44146  43.108   1.948  13.533
72618W        W44147  41.880  39.286   4.556
72619W        W44148  16.690  23.536   4.842
72620W        W44149  20.340  32.170   5.122
72621W        W44150   0.680  25.656   4.080
72622W        W44151   7.804  29.484   4.786
72623W        W44152  22.030  36.319  10.668
72624W        W44153  14.317  20.502  12.399
72625W        W44154  33.954  26.569   1.997
72626W        W44155  18.269   8.247   4.666
72627W        W44156  17.381  37.653   5.060
72628W        W44157  33.516  11.804   1.722
72629W        W44158   2.579  20.355  13.808
72630W        W44159  12.927  42.523  10.754
72631W        W44160  14.609  33.883  12.350
72632W        W44161  18.491   1.864   5.039
72633W        W44162  25.650   0.383  11.000
72634W        W44163  24.402   1.217  11.589
72635W        W44164  31.945  16.249   3.290
72636W        W44165  23.422  18.807   2.840
72637W        W44166  11.715   5.935  12.851
72638W        W44167   9.762  14.275  14.198
72639W        W44168  43.907  36.696  14.508
72640W        W44169  33.557  39.355  10.916
72641W        W44170  11.835  26.555  13.688
72642W        W44171  22.587  27.505  14.694
72643W        W44172  18.193  44.526  12.668
72644W        W44173   1.889   2.444   3.155
72645W        W44174  35.125  25.535  10.724
72646W        W44175  11.855  38.897   2.178
72647W        W44176  15.724  33.953   0.226
72648W        W44177  28.572   0.753  10.922
72649W        W44178  16.635  32.607  13.092
72650W        W44179  23.875  12.381  14.481
72651W        W44180  44.332  14.266  14.541
72652W        W44181  16.193   0.386  12.404
72653W        W44182  43.299   0.877   3.093
72654W        W44183  12.188   4.419  11.951
72655W        W44184  15.722   7.798   5.440
72656W        W44185  39.561  10.051   0.225
72657W        W44186  44.334  25.879  12.592
72658W        W44187  39.612  38.099  10.660
72659W        W44188  23.053   2.434  11.902
72660W        W44189  37.672  14.358   3.294
72661W        W44190  24.042  36.129   4.127
72662W        W44191  25.231   9.419   0.870
72663W        W44192  30.916  40.929   0.323
72664W        W44193   2.570  18.496   0.068
72665W        W44194   3.491   0.981   0.755
72666W        W44195   4.346   9.114  11.646
72667W        W44196  19.144  42.955   1.783
72668W        W44197  16.403  28.561   9.734
72669W        W44198  42.273  30.246   1.461
72670W        W44199   5.316   0.006  12.316
72671W        W44200   2.410  30.472  14.891
72672W        W44201  17.982  34.822   3.885
72673W        W44202   6.801  40.875  12.920
72674W        W44203   2.223  36.353   0.409
72675W        W44204  29.992   5.847   1.531
72676W        W44205  31.401  24.761  14.852
72677W        W44206  24.499   4.001  10.695
72678W        W44207  29.827  33.885  12.602
72679W        W44208  28.202  24.473   0.041
72680W        W44209   6.962  11.815   0.695
72681W        W44210  24.579  25.140   4.091
72682W        W44211  17.168  28.183   0.057
72683W        W44212  17.167   3.224   1.983
72684W        W44213  19.007  40.294  12.388
72685W        W44214  37.110   4.862   0.887
72686W        W44215  43.933   7.397  13.651
72687W        W44216  10.373  26.629  12.775
72688W        W44217  36.518  14.808  12.825
72689W        W44218  14.317  15.480  10.735
72690W        W44219  21.847   3.731  11.427
72691W        W44220  26.529  33.326  12.812
72692W        W44221  42.812   5.609   2.584
72693W        W44222  23.061   7.079  12.184
72694W        W44223  37.755  24.380   2.264
72695W        W44224   1.303  37.316  10.822
72696W        W44225  20.584   0.448  12.457
72697W        W44226  16.688   2.717   4.529
72698W        W44227   5.031  43.279  11.416
72699W        W44228  34.591  42.271   3.328
72700W        W44229  13.221   7.383  14.425
72701W        W44230   7.259  35.608  12.367
72702W        W44231   5.682  38.419   4.524
72703W        W44232  14.231  34.018   0.777
72704W        W44233   7.369  41.782   0.497
72705W        W44234  15.291  20.118  12.652
72706W        W44235   3.379   3.331  14.043
72707W        W44236   6.956  40.671   0.747
72708W        W44237   0.533   5.894   1.406
72709W        W44238  13.670  19.877   2.761
72710W        W44239  38.828  14.123   3.703
72711W        W44240  31.489  26.975   2.351
72712W        W44241  34.747  20.155  12.347
72713W        W44242   4.360  25.802   0.828
72714W        W44243  41.272   4.237  11.194
72715W        W44244   6.579  36.494  14.411
72716W        W44245  39.914  28.717   1.532
72717W        W44246  30.014  12.614  12.874
72718W        W44247  31.617   6.177  12.526
72719W        W44248  44.943   2.885   2.355
72720W        W44249  31.674  30.498  10.767
72721W        W44250  26.136   9.380   0.707
72722W        W44251  37.901   1.260   4.169
72723W        W44252  28.154   9.721   1.422
72724W        W44253  25.134  17.238   3.655
72725W        W44254  25.533  12.377  10.683
72726W        W44255  19.623  38.970   3.987
72727W        W44256   4.167  39.836   1.479
72728W        W44257  10.237  17.286  12.322
72729W        W44258  18.794   0.374  14.943
72730W        W44259   2.340   4.331   4.609
72731W        W44260  23.224  41.424   0.905
72732W        W44261   2.277  23.684   0.793
72733W        W44262   7.543  15.631  13.260
72734W        W44263  22.056  37.144  11.156
72735W        W44264  24.764  14.289  13.568
72736W        W44265  34.589  29.896  14.494
72737W        W44266  24.530   4.174  12.888
72738W        W44267  41.312  24.395  13.058
72739W        W44268  44.496   0.140  14.910
72740W        W44269  35.373   7.020  10.686
72741W        W44270  42.373   4.856   2.824
72742W        W44271  30.596  28.296   5.098
72743W        W44272  16.786  38.061  11.990
72744W        W44273  27.238  28.082   3.117
72745W        W44274   6.071  32.952  13.514
72746W        W44275  37.351  15.605   3.695
72747W        W44276  31.955  26.471  11.231
72748W        W44277  34.345  21.079  11.050
72749W        W44278  39.845  23.474  13.507
72750W        W44279  25.374  12.370  12.214
72751W        W44280  42.358  26.730  11.129
72752W        W44281  27.879  14.693   0.888
72753W        W44282  28.971  39.076  13.215
72754W        W44283  24.076   8.592  11.199
72755W        W44284   0.986  14.722  13.745
72756W        W44285  39.046  23.070  12.608
72757W        W44286   2.007  43.952  11.566
72758W        W44287   9.779  31.454  13.821
72759W        W44288   0.960  25.469  13.494
72760W        W44289  23.556  22.291  12.515
72761W        W44290  29.918  44.051   3.731
72762W        W44291  14.272  27.876   2.764
72763W        W44292  34.050  42.391   0.485
72764W        W44293  29.077  23.603  11.190
72765W        W44294  39.121  40.979   2.906
72766W        W44295   0.508  20.138   1.182
72767W        W44296  34.702  23.749   0.965
72768W        W44297  39.298   5.211   4.128
72769W        W44298  34.102   7.937   1.774
72770W        W44299  39.556  18.776  11.215
72771W        W44300  31.218  32.520   0.464
72772W        W44301  34.426  39.969   3.065
72773W        W44302  31.920  25.522   2.699
72774W        W44303  17.643  36.282  12.213
72775W        W44304  26.502   9.215   1.025
72776W        W44305  26.412  31.019  13.277
72777W        W44306  29.903  37.091   2.215
72778W        W44307  43.843  14.639  12.865
72779W        W44308   5.220  39.840   3.110
72780W        W44309  32.504  33.658   4.579
72781W        W44310  18.585  34.054  10.869
72782W        W44311  13.725  39.005   0.747
72783W        W44312  38.421  39.352  12.978
72784W        W44313  42.573  25.180   4.218
72785W        W44314  17.824  24.258  13.080
72786W        W44315  43.391   7.873   4.121
72787W        W44316  29.354  44.553   2.668
72788W        W44317  34.335  36.485   0.850
72789W        W44318   9.715  37.561  14.262
72790W        W44319   1.881  20.215   0.245
72791W        W44320  32.949   3.710  11.041
72792W        W44321  14.248  20.548  14.532
72793W        W44322  24.615   4.613  13.844
72794W        W44323   5.944  33.149  13.996
72795W        W44324  31.402  24.554   2.631
72796W        W44325  34.194  25.654   1.334
72797W        W44326  12.331  34.098   2.346
72798W        W44327  18.789  14.482   0.907
72799W        W44328  42.081   1.216  11.996
72800W        W44329  27.438  13.781  10.902
72801W        W44330  27.944   5.992   3.134
72802W        W44331  44.314  28.279   1.546
72803W        W44332   3.393   6.281   0.525
72804W        W44333  21.757  29.159   4.696
72805W        W44334  14.001  28.754   1.747
72806W        W44335  25.095  28.491  14.056
72807W        W44336  25.690  41.696  11.551
72808W        W44337  39.062  28.543   4.163
72809W        W44338   2.183   6.272   3.209
72810W        W44339   5.514   9.004  11.059
72811W        W44340  33.106   7.202   4.206
72812W        W44341  42.574  23.066  11.050
72813W        W44342  22.547  15.602   4.712
72814W        W44343  36.005  15.779   3.835
72815W        W44344   8.691  22.157  14.613
72816W        W44345  44.034  28.646  10.679
72817W        W44346  10.436  26.131   0.676
72818W        W44347   1.373   5.565  13.143
72819W        W44348  28.584  20.500   0.309
72820W        W44349  23.878  22.587  12.783
72821W        W44350   7.709  43.961   3.433
72822W        W44351  35.860  30.404  13.817
72823W        W44352  32.537  23.449  14.546
72824W        W44353   6.974  13.674   3.556
72825W        W44354  18.986  29.614  11.193
72826W        W44355  38.935   1.553   1.818
72827W        W44356   6.149   7.227  14.715
72828W        W44357   1.241  35.830   3.680
72829W        W44358  41.982  17.185  12.071
72830W        W44359   1.434  35.405   0.333
72831W        W44360  40.398   2.325  14.888
72832W        W44361  35.827  27.709   3.277
72833W        W44362  39.962  27.903   0.883
72834W        W44363   1.825  35.085   2.282
72835W        W44364   9.730  12.276   4.707
72836W        W44365  18.595  22.217   1.485
72837W        W44366  17.827  33.433  12.543
72838W        W44367  44.555  27.557  13.824
72839W        W44368  26.376   4.193  13.234
72840W        W44369  23.780  34.398  13.822
72841W        W44370  38.114  20.524   1.453
72842W        W44371   3.861  14.685  11.054
72843W        W44372   5.023   9.492   2.508
72844W        W44373   5.893  43.861   2.830
72845W        W44374  34.844  32.909  11.417
72846W        W44375  23.546   2.175  14.581
72847W        W44376   6.757   1.847  11.295
72848W        W44377  13.938  23.670   4.711
72849W        W44378  21.520  28.001  13.036
72850W        W44379  18.356  35.397   3.305
72851W        W44380  17.767  11.746  12.088
72852W        W44381  13.577  29.501  11.551
72853W        W44382  33.192  25.634  11.688
72854W        W44383   9.200  28.591   0.698
72855W        W44384   1.078  13.559   3.994
72856W        W44385   8.813  34.447   9.843
72857W        W44386   2.369  30.291   2.920
72858W        W44387  17.303  22.606  13.477
72859W        W44388   0.773  27.029  11.591
72860W        W44389   5.161  15.635  13.360
72861W        W44390   8.547  43.211   4.024
72862W        W44391   5.857  38.028   3.677
72863W        W44392  39.847  25.853  14.383
72864W        W44393   3.672  17.042   2.153
72865W        W44394  38.651  41.457   4.165
72866W        W44395  34.045  31.042  13.015
72867W        W44396   0.686  35.596   5.512
72868W        W44397  11.234   4.138  12.967
72869W        W44398  28.473  42.561   0.693
72870W        W44399   3.836  39.967   3.782
72871W        W44400  29.916  43.126   0.945
72872W        W44401   4.220   3.390   1.609
72873W        W44402  43.266   8.162  10.851
72874W        W44403   5.091  31.512   2.193
72875W        W44404  41.776   3.835   3.638
72876W        W44405  31.011  31.856  10.737
72877W        W44406  44.246  19.899   2.837
72878W        W44407   3.399  14.353   1.744
72879W        W44408  35.554  29.291   2.816
72880W        W44409  25.502  31.156  10.709
72881W        W44410  31.311   7.743  14.519
72882W        W44411   1.994  37.173  11.232
72883W        W44412  24.940  11.654  12.535
72884W        W44413  28.729  18.536   1.960
72885W        W44414  35.878  13.598  11.659
72886W        W44415   8.581  14.183  12.014
72887W        W44416   9.815  20.857  11.379
72888W        W44417  35.147  15.314   0.789
72889W        W44418  12.940   0.854   1.864
72890W        W44419  14.681  32.056   0.032
72891W        W44420   6.854   3.796  13.832
72892W        W44421  24.356   5.937  12.575
72893W        W44422   4.490  30.946  14.428
72894W        W44423  28.529   2.191  14.254
72895W        W44424  13.088  13.018  13.943
72896W        W44425  24.940  12.197   0.261
72897W        W44426  12.136  39.328  14.371
72898W        W44427  22.654  28.078   0.384
72899W        W44428  31.915  33.310  12.546
72900W        W44429   4.734  38.857   0.925
72901W        W44430   9.109  18.587  13.550
72902W        W44431  34.464  38.494   1.143
72903W        W44432   2.363  17.101   4.270
72904W        W44433   8.743  30.938   4.033
72905W        W44434  24.059  30.092  12.111
72906W        W44435  37.640  23.809  11.593
72907W        W44436  40.896  21.735   0.290
72908W        W44437   2.915  25.947  11.515
72909W        W44438  36.023  35.169   3.193
72910W        W44439   8.344  25.421   0.779
72911W        W44440  36.479   4.706   4.676
72912W        W44441   0.840   1.837  11.683
72913W        W44442  44.152  36.553   2.725
72914W        W44443  32.125   3.398  12.928
72915W        W44444  20.264  26.124  11.431
72916W        W44445   3.673  36.265   1.744
72917W        W44446   4.241  32.240  11.999
72918W        W44447  40.007  25.217   1.775
72919W        W44448  42.065  39.221   0.245
72920W        W44449  31.045  19.581   0.451
72921W        W44450  29.146  30.141   4.573
72922W        W44451  33.807  23.076  13.086
72923W        W44452   7.621  10.245   0.358
72924W        W44453  15.502  26.150  10.757
72925W        W44454  15.828   2.150  12.849
72926W        W44455  40.082  36.299   1.345
72927W        W44456  21.609  17.549  14.004
72928W        W44457  44.826   2.348  14.120
72929W        W44458  32.946  28.332  14.655
72930W        W44459  44.351   8.658   4.642
72931W        W44460  44.397  31.568   3.703
72932W        W44461   0.709   2.696  13.022
72933W        W44462  21.126   4.197  11.534
72934W        W44463  21.452  21.120   1.878
72935W        W44464   3.219  14.739   2.806
72936W        W44465   4.439  23.241  13.614
72937W        W44466  26.017   4.471  13.523
72938W        W44467  43.765  22.627   4.085
72939W        W44468  34.422  12.203   2.342
72940W        W44469  20.064  35.571   2.272
72941W        W44470  18.973  11.834   4.675
72942W        W44471  44.534   7.783  11.532
72943W        W44472  22.959   2.453   0.910
72944W        W44473  28.553   1.324   3.834
72945W        W44474  22.479  28.913   0.383
72946W        W44475   7.776  21.927  11.637
72947W        W44476  31.989  32.102   2.030
72948W        W44477  30.363  19.228  11.211
72949W        W44478  44.605  34.821  11.899
72950W        W44479  16.408  27.611  14.122
72951W        W44480  32.736  32.283   2.065
72952W        W44481   8.659   1.908  10.766
72953W        W44482  24.611  13.367  13.748
72954W        W44483  18.553  29.554   0.768
72955W        W44484  28.728  14.869  12.847
72956W        W44485  22.456  17.234   2.516
72957W        W44486   5.676  43.245   4.275
72958W        W44487  16.024   3.137   3.010
72959W        W44488   7.944  36.853  12.483
72960W        W44489   6.334  29.774  13.479
72961W        W44490   5.907  22.671  11.045
72962W        W44491  30.094  15.248  12.483
72963W        W44492  28.689  17.477   4.066
72964W        W44493  25.355  31.565   1.713
72965W        W44494   3.378  27.648   2.155
72966W        W44495   8.675   5.407   3.215
72967W        W44496  33.120  29.954   0.809
72968W        W44497  13.334   4.263  10.659
72969W        W44498  11.864  25.198  13.750
72970W        W44499   4.403  43.930   2.466
72971W        W44500  27.139  35.551   3.667
72972W        W44501  43.992  19.795  13.524
72973W        W44502  28.772  12.781   3.086
72974W        W44503  22.061  37.395   5.257
72975W        W44504   6.989   7.197  13.475
72976W        W44505  20.543  10.622  10.649
72977W        W44506  22.161  37.423   1.996
72978W        W44507  15.056  40.370   2.208
72979W        W44508  36.461   9.473  12.222
72980W        W44509  27.589  30.436  13.882
72981W        W44510  19.173  20.195  13.350
72982W        W44511  13.619  16.714  14.612
72983W        W44512  38.559  25.529   1.674
72984W        W44513  14.534  33.135  12.141
72985W        W44514  29.964   6.790   2.461
72986W        W44515  35.867  23.314   1.694
72987W        W44516  11.723  15.146   0.400
72988W        W44517  15.683  28.114   0.994
72989W        W44518  21.575  31.152   2.854
72990W        W44519  35.449  30.940   1.491
72991W        W44520  19.992   6.300   0.921
72992W        W44521  15.494  18.469  12.568
72993W        W44522  17.603  33.115   3.634
72994W        W44523   7.816  24.091   4.084
72995W        W44524   4.632  40.287  12.768
72996W        W44525  31.698  18.723  12.209
72997W        W44526   1.082  27.527   0.323
72998W        W44527   7.924  24.569   2.167
72999W        W44528  39.078  22.431  11.052
73000W        W44529   5.346   6.009  14.968
73001W        W44530  44.252  37.891   0.930
73002W        W44531   6.813   2.988  13.390
73003W        W44532   3.595  13.311  11.156
73004W        W44533  31.163   0.473  10.683
73005W        W44534  19.313  34.419   2.368
73006W        W44535   0.485  11.139   0.386
73007W        W44536  13.964   7.716   4.346
73008W        W44537  24.736   0.866  11.400
73009W        W44538   4.989  24.992   3.227
73010W        W44539   7.359  16.085  11.146
73011W        W44540  37.635  25.013  11.819
73012W        W44541   3.444  38.394  13.993
73013W        W44542  40.984  31.846   0.071
73014W        W44543  18.161  33.643   1.561
73015W        W44544  44.417  42.349  12.959
73016W        W44545  26.028   9.902   3.324
73017W        W44546   1.744  42.860  14.909
73018W        W44547  18.434  31.557  10.040
73019W        W44548   9.334  27.159  12.312
73020W        W44549  35.807   1.724   0.096
73021W        W44550   6.343  43.079   4.187
73022W        W44551  26.286   5.836  10.986
73023W        W44552   7.377  17.295  11.613
73024W        W44553   6.341  37.134   1.355
73025W        W44554  32.939  21.581   4.578
73026W        W44555  24.734  28.064   4.161
73027W        W44556  12.882  40.281   4.213
73028W        W44557  41.325  16.251   1.964
73029W        W44558  38.306  43.345  13.498
73030W        W44559  23.646   4.800   1.303
73031W        W44560  32.080   8.345  11.527
73032W        W44561  40.394   1.639  13.851
73033W        W44562  25.933  19.656   3.819
73034W        W44563  16.160  14.746   3.080
73035W        W44564  26.087  44.871  13.034
73036W        W44565  18.711  16.714   2.715
73037W        W44566  32.484  38.116   3.833
73038W        W44567  17.733  43.339  12.848
73039W        W44568  20.105   1.311  12.803
73040W        W44569  18.692  25.538   3.874
73041W        W44570  19.082  32.067   3.087
73042W        W44571  35.597   9.559   4.180
73043W        W44572  13.154  42.588   3.515
73044W        W44573  16.177  31.484   4.056
73045W        W44574  40.762  43.493   3.867
73046W        W44575  34.198  41.201  14.306
73047W        W44576   2.301  14.365  14.011
73048W        W44577  38.342  16.724   0.705
73049W        W44578  38.541  40.483  11.507
73050W        W44579  23.089  17.304  11.326
73051W        W44580  31.594   4.903   3.873
73052W        W44581  44.701  34.409  14.954
73053W        W44582  44.697  32.235  13.509
73054W        W44583   3.293  16.126  14.421
73055W        W44584  10.398  41.767  12.976
73056W        W44585  19.491   7.335   0.434
73057W        W44586  33.053  15.845  13.016
73058W        W44587   2.334   9.260  13.824
73059W        W44588  13.244  27.735   3.054
73060W        W44589  41.512  42.619   1.845
73061W        W44590  44.074  13.563  14.079
73062W        W44591  44.800  21.295   4.478
73063W        W44592  12.310  26.454  12.382
73064W        W44593  30.342   8.644  11.160
73065W        W44594   3.954  14.855   4.054
73066W        W44595   7.281  28.293   2.206
73067W        W44596  37.593   5.930  11.165
73068W        W44597  24.040  17.660  13.111
73069W        W44598  11.139  28.135  11.715
73070W        W44599  39.593  30.018  11.548
73071W        W44600   4.757  30.183  14.866
73072W        W44601  39.502  18.769   3.252
73073W        W44602  27.392   3.856   3.866
73074W        W44603  13.231  21.388  10.199
73075W        W44604  31.131  16.075   2.649
73076W        W44605  41.916  31.683   2.115
73077W        W44606  24.798  39.460   3.720
73078W        W44607   4.217  12.404  11.178
73079W        W44608  44.825  29.494  13.379
73080W        W44609   9.732  10.189   3.183
73081W        W44610   3.816  13.849  10.534
73082W        W44611  36.313   7.621   4.637
73083W        W44612  36.514  34.158  11.619
73084W        W44613  12.902  29.107  12.516
73085W        W44614   1.038  22.650   3.604
73086W        W44615   9.709  20.747   3.720
73087W        W44616  25.250  39.803  14.290
73088W        W44617   9.710  24.959  14.923
73089W        W44618  30.588  40.619   4.030
73090W        W44619  35.378  11.307  10.719
73091W        W44620   9.444  31.460  13.028
73092W        W44621   7.646  17.869  13.327
73093W        W44622  24.656  33.149  10.712
73094W        W44623   5.924  42.211  10.461
73095W        W44624  44.344   6.181  14.287
73096W        W44625  12.720  35.827  12.467
73097W        W44626  18.523  27.409  11.954
73098W        W44627  22.703  22.757   2.702
73099W        W44628   0.853  44.277  13.966
73100W        W44629  17.722  11.333   2.639
73101W        W44630  17.740   1.244   3.406
73102W        W44631  41.431   4.428  12.423
73103W        W44632  37.050  22.545   1.870
73104W        W44633  25.152   9.504   1.660
73105W        W44634  26.123  36.502  14.731
73106W        W44635  39.950  34.946  11.708
73107W        W44636  37.167  26.893  12.891
73108W        W44637   5.473  29.962   1.859
73109W        W44638  41.814   2.713  13.881
73110W        W44639   4.576  43.906   3.299
73111W        W44640   9.359  27.281   3.019
73112W        W44641  10.335  34.327  14.541
73113W        W44642   9.821  30.731  13.518
73114W        W44643  10.514  27.748   0.231
73115W        W44644  26.621  41.906  12.491
73116W        W44645  43.346  13.263  12.308
73117W        W44646  31.293  35.418   2.367
73118W        W44647  40.493  35.997   2.427
73119W        W44648  27.951   6.896   2.290
73120W        W44649   2.455  16.742   3.887
73121W        W44650   6.399  21.638  12.086
73122W        W44651  33.110  18.215   1.718
73123W        W44652  28.955   0.759   2.703
73124W        W44653   7.495   8.588  14.909
73125W        W44654  27.034  20.757  11.539
73126W        W44655  33.506  28.815  12.724
73127W        W44656  13.463  16.791   2.417
73128W        W44657  18.558  43.935   0.103
73129W        W44658   5.236  39.406  14.684
73130W        W44659  38.493  10.713   3.056
73131W        W44660   8.331  41.145  12.300
73132W        W44661  41.014  33.328  11.960
73133W        W44662   1.247  40.801   1.697
73134W        W44663  33.452  17.685  13.999
73135W        W44664   1.193  20.500  13.037
73136W        W44665  37.398   5.705  14.391
73137W        W44666  24.638   0.663  13.148
73138W        W44667  18.597  14.936  12.425
73139W        W44668  44.001   3.276   1.267
73140W        W44669  42.505  25.221  12.092
73141W        W44670  20.964  29.007  12.006
73142W        W44671  27.777  13.667  13.445
73143W        W44672   9.342  22.209   2.838
73144W        W44673  18.692  35.353   1.117
73145W        W44674  42.257  35.805  11.921
73146W        W44675  39.273  19.560   0.443
73147W        W44676  42.628  11.679   4.669
73148W        W44677  26.584   3.016   3.054
73149W        W44678   2.491   0.949  10.749
73150W        W44679  21.459  26.115   2.738
73151W        W44680  26.644  25.727  11.104
73152W        W44681  21.116  12.298  13.968
73153W        W44682  22.137  43.087  12.200
73154W        W44683  24.272  28.559   2.838
73155W        W44684  10.361   9.367   3.201
73156W        W44685  25.000  31.872  14.727
73157W        W44686  32.911  14.830   1.665
73158W        W44687  39.846  38.718  13.455
73159W        W44688  22.243  21.481  12.013
73160W        W44689  24.748  36.432  13.082
73161W        W44690  23.236  35.341   1.162
73162W        W44691  13.377  14.276  14.002
73163W        W44692  21.985  17.327   0.717
73164W        W44693  37.625  25.232  13.551
73165W        W44694   3.580  21.792   1.030
73166W        W44695  23.097  35.373   2.209
73167W        W44696  33.161  27.148   3.604
73168W        W44697  43.803  35.870  10.633
73169W        W44698  30.191   3.386   4.578
73170W        W44699   0.783  10.715  10.683
73171W        W44700  18.744  18.304  11.676
73172W        W44701  23.613   1.309  13.083
73173W        W44702  40.140   2.698  13.784
73174W        W44703  16.299  12.454  11.116
73175W        W44704  16.142  16.806   2.924
73176W        W44705  27.962  13.028  13.620
73177W        W44706  19.484   1.364  14.337
73178W        W44707  31.009   9.152  12.644
73179W        W44708  41.128  20.670   4.211
73180W        W44709  34.835  36.956  13.170
73181W        W44710  22.242  41.026   1.852
73182W        W44711  19.507  12.355   3.629
73183W        W44712   2.886  22.628   0.834
73184W        W44713  18.808  36.069  13.676
73185W        W44714  24.552  37.238  11.638
73186W        W44715  43.553  31.874   1.396
73187W        W44716  29.740  44.983   3.913
73188W        W44717  10.724   2.489  11.494
73189W        W44718  32.307  10.376  12.920
73190W        W44719   0.205  40.676   3.262
73191W        W44720   8.770  29.357   1.066
73192W        W44721  29.100  17.602  13.622
73193W        W44722   6.026  15.716   4.886
73194W        W44723  32.797  17.686   2.282
73195W        W44724  18.814  42.065   1.858
73196W        W44725  11.480  24.019  14.787
73197W        W44726  33.384  18.832  12.473
73198W        W44727  23.057  10.656  13.230
73199W        W44728  29.898   0.285   2.097
73200W        W44729  36.313  24.172  11.414
73201W        W44730  37.497  35.913  13.088
73202W        W44731  12.966  16.642   4.884
73203W        W44732   4.936  17.033  11.174
73204W        W44733  27.445  17.148  11.108
73205W        W44734  29.105   9.273   2.703
73206W        W44735  32.161   5.665  11.216
73207W        W44736  30.064  31.640   0.103
73208W        W44737   6.413  12.610   0.413
73209W        W44738  32.459  21.239   4.375
73210W        W44739  19.672  23.027  11.115
73211W        W44740   7.097  16.187  14.409
73212W        W44741  38.507   9.338  14.891
73213W        W44742  25.431  34.180  14.786
73214W        W44743  38.748  11.277  11.929
73215W        W44744   6.934  26.168  12.110
73216W        W44745   3.986  22.129   3.318
73217W        W44746  29.186  32.507  12.017
73218W        W44747  12.212  38.585   1.464
73219W        W44748  30.765   0.482  11.670
73220W        W44749  37.101   2.902   3.182
73221W        W44750  35.940  14.189   4.104
73222W        W44751  21.207  28.080   3.931
73223W        W44752   1.647  20.587  11.519
73224W        W44753  14.356  44.762   0.401
73225W        W44754  16.188   3.492  10.491
73226W        W44755  14.607  11.041   1.450
73227W        W44756  24.542   6.133   3.750
73228W        W44757   2.089  42.259  11.902
73229W        W44758   4.756  39.024  12.977
73230W        W44759  14.680  44.252   1.205
73231W        W44760  41.285   4.460   3.810
73232W        W44761  36.972  43.875  11.551
73233W        W44762  37.835  10.269  10.458
73234W        W44763  23.555   8.501  12.373
73235W        W44764  18.323  27.566  10.330
73236W        W44765  17.324  44.077   2.023
73237W        W44766  32.098  20.482   4.833
73238W        W44767  19.986  24.016  14.462
73239W        W44768  28.573   8.609  13.076
73240W        W44769   2.917   0.232   0.637
73241W        W44770  44.364  40.449   5.064
73242W        W44771  37.427  25.824  11.664
73243W        W44772  15.088  36.274  12.718
73244W        W44773  12.218  15.417   0.347
73245W        W44774  26.159  34.013   1.347
73246W        W44775  24.454  42.337   0.277
73247W        W44776  43.528  11.078  13.598
73248W        W44777  39.014  41.679  11.593
73249W        W44778  16.332  28.100  14.257
73250W        W44779  40.903  16.755   1.369
73251W        W44780   4.156  38.312   0.489
73252W        W44781   3.899  13.376   1.193
73253W        W44782  13.597   5.266  12.007
73254W        W44783  30.237  40.894  13.364
73255W        W44784  27.330  23.167   4.231
73256W        W44785  17.659  20.186  13.537
73257W        W44786  23.976  14.215  13.049
73258W        W44787  26.562  26.251   2.359
73259W        W44788  43.482  32.153  12.456
73260W        W44789  16.321  23.263  12.987
73261W        W44790  18.072  14.941  14.052
73262W        W44791  16.068   9.708  13.441
73263W        W44792   6.473  25.705   3.550
73264W        W44793  22.590   0.825  10.391
73265W        W44794  30.978  31.340   3.179
73266W        W44795   6.143  15.727  11.128
73267W        W44796  21.775   7.900  12.100
73268W        W44797  17.543   0.470  13.471
73269W        W44798  18.565  36.123   2.818
73270W        W44799  16.719  43.411  13.790
73271W        W44800  26.123   8.261   4.680
73272W        W44801  35.470  18.075   4.145
73273W        W44802  39.807  15.745  13.715
73274W        W44803  31.494   9.791   4.633
73275W        W44804   6.670  12.423   2.413
73276W        W44805  27.940   6.372   4.532
73277W        W44806   8.959  28.946   0.122
73278W        W44807   7.795  19.679  13.981
73279W        W44808   9.350   8.733   2.830
73280W        W44809  44.737   3.914  12.012
73281W        W44810   9.202  23.076   2.808
73282W        W44811  27.379  18.631  11.218
73283W        W44812  14.684  32.946   0.033
73284W        W44813  43.054  19.628  14.721
73285W        W44814  12.954  33.624  14.449
73286W        W44815   1.550  37.949  13.916
73287W        W44816   1.996  28.743   2.290
73288W        W44817  29.634  44.062   0.010
73289W        W44818  27.654   1.802  14.436
73290W        W44819   0.266  35.850  11.659
73291W        W44820  25.538   0.025   3.167
73292W        W44821  22.476   2.778   2.763
73293W        W44822   1.527  34.167  11.137
73294W        W44823  12.013   1.376   4.778
73295W        W44824  33.394  36.488   3.089
73296W        W44825  34.328  31.197   4.069
73297W        W44826  14.795  28.972  11.704
73298W        W44827  18.301  10.937  10.812
73299W        W44828  42.352  14.336   0.990
73300W        W44829  12.869  41.279   0.438
73301W        W44830  10.082  20.532   1.433
73302W        W44831  17.692  16.217  10.603
73303W        W44832  11.236  37.676   3.534
73304W        W44833  10.142  20.734  13.698
73305W        W44834  37.607  37.990   1.637
73306W        W44835   5.547  40.972   2.792
73307W        W44836  34.486  42.044   1.048
73308W        W44837  31.941   2.945  14.535
73309W        W44838  43.952  43.070  11.099
73310W        W44839  34.697  41.124   2.537
73311W        W44840  41.413  16.999  14.473
73312W        W44841   5.255  13.436  14.530
73313W        W44842   3.685  44.817   1.828
73314W        W44843  29.210  23.033  12.365
73315W        W44844  20.170  39.328  14.067
73316W        W44845  32.951   5.682  12.993
73317W        W44846  21.552  19.557  14.516
73318W        W44847  31.663  43.873  12.205
73319W        W44848   2.447  29.944   1.194
73320W        W44849   4.845  41.812  14.764
73321W        W44850  12.230  18.994  13.506
73322W        W44851   5.474  37.557   1.751
73323W        W44852  41.967   5.883   0.467
73324W        W44853  35.685  15.422  11.273
73325W        W44854  38.997   2.693   2.621
73326W        W44855  44.660   3.623  14.039
73327W        W44856  44.408  42.778  11.162
73328W        W44857  17.039  34.886   2.337
73329W        W44858  20.132   1.849  12.043
73330W        W44859  16.609   7.767   1.373
73331W        W44860  32.812  44.708  12.392
73332W        W44861  38.910   7.390  14.848
73333W        W44862  17.580   8.937   1.772
73334W        W44863  18.978   0.860   2.601
73335W        W44864  17.827   4.820   2.851
73336W        W44865  30.449  15.519   5.324
73337W        W44866   0.041  31.676  11.738
73338W        W44867   5.208  31.086  11.686
73339W        W44868   2.742  41.013   3.882
73340W        W44869   9.059  33.890  14.367
73341W        W44870  25.585  44.047   0.304
73342W        W44871   7.283  15.339   1.250
73343W        W44872  33.544  14.197   4.129
73344W        W44873  13.091   2.508   5.031
73345W        W44874   0.317  41.870   1.396
73346W        W44875  33.473   1.645   1.235
73347W        W44876  34.512  35.885  13.148
73348W        W44877  10.668   1.453  10.281
73349W        W44878  17.213  38.832   4.171
73350W        W44879  30.913  18.578   1.357
73351W        W44880  18.588  35.654  13.463
73352W        W44881  12.216  42.703   1.857
73353W        W44882  11.212   4.498   3.268
73354W        W44883  25.283   5.894   2.287
73355W        W44884   7.587  35.873   3.598
73356W        W44885  13.226   2.277   1.023
73357W        W44886  17.307  21.050  12.561
73358W        W44887  27.341  36.136   3.748
73359W        W44888  24.045  21.526   4.337
73360W        W44889  17.260  14.515  14.403
73361W        W44890  34.430  32.377   2.430
73362W        W44891  19.877   0.874  11.317
73363W        W44892  43.398  38.629   2.408
73364W        W44893  16.589  31.043  12.538
73365W        W44894   1.297  44.857  14.567
73366W        W44895  27.393  30.400  11.915
73367W        W44896   9.740  37.859   1.208
73368W        W44897   1.370  31.549   3.391
73369W        W44898  11.619   6.906  12.291
73370W        W44899  28.041  23.011  14.718
73371W        W44900  16.262  34.679   0.025
73372W        W44901  27.443  30.905   0.976
73373W        W44902  32.476  34.497  13.235
73374W        W44903  35.642  33.007   3.689
73375W        W44904  33.633  39.882  14.408
73376W        W44905  38.207  10.956   3.473
73377W        W44906  33.003  24.037  10.673
73378W        W44907  34.572  33.001   1.751
73379W        W44908  16.638  25.661  12.960
73380W        W44909  11.700   7.081  11.819
73381W        W44910  13.854  33.557   4.814
73382W        W44911  42.256   0.996   1.943
73383W        W44912   5.133   0.958  14.314
73384W        W44913  27.681  15.505   0.840
73385W        W44914  41.361  18.284   2.288
73386W        W44915   7.891  36.602   3.707
73387W        W44916  38.253  24.699  12.457
73388W        W44917  24.408  33.003   3.242
73389W        W44918  31.825  10.726  11.197
73390W        W44919   2.860   6.625  11.604
73391W        W44920  31.505  20.491   1.019
73392W        W44921  44.635   0.903  11.661
73393W        W44922   1.724   9.107   1.525
73394W        W44923  29.078  16.488  13.990
73395W        W44924  17.018  27.764   2.174
73396W        W44925   0.201  28.955   4.090
73397W        W44926  10.347  26.738   3.284
73398W        W44927  38.607  35.919  14.281
73399W        W44928  11.586   6.334  13.530
73400W        W44929  12.109  43.656   1.348
73401W        W44930  21.697  22.112   3.346
73402W        W44931  35.774   5.889  13.521
73403W        W44932  11.390  29.392   2.239
73404W        W44933  41.301   3.921  13.172
73405W        W44934  33.569   0.300  14.950
73406W        W44935   5.032  26.401   3.267
73407W        W44936   7.396  26.929  14.510
73408W        W44937  21.618  33.604  13.052
73409W        W44938  29.403  23.610  11.579
73410W        W44939  30.825  10.276   3.143
73411W        W44940   1.908   2.269  12.505
73412W        W44941  13.308  11.587   3.664
73413W        W44942   8.869  28.995   1.418
73414W        W44943  25.691   6.779   4.899
73415W        W44944  38.910   0.182   1.376
73416W        W44945  33.844   5.348  12.892
73417W        W44946  33.119  16.350  12.523
73418W        W44947  27.452  44.959  10.666
73419W        W44948   1.681  42.174  11.584
73420W        W44949   3.811  40.839   3.780
73421W        W44950  18.851  19.800   5.130
73422W        W44951  10.448   2.985  11.096
73423W        W44952   0.340   4.407  13.092
73424W        W44953  12.974  31.697   3.308
73425W        W44954  24.738  44.864  14.857
73426W        W44955  28.421  43.302  12.140
73427W        W44956  35.801  18.841  11.886
73428W        W44957  26.555  18.719   0.732
73429W        W44958  29.132  29.270   4.971
73430W        W44959  23.888  12.258  12.782
73431W        W44960   1.440  36.835   3.600
73432W        W44961  33.360  15.626   4.949
73433W        W44962   5.266  29.930  10.680
73434W        W44963  19.500  43.419   4.042
73435W        W44964   4.359  37.386  12.484
73436W        W44965  10.733  39.235  13.964
73437W        W44966  32.741  20.694   3.520
73438W        W44967  20.042   4.771  12.496
73439W        W44968  30.141  16.116   1.406
73440W        W44969  24.809  20.735  12.077
73441W        W44970  24.484   0.488   1.901
73442W        W44971   7.924  39.718  10.627
73443W        W44972  36.483   2.821   1.881
73444W        W44973  28.597  12.877  11.506
73445W        W44974  37.994  28.287  14.273
73446W        W44975  20.557  25.302   4.595
73447W        W44976  41.248   5.482   0.908
73448W        W44977  40.307   6.541  12.371
73449W        W44978  12.257   0.392   1.065
73450W        W44979  35.832   1.918   3.573
73451W        W44980  18.330  40.468   2.270
73452W        W44981  30.480  19.567   4.858
73453W        W44982  30.129   0.506  13.366
73454W        W44983   5.675  39.485   3.848
73455W        W44984  12.969  28.196  12.601
73456W        W44985  39.618  14.151  14.667
73457W        W44986  37.437  33.655   3.112
73458W        W44987  28.249  14.143   3.136
73459W        W44988  16.658  13.270  13.301
73460W        W44989  23.047  37.443  13.339
73461W        W44990  43.034   5.737  10.456
73462W        W44991  13.773   9.777   0.065
73463W        W44992  40.771  24.263  12.893
73464W        W44993  15.762  22.327   4.765
73465W        W44994  29.657  37.859   2.776
73466W        W44995  42.091  41.057   1.068
73467W        W44996  15.317  41.438  10.849
73468W        W44997   8.920  20.927  12.507
73469W        W44998   6.442  35.661  14.523
73470W        W44999  40.499  36.439   4.226
73471W        W45000  13.069   2.252   2.498
73472W        W45001  32.300  10.578   1.417
73473W        W45002  22.660  32.301  13.842
73474W        W45003  42.731   5.392  10.724
73475W        W45004  17.911  25.125  13.367
73476W        W45005  19.762   9.266   0.428
73477W        W45006  40.009  27.076   4.709
73478W        W45007  33.250  19.803   3.881
73479W        W45008  11.639  22.993  12.876
73480W        W45009  20.625  38.991  14.246
73481W        W45010   8.343  40.710  11.925
73482W        W45011  22.282   9.579  13.411
73483W        W45012   0.722  35.836   4.209
73484W        W45013  35.636  35.549   0.415
73485W        W45014  27.034  30.122   0.792
73486W        W45015  26.160  17.714   1.739
73487W        W45016  24.758  32.018   0.464
73488W        W45017  33.851  10.147  14.141
73489W        W45018   9.172   4.079  14.488
73490W        W45019  18.077  38.472  11.990
73491W        W45020   8.963  23.259  13.922
73492W        W45021  22.233  41.420   4.755
73493W        W45022  42.764  35.922  11.950
73494W        W45023  18.291  16.627  12.395
73495W        W45024  22.005   8.369  11.882
73496W        W45025  30.056  43.839  12.970
73497W        W45026   6.479  33.802  11.455
73498W        W45027  34.486  28.225   4.510
73499W        W45028  37.499  12.856  14.379
73500W        W45029   9.275  37.592   1.443
73501W        W45030  44.375  25.790   2.394
73502W        W45031  18.647  44.262  11.939
73503W        W45032  31.005  34.863  11.993
73504W        W45033  25.638  15.804  12.018
73505W        W45034  13.738  43.789   3.303
73506W        W45035  20.502  38.861  12.069
73507W        W45036   7.895  14.198  11.557
73508W        W45037  36.612  44.037   0.764
73509W        W45038  13.368   6.501   4.938
73510W        W45039  23.067  36.582   3.141
73511W        W45040  14.189   2.544   0.267
73512W        W45041  17.137  30.246   3.299
73513W        W45042  22.467  10.415   4.110
73514W        W45043   4.332  40.277   2.833
73515W        W45044  35.123   2.709   0.794
73516W        W45045  39.630  27.399   3.267
73517W        W45046  41.422  28.944   4.158
73518W        W45047  39.018  23.215   2.760
73519W        W45048   9.321  28.862  11.100
73520W        W45049  32.599  40.142  14.071
73521W        W45050  42.358   4.406  11.940
73522W        W45051  44.364  41.598   0.593
73523W        W45052  34.882  37.395   1.010
73524W        W45053  12.897   2.429   0.506
73525W        W45054  17.837  30.016   1.248
73526W        W45055  11.354  32.201  13.025
73527W        W45056  17.243  38.855   9.830
73528W        W45057   1.250   8.657  14.450
73529W        W45058  28.894  37.384  13.444
73530W        W45059  19.517  28.702   2.436
73531W        W45060  29.629  13.627   4.221
73532W        W45061   9.869  23.792   4.574
73533W        W45062  24.214   6.071  14.422
73534W        W45063  12.236  43.303   2.839
73535W        W45064  13.817  12.302   2.115
73536W        W45065  12.822  43.479  14.032
73537W        W45066  28.022  27.445  11.044
73538W        W45067  44.380  26.687  10.611
73539W        W45068  20.189  18.310  11.100
73540W        W45069  13.251  22.395  10.271
73541W        W45070   1.409  21.022  14.736
73542W        W45071  41.248   0.872   1.392
73543W        W45072   4.996   1.487  11.507
73544W        W45073  24.109  19.288  14.391
73545W        W45074  33.129  28.895   0.847
73546W        W45075   9.849  14.772   3.669
73547W        W45076   4.637  38.386   1.302
73548W        W45077  32.290  41.943  12.516
73549W        W45078  15.426  37.746  11.717
73550W        W45079   1.550  18.537  11.417
73551W        W45080  38.375  42.774   2.037
73552W        W45081  33.868   7.230  12.087
73553W        W45082  15.735  12.645  13.972
73554W        W45083   9.167  35.599  13.941
73555W        W45084  30.903  11.322   3.867
73556W        W45085  31.866  35.546   4.166
73557W        W45086  10.106  29.289   1.822
73558W        W45087  40.821  43.220   1.405
73559W        W45088  26.497  19.116  14.773
73560W        W45089  42.437  43.774  14.362
73561W        W45090   2.959  34.670  12.834
73562W        W45091  33.126  36.289   1.909
73563W        W45092   7.806   3.537   3.212
73564W        W45093  28.907  29.062   4.439
73565W        W45094  29.104  20.819  11.531
73566W        W45095  39.932  39.263  13.384
73567W        W45096  36.792  19.951   4.429
73568W        W45097   6.161  32.676  12.510
73569W        W45098  32.045  43.683   1.214
73570W        W45099  33.559  37.637   4.584
73571W        W45100  10.849  12.977   4.860
73572W        W45101   2.445   2.725  13.113
73573W        W45102  40.593   0.688  14.258
73574W        W45103  28.042  21.684   2.165
73575W        W45104  33.578   5.423  12.038
73576W        W45105  25.360  34.280  10.997
73577W        W45106  27.022  40.440   4.779
73578W        W45107  39.414  20.025   1.764
73579W        W45108  20.640  18.744   1.761
73580W        W45109  22.812  44.336   1.302
73581W        W45110   5.365  30.761   2.823
73582W        W45111  28.624   2.404  14.720
73583W        W45112  42.243  28.620  13.477
73584W        W45113   4.956  22.196  11.981
73585W        W45114  25.628  21.043  12.190
73586W        W45115   7.950  10.144   1.077
73587W        W45116  43.025  26.063   3.299
73588W        W45117  42.862  32.974  10.188
73589W        W45118  40.035  19.989   3.893
73590W        W45119  44.272   4.502  13.980
73591W        W45120  23.916  42.421   2.354
73592W        W45121  12.692  30.543   2.629
73593W        W45122   5.399  43.047   0.914
73594W        W45123   5.683  14.242   2.220
73595W        W45124  20.975  39.009   9.846
73596W        W45125  32.133  31.540  13.170
73597W        W45126  39.370   4.972  13.089
73598W        W45127  10.354  33.913   3.755
73599W        W45128  42.949  34.478  14.055
73600W        W45129  41.931   2.228   3.253
73601W        W45130  26.088  30.674   3.367
73602W        W45131  11.173  19.336   3.742
73603W        W45132   7.217  21.569  14.886
73604W        W45133  34.855  44.779   4.449
73605W        W45134   9.738  34.620  12.414
73606W        W45135  27.260   6.094   3.540
73607W        W45136  39.812   1.871   0.003
73608W        W45137  20.205  31.615  12.013
73609W        W45138  11.534  25.603  13.627
73610W        W45139  12.802  31.954  11.105
73611W        W45140   2.827  27.639  13.416
73612W        W45141  11.569  14.867  14.488
73613W        W45142   0.068  19.741  11.857
73614W        W45143   3.464  32.897   3.206
73615W        W45144  40.999   2.731   1.328
73616W        W45145   2.394  36.991   1.106
73617W        W45146  25.755  21.191   2.003
73618W        W45147  24.223   5.923  11.624
73619W        W45148  40.047  24.281   1.287
73620W        W45149  22.025  29.312   4.281
73621W        W45150   0.023  24.132  10.921
73622W        W45151  29.670  34.181  12.198
73623W        W45152   3.488  35.846   0.383
73624W        W45153  44.915  35.172   1.375
73625W        W45154   5.009  33.343  11.621
73626W        W45155  35.851  37.974  10.656
73627W        W45156   3.354   2.451   4.351
73628W        W45157  13.145   6.050  10.606
73629W        W45158   9.657  38.413   1.228
73630W        W45159  38.936  39.047   3.238
73631W        W45160  22.571   7.822   3.685
73632W        W45161  17.860   4.589   0.054
73633W        W45162  28.645  40.088   0.238
73634W        W45163  40.329  37.332   0.691
73635W        W45164   8.947   6.805   2.317
73636W        W45165  13.910  44.931   1.183
73637W        W45166   8.361  35.085   2.900
73638W        W45167  19.029  36.545  13.644
73639W        W45168  31.525  33.608   1.439
73640W        W45169  19.076  33.151   3.299
73641W        W45170  11.827  12.941   0.930
73642W        W45171  31.553  43.789   1.450
73643W        W45172  11.758  35.306   1.397
73644W        W45173  14.346  25.635  11.987
73645W        W45174   0.201  32.486   5.087
73646W        W45175  43.202   5.319  12.022
73647W        W45176  21.040  10.254  12.188
73648W        W45177  21.033  21.594   4.960
73649W        W45178  16.542  37.069  12.806
73650W        W45179  42.261  18.806  13.358
73651W        W45180  22.183  40.351   1.437
73652W        W45181  17.129   9.416   1.292
73653W        W45182  34.084  20.684   2.488
73654W        W45183   1.704  23.739   1.449
73655W        W45184  17.178   2.010  12.588
73656W        W45185  37.795  38.890   9.814
73657W        W45186   1.346  44.031  13.828
73658W        W45187  38.641  15.182  11.902
73659W        W45188   5.484   9.749  14.014
73660W        W45189  22.231  18.088  12.854
73661W        W45190  23.700  22.773  14.254
73662W        W45191  38.497  12.150   0.144
73663W        W45192   3.199  17.055   0.405
73664W        W45193   9.876  37.664  13.416
73665W        W45194   5.770   8.714  12.379
73666W        W45195   2.924  29.831  13.582
73667W        W45196  44.778  34.326   0.450
73668W        W45197   3.582  20.065  11.638
73669W        W45198  44.242  38.083   1.418
73670W        W45199  28.859  36.218  10.711
73671W        W45200  35.458  42.006  13.417
73672W        W45201  36.870  12.355   2.705
73673W        W45202   5.887  10.619   2.376
73674W        W45203  27.444  17.670  11.619
73675W        W45204  11.408  37.188  13.938
73676W        W45205  31.298   7.438  13.766
73677W        W45206   7.298  27.676   4.670
73678W        W45207  35.589   8.379  13.927
73679W        W45208  21.559   5.920  10.949
73680W        W45209  31.752   9.105   0.894
73681W        W45210  19.289   4.581   0.787
73682W        W45211  28.054   2.354   4.493
73683W        W45212   1.772   9.835   3.807
73684W        W45213  26.672  34.863  13.042
73685W        W45214  15.971  42.961  11.089
73686W        W45215  28.671  11.366  10.983
73687W        W45216  32.105  16.553  14.270
73688W        W45217  36.872  30.938  14.388
73689W        W45218  18.702  41.038  12.648
73690W        W45219   6.285  21.007  12.867
73691W        W45220   3.741  41.380   3.071
73692W        W45221  14.773   4.317  14.323
73693W        W45222  10.217  17.278  13.824
73694W        W45223   3.174  15.776  12.287
73695W        W45224   5.876   8.193  13.465
73696W        W45225  43.746   8.278  10.710
73697W        W45226  25.233  14.860   1.247
73698W        W45227  31.415  26.699  14.073
73699W        W45228  30.987  42.792  11.076
73700W        W45229  24.384   2.451  12.681
73701W        W45230  15.881   4.896   0.976
73702W        W45231  41.728  20.063   4.017
73703W        W45232  17.158  31.676  12.658
73704W        W45233  35.110  27.154  13.549
73705W        W45234  18.184   7.384   1.431
73706W        W45235  35.349  35.987   0.394
73707W        W45236  31.295  20.572   2.858
73708W        W45237  24.697  21.795   3.131
73709W        W45238   7.881  10.433   2.385
73710W        W45239  25.573  23.935  12.319
73711W        W45240  31.924   8.490  14.328
73712W        W45241  13.790  27.397   3.396
73713W        W45242  34.651  14.781   1.484
73714W        W45243   7.699   2.255   1.700
73715W        W45244   1.674   2.501  13.901
73716W        W45245  42.281  32.911   4.465
73717W        W45246  29.110  36.904  14.863
73718W        W45247  15.332  42.952   0.969
73719W        W45248  22.962  25.382  12.713
73720W        W45249   9.143   2.567  12.368
73721W        W45250  36.474  27.449  10.447
73722W        W45251  21.039  31.729   4.231
73723W        W45252   6.979  13.053  12.057
73724W        W45253  33.987  15.777  11.702
73725W        W45254  13.640  12.328  13.975
73726W        W45255   1.056  28.233  14.479
73727W        W45256  38.821  39.366   2.334
73728W        W45257  26.606  20.480   4.491
73729W        W45258   7.915  31.856  13.818
73730W        W45259  42.420   5.985   1.860
73731W        W45260  24.999  44.834   0.330
73732W        W45261  36.082  38.473   0.320
73733W        W45262  15.694   7.256   0.046
73734W        W45263  10.507  28.490   1.830
73735W        W45264   0.993  28.068  11.121
73736W        W45265  34.568   6.906  14.247
73737W        W45266   9.373  24.521   4.482
73738W        W45267  17.773  10.567   0.219
73739W        W45268  41.635   0.496  10.607
73740W        W45269   4.960  31.699   0.805
73741W        W45270  21.758   4.950   2.328
73742W        W45271  10.250   7.437   4.874
73743W        W45272  27.200  32.181   0.857
73744W        W45273  16.044   7.238   2.744
73745W        W45274  12.563  33.015  14.418
73746W        W45275  27.155  38.841  12.042
73747W        W45276  31.440  10.800  13.935
73748W        W45277   3.030  30.155  13.969
73749W        W45278  20.811  10.127   5.065
73750W        W45279  34.614   3.028   1.922
73751W        W45280  32.928  18.099  13.519
73752W        W45281   6.873  16.630  14.557
73753W        W45282  26.822  32.446  12.455
73754W        W45283  40.820  22.499   2.091
73755W        W45284  31.772  40.251   2.754
73756W        W45285  33.494  12.903  12.841
73757W        W45286  29.610  17.678  13.466
73758W        W45287  16.198  15.177   0.757
73759W        W45288  15.574  36.547  14.393
73760W        W45289  20.275  42.792  13.037
73761W        W45290  41.869  40.922  12.967
73762W        W45291  30.076  10.083   1.280
73763W        W45292  37.427  16.008   0.271
73764W        W45293  30.050  44.460  12.260
73765W        W45294   7.655  26.632  12.632
73766W        W45295  21.710   8.670  14.294
73767W        W45296  16.365  20.868   0.817
73768W        W45297  37.646  17.033   1.257
73769W        W45298  18.341  44.807  13.259
73770W        W45299  11.796  44.401   0.100
73771W        W45300  33.470  39.405  14.482
73772W        W45301  13.756  33.713   2.312
73773W        W45302  14.312  14.640  14.077
73774W        W45303  38.895   8.920  13.803
73775W        W45304  33.344  27.242  11.202
73776W        W45305  14.535   5.729   1.349
73777W        W45306  11.631  43.483  11.672
73778W        W45307  31.396  44.909  11.278
73779W        W45308   6.409  12.794  13.482
73780W        W45309  19.862   1.132   2.074
73781W        W45310  14.326  30.814   4.540
73782W        W45311   4.786  22.419   3.188
73783W        W45312  12.058  19.257   2.304
73784W        W45313  25.660  37.858   0.446
73785W        W45314   9.189  37.822  13.799
73786W        W45315   3.232  19.712   2.749
73787W        W45316   5.392   8.817   1.370
73788W        W45317  32.121  30.796   1.147
73789W        W45318  31.841  30.343   2.792
73790W        W45319   1.907  43.404  12.087
73791W        W45320  16.374   4.742   1.928
73792W        W45321  23.688   5.142  10.737
73793W        W45322  42.498   6.282   1.033
73794W        W45323  38.017  13.960  14.040
73795W        W45324  39.600  19.505   1.737
73796W        W45325  40.370   0.023  12.470
73797W        W45326   2.267  39.095  12.166
73798W        W45327  13.137   9.454  11.999
73799W        W45328  21.220  30.988  14.051
73800W        W45329  13.352  39.801   3.487
73801W        W45330  43.506  10.324   4.951
73802W        W45331   0.509  35.442   0.722
73803W        W45332  11.604  33.959   2.822
73804W        W45333  33.540   9.180  10.265
73805W        W45334  29.790   0.434   3.665
73806W        W45335  43.328  14.719   1.925
73807W        W45336  43.779  30.858   1.644
73808W        W45337  17.850   4.734  11.169
73809W        W45338  40.422  38.740  12.566
73810W        W45339  26.733   8.159   4.107
73811W        W45340  20.267  24.021   4.092
73812W        W45341  43.529  12.408   2.794
73813W        W45342   7.226  27.882  12.651
73814W        W45343  29.724  23.129  11.615
73815W        W45344  40.313  13.364   4.357
73816W        W45345  15.604  16.024   3.139
73817W        W45346   9.541  34.414  10.664
73818W        W45347  28.536  13.213   3.272
73819W        W45348   0.617   5.657   3.767
73820W        W45349  44.649  37.931  11.205
73821W        W45350  30.072  39.552  12.544
73822W        W45351  22.633  15.350  11.728
73823W        W45352  10.935  18.793   1.899
73824W        W45353  23.500  14.957   1.202
73825W        W45354  18.122  26.245  12.590
73826W        W45355  20.677   8.261   3.113
73827W        W45356  44.396  21.613  13.016
73828W        W45357  31.420  29.776  11.508
73829W        W45358  41.518  41.500  10.536
73830W        W45359  28.930  26.164  14.302
73831W        W45360   1.413   7.375  14.846
73832W        W45361  32.426  24.544  11.942
73833W        W45362  31.183  25.100   3.614
73834W        W45363  30.606  38.814   0.321
73835W        W45364   2.234  35.025   0.432
73836W        W45365  12.206   5.140  14.461
73837W        W45366  22.046  29.034   0.762
73838W        W45367  14.165  19.961   1.811
73839W        W45368  26.813  15.658  11.482
73840W        W45369   1.856  30.901  11.938
73841W        W45370   5.734  27.177   4.189
73842W        W45371  16.669  13.858   2.213
73843W        W45372  32.700   0.562   2.565
73844W        W45373   9.723  16.252  13.330
73845W        W45374  22.230  17.172   1.146
73846W        W45375  32.562  33.986  10.361
73847W        W45376   3.904  31.362   1.636
73848W        W45377  13.100  36.847  13.291
73849W        W45378  43.362  14.669  14.026
73850W        W45379   5.806  42.349   2.999
73851W        W45380  22.630  29.433   2.381
73852W        W45381  10.369  40.814   0.970
73853W        W45382  39.440  20.716   4.482
73854W        W45383  28.013  16.340   1.419
73855W        W45384  43.377  39.942  11.707
73856W        W45385  15.745   1.406   4.853
73857W        W45386  19.509  19.073   3.339
73858W        W45387   7.665  12.176   4.620
73859W        W45388  16.226   7.372  14.270
73860W        W45389  39.917   0.852   4.291
73861W        W45390   8.050  30.695   3.321
73862W        W45391  11.363   9.493  12.533
73863W        W45392  25.934  17.302   1.529
73864W        W45393  10.822  26.623  13.983
73865W        W45394  37.026  10.063   4.986
73866W        W45395  13.777  40.433   3.938
73867W        W45396  27.448   9.256   3.124
73868W        W45397   0.576  39.817  13.693
73869W        W45398  43.537   9.402   2.738
73870W        W45399  26.743  19.745  13.558
73871W        W45400  18.484  23.705   0.577
73872W        W45401  43.780   2.348  12.422
73873W        W45402  20.072   4.883   0.785
73874W        W45403  35.500  17.134   4.427
73875W        W45404  13.666   7.928   3.489
73876W        W45405  33.924  12.269   3.336
73877W        W45406   0.693  30.697   2.335
73878W        W45407   1.196  22.983   0.319
73879W        W45408  23.149  39.023   1.759
73880W        W45409   3.452   0.570  12.723
73881W        W45410  17.545   1.919   0.916
73882W        W45411  17.081  42.407   4.615
73883W        W45412   8.493  18.067   1.143
73884W        W45413  36.067  27.702  12.604
73885W        W45414  13.278  27.691   0.179
73886W        W45415  36.526  29.875  13.768
73887W        W45416  31.020  18.134  12.106
73888W        W45417   1.974  41.857  13.273
73889W        W45418  16.789  38.033   2.349
73890W        W45419  19.686  41.101  13.025
73891W        W45420  31.042  20.174   2.638
73892W        W45421  43.451   5.285   1.880
73893W        W45422  35.392   4.021   0.711
73894W        W45423  37.324  41.483   1.809
73895W        W45424  30.931  12.009   3.762
73896W        W45425  15.685  34.387   1.760
73897W        W45426  17.727  38.312   0.409
73898W        W45427   5.475  26.533  11.851
73899W        W45428  25.693  39.411   2.781
73900W        W45429  31.898   9.831   1.752
73901W        W45430  40.967   2.513  12.466
73902W        W45431  19.073   3.069  11.214
73903W        W45432  18.433  28.534  11.893
73904W        W45433  39.751   3.721   1.623
73905W        W45434   4.655  15.615  13.322
73906W        W45435   3.743  12.574  11.587
73907W        W45436  27.693  17.219   4.131
73908W        W45437  10.749   7.639  10.676
73909W        W45438  44.571  16.070  12.009
73910W        W45439  36.565  31.081  12.593
73911W        W45440  41.552  23.203  11.065
73912W        W45441  10.473  29.510  13.365
73913W        W45442  13.931  19.401  12.464
73914W        W45443   0.310   3.357  12.902
73915W        W45444   7.239   8.198  12.939
73916W        W45445  27.448  21.782   1.786
73917W        W45446  34.117  41.619   1.729
73918W        W45447  27.747  33.064   0.703
73919W        W45448  44.510  18.613   3.172
73920W        W45449  37.913   8.895   2.731
73921W        W45450  25.129  30.451   4.299
73922W        W45451  22.549  40.597   1.749
73923W        W45452  26.465  41.358   9.892
73924W        W45453  44.969  13.470   3.869
73925W        W45454  27.449   1.283   2.950
73926W        W45455   7.876  31.592   4.280
73927W        W45456  20.117  15.209   3.338
73928W        W45457   6.335  41.103   4.163
73929W        W45458   5.992  12.683  10.323
73930W        W45459  38.591  29.218  12.849
73931W        W45460  38.895  25.041  13.019
73932W        W45461   2.844  24.444   0.907
73933W        W45462   4.261   0.404   0.260
73934W        W45463  15.396  36.971   4.231
73935W        W45464  10.972  16.197   0.036
73936W        W45465  37.464  41.286   2.349
73937W        W45466   8.365   0.404  12.048
73938W        W45467  44.840  13.068  12.642
73939W        W45468  27.275  19.587  11.109
73940W        W45469  30.153  29.371  12.001
73941W        W45470   1.900   1.983  14.861
73942W        W45471   4.370  24.729  14.802
73943W        W45472  38.816   6.895   0.859
73944W        W45473  17.814  39.512  14.518
73945W        W45474  29.915   5.946  12.071
73946W        W45475  30.382  20.246   1.801
73947W        W45476  32.381  35.717   3.308
73948W        W45477   5.216  28.919   0.734
73949W        W45478  19.179  14.819  12.979
73950W        W45479  19.193  41.930   2.244
73951W        W45480  22.098   4.354  11.611
73952W        W45481  36.155  35.560   0.325
73953W        W45482  42.871  27.083  11.917
73954W        W45483  42.449   7.671  10.785
73955W        W45484   3.744   1.197   3.877
73956W        W45485  12.545  32.342  11.835
73957W        W45486  39.536  17.814  14.036
73958W        W45487  25.965  18.538   1.878
73959W        W45488  32.906   1.893  14.445
73960W        W45489  11.146  31.423  10.617
73961W        W45490  23.826  35.952  13.910
73962W        W45491  20.745  23.231   0.990
73963W        W45492  31.023  37.963   3.135
73964W        W45493  16.002  20.198  14.911
73965W        W45494  35.617  19.772   0.796
73966W        W45495  18.594  33.560   1.905
73967W        W45496  25.440   7.745  11.600
73968W        W45497  30.238  17.149  14.313
73969W        W45498  12.371  38.347  12.683
73970W        W45499   5.218  19.794  13.720
73971W        W45500  11.147   0.748   0.430
73972W        W45501  28.188  10.166   4.069
73973W        W45502  25.056  31.570   1.301
73974W        W45503  14.207  35.143  14.932
73975W        W45504  12.169  39.762   0.282
73976W        W45505   1.698  41.985   2.203
73977W        W45506   1.051  16.850  14.735
73978W        W45507  18.239  30.919   2.488
73979W        W45508   1.347  33.474   1.164
73980W        W45509  17.526   2.112  11.661
73981W        W45510  40.313  36.081  14.486
73982W        W45511  15.826   1.434  12.107
73983W        W45512  32.064  38.523   4.105
73984W        W45513  41.460   6.227   2.913
73985W        W45514  39.749  27.659   0.018
73986W        W45515  17.946  14.760   4.845
73987W        W45516  13.844  26.180   2.703
73988W        W45517   6.369  14.038   2.831
73989W        W45518  35.072  30.032   3.656
73990W        W45519  10.829  13.542   1.415
73991W        W45520  37.508   1.834   3.157
73992W        W45521   0.393  27.060   2.373
73993W        W45522  43.449  43.001   4.034
73994W        W45523  21.590  43.535  13.956
73995W        W45524  13.271  43.456  10.612
73996W        W45525   9.808   5.790   3.709
73997W        W45526  43.058  10.826   2.630
73998W        W45527  31.011   1.831   3.021
73999W        W45528  10.439   7.717   2.913
74000W        W45529  29.489  33.511   1.867
74001W        W45530  31.699   3.488   1.637
74002W        W45531  30.488  41.560  11.323
74003W        W45532  32.889  14.883  14.369
74004W        W45533  33.390  16.773  12.463
74005W        W45534  41.443  27.055  11.977
74006W        W45535  11.771   7.784   2.681
74007W        W45536  11.371  33.937   1.414
74008W        W45537  39.560  21.502  11.035
74009W        W45538  17.864  36.711  11.084
74010W        W45539   5.270  13.242   2.435
74011W        W45540  16.309   8.761  13.293
74012W        W45541  41.810   8.703   3.697
74013W        W45542  44.763  30.427   3.161
74014W        W45543  10.358  40.603   2.781
74015W        W45544  20.032  25.316   4.576
74016W        W45545  30.442  16.033  11.062
74017W        W45546   8.514  27.223  11.615
74018W        W45547   1.348   4.397   2.600
74019W        W45548  33.327  13.983   4.565
74020W        W45549  31.397   9.906  14.049
74021W        W45550  11.338  19.351  12.938
74022W        W45551  18.049  34.320  10.643
74023W        W45552  12.634   4.695  14.732
74024W        W45553  28.172  30.678   3.996
74025W        W45554  13.623  33.052   2.984
74026W        W45555   5.926  20.089  13.041
74027W        W45556  10.891  15.674   1.360
74028W        W45557  16.503  14.207  13.316
74029W        W45558   0.940   6.926  12.094
74030W        W45559  27.888  11.102  13.294
74031W        W45560  22.290  36.937   1.773
74032W        W45561  40.715  42.381  10.647
74033W        W45562   2.089  27.406  10.555
74034W        W45563   3.338  30.944  12.554
74035W        W45564  11.995  19.721  10.324
74036W        W45565  44.394  35.333   4.870
74037W        W45566   6.702  13.130   2.819
74038W        W45567  23.849  15.880  11.741
74039W        W45568  38.462  24.263   4.682
74040W        W45569  36.921  23.226   0.408
74041W        W45570  27.608   8.800  14.042
74042W        W45571  26.400  29.502   2.278
74043W        W45572  16.284  27.128   1.874
74044W        W45573  28.382  43.975   3.073
74045W        W45574   7.226   9.863   2.611
74046W        W45575   9.186  18.044  14.424
74047W        W45576  15.588  28.347  12.382
74048W        W45577  11.427  36.364   2.394
74049W        W45578  37.966  38.253   2.485
74050W        W45579   8.368  30.470   0.088
74051W        W45580   7.766   9.091  12.898
74052W        W45581  28.723  25.355   1.273
74053W        W45582  21.525   5.879  14.992
74054W        W45583   1.879   5.946  11.883
74055W        W45584  10.362  38.743  10.668
74056W        W45585  17.235   3.022  12.485
74057W        W45586   6.885  39.302  10.695
74058W        W45587  29.110  14.922   2.451
74059W        W45588   0.911  16.661  11.420
74060W        W45589   3.416  24.630   2.632
74061W        W45590  34.814  32.506   2.747
74062W        W45591  11.052   9.244  12.076
74063W        W45592  34.854  42.469   2.329
74064W        W45593  42.341  15.411  14.234
74065W        W45594   6.674  27.983  14.233
74066W        W45595  40.543  29.119  13.538
74067W        W45596  11.299  34.796  13.791
74068W        W45597  21.670  16.025  11.088
74069W        W45598  25.274  22.866   2.829
74070W        W45599   9.346  28.222   2.783
74071W        W45600  39.842  36.409   0.017
74072W        W45601  28.242   5.210   1.744
74073W        W45602  43.223   4.756  14.260
74074W        W45603   0.982   2.658  13.925
74075W        W45604  15.174  22.640   0.816
74076W        W45605  38.579   7.839  14.794
74077W        W45606   6.355  42.483  10.671
74078W        W45607  28.842   5.286  12.988
74079W        W45608   5.443  43.850   2.159
74080W        W45609   9.246  30.960   2.228
74081W        W45610  41.325   1.222   4.221
74082W        W45611  34.535  25.328  13.799
74083W        W45612  17.577   9.139  12.612
74084W        W45613  11.213  19.045   2.926
74085W        W45614  16.629  37.333  13.632
74086W        W45615  27.756  29.506  14.866
74087W        W45616  26.540  40.060  13.083
74088W        W45617   2.956  17.292   0.785
74089W        W45618   1.929  11.760  12.918
74090W        W45619  14.981  22.957   2.853
74091W        W45620  29.081  25.066   2.723
74092W        W45621  27.939  28.669   4.611
74093W        W45622  40.424  15.178   1.787
74094W        W45623  25.561  18.713  13.568
74095W        W45624  30.434  35.641  11.514
74096W        W45625  40.586  38.752  10.874
74097W        W45626  24.153   7.625  11.397
74098W        W45627  10.413  17.712  14.033
74099W        W45628  37.312  19.088  11.041
74100W        W45629  21.175  27.784  14.961
74101W        W45630  34.156  18.113   2.878
74102W        W45631  18.421  36.121  11.383
74103W        W45632  31.665  42.067  10.690
74104W        W45633  28.179  20.460  11.521
74105W        W45634  43.576  15.308   3.109
74106W        W45635   4.167   3.758   3.698
74107W        W45636  21.029  22.201   1.732
74108W        W45637  23.870   2.844  13.890
74109W        W45638  41.299  16.194   0.280
74110W        W45639  34.128   9.422   2.764
74111W        W45640  39.805  12.737  14.748
74112W        W45641  41.889   4.375  12.122
74113W        W45642  15.862  16.855  11.195
74114W        W45643  27.871   7.371   4.341
74115W        W45644  18.120   9.414   1.232
74116W        W45645  36.869   1.853  11.531
74117W        W45646   0.156  30.523   0.284
74118W        W45647  40.296  38.597   2.338
74119W        W45648  38.974   7.232   4.600
74120W        W45649  18.659  14.285   4.614
74121W        W45650  21.119  35.110   1.372
74122W        W45651  19.403  33.089  12.966
74123W        W45652  15.275  34.403  13.465
74124W        W45653  37.098  29.930  11.546
74125W        W45654  11.503  23.904   1.904
74126W        W45655  32.383  43.411  11.145
74127W        W45656  15.348   3.685   1.788
74128W        W45657  21.720   1.766   1.270
74129W        W45658  10.899   2.824   0.725
74130W        W45659  35.627   6.803  11.532
74131W        W45660  40.735  32.564  13.367
74132W        W45661   3.272  10.604   2.850
74133W        W45662  33.380  41.392  12.423
74134W        W45663  22.503  24.963  10.168
74135W        W45664  44.424   4.516  14.764
74136W        W45665  14.077  23.676  12.107
74137W        W45666  44.019  42.496  12.237
74138W        W45667  32.348   4.178  13.040
74139W        W45668  25.697  23.476   1.317
74140W        W45669   0.614  43.490   3.814
74141W        W45670  44.050  10.756   1.509
74142W        W45671   0.266  40.939  13.854
74143W        W45672   5.277  15.033  10.648
74144W        W45673   9.938   1.673  14.380
74145W        W45674  24.094  42.550   1.897
74146W        W45675  21.276  25.687  11.134
74147W        W45676  33.998  32.915   2.983
74148W        W45677  25.734  39.191  11.668
74149W        W45678  24.299  12.102   1.505
74150W        W45679  23.236  29.282   4.599
74151W        W45680  25.181  21.996  11.692
74152W        W45681  27.022   3.414  13.378
74153W        W45682   0.487  22.934   2.290
74154W        W45683   6.739  28.300   1.003
74155W        W45684  17.251   4.071  12.541
74156W        W45685  30.492  20.683   1.495
74157W        W45686   5.182  42.519   4.253
74158W        W45687  40.735  24.058  11.988
74159W        W45688   1.263  11.810  14.033
74160W        W45689  10.673  15.488  13.474
74161W        W45690  37.865  29.465  12.602
74162W        W45691   6.888  33.682  11.135
74163W        W45692  32.500  39.896   1.188
74164W        W45693   5.187  32.444  12.169
74165W        W45694  38.801  36.473   2.783
74166W        W45695   8.307  24.575  13.298
74167W        W45696   8.526   3.328  12.101
74168W        W45697   2.172  12.281   2.762
74169W        W45698   1.367  29.069   2.398
74170W        W45699  30.492   0.748   1.166
74171W        W45700  18.741   5.287   3.785
74172W        W45701  35.618  21.871   2.719
74173W        W45702  41.582  41.726   0.905
74174W        W45703  44.300  31.948   2.455
74175W        W45704  44.212  27.120  11.656
74176W        W45705  28.642  27.079  10.995
74177W        W45706  13.358  35.975  12.964
74178W        W45707  14.595  31.258  13.882
74179W        W45708  34.024  17.814   0.328
74180W        W45709  11.595  27.580   4.262
74181W        W45710  39.419   3.175  11.489
74182W        W45711   1.599  13.987   4.009
74183W        W45712  10.877  43.824   0.366
74184W        W45713  32.936  27.695   2.267
74185W        W45714  11.381  32.553   4.326
74186W        W45715  13.360  20.554   2.080
74187W        W45716   6.250  24.995   2.929
74188W        W45717  42.462  43.986  14.818
74189W        W45718  18.376  14.679  13.676
74190W        W45719  29.111   6.457  11.604
74191W        W45720  19.780  28.007  13.593
74192W        W45721  20.039  17.796   1.769
74193W        W45722  44.472  41.352  14.360
74194W        W45723  31.047  34.447  14.967
74195W        W45724  29.417   8.726  11.210
74196W        W45725  14.230  39.678  13.824
74197W        W45726  41.153  40.778   0.988
74198W        W45727  24.802  23.635  14.480
74199W        W45728  10.109  34.124   1.770
74200W        W45729  12.662  22.062  14.456
74201W        W45730  34.977  26.496   4.141
74202W        W45731   9.318  15.656   4.323
74203W        W45732   6.824  40.685  10.726
74204W        W45733  22.249   7.937   4.724
74205W        W45734  40.899   3.183   4.604
74206W        W45735  21.693  30.369  11.356
74207W        W45736  23.516  39.916  13.877
74208W        W45737  35.546  25.132   0.390
74209W        W45738  42.861  35.386   2.641
74210W        W45739  34.996   5.163   2.295
74211W        W45740  25.659  30.107  12.757
74212W        W45741  30.700  29.691   0.777
74213W        W45742  21.729  23.511  14.335
74214W        W45743   2.373  11.101  14.376
74215W        W45744   3.046   0.903  12.887
74216W        W45745  19.022   4.722  12.551
74217W        W45746  40.020  23.707  13.077
74218W        W45747  42.166   4.421   3.989
74219W        W45748  19.161  17.848   1.200
74220W        W45749  43.300  34.327  13.046
74221W        W45750  22.287  32.102   0.855
74222W        W45751  39.871  29.203  14.869
74223W        W45752   3.717  16.939   4.210
74224W        W45753   3.294  15.012  14.544
74225W        W45754  40.243  36.937   4.084
74226W        W45755  30.456  37.410   1.800
74227W        W45756  32.504  21.270  13.494
74228W        W45757  34.071  23.048  12.018
74229W        W45758  34.832  12.208  14.368
74230W        W45759  34.557  20.493   2.334
74231W        W45760  39.968  22.518  13.557
74232W        W45761   5.978   9.154   3.446
74233W        W45762  26.971   0.329  14.043
74234W        W45763  17.349  22.269   4.599
74235W        W45764   0.233   6.753   1.745
74236W        W45765  35.888   9.124   1.929
74237W        W45766  40.428   1.308   0.928
74238W        W45767  19.481  26.484  12.479
74239W        W45768  32.922  25.278  12.862
74240W        W45769  25.684  28.190  11.581
74241W        W45770  42.019   7.432   3.257
74242W        W45771  19.870  32.139  13.720
74243W        W45772  26.521  37.644  11.204
74244W        W45773  25.923  38.336  13.813
74245W        W45774  19.089  22.447  13.928
74246W        W45775  44.848   7.324  13.133
74247W        W45776  43.680  40.486  10.039
74248W        W45777  13.288  11.200  13.019
74249W        W45778  16.525  19.730   1.329
74250W        W45779  10.309   8.341   2.344
74251W        W45780  15.659  31.130  13.416
74252W        W45781   3.012  37.357   2.324
74253W        W45782  17.599  37.896   0.678
74254W        W45783  10.357   9.674  11.380
74255W        W45784  29.159  31.549  13.395
74256W        W45785   1.291  38.447   0.111
74257W        W45786  25.387  38.747   0.073
74258W        W45787   3.275   3.539   5.037
74259W        W45788  11.102  27.196   3.097
74260W        W45789  39.275   4.312  14.545
74261W        W45790  41.828   1.719   1.829
74262W        W45791  30.993   0.196  11.100
74263W        W45792  37.002  11.948   1.324
74264W        W45793  42.604  20.888  14.220
74265W        W45794  31.454   3.942   1.683
74266W        W45795  19.074  20.551  10.646
74267W        W45796   2.837  37.218  13.864
74268W        W45797  37.836  10.644   2.215
74269W        W45798  21.084  15.663   4.659
74270W        W45799  14.019  26.458   4.573
74271W        W45800   9.735  11.588   4.019
74272W        W45801  33.805  11.172  12.417
74273W        W45802  12.358   1.870   4.119
74274W        W45803  35.718  43.787  14.867
74275W        W45804   5.534  44.663  11.553
74276W        W45805  32.991  18.598  11.124
74277W        W45806  28.236  11.700  12.179
74278W        W45807  13.769  28.006  10.987
74279W        W45808   4.664   6.263  13.039
74280W        W45809  41.963  44.695   2.870
74281W        W45810  21.069  22.485   0.856
74282W        W45811  18.836  33.466  13.834
74283W        W45812  36.363  20.498  13.019
74284W        W45813  44.912  32.067  10.798
74285W        W45814   2.249  26.614   3.917
74286W        W45815  18.840   4.289   4.540
74287W        W45816   0.460  38.944   4.813
74288W        W45817  19.099  20.846  14.546
74289W        W45818   0.470  23.917   4.376
74290W        W45819  42.893  33.564   5.023
74291W        W45820  29.534   0.993  14.851
74292W        W45821  22.274  16.312  14.337
74293W        W45822  10.658  15.099   4.654
74294W        W45823  22.513   3.944   1.850
74295W        W45824  25.570  31.710  14.009
74296W        W45825  43.862  23.706  11.993
74297W        W45826  42.779  25.048  12.820
74298W        W45827  14.018  11.444   2.920
74299W        W45828  13.999  12.350   1.256
74300W        W45829  24.156   0.559   4.551
74301W        W45830   7.724   5.853   1.219
74302W        W45831  22.646  24.761   3.177
74303W        W45832  27.198  39.998  10.724
74304W        W45833  21.201  23.812  11.578
74305W        W45834   3.822  23.112  14.904
74306W        W45835  30.908  44.173  11.034
74307W        W45836  43.802   0.774   3.302
74308W        W45837  39.330   1.059  11.240
74309W        W45838  38.763  42.782   1.226
74310W        W45839  34.407  15.145   1.199
74311W        W45840  24.149  26.973   0.550
74312W        W45841  27.127  31.492   3.949
74313W        W45842  42.307  33.441  14.910
74314W        W45843  17.182  42.282  14.510
74315W        W45844  19.125  25.577   3.588
74316W        W45845  18.312  36.539   1.880
74317W        W45846   9.237   8.132   3.763
74318W        W45847  43.831   4.055  11.103
74319W        W45848  38.031  19.075   2.451
74320W        W45849  20.452  11.880   1.192
74321W        W45850  29.399   6.378   1.962
74322W        W45851  30.089  18.241   3.851
74323W        W45852  42.938  21.632  11.484
74324W        W45853  28.934  41.902   4.594
74325W        W45854  42.594  15.547  13.430
74326W        W45855  25.590   3.023  11.690
74327W        W45856   6.985   1.336   3.167
74328W        W45857  25.110  23.530  10.670
74329W        W45858  11.359  13.791  10.659
74330W        W45859  20.498  33.692   3.273
74331W        W45860  13.365   4.612   2.764
74332W        W45861  40.997  19.661  10.971
74333W        W45862  39.996  17.681  12.809
74334W        W45863   2.332   8.833  10.433
74335W        W45864  19.158  24.728   2.593
74336W        W45865  25.174  40.438  14.991
74337W        W45866  43.822  44.454  12.339
74338W        W45867   0.509  17.794  11.114
74339W        W45868  16.260  39.943   1.807
74340W        W45869   9.902   9.445  11.492
74341W        W45870  40.097  25.696   1.512
74342W        W45871  28.163  25.181  13.906
74343W        W45872  19.393  15.284   4.076
74344W        W45873   2.362  23.967  10.747
74345W        W45874   3.874  30.174  13.789
74346W        W45875  28.408  28.641   0.441
74347W        W45876  28.633  43.249  11.337
74348W        W45877  41.302  32.428  13.888
74349W        W45878  42.234  27.692   1.061
74350W        W45879  42.933   5.244   3.204
74351W        W45880  14.354  17.110   5.033
74352W        W45881  36.601  15.648  14.327
74353W        W45882  37.154  41.410  11.121
74354W        W45883  30.311  34.568   2.358
74355W        W45884  32.926  44.618   2.100
74356W        W45885   1.768   8.282   2.320
74357W        W45886  19.555  26.587   1.050
74358W        W45887   3.358   9.329   3.797
74359W        W45888  29.624   3.687   1.226
74360W        W45889  19.215  36.429   2.409
74361W        W45890  44.714  41.633  14.809
74362W        W45891  18.281  43.900   2.349
74363W        W45892  38.156  21.108   0.164
74364W        W45893  25.502  13.113  13.427
74365W        W45894  31.432  18.619   1.342
74366W        W45895  38.945   0.461  10.786
74367W        W45896  16.225  13.381  13.563
74368W        W45897  12.893   4.015   1.398
74369W        W45898   4.793  35.551  12.380
74370W        W45899  42.551  36.007   2.212
74371W        W45900  33.046   3.411  12.875
74372W        W45901  26.968  17.588  12.971
74373W        W45902  31.839  16.317   0.525
74374W        W45903  28.991   6.203   0.715
74375W        W45904  31.803  11.757   4.043
74376W        W45905  13.803  36.491  13.631
74377W        W45906  27.785  42.903   4.769
74378W        W45907  13.700  31.314  11.081
74379W        W45908  24.216  20.449  10.780
74380W        W45909  14.016   4.349  11.745
74381W        W45910  20.174  26.548   2.660
74382W        W45911  18.613  31.150   5.384
74383W        W45912   2.474  42.918  14.323
74384W        W45913  32.701   6.260  11.620
74385W        W45914   8.435  40.301  14.479
74386W        W45915   7.271  29.375  12.616
74387W        W45916  25.163   6.062  14.361
74388W        W45917  30.386  40.648  11.153
74389W        W45918  37.347  35.401  11.900
74390W        W45919  35.101  40.842   3.782
74391W        W45920  13.301  36.101   4.125
74392W        W45921   1.557   0.843  13.990
74393W        W45922  38.392  42.737  14.481
74394W        W45923  35.286   0.253   1.650
74395W        W45924  18.252   6.234  14.221
74396W        W45925  35.864  41.543  10.739
74397W        W45926   0.891  41.913   3.265
74398W        W45927   4.251  22.802  11.652
74399W        W45928  44.296   5.328   0.448
74400W        W45929  28.411  40.822   3.792
74401W        W45930  35.176  43.964   4.294
74402W        W45931  40.877   9.989  14.217
74403W        W45932   1.999  18.603  13.863
74404W        W45933   3.287  24.240  12.539
74405W        W45934  24.175  30.077   2.723
74406W        W45935  11.130  10.035  13.332
74407W        W45936  12.443  15.176   0.744
74408W        W45937  43.382  44.743   3.656
74409W        W45938   4.727  12.136   3.879
74410W        W45939  42.617  18.823   0.276
74411W        W45940  11.315  15.133  12.606
74412W        W45941  29.292  44.238   1.291
74413W        W45942  39.431   7.823  10.762
74414W        W45943  34.969  16.117   1.359
74415W        W45944  33.293  14.357   3.668
74416W        W45945  27.169  12.695  12.364
74417W        W45946  11.600  42.070   1.791
74418W        W45947  13.355  27.509   4.072
74419W        W45948   3.323   4.366   1.167
74420W        W45949  32.836  32.796  13.437
74421W        W45950  36.519   8.916   0.292
74422W        W45951   4.307   8.291   0.005
74423W        W45952  20.038  44.890   0.286
74424W        W45953  20.487  32.050   2.724
74425W        W45954  10.692  27.154  13.845
74426W        W45955  40.420   2.222   3.913
74427W        W45956   3.593  35.476   1.277
74428W        W45957  34.021  42.535   4.130
74429W        W45958  15.123  15.555   0.352
74430W        W45959   9.798  13.433   2.808
74431W        W45960  33.802  26.882  12.632
74432W        W45961  42.949   9.407  13.483
74433W        W45962  25.740  38.102  14.545
74434W        W45963  22.583  11.550  10.623
74435W        W45964   3.755  42.819   1.394
74436W        W45965  22.215  30.891   4.065
74437W        W45966  13.597   4.658   0.658
74438W        W45967  14.767  14.712   2.850
74439W        W45968  32.581   3.400  12.135
74440W        W45969  15.249  13.333  14.848
74441W        W45970  34.534  15.922  10.050
74442W        W45971  16.282   3.919   0.300
74443W        W45972  34.349  39.817  12.055
74444W        W45973  12.819   0.385   2.938
74445W        W45974  44.914   6.069  14.282
74446W        W45975   5.011  16.987  10.255
74447W        W45976  34.639  24.653   4.165
74448W        W45977  37.554  36.769   2.368
74449W        W45978  11.124  27.847  13.539
74450W        W45979  19.207  44.502   4.215
74451W        W45980  22.801  34.549   0.021
74452W        W45981  23.033  25.695  14.473
74453W        W45982  42.038  11.623   0.039
74454W        W45983  30.445  27.006  14.804
74455W        W45984  21.596  43.857  12.807
74456W        W45985  44.285  23.955   2.672
74457W        W45986   6.293  33.024   2.784
74458W        W45987   7.368  16.090   0.728
74459W        W45988  41.931  26.583  12.484
74460W        W45989  40.036   1.640  14.310
74461W        W45990  13.222  23.419   1.876
74462W        W45991  29.045  17.108   1.588
74463W        W45992   1.433  36.388  13.497
74464W        W45993   5.411  44.808   0.398
74465W        W45994  28.242  25.738   2.367
74466W        W45995   8.837   0.789  14.417
74467W        W45996   3.414  20.230  14.950
74468W        W45997  14.108  18.183   1.168
74469W        W45998  27.129  28.985  14.297
74470W        W45999   9.651   0.279   2.839
74471W        W46000  40.123   3.095  11.080
74472W        W46001   0.692   0.873  11.991
74473W        W46002  29.695  10.646   1.915
74474W        W46003  16.664  38.414  13.056
74475W        W46004  26.097  44.436   3.922
74476W        W46005  20.597  24.091  13.900
74477W        W46006  25.287  26.392   2.269
74478W        W46007  20.503   3.905  11.631
74479W        W46008   2.368  12.133   3.229
74480W        W46009   1.364  29.576   1.139
74481W        W46010  24.973  32.380   2.586
74482W        W46011  40.513   1.364   1.445
74483W        W46012  35.971  35.524   1.341
74484W        W46013  34.519  18.759  11.211
74485W        W46014  38.883  40.863  11.206
74486W        W46015  28.874  34.135   3.108
74487W        W46016  27.162  29.842   3.271
74488W        W46017  37.222   9.420   4.974
74489W        W46018   0.432  10.409   1.733
74490W        W46019  24.095  15.622   0.726
74491W        W46020  31.435   7.276   1.592
74492W        W46021   1.302  44.277   1.297
74493W        W46022  39.154  22.048  14.038
74494W        W46023   2.193  30.544   1.912
74495W        W46024   8.487  38.265   4.162
74496W        W46025  17.557  21.156  11.892
74497W        W46026  15.883  31.346  13.846
74498W        W46027  25.916  23.495   1.793
74499W        W46028  15.465  42.869   5.012
74500W        W46029  35.518  41.198   2.427
74501W        W46030  44.281  15.764   3.255
74502W        W46031  40.632  22.511  12.877
74503W        W46032  36.906  38.166   2.276
74504W        W46033   0.564   5.252  11.183
74505W        W46034  32.716  14.816   9.496
74506W        W46035  20.560  38.131  13.823
74507W        W46036  14.600  41.472   4.561
74508W        W46037   3.070  44.384  12.112
74509W        W46038  14.064  22.761   0.414
74510W        W46039   7.074  15.073   0.869
74511W        W46040  28.610  39.580   3.259
74512W        W46041  28.065  23.717   0.418
74513W        W46042  29.113  16.671   2.840
74514W        W46043   7.222   4.215   1.123
74515W        W46044   2.685  19.741  14.974
74516W        W46045  12.176   9.909  10.570
74517W        W46046  42.064  19.274   0.445
74518W        W46047   0.756   2.835   3.998
74519W        W46048  14.288  40.270   0.850
74520W        W46049  21.158   5.426   3.565
74521W        W46050  25.167  27.993   3.386
74522W        W46051   1.115  16.802   4.610
74523W        W46052   1.818   0.002  11.065
74524W        W46053  40.402  26.763   4.836
74525W        W46054  19.597  44.303   3.911
74526W        W46055   0.390  10.188   3.163
74527W        W46056  15.608  15.065  13.240
74528W        W46057  41.327  21.641  10.698
74529W        W46058  22.716  20.864  12.957
74530W        W46059  14.146  41.496   4.792
74531W        W46060  32.254  13.758  11.526
74532W        W46061  12.138   3.760  13.094
74533W        W46062  20.798  39.796  11.173
74534W        W46063   0.402  34.198   0.134
74535W        W46064  22.654  44.885  13.089
74536W        W46065  30.644  14.912  13.787
74537W        W46066  37.964  23.207   0.727
74538W        W46067   9.916   5.257  10.604
74539W        W46068  41.470  43.349   2.666
74540W        W46069  19.969  22.287  12.867
74541W        W46070  31.859  15.400   0.277
74542W        W46071  11.378  39.475   1.192
74543W        W46072  42.981  33.871  11.924
74544W        W46073  12.499  12.677   3.083
74545W        W46074  32.109  18.574   3.239
74546W        W46075  35.826  37.846   3.321
74547W        W46076  11.682  18.169   1.988
74548W        W46077  17.045  17.372  13.920
74549W        W46078  24.136   6.270  13.923
74550W        W46079   4.845  19.378   5.038
74551W        W46080  16.244   3.360  13.963
74552W        W46081  44.507  41.878   3.584
74553W        W46082  14.855  21.245   2.843
74554W        W46083   5.397  27.093  14.422
74555W        W46084  13.680  27.455  10.984
74556W        W46085  43.821   8.849  13.711
74557W        W46086  23.741  16.893  11.695
74558W        W46087  15.740  40.717  12.969
74559W        W46088   6.729  17.617   1.827
74560W        W46089  32.136  15.330  13.967
74561W        W46090  20.985   1.247   4.726
74562W        W46091  40.835  31.027  14.985
74563W        W46092  29.033   3.035  14.280
74564W        W46093  10.976  33.572  14.875
74565W        W46094  25.670  11.233   0.852
74566W        W46095   2.442  17.086  13.885
74567W        W46096   1.300   6.437  12.856
74568W        W46097  42.742   8.659  12.449
74569W        W46098  18.080   5.802  12.441
74570W        W46099  39.807  29.678   4.737
74571W        W46100  31.445  44.451  13.999
74572W        W46101  19.189  24.950  14.568
74573W        W46102   0.488  22.268   0.421
74574W        W46103  38.870  32.131   3.314
74575W        W46104  19.321  14.547   1.853
74576W        W46105  31.058   4.481  13.541
74577W        W46106   7.184   1.630   0.726
74578W        W46107  16.722   6.957  14.012
74579W        W46108  40.533  13.270  11.015
74580W        W46109  37.406  37.371   1.098
74581W        W46110  31.561  34.651   5.138
74582W        W46111  10.251  35.439  11.646
74583W        W46112  26.167  16.009  14.154
74584W        W46113  39.296  26.977   2.678
74585W        W46114  27.371  39.872  14.936
74586W        W46115  21.944   7.670   4.375
74587W        W46116   8.871  33.071   0.650
74588W        W46117   6.723  22.077   0.018
74589W        W46118   2.740  25.415   4.600
74590W        W46119  36.449  26.926   0.892
74591W        W46120   8.345  10.736  11.496
74592W        W46121  41.962  15.182   4.181
74593W        W46122   6.322  42.640  11.627
74594W        W46123   2.840  27.811  11.867
74595W        W46124  31.801  29.091   1.851
74596W        W46125  32.056  20.127   1.771
74597W        W46126   4.866  44.329  11.183
74598W        W46127   7.633  26.102   2.872
74599W        W46128  13.568  35.010   2.702
74600W        W46129  25.269  29.363  10.797
74601W        W46130  21.050  41.839  14.912
74602W        W46131  22.658  29.898   2.649
74603W        W46132  19.537  20.517   3.812
74604W        W46133  25.459   5.347  10.567
74605W        W46134  26.586  25.221  11.969
74606W        W46135  17.968  44.969   4.433
74607W        W46136   3.496  27.972   4.838
74608W        W46137  33.910  11.160   1.842
74609W        W46138  34.586  26.667  10.521
74610W        W46139  22.290  44.768  12.006
74611W        W46140  30.955  41.983  12.218
74612W        W46141  23.765   5.313  14.469
74613W        W46142  27.236  38.988   2.178
74614W        W46143  33.583  34.047  11.848
74615W        W46144  26.493  36.440   0.805
74616W        W46145  30.656   8.591   4.168
74617W        W46146   6.433  11.200   3.164
74618W        W46147  35.507  26.760   4.965
74619W        W46148   2.334  41.695  10.454
74620W        W46149  29.925  41.006  12.070
74621W        W46150  39.619  41.954  14.913
74622W        W46151  32.628  37.760  14.691
74623W        W46152  11.257  13.142  13.413
74624W        W46153  40.989  41.354   4.716
74625W        W46154  25.270   3.921  12.200
74626W        W46155  16.138   8.603   2.805
74627W        W46156  23.255  26.148  12.582
74628W        W46157  33.070  20.403   2.712
74629W        W46158  40.832  26.148   4.335
74630W        W46159  14.859  35.848  12.550
74631W        W46160   3.320  25.255  13.490
74632W        W46161   1.169  24.232  13.320
74633W        W46162  11.266  44.925   2.821
74634W        W46163  34.389  32.459   0.408
74635W        W46164   9.899  42.062   1.396
74636W        W46165  11.512  31.536  11.962
74637W        W46166  31.869  10.761   0.527
74638W        W46167  22.586  37.329   4.556
74639W        W46168  39.514   7.669   3.205
74640W        W46169  26.544  20.911   5.163
74641W        W46170  12.361  39.559  12.074
74642W        W46171  23.891   0.795   0.329
74643W        W46172  34.406  44.214   0.414
74644W        W46173   7.851  27.133   0.800
74645W        W46174  31.869  33.879  13.303
74646W        W46175  34.829   1.376   1.090
74647W        W46176  32.421  37.573   3.773
74648W        W46177  11.466   3.748  11.522
74649W        W46178  37.576  18.806  14.898
74650W        W46179  14.061  36.578   3.597
74651W        W46180   8.370   8.735   1.655
74652W        W46181  31.977  25.735  13.070
74653W        W46182  44.155  21.472  12.099
74654W        W46183  40.488  24.704  14.062
74655W        W46184  33.782  37.171  14.472
74656W        W46185  12.585  12.231   1.537
74657W        W46186  19.142   5.791   4.607
74658W        W46187  10.760  36.745   2.399
74659W        W46188   6.318  16.813   2.218
74660W        W46189  31.135   0.773   3.326
74661W        W46190   6.065  14.099   3.703
74662W        W46191  38.375  31.652  12.630
74663W        W46192  19.356  39.885   3.565
74664W        W46193  20.890  32.302  14.718
74665W        W46194  26.684  22.493   3.365
74666W        W46195  28.672  39.676   1.661
74667W        W46196   1.322  26.052   2.840
74668W        W46197  33.525  13.811  10.581
74669W        W46198   6.348  33.371  13.417
74670W        W46199  43.397  39.299  13.895
74671W        W46200  18.732  42.203   2.352
74672W        W46201  21.777   3.659  14.248
74673W        W46202   3.259  29.191  12.993
74674W        W46203  20.657  26.424   0.817
74675W        W46204  34.075  35.812  11.832
74676W        W46205  42.347   8.894   1.948
74677W        W46206  12.161  27.577  10.713
74678W        W46207   9.681  20.274   1.617
74679W        W46208  35.414   6.014   2.551
74680W        W46209  16.723  11.560  12.015
74681W        W46210   4.709  31.081  11.048
74682W        W46211  26.646  12.990   3.230
74683W        W46212  26.191  42.748  12.462
74684W        W46213  25.298  29.555  14.991
74685W        W46214  37.306  35.577  12.741
74686W        W46215  41.445  20.557   0.857
74687W        W46216   7.293  43.753  12.601
74688W        W46217  25.707  28.630   3.993
74689W        W46218  25.080  13.287   0.943
74690W        W46219  44.228   5.374  14.035
74691W        W46220  40.749   4.179  11.175
74692W        W46221  27.511  32.502   4.529
74693W        W46222  35.066  39.231  10.128
74694W        W46223   0.269  18.330   4.124
74695W        W46224  37.155  11.973   4.486
74696W        W46225  41.008  43.661  13.489
74697W        W46226  19.313  44.990  10.604
74698W        W46227  40.813  11.659   1.216
74699W        W46228   2.165   4.351  14.749
74700W        W46229   7.592  35.326   4.264
74701W        W46230  11.802  21.361   0.544
74702W        W46231   5.054  23.000  11.032
74703W        W46232  11.309   9.708   4.566
74704W        W46233   2.164   3.387   4.685
74705W        W46234  38.827  16.613   3.723
74706W        W46235  41.528  14.668   1.546
74707W        W46236  43.836   0.096   4.947
74708W        W46237  17.794  35.513   2.629
74709W        W46238  15.812  35.517   3.532
74710W        W46239  13.758  25.010   1.838
74711W        W46240  18.410  25.875   4.211
74712W        W46241  32.053  32.074  12.078
74713W        W46242  17.982   9.103   0.782
74714W        W46243   9.797   2.698   3.635
74715W        W46244   1.019   5.234   4.507
74716W        W46245  23.312  12.329  11.458
74717W        W46246   6.824  22.640  13.298
74718W        W46247  24.718  22.090  11.960
74719W        W46248  20.282  42.909   4.111
74720W        W46249   2.417  41.072  12.843
74721W        W46250  17.754  30.067   4.886
74722W        W46251  19.984  12.328   0.484
74723W        W46252  30.433  38.351   1.875
74724W        W46253  25.674  20.762   4.368
74725W        W46254  37.066  34.086   0.037
74726W        W46255  21.261  44.885  13.764
74727W        W46256   5.270  36.087   3.211
74728W        W46257  44.860  10.831   4.630
74729W        W46258  13.329  14.048   1.447
74730W        W46259  27.438  43.980   0.510
74731W        W46260  23.314  21.108   0.301
74732W        W46261  12.239  37.150   2.820
74733W        W46262  32.416  36.881   4.256
74734W        W46263  31.180   6.874   3.212
74735W        W46264  16.074  23.687   2.232
74736W        W46265   2.089  22.657   2.712
74737W        W46266   4.435  29.015   0.492
74738W        W46267  39.661  24.773  11.252
74739W        W46268   6.344  32.107   2.257
74740W        W46269   2.354  24.083   4.712
74741W        W46270   7.271   6.890   1.851
74742W        W46271  30.113  14.711   2.759
74743W        W46272   8.427   4.297   1.019
74744W        W46273  20.253   7.179   4.101
74745W        W46274  29.005  16.633  12.695
74746W        W46275  24.063  39.627  12.076
74747W        W46276  41.282  43.319  11.564
74748W        W46277  23.737  31.059   1.345
74749W        W46278  32.482   2.819  14.991
74750W        W46279  23.943  24.064  12.015
74751W        W46280  10.386  37.577   0.346
74752W        W46281  10.798  14.108   1.266
74753W        W46282  12.463  44.025  13.450
74754W        W46283  37.764   3.792   3.298
74755W        W46284  23.002  29.731  14.404
74756W        W46285  17.727   9.862  11.970
74757W        W46286   2.240  16.559  12.002
74758W        W46287  40.385  23.513   1.026
74759W        W46288   1.003  32.360  12.997
74760W        W46289  43.396  44.229  12.514
74761W        W46290  40.279  27.940  11.929
74762W        W46291  34.995  37.537  14.459
74763W        W46292   2.746   3.491   3.238
74764W        W46293  20.773  30.499  13.435
74765W        W46294  16.263  25.104   0.017
74766W        W46295   2.355  38.056  12.160
74767W        W46296   3.525  21.497   3.821
74768W        W46297   9.942  16.807  11.601
74769W        W46298   1.401   6.245  11.441
74770W        W46299  26.553  35.801  12.896
74771W        W46300  36.568  24.567  13.633
74772W        W46301  42.788  34.249  13.083
74773W        W46302  36.393  25.289   3.191
74774W        W46303   4.367  20.687  10.682
74775W        W46304  39.449  11.115   1.714
74776W        W46305  39.850  29.487   4.255
74777W        W46306  20.543   5.001   3.089
74778W        W46307  35.997  43.384  11.574
74779W        W46308  34.637  34.241  12.842
74780W        W46309  17.973  35.033   2.575
74781W        W46310  17.331  39.373  11.913
74782W        W46311   8.116  18.619   4.279
74783W        W46312  11.150   5.847   2.830
74784W        W46313  22.554  19.088   1.005
74785W        W46314  35.185  41.548   3.221
74786W        W46315  17.347  32.595  14.326
74787W        W46316  35.614  19.112  11.480
74788W        W46317  24.286   6.783  13.027
74789W        W46318  17.428  18.292  11.621
74790W        W46319  23.667  28.144   0.731
74791W        W46320  14.017  28.771  14.141
74792W        W46321  16.026   4.182  13.409
74793W        W46322   1.214  42.314  11.774
74794W        W46323  37.445   9.873  10.191
74795W        W46324  30.581  12.609   3.875
74796W        W46325  27.351  10.650   0.579
74797W        W46326  10.253  29.517   0.566
74798W        W46327  12.388  41.551  11.110
74799W        W46328  34.376  20.540  12.568
74800W        W46329   8.089  16.198   1.219
74801W        W46330  32.546  12.481  11.750
74802W        W46331  37.678   0.779  10.726
74803W        W46332   3.797  35.889   2.263
74804W        W46333  36.040  21.950   3.694
74805W        W46334  44.224  31.845  11.200
74806W        W46335  40.508  40.356  12.065
74807W        W46336  13.401  34.463   4.841
74808W        W46337  26.502   7.814  11.137
74809W        W46338  43.268  43.401   3.235
74810W        W46339  37.128  32.469   2.226
74811W        W46340  18.587  28.943   4.048
74812W        W46341   2.442  13.283  12.583
74813W        W46342  27.706  40.041  10.726
74814W        W46343  44.334  14.262  11.922
74815W        W46344  30.908   9.949  13.859
74816W        W46345   0.835  32.069  12.460
74817W        W46346  41.002   1.724  12.930
74818W        W46347   0.966  15.756   2.908
74819W        W46348  23.564  43.702  10.538
74820W        W46349  16.625  40.262   1.967
74821W        W46350  35.866   0.775  10.703
74822W        W46351   0.064  13.638  13.929
74823W        W46352  42.533  15.638  12.107
74824W        W46353   9.314  31.559   4.894
74825W        W46354  42.001  44.574  14.886
74826W        W46355  34.084  36.687  13.749
74827W        W46356  17.555   2.971  11.092
74828W        W46357   2.867  23.002   2.256
74829W        W46358  33.603   4.918  14.891
74830W        W46359  25.832  43.053  13.453
74831W        W46360  26.745  28.018  11.307
74832W        W46361   0.657  36.383  13.825
74833W        W46362  23.983  29.573  13.994
74834W        W46363   0.808   1.034   3.558
74835W        W46364  19.545  32.440   3.680
74836W        W46365   0.400  31.382  10.567
74837W        W46366   9.680  10.143   0.314
74838W        W46367  33.198  29.420   0.830
74839W        W46368  11.840  29.159   2.375
74840W        W46369  31.253  40.878  11.134
74841W        W46370  37.590   2.431  13.023
74842W        W46371   9.722  23.023  14.873
74843W        W46372  32.953   2.261   3.151
74844W        W46373  42.042  36.901   1.720
74845W        W46374  32.684  23.191   3.990
74846W        W46375   9.479  16.735  13.364
74847W        W46376  31.042  37.987  10.787
74848W        W46377  26.578  19.098   2.651
74849W        W46378  14.945  35.108  12.051
74850W        W46379   5.264   4.459   2.821
74851W        W46380  12.405   8.907  12.806
74852W        W46381  35.411  21.591   0.274
74853W        W46382  27.233   4.592  14.407
74854W        W46383  14.827  43.818   4.116
74855W        W46384   0.872  24.232   2.862
74856W        W46385  19.706  22.049  11.195
74857W        W46386  38.492  16.448   1.558
74858W        W46387  39.241  34.635   2.724
74859W        W46388  38.535  40.499   2.402
74860W        W46389  11.327   1.232   0.726
74861W        W46390   3.412  25.684   2.811
74862W        W46391  21.377  31.149  11.523
74863W        W46392   8.821  33.358   2.722
74864W        W46393  11.390   7.725  13.136
74865W        W46394  33.619  29.708   1.007
74866W        W46395  44.089  25.493   0.906
74867W        W46396  44.699  24.772  11.589
74868W        W46397  36.426  14.201   4.313
74869W        W46398  41.025   1.801  11.671
74870W        W46399   6.307  22.741   4.161
74871W        W46400  14.883  34.498  14.380
74872W        W46401  25.907  27.454  12.842
74873W        W46402  16.541  20.533  12.802
74874W        W46403  13.673  41.781  11.626
74875W        W46404  38.272  11.667  13.262
74876W        W46405  27.847  22.031  10.960
74877W        W46406  42.292  13.643   1.765
74878W        W46407  12.670   4.773  10.960
74879W        W46408  39.005  36.532   1.134
74880W        W46409  42.353  31.381   2.761
74881W        W46410   0.865  19.716  13.647
74882W        W46411   5.686  42.017  12.516
74883W        W46412   4.521   5.804  14.854
74884W        W46413   7.160  33.954  10.760
74885W        W46414   1.502  19.116  14.494
74886W        W46415  24.755  43.443   3.408
74887W        W46416   3.853  25.973   2.731
74888W        W46417  42.390  10.191  13.782
74889W        W46418   2.647  41.066  11.039
74890W        W46419  31.132  30.950  11.219
74891W        W46420   4.778  44.946  14.009
74892W        W46421   0.774  17.799   2.783
74893W        W46422  21.677   9.714   3.720
74894W        W46423  40.574  39.486   3.871
74895W        W46424  15.030  38.839  13.441
74896W        W46425  32.633   7.313  13.478
74897W        W46426  22.231  39.151  11.108
74898W        W46427  16.031  16.621  11.605
74899W        W46428  22.721  40.327   2.175
74900W        W46429  28.665  12.592   0.478
74901W        W46430  40.086  22.137  12.453
74902W        W46431  24.148   3.724   0.038
74903W        W46432  34.207  44.065   2.317
74904W        W46433   3.693  21.969   3.716
74905W        W46434  20.136   3.425   0.867
74906W        W46435  25.515  12.862  11.567
74907W        W46436   8.703  20.637  13.022
74908W        W46437   8.832  23.773  12.934
74909W        W46438  40.341  25.160   3.719
74910W        W46439  13.212  19.129  14.829
74911W        W46440  22.378   3.829  14.399
74912W        W46441   6.807  30.934   1.935
74913W        W46442  42.508  33.900   0.833
74914W        W46443  15.267  14.982   4.478
74915W        W46444  43.021  21.030   4.061
74916W        W46445  32.659  17.320   2.993
74917W        W46446  15.459   9.763  12.177
74918W        W46447  17.294  44.850   0.810
74919W        W46448  42.462  14.488   0.011
74920W        W46449  30.037  25.986  12.049
74921W        W46450  20.473  35.080   3.937
74922W        W46451   2.130  19.184  11.475
74923W        W46452  26.524  35.326  11.511
74924W        W46453  13.693   1.568  13.012
74925W        W46454  23.170  15.848   2.797
74926W        W46455  38.654  13.172  12.549
74927W        W46456  43.198  24.449   1.693
74928W        W46457  35.667   3.791  14.793
74929W        W46458   5.326  28.102  13.669
74930W        W46459  29.673  32.440   3.865
74931W        W46460  17.261  11.590   3.898
74932W        W46461  32.277  25.166   0.092
74933W        W46462  29.724  23.962  12.931
74934W        W46463  12.642  16.086  13.141
74935W        W46464  39.840  15.836   1.534
74936W        W46465  15.360  30.341  13.486
74937W        W46466   3.970  36.795   3.169
74938W        W46467  34.863   8.694  14.772
74939W        W46468  20.200  35.090  13.968
74940W        W46469   7.829  31.601   3.251
74941W        W46470   3.458   6.804   2.442
74942W        W46471  19.881   7.308   2.629
74943W        W46472   3.167  13.863  12.223
74944W        W46473  17.915  20.023  12.825
74945W        W46474   4.225  28.699   4.058
74946W        W46475  40.276   5.240   2.877
74947W        W46476  19.342   6.877   3.894
74948W        W46477  29.957   3.304  14.175
74949W        W46478  37.658   6.961  14.794
74950W        W46479  14.290  14.513  12.160
74951W        W46480  15.373  24.175  14.740
74952W        W46481   8.929  21.518  13.005
74953W        W46482   1.419   0.208   3.146
74954W        W46483  23.854  14.782  13.009
74955W        W46484  18.908  15.095   2.363
74956W        W46485  25.012  40.983   4.127
74957W        W46486   6.804  28.172   4.142
74958W        W46487   4.781  27.006   4.532
74959W        W46488  22.082  26.254  11.762
74960W        W46489  16.103   5.365   2.537
74961W        W46490   1.176  26.980   2.832
74962W        W46491   7.797  14.652  12.936
74963W        W46492  16.230   8.900   1.926
74964W        W46493   7.375   1.978  14.079
74965W        W46494   5.889   6.187   1.707
74966W        W46495  14.959  41.858   2.949
74967W        W46496   4.730  41.021   0.292
74968W        W46497  12.070  10.789  10.529
74969W        W46498  40.291  37.013  14.004
74970W        W46499  37.971  24.704  14.441
74971W        W46500  42.561  12.739   1.449
74972W        W46501  33.148   4.999   0.798
74973W        W46502  30.704  22.173   4.948
74974W        W46503  39.120  23.033  14.094
74975W        W46504   2.327  17.202  12.584
74976W        W46505   7.679  28.683   3.151
74977W        W46506  24.756  42.314   2.715
74978W        W46507  15.695   1.777  10.706
74979W        W46508  29.486  12.356  12.106
74980W        W46509  14.662  41.386  11.575
74981W        W46510  18.710  11.684   1.832
74982W        W46511  25.708  22.705   3.102
74983W        W46512   5.895  13.172   1.341
74984W        W46513   9.190  21.350  11.232
74985W        W46514  31.397  21.098  12.963
74986W        W46515  10.512  14.300  14.971
74987W        W46516  26.399   2.090   2.892
74988W        W46517  15.231  13.896   0.091
74989W        W46518  35.495  30.314   0.840
74990W        W46519  19.304  32.918   1.476
74991W        W46520  20.765  34.331   0.652
74992W        W46521   2.491  32.956   3.187
74993W        W46522  24.088  26.637  13.400
74994W        W46523  41.926  32.490  13.258
74995W        W46524  13.724  27.910   3.372
74996W        W46525   6.768  20.578   1.014
74997W        W46526  26.051  38.237   1.832
74998W        W46527  40.868  31.181  13.007
74999W        W46528  24.246  35.061   2.283
75000W        W46529  14.217  22.647  10.342
75001W        W46530  42.247  40.037   4.088
75002W        W46531   9.587  40.448  10.617
75003W        W46532  23.449  20.692  11.450
75004W        W46533  28.921   6.889   3.304
75005W        W46534  20.095   1.712   0.518
75006W        W46535  25.088   6.512  14.120
75007W        W46536  18.393  10.962  12.022
75008W        W46537   3.923  42.701   5.031
75009W        W46538  43.005   1.391  12.954
75010W        W46539  16.190  27.440  12.103
75011W        W46540  26.669  28.485   3.106
75012W        W46541  43.728  41.319   1.287
75013W        W46542   7.487  18.032  11.576
75014W        W46543  39.823  27.598   2.414
75015W        W46544   1.302   9.908   1.785
75016W        W46545   8.431   4.790   0.811
75017W        W46546  35.865   5.268  14.480
75018W        W46547  11.033  18.521   2.762
75019W        W46548  20.305  30.165   4.014
75020W        W46549  17.078   5.956  11.197
75021W        W46550  20.098  35.513  11.287
75022W        W46551  14.739  42.842   1.286
75023W        W46552   7.226  14.368   0.397
75024W        W46553   9.988  19.889  13.782
75025W        W46554  21.161  32.763  10.526
75026W        W46555   4.333  25.637   2.216
75027W        W46556  18.681  28.540  14.177
75028W        W46557  11.546   2.143   3.073
75029W        W46558  28.914   9.349   3.313
75030W        W46559  43.773  27.016  12.856
75031W        W46560  37.817  13.129  13.321
75032W        W46561  43.755  15.885   0.775
75033W        W46562  38.603  41.061  10.720
75034W        W46563  16.780  26.436   3.604
75035W        W46564  27.170  21.192  11.782
75036W        W46565   4.591  40.050  14.634
75037W        W46566  11.705  38.159  13.819
75038W        W46567  36.053  21.980   1.263
75039W        W46568   9.313  25.657  14.931
75040W        W46569  41.454  37.571   5.074
75041W        W46570  19.738   8.321  13.994
75042W        W46571   0.989  11.800   3.355
75043W        W46572  32.765  23.018  12.356
75044W        W46573  21.961   4.838  13.998
75045W        W46574  15.477  38.806  12.529
75046W        W46575  22.734   6.433  11.641
75047W        W46576  12.087  23.656   3.863
75048W        W46577  16.204  25.883   2.007
75049W        W46578  27.726   1.686   1.565
75050W        W46579  19.494  24.753   1.681
75051W        W46580  13.776  17.305   1.304
75052W        W46581   7.087  28.562   1.276
75053W        W46582  29.995  42.423  10.860
75054W        W46583  24.364  29.236  14.118
75055W        W46584   9.797  17.545  12.149
75056W        W46585   9.400   4.832  12.117
75057W        W46586   7.954  27.638   2.906
75058W        W46587  25.473  24.207  14.294
75059W        W46588  14.541  44.362   4.722
75060W        W46589  10.796  30.692   0.488
75061W        W46590  41.549  29.528  11.101
75062W        W46591  29.894  13.795   3.789
75063W        W46592  36.593  16.204  13.456
75064W        W46593  30.988   3.290  12.989
75065W        W46594  40.478  27.587   1.339
75066W        W46595   7.452  25.707   1.003
75067W        W46596  19.141  43.812  14.453
75068W        W46597  19.982   7.529   5.038
75069W        W46598  34.104  29.386   0.738
75070W        W46599  29.620  32.579  14.360
75071W        W46600  25.932  16.770  10.685
75072W        W46601  26.441  43.576  14.897
75073W        W46602  16.329  21.260  12.396
75074W        W46603  19.980  24.608   3.317
75075W        W46604   0.392  29.846  10.703
75076W        W46605  12.809  14.528   3.270
75077W        W46606  38.981  11.915   3.886
75078W        W46607  34.333  15.792   3.655
75079W        W46608  29.202   6.483   3.168
75080W        W46609  30.367  33.826  13.362
75081W        W46610  26.637  23.091   1.640
75082W        W46611  11.286   2.953   3.242
75083W        W46612  43.278  38.566   4.633
75084W        W46613  42.859  12.361  13.492
75085W        W46614   3.531  14.177   2.683
75086W        W46615  21.178   5.671  11.680
75087W        W46616  37.659  14.096   0.988
75088W        W46617  34.426   2.520  10.827
75089W        W46618  25.721  15.638  12.502
75090W        W46619  23.525  33.714   2.003
75091W        W46620  10.966  33.629  11.126
75092W        W46621  34.049  12.354   2.797
75093W        W46622  26.515  17.679   4.170
75094W        W46623  24.318   8.400  10.787
75095W        W46624   7.871   2.823   3.787
75096W        W46625  11.971  32.519  11.571
75097W        W46626   5.787  17.123   0.200
75098W        W46627  22.002  14.594  13.992
75099W        W46628  14.628   9.706   2.670
75100W        W46629   6.166  23.633   1.871
75101W        W46630   7.870  32.589  12.061
75102W        W46631  30.917  36.184   4.696
75103W        W46632  18.564  31.576  13.225
75104W        W46633  40.104  44.139   3.283
75105W        W46634  20.180  12.540   4.593
75106W        W46635  36.848   7.676   4.638
75107W        W46636  44.202  31.933  13.064
75108W        W46637   9.275  19.389   0.246
75109W        W46638  41.414  36.280   5.111
75110W        W46639  18.072  29.463   3.629
75111W        W46640  20.543  18.517  11.403
75112W        W46641  33.536  18.323  11.685
75113W        W46642  27.366  21.388   2.728
75114W        W46643  40.210  32.639  11.851
75115W        W46644  11.623  25.505  11.962
75116W        W46645  42.885   5.788   1.657
75117W        W46646  12.365  44.316   2.785
75118W        W46647  16.019  25.623  14.307
75119W        W46648  13.169  37.325  11.184
75120W        W46649   7.184  18.715   3.947
75121W        W46650  26.538  35.056   1.381
75122W        W46651  41.221  19.177   2.776
75123W        W46652   5.882  25.962  10.760
75124W        W46653  41.153  36.327   0.174
75125W        W46654   4.370  25.993   1.304
75126W        W46655  24.430  29.671   5.217
75127W        W46656  34.328  31.935  12.542
75128W        W46657  44.246   0.419   0.272
75129W        W46658  43.422  32.108  11.114
75130W        W46659  24.531  29.980  11.887
75131W        W46660  39.377  37.859   4.220
75132W        W46661  38.481  33.065  13.886
75133W        W46662  23.154  34.906   1.451
75134W        W46663  15.682  33.859   0.738
75135W        W46664  42.054  29.053  13.772
75136W        W46665  42.896   4.352   4.074
75137W        W46666  30.062  28.603  13.084
75138W        W46667   1.403  39.277   1.233
75139W        W46668   8.215   7.893   0.747
75140W        W46669  17.242  39.960  10.239
75141W        W46670  13.387  41.362  10.741
75142W        W46671  22.758  24.513   2.741
75143W        W46672  19.081  34.486   3.823
75144W        W46673  10.088  43.517   0.276
75145W        W46674   7.080   5.707   2.719
75146W        W46675  38.345  31.610   3.522
75147W        W46676  43.292   6.118  10.715
75148W        W46677   6.896  39.330  13.867
75149W        W46678   5.451  11.351   3.384
75150W        W46679  19.120  26.086  13.775
75151W        W46680  15.765  29.201   0.965
75152W        W46681   6.288  39.773  14.928
75153W        W46682   5.758  38.901   0.990
75154W        W46683   5.848  41.216  14.602
75155W        W46684  25.674  34.842  13.936
75156W        W46685  18.244  25.340   4.104
75157W        W46686   5.899  27.826   2.316
75158W        W46687   5.031  36.371  12.355
75159W        W46688  32.772  31.898  13.653
75160W        W46689  16.270  10.667  13.035
75161W        W46690  29.158  14.411   2.411
75162W        W46691  29.500  23.647   4.212
75163W        W46692  28.420   7.298   1.626
75164W        W46693  35.414  12.749  12.396
75165W        W46694  11.761  10.271  12.845
75166W        W46695  26.051   9.034  11.592
75167W        W46696  42.288  43.497   4.672
75168W        W46697   5.351  18.829   0.415
75169W        W46698   6.419  14.867   1.986
75170W        W46699   6.112  31.437   0.378
75171W        W46700  12.845  16.783  13.542
75172W        W46701   7.395  42.860   4.635
75173W        W46702   5.651   2.467  11.286
75174W        W46703  24.435  34.266  12.939
75175W        W46704  26.029   8.004   3.283
75176W        W46705  26.651  12.162   4.932
75177W        W46706  43.035  32.551   1.404
75178W        W46707  26.672  35.679  11.186
75179W        W46708   4.742  18.695   2.798
75180W        W46709   2.254  38.325   2.597
75181W        W46710  18.587  44.313   2.336
75182W        W46711  35.060  37.404  11.925
75183W        W46712  16.050  30.960  12.409
75184W        W46713  13.170  36.640  12.466
75185W        W46714   8.258  28.571  11.976
75186W        W46715  17.699  32.866   2.609
75187W        W46716   3.579  30.026   4.726
75188W        W46717  29.042  19.454  12.880
75189W        W46718  21.761  42.520  13.895
75190W        W46719  31.626  23.078   0.268
75191W        W46720  24.440  41.614  10.652
75192W        W46721  22.160   0.540  12.634
75193W        W46722  22.932  12.609  14.676
75194W        W46723  18.214   5.104  11.173
75195W        W46724   7.846   3.948  13.524
75196W        W46725  27.530  41.786  13.874
75197W        W46726  13.885  41.545  12.058
75198W        W46727   3.843  16.105   0.933
75199W        W46728  37.919  18.224   1.566
75200W        W46729  20.771  31.503  14.407
75201W        W46730  41.488  28.397  11.309
75202W        W46731  43.816  44.206  13.845
75203W        W46732  20.124  39.475  11.656
75204W        W46733   1.999  31.660   2.798
75205W        W46734  34.021   1.778  13.430
75206W        W46735  42.554   2.450  14.405
75207W        W46736  10.251  31.426   0.414
75208W        W46737  44.256  17.086  14.949
75209W        W46738  42.412  37.599   1.358
75210W        W46739  29.343  11.161   2.773
75211W        W46740  43.987  23.773  14.465
75212W        W46741  37.769  27.562  11.719
75213W        W46742  24.114  38.816  10.533
75214W        W46743  13.283  16.058  13.449
75215W        W46744   4.852  42.191   4.061
75216W        W46745  30.186   2.486  12.980
75217W        W46746   1.543  40.090  14.048
75218W        W46747  13.746   1.432  12.532
75219W        W46748  24.653   3.646  11.064
75220W        W46749  43.102  43.776   4.327
75221W        W46750  38.027  33.235   4.229
75222W        W46751   4.385   9.687  11.398
75223W        W46752   3.660  40.719   4.247
75224W        W46753  24.585  15.206   0.130
75225W        W46754  21.325  23.616   1.720
75226W        W46755  12.621   5.846  13.059
75227W        W46756  29.702  44.620   1.285
75228W        W46757  25.994  15.534   0.401
75229W        W46758  25.833  22.510   1.159
75230W        W46759   4.748   2.372   1.107
75231W        W46760   2.250  20.978   5.178
75232W        W46761  33.829  43.081   1.304
75233W        W46762  14.750  42.501  14.045
75234W        W46763  30.415  27.138  11.731
75235W        W46764   0.786  15.616   1.462
75236W        W46765  34.890   6.147  13.906
75237W        W46766  35.314  14.215  13.172
75238W        W46767  19.455  37.471  14.751
75239W        W46768  44.314  42.440  14.006
75240W        W46769   7.082  23.228  12.448
75241W        W46770  19.800  22.149   2.971
75242W        W46771   9.083  32.060   5.090
75243W        W46772  36.931  25.739  13.363
75244W        W46773  16.491  17.560   1.726
75245W        W46774  31.037  38.895  13.415
75246W        W46775  40.090  30.554   0.988
75247W        W46776  39.377  36.167   1.421
75248W        W46777  35.499  44.352   9.998
75249W        W46778  22.873   0.278  13.322
75250W        W46779  16.256  23.693  13.670
75251W        W46780  44.760  14.283  10.705
75252W        W46781   5.310  42.843  11.442
75253W        W46782  29.047  33.830  10.787
75254W        W46783  10.369  35.379   2.207
75255W        W46784  18.777  35.744   1.478
75256W        W46785  29.920  30.912   0.900
75257W        W46786  28.523   0.029  11.968
75258W        W46787  13.243  20.323  14.006
75259W        W46788  42.577  42.597  14.442
75260W        W46789  31.490  13.840   3.424
75261W        W46790   4.434  14.975   3.327
75262W        W46791  35.388  16.601   1.755
75263W        W46792  36.534  28.344   4.124
75264W        W46793  41.721  17.033  13.547
75265W        W46794  19.281  37.428  10.572
75266W        W46795   7.093   0.460   3.744
75267W        W46796  23.113  22.036  10.462
75268W        W46797   6.972   3.785   1.847
75269W        W46798  20.504   1.520   2.311
75270W        W46799  21.631  42.923   0.260
75271W        W46800   6.802  41.867  14.747
75272W        W46801  24.986  21.609   3.550
75273W        W46802  25.634  14.268  13.672
75274W        W46803  25.922  21.663   4.577
75275W        W46804  13.048  35.402   1.889
75276W        W46805  35.389  31.086  12.736
75277W        W46806   1.757  34.620   2.028
75278W        W46807   2.403   5.433   4.681
75279W        W46808  39.980   9.579  12.466
75280W        W46809  20.569  17.071  13.036
75281W        W46810   5.783  32.113   3.738
75282W        W46811  12.505  41.006  13.742
75283W        W46812  15.817   8.798   4.772
75284W        W46813  21.617  16.261   3.100
75285W        W46814  35.406  43.396   0.030
75286W        W46815  20.471  29.217   9.657
75287W        W46816  38.100  21.052   5.012
75288W        W46817  23.241  35.362   1.704
75289W        W46818  41.472  38.399   2.278
75290W        W46819  35.750   4.849   0.345
75291W        W46820  36.764   2.277   3.574
75292W        W46821   7.352   3.720  11.164
75293W        W46822  20.570  42.824   1.503
75294W        W46823  43.508  24.122  13.433
75295W        W46824   2.225  13.637  13.452
75296W        W46825  11.240  32.290   3.018
75297W        W46826   8.136  12.288   0.246
75298W        W46827  37.056  40.423  14.379
75299W        W46828  10.494  22.886  13.821
75300W        W46829  20.172  36.295  11.694
75301W        W46830  13.562  18.218  11.088
75302W        W46831   8.410  35.321  14.315
75303W        W46832  25.730  20.194   1.248
75304W        W46833  14.539  19.494   1.754
75305W        W46834  32.195  22.239  13.326
75306W        W46835  41.046   3.842  11.412
75307W        W46836  34.427   1.815  12.512
75308W        W46837  16.754   8.836  11.801
75309W        W46838  40.333  23.191   4.322
75310W        W46839  14.700  18.719  12.473
75311W        W46840  20.871  38.601   1.616
75312W        W46841   3.322  16.549   0.444
75313W        W46842  24.770   5.257   4.356
75314W        W46843  22.622  21.126   3.532
75315W        W46844  31.407  14.574   0.411
75316W        W46845  31.910   1.709   4.938
75317W        W46846  19.411  23.395   1.490
75318W        W46847  20.065  22.194  11.540
75319W        W46848  43.867  40.389   4.339
75320W        W46849  14.130  15.939  11.373
75321W        W46850  33.207  12.981   4.303
75322W        W46851  20.565   8.830   0.223
75323W        W46852  26.639  27.272   2.257
75324W        W46853   6.227  44.019  13.972
75325W        W46854   8.473   0.390   0.872
75326W        W46855  41.372  10.321   0.822
75327W        W46856  44.325   6.319  13.000
75328W        W46857  23.090  11.192   4.896
75329W        W46858  26.073  28.496   4.761
75330W        W46859  33.767  24.237  10.148
75331W        W46860  39.930   5.381   4.266
75332W        W46861  34.509  40.009  13.831
75333W        W46862  36.978  12.354   4.145
75334W        W46863  18.199  38.388  10.717
75335W        W46864  17.074  36.347   2.650
75336W        W46865  14.610  12.684   3.159
75337W        W46866  17.790  17.158  12.850
75338W        W46867  18.212  33.574  12.952
75339W        W46868  39.668  12.764   0.245
75340W        W46869   6.827  39.592  12.457
75341W        W46870  33.584  12.384  10.613
75342W        W46871  24.578  24.139   3.824
75343W        W46872  15.850  18.293  12.892
75344W        W46873  39.333  37.763   2.291
75345W        W46874  31.768  25.407  12.172
75346W        W46875  12.251  29.884   1.417
75347W        W46876   7.672  27.798  12.036
75348W        W46877   5.493   3.787  11.465
75349W        W46878  38.549  18.260   4.130
75350W        W46879  19.812   3.162   4.490
75351W        W46880  30.714  12.144   4.558
75352W        W46881   8.767  37.269  11.403
75353W        W46882  29.511  14.887  14.339
75354W        W46883  26.770   3.954  11.239
75355W        W46884  43.396  36.226   9.814
75356W        W46885   8.562   8.963   4.995
75357W        W46886   4.863   6.248  12.555
75358W        W46887  17.546  26.655  11.473
75359W        W46888  40.017  39.712   0.925
75360W        W46889  24.013   1.355   2.712
75361W        W46890  17.447   3.288   0.619
75362W        W46891   5.959  42.758  10.444
75363W        W46892   9.190  41.300  12.130
75364W        W46893  23.739  41.486   0.421
75365W        W46894  22.828  18.589  11.141
75366W        W46895  20.056  39.489  12.560
75367W        W46896  29.930  36.930  12.147
75368W        W46897  32.501   0.873   3.085
75369W        W46898  13.005   2.560  11.462
75370W        W46899  44.855  24.701   3.603
75371W        W46900  24.386  12.360  14.435
75372W        W46901  25.745  41.686   1.702
75373W        W46902  24.190  17.653  10.635
75374W        W46903   8.744  16.197   4.574
75375W        W46904  15.900  39.700  11.576
75376W        W46905   3.622   7.682   0.020
75377W        W46906  40.565  27.811   4.708
75378W        W46907  11.778  36.721   3.332
75379W        W46908  30.987  23.232   4.319
75380W        W46909  17.668  39.244   1.570
75381W        W46910  40.914  27.499  11.413
75382W        W46911  21.705  13.810  12.549
75383W        W46912   5.879  28.588  11.581
75384W        W46913   0.431   0.904  13.114
75385W        W46914  18.689   9.423  13.964
75386W        W46915  40.355  14.243  12.196
75387W        W46916   1.922  33.101  11.257
75388W        W46917  42.027  22.795   5.168
75389W        W46918  33.968   9.265   0.822
75390W        W46919  24.011  40.882  10.451
75391W        W46920  12.399  33.724  12.733
75392W        W46921  12.145   8.323   3.302
75393W        W46922  41.649  29.183   5.098
75394W        W46923  16.184  11.319   0.372
75395W        W46924  23.470  10.799  14.876
75396W        W46925  13.983  37.619  12.030
75397W        W46926  44.284  19.403   2.642
75398W        W46927  24.116  19.260   3.223
75399W        W46928   0.323  31.372   5.479
75400W        W46929   8.427  40.576  13.093
75401W        W46930  13.339  26.594   9.744
75402W        W46931   2.003  44.990   0.486
75403W        W46932   3.398  13.395  11.631
75404W        W46933  14.272  23.212  11.956
75405W        W46934  12.745  37.371   2.841
75406W        W46935  29.074  12.142  14.711
75407W        W46936  15.228   4.355   3.840
75408W        W46937  13.651  18.076   3.665
75409W        W46938  34.973  13.075  13.992
75410W        W46939  42.744   2.208  12.537
75411W        W46940   0.824  40.674   3.730
75412W        W46941  44.160   1.819  14.365
75413W        W46942  39.258  32.527  13.013
75414W        W46943  27.529  41.803  11.960
75415W        W46944  30.091  44.979  13.416
75416W        W46945   7.908   4.271  12.648
75417W        W46946  38.845  36.442  12.937
75418W        W46947  15.103   9.182   2.244
75419W        W46948  39.577  11.851  14.046
75420W        W46949  21.622  38.576   1.938
75421W        W46950   3.689  10.375   3.709
75422W        W46951  30.477   8.608   0.315
75423W        W46952  21.732  28.064   0.949
75424W        W46953  32.964  43.904  11.994
75425W        W46954  32.569  18.963  12.413
75426W        W46955  17.078  16.741  12.392
75427W        W46956  40.865  15.653   3.794
75428W        W46957  39.956  41.779  13.554
75429W        W46958  43.778  36.480   3.314
75430W        W46959  40.502  30.057  12.922
75431W        W46960  32.889   6.178  11.137
75432W        W46961  28.200  20.964  11.641
75433W        W46962   6.230   3.154  11.262
75434W        W46963  14.054  35.034  14.062
75435W        W46964  44.199  16.109   1.979
75436W        W46965  34.139  38.860   2.145
75437W        W46966  30.832  12.233   0.397
75438W        W46967   2.250  18.243  13.346
75439W        W46968  33.490  12.115  14.381
75440W        W46969  39.064  31.876  13.498
75441W        W46970  23.813  41.925   1.393
75442W        W46971  30.290  14.275   3.018
75443W        W46972  30.777  42.925   1.389
75444W        W46973  15.299  23.137   4.578
75445W        W46974  21.796  29.989  11.673
75446W        W46975  32.385  26.172  11.083
75447W        W46976  39.706   5.827   1.575
75448W        W46977  14.073  40.700  12.490
75449W        W46978  35.349  41.858   4.517
75450W        W46979   9.415  41.716   2.666
75451W        W46980  36.669  35.180  12.228
75452W        W46981  44.736   5.397  13.887
75453W        W46982  21.544   0.665  13.000
75454W        W46983  43.281  15.385  10.767
75455W        W46984  42.431  26.223   1.592
75456W        W46985  19.139   2.777   1.512
75457W        W46986  34.375  35.994  12.671
75458W        W46987  37.520  37.589  13.433
75459W        W46988  25.853   7.247   3.286
75460W        W46989  32.957   0.549   0.875
75461W        W46990  35.399  39.047   1.788
75462W        W46991  44.243  11.713  14.172
75463W        W46992   0.851   0.521   4.273
75464W        W46993  26.144  17.788  14.821
75465W        W46994  28.087  13.855   0.548
75466W        W46995  31.431  32.459  14.632
75467W        W46996  17.763  25.396  12.407
75468W        W46997  37.118  19.486  10.794
75469W        W46998  23.954  39.637  13.907
75470W        W46999  32.116  40.747   1.299
75471W        W47000  11.121  13.842   3.967
75472W        W47001  19.526  31.120  11.557
75473W        W47002  28.093  35.603  11.440
75474W        W47003  21.297  14.595   4.555
75475W        W47004  22.729  25.267   3.331
75476W        W47005  40.069  24.562   3.718
75477W        W47006   3.894  39.970   3.209
75478W        W47007  35.165  43.016  14.728
75479W        W47008  29.715  41.094   2.099
75480W        W47009  35.875  12.694   4.517
75481W        W47010  29.360  14.546  13.571
75482W        W47011  17.159   9.385  12.354
75483W        W47012   9.893  29.049   2.379
75484W        W47013   9.636  20.127  11.257
75485W        W47014  16.842  44.437  14.439
75486W        W47015   8.083  15.368  12.094
75487W        W47016  19.600  40.130  11.296
75488W        W47017   0.797   5.753   2.383
75489W        W47018   3.957  29.667  14.917
75490W        W47019  32.381  17.676   2.635
75491W        W47020  43.168  31.467  11.877
75492W        W47021  28.099  42.500   3.103
75493W        W47022  16.194   9.894  14.406
75494W        W47023  40.576   5.215  11.992
75495W        W47024  27.142  31.132  12.504
75496W        W47025  32.374  43.458   0.322
75497W        W47026  31.124  44.828   3.878
75498W        W47027   6.587  43.165  11.100
75499W        W47028   8.903   5.869   2.430
75500W        W47029  30.487   1.032  14.746
75501W        W47030   9.456  20.725   4.162
75502W        W47031  35.945  34.061  13.789
75503W        W47032  13.120  20.821  14.020
75504W        W47033  14.253  19.881  12.920
75505W        W47034  22.586  18.545  12.083
75506W        W47035  37.116  16.683  14.016
75507W        W47036  42.945   7.353   2.848
75508W        W47037  35.965  44.316  14.838
75509W        W47038   2.418   8.232  11.167
75510W        W47039  23.196   7.742  10.816
75511W        W47040  24.291  33.637  12.826
75512W        W47041  23.714  12.868  14.378
75513W        W47042   1.250  18.182  13.410
75514W        W47043   8.783   8.325  12.602
75515W        W47044  23.079  44.250   4.191
75516W        W47045  20.297   4.142  10.575
75517W        W47046  27.680  17.172  11.623
75518W        W47047  13.978  31.471  14.893
75519W        W47048  19.961  32.719  11.111
75520W        W47049  39.435   9.897  11.267
75521W        W47050   8.046  10.924  13.769
75522W        W47051  21.186  13.641  11.865
75523W        W47052  34.154  44.391   1.217
75524W        W47053   1.313  22.462   3.219
75525W        W47054   2.638  24.777   4.201
75526W        W47055   8.451  11.686   4.687
75527W        W47056  13.449  23.302   2.796
75528W        W47057  15.615  19.760  10.629
75529W        W47058   9.124  14.711  12.547
75530W        W47059  22.155  13.210   1.862
75531W        W47060   1.407  37.830  10.779
75532W        W47061  16.980  35.582   0.925
75533W        W47062   0.515  16.259   0.808
75534W        W47063  33.507  10.849   1.728
75535W        W47064  40.546  20.499  11.013
75536W        W47065  40.032  14.654  14.211
75537W        W47066  25.118  11.758   1.935
75538W        W47067  41.076   9.734  12.969
75539W        W47068   1.777   1.002   3.955
75540W        W47069  27.626  15.870   4.688
75541W        W47070   7.100  24.160   2.778
75542W        W47071   6.927  34.053  13.930
75543W        W47072  31.607  32.651   2.788
75544W        W47073   0.053  14.323   3.378
75545W        W47074  32.018  18.139   4.109
75546W        W47075   6.992  19.614  14.314
75547W        W47076  32.009  14.581   1.244
75548W        W47077  19.173  25.231   1.395
75549W        W47078  37.853  27.026   3.855
75550W        W47079  25.900  26.173   0.696
75551W        W47080  24.516  35.925   1.117
75552W        W47081  16.320  25.229   3.331
75553W        W47082  20.525  40.970   0.719
75554W        W47083  13.914  35.467   3.781
75555W        W47084   4.120   3.159   0.643
75556W        W47085  16.557  33.594  14.468
75557W        W47086  34.841  17.787  10.436
75558W        W47087   9.613   3.492   4.836
75559W        W47088  26.179   8.033  13.065
75560W        W47089   8.171  40.894   1.886
75561W        W47090  21.661  32.170  10.526
75562W        W47091  17.760  32.630  12.843
75563W        W47092  26.191  40.484   3.215
75564W        W47093  36.359  30.398  14.890
75565W        W47094  28.659  36.839   2.704
75566W        W47095  22.427  18.082  12.347
75567W        W47096  39.933  22.516   3.666
75568W        W47097  21.968  43.857  14.309
75569W        W47098  41.828   4.135  14.964
75570W        W47099  30.386  22.802   2.344
75571W        W47100  30.475  34.924  12.015
75572W        W47101  31.423  23.124   2.770
75573W        W47102  15.714   0.580  11.558
75574W        W47103   1.499  34.498  11.526
75575W        W47104   0.343   9.249   3.090
75576W        W47105  25.720  41.482   2.367
75577W        W47106  21.911  44.851  12.362
75578W        W47107  25.987  35.572   4.799
75579W        W47108   1.895   3.897   0.236
75580W        W47109  39.738  32.197   2.408
75581W        W47110  13.663  39.888   3.887
75582W        W47111  40.990  34.028  14.859
75583W        W47112  21.601  34.288   1.716
75584W        W47113  43.740   6.964  11.207
75585W        W47114   9.756  36.601   4.753
75586W        W47115   2.296  38.835   0.224
75587W        W47116  43.613  29.676  11.981
75588W        W47117  36.454  37.356   0.009
75589W        W47118  44.347  42.367  14.529
75590W        W47119   1.941  30.834   1.504
75591W        W47120  16.558  29.027  12.308
75592W        W47121   1.456  44.545  10.524
75593W        W47122  22.525  36.529  14.845
75594W        W47123  10.927   7.682  14.458
75595W        W47124  19.137  34.148  11.632
75596W        W47125  12.718  21.488  10.930
75597W        W47126  37.066  40.110   3.655
75598W        W47127  23.428  26.254  11.552
75599W        W47128  17.127  42.491  11.555
75600W        W47129  22.113  23.011   1.769
75601W        W47130  43.591   8.389  14.769
75602W        W47131  20.530   6.373   2.831
75603W        W47132  21.293   5.948  13.489
75604W        W47133  44.092  24.781   4.165
75605W        W47134   8.154  12.750  13.908
75606W        W47135  20.218  24.103  13.553
75607W        W47136  31.415   3.754   2.472
75608W        W47137   8.765  37.574  13.942
75609W        W47138   3.989  37.219   2.450
75610W        W47139  43.438  40.809   1.586
75611W        W47140  32.410   9.307   1.302
75612W        W47141  12.221  23.225   2.651
75613W        W47142  40.932   5.478   0.108
75614W        W47143  40.488  37.152  13.097
75615W        W47144  43.724  28.817  11.065
75616W        W47145  19.151  27.464  12.120
75617W        W47146  34.508  35.480  10.629
75618W        W47147  16.167  21.773  12.463
75619W        W47148   4.171  15.601  13.516
75620W        W47149  21.546  40.481   1.880
75621W        W47150  36.668   7.792   3.254
75622W        W47151  13.561  33.500   1.876
75623W        W47152  18.775  35.130  11.545
75624W        W47153   6.351   2.328   2.772
75625W        W47154  22.933   9.468   3.360
75626W        W47155  39.574  24.590  12.477
75627W        W47156  12.728  17.438   3.206
75628W        W47157   7.366  25.683   2.384
75629W        W47158   6.807   0.375  13.415
75630W        W47159  35.410  29.313  11.810
75631W        W47160  34.685  39.069   3.144
75632W        W47161  33.244  25.078   0.290
75633W        W47162  14.551  34.666   3.687
75634W        W47163  10.342  24.028  10.090
75635W        W47164  44.411  33.223  13.291
75636W        W47165  13.830  26.137  13.093
75637W        W47166  16.824   1.224   2.433
75638W        W47167  33.438  23.271   1.634
75639W        W47168  28.739  31.628   0.832
75640W        W47169  13.698   6.947  13.555
75641W        W47170  28.058   2.750  12.928
75642W        W47171  21.003  33.886   0.486
75643W        W47172  16.348  30.442  13.511
75644W        W47173  35.613  40.766  13.035
75645W        W47174   9.699  43.569   1.107
75646W        W47175   3.946  12.072  12.546
75647W        W47176  29.541  13.993   1.601
75648W        W47177  37.537  20.766   2.350
75649W        W47178  21.158   0.969  12.115
75650W        W47179  31.139  34.551   2.689
75651W        W47180   8.519  43.264  13.661
75652W        W47181  33.908  15.212   1.108
75653W        W47182  20.558  31.655   4.986
75654W        W47183  32.832  42.920  11.439
75655W        W47184   4.412  29.386  12.332
75656W        W47185  42.133  13.280   0.591
75657W        W47186  29.873  16.389  10.145
75658W        W47187   7.177  39.863   0.899
75659W        W47188  37.795  33.934   3.753
75660W        W47189  22.512  43.039  10.957
75661W        W47190  32.719  18.201  14.559
75662W        W47191  41.523  29.452  13.439
75663W        W47192  35.775  23.215   1.202
75664W        W47193  18.286  28.930   2.719
75665W        W47194  42.380   3.395   2.325
75666W        W47195   9.483   7.734   3.382
75667W        W47196   4.829  21.595  10.681
75668W        W47197  27.922  28.582   1.698
75669W        W47198   7.091  24.030   1.803
75670W        W47199  38.527   6.848  13.431
75671W        W47200   2.481  35.475   1.691
75672W        W47201  32.729  40.646  14.188
75673W        W47202  38.533  25.711  13.493
75674W        W47203  22.477  23.598  12.924
75675W        W47204  32.369  22.498  14.990
75676W        W47205  43.993   1.385   4.606
75677W        W47206  11.275  25.902   1.220
75678W        W47207  33.122  44.907  11.072
75679W        W47208  22.565  26.116  14.585
75680W        W47209  31.942  29.072   0.765
75681W        W47210  19.946  13.297   0.014
75682W        W47211  14.894   5.319   4.038
75683W        W47212  25.646  36.193   2.812
75684W        W47213   3.937  27.429   0.856
75685W        W47214   1.676  28.453  13.392
75686W        W47215  14.248  42.483  13.259
75687W        W47216  40.429  28.430   1.560
75688W        W47217  31.367  17.071  14.535
75689W        W47218   5.917  39.867   1.392
75690W        W47219  39.788  43.380  10.820
75691W        W47220   0.242  19.533   4.420
75692W        W47221   6.372  33.983   4.874
75693W        W47222  21.975  21.634  11.126
75694W        W47223  28.373  32.089   4.063
75695W        W47224  39.784  37.049  13.778
75696W        W47225  20.305  28.378   0.369
75697W        W47226   0.841  14.421  14.947
75698W        W47227   0.290  11.236   4.180
75699W        W47228  39.501  39.888  11.181
75700W        W47229  24.084  15.585   3.157
75701W        W47230  40.012  44.874   2.553
75702W        W47231  41.955   7.379  10.775
75703W        W47232  17.537  36.298  11.700
75704W        W47233   9.523  34.996  11.492
75705W        W47234   1.526  10.215  10.599
75706W        W47235  12.000  21.979   1.744
75707W        W47236  29.446   7.136   1.368
75708W        W47237  32.985  10.623  14.033
75709W        W47238  14.465  22.807  11.068
75710W        W47239   5.933  12.819   4.167
75711W        W47240  11.784  16.588   1.327
75712W        W47241  16.155  42.083  12.884
75713W        W47242   8.960   3.870   0.521
75714W        W47243  22.229  16.844   1.993
75715W        W47244  24.596  33.827   1.075
75716W        W47245   4.820  34.917   2.846
75717W        W47246  31.066  30.059  11.292
75718W        W47247  42.912  15.198   4.366
75719W        W47248  10.815  16.782  11.639
75720W        W47249  38.425  29.382  11.163
75721W        W47250   8.879  11.248   2.718
75722W        W47251  32.716   0.058   2.316
75723W        W47252   6.538  25.102   1.386
75724W        W47253  30.038  40.812  14.630
75725W        W47254   6.686  29.110   4.688
75726W        W47255  10.376  39.004   4.583
75727W        W47256   8.303  24.565   4.591
75728W        W47257  16.169  13.774  11.420
75729W        W47258   3.924  32.036  11.618
75730W        W47259   4.396  38.472  11.520
75731W        W47260  21.046  29.708   4.992
75732W        W47261  42.443   2.182  10.483
75733W        W47262  18.724  39.889   0.832
75734W        W47263  36.880  28.965  11.339
75735W        W47264  29.436   5.190  11.039
75736W        W47265  33.119  26.163   1.797
75737W        W47266  36.110  27.901  12.115
75738W        W47267  40.089  18.317   2.127
75739W        W47268   3.219   5.778  11.655
75740W        W47269  21.105  14.663  12.071
75741W        W47270  27.888  33.654  11.699
75742W        W47271  27.999  25.166  14.571
75743W        W47272  10.785  25.945   1.819
75744W        W47273   2.984   5.795  14.094
75745W        W47274  38.349   4.892   1.901
75746W        W47275  43.308  43.319  10.560
75747W        W47276  30.088  23.308   0.030
75748W        W47277   2.754  38.587   1.362
75749W        W47278   3.286  24.955  13.040
75750W        W47279  31.527  39.992   4.530
75751W        W47280   6.672  26.478  12.414
75752W        W47281  27.086  14.084   1.339
75753W        W47282   9.913  17.892  14.923
75754W        W47283  41.373  37.549   2.332
75755W        W47284  30.609  11.115   1.852
75756W        W47285  19.328  25.409   0.500
75757W        W47286  18.193  39.899  14.544
75758W        W47287  43.002   4.369  11.689
75759W        W47288  26.755  14.536   3.469
75760W        W47289  17.601  37.022  11.995
75761W        W47290   8.296  32.159   3.947
75762W        W47291  23.953  40.128  10.834
75763W        W47292  12.204   7.038  14.457
75764W        W47293   6.837   3.788   0.245
75765W        W47294  34.616   1.017   1.877
75766W        W47295  14.555  33.612  11.884
75767W        W47296  10.018  10.200  10.206
75768W        W47297  36.270  30.965  11.679
75769W        W47298  22.507  41.848  13.852
75770W        W47299  25.720  11.182  14.440
75771W        W47300   5.478  41.923  12.028
75772W        W47301  42.296   0.001  14.885
75773W        W47302  42.282  39.497   2.648
75774W        W47303  22.210  16.250  12.920
75775W        W47304  20.524   9.754   0.317
75776W        W47305  38.825   5.653  11.810
75777W        W47306  26.707  40.437   2.313
75778W        W47307  10.201  40.611   1.420
75779W        W47308  29.136  25.093   5.004
75780W        W47309  42.679  42.236  14.897
75781W        W47310  22.518  13.226  13.653
75782W        W47311  19.648   4.365  14.786
75783W        W47312  30.395  18.986   0.855
75784W        W47313  34.005  38.468  14.892
75785W        W47314   2.222   2.519   4.667
75786W        W47315  44.304  20.370  10.678
75787W        W47316   3.888  16.273  12.448
75788W        W47317   4.286  35.864   4.570
75789W        W47318  42.318  29.185  10.706
75790W        W47319   3.057  18.703   4.278
75791W        W47320  24.664   2.446   0.455
75792W        W47321  24.694  11.301  11.436
75793W        W47322  41.848   5.097   5.386
75794W        W47323  14.125  25.072   4.739
75795W        W47324  12.703  21.465   3.862
75796W        W47325   1.001  42.329  14.929
75797W        W47326   4.593   1.326  12.951
75798W        W47327  28.145  39.777  10.850
75799W        W47328  10.108  38.424  13.955
75800W        W47329  31.553   6.698  12.526
75801W        W47330  39.424  39.508   1.891
75802W        W47331  39.605  24.804  14.217
75803W        W47332   6.778   0.452   3.153
75804W        W47333  27.150   7.393  14.083
75805W        W47334  33.644   1.406  13.416
75806W        W47335  29.739  44.253   1.620
75807W        W47336  43.213   7.719  11.088
75808W        W47337  23.515  24.173   2.239
75809W        W47338  11.964   4.621  10.400
75810W        W47339  33.969  24.393  10.622
75811W        W47340  40.161  42.511   1.814
75812W        W47341  30.965  37.864   4.172
75813W        W47342  44.936  27.270   3.723
75814W        W47343   0.011  42.335  13.483
75815W        W47344  17.539  12.158   1.701
75816W        W47345  34.314  32.608  12.137
75817W        W47346  30.777  24.564  12.296
75818W        W47347   8.279   3.648  13.370
75819W        W47348  41.971  20.591   1.330
75820W        W47349  27.117  16.860   1.733
75821W        W47350  34.890  20.603   1.221
75822W        W47351  12.548  24.444   0.478
75823W        W47352  16.240  43.376   0.717
75824W        W47353  26.123  22.533  11.471
75825W        W47354  31.612   4.747   3.388
75826W        W47355  43.203  35.911   1.192
75827W        W47356   4.786   9.813  13.183
75828W        W47357  10.141  13.286   1.034
75829W        W47358   1.016   1.867   1.458
75830W        W47359  22.795   7.127   3.462
75831W        W47360  33.668  20.081   1.871
75832W        W47361   7.825   9.113  12.006
75833W        W47362  39.031  27.909   2.724
75834W        W47363  13.898   0.615  10.204
75835W        W47364  43.410   5.893   2.924
75836W        W47365  43.923  12.105   0.849
75837W        W47366  34.062   4.470   3.722
75838W        W47367  11.766  13.065   0.344
75839W        W47368   1.713  43.847  10.714
75840W        W47369  39.120  35.486   0.236
75841W        W47370  40.571  30.694   0.298
75842W        W47371  31.565  11.552  12.965
75843W        W47372  43.213   0.769   3.582
75844W        W47373   7.991  29.219   0.345
75845W        W47374   3.521  41.004  14.185
75846W        W47375  10.782  15.451   5.006
75847W        W47376  33.955  42.393   2.550
75848W        W47377  39.887   2.847   5.021
75849W        W47378  41.512  41.827  14.302
75850W        W47379  35.063   4.240   3.819
75851W        W47380  16.680  12.898  12.379
75852W        W47381   3.674  19.790  12.053
75853W        W47382  40.064   5.632  13.468
75854W        W47383  15.122  27.000   3.367
75855W        W47384  43.912  23.316  10.796
75856W        W47385  41.975  24.927   1.664
75857W        W47386  27.855  42.819   2.782
75858W        W47387  31.223  12.107   4.577
75859W        W47388  34.867  40.440  14.026
75860W        W47389   2.716  28.549  14.927
75861W        W47390  12.652   5.549  14.447
75862W        W47391  35.816  28.501  11.631
75863W        W47392  11.235  38.444  13.351
75864W        W47393  35.552  43.332   4.802
75865W        W47394  26.954   5.953   0.389
75866W        W47395  19.308  28.991   3.693
75867W        W47396  39.089  10.454   2.161
75868W        W47397  13.605  34.730   2.221
75869W        W47398   0.397  19.174   0.977
75870W        W47399  42.853  30.392  12.053
75871W        W47400  11.728  25.814  14.919
75872W        W47401  20.588  21.121  13.557
75873W        W47402  18.103   3.366   2.289
75874W        W47403  20.760  18.860  14.883
75875W        W47404  44.838  17.572   1.263
75876W        W47405  40.304   4.144   3.752
75877W        W47406   8.128   5.206   0.862
75878W        W47407  31.629  22.210   3.672
75879W        W47408   4.433  23.597   3.610
75880W        W47409  27.608  16.820  12.579
75881W        W47410  32.846  36.645  13.338
75882W        W47411  38.451  14.131   2.721
75883W        W47412   6.788  25.313  11.907
75884W        W47413  18.286  34.503   1.204
75885W        W47414  10.257   0.538  13.846
75886W        W47415  15.433  17.532   0.187
75887W        W47416  11.689  32.491   1.753
75888W        W47417  19.677  20.063  11.944
75889W        W47418   5.891  37.092   0.997
75890W        W47419   3.714  25.602   4.144
75891W        W47420  25.428   6.561   2.393
75892W        W47421  20.174   6.623  11.624
75893W        W47422  12.205  31.877  12.966
75894W        W47423   0.010   8.657   3.360
75895W        W47424  41.336   7.181  11.614
75896W        W47425   7.338  18.445   1.805
75897W        W47426  21.141  30.927  11.930
75898W        W47427   6.718  13.387  10.724
75899W        W47428  25.064  18.221  14.791
75900W        W47429  16.790   3.864  12.457
75901W        W47430  21.933  25.137  11.426
75902W        W47431  21.279  37.141   4.503
75903W        W47432  20.541  34.400  14.766
75904W        W47433   2.260  25.165  14.883
75905W        W47434   5.486  21.499  14.472
75906W        W47435  20.947  30.391  10.646
75907W        W47436  15.271  38.425  11.579
75908W        W47437  10.271   6.718   4.163
75909W        W47438   4.308   4.193  10.419
75910W        W47439  35.655  41.376   0.832
75911W        W47440  37.463  10.809  13.543
75912W        W47441  33.815   4.352  13.774
75913W        W47442   0.353  18.731  12.465
75914W        W47443  19.259  13.384  12.956
75915W        W47444  36.543  43.001  14.415
75916W        W47445  34.950   5.445   0.173
75917W        W47446  37.005  43.426   0.959
75918W        W47447  15.335  30.017   0.773
75919W        W47448  27.427  42.548   0.251
75920W        W47449  41.235  11.646  11.239
75921W        W47450  18.089  39.782  12.210
75922W        W47451  29.119   8.533   3.225
75923W        W47452  13.362  12.462   1.922
75924W        W47453  14.087   7.274   0.274
75925W        W47454  15.498  39.423  11.801
75926W        W47455  33.298  43.283   4.173
75927W        W47456   3.754  17.708  14.854
75928W        W47457  24.506   0.753   3.709
75929W        W47458  30.118  35.676  11.059
75930W        W47459   6.393  24.810   3.968
75931W        W47460   8.742  28.682   2.280
75932W        W47461  22.705  22.522   1.200
75933W        W47462  29.603   7.956  13.771
75934W        W47463   5.686  39.081   2.925
75935W        W47464  23.106   4.219   0.370
75936W        W47465  38.366  44.450  14.255
75937W        W47466   3.719  19.813   3.165
75938W        W47467   6.625  40.572   1.186
75939W        W47468  37.857  29.669   3.395
75940W        W47469  14.372  32.599  12.189
75941W        W47470   3.722   2.851   3.620
75942W        W47471  26.578  14.752  14.477
75943W        W47472  29.416   7.219  14.436
75944W        W47473  32.320   5.319  11.560
75945W        W47474  26.223  13.294   3.297
75946W        W47475  13.757  14.139   4.926
75947W        W47476  28.221   6.902   2.747
75948W        W47477  18.723  12.644   3.688
75949W        W47478  42.859  17.988  11.190
75950W        W47479  15.550  11.292  10.680
75951W        W47480  30.451   1.544   3.382
75952W        W47481  41.614  37.975   3.629
75953W        W47482  41.840  24.325   3.552
75954W        W47483  12.139   4.786   3.229
75955W        W47484  35.902   1.536   2.744
75956W        W47485  32.377  32.340  11.760
75957W        W47486  19.206  22.797  11.177
75958W        W47487  11.027  11.873   4.313
75959W        W47488  43.076  30.323   1.613
75960W        W47489  26.540  25.165  14.832
75961W        W47490  30.175  17.269   0.702
75962W        W47491  32.044   7.764  12.869
75963W        W47492  33.184  23.037   0.171
75964W        W47493   9.223   4.355  10.664
75965W        W47494  17.228  41.938  13.138
75966W        W47495  37.437  34.639   4.580
75967W        W47496  42.800  10.707   1.590
75968W        W47497  40.493  29.875   0.988
75969W        W47498  14.002  15.238   3.977
75970W        W47499  44.277  36.547   0.442
75971W        W47500   9.350   0.770  14.246
75972W        W47501  31.521  12.727  13.734
75973W        W47502  11.692  24.717  13.665
75974W        W47503  43.937  12.127  11.005
75975W        W47504   8.358  16.108  14.798
75976W        W47505   7.513  31.134  13.243
75977W        W47506  25.555  17.244   2.784
75978W        W47507  20.405  38.850   2.260
75979W        W47508  16.656  36.670  13.412
75980W        W47509  13.099  30.605   2.943
75981W        W47510  22.068  19.624   3.196
75982W        W47511   4.196  29.461   0.341
75983W        W47512  15.161   1.513   2.116
75984W        W47513   8.458  34.874  11.395
75985W        W47514  16.289   1.182   2.340
75986W        W47515  37.991  16.310  12.862
75987W        W47516  37.981  16.768  14.356
75988W        W47517   6.605   8.807  11.940
75989W        W47518  15.672  42.051  11.613
75990W        W47519  43.023  10.669  12.516
75991W        W47520  14.415  10.685  12.721
75992W        W47521  13.098  44.305   0.390
75993W        W47522   3.314  32.410  12.337
75994W        W47523  13.071  14.743   2.331
75995W        W47524  25.999  14.212  14.908
75996W        W47525  27.583  24.502  12.324
75997W        W47526   8.067  39.319   2.300
75998W        W47527  32.619  28.285  12.517
75999W        W47528  20.311   6.705  10.777
76000W        W47529  42.466  33.616   1.301
76001W        W47530   9.885  28.187   0.905
76002W        W47531  18.489  12.154   4.555
76003W        W47532  29.411  15.817  12.893
76004W        W47533  25.906  33.058  13.336
76005W        W47534  43.879  37.971   2.884
76006W        W47535   4.958  16.554   0.101
76007W        W47536  30.565  11.761  12.107
76008W        W47537  22.735  23.560   4.086
76009W        W47538  37.907   5.198  13.050
76010W        W47539   8.127  43.934   2.579
76011W        W47540  16.018   0.013  10.080
76012W        W47541  15.227  14.238  10.670
76013W        W47542  22.736  18.375  14.467
76014W        W47543   2.876  40.948   1.901
76015W        W47544   6.712   9.116  14.367
76016W        W47545   5.173  15.653   1.771
76017W        W47546  18.540  43.069   0.021
76018W        W47547  19.974  37.089   2.245
76019W        W47548  21.187  19.259  13.288
76020W        W47549   9.364  43.052   3.252
76021W        W47550  26.109  41.000  11.504
76022W        W47551  18.696   4.796  14.764
76023W        W47552  29.397   7.448  10.365
76024W        W47553  26.559  33.650   1.876
76025W        W47554  23.542  31.412   0.189
76026W        W47555  29.458  10.245  13.447
76027W        W47556   6.507  37.750  12.112
76028W        W47557  42.234  17.365   0.334
76029W        W47558   6.312  37.708  13.370
76030W        W47559  27.063  34.478   1.876
76031W        W47560  29.151  27.295   1.815
76032W        W47561  44.222  34.138   3.758
76033W        W47562  32.981   3.639   3.865
76034W        W47563  29.030  29.566  13.914
76035W        W47564  21.555  18.023   3.592
76036W        W47565   1.746  36.118   2.419
76037W        W47566  40.897   1.603  10.752
76038W        W47567  26.696  41.980   0.822
76039W        W47568  26.925  16.578  10.595
76040W        W47569  16.372  36.062   1.274
76041W        W47570   1.809  38.519   1.840
76042W        W47571   1.859  16.831  10.593
76043W        W47572  16.264  24.777  12.725
76044W        W47573  25.795  43.562  13.479
76045W        W47574  40.248  40.050  11.654
76046W        W47575  17.533   4.438  12.947
76047W        W47576  36.315  26.670  11.131
76048W        W47577   3.315  19.265  14.894
76049W        W47578  36.457  14.595  11.013
76050W        W47579  31.482  35.493   1.900
76051W        W47580  18.332  43.827  12.075
76052W        W47581  25.284  26.947   2.328
76053W        W47582  12.783  23.157   1.942
76054W        W47583  32.561  22.113   0.254
76055W        W47584  41.205   7.868  11.136
76056W        W47585  33.429  16.939  10.670
76057W        W47586   5.509  41.151   3.308
76058W        W47587  20.757  44.217  12.815
76059W        W47588  41.294   1.125   3.487
76060W        W47589   4.244  10.415   0.424
76061W        W47590  25.497  27.630   4.259
76062W        W47591  30.750  25.201   2.380
76063W        W47592  28.609  20.171  11.456
76064W        W47593  24.261  30.009  14.041
76065W        W47594  22.108  11.454  11.155
76066W        W47595  35.161  33.080  13.566
76067W        W47596  16.113  22.503  13.360
76068W        W47597  24.784  40.462   4.564
76069W        W47598  18.206  43.725   0.403
76070W        W47599  26.435   0.771  13.311
76071W        W47600   0.360  23.705   3.899
76072W        W47601  30.479  39.395  13.960
76073W        W47602   3.780  32.266   3.825
76074W        W47603  20.729  22.297   0.015
76075W        W47604  24.989   3.768  13.762
76076W        W47605  31.628  40.010  10.983
76077W        W47606   5.094   0.226  11.136
76078W        W47607  22.007   3.392  10.575
76079W        W47608  43.370  23.756   3.066
76080W        W47609  29.722  22.689   0.372
76081W        W47610  31.591   4.768  14.371
76082W        W47611   6.271  19.325  10.682
76083W        W47612  23.783  36.840  10.707
76084W        W47613  19.417  33.359   4.241
76085W        W47614   4.637   6.719  13.280
76086W        W47615  35.407  21.162  13.936
76087W        W47616   2.842   8.731  12.927
76088W        W47617   1.378  17.663  13.462
76089W        W47618  19.725  17.360   4.515
76090W        W47619  41.290  10.232  11.705
76091W        W47620  42.763  27.434   2.844
76092W        W47621   3.064   4.900   3.835
76093W        W47622  44.482   3.373   2.935
76094W        W47623   7.146  38.006  11.020
76095W        W47624   7.677   8.489   1.222
76096W        W47625  11.273  33.007   4.569
76097W        W47626  24.229   3.740  13.015
76098W        W47627  12.779  12.732  10.985
76099W        W47628  26.572  39.809   3.803
76100W        W47629   3.787  21.887   1.818
76101W        W47630  23.709  31.665   2.251
76102W        W47631  16.558  11.840  12.595
76103W        W47632   3.479  11.735   3.633
76104W        W47633  20.303   1.909   5.004
76105W        W47634  42.297  19.952   1.756
76106W        W47635  33.124  44.065   4.116
76107W        W47636  21.757  17.541  12.236
76108W        W47637  32.789  25.949   9.579
76109W        W47638  27.240  22.193   3.682
76110W        W47639  33.094  27.394   2.674
76111W        W47640  23.042   2.340  12.396
76112W        W47641  17.164  23.574   0.350
76113W        W47642  27.390   3.829  10.612
76114W        W47643  42.049  18.826   2.169
76115W        W47644  12.267   1.476   1.817
76116W        W47645  32.082  26.696  10.771
76117W        W47646  40.202   1.459  12.379
76118W        W47647  20.760  17.063   3.657
76119W        W47648  38.941   7.898  10.596
76120W        W47649  17.097  34.972   4.034
76121W        W47650  14.281   1.090   2.382
76122W        W47651  41.055  44.606   0.996
76123W        W47652  39.901  25.470  13.431
76124W        W47653   9.757  30.798   2.919
76125W        W47654   5.363  34.075   0.995
76126W        W47655  29.586  11.597  10.340
76127W        W47656  31.064  11.853  11.964
76128W        W47657  24.109  11.351   3.894
76129W        W47658  42.463   0.572  12.984
76130W        W47659   4.441  29.131  11.083
76131W        W47660  33.362  29.109  10.790
76132W        W47661  16.706  19.067  12.904
76133W        W47662   8.759   7.905   1.511
76134W        W47663  18.226  28.198   4.174
76135W        W47664  36.623  37.578  14.038
76136W        W47665  32.990  21.200  10.777
76137W        W47666  31.643   1.899  10.699
76138W        W47667  33.888   1.081   2.302
76139W        W47668  22.934  25.664   3.710
76140W        W47669  20.567   2.813   1.160
76141W        W47670  34.011   8.590   3.640
76142W        W47671   2.529  33.093  11.599
76143W        W47672  11.307  41.113  11.449
76144W        W47673  39.113  17.673   0.477
76145W        W47674  19.181   2.872  11.684
76146W        W47675  34.978  35.965  12.904
76147W        W47676  32.918   9.986   0.032
76148W        W47677   9.402  18.790  13.985
76149W        W47678  30.413  23.578   1.706
76150W        W47679   0.486  12.270  11.073
76151W        W47680  11.379  27.085  10.630
76152W        W47681  19.233  43.931  13.446
76153W        W47682   4.412  25.456   4.651
76154W        W47683  24.952  13.246   1.435
76155W        W47684  24.579  17.817   3.274
76156W        W47685  42.797   8.615   4.009
76157W        W47686  36.045  14.859   3.357
76158W        W47687  23.084   0.772   2.820
76159W        W47688  29.016  36.584   4.184
76160W        W47689  40.264  38.105  14.954
76161W        W47690  21.815   7.304  14.805
76162W        W47691   1.797  13.711   1.904
76163W        W47692  36.258  20.112  14.813
76164W        W47693  29.880  44.539  14.193
76165W        W47694  37.970  17.106  11.998
76166W        W47695   5.702  13.612  14.326
76167W        W47696  35.613  32.417   1.016
76168W        W47697   9.635  27.814  13.949
76169W        W47698  11.763   3.683  14.464
76170W        W47699  37.542   3.922  14.865
76171W        W47700  26.018  24.052   4.346
76172W        W47701  24.192  16.631  10.394
76173W        W47702  27.110   2.889   4.997
76174W        W47703   1.698  26.583  14.590
76175W        W47704  14.140   2.441   3.667
76176W        W47705  35.083  34.508   0.151
76177W        W47706   7.260  25.446   3.217
76178W        W47707  39.946  25.547   4.719
76179W        W47708   1.485  22.678  13.348
76180W        W47709  36.950  35.767  12.414
76181W        W47710  32.921  35.041   2.703
76182W        W47711  37.585  14.179   4.116
76183W        W47712  22.489  16.725   2.418
76184W        W47713  27.614  29.121  13.343
76185W        W47714   7.346  31.945  12.476
76186W        W47715  28.518  28.959   1.655
76187W        W47716  29.528  14.538   0.217
76188W        W47717  34.149  17.990   4.165
76189W        W47718  12.667  20.055   3.664
76190W        W47719  22.616  16.841   3.302
76191W        W47720   1.705   3.481   2.283
76192W        W47721  17.183  44.564  10.154
76193W        W47722  32.174  19.062   3.287
76194W        W47723   8.642   6.204   2.115
76195W        W47724  37.436   7.875  12.929
76196W        W47725  16.870  40.938   3.616
76197W        W47726  30.422  15.241  14.497
76198W        W47727  33.390  40.556   4.713
76199W        W47728  44.237  35.838   1.182
76200W        W47729  31.196  23.071   3.732
76201W        W47730  38.576  28.407   1.680
76202W        W47731   6.836  26.693   3.215
76203W        W47732  22.462  26.079   2.165
76204W        W47733  41.601  29.112   1.217
76205W        W47734  41.819  35.328  14.851
76206W        W47735  35.802  36.064  11.549
76207W        W47736  43.218  24.698   4.016
76208W        W47737  41.839  37.367  12.805
76209W        W47738  32.817  15.621   4.896
76210W        W47739   8.955  22.599   2.729
76211W        W47740  32.412  36.350  10.694
76212W        W47741  14.613  40.495  10.885
76213W        W47742  26.552   5.447   2.895
76214W        W47743   0.354  18.092   0.103
76215W        W47744  18.347   0.894  13.856
76216W        W47745  26.385  31.848   5.065
76217W        W47746  26.935  30.390  14.477
76218W        W47747  41.443  17.687  12.459
76219W        W47748  12.803  33.711  11.719
76220W        W47749   5.034   8.682   0.425
76221W        W47750   8.226   2.610   1.157
76222W        W47751   1.866  16.892   4.164
76223W        W47752  42.742  31.737   3.207
76224W        W47753  40.376  21.788   3.769
76225W        W47754  12.799  18.161   2.660
76226W        W47755   9.251  19.042   2.439
76227W        W47756   5.887  30.509  10.784
76228W        W47757  15.845  20.489  11.162
76229W        W47758  40.803  19.782   3.271
76230W        W47759  18.293  15.131  12.861
76231W        W47760  38.865  24.432   3.255
76232W        W47761   0.713  44.048   4.149
76233W        W47762  20.607  30.589  14.466
76234W        W47763  16.672   3.063  14.069
76235W        W47764  43.138  14.225   4.595
76236W        W47765   8.241  19.088  12.144
76237W        W47766  24.140   7.105   2.999
76238W        W47767  40.776   6.764  12.592
76239W        W47768   8.200  24.423   4.098
76240W        W47769  20.197  21.397  13.752
76241W        W47770  21.697   5.712   2.782
76242W        W47771  13.773  42.020  11.172
76243W        W47772  13.007   6.604  14.895
76244W        W47773   6.012  30.566   0.907
76245W        W47774   9.172  38.468  11.724
76246W        W47775   9.242  31.673   0.007
76247W        W47776  21.474  40.466  12.952
76248W        W47777  34.962   0.868   2.258
76249W        W47778  21.988  26.735  11.578
76250W        W47779  27.190  13.388   0.234
76251W        W47780  35.290  37.091   1.182
76252W        W47781  41.883   5.661   3.704
76253W        W47782  26.021  39.333  14.052
76254W        W47783   9.186  21.728   3.047
76255W        W47784   4.828   9.855  11.667
76256W        W47785   2.843   0.760   2.447
76257W        W47786  15.870  40.723   0.232
76258W        W47787  21.840   2.222  13.304
76259W        W47788  42.289  34.990   0.271
76260W        W47789  14.252  34.473  12.322
76261W        W47790  10.242  39.818  11.254
76262W        W47791  32.642  12.596   1.075
76263W        W47792  33.893  30.373  12.620
76264W        W47793  23.295  26.412   1.217
76265W        W47794  41.939  23.593  11.693
76266W        W47795  22.659  27.916  13.912
76267W        W47796  34.017  31.249   1.270
76268W        W47797   2.372  44.977  10.533
76269W        W47798  10.313  28.128  14.899
76270W        W47799  36.905  13.790   3.581
76271W        W47800  31.622  28.454   2.197
76272W        W47801  19.134  23.160   3.884
76273W        W47802  15.719  39.181   0.795
76274W        W47803  19.186  15.347   4.538
76275W        W47804  42.807  11.685   0.751
76276W        W47805  34.953  24.735  11.807
76277W        W47806  17.708  31.356  10.625
76278W        W47807  26.122   7.073  11.464
76279W        W47808  30.467   0.452  12.117
76280W        W47809  36.631   5.248   2.715
76281W        W47810  29.212  14.356   3.286
76282W        W47811   5.330   4.806   3.351
76283W        W47812  39.992  44.335   3.745
76284W        W47813  33.109  32.033   1.780
76285W        W47814  44.309   6.262   3.841
76286W        W47815  29.910   1.489   3.217
76287W        W47816  44.188   1.385   0.182
76288W        W47817  40.597  44.336  10.713
76289W        W47818  31.495  23.131   0.775
76290W        W47819  21.156  11.264  13.297
76291W        W47820  36.121   6.300  13.319
76292W        W47821  15.845  43.442  12.526
76293W        W47822   4.569   2.018  13.933
76294W        W47823  35.105   8.895   0.196
76295W        W47824  28.621   3.220  10.818
76296W        W47825  15.612  41.267  14.323
76297W        W47826  18.836  42.687  10.041
76298W        W47827  29.016  30.527   2.374
76299W        W47828  24.535  42.225   1.794
76300W        W47829   8.881  30.758  13.515
76301W        W47830   2.350  32.209   0.462
76302W        W47831  34.473  11.396   3.934
76303W        W47832  36.549   6.350   2.296
76304W        W47833  16.901  31.201   0.561
76305W        W47834   6.350  25.715   4.054
76306W        W47835  40.284   5.967  13.043
76307W        W47836  24.197   2.270   2.260
76308W        W47837  44.777  11.846  13.465
76309W        W47838  41.769   2.231   1.599
76310W        W47839  41.100  24.093  10.768
76311W        W47840   3.420  29.901   4.219
76312W        W47841  12.247  16.824  12.946
76313W        W47842  39.265   6.799   4.569
76314W        W47843  15.260  37.926  10.363
76315W        W47844  26.880  10.094   0.000
76316W        W47845  19.975  41.546  11.030
76317W        W47846   9.780  17.573   4.196
76318W        W47847   4.333  37.415  11.966
76319W        W47848  40.509  37.993   4.953
76320W        W47849   4.495   9.335   2.365
76321W        W47850  36.005  32.629  12.426
76322W        W47851  11.857  17.282  14.532
76323W        W47852  19.576  19.304   1.879
76324W        W47853  38.423  26.069  12.152
76325W        W47854  27.173  37.004   4.817
76326W        W47855   8.467  34.204  12.864
76327W        W47856  37.343  15.609   5.053
76328W        W47857  39.429  16.126  14.748
76329W        W47858  31.456  14.410  13.436
76330W        W47859  22.095  14.350   4.095
76331W        W47860   8.859  34.522   0.848
76332W        W47861  34.372   3.981   3.751
76333W        W47862  10.124  34.014   2.662
76334W        W47863  14.883   2.732  13.489
76335W        W47864   0.948  15.109  11.212
76336W        W47865  37.070  24.721   2.349
76337W        W47866   7.702  42.504   0.861
76338W        W47867  22.579   6.625  14.265
76339W        W47868  14.827  17.825   4.008
76340W        W47869  25.279  39.823   4.394
76341W        W47870   7.591  43.765   0.260
76342W        W47871   9.110  42.243   1.777
76343W        W47872  18.023   6.089  12.854
76344W        W47873  31.884  13.096  12.123
76345W        W47874  39.568  31.190  12.193
76346W        W47875  14.588   0.212   2.250
76347W        W47876   7.342  18.548  11.431
76348W        W47877  35.022  32.424  12.326
76349W        W47878   9.382  14.280  12.439
76350W        W47879  38.019  18.848   0.241
76351W        W47880  27.576  34.399   0.416
76352W        W47881   0.656  25.718  14.553
76353W        W47882  25.177  20.763   2.282
76354W        W47883  18.713  33.067  14.215
76355W        W47884  17.995  27.092   3.636
76356W        W47885  16.177  27.076  11.472
76357W        W47886  34.178  17.046  12.706
76358W        W47887  28.109   4.040  12.418
76359W        W47888  17.594   3.380   1.173
76360W        W47889  10.625  24.090  11.740
76361W        W47890  17.596   1.404   0.819
76362W        W47891  10.473  31.646   3.646
76363W        W47892  41.465  39.593   4.646
76364W        W47893  39.962   6.218   4.606
76365W        W47894  21.193   2.677   2.282
76366W        W47895  30.617   9.199   0.985
76367W        W47896  31.762  28.420  13.015
76368W        W47897   9.195  43.833  12.658
76369W        W47898  10.225   1.229  11.545
76370W        W47899  30.778  35.488   2.379
76371W        W47900  36.851   1.512   2.851
76372W        W47901  13.147  36.094   4.638
76373W        W47902  29.062  43.525  11.114
76374W        W47903  41.955  23.312  13.917
76375W        W47904  10.895  26.511   0.478
76376W        W47905   6.844  34.410   1.687
76377W        W47906  16.920  24.174   3.592
76378W        W47907  41.435   8.197   3.037
76379W        W47908  12.911   8.443  10.687
76380W        W47909   7.380  15.155  12.626
76381W        W47910  35.531   9.101  11.746
76382W        W47911   5.127  12.036   3.557
76383W        W47912  40.301  21.511  11.630
76384W        W47913  12.497  25.682   4.801
76385W        W47914  43.167  19.772   1.417
76386W        W47915   2.311   3.707  10.902
76387W        W47916  29.413   9.757  14.340
76388W        W47917  33.928  25.345   3.189
76389W        W47918  23.346  27.689  13.217
76390W        W47919   9.902   6.302  10.689
76391W        W47920  20.148  18.557   4.119
76392W        W47921   1.852   7.333   4.513
76393W        W47922  38.327   3.527  11.119
76394W        W47923  44.735   6.466  11.606
76395W        W47924  17.173  23.624  10.211
76396W        W47925  41.390   2.143   0.130
76397W        W47926  18.232   0.366  12.616
76398W        W47927  39.749  34.078  14.494
76399W        W47928  44.987   0.384   4.640
76400W        W47929  32.948   4.199   0.519
76401W        W47930  19.321  21.424  10.124
76402W        W47931  13.112  15.250  10.991
76403W        W47932  15.893  19.798  11.943
76404W        W47933  32.927  25.218   1.198
76405W        W47934  44.303   2.228  12.406
76406W        W47935  25.592  13.283   0.937
76407W        W47936  38.147  15.533  13.486
76408W        W47937  18.671  13.198  11.637
76409W        W47938   2.075  36.410   4.904
76410W        W47939  29.555  15.078   0.781
76411W        W47940  36.483  19.876   0.490
76412W        W47941  21.995  29.860   1.066
76413W        W47942  25.260  39.943  13.269
76414W        W47943  14.804  14.536  13.900
76415W        W47944   8.324  44.106   4.104
76416W        W47945  38.873   8.822  12.878
76417W        W47946  20.849  35.852  12.682
76418W        W47947  34.601   7.478  12.087
76419W        W47948  11.763  21.786   2.199
76420W        W47949  32.216  38.135   2.261
76421W        W47950  18.772  39.530   2.598
76422W        W47951   2.497   1.287  11.203
76423W        W47952  19.315  39.119  11.490
76424W        W47953  39.095  32.828  14.806
76425W        W47954  12.253  32.876   4.165
76426W        W47955  39.451  13.010  13.486
76427W        W47956  17.190   6.369  11.598
76428W        W47957  12.566  36.715   0.433
76429W        W47958  36.616   1.178  14.814
76430W        W47959  36.293  34.255   2.082
76431W        W47960  16.106  12.021   0.850
76432W        W47961  21.665   1.581   3.668
76433W        W47962  38.934  39.328   0.196
76434W        W47963  42.399  33.102   1.263
76435W        W47964  36.404  25.671  11.290
76436W        W47965   2.720  33.646   1.378
76437W        W47966   6.190   5.924   4.623
76438W        W47967  13.743  23.457  11.218
76439W        W47968  24.725  15.133   4.281
76440W        W47969  22.312   5.480   0.083
76441W        W47970   6.791  36.075  12.697
76442W        W47971  41.801  28.589   2.783
76443W        W47972  35.776   3.532   1.744
76444W        W47973  33.608   9.311   1.719
76445W        W47974  38.614  39.460  13.430
76446W        W47975  36.843  43.279  10.866
76447W        W47976  39.508  20.038   3.781
76448W        W47977   3.512  20.832  13.568
76449W        W47978   9.794  39.500   2.644
76450W        W47979   1.167  29.571  13.960
76451W        W47980   6.311  35.408   4.564
76452W        W47981   6.000  27.543  12.593
76453W        W47982  40.075  13.053  14.393
76454W        W47983  22.638  28.766  14.544
76455W        W47984   0.550   8.290  12.107
76456W        W47985  37.568   9.846  13.455
76457W        W47986  38.504   2.940   2.958
76458W        W47987   6.415  25.566   0.653
76459W        W47988   5.220  29.108   3.068
76460W        W47989  34.064  19.287   0.502
76461W        W47990  11.208  18.645  14.990
76462W        W47991   7.466  42.897  12.958
76463W        W47992  37.116  23.072   2.215
76464W        W47993  30.941   2.951   0.450
76465W        W47994  28.284  25.084  12.975
76466W        W47995  36.136  42.251   2.703
76467W        W47996  42.869  39.224  12.269
76468W        W47997   9.790  17.548   0.713
76469W        W47998  29.650  43.790  14.402
76470W        W47999   7.513  39.473   1.004
76471W        W48000  19.519   4.896  12.520
76472W        W48001  17.526  44.728   4.267
76473W        W48002  31.831  17.336  13.926
76474W        W48003  10.389  39.875  13.591
76475W        W48004  14.217   4.708   2.424
76476W        W48005  10.148   6.918   3.259
76477W        W48006  26.720  16.779   4.133
76478W        W48007   9.774  29.473   2.662
76479W        W48008  17.469  43.772   4.564
76480W        W48009   8.564  39.492   4.546
76481W        W48010  16.478  29.544  14.789
76482W        W48011  14.368  20.826   2.188
76483W        W48012   1.364  38.081   2.573
76484W        W48013   1.306  30.310   1.845
76485W        W48014  26.674  13.137   2.222
76486W        W48015   1.766  28.152  10.683
76487W        W48016  36.065  10.389  11.634
76488W        W48017  27.209  35.490  13.558
76489W        W48018  31.349  17.197  13.567
76490W        W48019  18.106  41.119  11.051
76491W        W48020  21.392  11.878   2.701
76492W        W48021  43.780   1.357  12.490
76493W        W48022  24.883  13.372   2.269
76494W        W48023  36.317  10.590  14.357
76495W        W48024  10.404  21.586   0.611
76496W        W48025  39.167  25.481  12.294
76497W        W48026  31.035  37.026  13.284
76498W        W48027  29.403  21.734   3.857
76499W        W48028  35.539  34.402  12.472
76500W        W48029   2.993   7.207   1.838
76501W        W48030  27.070   8.364  10.698
76502W        W48031  30.522   7.663  13.792
76503W        W48032  15.968  17.936   1.118
76504W        W48033  26.992  22.672   3.734
76505W        W48034  24.177   7.328  14.022
76506W        W48035  39.299  12.074   0.811
76507W        W48036  35.030  15.108  13.014
76508W        W48037  12.036  10.915   3.220
76509W        W48038   6.231   7.147  12.956
76510W        W48039  39.089   2.287  12.583
76511W        W48040  23.475  14.844  12.184
76512W        W48041  32.262  15.581  14.396
76513W        W48042  42.725  36.868   1.416
76514W        W48043  27.607  44.904  14.488
76515W        W48044  34.088  29.553   3.286
76516W        W48045  41.044  14.611  12.669
76517W        W48046   4.423  12.855   0.448
76518W        W48047  44.545  19.381  10.506
76519W        W48048  20.290  28.194   4.578
76520W        W48049  29.457  34.261   2.388
76521W        W48050  27.837   0.810  11.437
76522W        W48051  33.795  24.920   0.624
76523W        W48052  38.083  34.414  10.714
76524W        W48053  27.529  27.871  13.860
76525W        W48054  42.563  21.017  11.092
76526W        W48055  25.594   8.175   4.598
76527W        W48056  41.046  26.784  12.372
76528W        W48057   4.472  18.610   0.467
76529W        W48058   8.848  19.491  14.407
76530W        W48059  23.078  21.037  10.566
76531W        W48060   5.668  25.633  12.552
76532W        W48061  14.790   6.699  11.177
76533W        W48062  10.483  20.708  12.363
76534W        W48063  31.879  35.859  10.663
76535W        W48064  20.593  38.317   4.162
76536W        W48065  28.725   5.891  14.978
76537W        W48066   1.698  18.976  11.634
76538W        W48067  40.142   0.385   4.343
76539W        W48068  27.078   5.153   1.726
76540W        W48069  33.363   0.231  13.094
76541W        W48070  40.946  15.035  10.558
76542W        W48071  44.052  10.754   3.775
76543W        W48072  43.827  22.979  12.519
76544W        W48073  12.810   3.699   3.665
76545W        W48074   5.928  33.731   4.898
76546W        W48075   5.791  27.928  13.393
76547W        W48076  41.889  10.634  14.049
76548W        W48077  16.512  17.444  14.572
76549W        W48078  43.037  11.074   4.179
76550W        W48079   3.417  17.336   0.010
76551W        W48080  10.314   5.365   0.326
76552W        W48081  36.058  31.648  12.247
76553W        W48082   7.813  19.135   1.290
76554W        W48083   6.334  43.350  13.800
76555W        W48084   1.804   2.876  11.273
76556W        W48085  36.279  28.452   1.906
76557W        W48086  21.665  22.923   4.003
76558W        W48087  31.627  24.907  12.121
76559W        W48088  43.508   2.917  14.475
76560W        W48089  11.088  40.408   0.353
76561W        W48090  43.885  14.069  10.570
76562W        W48091  43.740  35.176   0.354
76563W        W48092  31.793  19.723   2.714
76564W        W48093   4.712   3.413  12.596
76565W        W48094  10.830  30.406  14.389
76566W        W48095  31.885  18.591   0.512
76567W        W48096  22.543  14.775  13.602
76568W        W48097  19.748  44.351   1.435
76569W        W48098   7.820  22.744  11.890
76570W        W48099  10.961  18.745  10.539
76571W        W48100   6.764  32.446   4.431
76572W        W48101  28.162  40.215   0.374
76573W        W48102   7.265  21.109   2.637
76574W        W48103  11.241   5.192   2.228
76575W        W48104  15.994  38.475   3.623
76576W        W48105  17.409  25.211  13.022
76577W        W48106  34.887  14.350   0.763
76578W        W48107  18.584  30.428  13.509
76579W        W48108   9.939  40.545  12.631
76580W        W48109   4.749   4.451  11.726
76581W        W48110  10.801   3.871  13.054
76582W        W48111   8.911   2.969   3.357
76583W        W48112  19.196  19.769   3.741
76584W        W48113   9.710  43.399   2.219
76585W        W48114  30.357  19.501   0.867
76586W        W48115  21.600  26.648   2.754
76587W        W48116  24.384  11.294   3.437
76588W        W48117  29.088  31.504   2.975
76589W        W48118  19.595  42.436  12.559
76590W        W48119   3.966  39.019   3.577
76591W        W48120  16.071  37.755   1.620
76592W        W48121  35.341  12.149   1.250
76593W        W48122  16.706   7.860   0.045
76594W        W48123  15.858   9.208  12.704
76595W        W48124   2.007  20.629   3.214
76596W        W48125  28.783  15.660  13.652
76597W        W48126  40.431  40.434   1.427
76598W        W48127  24.253  28.668  14.745
76599W        W48128  19.521  15.623   2.456
76600W        W48129  33.811  38.010   3.183
76601W        W48130   7.277   5.561   1.478
76602W        W48131  14.862  44.267  12.151
76603W        W48132  29.673   6.368   2.396
76604W        W48133  40.223   9.875   3.721
76605W        W48134   5.311  25.387  13.482
76606W        W48135  36.467  27.177  14.452
76607W        W48136   6.133  42.470   0.822
76608W        W48137  40.453   6.206   3.374
76609W        W48138  12.522  17.037  12.506
76610W        W48139  14.555  44.835   1.843
76611W        W48140  26.463  38.870  13.805
76612W        W48141   4.894  22.507  10.596
76613W        W48142  13.060   6.509  11.416
76614W        W48143  30.578  42.154  11.479
76615W        W48144  40.155  39.773   3.671
76616W        W48145  15.527  39.311   1.972
76617W        W48146  12.208  44.000  14.508
76618W        W48147   9.886  30.553   2.086
76619W        W48148  40.989  25.077   2.351
76620W        W48149  24.953  21.141   0.224
76621W        W48150  30.477  42.953   4.857
76622W        W48151  43.810  35.554   0.830
76623W        W48152  26.340  34.537  14.684
76624W        W48153  16.346  17.045   2.349
76625W        W48154   4.798  36.453   4.530
76626W        W48155  34.821  28.358  12.973
76627W        W48156  11.667  40.837  13.399
76628W        W48157  29.227   6.692   4.887
76629W        W48158  38.417  10.291  12.673
76630W        W48159  40.359  41.439   3.227
76631W        W48160  29.060  37.967   4.292
76632W        W48161   1.247   7.233   1.387
76633W        W48162  15.134  24.436   1.968
76634W        W48163  14.638  26.057  14.244
76635W        W48164   3.713  26.521  12.981
76636W        W48165  30.665  43.795  12.409
76637W        W48166   9.144   5.458  12.858
76638W        W48167   4.790  13.340   1.194
76639W        W48168  30.805  26.163   1.386
76640W        W48169   2.313  10.717  11.074
76641W        W48170  44.303  32.391   3.230
76642W        W48171   8.287  33.081   4.705
76643W        W48172  43.035  31.239  14.831
76644W        W48173   9.875  22.233  11.358
76645W        W48174  39.072  39.260  13.526
76646W        W48175  19.218   2.840   0.989
76647W        W48176  30.963  40.120  14.326
76648W        W48177   3.153   5.323  13.149
76649W        W48178  26.191  34.282  12.502
76650W        W48179  36.317   9.953  11.526
76651W        W48180   9.172  38.908  12.085
76652W        W48181   4.276  33.189   4.701
76653W        W48182  15.409  24.167  13.943
76654W        W48183   5.489   2.594   2.210
76655W        W48184  20.936  31.924   1.432
76656W        W48185  42.414   6.198  13.362
76657W        W48186  40.813  23.122  10.706
76658W        W48187   7.324  22.257   2.223
76659W        W48188  21.632  37.874  13.309
76660W        W48189  43.412  42.060   2.626
76661W        W48190  34.891  29.920  12.881
76662W        W48191  21.351  22.624  13.920
76663W        W48192  39.123   8.677  11.080
76664W        W48193  13.159  21.070  11.107
76665W        W48194  37.330  20.093  12.561
76666W        W48195   6.069  14.806   1.012
76667W        W48196  12.845  42.069  11.711
76668W        W48197  36.561  29.919  11.702
76669W        W48198  36.776  43.596   0.536
76670W        W48199  18.728   9.492   5.104
76671W        W48200  41.807   2.005   4.105
76672W        W48201   2.441  23.556   2.681
76673W        W48202  25.030  37.502  14.407
76674W        W48203   6.654  41.351  14.257
76675W        W48204  26.189  20.045   0.421
76676W        W48205   3.052  38.393   2.246
76677W        W48206   3.899  33.106  13.802
76678W        W48207  44.023  20.351  12.689
76679W        W48208   7.156  21.411   4.586
76680W        W48209   8.053   4.407  10.392
76681W        W48210  13.309  22.941  10.733
76682W        W48211  25.686  20.264   0.397
76683W        W48212  43.711  10.287   3.638
76684W        W48213   5.709  12.336   0.472
76685W        W48214   4.158  33.593  13.910
76686W        W48215  36.502  16.227   4.569
76687W        W48216  40.527  38.371  13.963
76688W        W48217  41.211  14.792  14.162
76689W        W48218  17.896  41.569   0.718
76690W        W48219  43.528  38.014  14.565
76691W        W48220  20.991  11.715   4.096
76692W        W48221  44.339  27.919  13.024
76693W        W48222  35.876  38.382  14.025
76694W        W48223   9.416  18.019  14.869
76695W        W48224   5.488  33.535   2.446
76696W        W48225   0.028  33.537   2.846
76697W        W48226   2.497   2.490  12.661
76698W        W48227  34.097  33.072  12.050
76699W        W48228   7.792  30.004   0.149
76700W        W48229  13.197  18.798  13.819
76701W        W48230   7.706   3.793   3.753
76702W        W48231  42.997  35.973  13.253
76703W        W48232  35.970  20.564   4.698
76704W        W48233   9.811  31.407   0.703
76705W        W48234  23.209   4.385   3.695
76706W        W48235  25.701  23.008  14.848
76707W        W48236  10.167  18.034  10.637
76708W        W48237  20.480  44.995  11.231
76709W        W48238  13.109  23.769   4.227
76710W        W48239  28.136  23.791   3.289
76711W        W48240  28.616  42.957  11.773
76712W        W48241  30.978   2.964   1.397
76713W        W48242   5.864  29.988  12.419
76714W        W48243   4.987  32.422  13.136
76715W        W48244  19.024  15.592  10.716
76716W        W48245  28.975   9.781  11.538
76717W        W48246  40.257  44.862   1.381
76718W        W48247  12.574   4.251   4.508
76719W        W48248  27.648  36.967  14.763
76720W        W48249  33.492  15.080   4.814
76721W        W48250  31.112   7.856   0.388
76722W        W48251  28.018  29.805  10.355
76723W        W48252  15.798   8.230   3.086
76724W        W48253  31.019  25.586   3.790
76725W        W48254   8.776   5.710   1.963
76726W        W48255  23.617   0.713  13.047
76727W        W48256  32.406  21.280  12.978
76728W        W48257  39.255  25.583  11.806
76729W        W48258  40.787  43.292   2.320
76730W        W48259  21.681   9.159   3.726
76731W        W48260  14.854  41.495  13.859
76732W        W48261  21.783   8.974   5.020
76733W        W48262  25.188  32.031   0.173
76734W        W48263  28.001   4.747  11.131
76735W        W48264  42.911  24.708  10.546
76736W        W48265  21.100  13.446   4.908
76737W        W48266  28.880  29.716  13.437
76738W        W48267  28.671   7.210   1.172
76739W        W48268  13.568   5.676  12.909
76740W        W48269  44.392  25.786  14.908
76741W        W48270  24.640  37.053   3.708
76742W        W48271  13.211  41.631  13.297
76743W        W48272  27.457   7.160  12.072
76744W        W48273   4.778  44.842   1.716
76745W        W48274  40.030  32.080  14.506
76746W        W48275  11.167  16.915  14.977
76747W        W48276  40.246  16.680  10.741
76748W        W48277  28.836   3.932  10.519
76749W        W48278  30.608  35.299  13.846
76750W        W48279   6.871  13.077  13.378
76751W        W48280  28.366  29.236  12.809
76752W        W48281  11.604   0.865   2.542
76753W        W48282   6.028   4.006   3.417
76754W        W48283  31.140  32.085   1.810
76755W        W48284  29.178  39.519  14.944
76756W        W48285   1.339  40.605   2.191
76757W        W48286  34.674   1.732  12.074
76758W        W48287  27.503  43.681  13.267
76759W        W48288  15.594   6.217   2.209
76760W        W48289  44.792  31.443   4.066
76761W        W48290  23.706   2.010   4.783
76762W        W48291  35.719  27.049  12.454
76763W        W48292  23.294  23.674  14.346
76764W        W48293  28.556  34.643   0.476
76765W        W48294  23.238  31.492  13.079
76766W        W48295  32.535  25.016   1.942
76767W        W48296  43.357  43.392   4.611
76768W        W48297  12.607   6.272   3.107
76769W        W48298  11.592  12.356   1.893
76770W        W48299   8.257  27.085  12.028
76771W        W48300   8.696  39.061  14.851
76772W        W48301  10.597  13.968   1.719
76773W        W48302  18.114  34.963   2.059
76774W        W48303  33.446  42.832  10.608
76775W        W48304  36.133  42.873  11.572
76776W        W48305   1.657  23.431   4.349
76777W        W48306  32.989   4.245   4.820
76778W        W48307  39.319  32.414   4.151
76779W        W48308  19.194  24.083   2.239
76780W        W48309  33.123   3.393  13.897
76781W        W48310   5.194   5.252   1.378
76782W        W48311  10.769  18.259   1.957
76783W        W48312  27.684   4.812   0.884
76784W        W48313  10.817  37.086   1.463
76785W        W48314   0.301  13.194  12.846
76786W        W48315  39.210   1.711  12.496
76787W        W48316  38.821  16.540  11.062
76788W        W48317   5.926  39.951   3.805
76789W        W48318  32.374  27.126  10.755
76790W        W48319   2.915   1.642   0.925
76791W        W48320  33.615  35.577  10.279
76792W        W48321   4.175  12.647  10.733
76793W        W48322  38.504   8.901   3.512
76794W        W48323  11.711  13.664   0.081
76795W        W48324  13.282  12.276  13.442
76796W        W48325  20.703  42.093   4.557
76797W        W48326  14.105  10.425   4.101
76798W        W48327  17.327   9.433  10.864
76799W        W48328  37.113   2.856  11.039
76800W        W48329   8.212   5.887  10.419
76801W        W48330  32.983  23.428  12.587
76802W        W48331  22.122  26.009   4.969
76803W        W48332  35.662  42.376  12.515
76804W        W48333  40.779  14.235  13.508
76805W        W48334  14.189  40.412   1.734
76806W        W48335  33.975  27.675   1.451
76807W        W48336  43.594  38.339   0.873
76808W        W48337   6.103   6.819   3.477
76809W        W48338  33.909  22.392  10.759
76810W        W48339  28.835  23.455  13.197
76811W        W48340  44.837  19.654  10.845
76812W        W48341  23.985  38.123  13.814
76813W        W48342  14.758  37.861   2.809
76814W        W48343   8.952  39.985  14.412
76815W        W48344   9.375  32.864   3.175
76816W        W48345  12.493  12.846  11.876
76817W        W48346   5.789  30.176  14.954
76818W        W48347  27.384  35.075  11.163
76819W        W48348  22.979  37.259   5.005
76820W        W48349  39.375  20.726  14.835
76821W        W48350  24.015   5.034  12.677
76822W        W48351  44.742   6.770   4.784
76823W        W48352  20.377   3.587  13.963
76824W        W48353  30.540   6.401  14.818
76825W        W48354  13.300  34.611  13.414
76826W        W48355   1.407  24.585  14.536
76827W        W48356  37.431  36.966   1.431
76828W        W48357  21.933  30.287   2.737
76829W        W48358  26.136   0.073  14.738
76830W        W48359  14.286  42.694  13.757
76831W        W48360  35.393  37.298   2.637
76832W        W48361  28.019   8.237   4.376
76833W        W48362  36.094  23.758   3.199
76834W        W48363  39.680  14.046  12.375
76835W        W48364   7.883  34.541  14.309
76836W        W48365  19.473  17.677  13.006
76837W        W48366   0.068  14.071   4.950
76838W        W48367  21.121  33.836   2.760
76839W        W48368   0.457  32.987   2.788
76840W        W48369  21.870  38.616   0.180
76841W        W48370   7.840  28.076  13.854
76842W        W48371  14.743  36.037  13.041
76843W        W48372  24.573  27.855   4.627
76844W        W48373  27.034  40.000  14.551
76845W        W48374   5.894  38.827  14.908
76846W        W48375  26.846  32.342   2.374
76847W        W48376  10.122   5.203  14.876
76848W        W48377  28.462  25.628   4.926
76849W        W48378  27.618  28.435   2.972
76850W        W48379  39.613  16.492   0.902
76851W        W48380  34.572  38.444   4.950
76852W        W48381   3.174  12.030   0.363
76853W        W48382  31.485  10.119   1.722
76854W        W48383   8.090   9.852  14.785
76855W        W48384  34.009  14.191  13.391
76856W        W48385  23.534  31.358   3.637
76857W        W48386  24.722  24.664  12.916
76858W        W48387   2.408  19.694   3.156
76859W        W48388  18.598  26.965  12.489
76860W        W48389  21.496  15.167   2.395
76861W        W48390  37.180  21.115  14.540
76862W        W48391  13.739  26.152   4.114
76863W        W48392   7.547  15.540  14.803
76864W        W48393  44.737   8.247   3.353
76865W        W48394  21.859  35.969   4.015
76866W        W48395  28.497   4.987   3.758
76867W        W48396  17.418  44.101   0.312
76868W        W48397  14.678  39.489  10.884
76869W        W48398   0.995  22.494  13.246
76870W        W48399  40.172  28.188  13.169
76871W        W48400   0.320  14.525  13.538
76872W        W48401  29.827  42.369   0.752
76873W        W48402  41.802  22.849   4.196
76874W        W48403   0.311  38.878  13.288
76875W        W48404   3.300  18.526   4.734
76876W        W48405  14.376  19.261  13.431
76877W        W48406   1.368  13.044   3.177
76878W        W48407  15.583  25.965  14.402
76879W        W48408  21.086  26.751  13.955
76880W        W48409  44.066  16.029  12.125
76881W        W48410  36.503   5.228   0.497
76882W        W48411  23.739   6.923   3.271
76883W        W48412  18.370  34.418  12.496
76884W        W48413   3.934  18.035  13.905
76885W        W48414   2.326   9.766   3.675
76886W        W48415  12.730  22.830  11.283
76887W        W48416   9.792  12.885   0.984
76888W        W48417   2.037  30.161  13.060
76889W        W48418  17.611  34.972  11.485
76890W        W48419   9.276  15.507  14.830
76891W        W48420  21.764  39.901  12.390
76892W        W48421   1.532  14.082  11.511
76893W        W48422  21.189  24.620   3.321
76894W        W48423  37.317   1.368   0.848
76895W        W48424   0.373  10.648  11.518
76896W        W48425  17.162   5.388  11.484
76897W        W48426  18.786  22.794   3.675
76898W        W48427   5.014  15.090   2.783
76899W        W48428  15.157  26.510  12.077
76900W        W48429  40.303  19.589   0.226
76901W        W48430   3.467  16.592   3.827
76902W        W48431   8.123  41.065  14.343
76903W        W48432  28.044  43.073  14.312
76904W        W48433  24.546  35.661   1.923
76905W        W48434  31.145  40.452   0.250
76906W        W48435  29.478  23.164   0.360
76907W        W48436  28.788  15.750   4.868
76908W        W48437  32.504  27.979   2.252
76909W        W48438  29.431  11.250  14.340
76910W        W48439   4.987  20.762  13.253
76911W        W48440  36.495   0.329  10.884
76912W        W48441   4.415  35.854  14.331
76913W        W48442  14.651  10.228   2.677
76914W        W48443   1.009   4.536  11.739
76915W        W48444  44.268  33.102  14.673
76916W        W48445  35.535  17.105   1.830
76917W        W48446  39.269  11.167  14.737
76918W        W48447  13.029   8.120  11.531
76919W        W48448  12.818   8.040   1.861
76920W        W48449  35.602   1.682   1.760
76921W        W48450  14.808  11.217  11.585
76922W        W48451  27.002  11.793  13.773
76923W        W48452  22.665  41.046   2.691
76924W        W48453  32.604  33.866  12.117
76925W        W48454  25.732  28.339   1.011
76926W        W48455   6.644   0.213   1.350
76927W        W48456  10.844  25.720   4.105
76928W        W48457  12.945  40.689  11.186
76929W        W48458  26.465  25.041   2.690
76930W        W48459  38.354   6.428   0.230
76931W        W48460   4.328  13.604  13.098
76932W        W48461  40.510   7.641  12.466
76933W        W48462  36.000  15.482  12.121
76934W        W48463  32.011  21.385   5.085
76935W        W48464  36.770  29.577  14.126
76936W        W48465  35.037  14.480   3.195
76937W        W48466   8.619  40.929   2.123
76938W        W48467  38.006  44.722  13.513
76939W        W48468  39.504  38.247  14.864
76940W        W48469  35.743   0.214   4.027
76941W        W48470  15.871   5.846  11.821
76942W        W48471  11.138  36.998   0.243
76943W        W48472  35.996  31.140   1.011
76944W        W48473  30.515  24.205   2.348
76945W        W48474  12.241  38.533  13.517
76946W        W48475  18.630  25.381  11.886
76947W        W48476  13.231  18.987  14.318
76948W        W48477  28.553  21.619  13.120
76949W        W48478   1.848  23.683   3.502
76950W        W48479  44.545   3.437  11.130
76951W        W48480   2.252  22.831   4.114
76952W        W48481   8.705  31.709   0.749
76953W        W48482  33.682  36.087   3.252
76954W        W48483   0.549  18.586   3.251
76955W        W48484  43.087   7.250   4.182
76956W        W48485  17.063  25.968   3.371
76957W        W48486  10.811  24.282   4.775
76958W        W48487   7.855  43.220  12.585
76959W        W48488  43.526  43.798   2.171
76960W        W48489  41.971   9.859   3.688
76961W        W48490  38.013  12.599  11.153
76962W        W48491   2.840  34.595  13.352
76963W        W48492  42.236  11.633  12.866
76964W        W48493  23.371  43.753   0.702
76965W        W48494  21.073  34.433  14.564
76966W        W48495  26.414  24.221   1.141
76967W        W48496   8.907  16.647  14.409
76968W        W48497  44.876  34.208   0.943
76969W        W48498   3.774  28.871  14.078
76970W        W48499  44.313  38.994  10.501
76971W        W48500  16.018  33.826   3.147
76972W        W48501  23.482   1.149  12.205
76973W        W48502  32.440  22.845   9.806
76974W        W48503  41.448  15.328  13.035
76975W        W48504   4.984  29.542   5.022
76976W        W48505  21.512   5.108  11.976
76977W        W48506  23.684  12.556   2.786
76978W        W48507   3.774   8.998   3.612
76979W        W48508  31.636  27.677   1.015
76980W        W48509  21.423   9.161   2.547
76981W        W48510  29.632  28.748   4.028
76982W        W48511  40.864   2.350   1.915
76983W        W48512  25.014  21.943  10.693
76984W        W48513  11.525  24.688   0.483
76985W        W48514   3.192  33.630  11.701
76986W        W48515  19.942  15.634  14.865
76987W        W48516  43.683   3.668   0.370
76988W        W48517  38.866  36.333   3.938
76989W        W48518  16.729  28.635  13.068
76990W        W48519  44.461  25.112   4.888
76991W        W48520  11.746  42.589   2.683
76992W        W48521  29.264  28.444   0.426
76993W        W48522  29.194  42.791   4.860
76994W        W48523   7.325  44.667   3.406
76995W        W48524  22.022  22.448  11.643
76996W        W48525  14.914  31.047  10.711
76997W        W48526  42.603   3.754  12.613
76998W        W48527   6.343   8.906  10.821
76999W        W48528  37.488  18.009   2.665
77000W        W48529  31.861   6.387  11.897
77001W        W48530  30.064  42.455   2.899
77002W        W48531  32.087  37.779   1.718
77003W        W48532  21.162  18.774  11.974
77004W        W48533   1.237  33.580  13.848
77005W        W48534  30.378  17.037  10.978
77006W        W48535  40.444  27.170   0.302
77007W        W48536  42.974  24.084   3.132
77008W        W48537  34.854  24.191  14.561
77009W        W48538  41.518   7.664   1.610
77010W        W48539  17.849  39.393  11.948
77011W        W48540  27.106  22.541  13.400
77012W        W48541  28.048  32.514   4.614
77013W        W48542  14.255   6.208  10.754
77014W        W48543  16.470  33.384  13.722
77015W        W48544  11.129  24.133   2.816
77016W        W48545   1.393  36.578  12.549
77017W        W48546  43.881   3.869  14.494
77018W        W48547   1.923   1.748  12.573
77019W        W48548  33.049  19.598  14.721
77020W        W48549  23.181   7.830   0.370
77021W        W48550   1.432   5.174  14.095
77022W        W48551  27.410   5.623   4.441
77023W        W48552   2.465  39.798  13.409
77024W        W48553  19.811   1.770  14.519
77025W        W48554  37.475  16.047   2.244
77026W        W48555  25.128   4.933  14.344
77027W        W48556  40.262  38.158   1.725
77028W        W48557   8.197   7.967  11.468
77029W        W48558   0.912  36.093  14.165
77030W        W48559  39.254  39.934  13.939
77031W        W48560   0.089  26.217   3.512
77032W        W48561   8.488   3.847  12.909
77033W        W48562  24.907  39.568   2.329
77034W        W48563  41.231  10.698   1.251
77035W        W48564  21.784  21.170  11.015
77036W        W48565  26.262  12.373  13.406
77037W        W48566  37.096  35.456  13.180
77038W        W48567  44.675   2.939  11.211
77039W        W48568  12.452  16.651   2.392
77040W        W48569  18.086  37.562   2.008
77041W        W48570  10.307   1.721  11.501
77042W        W48571  16.131   4.769   4.184
77043W        W48572  37.509  14.576   2.853
77044W        W48573  35.937  11.420  11.392
77045W        W48574  28.412  13.146  10.590
77046W        W48575  41.486  17.666   0.965
77047W        W48576  37.711  14.331  13.192
77048W        W48577  23.191  11.585  13.036
77049W        W48578   4.887   5.234  13.568
77050W        W48579  12.563  35.306   1.733
77051W        W48580  13.888  17.075   2.223
77052W        W48581  34.924  31.093  10.522
77053W        W48582   7.347   7.254   2.701
77054W        W48583   0.348  37.822  13.308
77055W        W48584  15.790  17.822   2.010
77056W        W48585  34.400  26.995   1.433
77057W        W48586   9.055   2.000  11.086
77058W        W48587   5.209  36.917   1.760
77059W        W48588  18.801   7.856  13.035
77060W        W48589  39.873  21.298  11.972
77061W        W48590  14.743  16.228   2.714
77062W        W48591  30.412   1.291   0.203
77063W        W48592  30.364  27.707   4.107
77064W        W48593   9.099  20.030  10.625
77065W        W48594  31.475   5.245   0.374
77066W        W48595  10.435  11.436  13.929
77067W        W48596  17.272  17.713  14.962
77068W        W48597   1.432  16.553  14.534
77069W        W48598  36.311  24.223   3.214
77070W        W48599  32.844  32.007  11.124
77071W        W48600  26.650  33.613  11.893
77072W        W48601  10.414  29.510   1.430
77073W        W48602  37.527  27.480  14.475
77074W        W48603   0.199   3.425  13.467
77075W        W48604  25.738  30.280  14.489
77076W        W48605  31.223  33.909   4.029
77077W        W48606  40.043  26.174  11.147
77078W        W48607  29.479  10.916  14.731
77079W        W48608  31.059   2.222   4.689
77080W        W48609  28.493  24.161   2.915
77081W        W48610  35.744   0.309   0.839
77082W        W48611  13.560  37.450   3.014
77083W        W48612  39.712  18.994  10.770
77084W        W48613  28.129  37.972   4.970
77085W        W48614  43.843  14.370  14.336
77086W        W48615  34.661  30.927   3.673
77087W        W48616   7.443   1.672   2.453
77088W        W48617  41.021  42.571  11.114
77089W        W48618  27.642  30.908  10.617
77090W        W48619  13.361   4.766  10.552
77091W        W48620  10.157  38.271   2.893
77092W        W48621  40.749  31.579   4.310
77093W        W48622   0.498   7.733   4.246
77094W        W48623   9.362  23.636  10.919
77095W        W48624  25.282  25.557   0.566
77096W        W48625  15.619  24.024  12.462
77097W        W48626   3.456  11.874  12.504
77098W        W48627  34.449  44.954   2.730
77099W        W48628  15.157  34.623   2.858
77100W        W48629  35.479  44.277  11.933
77101W        W48630  10.649  43.674   5.424
77102W        W48631  37.738   9.850   2.668
77103W        W48632  33.560  43.972   4.660
77104W        W48633  17.652  23.111  13.879
77105W        W48634  40.308  29.673   1.430
77106W        W48635  36.945   1.748  12.470
77107W        W48636  39.455  37.432  13.956
77108W        W48637  36.858  20.622  14.360
77109W        W48638   6.114  40.187  10.369
77110W        W48639   7.498  13.826  12.348
77111W        W48640  27.697   5.938  14.814
77112W        W48641   3.170  14.634   1.332
77113W        W48642   8.518  35.205   0.910
77114W        W48643  33.002  14.697   0.292
77115W        W48644  31.880  27.269   3.215
77116W        W48645  41.497   3.468   3.814
77117W        W48646   6.773  16.857  13.712
77118W        W48647  16.320  43.071   3.843
77119W        W48648   7.811   3.417  13.414
77120W        W48649   5.541  25.115   1.320
77121W        W48650  28.088  25.549   1.896
77122W        W48651  15.547   4.024   4.114
77123W        W48652  29.084  13.516  10.354
77124W        W48653  28.371  44.935  11.506
77125W        W48654  17.327  14.200   2.442
77126W        W48655  34.496   6.499   1.092
77127W        W48656  33.042  18.149  10.869
77128W        W48657  12.848  20.685  14.908
77129W        W48658  10.999   6.771  11.789
77130W        W48659  12.631   5.774  13.942
77131W        W48660   7.458  40.835  11.123
77132W        W48661  32.565  42.847   2.705
77133W        W48662  27.527   8.387   3.631
77134W        W48663   3.967  20.027  12.419
77135W        W48664  16.734  23.265   1.849
77136W        W48665  17.150  35.377   1.416
77137W        W48666  12.612  29.206  14.120
77138W        W48667  44.448  15.784  12.530
77139W        W48668   1.614  33.861   4.545
77140W        W48669  14.120  12.294  13.568
77141W        W48670  35.348  36.780  13.133
77142W        W48671   9.660  40.032   1.251
77143W        W48672   5.118  18.382  12.941
77144W        W48673  38.866  42.492   0.331
77145W        W48674  10.147  14.843   0.859
77146W        W48675   0.570  22.288  14.274
77147W        W48676  40.464   2.551   2.506
77148W        W48677  36.536  12.665  11.609
77149W        W48678  28.927   2.651  11.628
77150W        W48679  10.369  31.361   0.938
77151W        W48680  28.507  18.203  12.104
77152W        W48681  28.230  20.209   3.773
77153W        W48682  41.166  42.498  12.959
77154W        W48683   5.370  10.436  12.530
77155W        W48684  18.782  19.277   9.936
77156W        W48685  37.620   9.579   2.224
77157W        W48686  32.063  23.833  14.794
77158W        W48687   5.894  34.867  12.597
77159W        W48688  14.228  41.225  11.192
77160W        W48689  41.552  10.643  13.649
77161W        W48690  31.387  31.945  10.378
77162W        W48691  24.085  44.514   0.316
77163W        W48692  27.707  30.634   3.655
77164W        W48693  27.487   2.268   2.781
77165W        W48694   6.269  16.828  11.484
77166W        W48695  11.703  32.976   0.847
77167W        W48696  34.452  34.615   1.009
77168W        W48697  37.357  38.071   4.150
77169W        W48698   4.404   1.284  11.546
77170W        W48699  33.367  13.296  13.251
77171W        W48700  40.635  21.965  14.899
77172W        W48701   2.525  30.786  10.731
77173W        W48702  40.656   5.867   0.281
77174W        W48703   2.162  19.748  14.982
77175W        W48704  37.322  21.773   2.308
77176W        W48705  16.768  27.071   2.080
77177W        W48706  23.540  15.793  14.419
77178W        W48707   8.680  19.311  13.950
77179W        W48708  25.624  36.915   4.157
77180W        W48709  42.125  26.517  11.990
77181W        W48710  16.129  11.716   1.282
77182W        W48711  44.695   5.800   4.696
77183W        W48712  36.139   8.279   2.658
77184W        W48713  37.498   7.825  10.786
77185W        W48714  14.332  23.256   2.422
77186W        W48715  39.660  31.080  13.563
77187W        W48716  22.048  22.244   3.697
77188W        W48717  33.504  41.069  11.155
77189W        W48718  37.664  18.998  13.876
77190W        W48719  21.646  36.353  11.598
77191W        W48720  20.849  38.994   1.023
77192W        W48721   9.692  10.874   1.946
77193W        W48722  22.321  35.458   1.819
77194W        W48723  22.142  42.606   4.108
77195W        W48724  24.552  35.874   3.244
77196W        W48725   2.327  14.105   4.593
77197W        W48726  42.021  32.898  14.070
77198W        W48727  33.319  29.684   3.790
77199W        W48728  24.801  31.814   5.004
77200W        W48729  42.923  33.026   4.935
77201W        W48730  18.236  12.828   3.157
77202W        W48731   7.658   2.961   0.966
77203W        W48732   9.880  29.191  12.895
77204W        W48733   8.601  16.775   0.931
77205W        W48734  39.364  40.332  11.457
77206W        W48735  12.166  44.512  12.768
77207W        W48736   5.701  37.920   2.716
77208W        W48737   0.388   0.280   3.857
77209W        W48738  20.994   2.464   3.754
77210W        W48739  17.664   7.094  11.272
77211W        W48740  25.649  33.512   3.069
77212W        W48741   4.888  29.366  11.124
77213W        W48742  38.869  34.677   0.410
77214W        W48743  25.682   9.415   3.775
77215W        W48744  32.673  15.637  10.234
77216W        W48745   9.776  26.598   1.828
77217W        W48746  15.611  10.517   4.925
77218W        W48747   9.303  43.487   4.469
77219W        W48748  14.361  16.111  13.024
77220W        W48749  36.989  39.098   3.573
77221W        W48750   1.943  32.840   1.346
77222W        W48751  43.274  30.655  14.007
77223W        W48752  39.714  19.872   2.176
77224W        W48753  34.473  18.337  13.371
77225W        W48754   0.345  26.459   1.448
77226W        W48755  38.592  39.425  12.495
77227W        W48756   4.234  34.677  13.074
77228W        W48757   0.559  15.698  11.608
77229W        W48758  33.101  22.733   3.774
77230W        W48759  27.076  27.980  13.078
77231W        W48760  22.538  43.510   2.945
77232W        W48761   0.729  33.901   3.470
77233W        W48762   3.987  38.951  13.597
77234W        W48763  29.130  37.055  11.180
77235W        W48764  30.422  31.444  14.784
77236W        W48765   0.941  25.696  11.888
77237W        W48766  32.550  39.627   3.817
77238W        W48767   0.287   9.353  12.471
77239W        W48768  37.781  41.169   4.126
77240W        W48769   6.424  40.402   4.634
77241W        W48770  23.270   2.427   1.347
77242W        W48771  15.915  42.440  12.530
77243W        W48772   6.738  34.261  13.442
77244W        W48773  15.214  11.624  13.837
77245W        W48774  44.673  30.284   1.463
77246W        W48775  41.365   6.471  13.846
77247W        W48776  22.457  26.162  14.071
77248W        W48777  14.245  44.336   1.940
77249W        W48778  24.555   6.478  10.514
77250W        W48779  22.645  19.576   0.769
77251W        W48780  34.415  28.526  13.789
77252W        W48781  37.791  11.159  13.880
77253W        W48782  22.247  10.613  13.559
77254W        W48783  39.841  35.395  14.549
77255W        W48784  11.762   8.061   2.213
77256W        W48785  16.192   9.890   1.566
77257W        W48786  13.066   5.383   4.146
77258W        W48787  29.452  30.343   4.189
77259W        W48788  23.675  21.756   3.949
77260W        W48789  29.099  16.240  10.994
77261W        W48790  20.215   7.378  13.123
77262W        W48791  30.996  33.953  12.453
77263W        W48792  29.893  14.249  12.650
77264W        W48793  28.486   7.600  12.930
77265W        W48794  26.527   2.097  14.230
77266W        W48795   6.849  11.163   2.365
77267W        W48796  22.512  18.612   0.764
77268W        W48797  25.008  34.853   1.837
77269W        W48798  39.026  24.993   2.436
77270W        W48799   4.906  11.218  13.374
77271W        W48800  17.321  35.526   2.847
77272W        W48801   0.203  37.174   3.463
77273W        W48802   3.679  12.294  11.157
77274W        W48803  16.632  11.376   2.148
77275W        W48804  39.489  39.557   2.899
77276W        W48805   1.955  18.447   0.776
77277W        W48806  18.346  23.002   1.640
77278W        W48807  41.419   5.409  14.827
77279W        W48808  23.456  32.401   2.855
77280W        W48809  29.448  28.978   0.361
77281W        W48810  18.505  18.069  14.914
77282W        W48811  11.417  12.308  11.071
77283W        W48812  35.342  10.770   3.093
77284W        W48813   2.467  44.268  12.784
77285W        W48814  17.583  24.160   4.834
77286W        W48815  15.331  28.585  13.986
77287W        W48816  37.565  43.936   0.473
77288W        W48817  25.945  13.226   4.237
77289W        W48818   1.775  25.485  13.796
77290W        W48819  42.261   0.206  13.958
77291W        W48820  44.065  11.805   0.419
77292W        W48821   4.251  17.085   0.328
77293W        W48822  25.604  27.068  13.689
77294W        W48823   3.329   8.804   3.323
77295W        W48824  42.611  25.818  14.686
77296W        W48825  20.649  10.895  14.913
77297W        W48826  19.636  23.643  13.008
77298W        W48827  15.288   0.424   3.652
77299W        W48828  22.821  26.591   1.395
77300W        W48829  25.691  34.970   0.400
77301W        W48830  13.188  16.120   1.272
77302W        W48831  41.470  43.719   1.230
77303W        W48832  20.968  31.497  12.902
77304W        W48833  26.464   6.560   3.292
77305W        W48834   0.505  32.245  14.533
77306W        W48835  26.412  16.313   0.402
77307W        W48836  13.569  12.838  10.947
77308W        W48837   3.699   4.692  11.548
77309W        W48838  28.928  19.620  12.037
77310W        W48839  38.327  25.471  10.643
77311W        W48840  41.035  21.550  12.823
77312W        W48841   5.331  25.516   4.160
77313W        W48842  24.070  30.518  12.468
77314W        W48843  36.124  25.145  11.053
77315W        W48844  23.589  41.885   4.242
77316W        W48845  36.483  41.069  11.036
77317W        W48846  15.119   7.888   1.885
77318W        W48847  40.797  34.201   3.280
77319W        W48848  31.116  26.864   4.641
77320W        W48849  26.584  32.596   4.493
77321W        W48850  22.621  26.694  12.456
77322W        W48851   8.184  30.904  12.524
77323W        W48852  27.022  23.983   3.094
77324W        W48853  39.471  14.061   0.159
77325W        W48854  27.147  29.034   1.216
77326W        W48855  16.810  43.181   2.572
77327W        W48856  13.808  32.537   0.494
77328W        W48857  14.941  14.649   0.865
77329W        W48858  36.012  28.588  14.456
77330W        W48859   7.224  24.605   0.749
77331W        W48860  42.713   5.273   4.025
77332W        W48861   3.641  25.718  12.591
77333W        W48862  14.694   2.999  12.865
77334W        W48863  13.432  44.909  11.881
77335W        W48864  42.763   6.907   4.729
77336W        W48865  19.350  22.715   1.306
77337W        W48866   2.349  43.548   4.861
77338W        W48867   8.880  14.072   1.829
77339W        W48868  12.107   2.551  13.462
77340W        W48869  14.640  36.194  14.234
77341W        W48870  25.684  30.798  11.053
77342W        W48871  14.804   0.093   0.822
77343W        W48872  31.799  12.853  11.666
77344W        W48873  31.249  31.618   1.628
77345W        W48874  27.696  18.621  11.629
77346W        W48875  20.861  20.091   4.148
77347W        W48876  43.675   7.535   5.072
77348W        W48877  19.374  42.020   3.618
77349W        W48878  41.363  22.749  12.415
77350W        W48879  22.867  22.732  13.803
77351W        W48880  27.431   2.763   2.313
77352W        W48881  31.075  24.234  13.353
77353W        W48882  36.199  12.861   1.652
77354W        W48883  32.340  23.978   1.819
77355W        W48884  43.330  16.171  15.000
77356W        W48885  11.269  44.290   0.014
77357W        W48886  18.346  25.085   0.773
77358W        W48887  33.072  39.444   0.232
77359W        W48888  10.224  15.910   4.204
77360W        W48889  44.565   8.821   4.177
77361W        W48890  42.980  38.519   3.715
77362W        W48891  16.061  11.714   4.858
77363W        W48892  36.956  11.029  14.495
77364W        W48893   7.261  13.490  11.181
77365W        W48894   4.506  14.218   2.786
77366W        W48895  24.033  17.016   1.649
77367W        W48896  10.280  21.034  11.180
77368W        W48897  17.855  36.081   0.429
77369W        W48898  44.839  24.623   4.633
77370W        W48899   9.737  42.808  12.805
77371W        W48900   9.781   1.835   1.193
77372W        W48901  29.172  13.821   3.224
77373W        W48902  35.596  23.619   3.122
77374W        W48903  23.468  29.962   1.744
77375W        W48904  23.680   9.857  11.254
77376W        W48905  13.476   0.704   1.866
77377W        W48906   3.912  42.418  14.676
77378W        W48907  34.458  27.994  13.014
77379W        W48908  10.188  38.054   0.451
77380W        W48909  13.128  32.636   4.077
77381W        W48910  26.041  44.528   3.420
77382W        W48911  44.389   2.762  14.528
77383W        W48912  29.489  40.233   4.204
77384W        W48913  31.113  20.291  11.171
77385W        W48914  19.161  36.035   1.683
77386W        W48915  12.918  44.215   1.260
77387W        W48916  39.027  17.895   4.221
77388W        W48917  40.830   3.909  12.396
77389W        W48918  18.773  27.715  10.166
77390W        W48919  36.540  25.745   1.254
77391W        W48920  34.962  12.700  14.457
77392W        W48921   5.942  12.662  14.694
77393W        W48922  31.209  39.746  13.069
77394W        W48923  27.527  44.321   4.993
77395W        W48924  40.913  36.372   3.916
77396W        W48925  33.606   4.257   2.851
77397W        W48926  37.965  43.705  13.358
77398W        W48927  29.584  19.339  12.908
77399W        W48928   5.735  31.140   2.197
77400W        W48929   0.761  40.629   4.965
77401W        W48930  27.177  22.944   1.195
77402W        W48931  23.578   6.679   2.433
77403W        W48932  19.365  19.850  14.892
77404W        W48933   8.311  29.190   2.154
77405W        W48934  35.052   1.236  13.515
77406W        W48935   2.247  23.543   3.179
77407W        W48936  17.574  11.654  12.582
77408W        W48937   0.616  22.695  12.158
77409W        W48938  11.406   2.309   1.406
77410W        W48939   6.190  11.786   0.511
77411W        W48940   4.484  11.362   3.220
77412W        W48941  44.510  42.506  10.731
77413W        W48942  11.460  42.951   0.307
77414W        W48943  36.296  14.315  14.000
77415W        W48944   3.154  41.245  14.954
77416W        W48945   8.461  16.000  12.342
77417W        W48946  30.425   6.778   1.283
77418W        W48947  43.888  25.498  11.499
77419W        W48948   6.441   8.674   1.848
77420W        W48949  25.613   3.628  14.361
77421W        W48950  29.893  41.436  12.458
77422W        W48951  41.775  26.081  12.518
77423W        W48952   7.539  15.252   0.788
77424W        W48953  30.476  22.562   0.035
77425W        W48954   8.288  40.824   0.302
77426W        W48955  16.738  40.895  12.993
77427W        W48956  29.568  40.019   4.681
77428W        W48957  17.938  14.689   3.569
77429W        W48958  11.899  19.857   2.238
77430W        W48959  40.051  35.498  13.849
77431W        W48960  41.282  21.199   1.333
77432W        W48961  44.027  33.310   3.637
77433W        W48962  31.895   8.460   2.912
77434W        W48963  17.006  34.946  13.843
77435W        W48964  15.442  25.057   4.082
77436W        W48965  37.799  27.507   3.642
77437W        W48966  28.382  43.571  13.418
77438W        W48967  28.009  27.649   2.469
77439W        W48968  23.681  15.484  14.024
77440W        W48969  37.910  33.998  13.972
77441W        W48970   0.284  26.103  13.388
77442W        W48971  43.761   4.495   2.833
77443W        W48972  29.946   9.598  12.076
77444W        W48973  39.862   9.321   1.650
77445W        W48974  40.375  35.827  13.574
77446W        W48975  23.428   1.031   4.815
77447W        W48976  18.333  44.745  10.883
77448W        W48977  14.054  44.181   2.892
77449W        W48978  19.128  28.736  13.901
77450W        W48979  43.666   8.351  13.866
77451W        W48980  11.800   5.973   0.218
77452W        W48981  39.845  35.139   0.366
77453W        W48982  20.244  19.169  13.437
77454W        W48983  15.640  11.845   1.028
77455W        W48984  41.264  20.156   4.274
77456W        W48985  28.044  38.927  11.992
77457W        W48986  39.425   9.294   0.831
77458W        W48987  44.522   4.720  10.442
77459W        W48988  34.456   4.906  12.053
77460W        W48989  21.659  16.267  14.995
77461W        W48990  44.671  34.550   2.176
77462W        W48991  27.506   8.516   2.685
77463W        W48992  32.796   6.307   0.368
77464W        W48993  13.737   9.362   4.413
77465W        W48994  42.578  21.547  11.107
77466W        W48995  42.049  10.998  10.595
77467W        W48996   8.959  43.604  11.139
77468W        W48997  28.991  23.892  13.438
77469W        W48998  33.800  14.346  11.407
77470W        W48999   2.942  15.853   0.937
77471W        W49000  33.758   2.931  10.183
77472W        W49001  40.234  24.260  13.879
77473W        W49002  44.694  23.542  11.476
77474W        W49003   2.039  10.413  13.121
77475W        W49004  32.159  35.534   3.749
77476W        W49005   7.859  13.900   4.082
77477W        W49006  39.933  13.153   2.155
77478W        W49007  44.713  42.150  13.856
77479W        W49008  38.356  16.052   2.435
77480W        W49009  24.448  18.166  13.887
77481W        W49010  25.232   6.918  11.435
77482W        W49011  14.114  22.505  10.824
77483W        W49012  21.689  42.977   2.881
77484W        W49013  19.504  32.998  11.940
77485W        W49014  36.165  19.260  13.940
77486W        W49015  29.869  21.687   3.660
77487W        W49016   1.886   9.426  12.653
77488W        W49017  31.904  33.021   1.039
77489W        W49018  41.379  10.153   4.318
77490W        W49019   3.789  31.881   3.493
77491W        W49020  16.055   4.883   2.349
77492W        W49021   6.154  23.246   3.056
77493W        W49022   7.259  22.533   0.829
77494W        W49023  41.121  11.542   0.811
77495W        W49024  40.676   1.405  12.567
77496W        W49025  23.604  28.486  11.621
77497W        W49026  16.206   3.968  10.767
77498W        W49027   5.619  39.350   2.236
77499W        W49028  32.084   6.391  10.886
77500W        W49029  22.241  35.543  14.590
77501W        W49030  16.576  14.782   3.435
77502W        W49031  27.548  17.967  12.985
77503W        W49032  31.520  42.514  11.605
77504W        W49033  10.796  37.475   1.807
77505W        W49034  41.514   6.716   2.732
77506W        W49035  37.437  10.927  11.825
77507W        W49036  20.741  37.507   2.387
77508W        W49037   6.639   6.182  13.848
77509W        W49038  41.022  30.154  10.756
77510W        W49039  36.521  12.872   2.091
77511W        W49040  17.633  20.307  12.064
77512W        W49041  44.997  43.610  12.983
77513W        W49042  34.089   4.677   4.206
77514W        W49043  17.604  34.352  13.743
77515W        W49044  22.197  21.194   4.911
77516W        W49045  17.306  40.787  13.570
77517W        W49046   1.158  20.763  10.645
77518W        W49047   7.415  38.005   4.765
77519W        W49048  39.035  41.116  13.885
77520W        W49049  33.691  32.253  11.606
77521W        W49050  41.871  36.469   4.943
77522W        W49051  42.880  33.592   0.011
77523W        W49052   4.954  34.947   0.508
77524W        W49053  32.539  16.889   0.884
77525W        W49054  25.754  35.796  10.902
77526W        W49055  36.685  34.408   3.220
77527W        W49056   0.929  17.589  14.103
77528W        W49057  21.477  27.172   3.672
77529W        W49058   4.197  30.948   1.585
77530W        W49059  32.883  18.575   0.361
77531W        W49060  34.889  12.773  12.273
77532W        W49061  43.506  26.648  10.357
77533W        W49062  33.587  20.579  12.051
77534W        W49063  12.189  44.031  12.924
77535W        W49064   2.997  15.670  13.704
77536W        W49065   4.303  18.230   2.235
77537W        W49066  17.040  36.780   0.926
77538W        W49067  15.701  12.094   0.521
77539W        W49068  43.216  29.423   0.731
77540W        W49069   3.904  39.577  13.130
77541W        W49070  29.010   4.195   4.740
77542W        W49071   8.739   5.680  12.035
77543W        W49072  21.636  21.047  11.484
77544W        W49073   8.865   6.306  11.519
77545W        W49074   5.296  27.221  12.996
77546W        W49075   0.123  32.030   1.838
77547W        W49076   5.514  16.800  10.204
77548W        W49077  25.610  14.685   3.237
77549W        W49078  12.908  16.581  14.031
77550W        W49079   2.445  26.884   1.839
77551W        W49080  28.472  16.468   1.160
77552W        W49081  23.024  43.307   2.693
77553W        W49082   6.773  29.996  13.588
77554W        W49083  32.187  30.534  10.807
77555W        W49084  22.058  13.603   4.606
77556W        W49085   8.339  15.062  13.385
77557W        W49086   7.862  17.311   3.633
77558W        W49087  21.775  34.220  12.471
77559W        W49088  14.051   5.341   1.800
77560W        W49089  38.495  25.107   4.116
77561W        W49090  40.783  10.348  14.604
77562W        W49091  40.935  37.576  10.537
77563W        W49092  36.518   3.704   0.224
77564W        W49093   3.130  24.700   1.270
77565W        W49094  38.492  32.660   3.600
77566W        W49095  12.894  30.963   1.771
77567W        W49096  24.753  13.896   2.225
77568W        W49097  40.322   9.164  12.604
77569W        W49098  23.558   3.174  11.999
77570W        W49099  27.860  14.258  11.653
77571W        W49100  30.927  41.788  10.574
77572W        W49101  11.776  26.698   0.050
77573W        W49102  30.368  39.869   3.375
77574W        W49103  34.015  39.366  14.282
77575W        W49104   0.966  29.897   1.886
77576W        W49105  12.113   2.552   3.879
77577W        W49106  37.057  43.003   1.251
77578W        W49107   7.503   3.808   1.902
77579W        W49108  14.563  39.850  10.083
77580W        W49109  40.957  34.499   3.688
77581W        W49110  44.804  15.168  10.710
77582W        W49111  19.138   4.742   0.267
77583W        W49112  30.128  31.980   2.289
77584W        W49113  37.011  30.480  13.502
77585W        W49114   3.464  34.400  10.082
77586W        W49115  40.355  28.011   4.255
77587W        W49116   9.372  14.598   2.272
77588W        W49117  34.509  41.860   1.991
77589W        W49118  17.620   6.132  13.464
77590W        W49119  29.452  42.941   0.748
77591W        W49120   3.877  21.855  11.068
77592W        W49121   4.246   8.949  12.990
77593W        W49122  18.014  29.372   2.623
77594W        W49123  19.932  15.699  11.519
77595W        W49124   4.758  22.086   0.923
77596W        W49125  25.070  43.424  13.981
77597W        W49126   7.363  43.904   3.829
77598W        W49127  15.177  11.498   2.776
77599W        W49128  15.091   8.448   2.785
77600W        W49129  12.211  24.683  13.552
77601W        W49130   9.590  11.637   2.379
77602W        W49131  35.142  14.131  11.354
77603W        W49132  44.633  16.483  11.624
77604W        W49133  37.068   4.177   1.494
77605W        W49134  44.185  27.504  11.026
77606W        W49135   4.727   0.541  12.399
77607W        W49136  44.685  26.165  13.016
77608W        W49137   4.447  43.615  12.361
77609W        W49138  41.051  21.173   4.048
77610W        W49139  42.069  38.245  11.263
77611W        W49140  30.589  42.041   4.342
77612W        W49141   9.177  15.661  14.315
77613W        W49142  43.871  39.912   2.402
77614W        W49143  20.524  10.357   1.187
77615W        W49144  14.100  43.227  11.119
77616W        W49145  19.180   0.927  11.496
77617W        W49146  43.474  25.406   1.901
77618W        W49147  29.248  41.042  10.777
77619W        W49148  13.788  22.272   1.852
77620W        W49149   1.981  30.088  14.850
77621W        W49150  36.516  10.120  14.390
77622W        W49151  19.803   5.753   2.615
77623W        W49152  30.860  11.921   2.679
77624W        W49153  19.332  11.938   2.705
77625W        W49154  37.902  24.614  11.986
77626W        W49155   7.175  42.543   0.923
77627W        W49156  31.144   9.459   1.238
77628W        W49157  29.197  37.779   0.156
77629W        W49158  31.936  10.597  15.000
77630W        W49159  13.885   9.652   1.929
77631W        W49160  35.526  24.055   0.736
77632W        W49161  33.121  12.203  10.483
77633W        W49162  31.912  32.870  10.535
77634W        W49163  25.914  33.395   2.633
77635W        W49164  11.815  43.249  12.096
77636W        W49165  24.286  20.672  12.062
77637W        W49166  17.852  42.482  14.004
77638W        W49167  40.367  16.422   2.708
77639W        W49168  16.191  11.742  10.503
77640W        W49169  41.856   7.615  11.991
77641W        W49170  31.937  39.737   2.702
77642W        W49171   8.295  20.206   3.745
77643W        W49172  21.147   5.695  13.042
77644W        W49173  41.770  11.595  14.060
77645W        W49174  10.718  19.281   1.845
77646W        W49175   1.862  16.340  10.381
77647W        W49176  13.044  10.279   3.192
77648W        W49177  40.117  44.911  13.383
77649W        W49178  34.988   1.467   2.888
77650W        W49179  27.366  22.939  13.610
77651W        W49180  35.338  43.897   0.239
77652W        W49181  20.321   0.375   0.463
77653W        W49182  30.495  14.598   0.646
77654W        W49183  21.494   4.299   4.094
77655W        W49184  28.140  13.091  12.086
77656W        W49185  10.075  37.952  11.052
77657W        W49186  27.104   1.407   4.241
77658W        W49187  19.514  29.949   0.171
77659W        W49188  19.527  41.863   2.638
77660W        W49189   8.385   1.185   3.311
77661W        W49190  35.062  39.851   4.676
77662W        W49191   3.422  12.776  13.237
77663W        W49192  22.211  32.661  12.424
77664W        W49193   9.871  15.253  10.754
77665W        W49194  36.458  18.982  12.980
77666W        W49195  33.548  28.377   4.145
77667W        W49196  23.746  32.853   2.810
77668W        W49197  29.418   9.653   0.271
77669W        W49198  18.280  18.732   3.644
77670W        W49199  37.587  12.799  10.938
77671W        W49200  18.275   4.693   1.456
77672W        W49201  34.812  10.232  12.010
77673W        W49202  14.488  25.071  12.669
77674W        W49203  28.641   8.238  12.176
77675W        W49204  42.966  17.623   3.414
77676W        W49205  24.659  44.480   4.099
77677W        W49206   9.303  13.962  13.871
77678W        W49207   3.544  23.951  12.198
77679W        W49208  33.946  27.405   4.593
77680W        W49209  12.254  14.676   0.859
77681W        W49210  14.205   0.492  10.642
77682W        W49211   0.472  42.700   1.719
77683W        W49212  22.532  22.665  12.498
77684W        W49213  27.104  28.964  13.348
77685W        W49214   4.342  28.511   0.415
77686W        W49215  40.849  21.548  12.359
77687W        W49216  33.385  36.951   0.949
77688W        W49217  20.509  12.151  12.732
77689W        W49218  37.227   8.929  14.439
77690W        W49219  20.686  32.001  14.287
77691W        W49220  25.176  23.153  13.359
77692W        W49221  40.351  41.281  11.006
77693W        W49222  19.731  11.622   0.854
77694W        W49223  24.098  11.406   0.064
77695W        W49224  19.534  19.129   0.843
77696W        W49225  23.213  18.582  13.562
77697W        W49226  28.447  17.725   1.385
77698W        W49227  25.622  31.002  13.972
77699W        W49228  35.904  13.467   0.748
77700W        W49229  11.320  32.012  12.019
77701W        W49230   4.817  30.616  12.324
77702W        W49231   8.725  15.599  12.500
77703W        W49232  37.670  32.594   1.330
77704W        W49233  26.401  17.570  11.512
77705W        W49234  40.521  44.954   2.382
77706W        W49235  40.583  15.237   3.734
77707W        W49236  26.041  38.648   2.408
77708W        W49237  23.090   0.394  11.684
77709W        W49238  14.385  12.881   0.331
77710W        W49239   0.165  34.488  14.712
77711W        W49240  29.195   2.281   1.696
77712W        W49241   9.976   3.686   0.516
77713W        W49242  11.772  36.376   3.703
77714W        W49243   7.889  23.566   3.656
77715W        W49244  17.690  23.262  13.396
77716W        W49245  15.870  31.968   2.877
77717W        W49246   9.609  17.640   0.247
77718W        W49247   3.318  43.793   3.255
77719W        W49248   0.390  30.206  11.621
77720W        W49249   7.764  30.395  13.800
77721W        W49250   2.961  35.632   0.401
77722W        W49251  23.487  29.618   2.624
77723W        W49252  12.687  32.102  13.022
77724W        W49253  30.039  38.789  14.315
77725W        W49254  31.493   1.398  13.712
77726W        W49255  28.155  38.510   2.126
77727W        W49256  26.506  22.849  11.601
77728W        W49257  33.158  11.950  12.612
77729W        W49258  35.857  40.495  10.485
77730W        W49259  22.488  14.118   1.037
77731W        W49260  14.743  31.103   4.409
77732W        W49261  25.242   0.993  11.527
77733W        W49262  32.588  39.555  11.508
77734W        W49263   9.445   7.701  13.460
77735W        W49264  18.776  11.601   0.484
77736W        W49265  22.734  14.523   1.787
77737W        W49266  13.299  40.132  14.517
77738W        W49267  27.604   9.259  14.257
77739W        W49268  20.636  27.243  10.071
77740W        W49269  31.996  38.367  10.644
77741W        W49270  41.754  16.052  11.982
77742W        W49271  17.661  43.313  12.336
77743W        W49272   2.019   7.640  10.629
77744W        W49273  16.574  34.363   1.777
77745W        W49274   5.441  19.744   4.495
77746W        W49275   0.240  42.725   2.232
77747W        W49276  37.490  43.384  12.659
77748W        W49277  13.229  16.463   2.093
77749W        W49278  13.943  39.501  14.816
77750W        W49279  35.330  21.202  14.451
77751W        W49280  30.418   4.793  12.516
77752W        W49281  34.127  22.145   3.430
77753W        W49282  43.897   2.646  12.823
77754W        W49283   6.173  23.486   0.949
77755W        W49284  21.199  42.260  11.976
77756W        W49285   9.631  15.327  13.504
77757W        W49286  22.865  14.415   0.896
77758W        W49287  15.596  43.755   2.162
77759W        W49288  16.195  34.578  11.067
77760W        W49289   4.494   4.556  11.260
77761W        W49290  37.414  29.392   0.786
77762W        W49291  14.297  12.710  10.641
77763W        W49292  19.202  25.266  11.333
77764W        W49293  20.795  18.767   4.162
77765W        W49294  44.362  10.965  10.689
77766W        W49295  32.854  22.184   1.822
77767W        W49296  35.787  40.891  11.601
77768W        W49297  42.159  26.751  10.061
77769W        W49298   5.967  30.184  14.467
77770W        W49299  37.958  36.409   3.327
77771W        W49300  42.513  43.730  13.021
77772W        W49301  42.547  25.028   2.162
77773W        W49302  11.355  12.848   2.293
77774W        W49303  43.398   3.195  14.043
77775W        W49304   8.117  20.101   3.274
77776W        W49305  12.264  30.989  11.880
77777W        W49306  30.986   5.114  11.017
77778W        W49307  30.240  33.532   0.928
77779W        W49308   0.975   1.862  10.276
77780W        W49309  27.934  37.152  11.893
77781W        W49310  25.605  27.675   0.008
77782W        W49311  22.131  28.632  11.175
77783W        W49312   8.904  20.637   3.064
77784W        W49313   2.737  27.036   2.942
77785W        W49314  20.020  40.008  11.607
77786W        W49315  39.662  31.318   0.984
77787W        W49316   1.453   3.842   4.963
77788W        W49317  18.973   6.730  11.140
77789W        W49318  42.931   5.210  14.920
77790W        W49319  29.616   3.874   0.682
77791W        W49320  19.158  31.035   3.371
77792W        W49321  31.441   5.293  14.370
77793W        W49322  29.192  37.489  13.870
77794W        W49323  13.653   0.698   4.721
77795W        W49324  29.154  11.232  13.865
77796W        W49325  29.316  29.196  11.675
77797W        W49326   7.623  29.591   0.429
77798W        W49327   6.300  13.831   3.305
77799W        W49328  40.882  28.189   4.157
77800W        W49329   2.342  35.986   1.800
77801W        W49330  19.728  12.636  12.896
77802W        W49331  32.404  34.236   3.804
77803W        W49332  12.855  44.404  13.546
77804W        W49333  34.491  15.428   2.169
77805W        W49334  25.733  18.650   3.184
77806W        W49335  32.964  30.598  11.483
77807W        W49336  30.152  31.478  13.329
77808W        W49337  23.240  24.021  11.925
77809W        W49338  34.401  33.165  12.934
77810W        W49339  17.675   5.559   0.103
77811W        W49340  30.856   3.747   3.651
77812W        W49341  12.810  11.311  13.411
77813W        W49342   6.866  32.431  13.025
77814W        W49343   4.181  36.920  12.596
77815W        W49344  24.520   9.617   0.869
77816W        W49345  32.869   8.080  14.433
77817W        W49346   1.828   8.353  11.779
77818W        W49347  27.608  14.389  13.953
77819W        W49348  44.380   3.189   3.401
77820W        W49349  13.096   0.339   0.429
77821W        W49350   5.695  32.428   1.063
77822W        W49351  21.718  16.017   0.437
77823W        W49352   0.576  23.067   2.787
77824W        W49353  41.078  21.508  11.900
77825W        W49354   8.850   5.582  14.465
77826W        W49355  16.612  12.064   4.885
77827W        W49356   6.685  43.421  14.515
77828W        W49357  32.894  15.921   2.745
77829W        W49358  20.005  29.528  12.839
77830W        W49359  18.414  43.922  11.095
77831W        W49360  28.415  35.867  10.628
77832W        W49361  42.084  15.245  13.826
77833W        W49362  17.166  39.397   4.315
77834W        W49363  19.259   5.212  12.868
77835W        W49364   1.524   6.484   4.519
77836W        W49365   9.112  26.045   1.930
77837W        W49366   9.136  14.783   4.257
77838W        W49367  34.028  40.782  14.023
77839W        W49368  15.751  11.862   2.419
77840W        W49369  10.164  13.384   3.367
77841W        W49370  38.922  11.472   2.258
77842W        W49371  33.031  30.629  12.453
77843W        W49372  24.798   0.843   3.239
77844W        W49373  34.221  31.801   3.128
77845W        W49374  16.187  19.822  10.656
77846W        W49375  34.997   0.868  11.859
77847W        W49376   2.819  22.032  12.349
77848W        W49377  31.948  27.522   4.690
77849W        W49378  23.488   5.269  11.614
77850W        W49379  14.599  28.096  10.209
77851W        W49380  16.630  42.354   4.382
77852W        W49381  26.100   3.834   0.284
77853W        W49382  24.116   4.722   0.903
77854W        W49383  42.997   2.844  13.869
77855W        W49384  32.682  12.821   3.997
77856W        W49385  37.523  42.175   0.904
77857W        W49386   3.393  43.738   2.722
77858W        W49387  34.520  35.625   3.632
77859W        W49388  23.443  16.594  10.905
77860W        W49389  23.463  25.677   3.567
77861W        W49390  38.904  43.331  12.543
77862W        W49391   0.724   0.319   2.451
77863W        W49392  14.865  10.412  12.532
77864W        W49393  38.102   5.989   1.212
77865W        W49394  22.323  22.930   3.363
77866W        W49395  38.475   8.431   3.292
77867W        W49396  17.284  32.026  11.716
77868W        W49397  24.614  36.409   2.387
77869W        W49398  38.212  38.483   4.790
77870W        W49399  18.666  11.102   0.454
77871W        W49400   9.755  18.623   0.368
77872W        W49401   3.714   3.879  12.083
77873W        W49402  15.342  44.468   0.319
77874W        W49403  44.497  13.784   2.215
77875W        W49404   7.004  21.580   2.504
77876W        W49405  16.169  36.685   0.392
77877W        W49406   6.775  18.192   0.463
77878W        W49407  38.777  41.017  14.318
77879W        W49408  21.213   5.229   0.389
77880W        W49409  42.044   2.769   0.356
77881W        W49410  40.872  30.315   5.018
77882W        W49411  34.726  13.241  12.195
77883W        W49412  17.722  25.143   2.296
77884W        W49413  29.379  15.089  11.536
77885W        W49414  35.126   9.190  13.436
77886W        W49415   7.994  11.736  12.563
77887W        W49416  18.204  15.223   0.447
77888W        W49417   2.481  37.512  11.143
77889W        W49418  28.021   6.548   4.047
77890W        W49419   3.703  14.798  13.043
77891W        W49420  11.846   6.844  13.275
77892W        W49421  26.271  29.774   4.221
77893W        W49422  32.194  29.460   1.867
77894W        W49423  18.423   7.341  11.589
77895W        W49424  28.569  14.594   4.061
77896W        W49425   9.097  32.529   2.442
77897W        W49426  15.038  33.704  12.076
77898W        W49427   3.055  20.103  11.623
77899W        W49428  32.854  39.119   1.004
77900W        W49429   7.268  21.198   1.298
77901W        W49430  11.142  16.375  11.609
77902W        W49431   0.996  12.672  12.998
77903W        W49432   7.825  31.339  13.827
77904W        W49433  29.116  28.939  13.104
77905W        W49434   4.659  14.895   1.425
77906W        W49435  10.887  20.244  11.520
77907W        W49436  25.715  37.118   1.272
77908W        W49437  10.366   3.929   4.292
77909W        W49438   5.330  44.055  14.935
77910W        W49439  19.782  12.662   3.297
77911W        W49440   0.245  27.958   0.323
77912W        W49441  33.103  29.718  11.577
77913W        W49442  37.469  29.424  14.847
77914W        W49443  44.185   0.938   1.064
77915W        W49444   5.630   6.244  12.119
77916W        W49445   1.212   4.449  11.081
77917W        W49446  36.425  24.979   1.901
77918W        W49447   2.388  27.192  14.944
77919W        W49448  12.566  16.169   1.676
77920W        W49449  24.217  12.557   2.774
77921W        W49450  32.149   1.530  12.018
77922W        W49451   6.491  37.141   0.091
77923W        W49452  31.848  36.959  13.941
77924W        W49453  38.752   7.201  12.103
77925W        W49454  38.594   2.937  12.045
77926W        W49455  17.621  24.486  14.033
77927W        W49456  22.722  26.259   4.614
77928W        W49457  35.049   0.924  12.377
77929W        W49458  29.436   3.279   3.299
77930W        W49459  26.651  44.738   4.867
77931W        W49460  41.456  37.077   4.779
77932W        W49461  21.060  42.932   1.062
77933W        W49462  34.409  44.826  14.004
77934W        W49463  12.411  27.719   3.656
77935W        W49464   0.943  43.894   0.279
77936W        W49465  39.070  16.752  14.494
77937W        W49466  33.113  42.757  12.888
77938W        W49467   6.619  23.879   1.570
77939W        W49468  27.135  44.376  13.856
77940W        W49469  37.038   0.735  12.495
77941W        W49470  17.276  32.403   0.498
77942W        W49471  27.657  29.979  10.702
77943W        W49472  38.751  17.120   3.786
77944W        W49473  26.461   5.803   4.668
77945W        W49474  36.405  42.075  12.139
77946W        W49475  11.265   2.025  12.022
77947W        W49476  13.587   1.141  14.427
77948W        W49477   8.406  30.932   3.646
77949W        W49478   6.374  44.523   3.354
77950W        W49479  43.446  34.621   0.771
77951W        W49480  11.205  23.638  11.335
77952W        W49481  10.164  32.166  12.524
77953W        W49482  43.384   4.647  11.474
77954W        W49483  26.996  12.591   3.086
77955W        W49484  23.487  31.713  13.480
77956W        W49485  24.200  19.685  12.124
77957W        W49486  19.017  44.390  13.425
77958W        W49487  34.029  20.501   1.748
77959W        W49488  39.836  32.617  10.926
77960W        W49489  15.673  10.921   2.119
77961W        W49490  13.833  36.018   1.196
77962W        W49491  42.748  20.934   4.990
77963W        W49492  12.395  38.076   3.193
77964W        W49493  13.348  38.864  10.677
77965W        W49494   0.341  25.524  14.186
77966W        W49495  43.860  33.432  14.893
77967W        W49496  37.613  23.639  11.096
77968W        W49497  35.326  26.891  13.148
77969W        W49498  24.238   6.744  11.370
77970W        W49499  41.665  34.235   4.241
77971W        W49500  27.300  33.736   4.085
77972W        W49501  19.762  17.297  13.940
77973W        W49502  27.257   3.601  12.926
77974W        W49503   8.351  26.325   1.873
77975W        W49504   8.864  17.538  12.858
77976W        W49505   8.187  19.591   3.330
77977W        W49506   4.706  17.543   1.956
77978W        W49507  15.411   5.026  11.822
77979W        W49508  37.030  37.161  12.981
77980W        W49509  37.502  35.094  14.366
77981W        W49510  17.633  21.513   3.528
77982W        W49511  35.444  42.782  12.895
77983W        W49512  30.130  24.716  12.892
77984W        W49513  37.624  13.955   4.581
77985W        W49514  42.341   1.479  14.454
77986W        W49515  24.610   6.701   2.963
77987W        W49516  16.839  22.496   2.428
77988W        W49517  28.399  11.726   2.198
77989W        W49518  34.353  17.800  14.604
77990W        W49519  37.823  32.380  11.461
77991W        W49520  26.942  30.306   3.324
77992W        W49521  17.298   9.299  14.066
77993W        W49522  13.228  42.372  11.979
77994W        W49523  36.302  22.181  11.963
77995W        W49524  39.608   9.410   2.904
77996W        W49525  41.210  13.398  13.063
77997W        W49526  10.114  26.425   4.064
77998W        W49527  33.061   4.647   3.952
77999W        W49528  34.055  37.308   0.553
78000W        W49529  10.446  15.293  10.452
78001W        W49530  23.038  11.654  14.276
78002W        W49531  25.004  35.413   1.873
78003W        W49532   5.475  18.346  12.142
78004W        W49533  26.087  10.659   2.155
78005W        W49534  16.652  42.420   4.936
78006W        W49535  31.834  42.886  11.404
78007W        W49536  34.967   9.495   1.853
78008W        W49537  23.076  23.952   2.402
78009W        W49538   7.436  37.168   3.192
78010W        W49539  26.941   3.805  14.785
78011W        W49540   2.268  30.090  14.340
78012W        W49541  22.778  23.614  10.986
78013W        W49542  39.947  37.261   4.373
78014W        W49543  33.371   9.130   2.171
78015W        W49544  22.236  37.982   1.280
78016W        W49545  38.476   9.440  10.415
78017W        W49546  16.914  27.520  14.893
78018W        W49547  18.421   2.537  13.655
78019W        W49548  37.931   2.023  11.649
78020W        W49549  16.394  39.828  13.901
78021W        W49550  33.239  25.035   3.774
78022W        W49551   9.971  23.273   4.588
78023W        W49552  41.562  12.605  14.501
78024W        W49553  44.965  27.480  12.836
78025W        W49554   4.941   6.666   4.871
78026W        W49555  42.868  28.699  12.649
78027W        W49556  20.849  14.801   0.374
78028W        W49557   7.380   5.114   1.219
78029W        W49558  33.858   4.945   3.798
78030W        W49559  26.630  30.242  13.848
78031W        W49560  28.637  38.246  13.432
78032W        W49561  21.419  22.382  14.405
78033W        W49562  23.039  21.553  10.640
78034W        W49563   0.992  32.971  14.973
78035W        W49564  40.609  38.672  13.036
78036W        W49565  11.862  14.072   9.931
78037W        W49566   7.112  10.875  12.090
78038W        W49567  41.592  36.051  12.833
78039W        W49568  23.114  14.607   1.389
78040W        W49569  22.621  32.973   0.038
78041W        W49570  12.738  29.833  11.140
78042W        W49571  42.491  26.129   4.134
78043W        W49572  35.088  26.095   2.272
78044W        W49573  41.475  35.845  13.317
78045W        W49574  10.567   3.991   3.671
78046W        W49575   8.051  12.811  12.716
78047W        W49576   9.332  37.018   2.751
78048W        W49577  20.582  43.425   2.198
78049W        W49578  34.060  41.934   0.746
78050W        W49579  20.315  36.030  13.193
78051W        W49580  34.500  33.500   0.943
78052W        W49581  10.081  35.342   2.657
78053W        W49582  25.879  10.118  11.999
78054W        W49583   5.389  31.190   4.529
78055W        W49584  25.984   3.704   1.486
78056W        W49585   2.596   2.144   3.750
78057W        W49586   8.234   5.387   1.994
78058W        W49587  29.089  11.264  14.760
78059W        W49588  10.644   8.556  13.769
78060W        W49589  30.107  10.348   3.620
78061W        W49590  13.185  20.182  11.216
78062W        W49591  40.214  35.320   1.241
78063W        W49592  13.752  14.822  12.821
78064W        W49593  35.759  29.607   0.111
78065W        W49594  35.645  27.109  14.405
78066W        W49595   9.640  20.632   2.348
78067W        W49596  19.027   5.447  14.465
78068W        W49597  15.979  20.523   2.080
78069W        W49598   5.388   9.758  10.601
78070W        W49599  32.554   8.163  12.437
78071W        W49600   6.913  28.845  12.324
78072W        W49601  23.018   9.606   0.597
78073W        W49602  18.522   8.927  13.993
78074W        W49603  18.843  19.995  14.325
78075W        W49604   5.419   2.247   4.404
78076W        W49605   2.308  21.243  13.809
78077W        W49606  10.458  35.274  14.366
78078W        W49607   4.335  39.927  12.512
78079W        W49608   0.442  11.540   3.226
78080W        W49609  33.923  17.568   4.394
78081W        W49610  35.759  37.575  13.200
78082W        W49611   8.616   8.902   4.181
78083W        W49612   9.472  21.826  12.099
78084W        W49613   5.804  31.915   3.249
78085W        W49614  44.735  29.199  11.919
78086W        W49615  26.007  38.298   3.275
78087W        W49616  13.764  23.611   3.627
78088W        W49617   3.922  13.560  14.055
78089W        W49618  22.047  27.141   0.846
78090W        W49619  25.487   7.885   2.450
78091W        W49620  27.197   7.947   4.184
78092W        W49621  41.888  18.141  14.951
78093W        W49622  21.046  32.428   0.199
78094W        W49623  26.101  43.467  11.833
78095W        W49624   1.943   0.320   0.879
78096W        W49625  43.428  38.437   0.385
78097W        W49626  24.057  33.104  12.810
78098W        W49627  22.074  30.419  11.704
78099W        W49628  22.792  26.914  11.873
78100W        W49629   1.984  27.096   1.876
78101W        W49630   2.188  15.350   3.783
78102W        W49631  34.986  43.732  14.307
78103W        W49632  17.673  19.508   0.934
78104W        W49633  20.624  22.559   1.738
78105W        W49634  33.880  19.767  11.564
78106W        W49635  12.100   9.360  10.769
78107W        W49636   2.459  38.187  12.644
78108W        W49637  37.131  28.712   1.838
78109W        W49638  38.758   9.968  14.824
78110W        W49639  25.140  16.752  14.268
78111W        W49640   8.372  33.094  12.997
78112W        W49641  18.075  15.578   3.571
78113W        W49642  15.666  29.192  12.515
78114W        W49643  11.391  20.034  11.401
78115W        W49644  23.990  24.575   0.222
78116W        W49645  36.126  21.746  14.787
78117W        W49646  12.689  38.358   1.193
78118W        W49647  22.796  38.065   1.960
78119W        W49648   1.656  25.043   3.708
78120W        W49649  24.449  39.751  13.632
78121W        W49650  20.489  40.463   0.869
78122W        W49651  33.161  24.215   2.262
78123W        W49652  42.222  34.617   3.182
78124W        W49653  15.195  13.200  10.505
78125W        W49654   5.243   9.568  11.536
78126W        W49655  12.575  21.517  12.805
78127W        W49656   7.510  25.544   4.887
78128W        W49657  26.494  41.041   0.268
78129W        W49658  19.587  31.392  13.468
78130W        W49659  36.845  13.515  12.376
78131W        W49660  23.696   3.654  10.745
78132W        W49661  24.654  17.108   0.300
78133W        W49662  43.538  10.253  12.055
78134W        W49663   9.305  10.560  10.237
78135W        W49664  16.169  39.003   1.388
78136W        W49665  33.695  25.469  11.721
78137W        W49666  27.388   8.667   1.846
78138W        W49667  26.674  23.660   2.367
78139W        W49668  21.054   8.901   3.762
78140W        W49669  24.223  30.329   0.851
78141W        W49670   7.014  44.009   4.198
78142W        W49671  30.062  12.830   4.534
78143W        W49672  42.463  42.467   2.705
78144W        W49673  23.972   7.659  13.331
78145W        W49674  40.407   7.504  10.733
78146W        W49675  24.547  15.882   2.478
78147W        W49676   3.267  11.645   4.112
78148W        W49677  18.660  43.043  12.442
78149W        W49678   0.069  22.120  11.589
78150W        W49679  18.647  27.475   2.139
78151W        W49680  11.619   8.254   1.273
78152W        W49681  36.868  18.164   2.167
78153W        W49682   1.966  29.909   3.095
78154W        W49683   4.482  18.656  14.939
78155W        W49684  24.624  15.317   3.309
78156W        W49685  26.946  16.888  10.163
78157W        W49686  32.103  19.048  11.582
78158W        W49687  15.256  42.298  13.954
78159W        W49688  17.739  18.512  11.984
78160W        W49689  12.374  34.589   0.173
78161W        W49690  44.377   8.652  14.369
78162W        W49691   6.627  34.004  14.952
78163W        W49692   9.048   2.043  13.518
78164W        W49693  38.516   9.034  11.553
78165W        W49694  15.843  16.980   2.300
78166W        W49695  10.448   9.481   4.938
78167W        W49696  16.619   5.661   1.874
78168W        W49697  34.453   4.547   4.965
78169W        W49698   8.979  25.555   1.825
78170W        W49699  16.077  29.857  11.653
78171W        W49700   2.826   7.556   0.161
78172W        W49701  34.767   4.845  13.461
78173W        W49702  11.338  43.784  12.582
78174W        W49703  40.524  15.249   1.260
78175W        W49704  40.555   3.145  12.905
78176W        W49705  22.409  25.154  14.856
78177W        W49706  29.861   1.189   3.628
78178W        W49707  42.886  24.361   1.277
78179W        W49708  18.837  27.700  11.036
78180W        W49709  38.019  36.294  14.832
78181W        W49710  27.202  35.570   0.867
78182W        W49711  31.464  25.221  12.566
78183W        W49712  37.806  41.560  13.059
78184W        W49713  41.341   8.179  11.532
78185W        W49714  22.034  13.849   4.146
78186W        W49715   9.621  30.054   4.673
78187W        W49716  23.066   7.173  12.676
78188W        W49717   9.808   8.342   3.858
78189W        W49718  22.339  31.233  10.591
78190W        W49719  18.105  25.914   1.738
78191W        W49720  40.155  20.139  11.255
78192W        W49721  23.805  26.760  10.661
78193W        W49722  32.503  39.061  11.510
78194W        W49723  17.739  31.907   2.879
78195W        W49724   7.714  18.695  13.901
78196W        W49725   2.354  38.548  14.757
78197W        W49726  12.586  31.662  10.725
78198W        W49727   8.757  38.379   1.408
78199W        W49728  42.469  33.059  11.078
78200W        W49729  43.890  33.721   0.729
78201W        W49730   1.380  12.331  14.011
78202W        W49731  37.513  28.163  12.719
78203W        W49732  27.170  25.112   0.266
78204W        W49733  15.723  18.113  10.411
78205W        W49734  42.097  39.853   2.289
78206W        W49735   9.159  32.600   1.799
78207W        W49736  38.435  24.153   1.200
78208W        W49737  42.766  34.047   0.335
78209W        W49738   5.294   0.346  13.257
78210W        W49739   5.765  22.795   3.155
78211W        W49740  42.722  14.334   2.758
78212W        W49741  34.421  21.512  12.416
78213W        W49742  28.173  28.400  11.892
78214W        W49743  36.378  21.742   3.280
78215W        W49744  41.925  42.886  13.583
78216W        W49745  21.994   0.984   2.885
78217W        W49746   6.836   0.750  11.764
78218W        W49747  30.672  41.730   1.039
78219W        W49748  44.045  16.320   2.683
78220W        W49749  40.571  27.541  12.013
78221W        W49750  15.096   5.273   1.755
78222W        W49751  11.794  35.371   4.690
78223W        W49752  29.562   9.949  12.117
78224W        W49753  23.728  30.443   0.890
78225W        W49754  31.023  28.596   4.067
78226W        W49755  31.419  28.067  14.824
78227W        W49756  16.159  12.352   0.416
78228W        W49757  32.471  41.360   0.730
78229W        W49758  38.469   6.912   1.336
78230W        W49759  11.798  27.654  11.083
78231W        W49760  24.088  14.600  14.777
78232W        W49761  36.121  35.022   2.194
78233W        W49762  44.293  31.083   0.990
78234W        W49763  25.734  31.084   4.346
78235W        W49764  18.180  11.273  11.637
78236W        W49765  33.465  16.220   2.438
78237W        W49766  42.958  16.182  10.470
78238W        W49767  42.262   1.440  13.577
78239W        W49768  29.385  38.498  13.019
78240W        W49769  14.742   0.128  11.594
78241W        W49770  29.706  28.256   4.115
78242W        W49771  27.580  37.203   1.857
78243W        W49772  11.766  34.055  10.908
78244W        W49773  33.862   7.289  13.105
78245W        W49774   4.109  32.214   3.207
78246W        W49775  16.539  44.820   4.030
78247W        W49776  44.611   8.691   0.354
78248W        W49777  34.262  20.217   2.684
78249W        W49778   6.786   2.561  11.935
78250W        W49779  36.332   4.856   1.803
78251W        W49780  31.673   6.815  12.068
78252W        W49781  41.884  23.678  12.666
78253W        W49782  12.037  11.975  11.716
78254W        W49783  15.655  35.143  12.344
78255W        W49784  26.394  37.514   2.891
78256W        W49785  26.972  20.043  14.920
78257W        W49786  33.058   4.730  14.101
78258W        W49787  35.605  33.093  11.644
78259W        W49788  10.174  15.690   3.396
78260W        W49789  39.583  43.872  12.366
78261W        W49790  32.547  33.030  14.376
78262W        W49791   5.241  29.389   2.636
78263W        W49792  39.476  29.110  13.088
78264W        W49793  19.332  36.360  10.792
78265W        W49794   8.271   7.257  13.273
78266W        W49795  36.556   3.835  12.081
78267W        W49796  29.151   3.008   1.122
78268W        W49797  40.992  21.813   1.753
78269W        W49798  22.046  31.146   0.598
78270W        W49799   8.837  25.070  14.965
78271W        W49800  16.979   9.387   3.248
78272W        W49801  34.675  38.121   1.427
78273W        W49802   1.368  27.943  12.491
78274W        W49803   0.004   4.876   3.811
78275W        W49804   3.292  22.350   4.992
78276W        W49805   5.451  22.733  11.967
78277W        W49806  20.566  24.014   4.608
78278W        W49807  19.069  16.897  14.380
78279W        W49808  10.214  31.852  11.565
78280W        W49809  41.032  29.994  13.946
78281W        W49810  33.859  38.490  10.678
78282W        W49811   7.971   5.311  11.168
78283W        W49812  18.695  21.468  12.200
78284W        W49813   2.813  29.141  13.823
78285W        W49814  26.739  44.624   2.543
78286W        W49815  21.029   8.184  14.818
78287W        W49816   4.361   4.707   3.305
78288W        W49817  34.953  23.229  13.445
78289W        W49818  40.204   8.798   5.062
78290W        W49819   1.312  39.418   3.755
78291W        W49820  31.557   9.827  14.574
78292W        W49821  44.037   7.081  12.159
78293W        W49822  17.302  24.787   4.953
78294W        W49823   7.303  33.397   3.613
78295W        W49824   8.324  42.839   4.293
78296W        W49825   6.877  19.326   2.743
78297W        W49826  33.834  23.499  14.893
78298W        W49827   8.886  15.241  14.147
78299W        W49828  12.654  37.392  11.005
78300W        W49829  10.249  12.573  12.787
78301W        W49830  22.043   1.066   0.291
78302W        W49831  43.367  14.146  14.156
78303W        W49832  25.066  20.605  10.671
78304W        W49833   0.576  26.229  11.189
78305W        W49834   7.436  31.525  11.711
78306W        W49835  18.725   5.810  10.765
78307W        W49836  12.427   2.382  13.069
78308W        W49837  30.695  42.816  12.494
78309W        W49838  43.531   5.945   3.446
78310W        W49839  16.683  18.331   0.301
78311W        W49840  28.468  38.477   0.767
78312W        W49841  26.755  37.224  12.597
78313W        W49842  22.646  18.283   3.238
78314W        W49843   7.283  24.627   2.704
78315W        W49844  20.573  39.124  13.735
78316W        W49845  30.879   5.667   4.887
78317W        W49846  26.778   8.797   0.229
78318W        W49847  18.544  23.037   1.147
78319W        W49848  15.896  44.184  12.062
78320W        W49849   6.913  23.291   3.742
78321W        W49850   9.094  12.785  13.593
78322W        W49851   2.625   1.926  12.011
78323W        W49852  23.457  37.600  10.722
78324W        W49853  36.625   3.352   1.209
78325W        W49854  13.119   6.466  10.918
78326W        W49855  30.134  10.389   0.343
78327W        W49856  16.713  29.076  12.791
78328W        W49857  18.173  44.303   2.681
78329W        W49858  38.018  28.838   2.120
78330W        W49859  43.843  42.433  14.487
78331W        W49860  31.695  37.447   4.360
78332W        W49861  11.740   5.351   4.484
78333W        W49862  15.332   0.928  11.583
78334W        W49863  31.792  44.443  13.416
78335W        W49864  30.829  34.945   3.644
78336W        W49865  23.658  22.571   2.699
78337W        W49866  21.380  25.259  10.871
78338W        W49867  13.056   3.625   0.734
78339W        W49868  21.830  18.148  14.560
78340W        W49869  32.005  23.529  13.790
78341W        W49870  10.166  32.550  13.989
78342W        W49871   3.843  27.434   2.357
78343W        W49872   0.538  18.210  11.886
78344W        W49873  19.555   2.276   2.834
78345W        W49874   5.312  21.009   3.680
78346W        W49875  39.563  16.178  13.497
78347W        W49876  12.111   5.352  14.924
78348W        W49877  44.208  33.903  11.033
78349W        W49878  36.109  32.514  11.115
78350W        W49879  39.876  13.108  12.042
78351W        W49880  28.019  13.273  14.366
78352W        W49881  30.210   7.194   3.348
78353W        W49882  24.695  31.052  10.426
78354W        W49883   0.953  17.341  12.455
78355W        W49884  14.579   7.686   2.739
78356W        W49885  26.262  23.362   2.615
78357W        W49886  41.098  27.126   3.107
78358W        W49887  10.294  28.009   1.943
78359W        W49888  44.783   2.700  13.076
78360W        W49889   8.738  21.920  11.713
78361W        W49890   3.940   1.587  12.366
78362W        W49891  12.693  30.246   4.526
78363W        W49892   0.568  37.837   4.123
78364W        W49893   2.750  18.539   1.317
78365W        W49894  30.279  14.661   4.160
78366W        W49895  40.951  17.453  12.041
78367W        W49896  24.469  29.856   2.357
78368W        W49897  28.463  18.130  12.954
78369W        W49898  17.351  16.762  12.877
78370W        W49899  30.676  11.292  13.878
78371W        W49900  29.418  16.766   4.783
78372W        W49901  43.217   4.331  10.487
78373W        W49902  29.710  20.219  12.935
78374W        W49903  29.972   0.400  14.061
78375W        W49904   7.630  41.471  14.403
78376W        W49905   1.252  30.273  14.454
78377W        W49906  44.009  29.660   2.871
78378W        W49907  44.395  12.659  13.584
78379W        W49908  22.485   1.790  11.917
78380W        W49909  10.132  38.342  11.604
78381W        W49910   6.192   3.926  13.079
78382W        W49911  34.548   7.072  12.417
78383W        W49912  30.803  44.789  12.633
78384W        W49913  36.518  30.231  10.753
78385W        W49914  44.436   0.359   0.749
78386W        W49915  19.575  42.940   2.744
78387W        W49916  41.809   1.661  12.015
78388W        W49917   0.487  13.795   1.693
78389W        W49918  40.334  41.581  11.415
78390W        W49919   3.810  36.298   3.171
78391W        W49920  11.370   3.468   3.351
78392W        W49921  15.181  37.967   0.726
78393W        W49922  26.984  37.499  12.186
78394W        W49923   8.313  42.069  14.376
78395W        W49924  38.990  33.404   0.984
78396W        W49925  30.527   3.795   2.765
78397W        W49926  21.017  10.174  11.219
78398W        W49927  26.596  35.618   2.722
78399W        W49928  16.263   5.216  11.226
78400W        W49929  16.052   4.162   3.792
78401W        W49930  35.993  38.538  12.918
78402W        W49931  17.943  23.243   2.386
78403W        W49932  30.074  14.693   3.277
78404W        W49933  32.555   7.814   0.188
78405W        W49934   7.000  30.649   0.758
78406W        W49935   8.911  15.858  14.742
78407W        W49936  39.716   8.870  13.136
78408W        W49937  23.663  15.266   3.082
78409W        W49938   4.902  25.255  10.697
78410W        W49939  17.239  19.718   2.171
78411W        W49940  17.546  41.409   3.774
78412W        W49941   9.175  14.877  10.970
78413W        W49942   1.333  23.349   1.656
78414W        W49943  21.093  12.747  12.408
78415W        W49944  29.119  29.085  12.583
78416W        W49945  16.080  40.805  13.369
78417W        W49946   6.150   8.623  12.063
78418W        W49947   0.343  41.764  11.898
78419W        W49948  44.461  13.426  14.901
78420W        W49949  10.268  23.655   2.512
78421W        W49950  35.918  21.144   1.002
78422W        W49951  18.641  23.663   1.959
78423W        W49952  28.104   4.152  14.740
78424W        W49953  34.378   5.270  12.584
78425W        W49954  17.310  25.669   0.745
78426W        W49955  37.932  35.000   2.873
78427W        W49956  28.452   7.701   1.252
78428W        W49957  13.335  42.169  11.518
78429W        W49958   9.934   4.690  13.298
78430W        W49959  31.468   8.197   0.665
78431W        W49960  33.205  41.983   1.943
78432W        W49961  43.006  10.599   4.566
78433W        W49962  41.016  37.307   4.964
78434W        W49963  24.113  11.075   0.449
78435W        W49964  17.005  10.303  11.333
78436W        W49965   3.166  39.065   1.838
78437W        W49966  10.738   9.632  10.752
78438W        W49967  38.636  34.152   3.507
78439W        W49968   5.918  31.058  14.866
78440W        W49969   3.884  22.556  12.064
78441W        W49970  36.188  27.059   2.291
78442W        W49971  14.790  21.306   4.147
78443W        W49972  25.003  25.754   4.601
78444W        W49973  41.850   8.423   1.858
78445W        W49974  19.351  16.546  14.933
78446W        W49975   4.226  18.786  13.972
78447W        W49976  10.592   7.124   2.139
78448W        W49977  31.236  30.562   3.646
78449W        W49978  31.957   2.142   1.814
78450W        W49979  26.458  16.607  13.049
78451W        W49980  35.594  17.434  11.086
78452W        W49981  40.327   6.644   3.132
78453W        W49982   0.435  39.422   4.565
78454W        W49983  17.716  23.099   0.766
78455W        W49984  17.558   4.781  10.741
78456W        W49985  39.225   8.785   4.161
78457W        W49986   4.651   8.519   3.681
78458W        W49987  20.485  41.814   2.776
78459W        W49988  28.169  10.355   2.250
78460W        W49989   1.300  29.535  12.949
78461W        W49990   0.395  41.369  11.559
78462W        W49991  19.299  13.805  14.258
78463W        W49992  38.676  30.164   2.324
78464W        W49993  22.474  31.376   2.384
78465W        W49994  38.474  35.696  12.520
78466W        W49995   8.344  23.070   0.553
78467W        W49996  28.709  41.821  13.110
78468W        W49997  19.655  35.597  12.007
78469W        W49998  11.111  31.273  14.611
78470W        W49999  43.541   4.167   4.006
78471W        W50000   0.444   6.639   3.599
78472W        W50001   3.674  19.640   4.627
78473W        W50002   6.140  16.329   4.552
78474W        W50003  28.449  40.569   4.230
78475W        W50004  28.880  18.013  13.360
78476W        W50005  13.740   5.252   1.354
78477W        W50006  25.102  39.341  14.512
78478W        W50007  30.983   5.320  10.546
78479W        W50008  30.627  40.860   2.390
78480W        W50009  18.719  16.757   0.694
78481W        W50010  30.721  26.091  13.257
78482W        W50011  38.290  11.233   0.628
78483W        W50012  37.061  31.697   0.867
78484W        W50013  36.986   6.264   3.336
78485W        W50014  15.659  32.367  13.905
78486W        W50015  22.460   4.728   3.392
78487W        W50016   0.322  40.426   3.718
78488W        W50017  33.537  17.664  12.476
78489W        W50018   5.583  41.505   3.701
78490W        W50019   5.901  36.969   2.326
78491W        W50020   2.726  35.141   1.347
78492W        W50021  21.998  13.099  12.075
78493W        W50022  17.313  30.990   1.440
78494W        W50023  40.431   0.936   4.936
78495W        W50024  12.396  21.325   1.417
78496W        W50025  23.675  16.732   1.915
78497W        W50026  24.132  23.523   4.652
78498W        W50027  40.262   3.728   0.761
78499W        W50028  28.628  40.497  13.980
78500W        W50029   9.168  30.851  11.472
78501W        W50030   8.347   5.907   2.419
78502W        W50031  28.133  10.336  14.301
78503W        W50032   8.249  27.496   3.302
78504W        W50033  25.740  41.469  11.091
78505W        W50034  24.808  22.301   3.781
78506W        W50035  28.036  38.970  14.763
78507W        W50036   7.370  42.266   2.769
78508W        W50037  25.988  11.306   0.453
78509W        W50038  10.800  23.455   1.648
78510W        W50039  23.058  28.446   4.611
78511W        W50040  33.438  21.330  14.403
78512W        W50041  34.551  32.096  12.998
78513W        W50042  22.525   9.775   0.451
78514W        W50043  38.981  31.459  14.430
78515W        W50044  20.502  19.416   0.995
78516W        W50045  24.749  17.687  13.887
78517W        W50046  25.025   3.316  13.477
78518W        W50047   1.179  22.913  12.994
78519W        W50048   4.387   4.496  13.741
78520W        W50049  15.443  35.045   1.101
78521W        W50050  15.207  33.097   1.235
78522W        W50051  28.404   5.826   1.386
78523W        W50052  29.014  17.632   2.433
78524W        W50053  13.155  27.451   2.623
78525W        W50054  14.275  20.641  11.915
78526W        W50055  24.968  14.499  12.472
78527W        W50056   0.472  21.468  13.978
78528W        W50057  40.828  44.287  11.725
78529W        W50058   6.400  30.645  11.548
78530W        W50059   1.331  42.542  14.228
78531W        W50060  37.211  34.146   2.390
78532W        W50061  16.369  38.482  11.323
78533W        W50062  35.518  26.654   4.187
78534W        W50063  41.112  36.060  12.993
78535W        W50064  13.226  30.493  12.966
78536W        W50065   9.794  36.071   0.811
78537W        W50066   6.449   1.126   4.035
78538W        W50067  21.148  14.983   3.260
78539W        W50068  31.326  34.761  11.547
78540W        W50069   9.192   9.582   3.611
78541W        W50070   7.868   6.239   4.628
78542W        W50071  32.323  37.398   5.169
78543W        W50072  36.514  15.327  12.107
78544W        W50073  23.255  27.287  11.217
78545W        W50074  16.484   2.973   2.790
78546W        W50075  34.614  29.928   0.414
78547W        W50076  10.881   3.916   1.251
78548W        W50077   9.636  36.859   0.463
78549W        W50078  30.928  12.725  12.995
78550W        W50079   1.238  34.326   0.681
78551W        W50080  35.110  24.682   1.873
78552W        W50081  25.509  16.309   3.726
78553W        W50082  29.019  39.377  14.084
78554W        W50083   0.503  10.863  11.966
78555W        W50084  33.939  23.925   2.552
78556W        W50085  19.128  24.498  13.307
78557W        W50086  27.536   6.254   2.917
78558W        W50087  16.981  37.320   0.885
78559W        W50088  42.437  44.062   2.236
78560W        W50089  29.705  18.599  11.650
78561W        W50090  18.602  22.697   4.548
78562W        W50091  25.201  12.382   0.845
78563W        W50092  29.541  19.864   3.304
78564W        W50093  41.339  29.358   1.914
78565W        W50094  26.244  16.682  11.906
78566W        W50095  39.542  25.644  12.612
78567W        W50096   3.934  34.400   1.316
78568W        W50097   4.874  11.735  13.337
78569W        W50098  41.000  28.391   0.320
78570W        W50099   2.284  41.273   2.214
78571W        W50100   8.490  31.951  13.295
78572W        W50101   9.037  29.919   0.449
78573W        W50102  43.815  13.719  12.916
78574W        W50103  14.798  33.811   3.150
78575W        W50104  16.058  41.056  11.172
78576W        W50105  12.608  42.322  13.062
78577W        W50106   3.316  30.981  12.018
78578W        W50107   9.488  12.047  10.897
78579W        W50108  26.147  20.854   2.151
78580W        W50109   8.766  29.722   4.575
78581W        W50110  29.943  32.839   1.944
78582W        W50111  41.522  40.580   3.707
78583W        W50112   8.190  26.194   3.904
78584W        W50113  18.062  29.390  13.007
78585W        W50114   1.265   6.930   0.093
78586W        W50115   5.229  11.064  11.574
78587W        W50116  30.935  33.889  11.470
78588W        W50117  26.075  12.769  14.859
78589W        W50118   9.591  32.380   4.089
78590W        W50119  39.910  13.145   1.174
78591W        W50120  41.751  42.364   2.245
78592W        W50121  13.636  39.331  14.423
78593W        W50122  16.847  31.229   1.280
78594W        W50123  40.650  17.671   3.776
78595W        W50124  14.058  31.614   1.817
78596W        W50125  39.847  39.334  12.124
78597W        W50126   6.712  43.979   2.153
78598W        W50127  29.138  12.797   4.715
78599W        W50128  37.604  35.878   2.256
78600W        W50129  24.643  24.973  13.321
78601W        W50130  44.819  27.905   2.169
78602W        W50131  19.015   2.079   4.119
78603W        W50132  12.805   1.530  12.937
78604W        W50133  29.492  39.880  14.703
78605W        W50134   2.117  41.562  13.916
78606W        W50135   9.379  19.982   1.902
78607W        W50136  36.914  27.617  12.234
78608W        W50137  27.966   3.150   5.045
78609W        W50138  36.035   4.838   1.202
78610W        W50139   9.567   9.182  12.987
78611W        W50140  24.273  36.164  14.813
78612W        W50141  38.571  32.090  13.456
78613W        W50142  24.496  21.807  10.629
78614W        W50143  32.442  28.944  10.983
78615W        W50144   3.292  21.000   4.118
78616W        W50145  21.121   0.846   0.392
78617W        W50146  23.202   6.154   3.559
78618W        W50147  40.854  37.483  14.476
78619W        W50148   2.206   8.898   1.367
78620W        W50149  33.268  39.708  12.669
78621W        W50150  31.141  14.200  13.809
78622W        W50151  24.251   6.504   3.994
78623W        W50152   0.809  44.955  14.434
78624W        W50153   8.338   6.970   4.236
78625W        W50154  16.644  22.485  10.098
78626W        W50155  31.992   5.073  11.926
78627W        W50156  17.550   6.774  13.888
78628W        W50157   7.402  43.313   1.479
78629W        W50158   0.579  39.379   3.086
78630W        W50159  17.604  40.082   4.307
78631W        W50160  27.767   2.441  10.339
78632W        W50161  28.104   9.390  12.768
78633W        W50162  31.047  30.448   2.056
78634W        W50163   0.914  12.173  14.186
78635W        W50164   3.942  16.896  13.229
78636W        W50165  12.141  14.326  10.774
78637W        W50166  23.513  17.353  11.598
78638W        W50167  36.569  18.190  11.824
78639W        W50168  33.821   1.568  12.949
78640W        W50169  34.515   2.259  14.478
78641W        W50170  34.467  30.979   1.322
78642W        W50171   1.120  24.089  14.606
78643W        W50172   6.372  37.878   2.130
78644W        W50173   2.862  19.769   0.481
78645W        W50174  31.630   6.431  14.565
78646W        W50175   3.343  22.895  11.490
78647W        W50176  22.002  17.722   3.725
78648W        W50177  14.630  44.521  14.909
78649W        W50178  22.070   8.069   1.937
78650W        W50179  17.209  31.509   0.276
78651W        W50180   9.092  44.336  10.618
78652W        W50181  16.957  18.543   1.463
78653W        W50182  31.886   4.575  12.027
78654W        W50183   3.440  18.181   2.851
78655W        W50184  39.928  38.592  11.582
78656W        W50185  41.464   4.874   2.568
78657W        W50186  13.062  16.122   1.761
78658W        W50187  34.027  22.678   3.782
78659W        W50188  21.518  33.492   3.441
78660W        W50189  34.505  13.098   0.777
78661W        W50190  19.717  42.380   2.785
78662W        W50191   8.654  38.433   2.763
78663W        W50192  33.312  27.975   1.907
78664W        W50193  25.733  29.455  10.995
78665W        W50194  41.755  39.567   2.572
78666W        W50195   6.654   7.416   3.168
78667W        W50196  11.335  43.078  11.084
78668W        W50197   5.914  41.528  11.236
78669W        W50198   9.828  24.307   4.607
78670W        W50199   8.390   3.065   3.422
78671W        W50200  22.318  34.440   4.197
78672W        W50201  21.555   3.452  13.432
78673W        W50202  34.827   0.398  11.252
78674W        W50203   2.516   0.728  11.202
78675W        W50204  42.235  29.273  14.398
78676W        W50205  21.550  10.545  13.917
78677W        W50206  41.332  31.131  14.462
78678W        W50207   3.919  27.156   3.383
78679W        W50208  13.875  31.938  12.425
78680W        W50209   4.677   2.416   3.425
78681W        W50210  27.666  15.867  11.438
78682W        W50211   9.756  17.766  11.173
78683W        W50212  28.612  11.713  10.610
78684W        W50213  31.943  38.818  10.364
78685W        W50214  39.295  20.284  13.905
78686W        W50215  26.408   1.979  11.019
78687W        W50216  33.067  15.825  13.951
78688W        W50217  12.912  35.802   0.219
78689W        W50218  30.886  36.099  12.429
78690W        W50219  18.644  38.404  12.049
78691W        W50220  31.758   5.197   4.424
78692W        W50221  19.545  28.669  12.476
78693W        W50222  23.042  12.561  12.646
78694W        W50223   3.972   6.427  12.386
78695W        W50224  20.727  24.221   3.839
78696W        W50225  42.961  39.585   3.753
78697W        W50226  31.567  24.827  13.926
78698W        W50227  20.725  27.878   4.636
78699W        W50228  34.747  36.070   5.007
78700W        W50229  18.005  26.810  13.945
78701W        W50230  25.087   2.914   4.090
78702W        W50231  13.816  34.757   4.979
78703W        W50232   3.746   1.414   4.342
78704W        W50233   3.770  19.613  11.505
78705W        W50234   2.177  30.961  13.417
78706W        W50235  23.661  42.513  13.837
78707W        W50236  22.098   9.878   3.447
78708W        W50237  40.757  41.852  11.547
78709W        W50238  18.497   6.180  11.995
78710W        W50239  42.501  30.636  13.413
78711W        W50240   9.966  29.609  14.242
78712W        W50241  11.579  37.031  14.452
78713W        W50242   7.911  27.075  10.737
78714W        W50243   4.034  25.607   0.012
78715W        W50244   7.775  30.293   3.199
78716W        W50245  44.540   7.808   5.069
78717W        W50246  34.564  22.209  13.012
78718W        W50247  42.545  24.805   3.336
78719W        W50248  29.161  38.052   2.798
78720W        W50249   6.797  33.117   3.821
78721W        W50250  18.898  31.628  10.250
78722W        W50251   6.760  39.415   2.795
78723W        W50252   8.195   2.407   1.625
78724W        W50253   5.421  19.027  13.263
78725W        W50254  23.462  10.735   2.187
78726W        W50255   6.763  12.105  14.001
78727W        W50256  24.901  43.915  13.940
78728W        W50257   3.500  24.140   2.308
78729W        W50258  10.226  29.704  12.423
78730W        W50259  42.965  15.035   2.303
78731W        W50260  37.533  19.313  14.860
78732W        W50261  19.803  16.180  11.554
78733W        W50262  16.928  10.056   5.368
78734W        W50263  27.927  15.437  13.492
78735W        W50264  29.554  20.083  14.476
78736W        W50265  29.080  25.375  13.486
78737W        W50266  11.607  20.934  11.759
78738W        W50267   6.769  29.498   0.402
78739W        W50268  13.135  14.215  14.493
78740W        W50269  24.932   4.157  12.519
78741W        W50270  16.162  42.470  11.132
78742W        W50271  26.449  35.265  10.734
78743W        W50272  38.745  18.267   1.878
78744W        W50273  44.905  29.428  12.348
78745W        W50274  22.103  43.266   2.758
78746W        W50275  35.134  27.203   3.635
78747W        W50276  44.001  18.846  12.543
78748W        W50277  27.795   3.285  13.739
78749W        W50278   1.972  29.561  11.046
78750W        W50279   1.367  41.303  13.137
78751W        W50280  30.620  21.000   2.595
78752W        W50281  13.266   4.865  12.099
78753W        W50282  22.619  19.112  13.986
78754W        W50283  31.763  16.116  14.264
78755W        W50284   0.541  23.117  13.678
78756W        W50285   9.447  18.524   0.785
78757W        W50286  34.614  25.156  13.318
78758W        W50287  22.774  29.533   4.996
78759W        W50288  22.649  17.289  12.524
78760W        W50289  27.521  32.327  10.142
78761W        W50290  10.688  35.364  13.860
78762W        W50291  26.445  10.770  14.776
78763W        W50292   1.422   0.488  11.611
78764W        W50293   0.234  12.676   1.373
78765W        W50294  42.875  30.075  10.708
78766W        W50295   4.781  21.961   9.908
78767W        W50296  31.977  20.083  11.136
78768W        W50297  37.426   8.636   2.093
78769W        W50298  31.079  36.031   4.207
78770W        W50299   2.847   9.808  11.850
78771W        W50300   7.365  12.705  11.622
78772W        W50301  43.880  43.234   0.266
78773W        W50302   2.277  22.972  10.506
78774W        W50303  13.842  14.529   2.905
78775W        W50304  38.963  17.834   0.984
78776W        W50305  19.328  31.326  12.108
78777W        W50306   7.337  41.275   0.391
78778W        W50307   1.503   9.308   0.790
78779W        W50308  41.009  17.740   0.755
78780W        W50309  35.075  26.601   4.617
78781W        W50310   4.881   8.166   4.604
78782W        W50311  35.411  43.741   1.362
78783W        W50312  17.726  24.875  12.504
78784W        W50313  37.781  38.999  12.940
78785W        W50314   2.279   7.642   2.829
78786W        W50315  37.871  38.275  12.158
78787W        W50316  43.872  44.772   2.411
78788W        W50317  11.299  43.998  14.251
78789W        W50318  19.539  22.764   0.780
78790W        W50319  41.089  38.959  13.957
78791W        W50320  25.438  30.146  14.913
78792W        W50321  25.228  20.136  10.454
78793W        W50322  29.642  26.110  12.519
78794W        W50323   9.397   3.863   1.826
78795W        W50324  14.579   9.821   1.279
78796W        W50325  37.846  16.587   0.754
78797W        W50326  15.293  32.060  10.816
78798W        W50327  30.836  37.122  11.031
78799W        W50328  30.907  12.161  13.181
78800W        W50329  35.055   0.310   3.130
78801W        W50330  32.785  24.670   2.224
78802W        W50331  12.735   3.505   3.201
78803W        W50332  38.515   3.883   4.090
78804W        W50333  23.114  17.060   1.295
78805W        W50334  15.778  18.128   1.572
78806W        W50335  32.389   2.857   2.140
78807W        W50336  42.460  26.741   3.447
78808W        W50337  38.821  14.370   0.385
78809W        W50338   1.100  15.558   4.171
78810W        W50339  18.867  15.379  14.299
78811W        W50340  18.835  18.091  10.995
78812W        W50341  25.277  13.503  11.163
78813W        W50342  19.062  39.172  12.392
78814W        W50343  11.263   7.934   4.656
78815W        W50344  24.219   8.423  11.645
78816W        W50345  27.259  28.076   2.144
78817W        W50346  34.181  42.483  11.466
78818W        W50347   6.876   9.627   1.766
78819W        W50348  18.532  44.848  14.060
78820W        W50349   7.630  23.051  14.897
78821W        W50350  40.515  42.747   0.020
78822W        W50351  18.136   3.909   0.709
78823W        W50352  27.181  11.473   0.229
78824W        W50353  30.849  11.274  13.392
78825W        W50354  43.455  39.863   3.282
78826W        W50355   1.860  33.409  12.302
78827W        W50356  26.565  44.282  12.410
78828W        W50357  24.991  44.854   1.326
78829W        W50358  16.544  15.666   1.385
78830W        W50359  18.530  25.181   2.749
78831W        W50360  21.785   9.751  12.869
78832W        W50361  11.592  19.568  11.521
78833W        W50362  17.119  40.446   3.611
78834W        W50363   3.456  21.462  12.510
78835W        W50364   7.672  27.081   4.506
78836W        W50365  40.762  28.003  12.100
78837W        W50366  32.117  18.789   0.937
78838W        W50367  16.646   7.234  10.759
78839W        W50368   3.833  31.048  11.617
78840W        W50369  16.228  40.539   1.758
78841W        W50370   4.222  36.512   1.264
78842W        W50371  26.884  26.486   1.125
78843W        W50372  31.655   7.254   2.583
78844W        W50373  17.377  39.781  12.894
78845W        W50374  22.509   9.262   1.721
78846W        W50375  23.114   1.663   2.409
78847W        W50376  40.355   7.203   2.567
78848W        W50377   3.883   3.814  12.587
78849W        W50378  37.445  42.781  11.865
78850W        W50379  11.154  26.254   4.904
78851W        W50380  36.485  32.023  14.564
78852W        W50381  34.032  31.925  13.783
78853W        W50382   4.036   4.136  13.999
78854W        W50383  11.748  19.172   2.998
78855W        W50384  14.687   1.872   3.598
78856W        W50385  32.150   7.310   0.752
78857W        W50386  32.339  12.683  11.092
78858W        W50387  33.501  21.854  14.398
78859W        W50388   4.893  39.086  14.925
78860W        W50389  34.581  25.181   0.312
78861W        W50390  13.120  14.596  12.008
78862W        W50391   8.052   1.405   9.647
78863W        W50392  21.210  19.931  12.695
78864W        W50393  14.130  19.681   4.564
78865W        W50394  25.107   3.028   0.903
78866W        W50395  23.643  27.702  12.804
78867W        W50396  31.381   0.399   4.474
78868W        W50397  36.018  33.829  11.187
78869W        W50398  10.822   4.423   2.013
78870W        W50399  28.863  12.907  14.325
78871W        W50400   7.314  19.576   2.803
78872W        W50401  40.944   6.520  12.150
78873W        W50402   3.216  12.364   1.663
78874W        W50403  16.998  20.476   3.121
78875W        W50404  34.813  38.374   1.893
78876W        W50405  29.018   0.625  14.274
78877W        W50406  31.404  17.093   4.411
78878W        W50407  18.753   8.242   0.508
78879W        W50408   8.862  35.063   4.320
78880W        W50409   4.325  43.489   1.720
78881W        W50410   0.038  24.226   3.467
78882W        W50411  42.385  34.735   4.354
78883W        W50412  15.740  28.961  10.276
78884W        W50413  15.635   2.914   1.356
78885W        W50414   8.020  31.178  13.368
78886W        W50415  29.627  15.084   3.987
78887W        W50416  13.589  13.327  11.273
78888W        W50417  21.612  42.891  10.928
78889W        W50418  41.068  15.118   0.468
78890W        W50419  32.170   2.750  12.528
78891W        W50420  12.647  26.082  12.531
78892W        W50421  25.984  26.117   0.192
78893W        W50422  17.062  11.767  12.566
78894W        W50423  17.766  43.864   4.143
78895W        W50424  27.146   6.415   1.397
78896W        W50425  15.772  25.917   0.451
78897W        W50426  16.857  37.650  12.341
78898W        W50427   3.225  17.889  11.132
78899W        W50428  20.717  33.391   5.103
78900W        W50429  11.869  32.485   0.810
78901W        W50430  28.847  32.320   9.663
78902W        W50431  44.816  43.053   3.901
78903W        W50432  32.334  42.914  11.535
78904W        W50433  13.692  26.068   3.581
78905W        W50434  20.607  33.443  11.357
78906W        W50435  43.052  44.004   3.880
78907W        W50436  44.123  28.431   3.097
78908W        W50437  33.509  17.339  11.620
78909W        W50438  33.577  26.350  13.508
78910W        W50439  10.823  12.554   1.233
78911W        W50440  23.458  16.090  11.501
78912W        W50441  15.955  35.316   0.975
78913W        W50442   9.643  11.361  11.482
78914W        W50443  25.986  26.270  13.445
78915W        W50444  10.104   2.256   1.780
78916W        W50445  16.358  22.152   3.200
78917W        W50446  30.336  11.612   0.854
78918W        W50447  39.395   3.780  10.715
78919W        W50448  23.376  28.539   3.697
78920W        W50449  38.601  21.511   3.137
78921W        W50450  28.072  22.812  12.928
78922W        W50451  42.753   3.261  12.045
78923W        W50452  36.161  42.099   3.224
78924W        W50453  13.549  41.527   3.939
78925W        W50454   5.194   7.935   1.698
78926W        W50455   7.176  17.076  12.659
78927W        W50456   6.763   9.555   0.506
78928W        W50457   5.736  38.796  10.477
78929W        W50458  23.413  44.507  13.608
78930W        W50459  41.965  13.193  12.033
78931W        W50460  30.873   0.718  11.063
78932W        W50461  18.193  14.386  11.848
78933W        W50462   2.385  28.899   4.604
78934W        W50463   5.181   0.816   2.741
78935W        W50464  25.266   1.349  11.071
78936W        W50465  20.352  28.970   3.649
78937W        W50466  31.429   1.790  12.911
78938W        W50467  14.583  19.530   2.775
78939W        W50468  32.140  38.529   3.608
78940W        W50469  28.476  33.126  14.827
78941W        W50470  30.132  40.865   4.460
78942W        W50471  31.010   3.439   0.272
78943W        W50472   2.868  15.678   2.356
78944W        W50473  27.481  31.344  11.578
78945W        W50474  19.346  12.577   1.890
78946W        W50475   7.561  15.233   3.497
78947W        W50476  11.057  43.045  11.550
78948W        W50477  42.136  15.556   2.292
78949W        W50478  15.853  32.284   4.232
78950W        W50479  27.019  13.021  11.082
78951W        W50480  38.422   0.021  13.458
78952W        W50481  11.880  28.145  12.415
78953W        W50482  37.850   1.967   4.476
78954W        W50483  36.395  31.448   2.746
78955W        W50484   1.786  37.376   2.863
78956W        W50485  24.164  35.915  12.406
78957W        W50486  21.352  23.024   3.218
78958W        W50487  28.043  44.744  13.785
78959W        W50488  18.062  25.430  13.930
78960W        W50489  44.426   2.968   4.697
78961W        W50490   5.321  16.827   2.223
78962W        W50491   7.628  41.881  14.741
78963W        W50492  43.010  14.658   3.688
78964W        W50493  41.011   1.295  11.139
78965W        W50494   8.172  18.854  11.272
78966W        W50495   8.345  35.898  14.447
78967W        W50496   7.922  22.241  13.755
78968W        W50497  38.914  42.965   3.767
78969W        W50498  16.066  13.238   4.337
78970W        W50499   6.096  38.383  10.466
78971W        W50500  15.287  30.341  14.559
78972W        W50501  22.634  26.959   2.447
78973W        W50502  44.364   2.726  12.442
78974W        W50503  32.458   5.836   2.813
78975W        W50504  39.471  39.020  11.716
78976W        W50505  19.328  25.922  13.348
78977W        W50506  24.969  29.004  11.146
78978W        W50507  42.796  10.470   3.576
78979W        W50508  36.045   8.324   4.737
78980W        W50509  32.695  14.340   1.700
78981W        W50510  19.225  20.967  11.919
78982W        W50511  25.587  44.027  13.454
78983W        W50512  40.314  32.900   3.413
78984W        W50513  28.330  15.310   2.742
78985W        W50514   5.651  26.566  11.387
78986W        W50515  15.753  42.016  13.835
78987W        W50516  29.735  11.652  11.638
78988W        W50517  16.252  30.861  10.770
78989W        W50518   0.002  27.002  12.132
78990W        W50519  24.345  37.374   1.217
78991W        W50520   5.246  36.571   3.398
78992W        W50521  40.730  17.269   0.780
78993W        W50522  38.283  36.015  11.613
78994W        W50523  40.858   8.881   3.558
78995W        W50524  22.451   1.779  11.361
78996W        W50525  19.334  10.826   3.375
78997W        W50526  35.373  31.487  13.066
78998W        W50527  32.404  38.055   0.806
78999W        W50528  44.648  27.063   2.862
79000W        W50529  38.469  44.301  11.892
79001W        W50530  14.241  41.907  12.037
79002W        W50531  21.951  20.304  14.459
79003W        W50532  39.890   8.299  11.394
79004W        W50533  41.001  30.025  13.055
79005W        W50534   4.930  22.948   2.374
79006W        W50535  21.015  40.191   3.686
79007W        W50536  42.107  34.858  11.741
79008W        W50537  15.892  10.453  11.533
79009W        W50538  11.815  21.679  13.301
79010W        W50539  16.196  28.965   4.194
79011W        W50540  12.133  14.027  11.191
79012W        W50541  23.464  18.258  11.493
79013W        W50542  14.219  31.371  12.113
79014W        W50543  44.122  31.349   5.205
79015W        W50544  23.430  16.188   3.510
79016W        W50545  41.326  35.331  12.014
79017W        W50546  37.188   6.306  12.123
79018W        W50547  18.631  12.867  11.250
79019W        W50548   2.962  43.065   1.774
79020W        W50549  25.055  35.363   4.883
79021W        W50550  23.468  15.110   4.077
79022W        W50551  44.228  31.575   1.851
79023W        W50552   2.023  16.157  13.820
79024W        W50553  13.358  14.628   2.756
79025W        W50554  16.740   3.553   4.134
79026W        W50555   3.343  32.933  10.589
79027W        W50556   9.009  29.465  12.987
79028W        W50557  26.753  26.732   3.264
79029W        W50558  17.727  24.209   0.650
79030W        W50559  44.550  27.216  11.262
79031W        W50560  38.024  30.694   3.210
79032W        W50561   9.978  22.652  12.941
79033W        W50562  15.746  20.746  12.977
79034W        W50563  22.323  26.578  14.886
79035W        W50564  22.177  29.941   4.220
79036W        W50565   9.785  35.123   2.298
79037W        W50566   1.184  35.362  11.964
79038W        W50567   7.692   6.340  12.953
79039W        W50568  28.508  43.543   0.770
79040W        W50569  39.777   3.241   2.900
79041W        W50570   7.516   1.040  11.150
79042W        W50571  31.268  43.478  14.459
79043W        W50572   1.148   2.397   4.600
79044W        W50573  14.475  21.717   4.130
79045W        W50574   5.995  28.623  13.093
79046W        W50575  13.287  41.249  11.248
79047W        W50576   4.332   6.476  14.023
79048W        W50577  22.918  12.413  13.959
79049W        W50578  12.974  32.390  14.931
79050W        W50579  43.014  35.957   4.322
79051W        W50580   3.205  35.583  10.577
79052W        W50581   2.945   9.199   0.009
79053W        W50582   3.406  35.361   0.297
79054W        W50583  17.391   6.957   2.703
79055W        W50584  23.825  13.022  11.116
79056W        W50585  38.584   4.249   2.172
79057W        W50586  34.054  11.596   0.480
79058W        W50587   2.036   6.300  13.107
79059W        W50588  30.596  29.126  11.001
79060W        W50589   3.336  27.052  12.145
79061W        W50590  28.243  12.803   3.113
79062W        W50591  28.159  13.311  12.637
79063W        W50592  16.319  10.549   0.783
79064W        W50593   3.061  38.049  14.970
79065W        W50594   8.264  19.908   4.639
79066W        W50595  31.172  15.390  14.784
79067W        W50596   8.663  10.004   4.837
79068W        W50597  16.777  30.703   1.369
79069W        W50598   0.420  43.364  14.789
79070W        W50599  28.557  31.681  13.247
79071W        W50600  16.536   7.407  13.844
79072W        W50601  25.235  15.769  12.565
79073W        W50602   6.400  13.106  14.500
79074W        W50603  36.313  16.190  12.795
79075W        W50604  25.425   7.407  12.485
79076W        W50605  17.528  40.328  13.493
79077W        W50606  37.569  44.341  10.930
79078W        W50607  15.134  37.607   2.572
79079W        W50608  11.448  28.766  11.236
79080W        W50609   3.814  25.307  12.322
79081W        W50610  31.488  10.623  11.926
79082W        W50611  13.358  22.023  14.987
79083W        W50612  32.077  44.955  12.893
79084W        W50613  26.117  43.484   3.077
79085W        W50614  18.068  40.737   0.676
79086W        W50615  26.256  32.635   3.218
79087W        W50616  12.360  28.785  11.525
79088W        W50617  22.212  13.072   4.758
79089W        W50618   5.063   7.180  10.203
79090W        W50619   9.369  18.532  14.468
79091W        W50620  34.900   7.405  14.374
79092W        W50621  44.373  32.350   0.358
79093W        W50622  19.304  20.655  13.634
79094W        W50623  13.637   0.835   5.222
79095W        W50624  14.334  27.392  14.175
79096W        W50625  13.752  20.463   5.500
79097W        W50626   1.706  33.964  12.981
79098W        W50627  35.803  38.517   0.746
79099W        W50628  30.293   4.162   3.075
79100W        W50629  32.101  28.114  10.684
79101W        W50630  36.237  33.225  14.824
79102W        W50631   7.812  44.804  13.772
79103W        W50632  37.836  30.925  11.610
79104W        W50633  43.930  12.826  11.687
79105W        W50634   2.356  18.006   0.784
79106W        W50635  25.462  29.388  12.539
79107W        W50636  28.469   9.761  10.970
79108W        W50637  23.756  30.080  12.580
79109W        W50638  36.010   3.209  13.948
79110W        W50639  36.094  29.393  11.163
79111W        W50640  30.316  24.261   4.082
79112W        W50641  41.926  21.789  11.457
79113W        W50642  22.516   2.317   2.430
79114W        W50643  13.827   7.757   1.456
79115W        W50644  23.991  16.049  14.337
79116W        W50645  40.143  41.872   1.043
79117W        W50646  33.049  11.104  13.819
79118W        W50647   5.035  26.199   3.757
79119W        W50648  10.642  40.513   1.670
79120W        W50649  37.897  30.918  12.543
79121W        W50650  43.232  27.015   4.180
79122W        W50651  21.647  18.043  12.002
79123W        W50652   2.604  32.689   0.500
79124W        W50653  28.201  22.870  11.238
79125W        W50654  17.314  21.732   3.169
79126W        W50655   1.917  34.623  14.493
79127W        W50656   2.271   3.224   0.563
79128W        W50657  27.591  18.562   2.875
79129W        W50658  13.884  37.767   0.696
79130W        W50659   8.072  33.609   4.949
79131W        W50660   3.669   9.474   1.023
79132W        W50661  39.600  14.245  11.056
79133W        W50662  12.646  17.432   0.778
79134W        W50663  14.967  22.649   4.865
79135W        W50664  38.399  32.129   3.548
79136W        W50665  22.825   5.903   3.322
79137W        W50666  28.408  17.873  10.718
79138W        W50667  43.346  42.918   1.721
79139W        W50668  17.850  36.459   1.688
79140W        W50669  23.279   4.428  11.133
79141W        W50670  26.263  26.165  11.756
79142W        W50671  39.307  15.099  13.656
79143W        W50672  14.200  31.729  13.396
79144W        W50673   4.291  28.208   4.176
79145W        W50674  11.164  34.056   1.868
79146W        W50675  43.882  17.080  10.782
79147W        W50676  13.263  22.554   3.052
79148W        W50677  30.132  19.759   1.797
79149W        W50678  16.706   8.318  14.795
79150W        W50679  19.725  24.139  13.819
79151W        W50680   5.921  21.512   0.384
79152W        W50681  22.354  12.393   2.183
79153W        W50682   7.672  39.443   3.733
79154W        W50683  29.112   6.177  10.638
79155W        W50684   5.016  19.818   4.098
79156W        W50685  38.409  18.529  11.608
79157W        W50686  28.603  15.058   3.183
79158W        W50687   0.608  14.876   0.296
79159W        W50688   1.330  30.094  12.724
79160W        W50689  18.007   0.350   2.138
79161W        W50690   7.137  39.808   2.304
79162W        W50691  21.617   0.164   1.361
79163W        W50692  25.734  29.742   3.323
79164W        W50693  32.890   6.315  14.759
79165W        W50694   7.224  33.071  10.644
79166W        W50695  18.825  38.831   3.659
79167W        W50696  32.537   2.294  10.741
79168W        W50697  19.586  37.626   3.273
79169W        W50698  37.190   9.866   4.061
79170W        W50699   1.434  10.393   2.766
79171W        W50700   2.182  27.082   2.761
79172W        W50701  28.212  40.908  14.926
79173W        W50702  14.384  10.326  10.110
79174W        W50703  37.898  14.131   3.713
79175W        W50704   9.879  43.814   0.651
79176W        W50705  30.992  16.864   4.651
79177W        W50706  34.969  20.597   1.726
79178W        W50707   4.295  19.091   0.295
79179W        W50708   2.760  20.244   0.664
79180W        W50709  16.048  32.230  12.232
79181W        W50710  14.567  23.924   3.717
79182W        W50711   4.910   9.264   4.318
79183W        W50712  12.251  31.906   3.548
79184W        W50713  26.160  18.211  14.480
79185W        W50714  36.558  41.012   1.431
79186W        W50715  16.257   8.428   1.752
79187W        W50716   7.888   1.446   1.866
79188W        W50717  25.604   9.840  14.199
79189W        W50718   7.678  14.795  14.324
79190W        W50719  42.459  27.966  14.373
79191W        W50720  10.653  37.603   1.323
79192W        W50721  36.179  15.187   2.818
79193W        W50722   1.353   6.620  12.290
79194W        W50723  14.134  22.671   0.919
79195W        W50724  22.516  28.388   2.138
79196W        W50725  32.422  12.337  14.153
79197W        W50726  32.560   3.136   2.862
79198W        W50727  28.215   3.717   3.591
79199W        W50728  16.096  37.942   4.835
79200W        W50729  19.102  37.263   4.387
79201W        W50730  16.066  20.261   2.707
79202W        W50731  31.989  14.354  12.856
79203W        W50732   6.656  35.399   4.154
79204W        W50733  24.599  15.781   4.583
79205W        W50734   5.985  28.386   2.854
79206W        W50735  19.970  12.693  13.355
79207W        W50736  33.584  31.200   2.114
79208W        W50737  22.764  11.361   1.859
79209W        W50738   1.379  27.512   2.901
79210W        W50739  35.074  26.024   3.247
79211W        W50740   9.822   9.115  12.350
79212W        W50741  10.945   3.675   3.117
79213W        W50742  12.300  23.569  11.491
79214W        W50743  25.489  31.827   3.892
79215W        W50744  44.926  32.512   1.820
79216W        W50745  35.592  44.128  13.891
79217W        W50746   8.474  23.601  13.309
79218W        W50747   0.978  25.716  12.942
79219W        W50748  25.111  31.130  12.022
79220W        W50749  13.999  29.308   1.844
79221W        W50750  26.630  27.200  10.701
79222W        W50751  28.697  11.703  11.975
79223W        W50752  25.069  18.131  10.697
79224W        W50753   9.801  43.526  11.591
79225W        W50754  38.516   5.156  10.492
79226W        W50755  38.335  43.877  12.644
79227W        W50756  29.992  38.007  13.568
79228W        W50757  12.327   6.611   1.273
79229W        W50758  19.135  38.592  12.139
79230W        W50759  42.328  29.556  11.617
79231W        W50760  18.137  37.047   1.920
79232W        W50761  21.396  18.321  10.678
79233W        W50762   3.412  24.174   4.000
79234W        W50763  38.527  28.461   0.272
79235W        W50764   8.695  39.632   1.801
79236W        W50765   6.262   4.184   2.224
79237W        W50766  20.493   2.542   3.742
79238W        W50767  28.741   8.890   3.183
79239W        W50768  24.507   6.941   2.508
79240W        W50769   9.682  25.939   4.625
79241W        W50770  16.051  30.986   4.145
79242W        W50771  43.478   3.743   3.654
79243W        W50772  22.636   8.707   3.378
79244W        W50773   1.329   7.344   3.241
79245W        W50774   5.995  24.158   3.275
79246W        W50775  34.952  13.936  10.848
79247W        W50776  35.126  32.456  11.188
79248W        W50777  44.951  17.252   3.246
79249W        W50778  19.811  32.596  12.029
79250W        W50779   0.450   9.886   0.895
79251W        W50780   2.642  36.801   3.189
79252W        W50781   1.945   6.696   3.079
79253W        W50782  17.785  33.923  13.483
79254W        W50783  35.189  27.425  14.385
79255W        W50784  24.934  13.623   1.821
79256W        W50785  21.659  20.587  12.134
79257W        W50786  26.111  23.791   1.346
79258W        W50787  32.569  16.004  14.202
79259W        W50788  19.626   7.696  11.963
79260W        W50789   8.352  28.359   4.854
79261W        W50790  44.092  27.014  11.154
79262W        W50791   4.392  20.576   3.683
79263W        W50792  11.553   6.044  12.069
79264W        W50793   5.742  29.686  10.731
79265W        W50794  21.339  23.047  12.191
79266W        W50795  22.562  35.064  11.986
79267W        W50796   7.620  21.107  12.969
79268W        W50797   6.025  44.845  11.509
79269W        W50798  17.996  12.399  11.662
79270W        W50799  24.710  30.073  13.543
79271W        W50800  42.303  30.672   3.672
79272W        W50801   6.504  34.933   4.416
79273W        W50802  42.981  10.134   0.720
79274W        W50803  35.987   7.666  10.510
79275W        W50804  37.969  24.252  11.620
79276W        W50805  22.855  38.048  12.451
79277W        W50806   3.425  36.410  11.511
79278W        W50807   5.096  39.819  12.089
79279W        W50808  27.344  43.160  13.479
79280W        W50809  26.112   8.778   4.585
79281W        W50810   3.314  40.173  12.012
79282W        W50811   6.451   1.550   1.373
79283W        W50812   6.941  36.617   1.756
79284W        W50813  25.245  27.446   2.762
79285W        W50814  11.890  22.871   3.202
79286W        W50815  35.510  32.112  10.609
79287W        W50816  24.638   8.572  14.767
79288W        W50817   1.613  17.262  11.842
79289W        W50818  36.285  44.770   4.503
79290W        W50819  11.262  15.381   0.410
79291W        W50820  34.498  34.073  12.377
79292W        W50821  11.247  31.118   1.420
79293W        W50822   5.066  30.769  11.304
79294W        W50823  29.484  33.437   1.320
79295W        W50824  44.017  19.244  14.347
79296W        W50825  43.966  19.190   0.325
79297W        W50826  29.681  12.608   2.599
79298W        W50827  26.207  36.538  12.907
79299W        W50828  41.207  23.523   3.781
79300W        W50829  33.645  18.197   1.818
79301W        W50830  27.447  41.387   3.883
79302W        W50831  40.042  19.687   2.600
79303W        W50832   6.357  33.865   4.374
79304W        W50833  16.018  13.567   4.748
79305W        W50834  43.979  21.298   1.485
79306W        W50835  37.330  30.865  11.587
79307W        W50836  29.882  33.450   2.698
79308W        W50837  12.335  42.785   0.255
79309W        W50838  29.505   7.009   4.583
79310W        W50839  21.356   0.858  11.490
79311W        W50840  21.493  19.623  13.031
79312W        W50841  35.418   5.490  13.426
79313W        W50842  31.866  14.715   1.755
79314W        W50843  10.887  37.683   0.090
79315W        W50844  26.074  38.907   4.390
79316W        W50845  33.004  27.637  13.476
79317W        W50846   2.393  23.223  12.343
79318W        W50847  20.361   1.129   1.886
79319W        W50848  34.946  28.335  13.889
79320W        W50849  39.536  24.975   1.280
79321W        W50850  17.287  17.301   3.165
79322W        W50851  13.589  19.991  14.463
79323W        W50852  24.540  38.671  11.081
79324W        W50853  39.731  24.213   0.696
79325W        W50854  18.834  31.095   3.773
79326W        W50855  36.779  38.024   0.018
79327W        W50856  38.091  16.772  11.529
79328W        W50857  24.772  20.773  14.354
79329W        W50858  21.776  44.237   1.369
79330W        W50859  40.873  20.517   4.642
79331W        W50860  32.205  40.906   0.778
79332W        W50861  18.879   9.147  14.677
79333W        W50862  24.580  37.444   0.745
79334W        W50863  39.589  40.616   0.735
79335W        W50864  44.755  35.346  14.686
79336W        W50865  30.839  34.905  11.533
79337W        W50866   7.472  34.923   0.286
79338W        W50867  13.717  36.537  14.135
79339W        W50868  28.516  24.456   4.357
79340W        W50869   1.974   7.797   1.449
79341W        W50870  18.140   8.484   3.742
79342W        W50871  41.089  34.439   2.294
79343W        W50872  29.723  24.049  10.282
79344W        W50873  36.206  42.865  10.103
79345W        W50874  37.478  17.424  11.104
79346W        W50875   5.489  36.403   5.037
79347W        W50876  10.446  18.005   1.256
79348W        W50877  39.456  17.084  13.192
79349W        W50878   2.331  26.887   3.215
79350W        W50879  14.195  20.503   1.811
79351W        W50880   9.242  18.160  11.662
79352W        W50881  18.133  35.660  12.051
79353W        W50882   1.082  43.717   4.024
79354W        W50883  35.150   9.166   2.702
79355W        W50884  25.429  18.279   4.514
79356W        W50885  21.725   5.252   4.615
79357W        W50886  34.162  11.084   4.684
79358W        W50887   8.491   4.241   3.958
79359W        W50888  41.975  23.833  14.042
79360W        W50889  18.177  42.868   0.498
79361W        W50890  19.759  13.374  12.541
79362W        W50891  44.462  18.550   0.079
79363W        W50892  16.289  36.567   3.112
79364W        W50893  31.469  19.230  12.965
79365W        W50894  40.781  43.793   4.265
79366W        W50895   2.693  11.091   1.000
79367W        W50896  28.892  26.417  11.727
79368W        W50897   7.254  20.013   0.574
79369W        W50898  14.373   6.659  11.484
79370W        W50899  18.511  43.970   3.750
79371W        W50900   2.438  28.469   2.133
79372W        W50901   7.818  39.449   2.749
79373W        W50902  15.555   8.591  14.005
79374W        W50903  27.637  20.051  14.208
79375W        W50904  39.967  13.823   1.716
79376W        W50905   5.498   6.716  14.481
79377W        W50906  17.083  16.895  11.538
79378W        W50907  30.984  10.501   1.291
79379W        W50908  41.957  29.916  13.126
79380W        W50909  22.171  38.790  13.890
79381W        W50910  29.397  21.811   0.145
79382W        W50911   9.523  15.859   4.762
79383W        W50912  39.429  16.685  13.553
79384W        W50913  22.627  13.785  10.655
79385W        W50914  38.490  16.073   1.930
79386W        W50915  21.038  38.590  14.825
79387W        W50916  19.269  41.384   3.093
79388W        W50917  26.028  22.688  11.987
79389W        W50918   1.472   9.131  12.425
79390W        W50919   0.276   1.315  12.582
79391W        W50920  36.336  12.542   3.628
79392W        W50921  42.833  44.560   0.820
79393W        W50922  23.183  16.234  13.923
79394W        W50923  13.478  30.241   3.697
79395W        W50924  26.987  31.162   0.854
79396W        W50925  26.563  29.906  11.813
79397W        W50926  10.746  27.471   1.801
79398W        W50927  43.864   6.107  12.815
79399W        W50928   5.725  18.785   2.598
79400W        W50929  37.949  13.716  14.485
79401W        W50930  35.958  18.127   1.379
79402W        W50931  43.835  39.594   3.776
79403W        W50932  36.964  32.617   0.013
79404W        W50933  19.224  34.626   0.857
79405W        W50934  35.305   1.711  14.934
79406W        W50935  20.675  33.560  12.912
79407W        W50936  32.793  32.419  10.799
79408W        W50937   8.036  37.358  12.526
79409W        W50938  43.097  26.727   4.613
79410W        W50939  10.852   7.555   3.362
79411W        W50940  12.618  35.436  11.514
79412W        W50941  40.321   1.236  13.497
79413W        W50942  18.766  24.138   0.477
79414W        W50943  29.599  27.926  13.397
79415W        W50944   6.689  42.325  14.501
79416W        W50945  12.363  20.807   2.632
79417W        W50946  40.015   8.697  12.670
79418W        W50947  23.206   5.888   4.206
79419W        W50948  21.005   6.150  11.651
79420W        W50949  40.346  26.470  12.856
79421W        W50950  19.536  30.033  13.002
79422W        W50951  27.332   0.213   1.060
79423W        W50952   0.429   7.928   2.207
79424W        W50953   7.823   3.805   1.379
79425W        W50954  35.710  24.230   2.387
79426W        W50955  26.580  11.221  11.915
79427W        W50956  44.290  43.502   2.375
79428W        W50957  33.916  28.829  11.499
79429W        W50958  19.561  15.647   1.683
79430W        W50959   2.658  25.807  12.762
79431W        W50960  24.123  24.877  10.789
79432W        W50961  41.330  30.885  13.041
79433W        W50962   0.474  14.735   1.313
79434W        W50963  14.784  34.256   2.784
79435W        W50964  24.452   5.812   2.831
79436W        W50965  38.832  19.993  11.044
79437W        W50966  18.258  20.434  12.830
79438W        W50967  34.519  36.000   0.867
79439W        W50968  13.471  23.223  14.806
79440W        W50969  31.905  34.896   4.439
79441W        W50970  43.662  29.438   3.658
79442W        W50971  43.422  17.059   2.882
79443W        W50972  32.872   2.290   4.569
79444W        W50973   8.236   2.487   4.508
79445W        W50974  10.682  23.690  11.425
79446W        W50975   1.245  38.861  10.953
79447W        W50976   3.094   7.492  12.159
79448W        W50977  14.867   7.889   4.035
79449W        W50978  37.781   2.280   3.106
79450W        W50979   3.307   7.834   1.534
79451W        W50980  41.885   4.640   0.248
79452W        W50981   1.059  13.755  10.666
79453W        W50982  44.228  36.657  14.120
79454W        W50983  18.740   5.410   1.487
79455W        W50984   2.280  36.034  14.455
79456W        W50985  37.132  40.836  10.512
79457W        W50986  13.438  18.751   1.668
79458W        W50987  11.068  11.144   3.760
79459W        W50988   2.862  27.174  13.200
79460W        W50989   0.016  31.933   0.239
79461W        W50990   9.881  30.603   1.562
79462W        W50991  14.313   6.348   3.623
79463W        W50992  30.855  41.973   2.851
79464W        W50993  31.098   4.768  11.377
79465W        W50994  24.193  34.344  14.590
79466W        W50995  19.771  33.453   2.225
79467W        W50996   2.752  35.597  14.825
79468W        W50997  32.533  16.003   1.194
79469W        W50998  15.969  11.508   0.805
79470W        W50999  19.769  23.749  12.030
79471W        W51000  42.860  10.751   3.126
79472W        W51001   1.399  13.356  12.013
79473W        W51002  22.535  38.799   3.165
79474W        W51003  38.775  40.804   1.207
79475W        W51004  41.787  10.700   4.112
79476W        W51005  39.139  28.662  12.505
79477W        W51006   4.414  40.227   4.696
79478W        W51007  30.457  15.103   2.702
79479W        W51008   2.184  27.383  12.841
79480W        W51009  27.585  27.557  14.263
79481W        W51010  33.455   1.374  10.735
79482W        W51011  33.127  30.153  13.534
79483W        W51012  15.213  31.131   0.284
79484W        W51013  36.338   8.909  12.130
79485W        W51014  12.721  36.418   4.593
79486W        W51015  41.001  15.485   1.413
79487W        W51016  40.357  17.301   3.972
79488W        W51017  44.745  32.999   1.691
79489W        W51018   6.762  23.000   4.144
79490W        W51019  10.334  32.592  10.285
79491W        W51020   0.527  18.034   3.665
79492W        W51021  17.848  18.488  11.077
79493W        W51022  44.769  36.617   1.897
79494W        W51023  17.964   6.337   0.775
79495W        W51024  22.360  38.615   0.308
79496W        W51025  32.397   1.750  13.040
79497W        W51026   1.269  32.531  14.834
79498W        W51027   8.958   5.424  11.000
79499W        W51028   1.520   7.418  12.061
79500W        W51029  11.245   5.359   2.700
79501W        W51030  11.094  29.309   4.054
79502W        W51031  43.789  16.736   4.496
79503W        W51032  27.180  17.066   4.091
79504W        W51033  44.260  33.925   4.227
79505W        W51034  15.528  14.485   0.375
79506W        W51035   3.474  30.881  10.674
79507W        W51036   1.753  42.038  10.735
79508W        W51037  21.916  18.229  11.605
79509W        W51038  22.593  24.150   2.386
79510W        W51039   0.558  28.545   3.184
79511W        W51040  27.972  15.411   0.389
79512W        W51041  18.218  29.927   3.389
79513W        W51042  12.323  26.652   3.275
79514W        W51043  38.827  13.135  11.719
79515W        W51044  29.677   4.951  11.412
79516W        W51045  21.786  22.340   1.229
79517W        W51046  33.927  44.271   3.629
79518W        W51047  34.614  31.710   0.828
79519W        W51048  22.712   3.453  14.237
79520W        W51049  35.630  34.945  12.027
79521W        W51050  29.551  20.544  11.586
79522W        W51051  27.900   4.685   1.351
79523W        W51052  43.382   9.868   4.070
79524W        W51053  20.590  43.189  13.011
79525W        W51054  33.892  43.922  11.881
79526W        W51055  27.518  43.559  14.282
79527W        W51056  38.539  30.122  10.682
79528W        W51057   6.152   6.065  14.017
79529W        W51058  27.464   8.398  14.779
79530W        W51059  12.058  31.628   2.903
79531W        W51060  27.208  43.915  14.078
79532W        W51061  24.908  19.328  13.348
79533W        W51062  41.228   0.911  14.888
79534W        W51063  38.373  30.647  12.334
79535W        W51064  15.865   5.332   1.257
79536W        W51065  15.708  17.741   0.698
79537W        W51066  17.549  27.443   0.344
79538W        W51067  12.185   8.006  14.358
79539W        W51068  31.867  15.474   9.860
79540W        W51069   9.154  25.417   0.365
79541W        W51070  30.883  15.374   3.234
79542W        W51071  24.051  40.566  12.069
79543W        W51072  10.366  12.299   1.426
79544W        W51073  36.386  33.993   0.775
79545W        W51074  19.780  42.961   4.159
79546W        W51075  35.502  12.179  12.190
79547W        W51076   2.467  43.665   0.958
79548W        W51077   1.864  36.689  13.483
79549W        W51078   4.681  38.581   3.768
79550W        W51079  39.545  17.862  12.519
79551W        W51080  35.101  29.031   4.601
79552W        W51081  27.258   5.742   0.814
79553W        W51082  10.054  31.072   4.608
79554W        W51083   5.988  19.667  14.483
79555W        W51084  29.443   4.757   3.035
79556W        W51085  23.702  39.964  14.916
79557W        W51086  42.271  37.552   3.645
79558W        W51087  35.150  14.082  12.676
79559W        W51088  17.791  22.222  10.288
79560W        W51089  14.674  42.457  13.546
79561W        W51090  29.732  31.962   1.859
79562W        W51091  28.000   6.196   2.658
79563W        W51092   8.315  10.528  12.096
79564W        W51093  14.599  12.430  13.439
79565W        W51094  38.516  17.301  14.836
79566W        W51095  35.543   1.269  12.770
79567W        W51096   7.256   5.360  11.705
79568W        W51097  15.487   7.600  10.316
79569W        W51098  25.549  38.816   1.985
79570W        W51099  42.013  33.451   2.495
79571W        W51100  39.144  15.242  11.746
79572W        W51101   9.668  28.390  11.589
79573W        W51102  29.350  15.385   2.537
79574W        W51103  21.189  30.161   2.454
79575W        W51104  24.967  28.692  13.541
79576W        W51105   4.101  21.524  14.761
79577W        W51106  16.209  20.164  12.609
79578W        W51107   4.278  37.935   3.059
79579W        W51108  16.577  34.204   1.255
79580W        W51109  17.147   4.398  13.537
79581W        W51110  23.596  29.672   1.255
79582W        W51111  37.123  24.361  13.035
79583W        W51112  12.082  38.617  13.025
79584W        W51113  28.502  32.887  10.881
79585W        W51114  33.793  21.281   4.502
79586W        W51115  24.762   0.820   4.172
79587W        W51116  40.791  35.342   3.745
79588W        W51117  10.217   3.381   3.421
79589W        W51118   9.623  10.931  13.381
79590W        W51119  11.345  18.293   1.328
79591W        W51120  13.016   0.795   2.715
79592W        W51121  16.059   4.564   3.103
79593W        W51122   1.373  27.299   2.434
79594W        W51123  31.337  38.521   2.479
79595W        W51124   8.306  36.544  12.716
79596W        W51125  30.550  22.987   0.338
79597W        W51126   1.841  33.653   1.754
79598W        W51127   7.708  21.474  12.517
79599W        W51128  40.999  37.583   1.229
79600W        W51129  40.326  42.080  11.358
79601W        W51130  44.979   1.902   1.272
79602W        W51131  40.397  15.822  10.554
79603W        W51132  26.704  24.423   3.330
79604W        W51133   5.027  34.189  12.036
79605W        W51134   7.482  32.949  12.163
79606W        W51135   0.205  19.237  12.063
79607W        W51136  20.860  15.341  12.490
79608W        W51137  14.728  35.846   2.794
79609W        W51138  33.670  18.164   2.700
79610W        W51139  27.667  24.586   2.834
79611W        W51140  23.306  29.029  14.954
79612W        W51141   0.914  29.386   4.647
79613W        W51142   0.956   5.348  14.221
79614W        W51143  28.605  10.738   0.046
79615W        W51144  39.340   4.331  12.036
79616W        W51145   2.918  43.310   0.031
79617W        W51146   1.883  15.330  12.000
79618W        W51147  16.374  37.797  14.366
79619W        W51148   5.118  18.558  12.456
79620W        W51149  43.419  13.454   2.812
79621W        W51150  38.054   8.802  14.692
79622W        W51151  41.293  24.168   2.195
79623W        W51152   9.301   5.100  11.232
79624W        W51153  28.676  11.285   2.197
79625W        W51154  24.293  28.422  13.918
79626W        W51155  44.453   2.679   2.205
79627W        W51156   9.811  42.113  12.167
79628W        W51157  39.817  24.003  14.273
79629W        W51158  27.272  44.216  14.971
79630W        W51159   5.173   9.407   2.017
79631W        W51160   5.460  20.290   2.909
79632W        W51161  14.125  38.406   2.457
79633W        W51162  26.251  39.215  12.537
79634W        W51163  44.883  23.768  14.732
79635W        W51164  20.823  20.133  13.631
79636W        W51165  40.560   2.631  12.953
79637W        W51166  35.090  10.168   0.005
79638W        W51167  26.450  18.479  12.162
79639W        W51168  40.084  24.479  12.604
79640W        W51169   5.392  44.174  11.168
79641W        W51170  44.619  22.005  14.328
79642W        W51171  30.572  14.090   0.767
79643W        W51172  43.917  20.001   1.767
79644W        W51173  43.209   0.241   1.272
79645W        W51174  44.831  26.099   0.470
79646W        W51175  42.351  17.520   2.201
79647W        W51176  42.566  11.612   1.846
79648W        W51177  31.841  24.208   4.096
79649W        W51178  23.874  31.525  13.799
79650W        W51179  30.758  26.777  12.820
79651W        W51180  35.271   2.751   2.948
79652W        W51181   2.431  22.517  13.540
79653W        W51182  24.978  27.596   4.246
79654W        W51183  38.179   5.664   3.137
79655W        W51184  13.673  13.142  12.665
79656W        W51185   4.502  36.917  11.253
79657W        W51186  36.418   1.590  13.498
79658W        W51187   0.183  37.296  11.885
79659W        W51188   8.342  16.818  10.600
79660W        W51189  28.054  29.612  12.956
79661W        W51190   4.025  35.236  12.394
79662W        W51191  24.638  32.813  12.869
79663W        W51192  19.071  37.896  12.513
79664W        W51193   9.910  21.032  14.888
79665W        W51194  20.989  29.056   0.316
79666W        W51195   4.897   8.385  11.035
79667W        W51196  17.632  10.811  14.288
79668W        W51197  22.215  42.359  12.926
79669W        W51198  16.556  36.203  10.914
79670W        W51199  28.094  14.005  10.284
79671W        W51200  15.965  27.000  11.978
79672W        W51201  42.847   1.986  10.734
79673W        W51202  13.698   2.153  11.660
79674W        W51203  31.958   6.763  14.057
79675W        W51204  14.533  44.877  12.832
79676W        W51205  33.944   0.149   0.345
79677W        W51206  34.064  27.394   2.827
79678W        W51207  28.190   6.928  13.935
79679W        W51208  12.306  40.132   0.933
79680W        W51209  32.365  24.202   4.205
79681W        W51210  31.909  19.805   3.621
79682W        W51211   0.571  36.384  10.602
79683W        W51212  43.274  23.733   2.174
79684W        W51213  26.446   4.797  11.161
79685W        W51214  38.312  39.061   2.256
79686W        W51215  42.013  36.855  11.078
79687W        W51216  34.500   0.783  11.232
79688W        W51217  40.374   7.720  12.967
79689W        W51218  18.027   6.409  13.282
79690W        W51219  31.844  43.457  12.576
79691W        W51220  14.638  17.145  11.250
79692W        W51221  18.055  43.731   3.701
79693W        W51222  26.507   9.773  13.783
79694W        W51223  35.930  14.487  12.016
79695W        W51224  21.080  34.335  14.035
79696W        W51225  16.365  22.748  14.719
79697W        W51226  23.796  36.440   2.378
79698W        W51227  33.595  44.155  14.300
79699W        W51228  27.601  25.738   1.779
79700W        W51229  39.819  30.634   1.919
79701W        W51230  11.395   2.772  14.829
79702W        W51231  37.996   0.487   3.360
79703W        W51232  38.984   8.348   3.172
79704W        W51233  22.921  30.906   1.716
79705W        W51234  41.527   7.632   0.266
79706W        W51235   2.524  20.635   3.224
79707W        W51236  26.910  37.855   1.482
79708W        W51237  38.027  19.188  14.209
79709W        W51238  39.335   2.695  11.653
79710W        W51239  13.814  30.549  12.234
79711W        W51240   7.576   4.799  14.428
79712W        W51241  42.791  31.644   2.713
79713W        W51242  13.629  16.782   4.245
79714W        W51243  10.681  40.083  14.440
79715W        W51244  38.455  42.118   2.864
79716W        W51245  35.812  27.161   1.372
79717W        W51246  38.306  24.953  14.095
79718W        W51247  35.074  24.908   0.387
79719W        W51248  38.452  15.400   3.411
79720W        W51249   0.349   0.697   2.345
79721W        W51250  34.869  14.806  10.598
79722W        W51251  20.277   7.543  10.374
79723W        W51252  21.638   0.345  10.642
79724W        W51253  17.848   5.409   2.794
79725W        W51254  11.372   1.839   3.674
79726W        W51255  43.258  35.149   4.724
79727W        W51256  42.524  30.932   1.012
79728W        W51257  29.108  28.509  14.083
79729W        W51258   7.380  37.977  10.498
79730W        W51259  41.372  27.155  14.962
79731W        W51260  23.241  42.936  10.306
79732W        W51261  12.912  37.010  13.824
79733W        W51262  30.610  28.721  10.646
79734W        W51263  27.526  26.480  12.414
79735W        W51264  36.925  33.915  12.967
79736W        W51265  18.201   1.753  13.179
79737W        W51266  31.736  30.955   2.037
79738W        W51267   1.684  12.864  13.508
79739W        W51268  41.166  16.547   2.327
79740W        W51269   8.485  12.584  12.951
79741W        W51270  36.862  35.020   4.546
79742W        W51271  42.858  13.764   2.759
79743W        W51272  12.575  18.664  14.431
79744W        W51273  38.585   2.402  12.740
79745W        W51274  22.136  31.164  13.450
79746W        W51275  22.497  14.864  11.811
79747W        W51276  24.653   1.625  11.816
79748W        W51277  15.363  17.081  14.377
79749W        W51278  25.719  13.536  14.411
79750W        W51279  25.940   5.371  12.403
79751W        W51280  40.445  39.317   4.733
79752W        W51281   1.810   9.028   4.126
79753W        W51282  41.305  18.856  10.667
79754W        W51283  41.590  32.367  11.157
79755W        W51284  44.155  18.674  12.010
79756W        W51285  33.611  33.054   2.683
79757W        W51286  42.866  23.240  14.347
79758W        W51287  16.625  14.232  13.839
79759W        W51288  42.403  42.963   2.477
79760W        W51289  31.943  11.865   1.897
79761W        W51290  21.107  12.641  14.792
79762W        W51291  27.845  10.331   1.812
79763W        W51292  33.008   3.354   1.540
79764W        W51293  28.005  24.669  13.646
79765W        W51294  35.303   2.897  13.984
79766W        W51295  16.968  43.719   2.045
79767W        W51296   1.886  39.875   1.701
79768W        W51297  31.620  24.237  12.550
79769W        W51298  18.720  26.588   3.726
79770W        W51299   0.866  36.102   2.398
79771W        W51300  34.026  10.326  13.391
79772W        W51301  30.002  40.032   4.253
79773W        W51302  17.247  37.589  11.148
79774W        W51303   7.100   7.710  12.990
79775W        W51304  43.330  34.879   1.270
79776W        W51305  18.561  43.444  10.776
79777W        W51306  27.426  37.804   1.346
79778W        W51307  34.021  34.913  13.362
79779W        W51308   6.985   0.304  11.991
79780W        W51309  42.158  38.993   4.203
79781W        W51310  22.457  40.729  11.665
79782W        W51311  24.106   4.450  13.803
79783W        W51312  24.541  23.142  12.847
79784W        W51313   7.912  19.752  11.886
79785W        W51314  44.396   7.617   3.750
79786W        W51315  30.665  41.331  11.785
79787W        W51316   8.521  36.161  14.022
79788W        W51317  11.301  21.103  12.770
79789W        W51318  16.601  28.365   0.208
79790W        W51319  37.196  42.356  13.977
79791W        W51320  18.785  13.795   3.291
79792W        W51321  25.756  35.944   3.251
79793W        W51322  13.407  15.331  11.731
79794W        W51323  26.903  38.609  13.818
79795W        W51324   2.032  27.010  11.953
79796W        W51325  43.324  22.229   3.300
79797W        W51326   1.948  24.964  14.491
79798W        W51327  28.943  10.232  14.854
79799W        W51328  17.714  22.017   3.387
79800W        W51329  22.455  26.107   0.077
79801W        W51330  20.247  34.321   0.830
79802W        W51331   6.184  40.370   3.631
79803W        W51332  26.047  41.867   0.416
79804W        W51333  10.874  30.712   3.181
79805W        W51334  12.154  44.983  12.489
79806W        W51335  19.572   4.425   1.228
79807W        W51336  15.741  33.194   1.290
79808W        W51337  43.302  23.159   1.694
79809W        W51338  28.796   1.825  13.198
79810W        W51339  22.024  26.888  10.751
79811W        W51340  29.928  27.957  11.994
79812W        W51341   1.373  33.375  12.126
79813W        W51342  14.150  18.316   4.371
79814W        W51343   3.581   2.327   3.874
79815W        W51344  17.815  14.855   0.345
79816W        W51345  29.006  31.677  12.930
79817W        W51346   7.403  23.416   0.377
79818W        W51347  31.377   1.444   4.298
79819W        W51348  22.989  18.314   0.822
79820W        W51349  35.044  31.879   0.568
79821W        W51350  15.625  16.640  10.799
79822W        W51351   9.155  14.233  14.943
79823W        W51352  15.131  29.636   3.209
79824W        W51353  41.907  27.198  14.247
79825W        W51354  21.829  40.079   2.712
79826W        W51355  11.824   2.773  14.511
79827W        W51356   4.499   9.858   1.111
79828W        W51357  43.659  32.514   3.613
79829W        W51358  44.356   6.635  13.458
79830W        W51359  22.188  31.944   0.269
79831W        W51360  12.828  11.374   3.633
79832W        W51361  32.697  32.501  14.367
79833W        W51362  12.841  40.086   0.942
79834W        W51363   0.213  40.274   4.224
79835W        W51364   9.762  33.696  12.692
79836W        W51365  26.199   6.930   1.912
79837W        W51366  13.166  30.907  13.793
79838W        W51367  22.061  34.277  11.237
79839W        W51368  11.904  32.566  14.933
79840W        W51369  22.582  37.048  12.047
79841W        W51370   0.729   5.848   0.700
79842W        W51371   0.304  38.962  13.798
79843W        W51372   9.724  33.164   2.970
79844W        W51373  37.139  37.587   3.661
79845W        W51374   2.962  39.579  12.679
79846W        W51375  44.271  14.266  10.887
79847W        W51376  26.408  20.755   1.290
79848W        W51377   1.720   4.582  14.614
79849W        W51378  15.711  42.460   4.776
79850W        W51379  13.347  20.618  13.551
79851W        W51380  27.011  27.270   0.911
79852W        W51381  42.797  16.263  12.901
79853W        W51382  36.866   0.818   4.602
79854W        W51383  35.235  28.008  12.291
79855W        W51384  40.721  35.091  14.360
79856W        W51385  24.072  24.369  10.770
79857W        W51386  41.042   4.043  13.599
79858W        W51387  17.563   6.410   0.349
79859W        W51388   0.014  16.126   0.864
79860W        W51389   3.340  38.855   2.857
79861W        W51390   8.569  27.454   3.702
79862W        W51391  32.600  41.157  12.165
79863W        W51392  35.007  31.020  11.036
79864W        W51393  27.537  28.379  13.955
79865W        W51394  20.008   5.358   4.059
79866W        W51395  41.947  39.641  13.412
79867W        W51396  15.182  39.985  12.513
79868W        W51397   2.376  41.903   1.037
79869W        W51398  27.172  13.031   4.699
79870W        W51399  11.739  31.502   1.486
79871W        W51400  28.893  22.743   1.275
79872W        W51401  40.123  28.719  12.449
79873W        W51402  28.628  34.254  11.598
79874W        W51403  15.780  18.041  13.334
79875W        W51404   9.711  15.685   1.923
79876W        W51405  41.379  28.794  11.595
79877W        W51406  11.496   6.477  12.594
79878W        W51407   5.605  27.715  13.815
79879W        W51408  22.942  18.612  14.016
79880W        W51409  21.449  21.584  11.077
79881W        W51410  42.812  35.022   1.291
79882W        W51411  30.053  35.850   0.912
79883W        W51412  18.181  38.393   1.201
79884W        W51413   9.360   8.640   1.446
79885W        W51414  26.132  37.790   4.714
79886W        W51415   8.684  23.062   2.767
79887W        W51416  12.326  40.708  12.319
79888W        W51417  22.132  23.066  14.099
79889W        W51418  25.576  20.973  14.734
79890W        W51419  15.293  34.724  12.084
79891W        W51420  38.286  23.357   1.674
79892W        W51421  43.761  19.291  11.672
79893W        W51422  32.443  13.619  14.263
79894W        W51423  14.458   2.142  12.901
79895W        W51424  18.701  21.621   4.364
79896W        W51425  28.888  10.121   0.818
79897W        W51426   9.825   1.965   4.791
79898W        W51427  39.782  35.372   3.721
79899W        W51428  23.726  20.366   2.751
79900W        W51429  29.998  40.041   1.403
79901W        W51430  33.287  33.743   3.894
79902W        W51431  20.674  27.346   4.960
79903W        W51432  44.566  16.702  14.802
79904W        W51433   8.165   7.924  14.836
79905W        W51434   1.763  18.154   3.312
79906W        W51435   9.743   5.740  12.078
79907W        W51436  28.413  29.513  10.650
79908W        W51437   1.186  15.259   1.425
79909W        W51438   3.163   2.295   4.865
79910W        W51439  15.488  11.849   4.409
79911W        W51440   8.768  16.041  11.536
79912W        W51441  43.297   2.004  10.459
79913W        W51442   7.100   8.656  12.711
79914W        W51443   3.727  36.369   4.077
79915W        W51444  33.979   6.599   1.376
79916W        W51445  15.113  32.587   1.002
79917W        W51446  26.141  38.611   3.638
79918W        W51447  17.634  11.876  11.218
79919W        W51448   7.710   6.764   4.014
79920W        W51449  28.226  13.912   0.047
79921W        W51450   2.931   2.837  14.550
79922W        W51451   4.379  43.977   1.953
79923W        W51452  41.903   3.496  12.240
79924W        W51453  25.484  14.021  14.532
79925W        W51454  26.030  33.675   1.728
79926W        W51455  18.099  27.231  11.183
79927W        W51456  37.468  22.178   0.952
79928W        W51457  23.613   1.232   1.259
79929W        W51458   1.905   4.555  11.890
79930W        W51459  26.733  31.686   1.919
79931W        W51460  23.151   0.500  14.827
79932W        W51461  28.581   1.773   3.537
79933W        W51462  26.424   9.357   2.394
79934W        W51463  21.531   7.974   4.515
79935W        W51464  18.786  30.451  11.700
79936W        W51465  16.082  30.824  13.296
79937W        W51466  10.475  42.374   3.207
79938W        W51467  35.834  10.582   2.379
79939W        W51468  42.946  20.740  13.285
79940W        W51469  22.542  24.708  14.006
79941W        W51470  31.896   9.700  14.951
79942W        W51471  34.063   8.681  10.836
79943W        W51472  44.851  30.951  11.521
79944W        W51473  23.617   4.757   2.810
79945W        W51474  43.210  29.602  14.347
79946W        W51475  19.109  31.791  12.351
79947W        W51476  40.831  23.988  11.212
79948W        W51477  35.820  23.074  11.861
79949W        W51478  14.840  16.670  14.092
79950W        W51479   2.855  29.928   0.320
79951W        W51480  27.735   8.350   1.304
79952W        W51481  18.751   1.472  12.905
79953W        W51482   4.835  42.747  14.686
79954W        W51483  21.048  41.424  12.486
79955W        W51484  15.237   5.313  14.714
79956W        W51485  22.449  10.893   2.342
79957W        W51486  24.665  28.897   4.548
79958W        W51487   1.919  27.460  12.398
79959W        W51488  33.698  11.353  10.055
79960W        W51489   0.433  15.340  14.467
79961W        W51490  14.651  37.501  14.011
79962W        W51491  23.071   3.056   2.229
79963W        W51492   4.719  15.118  12.478
79964W        W51493  18.056   3.215   4.120
79965W        W51494  28.076  19.255   2.261
79966W        W51495  13.862  10.180   4.493
79967W        W51496  32.856   7.923   3.696
79968W        W51497  12.382  10.313  13.336
79969W        W51498  29.684  13.782   3.329
79970W        W51499  33.680  43.406  13.944
79971W        W51500  37.935   9.290  13.981
79972W        W51501  43.237  28.921  12.004
79973W        W51502   4.374  13.633   0.015
79974W        W51503  24.219  14.502  10.441
79975W        W51504  39.904  15.046   4.517
79976W        W51505  28.713  43.269  10.843
79977W        W51506  43.202   6.627  10.765
79978W        W51507  42.335  40.074  11.369
79979W        W51508  38.748  30.486   3.727
79980W        W51509  23.094   2.878   3.974
79981W        W51510  20.226  16.102   2.351
79982W        W51511   9.126  13.264   2.366
79983W        W51512  43.038  30.378   4.912
79984W        W51513  30.978  23.594  13.985
79985W        W51514  36.950  15.597  13.010
79986W        W51515  41.196  35.113   4.520
79987W        W51516  17.868   0.409  13.033
79988W        W51517   7.182  32.385  13.489
79989W        W51518  21.829  35.169  13.244
79990W        W51519  36.149  43.847   4.097
79991W        W51520  41.788   2.202  13.902
79992W        W51521  28.973  25.800   1.454
79993W        W51522  25.372  42.597  14.461
79994W        W51523  21.105  11.219   4.064
79995W        W51524   2.798  17.292   2.134
79996W        W51525  30.990   2.608   2.393
79997W        W51526  14.554  25.913  13.726
79998W        W51527  39.816  26.227  12.893
79999W        W51528   7.296  44.777   1.895
80000W        W51529  31.585  25.209  11.715
80001W        W51530   0.187  17.199   1.163
80002W        W51531  26.115   5.836   2.663
80003W        W51532   1.232  21.569   0.426
80004W        W51533   9.549   8.456   1.917
80005W        W51534  32.084  33.466   4.839
80006W        W51535  11.937  19.167   3.490
80007W        W51536   2.917  31.179  13.764
80008W        W51537  32.804  35.044   0.354
80009W        W51538  18.849  28.956   2.781
80010W        W51539  23.885   6.370  14.792
80011W        W51540  20.581  16.832  11.559
80012W        W51541   9.891   1.997   2.189
80013W        W51542  40.993  38.102  12.400
80014W        W51543  29.527   9.084   4.096
80015W        W51544  17.839  19.552  10.296
80016W        W51545  35.424  26.501   0.617
80017W        W51546  20.541  44.803   4.739
80018W        W51547  25.035  19.616   4.117
80019W        W51548  20.060  38.644  10.000
80020W        W51549   1.208  16.313   0.345
80021W        W51550  41.863   3.341   4.150
80022W        W51551  24.906  38.780  14.680
80023W        W51552  26.392  31.027  10.388
80024W        W51553  14.514   5.458  14.511
80025W        W51554  31.401  42.522  12.557
80026W        W51555  19.257   6.003   1.746
80027W        W51556  18.070   3.749  11.982
80028W        W51557  33.213  15.354   2.268
80029W        W51558  28.180  14.715   2.358
80030W        W51559  29.017  27.433   0.512
80031W        W51560  23.466  28.722   2.211
80032W        W51561  22.637  40.512   4.966
80033W        W51562  38.854  17.308   0.233
80034W        W51563   2.309  33.505   0.982
80035W        W51564  28.888  37.229   3.205
80036W        W51565   2.348   2.936   4.398
80037W        W51566   7.301   0.113  11.635
80038W        W51567  11.106  23.146  11.199
80039W        W51568   6.156  32.539   1.274
80040W        W51569  20.028  38.566  11.565
80041W        W51570   2.934  38.485   0.856
80042W        W51571  24.236  44.189   4.184
80043W        W51572  19.089  27.273  11.148
80044W        W51573  22.154  33.971  11.653
80045W        W51574  22.686  34.286  12.512
80046W        W51575  32.854  14.323  10.914
80047W        W51576  39.448   8.357  13.376
80048W        W51577  30.275   4.306   4.265
80049W        W51578  40.456  18.174   2.818
80050W        W51579  17.606   3.647  13.403
80051W        W51580  25.679   2.770   3.140
80052W        W51581  17.204  38.313   4.179
80053W        W51582  33.866  34.375  11.484
80054W        W51583  36.588  20.546  13.939
80055W        W51584  38.526  34.080   3.013
80056W        W51585  28.947  21.317  12.954
80057W        W51586  38.743  42.014   2.319
80058W        W51587  23.911  10.769  13.471
80059W        W51588  17.363  34.508  12.185
80060W        W51589  41.255  16.009   1.296
80061W        W51590  18.081   8.122   0.884
80062W        W51591   1.489  12.869   1.858
80063W        W51592  22.414  38.415   2.188
80064W        W51593  13.781   1.127   0.504
80065W        W51594  13.768  36.422  10.655
80066W        W51595  22.819  26.310  12.802
80067W        W51596  44.071   5.738   0.172
80068W        W51597   0.297   7.118  11.586
80069W        W51598  15.050   8.799  11.885
80070W        W51599  10.157  26.049   1.154
80071W        W51600  32.001  31.510   4.249
80072W        W51601  22.283  31.564  13.049
80073W        W51602   8.700  26.910  11.084
80074W        W51603   4.297  39.123   0.862
80075W        W51604  40.900  30.028  11.699
80076W        W51605  24.073  14.737   1.708
80077W        W51606  31.672  39.597   0.485
80078W        W51607   2.332  38.367  10.765
80079W        W51608  23.754  21.184   2.249
80080W        W51609   9.589  33.802   0.299
80081W        W51610  10.796  33.445   0.372
80082W        W51611  25.667  13.757  13.549
80083W        W51612  30.557  22.461   1.975
80084W        W51613  27.352  10.288  14.827
80085W        W51614   1.384  30.595  12.016
80086W        W51615  25.551   7.671  14.320
80087W        W51616  39.459  33.735   4.504
80088W        W51617  30.386  14.860   3.694
80089W        W51618  35.934  17.392   2.177
80090W        W51619  29.682   8.270  11.340
80091W        W51620  15.591   5.860   4.532
80092W        W51621  39.097  18.506  11.216
80093W        W51622   1.300  16.335  13.996
80094W        W51623  23.546  21.755  11.644
80095W        W51624  10.239  12.414   0.379
80096W        W51625   3.675  33.468  14.099
80097W        W51626  30.218  14.318  11.203
80098W        W51627  13.410  31.412  13.151
80099W        W51628  13.359  12.990   1.878
80100W        W51629  12.679  32.509  14.491
80101W        W51630   5.802  28.070   3.230
80102W        W51631   5.218   4.904  13.947
80103W        W51632  15.087   4.214   0.549
80104W        W51633  10.391  42.781   3.557
80105W        W51634  28.404  24.919  14.354
80106W        W51635  25.493  24.435  12.409
80107W        W51636  19.752  20.880   1.908
80108W        W51637  38.343  22.528  13.938
80109W        W51638  13.315  40.058  10.502
80110W        W51639  30.985   2.874  11.142
80111W        W51640  16.595  32.554  10.452
80112W        W51641  39.327   0.702  13.445
80113W        W51642  19.095  10.200  11.629
80114W        W51643  35.816  12.770  14.805
80115W        W51644  44.823  40.973  13.565
80116W        W51645  18.958  33.434  14.515
80117W        W51646  33.886   0.292  10.913
80118W        W51647  24.776  37.914  13.702
80119W        W51648  23.912  23.099  11.033
80120W        W51649   3.252  31.645  11.925
80121W        W51650  27.031  27.506  12.165
80122W        W51651  37.676   3.850  14.369
80123W        W51652  41.219   6.806   4.522
80124W        W51653  28.262  14.179   2.251
80125W        W51654  43.522  39.613   2.063
80126W        W51655   6.231  24.140   1.799
80127W        W51656  11.259  24.348   1.823
80128W        W51657  34.400  24.852  13.957
80129W        W51658   0.026  15.030  12.143
80130W        W51659  33.512  35.166  14.532
80131W        W51660  30.663  38.312   0.390
80132W        W51661   3.378  42.040  10.647
80133W        W51662  38.139  18.181  11.214
80134W        W51663  30.964  35.858  11.536
80135W        W51664  40.590   1.144   2.309
80136W        W51665  26.211  33.522   3.047
80137W        W51666  29.721  32.927   4.040
80138W        W51667   2.802  17.565  13.368
80139W        W51668  40.279   0.877   1.386
80140W        W51669  32.576  10.178  11.120
80141W        W51670  30.461  21.255   1.256
80142W        W51671  20.512  14.653   3.645
80143W        W51672  25.498  19.144   3.243
80144W        W51673  37.511  44.581   1.764
80145W        W51674  38.466  28.017   0.993
80146W        W51675  16.180  35.282   1.806
80147W        W51676   2.183  22.489   4.943
80148W        W51677  17.132  20.115  12.581
80149W        W51678  21.109  24.112  10.977
80150W        W51679  36.098   8.388  13.329
80151W        W51680  20.703  40.072   1.228
80152W        W51681  37.911   5.798  12.226
80153W        W51682  29.770  22.308   5.150
80154W        W51683  36.548  28.975  13.912
80155W        W51684  44.849  41.168  14.042
80156W        W51685  32.863   2.391   0.754
80157W        W51686   0.452  31.868   1.474
80158W        W51687  43.423   0.200   2.194
80159W        W51688  17.787  40.840  13.340
80160W        W51689  44.328  23.666  13.492
80161W        W51690   6.630  19.747   2.338
80162W        W51691  24.667  11.213   1.969
80163W        W51692  21.818  15.280  10.623
80164W        W51693  30.897  27.143  11.567
80165W        W51694   1.403  38.620  13.354
80166W        W51695  22.198   8.235  14.321
80167W        W51696  38.285   9.472  12.463
80168W        W51697  13.168   8.671   2.801
80169W        W51698  16.040  40.893   2.929
80170W        W51699  25.463  31.246   4.785
80171W        W51700  11.638   1.668  14.438
80172W        W51701  40.353   7.522   5.144
80173W        W51702  20.003  31.279  11.274
80174W        W51703  32.679  40.303   2.678
80175W        W51704  35.149  30.102   1.705
80176W        W51705  31.830   9.344   1.376
80177W        W51706   7.268  29.686   1.657
80178W        W51707  27.062   0.929  10.778
80179W        W51708  39.807  25.213   2.742
80180W        W51709  44.978  25.519  13.827
80181W        W51710   8.883   8.379   4.207
80182W        W51711  13.969   6.418   0.307
80183W        W51712  38.018  30.810  14.424
80184W        W51713  18.828  11.326   4.576
80185W        W51714  34.809   8.806  13.341
80186W        W51715  26.667  27.526   2.727
80187W        W51716  23.759  34.129   3.593
80188W        W51717  28.408   3.723  14.398
80189W        W51718  37.453  18.077  14.318
80190W        W51719  10.174  14.160  11.143
80191W        W51720  15.740  38.431  14.542
80192W        W51721  15.203   0.011   1.168
80193W        W51722  16.053   6.435  12.915
80194W        W51723  10.127  29.134   3.718
80195W        W51724   8.703  27.011   0.394
80196W        W51725   4.931  28.735   1.838
80197W        W51726   1.260   9.143   1.280
80198W        W51727  24.667  13.123   1.835
80199W        W51728   6.783  37.595   2.205
80200W        W51729   9.666  29.293   4.259
80201W        W51730  12.345  39.337   3.634
80202W        W51731  34.105  39.534   2.959
80203W        W51732  39.541  35.496   3.220
80204W        W51733  12.649   9.894   2.884
80205W        W51734  35.530  17.748   2.239
80206W        W51735  40.259  37.049   2.328
80207W        W51736  43.822  43.848  13.371
80208W        W51737  21.657  28.735   3.698
80209W        W51738  11.814  42.054   4.874
80210W        W51739  17.375   9.981   2.769
80211W        W51740  32.006  25.593  10.909
80212W        W51741  38.832   7.513   2.883
80213W        W51742   0.813  15.428  12.679
80214W        W51743  24.697  19.480   2.300
80215W        W51744   8.250  30.907  11.617
80216W        W51745  31.999  34.166   3.470
80217W        W51746  14.179  31.703  14.433
80218W        W51747  13.262   3.387  14.519
80219W        W51748  23.662  27.757   4.628
80220W        W51749   3.231   1.345  11.683
80221W        W51750  10.729   0.390  13.659
80222W        W51751  41.441   4.640   4.597
80223W        W51752  23.923   7.104  14.474
80224W        W51753  18.677  41.567   1.758
80225W        W51754  27.408  22.495   0.808
80226W        W51755  30.298  35.496  14.759
80227W        W51756  32.459   6.738   3.385
80228W        W51757  12.586  40.246   3.401
80229W        W51758  28.880   6.202   2.207
80230W        W51759  31.864  16.406  13.858
80231W        W51760   4.360   5.758  10.628
80232W        W51761  27.839  27.829  12.633
80233W        W51762  11.280  33.541   1.747
80234W        W51763  36.162   9.318   0.961
80235W        W51764   7.187  36.283   1.422
80236W        W51765  33.962  27.564  11.993
80237W        W51766  35.570  13.153   3.185
80238W        W51767   2.520  24.131  12.119
80239W        W51768  29.056  39.055  11.463
80240W        W51769  18.497   8.401  14.571
80241W        W51770  28.093  34.031  12.287
80242W        W51771  34.901  21.461   3.298
80243W        W51772  26.194  39.582   2.791
80244W        W51773   6.621   8.481   3.275
80245W        W51774  33.952  25.617   4.104
80246W        W51775  35.120  19.767  11.045
80247W        W51776  28.678  27.666   1.339
80248W        W51777  21.927  21.199   1.659
80249W        W51778  15.264  39.939  13.018
80250W        W51779  38.319  41.143   0.295
80251W        W51780  28.726   0.515   1.319
80252W        W51781  43.070  32.040  13.428
80253W        W51782   7.141  17.032   4.019
80254W        W51783  38.060  21.612   4.198
80255W        W51784  14.192  37.316  10.523
80256W        W51785  33.120   0.812  11.545
80257W        W51786  43.236  29.642  13.020
80258W        W51787  35.756   6.062  12.491
80259W        W51788   6.191  22.149   0.739
80260W        W51789  25.984  33.698  14.365
80261W        W51790  27.551  25.547   3.069
80262W        W51791  33.115  21.792  14.744
80263W        W51792  14.462  39.804   1.026
80264W        W51793  42.975  36.467   1.156
80265W        W51794   1.644  23.928  12.478
80266W        W51795  35.689   1.979  12.056
80267W        W51796  19.670   8.739   1.306
80268W        W51797  40.609  37.821  11.490
80269W        W51798  31.459   2.771  14.404
80270W        W51799  37.500  42.097   3.259
80271W        W51800  16.798  33.139   0.312
80272W        W51801  20.037   8.690   4.263
80273W        W51802  33.158  26.065  13.299
80274W        W51803  20.329   6.206  12.413
80275W        W51804  30.341  28.936   1.927
80276W        W51805  20.260   6.833   0.215
80277W        W51806  13.076  18.800  12.143
80278W        W51807  11.275  38.127   4.739
80279W        W51808  21.067  12.380  13.406
80280W        W51809  18.051  37.622   2.531
80281W        W51810  33.245  37.364   1.215
80282W        W51811  30.533  13.207   3.166
80283W        W51812  37.727  37.638   4.964
80284W        W51813  29.655  22.062  13.742
80285W        W51814  43.746  27.001  13.964
80286W        W51815  42.109   9.276  13.726
80287W        W51816   4.409  36.373  14.279
80288W        W51817  34.830  35.967   0.445
80289W        W51818  13.337  31.685  11.100
80290W        W51819  26.439   4.953  12.017
80291W        W51820  35.591  44.956  13.316
80292W        W51821   6.322  23.052  13.453
80293W        W51822  13.383   6.714  10.560
80294W        W51823  44.506  39.631  13.015
80295W        W51824  20.534   7.457   3.269
80296W        W51825  23.178  35.791   1.413
80297W        W51826  11.661  41.068  14.018
80298W        W51827   2.232  19.790  10.737
80299W        W51828  31.957  21.586  14.308
80300W        W51829  34.669  37.087   1.355
80301W        W51830   5.186   9.301   3.860
80302W        W51831  33.579   1.962   3.059
80303W        W51832   8.843  17.697   4.182
80304W        W51833   7.403  16.509  13.359
80305W        W51834  34.522  43.417   0.030
80306W        W51835  18.555   2.413   1.791
80307W        W51836  16.499  32.365  14.839
80308W        W51837  25.101   6.914   0.988
80309W        W51838  24.021  35.975  12.895
80310W        W51839  27.738  12.353   1.643
80311W        W51840  28.668  31.151   2.806
80312W        W51841  43.591  16.147   2.899
80313W        W51842  14.425  35.421   4.685
80314W        W51843  30.946  18.278  14.829
80315W        W51844  20.398   3.431   3.774
80316W        W51845   3.447  19.203   3.626
80317W        W51846   0.260   1.960  13.078
80318W        W51847  16.189  14.592   4.654
80319W        W51848  13.614  19.378   2.835
80320W        W51849  25.901  36.015   0.954
80321W        W51850  14.283  29.137  14.458
80322W        W51851   5.683   7.364  12.957
80323W        W51852  39.345   6.107  13.066
80324W        W51853  11.892  42.939  14.999
80325W        W51854  30.287   5.171   3.251
80326W        W51855  37.076  44.450  10.038
80327W        W51856  11.263   9.592   2.700
80328W        W51857  27.080  34.644   4.673
80329W        W51858  43.418  13.192   1.305
80330W        W51859  23.793  33.974  10.725
80331W        W51860   2.806   1.739  12.522
80332W        W51861   3.845  41.471   2.563
80333W        W51862  10.496   8.816  10.953
80334W        W51863  24.064  23.693   1.381
80335W        W51864  43.245   5.150  13.425
80336W        W51865  31.347  33.019   0.296
80337W        W51866  31.113  24.163  12.853
80338W        W51867  16.543  34.816  12.222
80339W        W51868   7.561   4.219  14.991
80340W        W51869  24.218  42.505   3.612
80341W        W51870  40.052  12.102  14.458
80342W        W51871   0.128  22.754   2.680
80343W        W51872  26.622  17.568   2.688
80344W        W51873  22.594  44.281   1.909
80345W        W51874  41.885   8.183  14.470
80346W        W51875  35.927   4.024   2.329
80347W        W51876  24.854  32.991  12.006
80348W        W51877  14.341   6.203   1.421
80349W        W51878  29.568   4.736  13.023
80350W        W51879  32.669  44.252  11.575
80351W        W51880   9.389   7.357   0.793
80352W        W51881   2.517  12.586  13.111
80353W        W51882  32.986   3.813  13.597
80354W        W51883  36.720  25.049   0.760
80355W        W51884  22.635  38.918   3.690
80356W        W51885  27.190  16.543  13.772
80357W        W51886  30.053  39.835   1.866
80358W        W51887   4.801  33.382   4.679
80359W        W51888  23.588  18.315   4.747
80360W        W51889  11.116  16.651   2.753
80361W        W51890  16.627  20.098  10.497
80362W        W51891   6.839  22.967  14.902
80363W        W51892  17.644   6.897  14.434
80364W        W51893  28.003  31.612  14.241
80365W        W51894  25.631   1.462   3.236
80366W        W51895  42.230  43.430   3.177
80367W        W51896   2.164  21.821  11.990
80368W        W51897  15.310  15.562   1.949
80369W        W51898   4.253   6.849  12.957
80370W        W51899  43.370   8.598  13.518
80371W        W51900  40.178  26.112   2.821
80372W        W51901  35.150  11.603   2.694
80373W        W51902  35.915  24.646   1.297
80374W        W51903  13.817  15.644  12.441
80375W        W51904  26.621  14.181  13.752
80376W        W51905  17.994  11.868   2.352
80377W        W51906  35.074   3.967  13.415
80378W        W51907  25.169   3.352  11.550
80379W        W51908  21.244  40.970   4.027
80380W        W51909  10.686  24.589  10.763
80381W        W51910  37.295  35.828  11.597
80382W        W51911  34.753  15.121  13.452
80383W        W51912  24.605  40.307   4.087
80384W        W51913  41.362  19.920   4.744
80385W        W51914  28.733  14.058  14.990
80386W        W51915  41.292  12.808   0.911
80387W        W51916  16.352  37.481  11.485
80388W        W51917  32.928   4.585   2.298
80389W        W51918  34.152  31.041   0.422
80390W        W51919  23.695  15.922   1.331
80391W        W51920  28.502   1.735   3.036
80392W        W51921  16.055  14.671   2.053
80393W        W51922   1.235  31.574   1.473
80394W        W51923  24.230  25.941   1.375
80395W        W51924  26.306  32.423  12.504
80396W        W51925  32.622  30.840  13.956
80397W        W51926  30.693   7.419  14.617
80398W        W51927  18.969   5.977   2.314
80399W        W51928  29.554  30.663   3.275
80400W        W51929  32.374   2.432   1.736
80401W        W51930  18.476  44.957   4.561
80402W        W51931   9.316  38.385   2.151
80403W        W51932  40.893  22.638   1.241
80404W        W51933   6.898   6.747   3.761
80405W        W51934   8.923  43.004  14.883
80406W        W51935  15.582  19.684   0.465
80407W        W51936  33.398  15.782  13.399
80408W        W51937  35.368  14.257   0.939
80409W        W51938  40.806  33.549   3.750
80410W        W51939   6.965  34.351  12.786
80411W        W51940  29.462   7.920   1.865
80412W        W51941  20.705  32.903  11.921
80413W        W51942   5.505  15.239   1.854
80414W        W51943   8.577  13.112   3.243
80415W        W51944  16.707  31.177  11.805
80416W        W51945  25.637   2.488  12.965
80417W        W51946  42.466  30.719   1.483
80418W        W51947   2.137  26.217   2.739
80419W        W51948  14.583  44.413  12.595
80420W        W51949  37.992   5.399  11.198
80421W        W51950  16.230  29.357  11.561
80422W        W51951   3.409  15.389  12.546
80423W        W51952   5.772   6.791  11.162
80424W        W51953   1.947  39.991   0.702
80425W        W51954  18.670   9.896   4.228
80426W        W51955   0.254   0.826   0.781
80427W        W51956   8.231  34.820  14.597
80428W        W51957   4.961  22.766   3.580
80429W        W51958  28.024   4.965   4.530
80430W        W51959  33.338  38.876  10.060
80431W        W51960  15.639  34.222   1.261
80432W        W51961   4.279  37.520  13.805
80433W        W51962  34.983  15.415   4.593
80434W        W51963  19.525  37.896  10.565
80435W        W51964  18.080  35.335   1.328
80436W        W51965  41.280   6.885  11.193
80437W        W51966   9.059  27.595  14.963
80438W        W51967   6.362  17.082  13.529
80439W        W51968  33.606  31.156   2.936
80440W        W51969  14.737  37.255   0.272
80441W        W51970  26.102  17.298  14.310
80442W        W51971   9.720  14.457   4.799
80443W        W51972  25.695  42.415   3.837
80444W        W51973  42.933  42.565  14.017
80445W        W51974  19.871  37.198  11.579
80446W        W51975  21.682  42.965  13.306
80447W        W51976  32.454  44.595   5.138
80448W        W51977  35.955  28.010  12.995
80449W        W51978  21.538  41.768   1.798
80450W        W51979   5.911  17.831  12.916
80451W        W51980  10.120   0.896  12.506
80452W        W51981  20.141  29.766  11.502
80453W        W51982  26.065   4.727  14.954
80454W        W51983  36.411  22.666  10.850
80455W        W51984  44.983  28.787   3.671
80456W        W51985   9.868   6.708   0.385
80457W        W51986  37.249  34.154   4.666
80458W        W51987   7.884   2.559  13.121
80459W        W51988  36.801   0.446  13.867
80460W        W51989  31.611  35.462   2.816
80461W        W51990  41.851   0.065  11.288
80462W        W51991   0.429  23.392  11.485
80463W        W51992  43.996  19.842  12.577
80464W        W51993  25.681  44.892   0.875
80465W        W51994  31.654  14.107  13.812
80466W        W51995  10.816  26.567  14.564
80467W        W51996  14.848   0.605   0.742
80468W        W51997  15.728   2.406   0.294
80469W        W51998   2.043   7.291  12.016
80470W        W51999  29.886  18.107   0.244
80471W        W52000  38.822   5.469   0.871
80472W        W52001   5.978  31.759  14.918
80473W        W52002  31.175   7.337  10.559
80474W        W52003  34.064  19.497  12.899
80475W        W52004  21.206   3.836  13.646
80476W        W52005  38.303   7.675   2.680
80477W        W52006  33.454  18.068   0.956
80478W        W52007   1.662   5.090   3.686
80479W        W52008  40.225   1.886  13.391
80480W        W52009  17.266  27.590  12.520
80481W        W52010  23.756  33.078   4.046
80482W        W52011  28.397   8.347   1.854
80483W        W52012  17.300  10.685  10.715
80484W        W52013   5.855  15.678  10.718
80485W        W52014  33.034   4.058  14.972
80486W        W52015  18.730  30.322  14.013
80487W        W52016  19.083   7.232   3.620
80488W        W52017  15.647  26.371  12.723
80489W        W52018  22.997  23.002   0.359
80490W        W52019  18.814  39.732  11.585
80491W        W52020  41.055  44.967   1.968
80492W        W52021  42.772  16.047  12.440
80493W        W52022  10.387  35.169   0.318
80494W        W52023  18.234   8.475   2.206
80495W        W52024  13.593  31.261  11.932
80496W        W52025  33.834   5.636   0.447
80497W        W52026  21.572   1.147  13.181
80498W        W52027   4.270  35.582   2.454
80499W        W52028  44.460  20.781  13.540
80500W        W52029  21.257  17.572   2.317
80501W        W52030  14.506   4.195  11.821
80502W        W52031  27.199  30.092   1.390
80503W        W52032   6.324  15.404  10.762
80504W        W52033  42.920  29.698  13.937
80505W        W52034  36.634  26.518  12.987
80506W        W52035   3.934  25.369  10.566
80507W        W52036   3.857  33.436   2.840
80508W        W52037  38.957  38.448  11.113
80509W        W52038  29.050  23.210   2.316
80510W        W52039  19.233  31.874  14.355
80511W        W52040   2.291  12.235   4.575
80512W        W52041   4.040   0.189   2.369
80513W        W52042  42.047  13.842   2.361
80514W        W52043  12.639  17.120   4.058
80515W        W52044  25.896  31.156   3.367
80516W        W52045  37.033  25.474   3.091
80517W        W52046  26.472  42.836  12.938
80518W        W52047  16.996   5.653   2.605
80519W        W52048  27.942   7.169   0.126
80520W        W52049   6.170  36.031   1.690
80521W        W52050  12.680  44.593  12.661
80522W        W52051  34.655  27.917   4.933
80523W        W52052  23.523  37.885  13.787
80524W        W52053   6.628  22.095   3.609
80525W        W52054  12.315   2.746   1.386
80526W        W52055  22.571   0.859   9.833
80527W        W52056   4.777  13.670  14.429
80528W        W52057  33.961  14.170   1.249
80529W        W52058  34.596  40.538   0.411
80530W        W52059  29.427  41.946  14.273
80531W        W52060  26.914  12.351  10.535
80532W        W52061   0.309  36.349  11.469
80533W        W52062  14.703  17.388  12.121
80534W        W52063  32.141   1.435  13.382
80535W        W52064  32.101   7.951   1.420
80536W        W52065  36.792  11.072   4.805
80537W        W52066  14.239   4.594  13.555
80538W        W52067  29.639  34.403  14.533
80539W        W52068   5.200   6.691   2.154
80540W        W52069   5.658  44.320   0.873
80541W        W52070  19.128  41.870   1.042
80542W        W52071  22.089  28.408   4.390
80543W        W52072  15.861  20.143  13.004
80544W        W52073   3.843  23.116  11.555
80545W        W52074   6.628  38.693   4.477
80546W        W52075  33.411   1.237   2.206
80547W        W52076  36.924   3.403   3.267
80548W        W52077  43.045  41.832  11.631
80549W        W52078  28.210  20.654  12.483
80550W        W52079  28.714  12.402  13.465
80551W        W52080  39.778  37.437  14.398
80552W        W52081   1.896   0.745  11.534
80553W        W52082   9.064   0.148   3.598
80554W        W52083  10.017   5.855   4.950
80555W        W52084  44.795  22.175  10.064
80556W        W52085  35.589  44.227   2.842
80557W        W52086  34.200  10.569  12.550
80558W        W52087  22.755   1.274  13.440
80559W        W52088  28.380  40.068   1.431
80560W        W52089  21.715  38.472  14.716
80561W        W52090  32.934  20.220   3.717
80562W        W52091  39.497  17.644  11.978
80563W        W52092  25.096  38.569   1.969
80564W        W52093  26.262  40.419   3.723
80565W        W52094  29.108  26.021   2.908
80566W        W52095  19.143  25.546   4.622
80567W        W52096  35.985  29.528   4.585
80568W        W52097  33.727  34.597  14.567
80569W        W52098   8.241  27.439  14.736
80570W        W52099  24.560  42.893  11.375
80571W        W52100  27.096   8.701   4.758
80572W        W52101  27.661  42.326   2.871
80573W        W52102  28.778  41.480   0.386
80574W        W52103  19.418  33.941  13.444
80575W        W52104  25.900  27.767   2.342
80576W        W52105  34.718  24.178  12.637
80577W        W52106  11.038  19.323   1.261
80578W        W52107  43.829  43.064  12.033
80579W        W52108   9.793  13.352  12.860
80580W        W52109  22.983  27.038  13.962
80581W        W52110  38.360   8.692  13.779
80582W        W52111   7.782   6.675  14.760
80583W        W52112  35.557  37.530   1.247
80584W        W52113  31.831  42.304   2.916
80585W        W52114  13.680   1.655   2.722
80586W        W52115  13.605  28.057   1.618
80587W        W52116  27.139  23.515  12.549
80588W        W52117  34.005   4.153   2.182
80589W        W52118   7.274  26.180   1.218
80590W        W52119  10.923  41.880   4.109
80591W        W52120  30.167   6.223   2.401
80592W        W52121  16.634  40.521   3.800
80593W        W52122  36.430  28.183  13.128
80594W        W52123   7.520   5.177   1.744
80595W        W52124   0.263  34.299   1.792
80596W        W52125  14.117  36.351   1.610
80597W        W52126  34.275  20.133  11.074
80598W        W52127  26.770  22.500  12.566
80599W        W52128  17.486  12.366   2.764
80600W        W52129  16.241  41.526  14.933
80601W        W52130  22.516  34.586  12.130
80602W        W52131  14.863  39.407   1.096
80603W        W52132  17.162  32.519  13.096
80604W        W52133  27.106  38.936  11.537
80605W        W52134  27.616   2.876  14.496
80606W        W52135  38.144   9.183   4.730
80607W        W52136  38.378   7.081  13.001
80608W        W52137  37.477  16.268   4.436
80609W        W52138  17.254  38.713   2.478
80610W        W52139  38.911  44.134  14.491
80611W        W52140  24.070  15.813   4.503
80612W        W52141   9.391  37.360   4.656
80613W        W52142   7.682  18.771  11.085
80614W        W52143   5.656  32.672  13.374
80615W        W52144  30.559  23.591  11.729
80616W        W52145  37.942  39.479  12.159
80617W        W52146  27.172   0.869   3.045
80618W        W52147  11.905  22.716   2.351
80619W        W52148  35.276  26.479   3.314
80620W        W52149   0.229  18.570   0.818
80621W        W52150  28.269   8.689   2.252
80622W        W52151  15.681  31.506   0.677
80623W        W52152  22.576  34.798   0.423
80624W        W52153  12.386  28.466  11.928
80625W        W52154  18.550  37.130   4.396
80626W        W52155   0.531  41.876  11.433
80627W        W52156  29.020  31.510  11.600
80628W        W52157   6.690   0.155   3.604
80629W        W52158  25.037  39.063  12.371
80630W        W52159  21.286  30.453  11.059
80631W        W52160  42.219  41.515   0.245
80632W        W52161  27.453   7.776   4.618
80633W        W52162  21.267  15.184  12.179
80634W        W52163  22.185  27.525  11.931
80635W        W52164  43.361  42.864   4.518
80636W        W52165   4.544  34.123  13.131
80637W        W52166  35.338  38.908  10.942
80638W        W52167  12.615  26.155   4.598
80639W        W52168   4.189  25.283  10.999
80640W        W52169   9.180  11.266  11.120
80641W        W52170  28.676   1.388  13.947
80642W        W52171  29.219  15.669   0.026
80643W        W52172   0.684   2.810   1.786
80644W        W52173  35.305  15.951  11.979
80645W        W52174  28.992  11.744  11.097
80646W        W52175  42.033  29.758   2.371
80647W        W52176  10.511  34.496  12.071
80648W        W52177   9.621  39.729   0.814
80649W        W52178  23.219  23.257  13.528
80650W        W52179  19.224  10.188  10.224
80651W        W52180  10.564  11.923   4.556
80652W        W52181   0.134  22.895  12.093
80653W        W52182  39.157  30.421   1.284
80654W        W52183   8.620  18.751   2.758
80655W        W52184  11.325  43.097  13.794
80656W        W52185  18.280  36.457   0.329
80657W        W52186   3.857  37.479  10.895
80658W        W52187  34.353  42.937  11.647
80659W        W52188  27.907  42.503   3.564
80660W        W52189  14.256  15.459  11.249
80661W        W52190  20.716  16.035  13.275
80662W        W52191  31.786  24.642   0.906
80663W        W52192  30.641  30.006  10.460
80664W        W52193  41.028  39.341   1.789
80665W        W52194   0.676  20.682  14.459
80666W        W52195  22.598  25.936  11.935
80667W        W52196  26.245  26.491  10.868
80668W        W52197   7.423  41.843   3.553
80669W        W52198  32.693  11.244  11.951
80670W        W52199   6.039  40.199  14.763
80671W        W52200   2.302  21.193  13.289
80672W        W52201  19.949  42.180   1.871
80673W        W52202  31.924  32.603  14.731
80674W        W52203   1.758   1.562   1.141
80675W        W52204   5.784  44.530  11.141
80676W        W52205  18.997  37.968   2.250
80677W        W52206  29.470  39.169  11.190
80678W        W52207  20.865  17.308   1.233
80679W        W52208  15.629  31.671   0.185
80680W        W52209  10.943  18.272  10.831
80681W        W52210  34.495  38.459  14.659
80682W        W52211  17.709  10.275   0.642
80683W        W52212  31.924  22.657  13.522
80684W        W52213  28.329  39.802   3.706
80685W        W52214  16.636  43.986  14.639
80686W        W52215  40.561  43.715  11.227
80687W        W52216  22.015  26.461   4.141
80688W        W52217   6.820  20.997   4.448
80689W        W52218  26.618  17.858   0.321
80690W        W52219  31.642   6.882   1.886
80691W        W52220  19.104  10.389   3.182
80692W        W52221   6.691   5.824   4.136
80693W        W52222  26.160  31.995   4.609
80694W        W52223  40.068  18.046  14.925
80695W        W52224  16.564  12.153  14.333
80696W        W52225  39.480   1.953   1.128
80697W        W52226  20.284  37.290  14.054
80698W        W52227   2.490  30.627   0.398
80699W        W52228  39.399   2.372  14.232
80700W        W52229  20.023  37.916   0.906
80701W        W52230   3.135  26.967   1.454
80702W        W52231  33.312  30.216  11.580
80703W        W52232  28.399   2.298  11.935
80704W        W52233   3.288  40.194   0.814
80705W        W52234   4.468  24.544  10.721
80706W        W52235  17.008   0.027  11.318
80707W        W52236  43.968  33.916   3.084
80708W        W52237  34.432  32.034   1.202
80709W        W52238  34.564  44.630  13.130
80710W        W52239   1.505  11.303  12.831
80711W        W52240  33.029  24.184  13.269
80712W        W52241   3.910   6.868  11.976
80713W        W52242  32.088   9.904   0.381
80714W        W52243  44.435  14.474  14.992
80715W        W52244   0.912  43.775   2.112
80716W        W52245  44.555   5.715  14.252
80717W        W52246  11.589  27.185  12.010
80718W        W52247   5.403   7.516   3.750
80719W        W52248   7.253  37.119   3.696
80720W        W52249   5.921  12.738  12.597
80721W        W52250  36.010   2.201   0.926
80722W        W52251  44.759  38.875  11.219
80723W        W52252  28.076   4.214  14.224
80724W        W52253  18.008  32.432   1.218
80725W        W52254  42.986   6.750  12.513
80726W        W52255  36.251  35.484   2.837
80727W        W52256  43.356  22.518  12.469
80728W        W52257  24.624  40.245   0.774
80729W        W52258  44.881  29.779   0.464
80730W        W52259   1.327  21.616   2.202
80731W        W52260   8.120  11.976   0.704
80732W        W52261   5.604  26.654  13.199
80733W        W52262  30.715  44.984  14.010
80734W        W52263  35.148  38.332   1.451
80735W        W52264  37.988  10.882   0.850
80736W        W52265  34.707  32.845  12.437
80737W        W52266  26.863   9.125   1.415
80738W        W52267   6.188  30.967  12.072
80739W        W52268  10.862  13.882  11.562
80740W        W52269   9.134  24.241  11.131
80741W        W52270  13.605  35.468   0.997
80742W        W52271  43.665   1.020  14.622
80743W        W52272  25.974   0.070  10.743
80744W        W52273  20.302  41.569   1.360
80745W        W52274   5.179   9.383  11.066
80746W        W52275  23.016   1.542   2.910
80747W        W52276  18.332  42.513   4.175
80748W        W52277  22.762  26.078   0.476
80749W        W52278   4.042  16.110   2.472
80750W        W52279  21.506  31.477  12.681
80751W        W52280  39.089   2.010   0.445
80752W        W52281   7.061  20.256   3.157
80753W        W52282  34.575  40.986   3.403
80754W        W52283   8.325   5.588   3.958
80755W        W52284  33.491  25.024   4.693
80756W        W52285  28.015   3.758   0.408
80757W        W52286   2.244  37.718  12.557
80758W        W52287   8.163   1.241   2.240
80759W        W52288  41.436   0.508   2.654
80760W        W52289   7.672   5.139  14.809
80761W        W52290  18.607  16.628  10.753
80762W        W52291   6.254   9.129  12.141
80763W        W52292  17.950  24.038   4.449
80764W        W52293  14.254  40.635   2.833
80765W        W52294  36.120  13.653   0.224
80766W        W52295  23.557   2.780  11.163
80767W        W52296   0.849   8.792   4.573
80768W        W52297  41.891  16.036   4.923
80769W        W52298   9.912   0.368  14.194
80770W        W52299  11.391  10.328   2.198
80771W        W52300  30.879   9.900  12.004
80772W        W52301  34.080  12.866  14.549
80773W        W52302  24.306  37.892   4.320
80774W        W52303  26.426  29.125   4.591
80775W        W52304  23.235  44.758   0.878
80776W        W52305  13.225  33.037   4.406
80777W        W52306  18.609  34.353  14.941
80778W        W52307   6.120   3.443  14.830
80779W        W52308  24.172  13.397   1.843
80780W        W52309  21.626  20.652  13.067
80781W        W52310  36.829  18.804  14.319
80782W        W52311  11.059   8.367  11.917
80783W        W52312  19.263   5.748   1.255
80784W        W52313  33.002  28.076  12.804
80785W        W52314  42.080  28.951   1.302
80786W        W52315  30.358   9.834   0.380
80787W        W52316  17.792  23.102   1.816
80788W        W52317  10.842  14.706   4.109
80789W        W52318  29.514  20.017  11.588
80790W        W52319  27.736  27.306   1.602
80791W        W52320   8.920  14.379   1.005
80792W        W52321   2.794   5.746   2.731
80793W        W52322  25.676  23.057  13.511
80794W        W52323  36.927  19.261  13.050
80795W        W52324  41.880  41.145   3.271
80796W        W52325  15.677   5.173   3.278
80797W        W52326  18.528  23.106  11.873
80798W        W52327  15.291  41.400   0.063
80799W        W52328   2.311  14.335  12.603
80800W        W52329   3.296  33.369   3.390
80801W        W52330   1.378   6.165  11.950
80802W        W52331  44.717  21.173   1.788
80803W        W52332  25.097   6.215   1.751
80804W        W52333  15.053   6.205  14.441
80805W        W52334   4.662   5.372  12.812
80806W        W52335  28.114  20.488   2.692
80807W        W52336  36.183  18.109  11.465
80808W        W52337  34.684  43.152   4.196
80809W        W52338  43.901   9.751  10.740
80810W        W52339   4.535  26.205  14.907
80811W        W52340  22.507  15.281  13.440
80812W        W52341  14.195  23.810  12.589
80813W        W52342  19.639   5.434  11.430
80814W        W52343  10.151  29.713   4.573
80815W        W52344   5.681  37.096  13.572
80816W        W52345  16.185   5.655   0.970
80817W        W52346   5.862   0.698   1.958
80818W        W52347  23.805  26.186   1.182
80819W        W52348  43.837  44.378  14.459
80820W        W52349  15.778  17.017  13.840
80821W        W52350  36.555  33.918   1.279
80822W        W52351  20.127   6.640  13.538
80823W        W52352  40.550  18.210   0.069
80824W        W52353  34.001  40.016  10.669
80825W        W52354  25.427  42.488   4.906
80826W        W52355  20.641  22.620  12.954
80827W        W52356  42.223  26.152   4.597
80828W        W52357   2.620   8.550   0.697
80829W        W52358   9.699  32.131   4.586
80830W        W52359  26.527  42.312  11.552
80831W        W52360  10.506  10.102   4.384
80832W        W52361  28.689  32.429  12.113
80833W        W52362  19.832  34.353  14.315
80834W        W52363  18.620  27.780   0.615
80835W        W52364   5.358  12.160   0.822
80836W        W52365   2.263  44.212  11.931
80837W        W52366   8.146  44.716   1.275
80838W        W52367  29.916   3.432   4.127
80839W        W52368   1.003  18.229   1.309
80840W        W52369  28.745  21.239   3.617
80841W        W52370   7.251  38.990  14.804
80842W        W52371  17.853  34.453  12.367
80843W        W52372  33.660  31.139  13.401
80844W        W52373  17.254   5.427  13.010
80845W        W52374  19.737  35.041  10.596
80846W        W52375  30.018   0.788  14.795
80847W        W52376  41.231  42.385  10.683
80848W        W52377  33.421  39.184   3.566
80849W        W52378  14.323  31.546   4.618
80850W        W52379  16.179  40.792   3.855
80851W        W52380  24.972  18.419   0.955
80852W        W52381   2.995  16.864  13.006
80853W        W52382  16.572  13.219  12.801
80854W        W52383   3.524  36.349  13.365
80855W        W52384  27.692  14.099   2.302
80856W        W52385   3.950  34.794   2.680
80857W        W52386  26.081  32.581   4.555
80858W        W52387  22.033  16.813   0.550
80859W        W52388   5.535  25.729   0.828
80860W        W52389   4.374  20.023   2.298
80861W        W52390  25.000  10.476  13.125
80862W        W52391  26.521   8.910  12.903
80863W        W52392  38.484  26.142   1.323
80864W        W52393  16.398  27.406  14.895
80865W        W52394  27.579  34.576   4.461
80866W        W52395  15.602  37.946  14.437
80867W        W52396  26.050   4.984   4.963
80868W        W52397   9.326  35.399  10.576
80869W        W52398  33.084   0.439   4.221
80870W        W52399  38.563  31.138  13.550
80871W        W52400  32.579  40.131  12.343
80872W        W52401  18.630   6.848  14.797
80873W        W52402   3.815   3.344   2.906
80874W        W52403  43.753   1.238   0.569
80875W        W52404   0.475  23.933  10.752
80876W        W52405  33.487  29.876   2.797
80877W        W52406  11.846  38.259  10.417
80878W        W52407  24.487  43.320   1.922
80879W        W52408  26.589   8.793   0.723
80880W        W52409  11.394  37.639   4.500
80881W        W52410   4.466  20.847   3.238
80882W        W52411   4.249  44.161  10.521
80883W        W52412   9.963   0.486  13.028
80884W        W52413  14.195   3.116  13.057
80885W        W52414   2.895  37.457  11.454
80886W        W52415  10.998  19.621  10.683
80887W        W52416  31.888   9.393  12.631
80888W        W52417  29.616   4.025   4.598
80889W        W52418   9.112   3.865  11.868
80890W        W52419  27.739  30.934   2.820
80891W        W52420  41.984  18.282   1.243
80892W        W52421   1.700  41.066  11.113
80893W        W52422  23.436  34.499   2.315
80894W        W52423  18.218  16.319  14.458
80895W        W52424  14.305  32.021  10.328
80896W        W52425  25.121  44.247   2.510
80897W        W52426  40.218  42.577  11.467
80898W        W52427  18.720  23.300  14.812
80899W        W52428  38.128  19.833   4.717
80900W        W52429  24.253   3.025  11.628
80901W        W52430  13.899  26.431   3.235
80902W        W52431  11.589  25.806  12.391
80903W        W52432  32.182  17.198   2.795
80904W        W52433  42.494  23.712   1.859
80905W        W52434   4.210   2.730   4.228
80906W        W52435  30.515  16.359   3.680
80907W        W52436   4.622  29.414   3.046
80908W        W52437   8.720  26.312  13.363
80909W        W52438  29.054  43.435   0.595
80910W        W52439   4.197   1.627  13.814
80911W        W52440   7.354  17.387   4.849
80912W        W52441  23.689  19.592   2.281
80913W        W52442  13.028   0.271   3.723
80914W        W52443   3.894   8.209  13.542
80915W        W52444  28.027  12.106  13.479
80916W        W52445   9.138  33.030   3.607
80917W        W52446  13.420  13.205  14.372
80918W        W52447  16.730  36.803   2.263
80919W        W52448  20.640  14.094   0.802
80920W        W52449   6.285   2.698  14.460
80921W        W52450   0.318  14.209   4.449
80922W        W52451   4.737  34.379  11.644
80923W        W52452   4.860   9.600  14.570
80924W        W52453  19.991  19.202  13.931
80925W        W52454  32.955  28.874  13.916
80926W        W52455  32.262  25.509  12.123
80927W        W52456  44.336  17.649   4.719
80928W        W52457  28.891  11.163   3.793
80929W        W52458   1.876  20.547   3.716
80930W        W52459  20.786   6.704   3.763
80931W        W52460   9.136  19.041  12.210
80932W        W52461   9.567   5.934  11.612
80933W        W52462   9.959  29.150  11.970
80934W        W52463  23.046  19.691   0.458
80935W        W52464  37.086   8.852  11.043
80936W        W52465  32.135  30.723  12.732
80937W        W52466  18.321  31.369  12.088
80938W        W52467  26.642  42.475  13.804
80939W        W52468   2.446  35.840   3.137
80940W        W52469  14.691  43.328   2.205
80941W        W52470  30.841  20.091   1.308
80942W        W52471  11.325  35.406   0.470
80943W        W52472  11.540  26.299   3.186
80944W        W52473  22.685  14.792   4.501
80945W        W52474  41.808   3.240  13.876
80946W        W52475  24.153  23.250   3.436
80947W        W52476   3.842   7.593  10.613
80948W        W52477  36.661  33.413   2.474
80949W        W52478  17.781   5.473  12.684
80950W        W52479  14.083  43.904  13.265
80951W        W52480  29.647  18.568   0.424
80952W        W52481  10.691  29.029  10.663
80953W        W52482  34.421   6.436   4.265
80954W        W52483  12.712   3.359  11.417
80955W        W52484  26.949  14.261   0.846
80956W        W52485  28.671  21.130  11.549
80957W        W52486  44.170  29.538   1.077
80958W        W52487   0.784  20.408   1.780
80959W        W52488  17.159  29.319  14.551
80960W        W52489   2.195   6.713   2.603
80961W        W52490  35.756  23.523   0.781
80962W        W52491  30.641   7.153   4.174
80963W        W52492  12.170  20.308  11.878
80964W        W52493  26.282   3.703  13.040
80965W        W52494  20.298  15.233  14.010
80966W        W52495  14.545  26.469   3.987
80967W        W52496  14.596   6.547   3.230
80968W        W52497  44.032  34.320  10.760
80969W        W52498  32.571  20.082   0.279
80970W        W52499  28.518  19.701  11.680
80971W        W52500  24.864   6.008  14.919
80972W        W52501  31.029   3.994   4.398
80973W        W52502   5.178  25.185   3.758
80974W        W52503   0.211  24.184  14.798
80975W        W52504   6.174   3.425   1.783
80976W        W52505  25.762  43.439  11.019
80977W        W52506  40.472  33.537   4.160
80978W        W52507  19.997   9.898  10.418
80979W        W52508  16.035   7.361  13.722
80980W        W52509  23.975   2.048  14.324
80981W        W52510  36.506   8.096   4.717
80982W        W52511  43.390  23.652   0.967
80983W        W52512  23.597  19.039  14.398
80984W        W52513  32.618   2.384   2.190
80985W        W52514  21.270  30.437   4.326
80986W        W52515  44.770   6.762   2.521
80987W        W52516  27.129  23.191   3.746
80988W        W52517   0.942  35.559   0.975
80989W        W52518  24.674  17.746  12.541
80990W        W52519  15.960   4.936   4.666
80991W        W52520   5.687  20.093   1.672
80992W        W52521  38.369   7.246   2.949
80993W        W52522  33.072  41.913  12.412
80994W        W52523  40.539  30.601  14.397
80995W        W52524  20.529  40.035  13.995
80996W        W52525  41.515   9.193  13.535
80997W        W52526  33.607  35.468  10.789
80998W        W52527  11.440  44.780  14.509
80999W        W52528   4.828   9.126  14.777
81000W        W52529  21.061  29.805   2.813
81001W        W52530  20.939   3.365  11.667
81002W        W52531   2.278  29.451  11.538
81003W        W52532   2.512   0.479   4.444
81004W        W52533  16.738  18.882  10.107
81005W        W52534  22.108  36.379   0.859
81006W        W52535  30.661  14.655   2.844
81007W        W52536  20.461  22.142  13.061
81008W        W52537  26.773  31.152  12.898
81009W        W52538  11.617   2.073  10.534
81010W        W52539  13.177  11.388  12.541
81011W        W52540   0.704  22.127  10.538
81012W        W52541   6.248  44.666  12.531
81013W        W52542  12.171  32.389   0.382
81014W        W52543  12.926  27.057   3.572
81015W        W52544  13.146  43.756   2.905
81016W        W52545  39.632   7.762   0.021
81017W        W52546  36.882  20.360   3.050
81018W        W52547  43.961   7.501  14.153
81019W        W52548   3.022  29.964   1.287
81020W        W52549  37.911  28.477  12.905
81021W        W52550  19.279  18.776  13.507
81022W        W52551  27.586  21.226  10.472
81023W        W52552  34.434  21.596  11.517
81024W        W52553   5.217  25.753  14.402
81025W        W52554  22.093  42.453  11.491
81026W        W52555   3.903  18.845  11.506
81027W        W52556  41.530  15.214   4.701
81028W        W52557  23.657  43.725  14.663
81029W        W52558  43.079  42.455  11.099
81030W        W52559  38.848  28.160  13.584
81031W        W52560  31.965   8.634  11.949
81032W        W52561   2.809  37.923  11.961
81033W        W52562  12.048  42.255  14.516
81034W        W52563  25.420  12.172   0.407
81035W        W52564  42.526  17.905  12.491
81036W        W52565  25.456  13.170   2.839
81037W        W52566  33.031  37.784   4.550
81038W        W52567   4.797   5.445   2.198
81039W        W52568  17.412   1.154  10.279
81040W        W52569  21.186  40.024  12.872
81041W        W52570  32.665  43.202   0.830
81042W        W52571  34.860  14.294  10.486
81043W        W52572   0.435  33.873  11.567
81044W        W52573  23.994  39.326   0.229
81045W        W52574   7.270  16.793  11.511
81046W        W52575  18.270  20.839   3.272
81047W        W52576   7.154  17.460   3.749
81048W        W52577  43.523  37.916  12.599
81049W        W52578  24.026  36.158   4.844
81050W        W52579  10.848  25.571  13.029
81051W        W52580  15.811  34.057  14.199
81052W        W52581  44.861  16.501  14.427
81053W        W52582  18.303  18.663   1.833
81054W        W52583  25.104   8.679   1.371
81055W        W52584  38.038  25.571   2.220
81056W        W52585  11.246  37.224   2.573
81057W        W52586   0.799  28.339   5.000
81058W        W52587   0.939  24.095   0.992
81059W        W52588  25.044  32.622  14.282
81060W        W52589  27.066  23.153   2.786
81061W        W52590  13.885   4.295  11.032
81062W        W52591  10.223   0.723  11.555
81063W        W52592  22.274  13.692   1.743
81064W        W52593   0.357  32.067   3.643
81065W        W52594  24.468  30.687  14.512
81066W        W52595  23.515   0.520  11.152
81067W        W52596  33.581  26.533  12.287
81068W        W52597  23.289  29.002   1.806
81069W        W52598   7.883   8.199  13.593
81070W        W52599  31.811  24.466   3.213
81071W        W52600  33.460  41.260  14.837
81072W        W52601  20.747  23.077  10.652
81073W        W52602  20.077  23.245   3.774
81074W        W52603  13.800   0.017  13.770
81075W        W52604  34.534   0.572   0.173
81076W        W52605  13.648  43.421   2.616
81077W        W52606  34.441  26.114   1.462
81078W        W52607  19.040  26.016  12.908
81079W        W52608  22.488  11.939   4.023
81080W        W52609  23.014  18.472  13.105
81081W        W52610  23.647  33.353  13.144
81082W        W52611  36.789  31.256  13.931
81083W        W52612  43.268  28.723   3.291
81084W        W52613  23.535  14.376   3.644
81085W        W52614   7.411   1.152   0.574
81086W        W52615  12.388  18.400   3.920
81087W        W52616   9.707   7.178  14.521
81088W        W52617   2.246   1.362   0.270
81089W        W52618   0.853  10.136  14.905
81090W        W52619  33.104  34.019  11.094
81091W        W52620   1.941  17.794  10.759
81092W        W52621  39.468  24.729   2.321
81093W        W52622  40.961  38.795   4.677
81094W        W52623  10.004   7.815   4.635
81095W        W52624  23.262  42.394   0.768
81096W        W52625  25.144  29.131  12.161
81097W        W52626  14.207  14.456   4.205
81098W        W52627  26.366  38.141  12.040
81099W        W52628   4.269  31.045   4.198
81100W        W52629  14.036   5.728   4.077
81101W        W52630  30.460   8.923  12.857
81102W        W52631   2.896  27.133   1.899
81103W        W52632  37.504  15.319  13.956
81104W        W52633  39.491  16.686   4.899
81105W        W52634  25.822  33.738   0.300
81106W        W52635  38.570  42.851   3.359
81107W        W52636  13.671   7.922   0.834
81108W        W52637   7.719  32.515   2.890
81109W        W52638  37.331  38.956   1.180
81110W        W52639   8.908  43.908  10.366
81111W        W52640  24.085  28.098   0.402
81112W        W52641  19.983   6.599   2.173
81113W        W52642  36.947  29.650   0.857
81114W        W52643  22.781  13.335   2.557
81115W        W52644  42.820  12.635  14.821
81116W        W52645  30.096  15.273   3.568
81117W        W52646  33.436  38.361   3.188
81118W        W52647   8.112  29.904   4.955
81119W        W52648  37.948   6.658  12.076
81120W        W52649  41.503  10.269  10.790
81121W        W52650  34.101  13.774   4.568
81122W        W52651  38.166  18.293   4.594
81123W        W52652   5.973  13.785   0.253
81124W        W52653   6.022  27.917   4.593
81125W        W52654  15.838  28.203   4.838
81126W        W52655  13.502  36.510   0.019
81127W        W52656  38.270  11.431   3.248
81128W        W52657  43.189  10.752  11.201
81129W        W52658  39.803  31.007  14.617
81130W        W52659  39.834   4.507   1.411
81131W        W52660  21.189  44.444   3.353
81132W        W52661   9.504   5.835  12.849
81133W        W52662  14.263   6.285   0.894
81134W        W52663  20.999  40.907   2.621
81135W        W52664  30.430   6.798  13.949
81136W        W52665  15.564  29.476   4.296
81137W        W52666  29.897  29.003  14.037
81138W        W52667  32.146  16.396   2.811
81139W        W52668  41.893  16.582  13.324
81140W        W52669  44.390  13.318   4.975
81141W        W52670  29.539  30.543  14.234
81142W        W52671  44.009  35.340  10.579
81143W        W52672  20.476  42.497  13.426
81144W        W52673   0.199  35.663   3.307
81145W        W52674  30.794  14.998  14.805
81146W        W52675   5.285   2.955   2.836
81147W        W52676   7.865   2.200  13.999
81148W        W52677  37.369  39.342  11.088
81149W        W52678  15.153  32.343  14.341
81150W        W52679  34.310  38.883  14.893
81151W        W52680  32.129   8.481  12.433
81152W        W52681   2.891  41.826  13.440
81153W        W52682  29.456  22.275  12.297
81154W        W52683   5.706  36.295  14.952
81155W        W52684  12.130  23.213  12.971
81156W        W52685  38.410  42.459  10.537
81157W        W52686  40.085  41.640   2.412
81158W        W52687  43.784   5.776   2.607
81159W        W52688   5.297  27.218   4.553
81160W        W52689   4.904   7.958   5.073
81161W        W52690  38.315  41.513  12.896
81162W        W52691  44.752  12.677   0.929
81163W        W52692  30.978  34.532  11.193
81164W        W52693  39.431  34.240  13.324
81165W        W52694  36.928  36.851   4.639
81166W        W52695  34.004  36.836   4.560
81167W        W52696   0.984  24.995  11.162
81168W        W52697  39.533   5.272   2.299
81169W        W52698   1.885  29.520   1.033
81170W        W52699  12.722  35.366  14.941
81171W        W52700  29.188  44.723   4.526
81172W        W52701  14.253  26.127   4.260
81173W        W52702  19.448  42.456   0.633
81174W        W52703  40.338  12.302   4.178
81175W        W52704  13.797   2.755   3.412
81176W        W52705   7.314  16.691  14.266
81177W        W52706   9.141  32.484   4.353
81178W        W52707  10.673  25.402   0.456
81179W        W52708   3.579  26.173   3.142
81180W        W52709   1.901  13.695  14.307
81181W        W52710  12.248  11.222  10.309
81182W        W52711   4.828  39.521   5.036
81183W        W52712  24.181  12.364  13.574
81184W        W52713  39.854  18.313   0.812
81185W        W52714  30.315  10.398   2.266
81186W        W52715  43.271  42.267   0.491
81187W        W52716  10.586  23.049   0.012
81188W        W52717   2.459   9.230  12.856
81189W        W52718  25.399  40.059   0.308
81190W        W52719   4.245   0.187   3.246
81191W        W52720   2.457  37.953   3.402
81192W        W52721  42.796  44.282   3.305
81193W        W52722  17.536  22.660   1.737
81194W        W52723  32.660  23.171  10.154
81195W        W52724  40.735  43.976   4.732
81196W        W52725  36.610  28.034  12.236
81197W        W52726  44.765   3.811  10.353
81198W        W52727   6.790  24.457  10.880
81199W        W52728  35.779  39.166  12.411
81200W        W52729  36.464  19.199  14.383
81201W        W52730  13.283   3.275   1.524
81202W        W52731  42.402  42.816  10.412
81203W        W52732  11.701  32.098   4.868
81204W        W52733   3.759  38.720  10.596
81205W        W52734  23.169  36.609   1.803
81206W        W52735  41.148  23.899  12.909
81207W        W52736  19.543  44.166  11.478
81208W        W52737  36.820  27.920   4.278
81209W        W52738  26.976  42.677   0.015
81210W        W52739  32.789  12.171   0.710
81211W        W52740   1.712  32.615   0.931
81212W        W52741   2.540  24.060  14.020
81213W        W52742  17.567  43.245  10.442
81214W        W52743  34.174  19.974   1.772
81215W        W52744   4.186   2.367   4.713
81216W        W52745  35.617  19.089  10.713
81217W        W52746  39.786  27.246   3.738
81218W        W52747   6.224  34.750   4.814
81219W        W52748  39.544  16.099   3.259
81220W        W52749  36.995  22.261  14.969
81221W        W52750  42.101   6.403   4.419
81222W        W52751  29.532  27.423  13.474
81223W        W52752  10.248  32.902   4.577
81224W        W52753  12.067   5.826   4.095
81225W        W52754  35.069  35.609   1.328
81226W        W52755   7.791  24.275  11.115
81227W        W52756  18.643  43.071   1.924
81228W        W52757   5.716  30.133  10.478
81229W        W52758  29.642  35.329  11.102
81230W        W52759  10.365  28.299  14.313
81231W        W52760  25.583   4.855  14.095
81232W        W52761  22.578  20.478   2.296
81233W        W52762  15.714  21.496  12.397
81234W        W52763  44.372  18.394  10.708
81235W        W52764  33.035  27.898   0.495
81236W        W52765  10.821  38.018   1.800
81237W        W52766  35.676  31.633  12.639
81238W        W52767  43.015  16.550  11.266
81239W        W52768  15.359  29.168  10.606
81240W        W52769  23.580  26.738  13.004
81241W        W52770  39.052  42.975  10.590
81242W        W52771   3.933  42.275  10.518
81243W        W52772  11.622  31.320   3.220
81244W        W52773  16.208   5.252   2.031
81245W        W52774  18.475  10.058   1.891
81246W        W52775  34.548   9.884   0.639
81247W        W52776  22.717  25.174  10.602
81248W        W52777   7.697  37.108   0.321
81249W        W52778  38.550  39.217   4.676
81250W        W52779  36.039   5.901  11.518
81251W        W52780   7.686   3.247   1.761
81252W        W52781  16.023  39.825  14.515
81253W        W52782   3.328  40.298  13.410
81254W        W52783  40.272   9.310  11.976
81255W        W52784   0.991   2.756   0.786
81256W        W52785  11.855   4.401  11.141
81257W        W52786  44.305  38.907  11.511
81258W        W52787   6.922  28.023  13.738
81259W        W52788   1.769  26.688   4.133
81260W        W52789  37.000  32.835  11.044
81261W        W52790  43.048  34.834   1.770
81262W        W52791   5.734   5.705   3.139
81263W        W52792  34.816  14.964  12.559
81264W        W52793   3.869  44.272   0.577
81265W        W52794  31.289  21.019   4.463
81266W        W52795  25.100   5.592   0.087
81267W        W52796   8.570  33.082   1.855
81268W        W52797  36.819  33.142   1.289
81269W        W52798  25.463   2.125   4.206
81270W        W52799  14.817   2.388  13.889
81271W        W52800  33.047   7.258  14.538
81272W        W52801  44.254   8.400   4.174
81273W        W52802  35.857  13.917   2.277
81274W        W52803   8.651  16.140   3.577
81275W        W52804  27.187  19.089  11.189
81276W        W52805  17.011  40.885   1.409
81277W        W52806  13.704  23.650  14.508
81278W        W52807  33.919  29.928   2.533
81279W        W52808   0.738  15.568   0.944
81280W        W52809   6.305   5.337  12.765
81281W        W52810   4.867   8.962  12.148
81282W        W52811  40.827  43.441  14.752
81283W        W52812  26.716  43.029   3.253
81284W        W52813  33.758  26.983  13.973
81285W        W52814   7.201  30.617   2.681
81286W        W52815  10.680   3.710  14.460
81287W        W52816  35.491  37.746  12.782
81288W        W52817  18.326  44.377   1.310
81289W        W52818  13.018   3.257   4.499
81290W        W52819  33.889  37.722  13.587
81291W        W52820  23.778  32.412  14.867
81292W        W52821   4.288  35.869   1.556
81293W        W52822  41.996  11.633   0.934
81294W        W52823  25.934  31.553  14.886
81295W        W52824  10.455  18.468  10.625
81296W        W52825  11.745  37.064   1.969
81297W        W52826  16.403   4.419   1.167
81298W        W52827  32.935  17.583   0.304
81299W        W52828   7.305  20.077  11.344
81300W        W52829  34.438  31.913  14.428
81301W        W52830  22.225   2.192  11.144
81302W        W52831  26.724  24.645  12.807
81303W        W52832  39.808   9.180  12.731
81304W        W52833  26.168  30.662  12.227
81305W        W52834  37.494  21.271  13.580
81306W        W52835  42.725  38.375  12.481
81307W        W52836  26.749   5.665  10.779
81308W        W52837  39.826  10.578  13.405
81309W        W52838  43.454  44.356  11.553
81310W        W52839  16.316   3.653  14.387
81311W        W52840  37.124  20.614  11.494
81312W        W52841  29.425  38.033   2.321
81313W        W52842  13.219   6.601  12.350
81314W        W52843   5.683  26.202  13.420
81315W        W52844  13.878  31.521  11.516
81316W        W52845   7.324  24.735  13.272
81317W        W52846  13.166  13.571   1.189
81318W        W52847   8.416  15.264   3.165
81319W        W52848  13.240  14.849   1.700
81320W        W52849  13.683  23.734   4.223
81321W        W52850  13.284   9.444  12.523
81322W        W52851  18.172  18.242   0.701
81323W        W52852  35.931  41.838   0.912
81324W        W52853  42.002   6.846  10.704
81325W        W52854  38.015   6.153   3.247
81326W        W52855  15.414  38.337  14.956
81327W        W52856  44.767   2.385   4.085
81328W        W52857  20.261  32.575   2.665
81329W        W52858  21.086  15.819  12.668
81330W        W52859  17.461  11.193   4.178
81331W        W52860  26.749  39.142  10.309
81332W        W52861   8.204  23.158   4.160
81333W        W52862  30.573  37.097   4.957
81334W        W52863  25.672  16.227   4.613
81335W        W52864   3.275  29.913   3.297
81336W        W52865  26.049  12.753  13.914
81337W        W52866  42.992  14.793   2.789
81338W        W52867  17.535  41.751   1.889
81339W        W52868   3.822   4.943  10.769
81340W        W52869  11.389  43.547  10.900
81341W        W52870  29.485   8.269   0.644
81342W        W52871  30.601  12.921   1.367
81343W        W52872  37.850  11.096   4.636
81344W        W52873   8.262  24.410  10.915
81345W        W52874  11.712   2.873  10.223
81346W        W52875  16.186  36.003   2.893
81347W        W52876   5.334  10.074  11.565
81348W        W52877  33.443   2.946   4.252
81349W        W52878  22.739  35.076  11.143
81350W        W52879   0.891  35.334   2.849
81351W        W52880  21.798  15.788  13.810
81352W        W52881  41.781   5.160   3.689
81353W        W52882  18.583  32.717  11.027
81354W        W52883  44.061  14.014   4.970
81355W        W52884   9.579  30.574  12.159
81356W        W52885  38.353  17.108   4.771
81357W        W52886  43.945  10.259  10.989
81358W        W52887  29.573   0.963   0.936
81359W        W52888  25.202  40.763   4.565
81360W        W52889  11.645   4.492  14.536
81361W        W52890  35.024  40.745   1.804
81362W        W52891   7.446  42.094   3.999
81363W        W52892  13.795   0.511  13.786
81364W        W52893  18.928  38.206  11.692
81365W        W52894  36.241   4.888   0.203
81366W        W52895  34.458  16.188   5.000
81367W        W52896  34.038   9.015   4.608
81368W        W52897  23.533  37.457   1.589
81369W        W52898   2.003  38.999  11.363
81370W        W52899  23.757  35.524   4.367
81371W        W52900  42.875   5.199   1.831
81372W        W52901  26.957  35.336  14.817
81373W        W52902  35.159   7.216   2.263
81374W        W52903  37.544  10.086  12.393
81375W        W52904  10.145  39.085  10.979
81376W        W52905  29.243   5.581   4.451
81377W        W52906   5.467  26.040  11.612
81378W        W52907  38.371  24.215  13.496
81379W        W52908  36.371   4.263   2.190
81380W        W52909   2.230  37.511   3.159
81381W        W52910   6.162  19.119   1.829
81382W        W52911  11.653  38.870  12.429
81383W        W52912   6.219   4.418   3.675
81384W        W52913  10.047  29.489   3.192
81385W        W52914  37.776  20.932   1.400
81386W        W52915   6.172   4.919   2.778
81387W        W52916   2.853  33.369   3.128
81388W        W52917  42.904  39.494  11.829
81389W        W52918  41.700  27.326  10.755
81390W        W52919  14.237  20.976  11.118
81391W        W52920  35.387  13.117   1.739
81392W        W52921  36.555  42.595   1.813
81393W        W52922  43.006  38.081   2.868
81394W        W52923  11.353  22.664   1.660
81395W        W52924  37.912  33.663   3.318
81396W        W52925  43.447  13.404   1.771
81397W        W52926  17.571  37.443  14.753
81398W        W52927  14.368   8.374  13.437
81399W        W52928   8.683  33.978  10.619
81400W        W52929  17.899  39.822  12.725
81401W        W52930  10.635  37.161   0.172
81402W        W52931  17.527  44.755  12.986
81403W        W52932  36.514  17.512  14.888
81404W        W52933  29.401   1.266   3.895
81405W        W52934  37.149   3.293  13.130
81406W        W52935   1.847  34.569   3.052
81407W        W52936  24.516  37.932   3.832
81408W        W52937   7.934  27.935   1.195
81409W        W52938  11.307   3.799   1.774
81410W        W52939  12.228  10.793  11.884
81411W        W52940   6.176  23.996   3.741
81412W        W52941   5.337  12.669   2.782
81413W        W52942  15.083  21.569   1.840
81414W        W52943  30.497   2.979  10.454
81415W        W52944  25.245  20.027  13.825
81416W        W52945  13.264   6.667   1.684
81417W        W52946  36.910  44.247  12.507
81418W        W52947   9.921  33.869   2.162
81419W        W52948  21.767  17.189  13.053
81420W        W52949  12.628  11.013  14.852
81421W        W52950  40.672  14.649  13.019
81422W        W52951  31.469  32.182  10.819
81423W        W52952  27.738  41.052  13.072
81424W        W52953  10.595   4.502  10.534
81425W        W52954  39.934  12.148   3.889
81426W        W52955  27.164  39.612   0.905
81427W        W52956  41.062  14.753  14.676
81428W        W52957  18.727  16.107  14.432
81429W        W52958  13.246  18.836  11.306
81430W        W52959  43.542  31.910  10.663
81431W        W52960  35.423  17.818   1.381
81432W        W52961  14.147  38.530   4.572
81433W        W52962  41.670  44.811  13.608
81434W        W52963  36.003  26.676   4.835
81435W        W52964  11.116   2.414   0.980
81436W        W52965   7.902  36.269  14.951
81437W        W52966  24.637  19.355   3.205
81438W        W52967   9.822  44.544  13.921
81439W        W52968   6.789  10.674   2.206
81440W        W52969   6.393   8.703  11.281
81441W        W52970  16.356  22.786  13.719
81442W        W52971  35.228  23.419   5.028
81443W        W52972   3.327  13.558   0.439
81444W        W52973  13.488  41.347  10.153
81445W        W52974   0.962  12.965   4.944
81446W        W52975  30.559   2.596   3.337
81447W        W52976  40.661  16.314  10.790
81448W        W52977  20.012  30.756  10.490
81449W        W52978  31.568  40.372   1.923
81450W        W52979  22.447   7.484  11.756
81451W        W52980   0.735  15.624   2.476
81452W        W52981  25.184  24.621   3.171
81453W        W52982  28.289  44.347   0.404
81454W        W52983  15.716   1.535  11.163
81455W        W52984   8.610   3.877   3.616
81456W        W52985  37.904  21.549  12.003
81457W        W52986   6.975   8.210  13.499
81458W        W52987  18.633  36.944   1.896
81459W        W52988  34.830  35.588   0.842
81460W        W52989   1.404   5.772   3.138
81461W        W52990  21.663  26.218  12.353
81462W        W52991  33.044   9.157   1.281
81463W        W52992  25.187  31.080  11.165
81464W        W52993  31.100  21.033   2.791
81465W        W52994  41.584  16.213  10.422
81466W        W52995   6.292  26.994   1.279
81467W        W52996  34.333  38.785   0.708
81468W        W52997  16.404  37.971   1.991
81469W        W52998  41.920  40.077  13.129
81470W        W52999  38.946  35.858  10.788
81471W        W53000   1.065  29.079  13.078
81472W        W53001  36.273  29.909  12.490
81473W        W53002  13.406  38.711   2.774
81474W        W53003  36.939   7.717  14.834
81475W        W53004   1.017  27.273  11.976
81476W        W53005  17.292  29.572   3.273
81477W        W53006  30.904  43.685  14.775
81478W        W53007  39.378   2.957  14.434
81479W        W53008  10.755  26.453   1.906
81480W        W53009  34.991  15.456   3.186
81481W        W53010  44.518  43.206   2.022
81482W        W53011  24.425   8.191  13.924
81483W        W53012  38.942  28.091   1.921
81484W        W53013  23.142  14.079   3.500
81485W        W53014  17.522  41.278  13.563
81486W        W53015  32.372  29.585   3.555
81487W        W53016  42.542  36.900  11.136
81488W        W53017  40.350  17.357  11.344
81489W        W53018  33.524   6.905   4.154
81490W        W53019  40.915  25.560   0.851
81491W        W53020  13.625  42.409   3.666
81492W        W53021  19.413   9.369   3.849
81493W        W53022   4.857  26.882   1.571
81494W        W53023  36.298   5.772   2.410
81495W        W53024  12.373  28.437   3.160
81496W        W53025  39.384  26.443   4.651
81497W        W53026   4.289  14.128   0.873
81498W        W53027  16.215  13.566   0.973
81499W        W53028  20.033  21.617  14.895
81500W        W53029  42.652  33.639  11.590
81501W        W53030   5.339  35.773   3.762
81502W        W53031  30.398   8.611  12.042
81503W        W53032   6.055  33.511   2.570
81504W        W53033  12.008  15.568   3.119
81505W        W53034  44.001   0.389   4.562
81506W        W53035  18.686  14.251   1.355
81507W        W53036  22.067  25.884  14.398
81508W        W53037  24.628  32.844  11.247
81509W        W53038  41.332  33.037  10.733
81510W        W53039   0.572   5.998  13.072
81511W        W53040  19.822  41.595  13.106
81512W        W53041  36.468   7.407  12.403
81513W        W53042  35.851  26.382   0.890
81514W        W53043  33.086  43.662  12.475
81515W        W53044  43.340   4.188   2.752
81516W        W53045  25.524  32.789  14.154
81517W        W53046  22.718  12.121   0.746
81518W        W53047   2.787  26.124  11.045
81519W        W53048   7.793   7.427   1.356
81520W        W53049  31.327   0.819  11.871
81521W        W53050  29.814  21.655   1.948
81522W        W53051  10.172  15.287  13.559
81523W        W53052  33.404   8.862   0.946
81524W        W53053  21.102  12.773  13.782
81525W        W53054  13.592  21.503   4.599
81526W        W53055  12.353  29.892   3.169
81527W        W53056  22.837   0.765  13.454
81528W        W53057  12.750   9.979  14.870
81529W        W53058  35.348  37.509  14.043
81530W        W53059  42.781  16.753  12.105
81531W        W53060   7.852  21.475  14.281
81532W        W53061  39.008   9.815   0.724
81533W        W53062  33.168  35.509   3.800
81534W        W53063   3.209  10.845  10.361
81535W        W53064  40.064  32.094   0.449
81536W        W53065  17.516  15.253   4.203
81537W        W53066  37.702  16.100   0.703
81538W        W53067  26.609  29.929   1.689
81539W        W53068  19.288  17.829  11.154
81540W        W53069  21.785  26.715   2.263
81541W        W53070  17.148   4.337  11.656
81542W        W53071  28.101   9.109  14.592
81543W        W53072  28.067   5.708   1.764
81544W        W53073   6.182   8.657   0.858
81545W        W53074  30.980   6.399  10.701
81546W        W53075  31.657  33.619   4.144
81547W        W53076   1.530  37.406  14.388
81548W        W53077  19.863  39.053   0.864
81549W        W53078  14.654   0.879  11.069
81550W        W53079   0.330  27.602   3.686
81551W        W53080  19.545  15.367  13.771
81552W        W53081  27.691   5.907  13.300
81553W        W53082  38.835  32.902  12.012
81554W        W53083  25.286  42.041   4.128
81555W        W53084  22.556   1.455   1.764
81556W        W53085  16.384  23.055   0.947
81557W        W53086  17.301  31.263  12.061
81558W        W53087  31.650   2.605  12.584
81559W        W53088  15.571   0.776  13.182
81560W        W53089  18.468  23.273   0.258
81561W        W53090  18.362  21.294   4.096
81562W        W53091  12.854   9.823  11.148
81563W        W53092   2.360  10.726   1.176
81564W        W53093  30.869  44.284   5.151
81565W        W53094   4.850  24.517  14.219
81566W        W53095  29.340  17.292   3.201
81567W        W53096  36.341   1.866  11.547
81568W        W53097   5.402  30.694   5.058
81569W        W53098   1.859  17.820  14.236
81570W        W53099  11.811  30.646  12.631
81571W        W53100  33.375  33.068  14.888
81572W        W53101  30.731  37.540   3.110
81573W        W53102  16.975   7.242   0.669
81574W        W53103  32.014  20.302  12.539
81575W        W53104  41.349  15.107   1.330
81576W        W53105  44.794   3.205  11.633
81577W        W53106  33.099  17.844   4.145
81578W        W53107   2.667   9.681   4.145
81579W        W53108  35.074  24.940   4.092
81580W        W53109  39.541  14.858   3.702
81581W        W53110  20.275  10.410  12.484
81582W        W53111  33.142  23.809   0.868
81583W        W53112  26.438  22.282   4.590
81584W        W53113  24.110  29.067   2.727
81585W        W53114  31.654  12.240  10.644
81586W        W53115   4.660   9.179   0.891
81587W        W53116  31.685  23.253   3.737
81588W        W53117  24.499  11.645  13.249
81589W        W53118  17.121  42.971   3.895
81590W        W53119  15.228  39.758  11.560
81591W        W53120  44.508  44.339  11.118
81592W        W53121  36.988   4.675   3.242
81593W        W53122   6.948  39.271  11.204
81594W        W53123  36.171   4.976   4.251
81595W        W53124  19.605   4.133  11.703
81596W        W53125  19.561   0.452  11.113
81597W        W53126  32.789   6.311  13.502
81598W        W53127   1.995  18.295  12.068
81599W        W53128  13.131   7.734  14.793
81600W        W53129  40.322  33.128  11.590
81601W        W53130  32.129  17.119  11.247
81602W        W53131  17.080  23.740   2.818
81603W        W53132   0.803  19.271   0.657
81604W        W53133  11.398  17.758   2.149
81605W        W53134   7.103   3.918   2.763
81606W        W53135  32.183   1.941  13.518
81607W        W53136  37.210  42.750   3.239
81608W        W53137  23.197  43.064  11.629
81609W        W53138  26.512  19.966   5.152
81610W        W53139   6.633   1.903   4.127
81611W        W53140  12.081   1.715  11.085
81612W        W53141   8.077  13.372   3.180
81613W        W53142  19.308  11.403   1.040
81614W        W53143  19.805  36.618   1.340
81615W        W53144  40.011   9.812   0.212
81616W        W53145  18.665  25.713   1.705
81617W        W53146   1.831  23.966   0.722
81618W        W53147   9.901  24.475  10.734
81619W        W53148  32.426   6.264  14.992
81620W        W53149  16.782  25.694   0.788
81621W        W53150  44.414  36.987  11.512
81622W        W53151  24.036  12.161   4.589
81623W        W53152  18.472  20.129   2.694
81624W        W53153  41.704  21.529   2.208
81625W        W53154   9.504  14.644   3.308
81626W        W53155  38.322   2.854   0.534
81627W        W53156   7.607  34.736  13.386
81628W        W53157   0.960  27.949  11.604
81629W        W53158  20.309   6.673   4.016
81630W        W53159   2.396  20.039   0.363
81631W        W53160  27.470  32.661   3.679
81632W        W53161  10.402   4.465  13.364
81633W        W53162  39.322  44.498   0.966
81634W        W53163  22.020  15.844  11.416
81635W        W53164  11.856  44.599   2.757
81636W        W53165  39.098  33.631  12.000
81637W        W53166   6.650   7.645  11.636
81638W        W53167  39.296   6.102   1.792
81639W        W53168   4.362  27.035   3.684
81640W        W53169   0.091  14.630   4.646
81641W        W53170  38.847  24.065   1.605
81642W        W53171  33.783  32.961   4.996
81643W        W53172  31.614  22.220  11.584
81644W        W53173  35.622  27.228  13.423
81645W        W53174  22.670  30.912   3.755
81646W        W53175  28.559  10.216  13.040
81647W        W53176  15.995  23.215  12.547
81648W        W53177  10.376  41.790  11.493
81649W        W53178  40.072   4.842  10.831
81650W        W53179  38.233  43.487   2.621
81651W        W53180  22.074  12.712   0.700
81652W        W53181  16.690   9.272  12.100
81653W        W53182  32.982  17.625  12.584
81654W        W53183  11.185   0.978   4.153
81655W        W53184   1.933   8.324  14.513
81656W        W53185  36.085  22.983   4.527
81657W        W53186  10.689  41.973   3.650
81658W        W53187  28.000  26.562  12.175
81659W        W53188  35.907  35.368   1.844
81660W        W53189  13.622  28.117   0.304
81661W        W53190  35.582  22.204  12.834
81662W        W53191  14.143   6.419  14.238
81663W        W53192  36.087  14.665  14.718
81664W        W53193  33.367  22.577  14.892
81665W        W53194  39.443  15.660  11.928
81666W        W53195   0.990  35.161   3.659
81667W        W53196   8.184  29.469   3.657
81668W        W53197  44.520  33.713   2.827
81669W        W53198  23.140  35.840  13.421
81670W        W53199   8.427   9.948  10.467
81671W        W53200  19.101   7.919   0.325
81672W        W53201  44.713  28.459   0.865
81673W        W53202  32.073  16.150  10.521
81674W        W53203   2.446   1.237  13.008
81675W        W53204  16.704   8.349   2.031
81676W        W53205   0.929  24.458  11.160
81677W        W53206  41.884  33.930   1.608
81678W        W53207   4.092  12.728   4.494
81679W        W53208   0.241  23.142  12.861
81680W        W53209  23.418  18.177  10.593
81681W        W53210  18.807  17.256   0.220
81682W        W53211  39.475  25.504   4.017
81683W        W53212  44.419  16.255   3.476
81684W        W53213  20.511  12.193   3.821
81685W        W53214  25.506   3.975  10.897
81686W        W53215  12.767  29.651  13.876
81687W        W53216  23.404  12.717   4.120
81688W        W53217   0.630  36.589  12.887
81689W        W53218  34.974   7.659  14.855
81690W        W53219  15.809  36.778  13.979
81691W        W53220  23.534  34.723  14.237
81692W        W53221  10.291  22.278  10.449
81693W        W53222  26.681  41.875  14.924
81694W        W53223  41.791   9.538   0.939
81695W        W53224  32.015  28.120  14.275
81696W        W53225   2.808  30.014  11.219
81697W        W53226  30.288  33.454  10.979
81698W        W53227  34.079  15.301   3.632
81699W        W53228  26.322  41.061  13.842
81700W        W53229  15.284   7.405   3.195
81701W        W53230  14.407  18.211  12.057
81702W        W53231  42.634   3.876  14.721
81703W        W53232   7.761  21.062  11.135
81704W        W53233   3.006  17.660  11.633
81705W        W53234   6.604  19.913  13.881
81706W        W53235  19.817  20.507   4.851
81707W        W53236  35.049  27.498   4.401
81708W        W53237   6.331  37.391   4.588
81709W        W53238  44.229  13.875  11.219
81710W        W53239  34.335   3.290  14.771
81711W        W53240  14.531  43.554   3.692
81712W        W53241  14.162   9.767   0.961
81713W        W53242  12.664  17.287  10.710
81714W        W53243  23.539  12.888  12.943
81715W        W53244  32.788   5.819   2.385
81716W        W53245  28.462   3.335   4.793
81717W        W53246   5.211  10.875   0.402
81718W        W53247  11.279   4.873  14.581
81719W        W53248  15.380  38.314   4.837
81720W        W53249   9.476   4.270  13.619
81721W        W53250  12.109  29.432   3.221
81722W        W53251  38.935  13.284   4.225
81723W        W53252  31.573   3.276   2.609
81724W        W53253  16.954  35.245   0.125
81725W        W53254   2.419  34.040   0.525
81726W        W53255  18.271  13.787   3.163
81727W        W53256   9.262  10.531   1.149
81728W        W53257  13.336  28.672   0.911
81729W        W53258  11.817  26.664  11.077
81730W        W53259  17.326   2.936  10.631
81731W        W53260  16.207   0.393   3.611
81732W        W53261  13.070  17.122  14.910
81733W        W53262  27.544  26.773  12.883
81734W        W53263  22.157  11.095  13.385
81735W        W53264  34.980   9.205  14.534
81736W        W53265  15.515   4.469  13.408
81737W        W53266  22.167  29.169  11.217
81738W        W53267   1.544  21.626  13.481
81739W        W53268  22.297  24.291  11.474
81740W        W53269  27.645  21.100  13.611
81741W        W53270  44.519  43.999   2.366
81742W        W53271  25.916  26.682  13.841
81743W        W53272  35.448  24.919  14.922
81744W        W53273   7.838  24.092   3.261
81745W        W53274  23.278  28.483  12.442
81746W        W53275   6.119   5.005  14.519
81747W        W53276  20.192  44.521  10.810
81748W        W53277  20.413  33.641   4.122
81749W        W53278  21.150   7.160   4.473
81750W        W53279  23.153  24.006   0.496
81751W        W53280  23.225  35.540  11.621
81752W        W53281  38.568  22.638  14.382
81753W        W53282   2.249  10.738  10.551
81754W        W53283  28.151  39.586   1.460
81755W        W53284  34.192   4.373   1.195
81756W        W53285  22.706  42.432  13.127
81757W        W53286  11.332  23.128  14.331
81758W        W53287  28.170  24.237  13.051
81759W        W53288  14.493  22.562   4.587
81760W        W53289  21.620  10.264  13.015
81761W        W53290  40.560  43.935  12.541
81762W        W53291  32.635   6.662   1.731
81763W        W53292  11.226  19.265   1.768
81764W        W53293  36.570  13.131  11.951
81765W        W53294  30.000  22.695   3.403
81766W        W53295  34.161   8.419   1.903
81767W        W53296   0.935  23.120  12.601
81768W        W53297  40.967  22.564  10.441
81769W        W53298   1.972  41.913   0.246
81770W        W53299   2.932  20.190  12.468
81771W        W53300  27.650  11.759   2.795
81772W        W53301  28.343  22.203  14.178
81773W        W53302   9.985  42.744  10.150
81774W        W53303  39.808  42.546   4.183
81775W        W53304  37.767  44.973   3.173
81776W        W53305  44.837  23.501   3.170
81777W        W53306  40.309  27.145   3.837
81778W        W53307  26.748  39.378  12.479
81779W        W53308  18.811  42.715   3.219
81780W        W53309   4.716  38.628  14.593
81781W        W53310   8.671  12.076  12.969
81782W        W53311  39.732   7.349   4.031
81783W        W53312  36.858  22.933  11.147
81784W        W53313  31.920  22.735  14.874
81785W        W53314  32.253  10.407   0.391
81786W        W53315  37.995  24.439   3.629
81787W        W53316   4.283  22.953   4.224
81788W        W53317  34.774  26.874  10.954
81789W        W53318  26.856  44.381  11.986
81790W        W53319  39.951   1.276   3.237
81791W        W53320  26.220  13.225   1.734
81792W        W53321   4.118  21.772   2.226
81793W        W53322   8.820  44.482  14.030
81794W        W53323  42.270  28.694  12.555
81795W        W53324  18.727   2.075   4.592
81796W        W53325  35.968   0.560  11.993
81797W        W53326   2.355  31.161  11.861
81798W        W53327  39.626  35.846   2.237
81799W        W53328   9.574  15.727   0.959
81800W        W53329  32.832  28.027   0.982
81801W        W53330  44.976  29.617  14.935
81802W        W53331  37.998  39.066  11.586
81803W        W53332  31.014  32.149  14.576
81804W        W53333  25.513  41.598   3.153
81805W        W53334  17.357  22.589   2.292
81806W        W53335  27.677  23.619  12.481
81807W        W53336  37.675  29.402  12.138
81808W        W53337  28.170  13.559  13.107
81809W        W53338  35.069   1.468   3.731
81810W        W53339  12.222   5.346   4.304
81811W        W53340  16.523  22.636   4.708
81812W        W53341  38.590   8.824  14.773
81813W        W53342  30.122   5.107   1.909
81814W        W53343  28.550  32.847  12.539
81815W        W53344  12.289  32.984  13.141
81816W        W53345   6.656   5.286  10.542
81817W        W53346  40.115  26.594   1.110
81818W        W53347  27.574  22.281   1.667
81819W        W53348  29.832  27.715   4.090
81820W        W53349   2.249  44.738  11.993
81821W        W53350  20.835  40.416   4.500
81822W        W53351  40.001  16.159   0.521
81823W        W53352  14.200   3.689   2.458
81824W        W53353  25.497  33.664   0.974
81825W        W53354   1.550  14.709  11.994
81826W        W53355  24.382  32.204   3.160
81827W        W53356   7.966   5.957  14.042
81828W        W53357  11.353  12.797   4.036
81829W        W53358   1.951  20.943  14.592
81830W        W53359   6.888  39.278  14.570
81831W        W53360   3.942   7.815   2.773
81832W        W53361  34.286  37.107  14.620
81833W        W53362  42.418  40.963  11.313
81834W        W53363  13.108  15.481   2.358
81835W        W53364  21.672  17.213   3.225
81836W        W53365  31.934   7.941   3.609
81837W        W53366  21.758  22.378   2.264
81838W        W53367  30.890   9.651  10.588
81839W        W53368  20.272   5.322   4.508
81840W        W53369  38.365  37.297   3.163
81841W        W53370  31.704  32.826   5.540
81842W        W53371   2.555  20.583  12.081
81843W        W53372  14.816   1.780   4.948
81844W        W53373  13.343  23.235  12.408
81845W        W53374  12.696  26.979  13.036
81846W        W53375  30.043  31.655   3.269
81847W        W53376  38.879   3.089   0.839
81848W        W53377   8.126   6.631   0.794
81849W        W53378  13.288  38.111  12.460
81850W        W53379  32.225  15.034  12.670
81851W        W53380  27.004  19.136  11.956
81852W        W53381  32.854  30.088   1.264
81853W        W53382  12.470   8.824   4.112
81854W        W53383  28.958  10.848   1.442
81855W        W53384  27.121   2.661  11.177
81856W        W53385  32.306  38.639  10.022
81857W        W53386  27.571  31.417  10.582
81858W        W53387  21.989  24.666   3.711
81859W        W53388  38.876  40.437  12.640
81860W        W53389  27.349  28.977  12.890
81861W        W53390  12.903  41.436  10.946
81862W        W53391  30.262  27.949   2.476
81863W        W53392   4.705  22.126  13.253
81864W        W53393  27.604  15.000  10.267
81865W        W53394  41.956  26.577  13.374
81866W        W53395  26.956  25.326   2.367
81867W        W53396  33.569   8.756   4.613
81868W        W53397  44.932  38.059  12.918
81869W        W53398  29.456  35.894  12.442
81870W        W53399  27.549   6.324  14.478
81871W        W53400  10.082  13.260   2.418
81872W        W53401  31.859  29.461   4.083
81873W        W53402   9.195  28.598   1.244
81874W        W53403   4.828  11.237  10.916
81875W        W53404  41.572  18.782  11.092
81876W        W53405  17.160   0.390   3.138
81877W        W53406  39.589  22.660  14.442
81878W        W53407  20.636  34.041  13.127
81879W        W53408  28.169  30.411  12.385
81880W        W53409  32.488  30.448   0.243
81881W        W53410  21.232  35.796  13.005
81882W        W53411  21.127  19.462  14.263
81883W        W53412   3.240  19.155   0.905
81884W        W53413  20.970  24.268  11.594
81885W        W53414  33.507   0.789   4.147
81886W        W53415   2.466   6.934  10.388
81887W        W53416  27.152   7.851  12.330
81888W        W53417  15.768  38.504  13.801
81889W        W53418   2.212  34.910  11.585
81890W        W53419  17.025  15.773  14.808
81891W        W53420  42.079  21.153  14.133
81892W        W53421  33.038  26.460   3.274
81893W        W53422  26.589  39.797   1.003
81894W        W53423  13.597   2.429  14.966
81895W        W53424  27.518  27.213   3.459
81896W        W53425  16.034  36.479   1.284
81897W        W53426  44.971  13.417  11.139
81898W        W53427  32.892   7.032   2.601
81899W        W53428  26.277  22.413  13.764
81900W        W53429  23.314  34.308  14.021
81901W        W53430   4.352   5.199  14.278
81902W        W53431  39.020   4.267   1.809
81903W        W53432  26.680  32.907   3.135
81904W        W53433  44.435  38.262   0.616
81905W        W53434  26.565  43.264  14.477
81906W        W53435   6.700  23.693  11.175
81907W        W53436  11.843  26.064   2.765
81908W        W53437  39.449  25.083  13.477
81909W        W53438   0.425  35.557   2.852
81910W        W53439  43.527  35.605  12.466
81911W        W53440  14.307  13.838   4.502
81912W        W53441   6.682  44.808   4.021
81913W        W53442  20.062  10.553   1.346
81914W        W53443   5.050  40.202  10.428
81915W        W53444  35.386  40.513  12.222
81916W        W53445  44.289  12.886   1.711
81917W        W53446  41.782  28.638  12.312
81918W        W53447  32.493  29.090   0.048
81919W        W53448  24.702  34.576   3.672
81920W        W53449  30.858   8.209   1.839
81921W        W53450  36.130  39.029   0.476
81922W        W53451  24.206   8.823   2.959
81923W        W53452  42.317  43.869   2.879
81924W        W53453   1.296  32.751  13.371
81925W        W53454  11.138  11.576  11.618
81926W        W53455  44.606  22.732   2.749
81927W        W53456  39.864   3.034   4.183
81928W        W53457  44.885   8.225   4.896
81929W        W53458  24.085  18.617  11.680
81930W        W53459  25.114  17.514   3.206
81931W        W53460  16.217  18.609   2.176
81932W        W53461  34.723   9.564   4.376
81933W        W53462  16.778  12.728   3.134
81934W        W53463  16.575   9.569  14.333
81935W        W53464  17.506  35.062  10.246
81936W        W53465   9.107  27.587  14.017
81937W        W53466  44.806  36.081   1.898
81938W        W53467  20.755  27.941   3.724
81939W        W53468  31.135  19.802  13.403
81940W        W53469  42.294   2.218  13.953
81941W        W53470  13.969  19.297  14.074
81942W        W53471  21.882  32.077   2.290
81943W        W53472  25.022  19.813  14.232
81944W        W53473   0.284  41.548  12.878
81945W        W53474  44.840  30.531   0.931
81946W        W53475  27.495  41.773   3.561
81947W        W53476   9.735  23.618  14.053
81948W        W53477   5.274  13.811   3.644
81949W        W53478  36.587   3.836  14.291
81950W        W53479  21.781  39.424  14.824
81951W        W53480  27.681   5.885  14.232
81952W        W53481  34.548  42.649   4.225
81953W        W53482  18.140  43.086   1.781
81954W        W53483   3.316   5.930   4.586
81955W        W53484   7.749   2.500   0.305
81956W        W53485   9.751  41.927  11.126
81957W        W53486  41.741  39.089   2.774
81958W        W53487  40.272  44.013   2.817
81959W        W53488  36.803  19.808  14.399
81960W        W53489  27.359   0.435  14.376
81961W        W53490  14.702   1.936  14.661
81962W        W53491   4.351  19.623   1.983
81963W        W53492  24.543  41.609  12.106
81964W        W53493  12.173   0.466  14.554
81965W        W53494   3.858  11.209   1.953
81966W        W53495  25.425  26.459  11.623
81967W        W53496  19.897   1.152   4.710
81968W        W53497  22.031  31.321   2.643
81969W        W53498  14.830  38.118  14.746
81970W        W53499   3.681  22.847  11.109
81971W        W53500  14.054   9.592   1.426
81972W        W53501  36.138   6.748   0.009
81973W        W53502  19.704  30.614  11.601
81974W        W53503   4.372  13.418   2.319
81975W        W53504  27.409  22.619  10.587
81976W        W53505  33.895  25.313   4.932
81977W        W53506  37.638  38.812   4.594
81978W        W53507  39.081   4.410   3.109
81979W        W53508  19.130  31.107  11.195
81980W        W53509   2.310  12.827   2.578
81981W        W53510  28.056   9.893   1.899
81982W        W53511  41.293  41.421   0.598
81983W        W53512   3.175  12.541   0.333
81984W        W53513  28.940  24.871  12.009
81985W        W53514  21.000  10.693   4.169
81986W        W53515   4.723  42.991  11.725
81987W        W53516  24.658  17.839  10.754
81988W        W53517  16.762  17.234   4.464
81989W        W53518  15.087  31.529   2.819
81990W        W53519  32.031   4.854  13.415
81991W        W53520  27.600  19.800   4.560
81992W        W53521   4.344  14.724   0.205
81993W        W53522  11.854   3.325  13.073
81994W        W53523  23.072   2.384   3.144
81995W        W53524   6.855   4.488   3.197
81996W        W53525  35.760  37.014   4.331
81997W        W53526  26.503  19.544   1.976
81998W        W53527   0.875  10.146   2.415
81999W        W53528  12.087  42.273  12.930
82000W        W53529   1.978  27.892  14.607
82001W        W53530  29.814  19.084  14.392
82002W        W53531  34.616  11.779   3.128
82003W        W53532  42.998  25.124  13.524
82004W        W53533   7.896  25.089  10.232
82005W        W53534  44.448   3.433  10.102
82006W        W53535  18.079  29.904  13.055
82007W        W53536  18.658  27.906  10.612
82008W        W53537   8.382  25.048  12.396
82009W        W53538  21.101  27.396   2.677
82010W        W53539  14.633  39.520   3.144
82011W        W53540  22.171  30.831   3.553
82012W        W53541  25.619  22.627  10.660
82013W        W53542  36.927  10.197  10.531
82014W        W53543  11.931   2.311  10.867
82015W        W53544   3.933  15.246   1.244
82016W        W53545  34.403  21.250   0.838
82017W        W53546  19.038  25.572  12.656
82018W        W53547   5.460  40.520   0.541
82019W        W53548  13.656  27.009  11.947
82020W        W53549   5.836  42.203  13.599
82021W        W53550  37.858  37.332   4.113
82022W        W53551  41.271  22.440  11.645
82023W        W53552   1.331  19.202  13.707
82024W        W53553  12.231  36.186   4.758
82025W        W53554  27.203  25.582  13.491
82026W        W53555  15.368   4.797   3.624
82027W        W53556  20.615  34.937   4.424
82028W        W53557  42.808  25.936  11.791
82029W        W53558  41.362  16.948   4.744
82030W        W53559  32.488  21.523  12.477
82031W        W53560  40.673  30.653  11.459
82032W        W53561  23.009  27.509   0.670
82033W        W53562   3.683  39.004   4.036
82034W        W53563   1.170   0.049   2.341
82035W        W53564   7.889  43.448  14.298
82036W        W53565  29.396   1.728   4.124
82037W        W53566  16.196  29.278   3.736
82038W        W53567   0.440  26.737   1.878
82039W        W53568   2.334  15.146   4.812
82040W        W53569  17.115  26.035   2.843
82041W        W53570  33.463  11.044   0.993
82042W        W53571   7.914  32.075   2.672
82043W        W53572  32.205  28.436  13.789
82044W        W53573   2.682  35.538  13.869
82045W        W53574  14.723   9.996   3.165
82046W        W53575  27.663  14.212  13.454
82047W        W53576  15.275   9.443   1.825
82048W        W53577   2.440  25.145  10.333
82049W        W53578   3.530  20.624   2.356
82050W        W53579  14.932  44.827   2.213
82051W        W53580  23.950  13.732   3.197
82052W        W53581   3.797  27.211  11.882
82053W        W53582  37.924  31.905  12.538
82054W        W53583  30.976   9.655   2.381
82055W        W53584  43.465  25.112   0.101
82056W        W53585  29.943  22.204   0.265
82057W        W53586  11.661   1.456  11.247
82058W        W53587  19.076   4.783  13.420
82059W        W53588   3.113  39.935  13.900
82060W        W53589  43.357  23.070  12.349
82061W        W53590  12.756   7.739  11.738
82062W        W53591   1.256  43.863   3.540
82063W        W53592  22.322  43.538  10.961
82064W        W53593  41.435  38.809   1.955
82065W        W53594  23.839  28.586   0.492
82066W        W53595   6.565  43.702  12.510
82067W        W53596  22.285  18.534  11.015
82068W        W53597  15.557  44.444  14.843
82069W        W53598  26.556   7.940   3.206
82070W        W53599   3.282  19.387  13.419
82071W        W53600  34.601  21.290  11.935
82072W        W53601  25.485  29.652   0.907
82073W        W53602  37.087  29.892  14.386
82074W        W53603  22.190  30.758  10.757
82075W        W53604  33.369  30.631  13.556
82076W        W53605  25.798   3.191   3.425
82077W        W53606  21.995   8.043  14.805
82078W        W53607  34.007  33.971  11.086
82079W        W53608   6.570  12.567   3.667
82080W        W53609  21.571  38.940   0.451
82081W        W53610  10.336  23.430  12.596
82082W        W53611  28.950  39.991   2.607
82083W        W53612  22.800  32.223   0.671
82084W        W53613   3.425   6.297  13.061
82085W        W53614  26.595  23.715   1.566
82086W        W53615  21.510   6.140  14.522
82087W        W53616   9.238   5.500   4.390
82088W        W53617   1.408   5.065   0.464
82089W        W53618  33.408  29.369  10.332
82090W        W53619  19.271  42.917   0.834
82091W        W53620  19.575   1.810   3.170
82092W        W53621  43.418  39.891   4.766
82093W        W53622  20.792  38.514   4.586
82094W        W53623   4.391  18.226   4.158
82095W        W53624  38.502  25.191  12.368
82096W        W53625  13.426   4.454  14.772
82097W        W53626  32.084  24.508  12.405
82098W        W53627   6.174   9.386   0.312
82099W        W53628  34.619  40.939   1.515
82100W        W53629  13.759  13.144  12.168
82101W        W53630  10.695  15.739  11.603
82102W        W53631  41.602  16.259   4.134
82103W        W53632   1.873  25.007  11.169
82104W        W53633  41.519  25.115   2.334
82105W        W53634  36.357  32.979   1.124
82106W        W53635  37.051  23.997   4.296
82107W        W53636   8.667  37.797  11.610
82108W        W53637  11.086  38.056  10.902
82109W        W53638  13.333  42.375   4.825
82110W        W53639  28.518   7.442   3.403
82111W        W53640  26.351  22.959  13.407
82112W        W53641  11.035   6.420   4.649
82113W        W53642   2.001  29.972  12.315
82114W        W53643  20.100   8.721   0.983
82115W        W53644  22.348  18.006  10.703
82116W        W53645   5.622  15.528  13.544
82117W        W53646  42.548  16.697  11.123
82118W        W53647   5.684   7.153   0.877
82119W        W53648  24.578  37.297  11.143
82120W        W53649  44.507  41.874  14.390
82121W        W53650   5.810  42.375   2.460
82122W        W53651  38.372  23.712   0.880
82123W        W53652  32.160  18.547  13.156
82124W        W53653   5.144  19.626   2.680
82125W        W53654   0.298   8.244  10.803
82126W        W53655  21.871  40.087   1.792
82127W        W53656  19.476  43.306   0.391
82128W        W53657  21.740  10.346   4.639
82129W        W53658  36.155  16.390  13.232
82130W        W53659  10.822  42.222  12.324
82131W        W53660  17.853   7.830   5.174
82132W        W53661  30.050   7.882  11.090
82133W        W53662  19.714  29.594  11.752
82134W        W53663  32.510  21.954  11.061
82135W        W53664  34.551  13.328  11.333
82136W        W53665   6.801  12.846  14.292
82137W        W53666  39.525   4.838   2.668
82138W        W53667  30.449   4.986   3.729
82139W        W53668  43.423  19.405  10.527
82140W        W53669  12.910  23.294   4.067
82141W        W53670  36.039   7.745   3.967
82142W        W53671   8.760  25.171   4.392
82143W        W53672  16.102  28.160   0.269
82144W        W53673  37.418  12.354   2.062
82145W        W53674  37.269  41.262   4.137
82146W        W53675  31.216   3.084   2.927
82147W        W53676  35.214   9.854   2.213
82148W        W53677  22.946   0.446  14.320
82149W        W53678   0.660  23.691   3.171
82150W        W53679   2.545  37.032   4.489
82151W        W53680  14.991   0.956   4.790
82152W        W53681  43.911  11.449   4.869
82153W        W53682  34.611  36.982  10.697
82154W        W53683  38.769   2.130   3.766
82155W        W53684  40.625  43.181   4.327
82156W        W53685  14.919  16.722  14.856
82157W        W53686  13.324  20.617  10.930
82158W        W53687   0.884   3.781  11.237
82159W        W53688  26.659   6.134  14.424
82160W        W53689  16.223  32.171  10.773
82161W        W53690   0.954  17.688   1.327
82162W        W53691  32.511  40.407   1.420
82163W        W53692  41.520  26.879  11.478
82164W        W53693  42.045  12.368  14.460
82165W        W53694  10.254  13.607   4.728
82166W        W53695  12.187  37.358  10.771
82167W        W53696  24.921  32.139   4.528
82168W        W53697  41.590  33.460  10.859
82169W        W53698  15.030   8.806   3.171
82170W        W53699  25.619  15.241   3.140
82171W        W53700   2.902  34.765   1.679
82172W        W53701  26.120   2.050  10.594
82173W        W53702  37.315  41.700   0.915
82174W        W53703  20.627  10.842   1.338
82175W        W53704  31.864  36.532   4.134
82176W        W53705  40.540  32.013   2.643
82177W        W53706  43.402  37.280   1.773
82178W        W53707  16.141  10.455   4.997
82179W        W53708   0.718  33.086   3.232
82180W        W53709  15.068  43.422  11.337
82181W        W53710   9.131   8.246  13.789
82182W        W53711  35.451  22.624   3.797
82183W        W53712  43.361   7.961   0.143
82184W        W53713  28.214  16.030   4.681
82185W        W53714  41.212  32.827   3.378
82186W        W53715  26.791  23.714  12.222
82187W        W53716  16.844  44.767   4.435
82188W        W53717  42.818  19.238  14.963
82189W        W53718  30.371   9.274   2.913
82190W        W53719  10.387  38.801   1.678
82191W        W53720  10.573  21.091  10.682
82192W        W53721  14.260  23.496   3.795
82193W        W53722   0.978   5.743  12.369
82194W        W53723  39.558  37.401  14.884
82195W        W53724  40.828  34.574   1.870
82196W        W53725  32.307   0.297   0.059
82197W        W53726  34.904  19.392   0.836
82198W        W53727  27.890   6.437  14.858
82199W        W53728  40.055  20.663   2.738
82200W        W53729  36.280   9.431   1.771
82201W        W53730  12.092  27.632   0.813
82202W        W53731  40.956  13.775   0.322
82203W        W53732  20.488  23.936  14.389
82204W        W53733  30.158  30.085  14.499
82205W        W53734   8.722  24.234  12.025
82206W        W53735  21.941  20.812   2.688
82207W        W53736   6.412   7.414  12.533
82208W        W53737  42.368   3.834  14.177
82209W        W53738  41.950   2.210  11.151
82210W        W53739  13.355  26.436   3.370
82211W        W53740  32.041  27.587   1.330
82212W        W53741  15.711  11.129  12.567
82213W        W53742  17.027  24.517   3.217
82214W        W53743  24.700   9.838   2.884
82215W        W53744  11.009  40.529  11.968
82216W        W53745  12.797  10.345   3.753
82217W        W53746  41.955  28.510   0.509
82218W        W53747  28.536  18.612   3.087
82219W        W53748  24.729  39.967  13.253
82220W        W53749  26.509   6.736   1.551
82221W        W53750   5.404  12.253  13.841
82222W        W53751  17.885  23.997  13.949
82223W        W53752  36.105  19.153   3.306
82224W        W53753   8.301   0.211   2.171
82225W        W53754  31.388  16.824  12.351
82226W        W53755  11.317  28.902   4.288
82227W        W53756  19.748   0.470  12.915
82228W        W53757  30.515  13.516  12.231
82229W        W53758  25.470  10.321  12.925
82230W        W53759  37.518  32.270  11.880
82231W        W53760   0.436  19.506  11.550
82232W        W53761  11.949  27.766   9.903
82233W        W53762  13.695  26.603  10.614
82234W        W53763  37.980   7.960   0.017
82235W        W53764  14.595   3.795   2.844
82236W        W53765  44.900  12.668  11.460
82237W        W53766  31.960  20.902  11.560
82238W        W53767   3.526  17.165   0.817
82239W        W53768   8.158  13.325  11.064
82240W        W53769   0.526   4.708  14.003
82241W        W53770  28.665  13.696   3.113
82242W        W53771  43.729  18.080  13.007
82243W        W53772  40.501  27.948   1.737
82244W        W53773  17.883  16.468   2.280
82245W        W53774  29.940  17.188  11.353
82246W        W53775  30.972  36.669   1.468
82247W        W53776  13.880   6.258  14.825
82248W        W53777  15.742  10.831  13.026
82249W        W53778   6.397  44.289   1.360
82250W        W53779  42.807   2.291  13.905
82251W        W53780   6.749  31.979   0.730
82252W        W53781  25.111  24.785   4.220
82253W        W53782  23.118  16.258  11.126
82254W        W53783  33.515  28.963   4.707
82255W        W53784  35.816  13.565   1.281
82256W        W53785  43.894  13.168   1.911
82257W        W53786   3.853  31.897  11.130
82258W        W53787   3.084  20.664  11.174
82259W        W53788  37.528  38.589   0.308
82260W        W53789  35.854   7.954  12.018
82261W        W53790  41.521  11.832   1.015
82262W        W53791   9.846   5.141   3.212
82263W        W53792  30.383  21.411  11.920
82264W        W53793  35.134   3.329   0.078
82265W        W53794  35.501   7.834  13.968
82266W        W53795   5.663   7.372   2.306
82267W        W53796  12.273  43.542  13.448
82268W        W53797  10.958  34.565   4.101
82269W        W53798   4.786  32.125  13.513
82270W        W53799  16.651  11.929  10.641
82271W        W53800   1.369  15.163   0.952
82272W        W53801   0.011  12.402   3.218
82273W        W53802  19.774  24.344   3.696
82274W        W53803   7.032   8.082  10.744
82275W        W53804  36.068   9.808  11.958
82276W        W53805  32.782  15.416  14.443
82277W        W53806  28.482   7.694   2.666
82278W        W53807  32.443   4.203  11.540
82279W        W53808   7.572  41.237   1.358
82280W        W53809   2.809   9.148  12.471
82281W        W53810   6.461  27.558   2.932
82282W        W53811  31.604  10.768  12.571
82283W        W53812   2.244  44.078   1.262
82284W        W53813  39.766   3.302  10.696
82285W        W53814  14.787  44.312   4.253
82286W        W53815  12.694   3.718  12.125
82287W        W53816  40.091  27.984   0.395
82288W        W53817  42.417   9.266  11.380
82289W        W53818  41.901   0.206   3.871
82290W        W53819  28.063  27.551   0.928
82291W        W53820  31.854  26.096   4.010
82292W        W53821  41.581   1.721  12.494
82293W        W53822  14.724  14.166   0.067
82294W        W53823  27.644  38.308   2.797
82295W        W53824  32.525  44.637  11.922
82296W        W53825   8.459  20.134   4.216
82297W        W53826  33.842  26.570   0.517
82298W        W53827  17.701  14.427  13.121
82299W        W53828   3.320  32.537   0.866
82300W        W53829  12.795  10.432   1.244
82301W        W53830   8.381  42.734   1.840
82302W        W53831  44.932  10.916   3.602
82303W        W53832  24.323  32.786  11.974
82304W        W53833  18.158  43.160  14.650
82305W        W53834  20.740  12.881   3.669
82306W        W53835  43.517   4.260   3.497
82307W        W53836   3.688   2.879   3.108
82308W        W53837   3.193  19.654   3.650
82309W        W53838  32.006  13.787  14.037
82310W        W53839  15.459  33.460   2.690
82311W        W53840  37.235  27.468   0.806
82312W        W53841   3.468  22.308   0.369
82313W        W53842  39.509  39.537   1.060
82314W        W53843   0.298  21.247   4.605
82315W        W53844  28.504  18.199   4.535
82316W        W53845  39.254  20.051  12.967
82317W        W53846   7.849  40.815   2.738
82318W        W53847  21.073   4.622  11.262
82319W        W53848  30.172  11.287  13.949
82320W        W53849  38.285  11.584  11.048
82321W        W53850  32.893  36.512   3.203
82322W        W53851  32.136   2.465   2.431
82323W        W53852  30.207   6.671   3.321
82324W        W53853  21.230  31.449  11.918
82325W        W53854  12.676  40.918  12.616
82326W        W53855  19.263  39.277   2.756
82327W        W53856  14.291  41.365   0.836
82328W        W53857  24.618  33.465   4.434
82329W        W53858  19.632  36.097   0.721
82330W        W53859   9.872  33.140  13.421
82331W        W53860  26.079   4.942  13.990
82332W        W53861  19.715  38.828  14.754
82333W        W53862  31.495  17.521   3.079
82334W        W53863  36.533   0.688   3.234
82335W        W53864   0.151  13.848   3.573
82336W        W53865  31.053  31.889  14.112
82337W        W53866  38.954   8.712   3.714
82338W        W53867  40.938  43.989   3.779
82339W        W53868   4.882  20.252   4.399
82340W        W53869  22.152  31.990   4.579
82341W        W53870  19.727  16.516  13.483
82342W        W53871  26.978  34.843   1.519
82343W        W53872  17.210   3.727   2.103
82344W        W53873  15.740  17.852  14.822
82345W        W53874  20.662  29.460   3.710
82346W        W53875  11.722  16.088   1.393
82347W        W53876  27.570  38.867   4.482
82348W        W53877  22.473  29.374   4.603
82349W        W53878  38.332   4.679   3.467
82350W        W53879  31.132  22.241  10.845
82351W        W53880  14.797  21.989   0.249
82352W        W53881  14.249  37.783  13.428
82353W        W53882  20.964   4.324  14.381
82354W        W53883  24.032  29.062  12.801
82355W        W53884  25.579  24.835   1.683
82356W        W53885   6.550  32.835  13.413
82357W        W53886   5.191  19.080  11.591
82358W        W53887  33.558  40.875   1.368
82359W        W53888  34.491  35.523   4.161
82360W        W53889   3.762   0.930   2.103
82361W        W53890  44.423  22.586   0.920
82362W        W53891  39.988  25.639  13.931
82363W        W53892  16.063  26.580  13.495
82364W        W53893   1.020  39.845   3.840
82365W        W53894  40.441  39.574  11.049
82366W        W53895  31.434  20.329  13.910
82367W        W53896  33.186  11.094   3.678
82368W        W53897  38.103  31.980   4.593
82369W        W53898  15.452  27.687  13.128
82370W        W53899   6.385  40.347  12.568
82371W        W53900   3.330  43.792   1.337
82372W        W53901  23.009  28.687   3.355
82373W        W53902  34.886  14.111   1.449
82374W        W53903  44.367  12.351   0.713
82375W        W53904  35.740  37.396   3.586
82376W        W53905  26.238  21.352   4.972
82377W        W53906  23.623  25.121  10.685
82378W        W53907  42.732  34.160  11.586
82379W        W53908  26.977  40.818  13.530
82380W        W53909  44.932  31.345   2.293
82381W        W53910  24.737  43.542   1.289
82382W        W53911   5.276  32.759   1.766
82383W        W53912  22.520   2.471   0.468
82384W        W53913  27.189   3.493   0.442
82385W        W53914  34.421  19.757  13.551
82386W        W53915  11.709   6.219   4.088
82387W        W53916  41.829  26.917  11.039
82388W        W53917  21.007  41.850   0.911
82389W        W53918  18.110  38.600   2.190
82390W        W53919  12.247  39.060  10.433
82391W        W53920  17.239  14.322  11.683
82392W        W53921  33.131  17.041   1.690
82393W        W53922  39.232   6.159   9.937
82394W        W53923  14.810  19.727   5.028
82395W        W53924  10.893  43.450   0.878
82396W        W53925  18.219  35.397   2.318
82397W        W53926  35.077  36.995   0.330
82398W        W53927  37.519  28.174   0.232
82399W        W53928  37.032  21.182   1.605
82400W        W53929  32.908   2.266   1.767
82401W        W53930  38.899  42.365   1.572
82402W        W53931   4.528  16.740  10.264
82403W        W53932  20.911  32.647  13.475
82404W        W53933  17.086   2.718   4.135
82405W        W53934   8.541   3.276   5.351
82406W        W53935   8.819   2.517  14.064
82407W        W53936   5.240  38.896   0.899
82408W        W53937  28.782  17.137   0.416
82409W        W53938   3.289   5.490  13.620
82410W        W53939  32.538  40.056  10.631
82411W        W53940  15.782   4.154  11.538
82412W        W53941  24.630  29.338   3.379
82413W        W53942  43.653  11.710   4.496
82414W        W53943  38.425  11.293   1.871
82415W        W53944  10.433  42.556   0.517
82416W        W53945  35.058  31.126  14.398
82417W        W53946   7.299   2.218   0.337
82418W        W53947  43.938  10.068   4.876
82419W        W53948  43.065  37.711  14.516
82420W        W53949  35.400  27.178  13.969
82421W        W53950  18.886  15.331  12.235
82422W        W53951  35.583  26.449  13.239
82423W        W53952   0.978   0.069   0.428
82424W        W53953  15.661  11.885   3.341
82425W        W53954  25.066  36.469   4.170
82426W        W53955  31.590  29.486   0.360
82427W        W53956   8.386  22.778   0.120
82428W        W53957   5.170  26.478  11.163
82429W        W53958  34.091  32.107  12.106
82430W        W53959   5.477  44.825   2.185
82431W        W53960  36.858  41.781   1.903
82432W        W53961   2.457  11.340  12.845
82433W        W53962  25.199  39.491   0.927
82434W        W53963  44.477   7.140  14.343
82435W        W53964  40.065  27.016  11.662
82436W        W53965  10.321  35.954  14.742
82437W        W53966  28.529   5.968   0.473
82438W        W53967   5.125  27.704   4.541
82439W        W53968  29.703  42.102  11.476
82440W        W53969  26.382  33.346  10.668
82441W        W53970   0.305  18.971  13.997
82442W        W53971   4.489  17.227   3.283
82443W        W53972  39.235  36.967  13.827
82444W        W53973  39.194   7.262   3.227
82445W        W53974   8.437  31.047  11.154
82446W        W53975  41.783  43.666   4.601
82447W        W53976   6.377   2.653   2.171
82448W        W53977  25.473  33.416   0.512
82449W        W53978  27.717   7.848   4.189
82450W        W53979  43.297  26.072  12.663
82451W        W53980  42.809   4.134   2.704
82452W        W53981   1.637  16.656  12.552
82453W        W53982  43.765  23.761   1.414
82454W        W53983   4.452  32.265   1.336
82455W        W53984  10.828   4.151   3.233
82456W        W53985  18.877  21.608  14.350
82457W        W53986  28.839  15.142  10.347
82458W        W53987  19.202  32.175  11.520
82459W        W53988  31.534   9.616  11.618
82460W        W53989  35.975  43.918   4.592
82461W        W53990  24.427  38.865   4.139
82462W        W53991  36.556  37.813   1.231
82463W        W53992  34.898  24.007  10.727
82464W        W53993  28.364  24.443   1.738
82465W        W53994  15.631  37.805  12.188
82466W        W53995  15.180  41.270  12.586
82467W        W53996  43.957  37.718  14.312
82468W        W53997  28.945  25.535   2.881
82469W        W53998   3.299  21.924   0.016
82470W        W53999  29.861  31.954  12.485
82471W        W54000  36.186  38.348  13.606
82472W        W54001  24.984  21.613  11.090
82473W        W54002   0.684  35.615  11.882
82474W        W54003  33.770  22.459  13.353
82475W        W54004  41.358  27.929   4.100
82476W        W54005  20.083  13.619   4.641
82477W        W54006  10.968  15.207   3.244
82478W        W54007  35.534  20.547  13.261
82479W        W54008  35.127  29.090   3.697
82480W        W54009  25.753  34.338  13.933
82481W        W54010  19.917  24.542   1.930
82482W        W54011  16.220   4.437  11.719
82483W        W54012  30.623  14.056   3.333
82484W        W54013  29.683   9.939  14.911
82485W        W54014  21.673  23.959  13.915
82486W        W54015  26.914   6.252  12.351
82487W        W54016  23.018   8.084  14.877
82488W        W54017  23.104  41.835  11.341
82489W        W54018  36.422  20.237  12.212
82490W        W54019  39.299  28.500   2.757
82491W        W54020  16.784  22.625  12.458
82492W        W54021   7.686   9.172  14.361
82493W        W54022  22.507  19.854   0.340
82494W        W54023  31.234   1.001   4.551
82495W        W54024  26.503  40.630   0.586
82496W        W54025  23.127  26.175   3.858
82497W        W54026  15.862  38.424   1.254
82498W        W54027   4.122  26.872   2.678
82499W        W54028  40.593  43.977  13.420
82500W        W54029  24.716  29.854   3.259
82501W        W54030  43.923  20.526  11.701
82502W        W54031  16.923  33.886   1.504
82503W        W54032  18.807  24.161  12.467
82504W        W54033  38.894  13.730  13.059
82505W        W54034  26.980  11.009   0.447
82506W        W54035  43.221   7.376   0.863
82507W        W54036  27.965  11.650  11.296
82508W        W54037  10.726  13.118   0.406
82509W        W54038   8.383  28.928   2.599
82510W        W54039  21.212   0.317  14.093
82511W        W54040  43.691  40.380   1.226
82512W        W54041  27.944  39.655   2.318
82513W        W54042  25.242  14.465  14.376
82514W        W54043  16.736  31.051  14.575
82515W        W54044  17.990  12.216   1.952
82516W        W54045  36.346  13.647   2.246
82517W        W54046  29.041  27.019  11.667
82518W        W54047  18.060   4.266  11.207
82519W        W54048  25.686   5.261   1.301
82520W        W54049  21.533   4.767   3.268
82521W        W54050  16.288  42.781  12.294
82522W        W54051  41.313  43.472  13.106
82523W        W54052   0.970  24.056   3.335
82524W        W54053  12.712  28.704  14.067
82525W        W54054  10.732  12.196  10.544
82526W        W54055  21.177   8.779   5.097
82527W        W54056  13.120  38.075   0.483
82528W        W54057  14.526   2.399  14.455
82529W        W54058  13.123  40.474   0.708
82530W        W54059   7.717  25.624  12.003
82531W        W54060  19.446   6.715  12.053
82532W        W54061  26.912  22.756  10.356
82533W        W54062  43.787  24.082  12.395
82534W        W54063  28.897   5.784  12.049
82535W        W54064  11.865   3.805   4.048
82536W        W54065  25.388   5.762   3.963
82537W        W54066  15.732  34.332  12.783
82538W        W54067  36.807   7.843  13.489
82539W        W54068   4.852  22.214  14.663
82540W        W54069  37.041  43.271  12.418
82541W        W54070  30.400  11.858   1.334
82542W        W54071  36.761  26.629   3.354
82543W        W54072  32.501   6.218  12.493
82544W        W54073   6.260  39.102  13.868
82545W        W54074  13.231  24.306   2.791
82546W        W54075  32.030  26.939   0.441
82547W        W54076  24.962  18.596   1.993
82548W        W54077  31.864  26.208   1.363
82549W        W54078  37.015  31.453  12.521
82550W        W54079  35.677  30.100  11.478
82551W        W54080  31.034  20.974  11.540
82552W        W54081  22.654   4.899   1.804
82553W        W54082  42.533  33.985   3.348
82554W        W54083  37.080   0.936   0.102
82555W        W54084  34.415  17.447  11.692
82556W        W54085  22.202  35.216   2.308
82557W        W54086  15.565  16.619  12.487
82558W        W54087  41.791  13.718   1.926
82559W        W54088   2.715  25.443  11.571
82560W        W54089  21.811   4.632  14.437
82561W        W54090  28.593  22.774  12.051
82562W        W54091  28.152  33.442   3.744
82563W        W54092   3.192  15.811  11.158
82564W        W54093  19.753   5.040  12.940
82565W        W54094  37.772   4.387  11.156
82566W        W54095  16.605  37.073   1.838
82567W        W54096   9.790  10.717   3.406
82568W        W54097  12.832   7.189  13.343
82569W        W54098  10.794   4.412  13.024
82570W        W54099  38.329   1.845   1.437
82571W        W54100   1.287   8.156   1.381
82572W        W54101  34.895   8.390  10.468
82573W        W54102  41.687  22.081   0.027
82574W        W54103  22.314  23.824   1.505
82575W        W54104  39.375  37.317   3.189
82576W        W54105  10.729  31.231   0.520
82577W        W54106  35.929  41.233   1.706
82578W        W54107  15.640   4.117  13.769
82579W        W54108  24.519  31.180  14.914
82580W        W54109  39.288  34.129   4.212
82581W        W54110  44.008  37.416   3.177
82582W        W54111  23.155  31.910   0.930
82583W        W54112   6.706  27.793   1.136
82584W        W54113  11.447  42.025   3.373
82585W        W54114  20.004  17.209  11.391
82586W        W54115  29.879  28.472   0.752
82587W        W54116  40.509   4.650   1.176
82588W        W54117  29.525  42.416   1.214
82589W        W54118  25.971  16.041   0.375
82590W        W54119  18.971  24.056   4.482
82591W        W54120  44.502   8.752  11.596
82592W        W54121  34.982   2.990  13.556
82593W        W54122  27.668   5.367   0.368
82594W        W54123  32.431  34.232  14.994
82595W        W54124   5.024   7.640   4.647
82596W        W54125  26.271  36.516   1.723
82597W        W54126   6.203   9.056   4.800
82598W        W54127   3.424  26.738  12.590
82599W        W54128   7.895  40.039  11.039
82600W        W54129  36.879  10.112   1.804
82601W        W54130  42.037   0.413  10.936
82602W        W54131  22.038  37.554   1.494
82603W        W54132   6.375  24.332   4.089
82604W        W54133  26.802   1.835   1.149
82605W        W54134  34.950  35.074   0.754
82606W        W54135   2.064  14.700   0.462
82607W        W54136   4.256  31.411  14.429
82608W        W54137  20.189  31.883  11.528
82609W        W54138  34.007  18.263   0.863
82610W        W54139   4.800   4.512  13.036
82611W        W54140  42.968  22.505  12.109
82612W        W54141  35.725  27.758   4.168
82613W        W54142   8.337  25.453   4.210
82614W        W54143  22.097  15.776  10.902
82615W        W54144  17.200   1.996  13.583
82616W        W54145   9.729  23.094  12.875
82617W        W54146  29.575  33.297   0.429
82618W        W54147  29.449  42.918   1.767
82619W        W54148  35.130  22.637   1.397
82620W        W54149   1.229   5.263  10.423
82621W        W54150  23.956  30.127  13.059
82622W        W54151  37.649   5.690  13.120
82623W        W54152   4.433   8.862   2.127
82624W        W54153  30.753  23.659  11.247
82625W        W54154  19.236  39.250   0.261
82626W        W54155   3.178  27.652   0.327
82627W        W54156  28.569  36.844   1.205
82628W        W54157   6.774  22.625   0.636
82629W        W54158   5.790   5.841  14.790
82630W        W54159   6.790  43.881  11.707
82631W        W54160  30.647   2.808  13.939
82632W        W54161   2.295  35.148  10.700
82633W        W54162  35.394  30.549   4.714
82634W        W54163  34.780  18.603   3.277
82635W        W54164  24.569  44.443   0.125
82636W        W54165  15.827   5.144  11.499
82637W        W54166   0.813  35.154  11.665
82638W        W54167  32.211  33.373   0.780
82639W        W54168  44.870   2.268  11.947
82640W        W54169  17.041  34.139  11.049
82641W        W54170  28.729  32.491  11.123
82642W        W54171  35.696   6.075  14.222
82643W        W54172  33.257  40.375   0.611
82644W        W54173  33.170  43.248   0.570
82645W        W54174  13.215  28.920  14.451
82646W        W54175  19.071  38.895   1.429
82647W        W54176   4.131  40.389   0.646
82648W        W54177  12.627   8.091   3.287
82649W        W54178  43.645   3.566   2.759
82650W        W54179  32.912  13.532   3.164
82651W        W54180  11.703  38.428   4.697
82652W        W54181  19.621   7.883  12.821
82653W        W54182  12.329  28.671  14.844
82654W        W54183  28.885  11.156  13.443
82655W        W54184   5.474  13.341   3.433
82656W        W54185  20.702   1.698   4.737
82657W        W54186   3.205   2.521   1.763
82658W        W54187   3.192  36.341  12.479
82659W        W54188  25.942  40.905   2.267
82660W        W54189  43.038  36.175  10.816
82661W        W54190  36.456  12.834  13.511
82662W        W54191  41.126  18.794   2.337
82663W        W54192   7.826  36.638  11.869
82664W        W54193  24.254   4.494  11.112
82665W        W54194  26.110  14.540  12.065
82666W        W54195   3.436   4.175   0.416
82667W        W54196  28.684   1.236  13.079
82668W        W54197  12.189  40.318   4.355
82669W        W54198   4.694  19.446   0.416
82670W        W54199  20.278   5.863   1.012
82671W        W54200   3.942  40.821  14.471
82672W        W54201   6.521  37.276  11.122
82673W        W54202  14.191   9.827  10.742
82674W        W54203  32.421  42.942   0.434
82675W        W54204  22.918  18.955   2.856
82676W        W54205  19.344   0.919   2.215
82677W        W54206  10.776  17.689  11.671
82678W        W54207  10.755  42.533   1.833
82679W        W54208   7.491  44.411  14.830
82680W        W54209   7.676   9.335   0.360
82681W        W54210  11.571  15.176   2.207
82682W        W54211   7.142  37.343   4.224
82683W        W54212   0.898  24.593  14.438
82684W        W54213  31.922  22.315   0.900
82685W        W54214   7.940   1.542   1.013
82686W        W54215   0.825  26.004   4.763
82687W        W54216  34.575  12.642   2.598
82688W        W54217  43.969  25.429   3.121
82689W        W54218  35.612   1.985  14.343
82690W        W54219   8.349  36.942   2.849
82691W        W54220  31.401  36.692  11.516
82692W        W54221  18.807   3.232   2.732
82693W        W54222  19.797  12.204  11.805
82694W        W54223  36.535   7.529   0.297
82695W        W54224  39.434  22.184  13.599
82696W        W54225   2.443  44.244  11.036
82697W        W54226  38.006   5.126  11.633
82698W        W54227   2.044  15.385  13.298
82699W        W54228  18.400  24.255   3.609
82700W        W54229  19.584  13.832  10.814
82701W        W54230  39.039  15.270  11.242
82702W        W54231   0.530  34.825  14.416
82703W        W54232  33.641   6.357   2.378
82704W        W54233  12.756  10.687  11.704
82705W        W54234  39.804   0.391   2.699
82706W        W54235  44.567  18.792  11.036
82707W        W54236  13.771  15.249   4.536
82708W        W54237  23.226  11.985   0.885
82709W        W54238  38.639  34.673  12.405
82710W        W54239  29.783   3.258  12.481
82711W        W54240  22.007  23.664  14.760
82712W        W54241  37.078  43.990  12.052
82713W        W54242  43.801  41.660  13.081
82714W        W54243  40.123  11.795  14.027
82715W        W54244   2.319  20.596   4.376
82716W        W54245  15.270  13.655  12.828
82717W        W54246  21.169  21.129   0.625
82718W        W54247  17.328  16.057   3.667
82719W        W54248  29.653  42.871   3.035
82720W        W54249   0.658  27.671  11.232
82721W        W54250  22.150  28.902  14.424
82722W        W54251  11.160  25.786  12.118
82723W        W54252  43.444  29.052  14.437
82724W        W54253  24.439  29.419   0.783
82725W        W54254  13.160  25.574   0.808
82726W        W54255  33.480  38.419   2.301
82727W        W54256  13.105  39.514  11.638
82728W        W54257  37.293  33.943   1.116
82729W        W54258   6.803  28.991   3.792
82730W        W54259   4.666  18.561  12.694
82731W        W54260   3.178  19.567   4.534
82732W        W54261  23.058  20.517  10.670
82733W        W54262   4.372  22.530  11.223
82734W        W54263  26.801  28.620   3.713
82735W        W54264  42.304   8.660  12.708
82736W        W54265   3.582  29.186  11.710
82737W        W54266  30.162  12.133   5.135
82738W        W54267  16.823  12.284  14.816
82739W        W54268  31.085  12.318   0.880
82740W        W54269  39.373  21.688   3.789
82741W        W54270  44.926   0.336   3.611
82742W        W54271  12.994   0.876  11.611
82743W        W54272  37.430  44.672  13.858
82744W        W54273   1.351  11.290   0.226
82745W        W54274  30.097  36.192   2.352
82746W        W54275  14.302   0.366   3.796
82747W        W54276  17.890  38.752   4.617
82748W        W54277   4.246  19.805  13.961
82749W        W54278  38.467  32.933   0.277
82750W        W54279   7.939  33.804   2.737
82751W        W54280  37.881  25.727  10.607
82752W        W54281  24.444  42.791   0.564
82753W        W54282  39.122  33.558   2.453
82754W        W54283  17.223  34.890   0.438
82755W        W54284   2.369  40.049  11.124
82756W        W54285  35.910  12.746   0.338
82757W        W54286  23.528  26.205   0.752
82758W        W54287   4.681   7.381  14.386
82759W        W54288  22.210  16.848  11.781
82760W        W54289  30.383  29.924  14.948
82761W        W54290  27.993   1.764   3.284
82762W        W54291  13.358  29.574   3.605
82763W        W54292  14.395  44.400  13.077
82764W        W54293  13.795  18.696   4.312
82765W        W54294  40.096  12.518   0.429
82766W        W54295   0.223  28.451   0.954
82767W        W54296  39.091   3.884  11.970
82768W        W54297  12.887  44.356   3.927
82769W        W54298  24.366  16.242   4.666
82770W        W54299   8.450  10.724   4.030
82771W        W54300  24.147  34.648   4.142
82772W        W54301  15.565  20.150   0.219
82773W        W54302   9.073  39.073  11.158
82774W        W54303  44.213  18.684  13.427
82775W        W54304  26.035  31.082   1.156
82776W        W54305  28.140  42.056  11.240
82777W        W54306  28.533  27.631  11.144
82778W        W54307  36.466  37.664  12.558
82779W        W54308  18.598  30.652   3.680
82780W        W54309   7.181  15.565  12.917
82781W        W54310   2.443  24.413  11.432
82782W        W54311   6.854   4.412  14.267
82783W        W54312   8.174  42.529  11.529
82784W        W54313  23.154  42.021  14.387
82785W        W54314  29.510   7.312  12.990
82786W        W54315  24.750  36.400  14.839
82787W        W54316  33.272   2.934   1.357
82788W        W54317  15.011  38.791   0.476
82789W        W54318  36.022   3.285   2.674
82790W        W54319  20.808  31.691  11.467
82791W        W54320  43.015   2.413  13.019
82792W        W54321  17.153   5.704  10.748
82793W        W54322  44.272  19.768  13.964
82794W        W54323  42.955  33.539   0.509
82795W        W54324  22.144  13.800  12.862
82796W        W54325   4.711  18.734  13.719
82797W        W54326   7.450  42.931  14.721
82798W        W54327  11.411   6.822  13.606
82799W        W54328  38.075   0.835  11.079
82800W        W54329  33.077  42.207   2.703
82801W        W54330  10.718  24.374   1.830
82802W        W54331  10.476  11.190  11.949
82803W        W54332   3.867  17.573  11.911
82804W        W54333  31.834  16.497   1.036
82805W        W54334   9.731  12.656   4.346
82806W        W54335  14.814  28.011   1.297
82807W        W54336  44.539   6.011  11.866
82808W        W54337  44.185  18.150   2.283
82809W        W54338   4.963  10.243  12.902
82810W        W54339  21.492  20.736  14.955
82811W        W54340  11.428  19.916  13.964
82812W        W54341  38.655  19.639  13.766
82813W        W54342  31.349   9.834  11.197
82814W        W54343  41.957  40.878  14.229
82815W        W54344  27.413   5.792   3.122
82816W        W54345   9.456  12.343  14.908
82817W        W54346  43.804  43.818   1.117
82818W        W54347  15.345  28.683  11.432
82819W        W54348  31.347   3.306  14.317
82820W        W54349  19.426   5.512   3.182
82821W        W54350  11.890  32.137  10.561
82822W        W54351  32.853  35.677  12.119
82823W        W54352   9.687  12.292  12.946
82824W        W54353  13.249  40.474  10.207
82825W        W54354  44.783   6.597   4.289
82826W        W54355   1.326   2.921   2.644
82827W        W54356  21.632   3.062   3.716
82828W        W54357   8.954  16.812  13.435
82829W        W54358   3.337  14.855   0.883
82830W        W54359   4.209  29.747  11.664
82831W        W54360  18.020  42.691   1.448
82832W        W54361   9.691  21.039   4.513
82833W        W54362  11.257  43.602  13.074
82834W        W54363  41.523  13.903  12.403
82835W        W54364  32.824  12.665   4.477
82836W        W54365  35.027  17.841  12.551
82837W        W54366  20.120  17.637   0.833
82838W        W54367   8.041  31.728  13.327
82839W        W54368  15.319   5.125  10.806
82840W        W54369   3.233  39.913   1.473
82841W        W54370  10.707  40.130   3.838
82842W        W54371   8.046  19.714   5.054
82843W        W54372  16.179  42.429  14.453
82844W        W54373  37.548  14.836  13.377
82845W        W54374  18.724  44.464   4.602
82846W        W54375   8.928  14.325  14.065
82847W        W54376   2.393  33.930  11.334
82848W        W54377   5.955  32.956   4.231
82849W        W54378   5.272  15.231   3.638
82850W        W54379   4.012  41.019   0.872
82851W        W54380  20.806  10.671  12.017
82852W        W54381   4.923   8.570  13.458
82853W        W54382  11.120  18.112   2.421
82854W        W54383  33.581  16.586   3.608
82855W        W54384  19.959  27.947  13.099
82856W        W54385  32.191  14.341  12.080
82857W        W54386  21.043  43.674   3.697
82858W        W54387  18.830  31.414  12.082
82859W        W54388  39.021  29.691   1.811
82860W        W54389  13.906   6.882  11.273
82861W        W54390  31.400  40.826   1.701
82862W        W54391   7.008   2.432   1.344
82863W        W54392  22.031   0.421   4.654
82864W        W54393  39.014   9.283   0.050
82865W        W54394  42.592  22.698   1.787
82866W        W54395  43.895  27.742   1.686
82867W        W54396  40.905  32.920   0.811
82868W        W54397  29.623  23.455  14.332
82869W        W54398  32.169  22.960   3.802
82870W        W54399  15.868  35.053   5.114
82871W        W54400  26.989   4.379  11.492
82872W        W54401  37.067  20.539  12.496
82873W        W54402  35.984  14.240  14.404
82874W        W54403  33.571  33.408   0.420
82875W        W54404  27.167   4.256   2.653
82876W        W54405  10.742  31.083   2.831
82877W        W54406   6.106  20.496  10.946
82878W        W54407  25.480  18.942   0.844
82879W        W54408  18.194  10.257   0.215
82880W        W54409  36.147  28.139   1.282
82881W        W54410  40.470  25.089  10.375
82882W        W54411  39.616   0.504  12.991
82883W        W54412  14.120  41.711  13.436
82884W        W54413  27.066   6.546  13.382
82885W        W54414  10.130  14.241  11.967
82886W        W54415  25.254   6.221  13.358
82887W        W54416  42.327   0.977  11.586
82888W        W54417   2.044  38.066  14.004
82889W        W54418  32.133  33.661  12.885
82890W        W54419  15.569  38.206   3.691
82891W        W54420  10.073   2.277  13.542
82892W        W54421  43.084  15.073  12.005
82893W        W54422  21.095  42.500  14.437
82894W        W54423  29.960  38.087   4.529
82895W        W54424  42.991   6.259   4.172
82896W        W54425  40.576   3.131   3.748
82897W        W54426   6.122  33.885   1.695
82898W        W54427  13.350   6.124   2.770
82899W        W54428  42.758  33.110   2.207
82900W        W54429  17.939  26.957   5.069
82901W        W54430  34.745  12.181   4.268
82902W        W54431  20.509  40.991   0.177
82903W        W54432  42.666  17.480   3.037
82904W        W54433   8.937  37.354  13.509
82905W        W54434   0.700  12.880  13.506
82906W        W54435  25.282  38.468   1.048
82907W        W54436  21.755  41.761  10.773
82908W        W54437  38.833  37.408   2.326
82909W        W54438  16.253   6.258   4.925
82910W        W54439  36.530  13.657  12.004
82911W        W54440  27.976  15.844  12.552
82912W        W54441  17.860  38.890  10.627
82913W        W54442  15.381  44.982   2.037
82914W        W54443  38.744  25.527  12.010
82915W        W54444  33.279  41.741   3.375
82916W        W54445   1.399  19.296   2.652
82917W        W54446   3.141  40.031  12.896
82918W        W54447  23.954   2.226  12.943
82919W        W54448   5.905  29.532   4.920
82920W        W54449  21.498  24.931  11.255
82921W        W54450   9.356  10.422   0.017
82922W        W54451  27.230  40.274   1.309
82923W        W54452  31.466  31.467  14.419
82924W        W54453  17.061  32.976   3.225
82925W        W54454  34.840  31.996  12.566
82926W        W54455  32.636   5.873   3.298
82927W        W54456  28.982  19.911  13.286
82928W        W54457  12.635   9.870   3.810
82929W        W54458   3.317  22.370  11.496
82930W        W54459  26.761   0.537   4.136
82931W        W54460   4.740  36.167   9.642
82932W        W54461   9.526  26.262   2.184
82933W        W54462  10.263  12.177  14.425
82934W        W54463  40.989   4.334  12.154
82935W        W54464  44.997  12.575  10.541
82936W        W54465  31.456  11.160   1.649
82937W        W54466  26.629  22.920   1.113
82938W        W54467  16.704  23.382  11.089
82939W        W54468  17.415  33.782  11.118
82940W        W54469   9.675  42.028  13.447
82941W        W54470  20.761  26.149   1.433
82942W        W54471  27.627  23.191   1.395
82943W        W54472  42.049  38.381   0.196
82944W        W54473   3.405  44.278   3.099
82945W        W54474   4.710  22.599   5.135
82946W        W54475  34.848  15.801  11.326
82947W        W54476  42.557  36.562  14.483
82948W        W54477  31.427  26.996   3.155
82949W        W54478  22.429  30.049  10.695
82950W        W54479   2.512  33.891  12.589
82951W        W54480  31.921  19.927   5.233
82952W        W54481   7.583  30.662   3.520
82953W        W54482   4.699  13.786   0.412
82954W        W54483  31.898  41.772   1.981
82955W        W54484  10.464  34.055  13.733
82956W        W54485   8.934  18.555  11.483
82957W        W54486  28.152   9.123   3.853
82958W        W54487   2.919  11.092  13.574
82959W        W54488  12.899  11.710  11.160
82960W        W54489  40.635  40.434  14.574
82961W        W54490  29.586   8.285  10.505
82962W        W54491   9.637  10.818  14.854
82963W        W54492  41.023  30.987  11.150
82964W        W54493  38.898  44.744   4.121
82965W        W54494  17.086  23.680   3.382
82966W        W54495  27.674   1.110  13.980
82967W        W54496  19.600  15.448  12.338
82968W        W54497  11.599   1.914   0.222
82969W        W54498  39.000  43.139  11.470
82970W        W54499  40.417  43.891   3.833
82971W        W54500  23.234  11.895   3.650
82972W        W54501   8.634  43.153   3.250
82973W        W54502   3.697  10.724   4.203
82974W        W54503  15.228   9.596  14.483
82975W        W54504  30.353  14.217   1.240
82976W        W54505  14.078  26.394   3.764
82977W        W54506  40.219  28.864   0.751
82978W        W54507  21.700  12.514   3.295
82979W        W54508  22.230   3.355   0.679
82980W        W54509   8.378  28.688  12.949
82981W        W54510  33.305  39.757  14.859
82982W        W54511   8.065  33.094   1.998
82983W        W54512  16.629  15.325  10.563
82984W        W54513   8.310  13.800  14.908
82985W        W54514  10.056  23.015   1.733
82986W        W54515   8.359   0.496   4.143
82987W        W54516  29.982  32.095  10.806
82988W        W54517  10.179  36.991  10.725
82989W        W54518  30.504  24.628   3.132
82990W        W54519   2.854  39.101  12.504
82991W        W54520  39.957  42.266  13.029
82992W        W54521  37.848  36.475   4.189
82993W        W54522  29.119  23.252   1.270
82994W        W54523  39.486  33.510  14.517
82995W        W54524  17.295  10.357  12.802
82996W        W54525  33.479   8.721  12.995
82997W        W54526  12.608  42.219   1.486
82998W        W54527   8.157  13.920  11.922
82999W        W54528  44.242  27.661  12.511
83000W        W54529  11.183  15.607  12.377
83001W        W54530  18.381  37.276   2.345
83002W        W54531  14.100  37.322   1.284
83003W        W54532  39.689   0.467   0.232
83004W        W54533  28.037  10.465   2.741
83005W        W54534  23.573  12.376   0.758
83006W        W54535   3.784  18.581  13.812
83007W        W54536   8.654  20.815  14.373
83008W        W54537  43.030  34.106   4.134
83009W        W54538  42.644  16.668   2.060
83010W        W54539   1.495  18.210   2.278
83011W        W54540   4.054  43.232   1.330
83012W        W54541   0.403   7.794  12.108
83013W        W54542   4.318  41.304  11.854
83014W        W54543  24.525  34.841   3.234
83015W        W54544  41.922  18.033  13.166
83016W        W54545  25.914   3.224  14.324
83017W        W54546   3.852   4.459  14.426
83018W        W54547  29.324   2.194   1.193
83019W        W54548   5.834  15.541   1.219
83020W        W54549  33.919  12.811  10.643
83021W        W54550   8.198   6.416   1.982
83022W        W54551  11.099  41.333   2.798
83023W        W54552  21.368  43.504  11.101
83024W        W54553  31.382  11.173  14.316
83025W        W54554   0.677  43.347   0.240
83026W        W54555   8.209   3.326   2.998
83027W        W54556  29.192  33.487   0.710
83028W        W54557  32.006  21.505   0.309
83029W        W54558   8.643  30.118   2.312
83030W        W54559   7.361  12.981  11.200
83031W        W54560  24.901  23.123   3.097
83032W        W54561  14.683  41.300  14.321
83033W        W54562  26.905  36.138  11.528
83034W        W54563   0.247  27.865  11.621
83035W        W54564  13.766  35.776   0.195
83036W        W54565   5.158  20.556  14.709
83037W        W54566  38.371  26.415  13.896
83038W        W54567  42.642  32.105  14.368
83039W        W54568  28.454  26.418   3.718
83040W        W54569  14.667  12.092  14.350
83041W        W54570   2.019  39.907   4.711
83042W        W54571  26.074   0.167  13.955
83043W        W54572  20.697  36.125  11.722
83044W        W54573   2.646  23.358   4.081
83045W        W54574  18.939  39.059   2.441
83046W        W54575  21.222  15.065  14.450
83047W        W54576  43.017  10.342  14.800
83048W        W54577  19.214  39.784   4.063
83049W        W54578  32.894   1.769  12.402
83050W        W54579  26.567   4.269  14.202
83051W        W54580  18.065  40.377  14.421
83052W        W54581  13.583  12.760  12.997
83053W        W54582  42.403  16.096   2.400
83054W        W54583  36.019  38.063  14.458
83055W        W54584  28.051  23.338  12.976
83056W        W54585  20.096  22.411  13.350
83057W        W54586   1.344  35.310   2.302
83058W        W54587  34.599  10.212  12.550
83059W        W54588  24.742  15.605  14.808
83060W        W54589  14.427  31.863  11.150
83061W        W54590  33.975  26.027  12.945
83062W        W54591   2.161  21.178   4.278
83063W        W54592  18.757   7.795   0.805
83064W        W54593  36.437  11.238  10.664
83065W        W54594  14.331  19.646  13.962
83066W        W54595  14.927  34.961  11.217
83067W        W54596  39.745  37.396  12.179
83068W        W54597   5.483  23.039   2.256
83069W        W54598   8.226   4.009  10.694
83070W        W54599  12.888  34.538  14.386
83071W        W54600  14.858  42.814   0.770
83072W        W54601  26.670  38.154  11.190
83073W        W54602  21.487   4.512   2.257
83074W        W54603  38.994  33.461   4.610
83075W        W54604  28.195  43.266  12.962
83076W        W54605  30.008  42.810   4.218
83077W        W54606  41.381  18.015   2.902
83078W        W54607  24.587  22.500  11.677
83079W        W54608  26.842  11.424   1.748
83080W        W54609  40.160  20.817  10.976
83081W        W54610  34.632   8.282  11.813
83082W        W54611  24.741  19.133   3.768
83083W        W54612  25.280  40.261   4.686
83084W        W54613  34.165  23.516   4.363
83085W        W54614   2.265  22.100   2.719
83086W        W54615  37.801  42.890  13.137
83087W        W54616  21.970  34.847  13.888
83088W        W54617   8.916  37.651   3.907
83089W        W54618  35.107  33.094   3.821
83090W        W54619   0.515  26.226   3.249
83091W        W54620  10.128  13.100  11.999
83092W        W54621  11.178  16.689   0.905
83093W        W54622   8.759  41.560   4.684
83094W        W54623  15.650  32.375   0.963
83095W        W54624  36.558   6.955  13.324
83096W        W54625   3.464  40.399   3.852
83097W        W54626  40.989  28.948  13.944
83098W        W54627  14.847  38.631   4.095
83099W        W54628  11.379   3.383  14.125
83100W        W54629  16.371  27.012   2.873
83101W        W54630  26.981   9.713  12.189
83102W        W54631   4.481  41.338  14.009
83103W        W54632  13.866  29.654   3.672
83104W        W54633  18.691  33.073  10.651
83105W        W54634  11.321  40.040   0.892
83106W        W54635  39.725   8.247  10.565
83107W        W54636  27.407   9.151   0.882
83108W        W54637   6.729  24.984  12.930
83109W        W54638  33.390  16.557  11.977
83110W        W54639  36.366  38.352   3.071
83111W        W54640  21.789  14.599   4.414
83112W        W54641  23.294  10.420  11.383
83113W        W54642  15.788  44.209   4.035
83114W        W54643  16.907  43.590   2.892
83115W        W54644   7.739  18.474  12.483
83116W        W54645  43.046  25.555   3.198
83117W        W54646  30.069  36.370  12.976
83118W        W54647  28.632  13.309  12.402
83119W        W54648   4.243  24.263  11.658
83120W        W54649  35.668   3.722   3.402
83121W        W54650   2.491  29.278  12.839
83122W        W54651  36.395  31.122  14.221
83123W        W54652  15.744   6.319  12.455
83124W        W54653   2.319  16.638  10.479
83125W        W54654  35.563  31.376   2.379
83126W        W54655  22.981  31.726   9.874
83127W        W54656  36.456  44.671  11.211
83128W        W54657  12.670  37.595  12.073
83129W        W54658  23.623  19.767   4.101
83130W        W54659   8.665  41.358  13.014
83131W        W54660  19.543  25.529  12.600
83132W        W54661  28.687   2.920  11.230
83133W        W54662  12.906  20.997  14.487
83134W        W54663  22.320  36.689   1.280
83135W        W54664  25.391  37.544   0.103
83136W        W54665   2.619  20.328  12.870
83137W        W54666  11.341   5.364  12.387
83138W        W54667  42.280  39.910   0.782
83139W        W54668  26.750  21.576  12.476
83140W        W54669  12.605  14.744  12.049
83141W        W54670  43.596  39.626  14.877
83142W        W54671  29.898  12.709   1.819
83143W        W54672  37.141  31.012  10.668
83144W        W54673  10.780  28.023   1.715
83145W        W54674   0.389  17.674  13.086
83146W        W54675  22.613  15.960  14.542
83147W        W54676   6.548  11.505   4.106
83148W        W54677   4.795   5.947   0.302
83149W        W54678  12.751  37.807  14.903
83150W        W54679  41.371  18.699  13.581
83151W        W54680  24.501  27.060  10.406
83152W        W54681  40.438  32.358   4.806
83153W        W54682  42.483  43.200  10.047
83154W        W54683  32.143   9.684  13.613
83155W        W54684  18.190  15.886  11.255
83156W        W54685   5.312  12.666   0.767
83157W        W54686  41.954  18.717   4.532
83158W        W54687   0.558   4.307  11.889
83159W        W54688   6.904  42.041   0.424
83160W        W54689  17.262   7.945   2.757
83161W        W54690  28.659   5.219   3.147
83162W        W54691   9.808  30.986  11.952
83163W        W54692  10.292  42.852  14.503
83164W        W54693  36.136  25.211   0.625
83165W        W54694  32.248  14.043  14.481
83166W        W54695  13.958  10.107  13.339
83167W        W54696  36.505   6.838  11.120
83168W        W54697  12.366  13.805  12.053
83169W        W54698   2.771  44.990   4.410
83170W        W54699  35.401   9.750   1.708
83171W        W54700   1.295  19.580   1.337
83172W        W54701  28.839  25.446  11.619
83173W        W54702  29.034   7.615  11.079
83174W        W54703   0.067   1.093  12.150
83175W        W54704  34.553  19.694  14.419
83176W        W54705  20.604   5.683   3.571
83177W        W54706  14.680  43.372  14.338
83178W        W54707  19.091   0.259  13.555
83179W        W54708   9.630  31.106  11.494
83180W        W54709  41.996  33.819  13.584
83181W        W54710  21.982  44.946  14.844
83182W        W54711  41.421   5.593   3.235
83183W        W54712  37.106   1.277   3.687
83184W        W54713  22.223  21.590   0.589
83185W        W54714  35.486   3.906  14.303
83186W        W54715  40.368  13.773   4.014
83187W        W54716  17.453  40.717   4.318
83188W        W54717  37.971  24.433  13.813
83189W        W54718  14.487   6.393   0.416
83190W        W54719  32.386  42.686   4.841
83191W        W54720  16.120  26.117   2.966
83192W        W54721  36.532   4.406   4.257
83193W        W54722  34.065   5.274   0.728
83194W        W54723  31.837  37.267  13.143
83195W        W54724  24.585  29.150   2.894
83196W        W54725  28.406   8.124  13.120
83197W        W54726  10.730  26.899   3.648
83198W        W54727  26.545   9.696   0.770
83199W        W54728  16.013  26.628   3.096
83200W        W54729   5.944   5.833  12.149
83201W        W54730  14.783  42.559   1.747
83202W        W54731  15.743  11.356   2.379
83203W        W54732  29.920  43.660   0.254
83204W        W54733  36.699  29.430  12.461
83205W        W54734  12.708  28.550   3.738
83206W        W54735  28.867  16.612  13.217
83207W        W54736  19.813  13.757   1.499
83208W        W54737  23.456  28.376   3.157
83209W        W54738  40.484   1.261  11.197
83210W        W54739  38.114  28.744  13.298
83211W        W54740  36.374  31.186   4.099
83212W        W54741  12.417   8.643  14.962
83213W        W54742  41.496  39.934  13.400
83214W        W54743  18.943  20.203  11.551
83215W        W54744  42.996  44.450   4.512
83216W        W54745  21.974  23.154   0.410
83217W        W54746  24.159  36.695  13.936
83218W        W54747  37.477  30.117  14.091
83219W        W54748   9.887  43.928   3.128
83220W        W54749   8.605   5.699  10.696
83221W        W54750  15.763  22.180  11.091
83222W        W54751  32.913  39.584   3.429
83223W        W54752  14.688  16.709  10.451
83224W        W54753  17.577  12.872   3.820
83225W        W54754  16.885   8.392   0.269
83226W        W54755  19.107  30.576   3.625
83227W        W54756   6.173  13.070   2.812
83228W        W54757  19.982  14.806  10.817
83229W        W54758  31.537  24.236   1.767
83230W        W54759   1.334  17.334  13.893
83231W        W54760  13.254   2.966  14.196
83232W        W54761  40.438  22.972   1.234
83233W        W54762  36.561  20.576  12.559
83234W        W54763  24.064  28.095   4.642
83235W        W54764  34.159  20.990  12.798
83236W        W54765  40.062   3.371   5.154
83237W        W54766  10.085   7.327   2.960
83238W        W54767  10.201  20.282  14.440
83239W        W54768  42.290  17.660  11.996
83240W        W54769   1.797  17.192   0.526
83241W        W54770   3.643  44.253  13.358
83242W        W54771  37.808  30.531  13.987
83243W        W54772  16.873   8.654   4.078
83244W        W54773  30.119  40.445   0.214
83245W        W54774  13.044   9.384   3.290
83246W        W54775  30.581  33.940   2.622
83247W        W54776  27.299  23.467   1.124
83248W        W54777   8.425   0.192   3.253
83249W        W54778  33.570  19.637  14.615
83250W        W54779  15.743  12.358   1.017
83251W        W54780  43.462   9.688  12.552
83252W        W54781   4.749  40.847   1.741
83253W        W54782  12.807  15.237  13.021
83254W        W54783  32.143  42.997   3.620
83255W        W54784  12.722  29.009   0.585
83256W        W54785   8.682  22.527   1.000
83257W        W54786   6.868  41.980  12.394
83258W        W54787  20.524   1.659  13.895
83259W        W54788   9.609   2.400   1.829
83260W        W54789  19.822  31.083   3.938
83261W        W54790  32.910  15.199  10.388
83262W        W54791  23.496  10.763  10.985
83263W        W54792  17.209   2.034  11.218
83264W        W54793  23.285   9.792  12.130
83265W        W54794  27.204  38.012   2.871
83266W        W54795  15.132   5.943  12.855
83267W        W54796  22.633  27.557   0.214
83268W        W54797  31.018  21.817  12.414
83269W        W54798  44.550  28.655   3.341
83270W        W54799   8.276  41.799   0.342
83271W        W54800   1.463  11.791   2.444
83272W        W54801   1.906  19.767  11.137
83273W        W54802  26.758  33.135   0.774
83274W        W54803  24.955  12.366   1.332
83275W        W54804   6.172  43.859   4.752
83276W        W54805  33.820  13.063   0.555
83277W        W54806  28.593  13.077  12.847
83278W        W54807  23.915  12.740  14.865
83279W        W54808  44.501  18.630  12.973
83280W        W54809  33.353  43.998   0.293
83281W        W54810  20.314   5.980  10.356
83282W        W54811  18.833  18.255   4.394
83283W        W54812  11.068  23.576  14.267
83284W        W54813  17.630  28.469   0.292
83285W        W54814  44.247   2.102  10.114
83286W        W54815  31.334   2.265  11.645
83287W        W54816  32.875  42.009   0.348
83288W        W54817  36.930  21.275   4.059
83289W        W54818  15.679   4.988   4.253
83290W        W54819  32.796  27.475  10.594
83291W        W54820   8.451  16.496  12.410
83292W        W54821  22.632  12.026   1.251
83293W        W54822  18.721  15.793  12.096
83294W        W54823  21.512  43.766   0.691
83295W        W54824   9.121   0.231  11.473
83296W        W54825  35.732  16.214   1.707
83297W        W54826  13.774  29.418   4.472
83298W        W54827  30.633  35.162   0.041
83299W        W54828   9.364  22.652  14.933
83300W        W54829  20.200  34.739  10.108
83301W        W54830  43.837   5.937   4.160
83302W        W54831  10.252  23.577  11.063
83303W        W54832  37.526   7.735   1.651
83304W        W54833  40.784   1.877  14.710
83305W        W54834  25.223   7.468  12.006
83306W        W54835  32.133  28.637  14.295
83307W        W54836  17.275  29.529   4.104
83308W        W54837  24.104  37.532   3.698
83309W        W54838  38.291  40.144  12.141
83310W        W54839  21.011  18.099   0.984
83311W        W54840  38.963  29.154  14.961
83312W        W54841   0.369  33.855   1.563
83313W        W54842  21.681  17.308  13.544
83314W        W54843  16.696  18.843   2.184
83315W        W54844  40.809  31.671   0.496
83316W        W54845  12.566  24.581   1.406
83317W        W54846  34.917  10.412   3.175
83318W        W54847  25.649  21.729  13.544
83319W        W54848  37.929   4.037  12.426
83320W        W54849   9.153   2.111   4.356
83321W        W54850  27.068  11.074   3.328
83322W        W54851   7.900   4.498  14.155
83323W        W54852  28.527  29.884   2.809
83324W        W54853  44.307  31.068  14.256
83325W        W54854  32.563  36.484  13.986
83326W        W54855   4.236  20.958   1.889
83327W        W54856  31.177  12.877   2.729
83328W        W54857  14.396  32.515  11.640
83329W        W54858  32.460  38.550  11.451
83330W        W54859  12.311  29.447  12.971
83331W        W54860  36.456  18.583   4.390
83332W        W54861  28.691  35.449  10.831
83333W        W54862  30.089  11.378  14.744
83334W        W54863  34.918  38.330  14.900
83335W        W54864  31.151  14.203   2.440
83336W        W54865  41.513  33.469   0.704
83337W        W54866   8.629  44.229   3.698
83338W        W54867  43.505  19.853   2.866
83339W        W54868  22.833  19.637  14.964
83340W        W54869   3.641   8.902   0.981
83341W        W54870  32.083   2.078   1.297
83342W        W54871  42.634  41.363  12.394
83343W        W54872  20.703  27.625   2.448
83344W        W54873  16.169  39.047   0.498
83345W        W54874  42.594  17.621   0.670
83346W        W54875  42.899  41.611  11.184
83347W        W54876  25.926  35.956  11.939
83348W        W54877  27.515  38.229   3.771
83349W        W54878  15.619   9.892  13.764
83350W        W54879  34.626  31.530  13.464
83351W        W54880   8.875  34.386  14.223
83352W        W54881  23.439  17.861   3.656
83353W        W54882  36.043  38.781  11.963
83354W        W54883  34.812  16.319   2.196
83355W        W54884   9.934  14.690  12.932
83356W        W54885  42.258  16.201  14.043
83357W        W54886   6.664   3.202   2.749
83358W        W54887   3.778  17.805   2.660
83359W        W54888  32.893  33.482   3.721
83360W        W54889  40.317  22.625  12.471
83361W        W54890  37.832   5.732   2.146
83362W        W54891  35.448   9.364  12.164
83363W        W54892  33.682  25.085   4.087
83364W        W54893   7.346   1.453   1.576
83365W        W54894   3.200  15.884   4.103
83366W        W54895   9.002   3.154  12.022
83367W        W54896  43.388   3.687  11.590
83368W        W54897   2.757  16.636   4.508
83369W        W54898  14.123  26.012   4.793
83370W        W54899  13.499  40.890  12.018
83371W        W54900   8.070  15.891   2.368
83372W        W54901  43.312  31.043  12.217
83373W        W54902  36.018  29.043   2.615
83374W        W54903  19.180  19.220  10.263
83375W        W54904   2.983  28.065  12.932
83376W        W54905  13.605  42.250  13.965
83377W        W54906  28.949   5.131  11.259
83378W        W54907  24.102  21.481   4.854
83379W        W54908  20.081  42.018   1.399
83380W        W54909  44.699  33.063  10.804
83381W        W54910  31.112  29.660  12.981
83382W        W54911   7.723  13.099  13.936
83383W        W54912  34.783  10.719   0.433
83384W        W54913   7.628  44.560   2.796
83385W        W54914  36.534  22.268   2.333
83386W        W54915   8.040  15.562  13.956
83387W        W54916  10.162  11.857   4.087
83388W        W54917   5.041  36.756  14.992
83389W        W54918  26.407  40.874   2.630
83390W        W54919  18.260   5.209   1.418
83391W        W54920  20.599   7.176   3.730
83392W        W54921   8.570  41.797  13.419
83393W        W54922  41.081  11.761   2.813
83394W        W54923  40.335  12.944   0.954
83395W        W54924   0.006  18.597  12.844
83396W        W54925  33.041  22.075   3.253
83397W        W54926  44.012  15.789   4.720
83398W        W54927   1.386  35.263   4.481
83399W        W54928  15.429   2.779   4.965
83400W        W54929   1.195  29.617   0.661
83401W        W54930   2.800  35.099  14.146
83402W        W54931  32.935  22.760  13.429
83403W        W54932  25.059  34.037  12.623
83404W        W54933  37.537   4.190   4.158
83405W        W54934  35.934   5.939   4.696
83406W        W54935   3.580  43.095   4.989
83407W        W54936  25.576  10.916  13.467
83408W        W54937  36.388  41.433  12.810
83409W        W54938  18.970  25.034   4.637
83410W        W54939  10.643   2.096  14.952
83411W        W54940  16.987   2.877   2.770
83412W        W54941   7.174   5.866  13.555
83413W        W54942   3.842   2.514   1.247
83414W        W54943  14.215   5.701  14.955
83415W        W54944  30.648  22.132   0.759
83416W        W54945  25.637   2.797  10.708
83417W        W54946  15.753   7.513  13.317
83418W        W54947   9.322  32.177  10.314
83419W        W54948   6.292   0.959   0.758
83420W        W54949  24.251  12.228   4.124
83421W        W54950  30.988   6.280   2.794
83422W        W54951  40.701  10.743   1.381
83423W        W54952  36.304  40.424   0.732
83424W        W54953  25.923  42.070  10.773
83425W        W54954  19.445  11.957   4.457
83426W        W54955   7.659  26.690   2.330
83427W        W54956   8.325  43.073  12.777
83428W        W54957  29.677  36.565   2.392
83429W        W54958  25.665  30.041   2.672
83430W        W54959   7.407  25.187  10.349
83431W        W54960  31.382   8.687  14.296
83432W        W54961  26.653  11.221   3.570
83433W        W54962  30.502  12.375  12.918
83434W        W54963  15.276  38.535  13.094
83435W        W54964  32.468  31.422  12.109
83436W        W54965  27.017  25.561   1.022
83437W        W54966   2.798  35.073  13.130
83438W        W54967  16.649  31.614   0.272
83439W        W54968   1.511  44.011  11.436
83440W        W54969  14.619  41.270   2.362
83441W        W54970  38.348   6.835   3.236
83442W        W54971  30.552  30.418   2.343
83443W        W54972  38.138  18.733  11.214
83444W        W54973  38.783  26.956   2.714
83445W        W54974   6.077   6.451   2.167
83446W        W54975  25.309  23.034  10.667
83447W        W54976   9.004  30.457   3.186
83448W        W54977  39.778  28.902   2.408
83449W        W54978  30.166  44.559   3.694
83450W        W54979  19.060  12.938   2.781
83451W        W54980   0.978   8.745  10.821
83452W        W54981  29.682  34.812  11.011
83453W        W54982   3.514  28.429  13.767
83454W        W54983  34.974  42.725  14.322
83455W        W54984  42.027  23.705   4.307
83456W        W54985  11.335  20.459  13.984
83457W        W54986  36.218  21.136   2.255
83458W        W54987  22.628  14.584  11.415
83459W        W54988  31.495  36.868  13.101
83460W        W54989  39.788   5.763  11.489
83461W        W54990  39.031  11.776   4.746
83462W        W54991  24.437   0.466   3.264
83463W        W54992  34.505  34.037  10.936
83464W        W54993   2.339  17.650   2.776
83465W        W54994  18.174   6.470  11.674
83466W        W54995  42.288  42.047   2.401
83467W        W54996  29.124  28.097  10.758
83468W        W54997  32.110  39.376  11.609
83469W        W54998   9.696  38.040   2.273
83470W        W54999  38.519  15.487  14.238
83471W        W55000   4.524   8.313   4.952
83472W        W55001   4.285  29.635  11.171
83473W        W55002  12.171  22.674   3.737
83474W        W55003  11.725   1.389   3.242
83475W        W55004  21.912  32.119  14.750
83476W        W55005  11.332  32.465   4.853
83477W        W55006  24.550  22.682  10.803
83478W        W55007  23.740  30.462   1.763
83479W        W55008  14.964  13.341  13.434
83480W        W55009  23.146  26.707  12.651
83481W        W55010  32.375  27.323   5.157
83482W        W55011  33.904  27.663   2.359
83483W        W55012   3.873  25.228   5.093
83484W        W55013   2.235  30.010   3.911
83485W        W55014  36.465  19.355   0.405
83486W        W55015  36.820  18.672   1.011
83487W        W55016  30.110  24.077  11.922
83488W        W55017  19.558   9.144   2.179
83489W        W55018  29.927  19.467  14.030
83490W        W55019  19.492  16.030   3.312
83491W        W55020  16.110  12.653  13.575
83492W        W55021   1.516  33.064   0.778
83493W        W55022  28.390   9.244   3.330
83494W        W55023  30.830  42.526   3.602
83495W        W55024  13.334  33.540  10.936
83496W        W55025  32.705  18.368   1.998
83497W        W55026  18.258  21.633   5.521
83498W        W55027  30.391  25.105  13.087
83499W        W55028   9.916  25.732  14.496
83500W        W55029  20.560   9.842   4.090
83501W        W55030  11.637  40.436   2.200
83502W        W55031  40.726  14.974  14.265
83503W        W55032  39.142  22.471   1.731
83504W        W55033  29.016  20.287  10.665
83505W        W55034  13.135  17.149   2.668
83506W        W55035  38.793   1.756  11.274
83507W        W55036  24.928  23.056   4.537
83508W        W55037  26.096  31.504  10.929
83509W        W55038  22.054  18.864   0.819
83510W        W55039   1.400  33.879  14.375
83511W        W55040  28.766   0.237  14.505
83512W        W55041  41.074  16.446  13.327
83513W        W55042  40.789  18.832   1.263
83514W        W55043  26.513  31.933   2.310
83515W        W55044  14.374  28.123   2.300
83516W        W55045  19.499  11.162  12.659
83517W        W55046  35.556  17.834   0.296
83518W        W55047  15.150  40.733  13.469
83519W        W55048  17.178  16.805   2.911
83520W        W55049  33.635  15.613   3.146
83521W        W55050  18.494   0.498   0.387
83522W        W55051  24.820  14.721   3.695
83523W        W55052  38.058  26.527   2.208
83524W        W55053   6.085  27.667   0.646
83525W        W55054  22.841  11.625   0.853
83526W        W55055  37.433  10.387   1.297
83527W        W55056  13.584  43.008  12.469
83528W        W55057  34.289  44.764  11.620
83529W        W55058   9.840   3.697   2.683
83530W        W55059  30.703   6.718  12.323
83531W        W55060   9.355   4.100  11.083
83532W        W55061   4.246  34.449  11.750
83533W        W55062  24.674   5.329   3.364
83534W        W55063  20.963  26.189   2.280
83535W        W55064  25.276  23.717  14.292
83536W        W55065  27.002   4.737   4.811
83537W        W55066  21.175   7.927  14.388
83538W        W55067   3.649  28.693  11.160
83539W        W55068  21.900  30.963   4.470
83540W        W55069  16.046  14.255   5.059
83541W        W55070  43.785  37.007   0.798
83542W        W55071  17.138  20.175  13.473
83543W        W55072  43.002  21.580   0.335
83544W        W55073  25.551   9.182  14.968
83545W        W55074  31.736  29.190  12.557
83546W        W55075  22.202  27.607   2.185
83547W        W55076  15.118  25.018   4.811
83548W        W55077  15.621  14.284   3.656
83549W        W55078  28.440   9.410   2.361
83550W        W55079  34.171   0.106   2.311
83551W        W55080   2.506  26.179   1.179
83552W        W55081  11.149  41.711   3.662
83553W        W55082  10.683  13.612   4.214
83554W        W55083  12.665  27.135   1.382
83555W        W55084  21.543   8.676  12.906
83556W        W55085  41.724  34.012  12.457
83557W        W55086  42.310  42.923  14.013
83558W        W55087  17.072  28.134  12.463
83559W        W55088  39.517  12.242   0.326
83560W        W55089  32.365  30.404   5.038
83561W        W55090  11.403  12.877   3.143
83562W        W55091  10.121  33.077  13.859
83563W        W55092  25.046   1.271  13.489
83564W        W55093  15.058  18.556   3.061
83565W        W55094  19.352  23.663   4.107
83566W        W55095   8.348  23.189  10.517
83567W        W55096   3.653  34.010  14.019
83568W        W55097  41.414   9.173  12.582
83569W        W55098   0.718  33.400  14.904
83570W        W55099  34.201  19.633  14.024
83571W        W55100   9.564  32.721   2.677
83572W        W55101  12.878  12.000  12.033
83573W        W55102  42.276  22.363   2.045
83574W        W55103   3.039  32.057  13.993
83575W        W55104  30.480  13.892   1.855
83576W        W55105  13.108  14.097   0.959
83577W        W55106  38.319  31.676  11.583
83578W        W55107  24.080  11.114   1.325
83579W        W55108  23.544   2.701   3.067
83580W        W55109  11.636   3.844   2.180
83581W        W55110   3.213  28.669  13.007
83582W        W55111   9.620  25.727   0.384
83583W        W55112  32.010  29.583   3.172
83584W        W55113  40.773  37.890   0.885
83585W        W55114  12.960  16.135   0.787
83586W        W55115  40.667   1.768   2.152
83587W        W55116  21.894  40.374  12.256
83588W        W55117  30.988  20.770   4.100
83589W        W55118  36.628  42.412  12.480
83590W        W55119  19.631  11.583  14.437
83591W        W55120  36.173   9.152   2.739
83592W        W55121  39.223  28.197   2.341
83593W        W55122  25.473   8.235   0.465
83594W        W55123   7.818   2.892   2.356
83595W        W55124   8.269  35.646   3.739
83596W        W55125   2.460  27.638  13.777
83597W        W55126   1.810  32.646   3.342
83598W        W55127   0.878   2.522  12.551
83599W        W55128  22.636  40.873   4.044
83600W        W55129   0.816  42.427  10.447
83601W        W55130  33.567  23.043  14.798
83602W        W55131  38.822  13.190   4.719
83603W        W55132  32.511  42.776  14.939
83604W        W55133   1.181  41.177  11.156
83605W        W55134  37.911  22.604   2.351
83606W        W55135  28.554  29.004   0.099
83607W        W55136  20.497  41.828   1.786
83608W        W55137  25.626   4.999   3.501
83609W        W55138   9.208  22.027   3.830
83610W        W55139  11.962   1.259   5.520
83611W        W55140   0.110   9.292  13.743
83612W        W55141  20.239  27.500  13.051
83613W        W55142  41.993   0.816   0.385
83614W        W55143  12.148   6.863   0.840
83615W        W55144  33.267  42.515  13.849
83616W        W55145  15.668  39.308  11.241
83617W        W55146  10.826   4.783   0.748
83618W        W55147  21.043   4.954   3.207
83619W        W55148  12.655  23.293  13.927
83620W        W55149   0.922  21.825   4.995
83621W        W55150  31.951  27.225   2.272
83622W        W55151  43.793   6.217  10.617
83623W        W55152  28.030  38.337   0.394
83624W        W55153  30.292  33.297  13.409
83625W        W55154  33.455  34.444  14.140
83626W        W55155  32.905   9.714   4.032
83627W        W55156  32.224  41.761   0.953
83628W        W55157  24.468  44.974  14.431
83629W        W55158  40.356  13.394   2.454
83630W        W55159  33.057  29.994   4.582
83631W        W55160   3.749   9.019  10.852
83632W        W55161   0.465   5.379  14.356
83633W        W55162  19.642  31.193   2.636
83634W        W55163  29.623  11.474   4.313
83635W        W55164  18.594  23.309   4.360
83636W        W55165   1.315  21.618   1.307
83637W        W55166  20.484  11.654  12.893
83638W        W55167  39.008  10.854   3.711
83639W        W55168   2.979  21.871  10.415
83640W        W55169  36.425  14.247   1.474
83641W        W55170   8.081  32.573   4.753
83642W        W55171   4.933   0.136   3.806
83643W        W55172   7.478   3.776   0.924
83644W        W55173  38.691  36.463  12.146
83645W        W55174  26.740   7.267  13.796
83646W        W55175  32.296  21.634  12.008
83647W        W55176  42.117  22.108   1.441
83648W        W55177  15.462  44.785  11.153
83649W        W55178  14.265   6.902   4.815
83650W        W55179   9.844   8.527   2.875
83651W        W55180  43.689   3.825  12.008
83652W        W55181  44.959   0.895   4.356
83653W        W55182   7.858  24.419   1.266
83654W        W55183  41.786  32.003  11.848
83655W        W55184  43.854   3.509  12.423
83656W        W55185  16.119  24.164  13.431
83657W        W55186   5.715  25.706  13.583
83658W        W55187  24.590  25.144  12.805
83659W        W55188  26.457  23.402  12.471
83660W        W55189  42.854  39.775   0.334
83661W        W55190   5.955  26.453  14.387
83662W        W55191   9.103  34.899  14.351
83663W        W55192  41.393  41.614   1.872
83664W        W55193   7.230   4.482   4.513
83665W        W55194  30.766   7.197  13.868
83666W        W55195  15.404  43.027  13.531
83667W        W55196   7.965  10.779  12.388
83668W        W55197  10.273   6.889   2.737
83669W        W55198  24.291  16.160   0.497
83670W        W55199  21.214  36.649  14.018
83671W        W55200   8.918  40.473  14.530
83672W        W55201  19.238  41.266  10.728
83673W        W55202  35.412  35.337  14.994
83674W        W55203  16.352   9.444  12.526
83675W        W55204  26.601   9.698  10.893
83676W        W55205   1.891  16.377  13.357
83677W        W55206  14.073  38.947   0.229
83678W        W55207   5.460   6.395  11.164
83679W        W55208   5.970  23.753  12.864
83680W        W55209  20.567   6.242  14.557
83681W        W55210  43.529  11.550   3.172
83682W        W55211   0.315  27.587  13.188
83683W        W55212  15.356   4.551  12.033
83684W        W55213   9.410  32.970   4.438
83685W        W55214   4.341  44.558   0.783
83686W        W55215  42.350  31.403   1.932
83687W        W55216  42.392   5.668   2.280
83688W        W55217  39.430  26.873   0.352
83689W        W55218  32.949  22.984  12.860
83690W        W55219  16.596  15.218  13.397
83691W        W55220  29.437  27.996  11.170
83692W        W55221   5.538  20.002   0.820
83693W        W55222  40.307   8.246  14.422
83694W        W55223  44.484  43.850  14.530
83695W        W55224  32.498  27.218  10.260
83696W        W55225  13.471  27.583  14.676
83697W        W55226  40.342  23.285  13.060
83698W        W55227  31.416  11.091  11.714
83699W        W55228  24.594  26.249   0.494
83700W        W55229  17.752   2.236   4.559
83701W        W55230  10.304   4.417   0.617
83702W        W55231  19.134  35.510  14.336
83703W        W55232  44.863   2.768   4.453
83704W        W55233  12.801  38.580  12.461
83705W        W55234  31.967   1.239  12.384
83706W        W55235  29.046  12.384  12.886
83707W        W55236  33.416   2.917   2.265
83708W        W55237   9.218  11.185   2.265
83709W        W55238  28.832   6.341   0.233
83710W        W55239   8.356  33.871  12.476
83711W        W55240  25.299  14.894  12.423
83712W        W55241  29.843  40.323  14.740
83713W        W55242   3.824  12.137  12.038
83714W        W55243  34.884  26.691   2.981
83715W        W55244  42.794  24.719   4.336
83716W        W55245  16.021  36.137  11.788
83717W        W55246   9.752  14.196   5.245
83718W        W55247  25.046  33.137  11.133
83719W        W55248  32.465  13.061   0.337
83720W        W55249  33.813   0.554   3.673
83721W        W55250  30.299  24.745  13.452
83722W        W55251  18.053  42.982  13.892
83723W        W55252  42.324   3.841   2.625
83724W        W55253  12.807  37.787  13.537
83725W        W55254  42.020   0.377  12.748
83726W        W55255   0.227   2.244   0.886
83727W        W55256  36.868  27.707  14.888
83728W        W55257  28.547  30.704   4.339
83729W        W55258  10.320   9.181  11.589
83730W        W55259   4.336  13.798  12.600
83731W        W55260  28.494  12.854   2.645
83732W        W55261  29.861  40.305  13.403
83733W        W55262  35.026  26.578   1.981
83734W        W55263  22.488  11.807  11.055
83735W        W55264  42.066  22.345   0.949
83736W        W55265  40.555  34.315  13.448
83737W        W55266   0.639  16.551   4.202
83738W        W55267  26.596  28.260  13.885
83739W        W55268  20.850  27.062   1.248
83740W        W55269   0.742   3.241   1.495
83741W        W55270  28.053  23.757   4.293
83742W        W55271  27.888  33.465   0.416
83743W        W55272  28.413  10.692   4.022
83744W        W55273  26.018   2.424   2.933
83745W        W55274  22.002  42.448   1.438
83746W        W55275  43.722   3.015   0.876
83747W        W55276   0.007  19.296  14.463
83748W        W55277  40.421   6.213   2.180
83749W        W55278  43.780  27.490   4.539
83750W        W55279  11.670  21.501   3.074
83751W        W55280   9.365  11.250  14.822
83752W        W55281  39.837  38.281   0.269
83753W        W55282  26.410  14.457  10.766
83754W        W55283  10.572  23.140  11.569
83755W        W55284  15.411  23.911  10.545
83756W        W55285  44.610  33.270   0.715
83757W        W55286  24.636  20.597   4.488
83758W        W55287  11.262  43.676   2.185
83759W        W55288  36.494  27.105  11.622
83760W        W55289  20.458  43.301  12.095
83761W        W55290  12.167  17.702  13.104
83762W        W55291  15.989   8.627   3.349
83763W        W55292   8.912  32.161  13.462
83764W        W55293  13.162  26.126   4.893
83765W        W55294  29.648  35.958   1.233
83766W        W55295  41.893  25.069  10.018
83767W        W55296  30.525  35.127   1.788
83768W        W55297  33.100   4.248  14.272
83769W        W55298   6.259  39.911  11.172
83770W        W55299  38.679  24.096   0.741
83771W        W55300   8.152   9.683   1.229
83772W        W55301  13.293   0.299   9.702
83773W        W55302  38.818  40.012   4.172
83774W        W55303  21.454  11.407  12.889
83775W        W55304   9.864  42.886   4.843
83776W        W55305  34.655  21.705   0.772
83777W        W55306  43.427  14.345  10.755
83778W        W55307  16.542  37.088  11.153
83779W        W55308   4.867  25.932  13.990
83780W        W55309  27.373  38.861  13.997
83781W        W55310  27.602  32.213  14.055
83782W        W55311  25.573  12.585  11.143
83783W        W55312   3.729  14.660   2.758
83784W        W55313  17.945  20.154   2.683
83785W        W55314  34.696  40.773   4.724
83786W        W55315   4.464  23.556   1.257
83787W        W55316  25.686   9.850  11.376
83788W        W55317  30.279  29.669   2.693
83789W        W55318  22.188  33.884   1.336
83790W        W55319   0.218  27.566   0.759
83791W        W55320  38.524  14.365  14.881
83792W        W55321  12.168  24.060  11.597
83793W        W55322  24.460  26.709  12.980
83794W        W55323  40.494  25.499  12.469
83795W        W55324  42.955  17.154   4.109
83796W        W55325  22.548  38.751   4.168
83797W        W55326  42.655  15.644   2.317
83798W        W55327   3.729  34.665  12.368
83799W        W55328  11.183   5.562   0.288
83800W        W55329   7.746   4.773   2.075
83801W        W55330  14.636  43.757   0.540
83802W        W55331   5.956  42.293   0.356
83803W        W55332   6.925  38.568  13.415
83804W        W55333  43.062  18.475   0.372
83805W        W55334  15.240  27.641   1.301
83806W        W55335  22.408   8.877   0.460
83807W        W55336  16.139  27.644   1.771
83808W        W55337   4.278  20.461  11.149
83809W        W55338  40.415  27.580  14.292
83810W        W55339  18.122  32.469  10.243
83811W        W55340  33.531   3.994  13.493
83812W        W55341  13.958  11.997  11.137
83813W        W55342  27.869  40.400  12.987
83814W        W55343  12.186  10.613   2.822
83815W        W55344  42.510  40.840   0.893
83816W        W55345  19.294   8.124  14.889
83817W        W55346   8.624   2.581   3.160
83818W        W55347  24.664  16.306  10.866
83819W        W55348  33.597  27.521   1.755
83820W        W55349   2.411  23.471  10.583
83821W        W55350  33.044  29.732   2.151
83822W        W55351  13.778  41.373  14.316
83823W        W55352  33.058   6.403   4.611
83824W        W55353  23.312  44.500   4.599
83825W        W55354  29.650  29.070  12.481
83826W        W55355   3.526   3.215  14.527
83827W        W55356   4.305  12.400   4.868
83828W        W55357  28.644  39.061   4.159
83829W        W55358  38.056  30.502  11.429
83830W        W55359  37.613  17.678   3.762
83831W        W55360  20.408  20.515  12.275
83832W        W55361  31.953  27.472   0.390
83833W        W55362  17.680  37.498  10.753
83834W        W55363  20.087  28.448   1.754
83835W        W55364  30.659   8.835   3.680
83836W        W55365  26.173  41.936   0.941
83837W        W55366  13.120  35.632   4.215
83838W        W55367  20.722  26.213  10.546
83839W        W55368  43.495   6.881  11.748
83840W        W55369   9.849  17.054  12.055
83841W        W55370  41.051  25.961  11.208
83842W        W55371   8.860  20.695  10.853
83843W        W55372   9.618   1.952   4.238
83844W        W55373  26.494  16.032  11.548
83845W        W55374  21.803   3.645   2.400
83846W        W55375  31.197  34.822   3.142
83847W        W55376   5.002   5.614  14.927
83848W        W55377  20.169  24.104   2.136
83849W        W55378  14.005  24.739   0.326
83850W        W55379   2.222  35.400   2.124
83851W        W55380   7.313  26.459   3.181
83852W        W55381  12.980  19.991  13.661
83853W        W55382  23.626   3.715   2.724
83854W        W55383  31.515   4.285   3.626
83855W        W55384   2.236  22.042  10.826
83856W        W55385  16.013  22.946   2.684
83857W        W55386  43.501  34.274  13.510
83858W        W55387  10.264   5.410   4.778
83859W        W55388  39.899  44.321  11.202
83860W        W55389  22.172  41.066   3.899
83861W        W55390  13.112  29.583  12.521
83862W        W55391  32.292  29.974   1.961
83863W        W55392  25.100   3.453   2.789
83864W        W55393  31.492  43.943  14.030
83865W        W55394  10.872  38.225   0.005
83866W        W55395   5.484   5.044   3.816
83867W        W55396  27.598   1.478  12.623
83868W        W55397   4.317   2.514  11.137
83869W        W55398  38.563  28.378   4.126
83870W        W55399  34.808  41.332  12.387
83871W        W55400  37.030  33.090   4.281
83872W        W55401  32.615  38.052   4.727
83873W        W55402  14.910   1.764   0.655
83874W        W55403  37.061  30.692  11.990
83875W        W55404   2.413  22.504   3.657
83876W        W55405  44.284   2.365   3.926
83877W        W55406   7.863  39.222  10.759
83878W        W55407  35.950  27.493  11.198
83879W        W55408  35.088  11.388   0.853
83880W        W55409  32.637   6.632  11.207
83881W        W55410  25.837   6.288   4.894
83882W        W55411   4.316  15.291  13.096
83883W        W55412  34.986  30.901  13.049
83884W        W55413  26.720  41.078   0.708
83885W        W55414  14.698  41.986   0.266
83886W        W55415  38.603  42.332  12.013
83887W        W55416   5.192  29.437   0.771
83888W        W55417  39.507  21.647  13.272
83889W        W55418  41.238  37.347  13.563
83890W        W55419  31.652  36.006  11.983
83891W        W55420  34.504  27.416  11.702
83892W        W55421  12.713  31.452   1.803
83893W        W55422  11.884  38.191   0.789
83894W        W55423   7.308  34.332   2.491
83895W        W55424  25.103  41.807   4.656
83896W        W55425   2.357  29.355  10.653
83897W        W55426  15.363   3.342  10.692
83898W        W55427  31.110  20.049   4.549
83899W        W55428  18.033  10.820   1.450
83900W        W55429  30.795  34.157  13.488
83901W        W55430  39.051  36.612  12.487
83902W        W55431  38.947   9.741  11.137
83903W        W55432  16.465  33.746  11.225
83904W        W55433  39.214   9.748  14.938
83905W        W55434   5.953  35.099   4.387
83906W        W55435  40.086  35.030   1.681
83907W        W55436  12.733  43.567   0.505
83908W        W55437  13.322  26.140  14.538
83909W        W55438  18.623  13.401   0.933
83910W        W55439  12.734  18.152  11.592
83911W        W55440   2.973  12.642   3.632
83912W        W55441  10.213  18.297  14.232
83913W        W55442  43.915  11.127   2.932
83914W        W55443  11.510  10.487  12.421
83915W        W55444  21.808  31.888   3.681
83916W        W55445   5.585  32.616  10.813
83917W        W55446  14.603  41.318   1.288
83918W        W55447  19.250  20.139   5.036
83919W        W55448  18.011  25.203   2.748
83920W        W55449  11.150  28.103  13.064
83921W        W55450  24.175   5.792  13.571
83922W        W55451  26.596   9.453   4.705
83923W        W55452  15.261  17.589   3.719
83924W        W55453  33.794  27.154   2.252
83925W        W55454  27.930   5.533   4.352
83926W        W55455  44.170   1.854   4.524
83927W        W55456  25.314  42.329  13.377
83928W        W55457   4.711   7.475   5.151
83929W        W55458  17.658  43.942  11.593
83930W        W55459   1.424  40.083   2.397
83931W        W55460  27.732  25.766   2.278
83932W        W55461   5.772  22.291   4.890
83933W        W55462  31.639  34.707   1.855
83934W        W55463  19.601  27.566   3.811
83935W        W55464  19.334  33.505   2.489
83936W        W55465   1.285   8.467   2.315
83937W        W55466  35.543  13.448  14.442
83938W        W55467   8.221  22.605  13.351
83939W        W55468  23.593  15.734   0.819
83940W        W55469  42.904  30.133   0.742
83941W        W55470  21.047  14.236   2.125
83942W        W55471   0.538   8.897  12.466
83943W        W55472  23.346  19.624   4.519
83944W        W55473   4.086  26.129  12.924
83945W        W55474   4.554  18.578   3.297
83946W        W55475  42.904  38.383   2.449
83947W        W55476  36.095   1.513   4.497
83948W        W55477  39.271  10.278   0.799
83949W        W55478  19.124  21.030   2.601
83950W        W55479  34.516  21.693  12.905
83951W        W55480  18.988  30.350  10.725
83952W        W55481  39.824  30.903   0.709
83953W        W55482   5.683  33.859  14.825
83954W        W55483  15.526  33.376   0.837
83955W        W55484   2.438  33.144  13.478
83956W        W55485  27.463  17.301   0.045
83957W        W55486  24.780  10.091   0.870
83958W        W55487  26.659  27.645  14.796
83959W        W55488  23.998   2.293   3.627
83960W        W55489  24.016  23.957   1.830
83961W        W55490   0.276  13.874  11.186
83962W        W55491   3.170   0.024   1.794
83963W        W55492   3.567  42.515  10.826
83964W        W55493  12.255  37.190   3.704
83965W        W55494  16.348  42.348  13.957
83966W        W55495  43.922   4.271  14.904
83967W        W55496  15.274  36.488  12.238
83968W        W55497  31.369  33.000  12.863
83969W        W55498   5.040  44.262  12.914
83970W        W55499  35.456  31.699   0.301
83971W        W55500  17.817  32.121  13.654
83972W        W55501  40.777   9.462   1.843
83973W        W55502  14.395  18.081  13.019
83974W        W55503  12.730  14.178   0.577
83975W        W55504  41.067   5.223   3.309
83976W        W55505  17.985  14.897  10.586
83977W        W55506   1.592  43.878   3.990
83978W        W55507  10.908  43.182  10.267
83979W        W55508  39.067  36.700   3.650
83980W        W55509  38.916   5.464  10.646
83981W        W55510  18.040   2.815   4.444
83982W        W55511  31.952  27.024  14.925
83983W        W55512  35.762  12.991   1.361
83984W        W55513  32.504   6.729   3.901
83985W        W55514  44.133  23.281  12.164
83986W        W55515  21.583   6.445  13.680
83987W        W55516  31.710  10.799   3.660
83988W        W55517   9.153  13.031   0.507
83989W        W55518   2.289  24.617  14.258
83990W        W55519   2.671   8.270   3.897
83991W        W55520   5.209  37.974  11.626
83992W        W55521  32.001  13.810   0.430
83993W        W55522   0.810   2.520   3.116
83994W        W55523  37.528  39.872   0.667
83995W        W55524  27.015  23.358  13.026
83996W        W55525  30.107   2.360   2.107
83997W        W55526  37.309  18.533  12.660
83998W        W55527  44.329  19.531   4.297
83999W        W55528   5.901  38.583  11.340
84000W        W55529   1.523   8.646   4.290
84001W        W55530   0.423  20.760  13.520
84002W        W55531  14.921  27.476   3.322
84003W        W55532  37.918  33.387   2.880
84004W        W55533   4.853  22.095  11.469
84005W        W55534  29.609  18.805  12.907
84006W        W55535  30.371  16.257   0.360
84007W        W55536  44.208  21.519   4.498
84008W        W55537   2.796  12.581  14.337
84009W        W55538   3.852   2.849   2.604
84010W        W55539  20.626  43.722  12.980
84011W        W55540   7.167  22.017   0.943
84012W        W55541  26.559  15.100  14.041
84013W        W55542  21.901  42.732   5.022
84014W        W55543   9.724   7.152   1.429
84015W        W55544  14.280   5.539  13.632
84016W        W55545  35.845  20.339  13.605
84017W        W55546  35.608  44.836  14.679
84018W        W55547  25.272  30.526  14.607
84019W        W55548  15.127  39.858   3.877
84020W        W55549   7.862  25.203   0.881
84021W        W55550  34.862  31.557   2.663
84022W        W55551   1.745  18.578   3.722
84023W        W55552  33.914  15.627  12.166
84024W        W55553   2.795  24.605  12.075
84025W        W55554  28.004   0.260  13.787
84026W        W55555  41.649   6.103   1.804
84027W        W55556  30.884  21.123   2.180
84028W        W55557  25.966  37.882  14.982
84029W        W55558  15.884   2.930  12.514
84030W        W55559  13.318   8.772  10.808
84031W        W55560  28.524  44.593   0.000
84032W        W55561  20.297  25.991   3.202
84033W        W55562   1.976  44.316   3.334
84034W        W55563   6.951  25.969  14.876
84035W        W55564  35.538  22.119   3.649
84036W        W55565  13.818  25.451   2.958
84037W        W55566  44.852   3.048  13.441
84038W        W55567  28.241  31.915   1.691
84039W        W55568  23.665  26.681   3.830
84040W        W55569  35.784   6.783  10.417
84041W        W55570  18.062  42.391   0.348
84042W        W55571  38.762  39.593   5.003
84043W        W55572  34.955  19.043   1.812
84044W        W55573  18.675  30.913   1.719
84045W        W55574  44.073  43.431   1.899
84046W        W55575  17.752  10.976  12.908
84047W        W55576  40.258  37.379  12.132
84048W        W55577  27.516  32.073  11.868
84049W        W55578  24.444   3.863  12.481
84050W        W55579  13.780  34.657  12.098
84051W        W55580  24.095  44.100   1.804
84052W        W55581  13.127   3.034   4.950
84053W        W55582   3.913  13.076   0.770
84054W        W55583  19.983  10.876  12.884
84055W        W55584   0.872  23.967  13.639
84056W        W55585   9.356   7.939   1.943
84057W        W55586  13.498  21.215  13.910
84058W        W55587   3.824   4.477  10.543
84059W        W55588   9.283  42.349  14.196
84060W        W55589  20.595  28.635  12.022
84061W        W55590  20.715  20.923  14.010
84062W        W55591  16.619  33.923  12.487
84063W        W55592  41.997  12.543  10.718
84064W        W55593  24.917  18.493   1.487
84065W        W55594  24.500   4.397  12.402
84066W        W55595   2.960  12.749   1.884
84067W        W55596  40.543  43.841   3.318
84068W        W55597  41.859   7.170   0.991
84069W        W55598  19.718  15.877  11.991
84070W        W55599   3.844  39.087   0.155
84071W        W55600  20.882  13.143  14.049
84072W        W55601  21.331   8.214  13.063
84073W        W55602  24.703  10.572  14.791
84074W        W55603  13.911  37.265  14.588
84075W        W55604  35.128  22.655  12.525
84076W        W55605  14.858  26.329  13.865
84077W        W55606  22.754  32.104  10.905
84078W        W55607  20.938  42.727  13.981
84079W        W55608   8.471  33.649   1.366
84080W        W55609  28.700  41.326  13.339
84081W        W55610  34.344   3.839   1.892
84082W        W55611   8.379   5.758   0.200
84083W        W55612  31.418  18.850   1.799
84084W        W55613  13.549  32.050  12.829
84085W        W55614  43.088  44.292  11.189
84086W        W55615  20.245  25.102  12.486
84087W        W55616  34.394   5.697  11.537
84088W        W55617  39.084  24.424  12.501
84089W        W55618  12.293  22.223   2.777
84090W        W55619  16.631  19.779  11.458
84091W        W55620  22.625   8.681   1.461
84092W        W55621   0.690  27.237   1.422
84093W        W55622   9.729   8.798   0.531
84094W        W55623  17.348  31.489   1.280
84095W        W55624  38.341  19.296  12.028
84096W        W55625   7.698  24.554  14.455
84097W        W55626  17.614  36.181   3.215
84098W        W55627  28.795   7.664  10.630
84099W        W55628  29.251  31.963   4.410
84100W        W55629  41.847  28.870  10.699
84101W        W55630  18.328  24.243  12.601
84102W        W55631  28.496  35.970   2.697
84103W        W55632  13.777  44.985  14.279
84104W        W55633  44.322   6.621   4.530
84105W        W55634   7.455  32.448  14.504
84106W        W55635  36.216  21.296  14.278
84107W        W55636   2.879  36.547  11.440
84108W        W55637  37.256  29.470   1.320
84109W        W55638  18.688   0.946  12.873
84110W        W55639  26.303  33.633   5.073
84111W        W55640  43.671   0.802  10.593
84112W        W55641   6.656  33.076  10.575
84113W        W55642  33.326  14.639  13.463
84114W        W55643  38.344   1.418   3.091
84115W        W55644  38.613  26.466  11.118
84116W        W55645  37.354  39.859  12.880
84117W        W55646  39.360   7.896  13.794
84118W        W55647  16.912  44.648   4.906
84119W        W55648  35.051  16.757  13.072
84120W        W55649  30.004   3.756   2.912
84121W        W55650  34.051  12.452  13.469
84122W        W55651  34.668  21.650   1.302
84123W        W55652  29.497  39.555  13.993
84124W        W55653  36.837  15.564   3.744
84125W        W55654  28.489  44.626  12.684
84126W        W55655  24.443  25.209   2.730
84127W        W55656  43.078  25.499  12.667
84128W        W55657   7.375  14.725   0.041
84129W        W55658  23.090  16.517   4.184
84130W        W55659  41.661   6.796  11.559
84131W        W55660  25.666  43.560   2.788
84132W        W55661   5.756  22.183  10.980
84133W        W55662   6.425  28.913  12.214
84134W        W55663  40.395  28.354   2.068
84135W        W55664   3.417   0.131   0.379
84136W        W55665   8.898  29.635  14.373
84137W        W55666  40.585  13.836  12.404
84138W        W55667  44.685   7.115  11.011
84139W        W55668  16.349  38.588   0.326
84140W        W55669  43.398   0.357  10.817
84141W        W55670   5.443  29.663  12.343
84142W        W55671  22.457  12.789  14.727
84143W        W55672   8.185  19.228  11.653
84144W        W55673  12.145   5.100   2.797
84145W        W55674  20.303  10.915  13.314
84146W        W55675  21.170  18.748   2.868
84147W        W55676   5.626  12.298  12.566
84148W        W55677   5.748  16.673   0.443
84149W        W55678  20.264  19.007  12.479
84150W        W55679  16.843  22.722  11.576
84151W        W55680  31.001   9.402   0.688
84152W        W55681  32.504   4.167   4.582
84153W        W55682  33.944  26.402   2.884
84154W        W55683  11.938   3.751   0.369
84155W        W55684  20.569  43.712   1.012
84156W        W55685  37.096  25.407   1.660
84157W        W55686  24.444  27.095   3.688
84158W        W55687  37.939  36.753   1.995
84159W        W55688  15.267   5.907  13.919
84160W        W55689  38.817  20.148  13.918
84161W        W55690  30.042   8.119   2.106
84162W        W55691  29.033  30.407  14.375
84163W        W55692  42.397   6.776   0.774
84164W        W55693   7.089  11.320   0.442
84165W        W55694  25.990   3.887  11.067
84166W        W55695  24.434   1.717  13.098
84167W        W55696  18.110  28.694   4.010
84168W        W55697  30.464  30.932  11.941
84169W        W55698  20.771  32.829  14.612
84170W        W55699  43.000  35.958   1.754
84171W        W55700  33.339  44.895  11.537
84172W        W55701  24.752   3.355   4.083
84173W        W55702  10.305   1.874   2.473
84174W        W55703  33.438  31.788   0.280
84175W        W55704  16.832  10.593  10.419
84176W        W55705   1.742  40.009   4.299
84177W        W55706  42.077  25.958   0.778
84178W        W55707  39.061  24.804   1.955
84179W        W55708  13.065  28.651   0.449
84180W        W55709  15.198  14.103   4.391
84181W        W55710  14.655   7.257   4.759
84182W        W55711  10.720  37.980   2.299
84183W        W55712  19.327  33.955   2.726
84184W        W55713  24.994  23.635   1.904
84185W        W55714   7.523  31.713  14.544
84186W        W55715   4.528  13.755   1.464
84187W        W55716  15.294  11.565  11.094
84188W        W55717   2.505   8.817   4.362
84189W        W55718  12.608  24.067   0.861
84190W        W55719  26.221   8.426   0.763
84191W        W55720  11.139  27.673   0.869
84192W        W55721   4.921  39.061  13.967
84193W        W55722   8.270  22.142  11.621
84194W        W55723  35.984  27.669   1.435
84195W        W55724   1.626  19.514   3.693
84196W        W55725  44.333  36.302   1.873
84197W        W55726   2.170   1.667  12.121
84198W        W55727  32.644   8.475  13.104
84199W        W55728  13.078  43.953  13.388
84200W        W55729   6.710  42.965   1.512
84201W        W55730  29.462  20.198  12.486
84202W        W55731   7.689   1.346  13.603
84203W        W55732  34.840  16.062   0.429
84204W        W55733   7.809  10.977   2.387
84205W        W55734  26.157  36.969  13.940
84206W        W55735  34.936  11.223   4.152
84207W        W55736  26.581  38.871   4.586
84208W        W55737   2.159  42.373   1.014
84209W        W55738  42.459  12.138   3.370
84210W        W55739  28.542  30.764   2.404
84211W        W55740  31.885   5.362   1.266
84212W        W55741  21.254  30.202  13.411
84213W        W55742   9.334  29.558   2.216
84214W        W55743   4.423  36.658   2.981
84215W        W55744  11.101  14.573  14.458
84216W        W55745   5.268  29.402  10.758
84217W        W55746  28.241  10.947   2.807
84218W        W55747  15.147  26.193  11.121
84219W        W55748  42.295  27.191   1.204
84220W        W55749  15.921  37.962  13.620
84221W        W55750  38.327  33.397   0.450
84222W        W55751  38.468  44.236  10.527
84223W        W55752   9.735  22.152   1.608
84224W        W55753  11.574   9.209   1.437
84225W        W55754  36.206   3.712   2.919
84226W        W55755  32.527  31.102   1.275
84227W        W55756  44.976  44.014  11.007
84228W        W55757  11.796   1.664   1.932
84229W        W55758  17.678   8.685  14.930
84230W        W55759   3.691  44.950  14.950
84231W        W55760  18.057  26.393   1.930
84232W        W55761  23.773  29.057   1.934
84233W        W55762  13.272   6.385   0.474
84234W        W55763  22.369  35.911  10.683
84235W        W55764  11.865   6.407  11.090
84236W        W55765  38.153   4.700   4.606
84237W        W55766   8.178  28.221  14.310
84238W        W55767  36.454  39.903  10.630
84239W        W55768   7.766  24.668  14.981
84240W        W55769  23.340  33.469   0.729
84241W        W55770  42.240  11.565  13.795
84242W        W55771  13.652  26.670   1.007
84243W        W55772   4.984  24.904  11.896
84244W        W55773  15.681  15.055  14.130
84245W        W55774  21.314  42.810  13.644
84246W        W55775   3.216  17.185   1.233
84247W        W55776  28.902  39.597  13.204
84248W        W55777  18.808  32.664   3.217
84249W        W55778  41.291  18.711  11.531
84250W        W55779  15.165  22.221   4.596
84251W        W55780  44.958  26.651   2.778
84252W        W55781  17.102  13.675  14.982
84253W        W55782   5.877  10.753  11.702
84254W        W55783  40.337  26.192   2.138
84255W        W55784  37.498  34.942  11.677
84256W        W55785  26.888  16.196  14.046
84257W        W55786   7.452  22.192  10.665
84258W        W55787  13.754  37.520   4.532
84259W        W55788  20.145  13.309  14.492
84260W        W55789  41.293  44.535   1.701
84261W        W55790  32.960  43.424   1.995
84262W        W55791  43.273  31.076   4.480
84263W        W55792  34.818  38.355  13.797
84264W        W55793  13.639  42.434   1.269
84265W        W55794  39.747  36.502  11.927
84266W        W55795  44.781  25.746   2.705
84267W        W55796  28.488  17.045  14.064
84268W        W55797   8.240  27.945   4.503
84269W        W55798  30.157  19.072   1.790
84270W        W55799  34.470  15.903  11.020
84271W        W55800  14.344   9.394   1.809
84272W        W55801   1.943  13.168  11.371
84273W        W55802  27.932  38.911  10.267
84274W        W55803  43.060  15.584  12.129
84275W        W55804  36.853  25.962  12.890
84276W        W55805  35.541  33.015   2.844
84277W        W55806   8.431  18.415  11.409
84278W        W55807   7.882   5.778   2.165
84279W        W55808   7.135  15.624   0.838
84280W        W55809   1.977  16.797  11.635
84281W        W55810  29.963   8.566   0.432
84282W        W55811  20.210   0.985  10.515
84283W        W55812  18.702  11.848   0.962
84284W        W55813  37.063  17.647   0.014
84285W        W55814  33.607  11.361   4.434
84286W        W55815  33.895  23.537   4.812
84287W        W55816  27.557  15.343  10.652
84288W        W55817  25.159  27.243  13.450
84289W        W55818  36.040  23.501  14.397
84290W        W55819  11.777  43.073   2.860
84291W        W55820   0.107  21.507  12.382
84292W        W55821  21.844  12.818   1.693
84293W        W55822  17.566  22.138   2.475
84294W        W55823  32.247  20.997   4.793
84295W        W55824  34.889  37.284   2.998
84296W        W55825  31.932  13.365  10.738
84297W        W55826  13.632  28.978   4.807
84298W        W55827  33.014  22.305   1.337
84299W        W55828  19.021  14.798   2.791
84300W        W55829   7.797   3.938   2.339
84301W        W55830  20.769  27.070   4.079
84302W        W55831  43.275  43.288  11.444
84303W        W55832   0.838  41.333  14.223
84304W        W55833  25.440  17.756  14.372
84305W        W55834  24.464  31.904  12.848
84306W        W55835  39.048  43.404   1.769
84307W        W55836  27.686  39.356   1.320
84308W        W55837   8.958  33.685  10.947
84309W        W55838  21.683   8.413  13.405
84310W        W55839  44.004   7.141  14.542
84311W        W55840  27.434   2.022   1.912
84312W        W55841  34.838   1.508  14.846
84313W        W55842  25.705   1.026   0.514
84314W        W55843   2.760  20.696  12.540
84315W        W55844  10.803   4.711  14.362
84316W        W55845  13.313  16.507  13.691
84317W        W55846  18.946  22.391   0.560
84318W        W55847  20.959  11.929  13.627
84319W        W55848  42.409  40.105  10.865
84320W        W55849  35.312  40.053  11.946
84321W        W55850  26.633   8.924   4.616
84322W        W55851  25.756  28.983  12.640
84323W        W55852  38.933  41.908  13.650
84324W        W55853  14.267  44.530   3.774
84325W        W55854   2.954  37.411  11.987
84326W        W55855  15.623   7.204  12.936
84327W        W55856   2.245   4.259  12.139
84328W        W55857  22.527  27.725   0.739
84329W        W55858  42.705  25.618   5.055
84330W        W55859   6.343   9.779  10.327
84331W        W55860  42.604  18.808  14.766
84332W        W55861  40.367  22.296   2.291
84333W        W55862  24.762   5.261   1.774
84334W        W55863  44.153  38.054  11.287
84335W        W55864  41.365  41.534   4.383
84336W        W55865  37.888   3.851   2.805
84337W        W55866  25.617  39.640   4.035
84338W        W55867  14.899   5.360  11.621
84339W        W55868   5.864   0.714   0.590
84340W        W55869  33.953  25.095  13.969
84341W        W55870  18.244  44.970  11.870
84342W        W55871  23.023   9.933  11.544
84343W        W55872  27.859  36.480   3.762
84344W        W55873   1.460  15.652   0.780
84345W        W55874  43.954   7.253   2.872
84346W        W55875   9.282  14.796   0.672
84347W        W55876   3.363  31.394  10.666
84348W        W55877  16.533  19.211  11.998
84349W        W55878  22.509  18.585  13.093
84350W        W55879  13.872  22.623  12.985
84351W        W55880   5.598   6.460   2.403
84352W        W55881  44.533  10.432   3.140
84353W        W55882  10.874   2.210  12.980
84354W        W55883  43.812  20.565  10.665
84355W        W55884  43.982  42.387  13.596
84356W        W55885  31.519  42.199   3.343
84357W        W55886  33.694  27.568  12.878
84358W        W55887   9.328  33.113   4.937
84359W        W55888  16.226   6.328  14.421
84360W        W55889   2.293  15.319   2.793
84361W        W55890  39.893  12.757   1.814
84362W        W55891  36.844   5.721  12.035
84363W        W55892  44.278  35.468  14.566
84364W        W55893  14.781   6.136   1.150
84365W        W55894  33.556  12.380   3.745
84366W        W55895  12.757  31.612  14.283
84367W        W55896  35.334  31.999  12.462
84368W        W55897  36.973   9.659   0.082
84369W        W55898  14.590   3.047   0.836
84370W        W55899   3.027  41.536   2.590
84371W        W55900  23.716  15.149   0.776
84372W        W55901  37.772  36.930   4.461
84373W        W55902  36.346  39.808   3.188
84374W        W55903  13.899  14.369   2.348
84375W        W55904  39.331   2.816  13.287
84376W        W55905   1.868  32.147   1.757
84377W        W55906  22.592  28.485  11.388
84378W        W55907  29.674   4.604  12.182
84379W        W55908  16.290  22.219   4.488
84380W        W55909  27.079  37.924  12.516
84381W        W55910  38.847  19.848   1.321
84382W        W55911   5.200   7.639   1.292
84383W        W55912  30.508  27.160  10.504
84384W        W55913   2.697  19.845   0.997
84385W        W55914  21.430   7.966  13.554
84386W        W55915  32.436   7.264  12.109
84387W        W55916  30.586  36.605  14.260
84388W        W55917   4.010  16.595  11.102
84389W        W55918  31.770  10.808  14.329
84390W        W55919  44.910   6.161  12.466
84391W        W55920  21.760   0.571  10.190
84392W        W55921  20.775  31.053   3.656
84393W        W55922  11.216  27.729   1.755
84394W        W55923  32.636  18.042  12.637
84395W        W55924  11.764  11.867   5.114
84396W        W55925  14.456   7.876  14.395
84397W        W55926  38.282  27.890  11.184
84398W        W55927  31.427  11.650   4.408
84399W        W55928  31.595   2.365   0.051
84400W        W55929  10.171   6.453  11.111
84401W        W55930  24.420  11.674  10.560
84402W        W55931  12.462  26.797  11.105
84403W        W55932  40.241  39.570   2.400
84404W        W55933  28.632  34.331  13.538
84405W        W55934  31.485  44.369  14.955
84406W        W55935  35.353   6.748   4.264
84407W        W55936   5.155  22.803   1.928
84408W        W55937  35.948   8.667   0.829
84409W        W55938  44.007  28.557   0.237
84410W        W55939  43.380  12.158   1.470
84411W        W55940  41.193  22.037  13.013
84412W        W55941  12.031  26.222   3.246
84413W        W55942   5.139  42.428   4.764
84414W        W55943  25.663  11.749   0.632
84415W        W55944  37.777  24.098   0.336
84416W        W55945  25.186  42.417   1.210
84417W        W55946  38.441   1.490  14.338
84418W        W55947  15.181  15.452   4.675
84419W        W55948  32.939  43.067   2.974
84420W        W55949  33.399  18.577   0.355
84421W        W55950  25.956  24.698  13.539
84422W        W55951  30.324  31.278   0.895
84423W        W55952  34.388  28.593   2.191
84424W        W55953   2.707   9.915  11.191
84425W        W55954  37.117   4.926  14.954
84426W        W55955  10.324  35.483   3.628
84427W        W55956  27.728   3.383  12.835
84428W        W55957   9.280   7.197  12.819
84429W        W55958  33.586   1.617   5.347
84430W        W55959  10.822   8.322   3.526
84431W        W55960  16.733  24.848  10.635
84432W        W55961  21.964  29.013  11.675
84433W        W55962  24.099  40.969  13.614
84434W        W55963  29.438  35.061   4.706
84435W        W55964  24.782  35.686  14.392
84436W        W55965  29.371   2.613   4.054
84437W        W55966   8.856  36.479   1.394
84438W        W55967   9.610  16.850  10.802
84439W        W55968  25.521  32.315   3.696
84440W        W55969  21.665  30.715  14.877
84441W        W55970   0.227  25.998  11.519
84442W        W55971   1.978  22.494  13.317
84443W        W55972  32.943  17.064   0.247
84444W        W55973   1.783  14.390  13.371
84445W        W55974   1.571  18.758  13.586
84446W        W55975  40.017  28.451   4.321
84447W        W55976  20.671   8.215   3.626
84448W        W55977  23.466  17.315   0.934
84449W        W55978  35.885  28.186   1.736
84450W        W55979  35.065  17.475  11.177
84451W        W55980  38.440   2.849  10.702
84452W        W55981   2.814  14.678  13.289
84453W        W55982  12.910  15.037   0.860
84454W        W55983   2.986  10.191  10.701
84455W        W55984  31.582  41.284   4.854
84456W        W55985  17.006  37.871  11.496
84457W        W55986  22.653  25.983  13.628
84458W        W55987  27.815  22.566  10.911
84459W        W55988  39.892  23.564  14.986
84460W        W55989  29.618  24.660   2.254
84461W        W55990   3.133  21.006   3.245
84462W        W55991  10.188   3.046  10.659
84463W        W55992  38.835  29.563   3.701
84464W        W55993   5.630  23.434   4.831
84465W        W55994  43.211   5.239  10.546
84466W        W55995   9.384   1.961   2.012
84467W        W55996  18.816   6.877   2.821
84468W        W55997  17.206  22.786   3.190
84469W        W55998  42.679  10.849   4.931
84470W        W55999  17.258  33.354   2.345
84471W        W56000  26.739   3.461  12.946
84472W        W56001   8.513  34.463  10.622
84473W        W56002  34.026   4.412   4.719
84474W        W56003  42.909  11.228   4.661
84475W        W56004  36.462  35.795   0.940
84476W        W56005  27.714  14.980   5.501
84477W        W56006   5.942  19.700   2.919
84478W        W56007   6.151  33.912   3.430
84479W        W56008  44.268  19.231  11.422
84480W        W56009  10.820   8.834  13.358
84481W        W56010  29.627   3.404   1.940
84482W        W56011  28.577  30.014  12.514
84483W        W56012  30.465  28.386  12.850
84484W        W56013  16.319  14.219  12.456
84485W        W56014  19.636   0.257   4.370
84486W        W56015  22.592  38.281  10.651
84487W        W56016   1.067  41.890   0.191
84488W        W56017  37.908  25.464   0.327
84489W        W56018  44.844  43.520   4.140
84490W        W56019  34.931  26.626   0.379
84491W        W56020  37.054  41.409  11.648
84492W        W56021  35.124   2.307   3.230
84493W        W56022  18.368  14.857  11.954
84494W        W56023  25.693  26.228  13.896
84495W        W56024  28.346  36.362   3.680
84496W        W56025  22.938  10.718   0.729
84497W        W56026  31.995  14.089  11.243
84498W        W56027   8.530  33.500   0.453
84499W        W56028  27.930  42.026   3.406
84500W        W56029  44.245  44.514   4.068
84501W        W56030  17.687   5.633  13.583
84502W        W56031  22.198  39.106  12.477
84503W        W56032  11.169   2.777  12.414
84504W        W56033  35.107  23.169   4.211
84505W        W56034  17.799  36.979  10.659
84506W        W56035  10.560  17.253   2.561
84507W        W56036   4.519   7.805   4.766
84508W        W56037  36.879   5.501   4.614
84509W        W56038  15.220  29.611  11.366
84510W        W56039  18.303   2.233  14.071
84511W        W56040  42.902   3.356  13.926
84512W        W56041  42.081  34.842   0.726
84513W        W56042  34.329   7.450   1.443
84514W        W56043  16.865  31.087   3.721
84515W        W56044  25.946  27.762   4.025
84516W        W56045  22.755  19.675  12.110
84517W        W56046  43.928  11.767   4.062
84518W        W56047  12.165   2.813   3.147
84519W        W56048  42.369   7.354   1.044
84520W        W56049   7.763  16.073  13.063
84521W        W56050   2.585  29.131   3.646
84522W        W56051  37.272  17.490  12.579
84523W        W56052  10.450  11.681  14.391
84524W        W56053  28.602  19.394   2.582
84525W        W56054   8.445  40.956  12.769
84526W        W56055   9.599  12.595  13.740
84527W        W56056  34.635   7.923   0.863
84528W        W56057  21.152  11.262   4.590
84529W        W56058   0.481  24.049   2.582
84530W        W56059  44.289  12.045  11.592
84531W        W56060  15.162   5.755   0.017
84532W        W56061  13.432  18.908  12.547
84533W        W56062  34.526   3.229   4.172
84534W        W56063  29.152  39.457   3.366
84535W        W56064  39.910  11.842  13.158
84536W        W56065   8.812   3.489  11.686
84537W        W56066  34.346  44.189   3.325
84538W        W56067  29.597  26.956  12.605
84539W        W56068  38.547  16.247  14.786
84540W        W56069   5.789  27.053  12.898
84541W        W56070  24.195   0.066   1.956
84542W        W56071  19.975  25.471   1.828
84543W        W56072  24.057   8.085  11.114
84544W        W56073  16.771   5.270   4.106
84545W        W56074  40.469  35.617   0.879
84546W        W56075  18.559  20.467  10.681
84547W        W56076   9.885  43.676   1.800
84548W        W56077  24.464   3.724   4.335
84549W        W56078   3.764  11.363   2.850
84550W        W56079  17.704   2.891  14.479
84551W        W56080   0.030  35.939   0.230
84552W        W56081  23.652   5.102   1.765
84553W        W56082  36.157   0.916   1.790
84554W        W56083  35.163  39.063   3.401
84555W        W56084  36.304   6.267   4.539
84556W        W56085   4.783  38.216  13.506
84557W        W56086  42.074   0.470   1.244
84558W        W56087  11.746  18.219  10.266
84559W        W56088  20.738   5.099   4.433
84560W        W56089   9.286   6.405  13.774
84561W        W56090  42.968  35.353  13.053
84562W        W56091   4.640  30.004   0.730
84563W        W56092  44.717  10.752  12.362
84564W        W56093  38.895  14.819   2.228
84565W        W56094  15.582  27.599   0.864
84566W        W56095  44.346  20.167  11.706
84567W        W56096  21.165  17.309   0.348
84568W        W56097  17.141   8.117  10.742
84569W        W56098  16.730  41.901   4.614
84570W        W56099  28.207  14.528  12.038
84571W        W56100  30.394  20.960  12.125
84572W        W56101  16.110   2.836   4.965
84573W        W56102  31.121  22.905  11.614
84574W        W56103   7.552   8.620  12.954
84575W        W56104  34.068  22.058  12.923
84576W        W56105  27.582   5.153   4.344
84577W        W56106  38.004  21.605   0.906
84578W        W56107   7.845  25.336  13.898
84579W        W56108  15.382  43.280  12.342
84580W        W56109  15.616  21.726  13.291
84581W        W56110  23.628   7.687   2.076
84582W        W56111  15.237   3.469   2.826
84583W        W56112  16.672  22.032   5.141
84584W        W56113  37.378   7.870  11.276
84585W        W56114  28.127  10.194  12.767
84586W        W56115   5.412   7.221   0.407
84587W        W56116  14.244  39.097   1.198
84588W        W56117  26.177  13.553   4.558
84589W        W56118  44.754  38.394   3.306
84590W        W56119  39.351  42.581   2.816
84591W        W56120  32.131  40.921  13.502
84592W        W56121  14.423  42.611   0.503
84593W        W56122  39.994  25.272  12.037
84594W        W56123  24.279  30.164   1.343
84595W        W56124  39.495  20.992  10.050
84596W        W56125  34.491  32.923   2.823
84597W        W56126  29.539   2.411  11.904
84598W        W56127  14.847  17.804   1.898
84599W        W56128  30.667  15.913  13.820
84600W        W56129  42.461   5.843   1.348
84601W        W56130  23.415  17.215   2.704
84602W        W56131  35.436  17.675  14.345
84603W        W56132  25.131   7.148  13.615
84604W        W56133  35.292  18.669   3.200
84605W        W56134  34.747  33.408  10.217
84606W        W56135   6.841  39.521   4.323
84607W        W56136  35.483  23.437  12.024
84608W        W56137  41.788  37.393  10.911
84609W        W56138  26.486   9.349   5.398
84610W        W56139  23.012   3.557   2.339
84611W        W56140  19.186  27.695   1.662
84612W        W56141  42.550  28.086   1.862
84613W        W56142  13.787  43.362  10.743
84614W        W56143   4.677  11.798   2.655
84615W        W56144  38.821  10.458  14.966
84616W        W56145  43.334  38.105   1.510
84617W        W56146  35.580  11.228   4.393
84618W        W56147  33.887   7.179   1.384
84619W        W56148  29.416  23.229  13.894
84620W        W56149  13.333  43.495  13.378
84621W        W56150  30.465  38.262  14.001
84622W        W56151  40.437   9.231  14.426
84623W        W56152  22.646  20.621   3.345
84624W        W56153  16.713  36.285   2.249
84625W        W56154  20.306  35.925   0.983
84626W        W56155  33.218  41.393  14.376
84627W        W56156  26.493  30.905   3.142
84628W        W56157  14.756  24.279  12.048
84629W        W56158  28.430  24.689   4.956
84630W        W56159  40.242  25.716  12.060
84631W        W56160  31.523  27.635  12.131
84632W        W56161  29.470  21.540  13.051
84633W        W56162  42.488  16.793  14.471
84634W        W56163  11.339  33.534   3.832
84635W        W56164  36.384  41.514   4.171
84636W        W56165  33.785   0.470   3.098
84637W        W56166   2.047  21.638  13.281
84638W        W56167  15.677  20.150   3.786
84639W        W56168   9.885  39.783  13.700
84640W        W56169  40.722  25.371   0.390
84641W        W56170  11.202  18.518  13.953
84642W        W56171  17.865  12.735  14.293
84643W        W56172  21.455  13.727   1.021
84644W        W56173   5.392  27.903   0.032
84645W        W56174  35.639  38.188  11.550
84646W        W56175   0.185  44.350   1.932
84647W        W56176  24.444  26.189  10.763
84648W        W56177  24.058  41.956   2.966
84649W        W56178  42.821  39.745  13.503
84650W        W56179  28.604  29.315  13.254
84651W        W56180  22.628  44.399   3.124
84652W        W56181  13.184  31.404  13.609
84653W        W56182  39.034  33.580  14.303
84654W        W56183  41.488   1.732   0.428
84655W        W56184  19.258  40.768  12.277
84656W        W56185  36.156   0.867   0.510
84657W        W56186   6.453  28.670   2.896
84658W        W56187  39.485  44.029   1.862
84659W        W56188   3.770  22.070  11.545
84660W        W56189  11.866  28.963   4.680
84661W        W56190  17.560   4.722  12.529
84662W        W56191   0.860  11.309   2.030
84663W        W56192  17.843  43.917   3.249
84664W        W56193   2.348   3.327  11.575
84665W        W56194  35.196  35.543  12.691
84666W        W56195  40.946  29.477  11.653
84667W        W56196   9.664  17.326   2.776
84668W        W56197   1.469   3.284   3.299
84669W        W56198  24.566   9.331   2.903
84670W        W56199   3.936  13.911  12.916
84671W        W56200   2.795  15.469  11.081
84672W        W56201  20.716  30.564  12.489
84673W        W56202  19.702   9.491  10.628
84674W        W56203  17.965  10.569  11.070
84675W        W56204   7.401  44.555   1.403
84676W        W56205  15.249  28.992  13.679
84677W        W56206  42.193  13.582  11.461
84678W        W56207  32.111  34.644  11.184
84679W        W56208  17.538  16.556   2.647
84680W        W56209  34.921  44.621  12.395
84681W        W56210  17.105   7.543   0.237
84682W        W56211  27.758  22.220  10.495
84683W        W56212  34.882  21.420   2.457
84684W        W56213  35.939  40.056  10.775
84685W        W56214  26.649  10.168  10.611
84686W        W56215  11.340  10.560   1.747
84687W        W56216  28.748  25.547  10.694
84688W        W56217  42.314   7.943  13.829
84689W        W56218   0.678  15.145   1.637
84690W        W56219  37.283   4.400   5.045
84691W        W56220  29.965  39.514   1.424
84692W        W56221   0.296  19.506  10.659
84693W        W56222  15.484  31.921   4.148
84694W        W56223  27.550  29.665   2.181
84695W        W56224  16.304   1.313  11.920
84696W        W56225  18.823  31.909   3.668
84697W        W56226  27.027   5.159  14.527
84698W        W56227  41.895  43.495   0.377
84699W        W56228   3.169   9.718  14.165
84700W        W56229   1.961  11.910  14.851
84701W        W56230  25.465  20.289   1.825
84702W        W56231  26.926  39.393   4.116
84703W        W56232  13.775  26.029  14.362
84704W        W56233   1.548   5.251   4.530
84705W        W56234  27.681  19.281  11.216
84706W        W56235  30.927  21.788  11.181
84707W        W56236  22.114  24.908  14.513
84708W        W56237  35.907  30.582  10.736
84709W        W56238  39.287  20.506   4.936
84710W        W56239   7.814  10.690   0.523
84711W        W56240  13.319  34.010   1.889
84712W        W56241  34.124  37.608   1.548
84713W        W56242  24.653   9.591  14.813
84714W        W56243  15.629   8.574   2.706
84715W        W56244   9.307  26.963  13.801
84716W        W56245  32.578  41.843   3.755
84717W        W56246  41.016  27.116   2.009
84718W        W56247  11.224   5.410   4.492
84719W        W56248  33.861  33.989   4.187
84720W        W56249  23.581  12.834  11.522
84721W        W56250  16.067   6.735  13.466
84722W        W56251  39.329  40.681  12.580
84723W        W56252   2.963  27.559   0.813
84724W        W56253  23.946  29.875   0.907
84725W        W56254  21.734  19.357  14.961
84726W        W56255  27.909   7.255  12.357
84727W        W56256  33.972   6.702   4.282
84728W        W56257  21.762   1.717  10.734
84729W        W56258   2.482  42.800  12.347
84730W        W56259  17.331   2.179   3.256
84731W        W56260  23.199  42.880   2.464
84732W        W56261  15.330   0.224   4.148
84733W        W56262  25.221  36.206  13.687
84734W        W56263  33.650  19.588  11.124
84735W        W56264   1.860   6.714   3.606
84736W        W56265  33.952  41.869   2.649
84737W        W56266  19.921  12.081   4.659
84738W        W56267  27.593  24.503   4.386
84739W        W56268   3.697   5.694   4.039
84740W        W56269   5.936   4.230   1.809
84741W        W56270  20.022  43.278   0.336
84742W        W56271  43.909  21.584   0.210
84743W        W56272  28.523  23.229  11.025
84744W        W56273  43.248  43.335   1.369
84745W        W56274   9.174  29.520  13.898
84746W        W56275  14.770   1.843   2.193
84747W        W56276  22.626  17.362  13.494
84748W        W56277  15.317  12.109  10.263
84749W        W56278  33.989  30.749   1.393
84750W        W56279  20.550  15.037  14.807
84751W        W56280  32.143  25.454   4.395
84752W        W56281   8.800  12.034  10.607
84753W        W56282  37.507   8.202   0.813
84754W        W56283   2.872  21.640   0.454
84755W        W56284  25.570  24.060   4.778
84756W        W56285  27.023  37.601  13.918
84757W        W56286   8.106  40.760   3.618
84758W        W56287  34.285   2.675   2.150
84759W        W56288  25.986  24.008   0.868
84760W        W56289  24.531  43.053  14.052
84761W        W56290  28.600  21.958   4.831
84762W        W56291  20.845   0.766  11.768
84763W        W56292  31.407  31.087   1.636
84764W        W56293  10.972  36.341  13.877
84765W        W56294   3.177  16.171  11.959
84766W        W56295  15.773   2.262  12.028
84767W        W56296  42.968   4.772  10.381
84768W        W56297   6.711  34.902   0.889
84769W        W56298   1.204   4.244   3.586
84770W        W56299  13.299  29.694   4.546
84771W        W56300   0.023  27.455  11.409
84772W        W56301  20.183   6.205   5.079
84773W        W56302  16.503  23.984   0.945
84774W        W56303   6.896  11.270  13.261
84775W        W56304  37.498  25.651  11.155
84776W        W56305  12.828  36.023  12.955
84777W        W56306  14.136   3.184  13.576
84778W        W56307   6.710  26.555  12.929
84779W        W56308   5.915  14.336   0.767
84780W        W56309   7.314  12.174   3.260
84781W        W56310  16.440  23.969   4.638
84782W        W56311   7.378  32.957  11.173
84783W        W56312  11.901   5.957   0.751
84784W        W56313  22.535   2.038  13.789
84785W        W56314  26.114  41.035   1.267
84786W        W56315  43.691   5.288  11.776
84787W        W56316   0.531  18.581  12.939
84788W        W56317  33.041  41.090  10.891
84789W        W56318  11.787  40.832   3.305
84790W        W56319   4.769   4.939  14.440
84791W        W56320  30.155  19.536   0.369
84792W        W56321  35.811  26.039  12.944
84793W        W56322  17.514  20.769   0.337
84794W        W56323  33.298   1.945   0.327
84795W        W56324  28.892  14.749  13.561
84796W        W56325  17.022  18.097   1.223
84797W        W56326  27.581  41.750  12.463
84798W        W56327  17.538  17.758  11.590
84799W        W56328  22.498   7.013   0.587
84800W        W56329   7.428   5.935   2.394
84801W        W56330  11.866   7.256  14.973
84802W        W56331  15.623  37.519   1.715
84803W        W56332  19.095  41.232   1.610
84804W        W56333  34.015   7.284  14.123
84805W        W56334  20.954  13.350   3.779
84806W        W56335   0.819  27.523  13.302
84807W        W56336  31.399  37.923  12.514
84808W        W56337   9.391   1.053  11.006
84809W        W56338  10.207  40.276  14.385
84810W        W56339  10.306  38.942   2.169
84811W        W56340  23.314  37.504  14.339
84812W        W56341  22.986   1.697  12.877
84813W        W56342  36.572  10.338  10.167
84814W        W56343  19.985  41.766  10.565
84815W        W56344   4.376  30.815   2.382
84816W        W56345  27.990  10.927   3.290
84817W        W56346  14.190  27.915   3.631
84818W        W56347  12.114  23.595  10.410
84819W        W56348  44.261  26.969  14.005
84820W        W56349  35.333  21.086  10.718
84821W        W56350  14.363  36.951  11.192
84822W        W56351  10.876  43.687   3.215
84823W        W56352  19.176  20.587   4.201
84824W        W56353  36.851   5.847   4.226
84825W        W56354   2.982  15.032  14.997
84826W        W56355  42.996  14.614  13.248
84827W        W56356  20.158  15.693   2.755
84828W        W56357   6.447  10.072  13.383
84829W        W56358   4.841  29.073  12.575
84830W        W56359  34.801  25.683   0.397
84831W        W56360   1.500  33.920   3.195
84832W        W56361  27.013  35.996  12.021
84833W        W56362  40.865   3.725  14.911
84834W        W56363  36.413  17.024  14.094
84835W        W56364  10.924  22.075   3.208
84836W        W56365  43.205  42.011   4.255
84837W        W56366  24.028   3.376  13.898
84838W        W56367   6.437  35.552   5.161
84839W        W56368  24.758   4.800   1.315
84840W        W56369  25.397  25.178  11.958
84841W        W56370  26.946  17.585   1.240
84842W        W56371  31.660  10.743  13.456
84843W        W56372   9.791  39.993  14.428
84844W        W56373  23.913  35.547  11.075
84845W        W56374  38.311  16.005  11.591
84846W        W56375   6.184  12.639  13.026
84847W        W56376  28.658   7.157  14.854
84848W        W56377  22.485   4.456   4.162
84849W        W56378  25.987  22.671   2.337
84850W        W56379  41.418  43.326  14.108
84851W        W56380   6.152  10.892   0.430
84852W        W56381  24.204  25.961  12.838
84853W        W56382  22.646  26.577  14.339
84854W        W56383  12.800  12.854  10.470
84855W        W56384   2.519   1.296   1.811
84856W        W56385   8.371   9.793   0.224
84857W        W56386  12.222  31.637   1.680
84858W        W56387  41.747  37.887   0.792
84859W        W56388  18.252  16.011   0.311
84860W        W56389  18.170  27.257  12.521
84861W        W56390  35.664   8.056   4.959
84862W        W56391   0.840  27.676  14.496
84863W        W56392  32.367  29.438   2.737
84864W        W56393  12.310  44.824   2.800
84865W        W56394   0.968  13.253   2.656
84866W        W56395  23.053   3.459  11.196
84867W        W56396  25.098  26.735   4.518
84868W        W56397  17.768  22.501  14.850
84869W        W56398  25.899  22.081  13.954
84870W        W56399  30.658  23.123  11.505
84871W        W56400  22.089   9.935   1.346
84872W        W56401  38.519   0.850   4.486
84873W        W56402  23.031  21.780   2.823
84874W        W56403   2.838   0.860   4.298
84875W        W56404  23.451  32.837   3.220
84876W        W56405  32.345  44.472   2.842
84877W        W56406  10.762  26.932   1.696
84878W        W56407  38.003  43.365   4.879
84879W        W56408  10.184  39.337  11.403
84880W        W56409  21.207  23.758  12.511
84881W        W56410  39.876  40.505  14.808
84882W        W56411  34.062  17.119  10.693
84883W        W56412  23.688  36.868   3.197
84884W        W56413  22.044   4.038   3.158
84885W        W56414   3.556  37.326  14.576
84886W        W56415  40.932   4.524   0.365
84887W        W56416   3.011   1.814   0.439
84888W        W56417  22.084  26.390   0.303
84889W        W56418  40.882   0.917  12.608
84890W        W56419  40.388   4.627   0.337
84891W        W56420   4.914   1.710   4.622
84892W        W56421  23.883   6.034  12.739
84893W        W56422   7.867  30.211   1.089
84894W        W56423  20.382  16.209  14.073
84895W        W56424  15.710   8.329   2.261
84896W        W56425  22.152  12.633   3.546
84897W        W56426  33.536  28.387   2.720
84898W        W56427  17.816   1.341  11.866
84899W        W56428   5.630  19.594   2.543
84900W        W56429  37.539  14.608   1.635
84901W        W56430  29.023  27.680   0.053
84902W        W56431  31.407  22.719  14.910
84903W        W56432  43.607  31.383  10.766
84904W        W56433  42.275   1.251   0.300
84905W        W56434   0.768  44.145  14.850
84906W        W56435   1.486  30.101  12.234
84907W        W56436  37.815   8.190  12.127
84908W        W56437  40.543  18.602   1.757
84909W        W56438  34.354   5.180   1.422
84910W        W56439  36.453  27.541   3.761
84911W        W56440  38.871  29.118  12.435
84912W        W56441   7.912  42.287  14.925
84913W        W56442  19.928  31.942   2.008
84914W        W56443  13.176  15.102   3.703
84915W        W56444  26.553  18.245  12.624
84916W        W56445  44.083   6.740   3.818
84917W        W56446  22.615  13.935  13.468
84918W        W56447  44.807   7.513  13.609
84919W        W56448  39.107  44.742   3.629
84920W        W56449   0.966  13.724   3.504
84921W        W56450   3.856  10.114   4.516
84922W        W56451  24.637   0.009   1.671
84923W        W56452   2.614  37.498  10.038
84924W        W56453  32.078   0.462  12.832
84925W        W56454  44.101  19.607   0.764
84926W        W56455  39.252  15.211  10.280
84927W        W56456  43.819  36.603   1.754
84928W        W56457  12.930  27.279  10.777
84929W        W56458  14.395  26.905  12.547
84930W        W56459  27.518   0.292   4.698
84931W        W56460  28.800   2.916   2.713
84932W        W56461  25.190  30.588  12.063
84933W        W56462  42.980  43.338  13.241
84934W        W56463  20.103  28.663   1.258
84935W        W56464  18.414  37.483   2.822
84936W        W56465  22.758  32.745   4.759
84937W        W56466  22.937  40.032  14.282
84938W        W56467  14.305  30.375   1.248
84939W        W56468  22.172  21.382   2.498
84940W        W56469  20.853  19.176   1.300
84941W        W56470  20.860   8.812  14.361
84942W        W56471  38.887   7.414   2.380
84943W        W56472   2.774   8.923  14.334
84944W        W56473  33.866  19.735  12.430
84945W        W56474   8.175  24.413  14.784
84946W        W56475   8.895   3.715   2.016
84947W        W56476  39.547   6.017   3.769
84948W        W56477  32.558  32.318  13.902
84949W        W56478  28.298   2.818   2.801
84950W        W56479  39.400  29.618  13.370
84951W        W56480  32.714   6.523   0.868
84952W        W56481  37.470  13.231   3.284
84953W        W56482  19.569  34.366   3.664
84954W        W56483  10.493  15.924   3.722
84955W        W56484  37.923  41.006  11.347
84956W        W56485  39.334  38.914  13.253
84957W        W56486  26.349  24.603  10.739
84958W        W56487  24.102   6.608   0.221
84959W        W56488   4.940  34.345  12.895
84960W        W56489  44.773   2.072   3.190
84961W        W56490  28.564  33.711  11.625
84962W        W56491   2.510  43.187  10.738
84963W        W56492   7.958  35.564  13.547
84964W        W56493  40.306  10.166   1.847
84965W        W56494  20.954  16.282  12.883
84966W        W56495  30.663  38.496   2.764
84967W        W56496  15.949  24.835  12.328
84968W        W56497   3.912  23.569  10.618
84969W        W56498  21.963  44.448  13.463
84970W        W56499  43.401  33.593   1.768
84971W        W56500   4.243   6.663   1.727
84972W        W56501  28.151  38.464  13.455
84973W        W56502  23.003   0.946   3.830
84974W        W56503  36.511  18.694   3.893
84975W        W56504  21.647  43.029  14.753
84976W        W56505  27.568  29.030  12.432
84977W        W56506  42.447  25.999  14.235
84978W        W56507  40.263  24.313   1.759
84979W        W56508  35.014  42.255  13.315
84980W        W56509  12.555  37.848   1.316
84981W        W56510  14.129  35.955   1.936
84982W        W56511  13.187  37.977   4.426
84983W        W56512  27.959   3.757  12.024
84984W        W56513  20.445   1.158   3.620
84985W        W56514   8.412  13.899   4.805
84986W        W56515  13.071  43.127  11.584
84987W        W56516  21.823  28.969  13.694
84988W        W56517   8.636   9.335  14.041
84989W        W56518  14.690  22.285   2.292
84990W        W56519  40.016  18.393  12.051
84991W        W56520   0.513  30.550  14.017
84992W        W56521  16.282  28.898  13.100
84993W        W56522  42.834  15.627  11.667
84994W        W56523  27.236   2.282   2.336
84995W        W56524  20.642  29.474  12.635
84996W        W56525  36.432  13.443   3.406
84997W        W56526  36.962  17.136  12.854
84998W        W56527  43.948  44.863   4.415
84999W        W56528  36.918  31.157  14.868
85000W        W56529  18.566   1.666  10.203
85001W        W56530  23.740  21.985   3.207
85002W        W56531   5.260  21.195  10.717
85003W        W56532  10.907  34.073   2.296
85004W        W56533   8.235   6.679  11.573
85005W        W56534  18.366  20.882  11.135
85006W        W56535  32.607   6.299   3.615
85007W        W56536  17.768  40.589   3.391
85008W        W56537  27.422  18.043   3.719
85009W        W56538   0.865  42.861  10.702
85010W        W56539   8.743  33.480   4.307
85011W        W56540  19.127  32.791  12.617
85012W        W56541   5.654  18.417  14.094
85013W        W56542   5.772  25.502  13.111
85014W        W56543   0.815  44.717   1.790
85015W        W56544  41.371  26.386  11.612
85016W        W56545  14.627  43.309  12.975
85017W        W56546   5.470  28.933  14.773
85018W        W56547  18.159  40.018   4.272
85019W        W56548   0.437  36.413   2.422
85020W        W56549  31.957  24.181   5.571
85021W        W56550  33.527  36.861  11.069
85022W        W56551  35.366  25.115   2.257
85023W        W56552   7.120  22.003   3.640
85024W        W56553  26.223  41.355   2.295
85025W        W56554  20.492  12.895  10.093
85026W        W56555   7.260   5.745   1.001
85027W        W56556  10.771   8.116  12.540
85028W        W56557  10.744  13.616  12.020
85029W        W56558  21.224  18.737   3.863
85030W        W56559  18.402  27.708  12.560
85031W        W56560  33.206  36.062  14.653
85032W        W56561  37.463  29.601   4.313
85033W        W56562  37.063  17.844   1.572
85034W        W56563   5.849  30.704   3.695
85035W        W56564  14.232   9.189  11.903
85036W        W56565   8.487  14.826   1.865
85037W        W56566  11.692   2.259  11.834
85038W        W56567   7.360  25.575  13.986
85039W        W56568  17.188  19.428   2.607
85040W        W56569  28.420   5.754   3.117
85041W        W56570  19.007  12.194   3.660
85042W        W56571  19.526   5.940  11.520
85043W        W56572  34.362  29.041   4.039
85044W        W56573  42.609  17.413  12.559
85045W        W56574  24.039  26.508   4.192
85046W        W56575  27.494  40.360  11.148
85047W        W56576  16.343  11.965   4.077
85048W        W56577  22.271  18.521  12.579
85049W        W56578  32.499  38.905   3.243
85050W        W56579   2.300  40.936   4.161
85051W        W56580  35.608  43.870  14.336
85052W        W56581   4.819  12.853   1.783
85053W        W56582  31.640  41.803   2.485
85054W        W56583  24.566  20.269   1.728
85055W        W56584   4.272  27.202  14.918
85056W        W56585   4.863  31.721   3.976
85057W        W56586  34.142  28.058   0.043
85058W        W56587   6.879  17.537   2.355
85059W        W56588  42.093  11.154   3.221
85060W        W56589   4.709  43.588   3.689
85061W        W56590  43.477  17.083   0.822
85062W        W56591  12.762  31.677   1.338
85063W        W56592  36.126  13.671  13.404
85064W        W56593  38.105  34.399   1.333
85065W        W56594  33.029  23.471   0.444
85066W        W56595  30.826  39.023  14.292
85067W        W56596  19.524  19.530  14.490
85068W        W56597  21.588  37.847  14.227
85069W        W56598  10.845  38.609  11.938
85070W        W56599  26.776  24.743   2.946
85071W        W56600  17.536  17.628  14.081
85072W        W56601  37.337   4.200  14.198
85073W        W56602   4.615  39.440   2.172
85074W        W56603  31.616  36.878  12.486
85075W        W56604  17.606  39.425  13.550
85076W        W56605   6.283  37.921   3.911
85077W        W56606  14.697  10.686   1.830
85078W        W56607  36.353  11.703  13.414
85079W        W56608  18.336  27.706   3.197
85080W        W56609  14.475  25.548  11.014
85081W        W56610  15.985  22.965  14.421
85082W        W56611  13.215  30.438  14.062
85083W        W56612  10.127  31.694  12.321
85084W        W56613   3.331  27.957   1.172
85085W        W56614  16.120  28.327   0.773
85086W        W56615   3.502   1.734   2.286
85087W        W56616  24.615  44.098  10.736
85088W        W56617  37.130  30.960   0.342
85089W        W56618   7.357  35.360  14.322
85090W        W56619  42.769  28.675   2.251
85091W        W56620  30.253  37.418   3.139
85092W        W56621   0.503  39.033   3.440
85093W        W56622  29.519  17.821  13.968
85094W        W56623  43.859  38.562   4.711
85095W        W56624  34.966  37.924  10.499
85096W        W56625   4.997  10.823   1.841
85097W        W56626   6.455  40.864  12.526
85098W        W56627  40.123   0.439  12.256
85099W        W56628  40.827  40.372  12.916
85100W        W56629   0.837  43.299   1.858
85101W        W56630   9.977  17.129   5.003
85102W        W56631  25.475  10.145   3.133
85103W        W56632  13.241  17.064  11.340
85104W        W56633  23.600   2.747   4.116
85105W        W56634  34.492  26.466   3.765
85106W        W56635  28.377  19.404  12.573
85107W        W56636   2.175  40.445  11.559
85108W        W56637   4.024  29.919   1.698
85109W        W56638  23.675  21.766   4.945
85110W        W56639  12.714  22.640  12.051
85111W        W56640  43.817  27.437  11.371
85112W        W56641  30.640  32.191  10.291
85113W        W56642  11.795  36.044   4.111
85114W        W56643  31.959  23.500  11.464
85115W        W56644  33.144   9.576   3.585
85116W        W56645  22.518  14.634  14.092
85117W        W56646  37.762  30.420   3.744
85118W        W56647  26.249  18.952   3.543
85119W        W56648   4.904  27.553   3.282
85120W        W56649  42.294  22.741   4.062
85121W        W56650  29.695  22.103  11.868
85122W        W56651  24.533  31.060  13.138
85123W        W56652  28.625  34.351   1.360
85124W        W56653  44.733   3.746   2.664
85125W        W56654  20.310   4.112  13.957
85126W        W56655  40.385   6.710   0.740
85127W        W56656  16.608   0.402   1.968
85128W        W56657  13.245   8.116   3.733
85129W        W56658  23.068  33.979  13.213
85130W        W56659   6.668  11.583   2.680
85131W        W56660  29.623   5.214   3.278
85132W        W56661   7.862  14.552   0.050
85133W        W56662  30.007  11.855  13.327
85134W        W56663  17.532  11.383  14.060
85135W        W56664   9.817   2.358   1.342
85136W        W56665  40.053  18.180  11.110
85137W        W56666   7.368   3.461   4.584
85138W        W56667  34.935  39.748  12.454
85139W        W56668  36.026  18.819  13.263
85140W        W56669   1.681  27.949   2.005
85141W        W56670  20.600  14.012  11.085
85142W        W56671  42.339   5.573  11.600
85143W        W56672  39.670  44.394   4.142
85144W        W56673  37.274  30.313   3.696
85145W        W56674  16.140  17.140   1.442
85146W        W56675  44.027  10.132  11.524
85147W        W56676  28.870  29.083   3.876
85148W        W56677  20.535   5.284  10.969
85149W        W56678   3.356  21.188  14.351
85150W        W56679  43.148  42.321  10.596
85151W        W56680  16.615  17.908   4.998
85152W        W56681  42.412  34.558  11.388
85153W        W56682  34.102  16.538   1.421
85154W        W56683  31.575  40.140  14.310
85155W        W56684   1.691  15.528  12.429
85156W        W56685  22.659  35.737  14.293
85157W        W56686  26.063   0.004   3.253
85158W        W56687  38.236  10.225  11.283
85159W        W56688  25.573  41.998  11.141
85160W        W56689  40.703  13.296  13.095
85161W        W56690  10.895  23.110  14.060
85162W        W56691   1.256   5.754  10.640
85163W        W56692   6.882  20.240   1.411
85164W        W56693  44.039  37.989  13.867
85165W        W56694  26.406  14.809  12.384
85166W        W56695  14.638  31.973  13.022
85167W        W56696   2.986  26.997   4.823
85168W        W56697  25.166  25.098  11.518
85169W        W56698  42.406  22.645   3.076
85170W        W56699  33.802  28.734   3.425
85171W        W56700  10.792   1.316  12.955
85172W        W56701  17.824  42.443   2.392
85173W        W56702  38.995  25.289   4.156
85174W        W56703  28.421  35.999  11.523
85175W        W56704   4.420  37.753   2.154
85176W        W56705  34.246  25.793   5.595
85177W        W56706   2.940  41.251  13.431
85178W        W56707  37.684  36.430   0.925
85179W        W56708  18.978  31.718   0.554
85180W        W56709  34.337  40.361  14.944
85181W        W56710  14.823  44.508   3.760
85182W        W56711   8.175  12.180   3.068
85183W        W56712   6.732   0.766  10.686
85184W        W56713  22.113  39.488   4.236
85185W        W56714   7.704  15.722  14.323
85186W        W56715  29.918  31.032   3.888
85187W        W56716   3.407  37.735  13.327
85188W        W56717  18.700  26.333   1.047
85189W        W56718  37.430  36.343   3.232
85190W        W56719  27.757  26.901  13.545
85191W        W56720   4.812  23.855  13.664
85192W        W56721  37.075  10.698   0.469
85193W        W56722  40.354  40.692  14.958
85194W        W56723  30.712  38.262   3.875
85195W        W56724  23.250   9.726  13.068
85196W        W56725   4.164  20.141   3.866
85197W        W56726  10.191  22.763  14.851
85198W        W56727  30.488  27.970   1.779
85199W        W56728   9.513   7.724   3.906
85200W        W56729   2.338  18.725   4.496
85201W        W56730  19.234  23.147  10.812
85202W        W56731  20.078  16.564   3.743
85203W        W56732  18.526   8.870   3.424
85204W        W56733   3.920  11.130   1.446
85205W        W56734  36.928  16.065   3.706
85206W        W56735  32.396  41.068  13.058
85207W        W56736  23.790  40.521   4.515
85208W        W56737  13.473   5.618   0.950
85209W        W56738   9.331  37.447   3.670
85210W        W56739  26.248  14.706   3.225
85211W        W56740   8.465   5.440  11.140
85212W        W56741  31.995   3.873  14.118
85213W        W56742  17.218  32.116   0.916
85214W        W56743  33.394   3.003   3.230
85215W        W56744  15.003  11.334   4.972
85216W        W56745  13.318  42.564  13.345
85217W        W56746  37.940   3.349   1.886
85218W        W56747  29.115  37.482  10.887
85219W        W56748   1.877  17.936   1.034
85220W        W56749  26.559  39.749  14.631
85221W        W56750  24.411  19.658   0.533
85222W        W56751  43.876   5.699   1.149
85223W        W56752   5.417  23.586   2.320
85224W        W56753  14.603  22.351   4.136
85225W        W56754  13.887  20.009   0.342
85226W        W56755  26.106  22.032   4.278
85227W        W56756  41.496  43.774  10.796
85228W        W56757  36.507  38.598  12.107
85229W        W56758   8.750  34.367   2.560
85230W        W56759  35.431  28.862  14.772
85231W        W56760  38.341  39.845  13.116
85232W        W56761   7.909  28.208   4.042
85233W        W56762  36.638  26.208  11.921
85234W        W56763  29.710  19.652  13.549
85235W        W56764   5.156  39.645  11.158
85236W        W56765  25.007  33.518   2.182
85237W        W56766  21.057  36.971   0.376
85238W        W56767  30.800  43.054  11.515
85239W        W56768  42.381  36.411   4.935
85240W        W56769  25.316  32.542   0.836
85241W        W56770  23.303  36.334   1.367
85242W        W56771  21.484   6.402  14.960
85243W        W56772   6.317  19.355   4.578
85244W        W56773  41.761   0.149  14.018
85245W        W56774  29.015  14.935  12.068
85246W        W56775  32.425  36.450  14.474
85247W        W56776   0.314  15.106   4.528
85248W        W56777  39.463  44.440  14.048
85249W        W56778   5.997  39.360   0.870
85250W        W56779  22.262  28.149   0.879
85251W        W56780  22.800  41.377  14.802
85252W        W56781  43.635  25.002   4.174
85253W        W56782  11.875  23.526   1.292
85254W        W56783  38.554  42.888  11.282
85255W        W56784  34.766   2.685   3.112
85256W        W56785   6.367  21.225   1.292
85257W        W56786  32.647  17.297  10.532
85258W        W56787  10.308  22.671  10.874
85259W        W56788  36.371  38.235   4.533
85260W        W56789  21.505  20.150   1.695
85261W        W56790  34.001  18.236  11.914
85262W        W56791  19.700  31.681  12.103
85263W        W56792  32.369   7.889  11.558
85264W        W56793  31.987   5.802   0.739
85265W        W56794   7.255   0.720  10.799
85266W        W56795  13.379  23.577   4.631
85267W        W56796  27.647  16.020  12.109
85268W        W56797  25.846  11.349  14.958
85269W        W56798  34.638  10.259  13.539
85270W        W56799   8.715  36.610   1.896
85271W        W56800   3.308  10.964  14.726
85272W        W56801  24.218  29.666   1.418
85273W        W56802  18.137  19.164  10.594
85274W        W56803   2.658  10.737  11.509
85275W        W56804  23.665  38.495   4.701
85276W        W56805   3.232  42.368  13.046
85277W        W56806   1.901  24.336   4.507
85278W        W56807  27.500  18.578  13.864
85279W        W56808  11.806   9.717  12.154
85280W        W56809  43.908  11.351  14.369
85281W        W56810  25.971  31.055  14.789
85282W        W56811  37.073  43.236   3.338
85283W        W56812  16.011   8.718  12.875
85284W        W56813   0.074  36.778   0.512
85285W        W56814  25.263  36.557  11.255
85286W        W56815  15.327  22.681   3.925
85287W        W56816  42.267  44.828   3.281
85288W        W56817  40.416  14.593  11.441
85289W        W56818  40.218  32.183   4.008
85290W        W56819  33.032  31.043  11.723
85291W        W56820   1.993   8.204   0.009
85292W        W56821   8.900  36.533  10.679
85293W        W56822  29.373   5.370  11.513
85294W        W56823   3.890  18.319   4.052
85295W        W56824   5.205  33.563   0.750
85296W        W56825  30.051  32.635   2.382
85297W        W56826  20.371  18.241  13.545
85298W        W56827  19.728  33.873   3.665
85299W        W56828   9.410  27.592  12.608
85300W        W56829  32.591  22.606  12.042
85301W        W56830  16.981  31.163   2.285
85302W        W56831  29.676  27.115   0.820
85303W        W56832  42.672  20.225  11.569
85304W        W56833  12.368  36.174  11.520
85305W        W56834  24.698  14.740  12.067
85306W        W56835  22.409  21.808   2.357
85307W        W56836  23.501  36.622   0.373
85308W        W56837  23.950  17.948   3.586
85309W        W56838  14.475  20.961  14.302
85310W        W56839  36.940  15.596  10.738
85311W        W56840  19.596  14.840   1.244
85312W        W56841   1.889  24.471  11.254
85313W        W56842  13.907   7.891  13.934
85314W        W56843  31.081  40.597   3.683
85315W        W56844   8.780  14.658  11.228
85316W        W56845  25.047  10.250   4.525
85317W        W56846  15.320  30.498  14.026
85318W        W56847  35.939  25.628  11.545
85319W        W56848  34.907  11.828  13.259
85320W        W56849  36.268   6.904   3.277
85321W        W56850  11.110  33.862   2.723
85322W        W56851  29.602  16.642   2.977
85323W        W56852  27.834  36.501   2.861
85324W        W56853  19.340  32.879  13.443
85325W        W56854  27.887  21.525  14.332
85326W        W56855  39.391   2.883  10.649
85327W        W56856  37.015   8.738  13.468
85328W        W56857  11.933  16.304  13.447
85329W        W56858  32.079  31.350   1.176
85330W        W56859  19.222  18.563   4.607
85331W        W56860  16.776  10.434  13.510
85332W        W56861  20.961   0.141  11.177
85333W        W56862  24.028  16.300   1.416
85334W        W56863  19.415   4.911   9.964
85335W        W56864  38.868  20.273  10.600
85336W        W56865  35.065  13.523   1.902
85337W        W56866  19.810  38.874  12.535
85338W        W56867  38.875  34.174   0.437
85339W        W56868  17.458   4.260  14.968
85340W        W56869  38.914   4.104  13.924
85341W        W56870  27.598  24.420  11.342
85342W        W56871  23.246   0.709  12.060
85343W        W56872  43.300  16.561   2.812
85344W        W56873  16.275  31.908  14.907
85345W        W56874  14.802   5.682   3.176
85346W        W56875  29.964  26.572  10.190
85347W        W56876  33.373  24.615  13.237
85348W        W56877  39.861  42.588  10.775
85349W        W56878   9.608  16.727   1.903
85350W        W56879  23.982   1.281   0.823
85351W        W56880  13.227  34.706  11.551
85352W        W56881  43.247  31.813   3.376
85353W        W56882  34.922   3.706  11.220
85354W        W56883  31.061  36.443  14.060
85355W        W56884  41.331  20.499  11.454
85356W        W56885  17.134  14.158   2.903
85357W        W56886   5.715  16.036   4.601
85358W        W56887   9.365  21.748   0.872
85359W        W56888  20.191   1.381  11.813
85360W        W56889  22.349  14.754   3.759
85361W        W56890  40.516  38.560  14.802
85362W        W56891   3.911  44.251  11.188
85363W        W56892  31.057  32.636  14.965
85364W        W56893  16.530  32.054  13.033
85365W        W56894  41.508  44.717   2.216
85366W        W56895  32.533   3.255   1.743
85367W        W56896  36.101  37.955   2.851
85368W        W56897   0.952   3.191  13.023
85369W        W56898   8.371  38.036   0.718
85370W        W56899  32.980   2.265  12.464
85371W        W56900  27.622   3.484   1.796
85372W        W56901  29.192  27.528   2.854
85373W        W56902  33.644  13.081  14.314
85374W        W56903  24.485   9.084   3.332
85375W        W56904  44.678  11.707  12.471
85376W        W56905   3.408  10.563   0.535
85377W        W56906  22.721  18.129   2.238
85378W        W56907  35.512  25.004   1.764
85379W        W56908  33.801   2.939  13.852
85380W        W56909   5.241   4.173  10.687
85381W        W56910  17.301   4.848   3.593
85382W        W56911  41.672  21.226   0.383
85383W        W56912  43.824  13.074  12.127
85384W        W56913  23.153   3.217  14.332
85385W        W56914  26.269  34.410  11.199
85386W        W56915  12.238  40.026  14.843
85387W        W56916  33.470   8.182  12.306
85388W        W56917  27.483  33.696  12.164
85389W        W56918  25.003  22.094   4.914
85390W        W56919   9.343  20.195   4.167
85391W        W56920  33.615  37.945  14.396
85392W        W56921  26.027  27.997   0.126
85393W        W56922  12.794  41.063   1.822
85394W        W56923  30.308  23.751   2.160
85395W        W56924   0.290  29.676   3.697
85396W        W56925  20.508   5.232  11.519
85397W        W56926  39.413  39.178   1.465
85398W        W56927   7.341   3.509   0.479
85399W        W56928  23.368   8.382   2.796
85400W        W56929   8.735  42.021   0.200
85401W        W56930  36.908  42.868  11.180
85402W        W56931  17.725  43.569   1.406
85403W        W56932  25.233  18.971  12.422
85404W        W56933  15.572  42.289   1.297
85405W        W56934  15.224  22.325   1.209
85406W        W56935  42.271  37.037  12.898
85407W        W56936   6.719  44.935   3.123
85408W        W56937   4.609  29.236   2.278
85409W        W56938   0.277  34.079  13.401
85410W        W56939  25.099  13.709  10.733
85411W        W56940  10.405  18.861   3.196
85412W        W56941   7.862  18.987   3.568
85413W        W56942  40.449  39.431  13.318
85414W        W56943  26.064  21.087   0.232
85415W        W56944  26.925  27.476  13.050
85416W        W56945  44.806  13.834   3.178
85417W        W56946  12.647  13.754   0.277
85418W        W56947   1.952  39.791   0.227
85419W        W56948   0.055  36.348   1.546
85420W        W56949  31.590  22.121  12.525
85421W        W56950   3.631  31.943   0.871
85422W        W56951  13.101   7.050   1.227
85423W        W56952  38.965  29.627   3.188
85424W        W56953  32.081   8.926  10.193
85425W        W56954  38.508  35.909   3.844
85426W        W56955  26.649  26.715  12.082
85427W        W56956  11.370  41.301  12.285
85428W        W56957  19.497   6.751  11.176
85429W        W56958  14.614  18.224  11.156
85430W        W56959   0.215  43.271  10.734
85431W        W56960   6.362  23.729   2.376
85432W        W56961  17.086  33.155   1.878
85433W        W56962  19.693  28.195  10.691
85434W        W56963  21.189  36.904   1.795
85435W        W56964  43.386   5.888   1.819
85436W        W56965  37.981  14.272  11.397
85437W        W56966   4.369   6.281   0.942
85438W        W56967  26.612  15.737   3.236
85439W        W56968   1.746  35.084   3.210
85440W        W56969  18.144  29.519   1.219
85441W        W56970   7.949  38.888  12.038
85442W        W56971  25.192  37.366   1.887
85443W        W56972  26.668  19.245   0.679
85444W        W56973  41.071   7.434   3.636
85445W        W56974  23.079   9.069  14.907
85446W        W56975   8.883  13.891  13.108
85447W        W56976  10.227  21.153  14.472
85448W        W56977  19.581   3.669   2.301
85449W        W56978  15.386  18.597   0.675
85450W        W56979  19.323  36.965  13.382
85451W        W56980  11.330  40.562  13.007
85452W        W56981  23.146   7.697   2.293
85453W        W56982  22.690  32.496   0.232
85454W        W56983   1.447   6.221   4.060
85455W        W56984  33.406  27.601   0.191
85456W        W56985  16.350   0.957   4.139
85457W        W56986   7.123   7.366   3.438
85458W        W56987   7.908  42.290   4.192
85459W        W56988  32.575  29.963  11.193
85460W        W56989  39.653  23.972   1.173
85461W        W56990   4.562  40.434  13.893
85462W        W56991  10.429  12.263  10.967
85463W        W56992  16.120  16.568  12.424
85464W        W56993   5.864  21.061  12.517
85465W        W56994   0.040  26.288  14.253
85466W        W56995  43.871  34.471   4.604
85467W        W56996  39.102   9.417   2.948
85468W        W56997  42.674   4.351  14.901
85469W        W56998  22.500  29.175   4.120
85470W        W56999  38.782   5.848   9.924
85471W        W57000  27.578  41.852   3.066
85472W        W57001  43.732  13.883  13.445
85473W        W57002  30.984   2.281   2.001
85474W        W57003  38.531   0.081  12.360
85475W        W57004   2.960   4.889  12.548
85476W        W57005   5.065  16.246  14.463
85477W        W57006  44.794  34.576  11.478
85478W        W57007  14.142  10.246  11.049
85479W        W57008  41.381  13.711   3.140
85480W        W57009  41.940  43.827   1.446
85481W        W57010  35.539  28.115   3.767
85482W        W57011  42.369  27.423  14.342
85483W        W57012  40.298  39.493  11.934
85484W        W57013  33.016  44.074   2.143
85485W        W57014  31.663  21.188   3.654
85486W        W57015  39.642   2.955  11.082
85487W        W57016  26.685   3.352  14.709
85488W        W57017   4.743  11.809  11.664
85489W        W57018  32.205  43.470  14.367
85490W        W57019  11.497   0.246  14.231
85491W        W57020  36.671  25.360   5.337
85492W        W57021  24.700  20.631   3.687
85493W        W57022  16.661   0.240   4.350
85494W        W57023  41.789  35.171  10.814
85495W        W57024   5.342   7.485  13.925
85496W        W57025  41.955  27.294  12.530
85497W        W57026  25.175  18.698  14.497
85498W        W57027   0.239  40.520  10.503
85499W        W57028  41.959   8.689   2.276
85500W        W57029  34.601   9.807  12.896
85501W        W57030  28.727  20.320   3.851
85502W        W57031  20.278  14.204   2.789
85503W        W57032  24.759  12.318   4.093
85504W        W57033  26.525  40.255  14.611
85505W        W57034  16.694  42.839   1.748
85506W        W57035  20.496  28.470  10.985
85507W        W57036  33.496   4.176   0.786
85508W        W57037  39.312  21.347  11.912
85509W        W57038  42.476  18.705   4.658
85510W        W57039  21.023  28.751   0.739
85511W        W57040   9.358  18.710   4.608
85512W        W57041   3.798   2.237  13.679
85513W        W57042  38.023  22.367  12.344
85514W        W57043  20.914  34.313  10.371
85515W        W57044  27.642  14.672   2.427
85516W        W57045  39.977  20.284   2.370
85517W        W57046  33.957  20.577   2.969
85518W        W57047  30.587   4.237   0.478
85519W        W57048  32.043  22.008   0.220
85520W        W57049   1.522  12.096  13.527
85521W        W57050  18.445  35.080   3.758
85522W        W57051  16.742  34.111  14.396
85523W        W57052   3.340  20.848   0.875
85524W        W57053   3.322   7.284   2.253
85525W        W57054   3.400  33.773   4.650
85526W        W57055  34.914  19.604  13.438
85527W        W57056  25.568   3.093   3.872
85528W        W57057   6.926  19.213   2.255
85529W        W57058   4.396  22.009  11.171
85530W        W57059   0.142  23.191  13.369
85531W        W57060  30.072  16.708  14.106
85532W        W57061  37.315  26.107   0.385
85533W        W57062  26.591  14.433  13.299
85534W        W57063   9.708   2.496   3.174
85535W        W57064  24.568  44.972   4.189
85536W        W57065  13.794  41.796   2.311
85537W        W57066  38.870   6.308  13.068
85538W        W57067  40.963  29.400   0.342
85539W        W57068   4.338  37.091  13.042
85540W        W57069  25.291  43.959  14.880
85541W        W57070   5.274  32.886  11.592
85542W        W57071  35.586  35.842  14.942
85543W        W57072   1.473  28.050   0.945
85544W        W57073  29.959  44.004  12.008
85545W        W57074   9.912  32.231  13.398
85546W        W57075  28.804  17.817   0.897
85547W        W57076  24.541  16.190  13.376
85548W        W57077  44.688  37.551  14.919
85549W        W57078  13.167  18.095   4.911
85550W        W57079  17.604  18.997   0.923
85551W        W57080   3.926  10.050   3.318
85552W        W57081  35.151  27.674  10.554
85553W        W57082   6.830  18.058   4.275
85554W        W57083  20.772   5.175   2.639
85555W        W57084  12.638   0.753  14.445
85556W        W57085  19.505  37.033   4.115
85557W        W57086  17.032  31.242   3.096
85558W        W57087  39.443  41.523  10.683
85559W        W57088  33.898  23.540   2.918
85560W        W57089  43.151  19.842  12.845
85561W        W57090  43.783  22.478   1.672
85562W        W57091  13.923  25.133   4.249
85563W        W57092  15.215  15.975   4.588
85564W        W57093   0.627  19.267   4.171
85565W        W57094  33.297  34.488  10.032
85566W        W57095   2.233  27.192  11.515
85567W        W57096   0.050  36.422   2.816
85568W        W57097  24.984  21.166   4.924
85569W        W57098  34.098  28.849  14.918
85570W        W57099  42.130   2.363   1.224
85571W        W57100  21.067  13.163  11.679
85572W        W57101  44.179  29.065   0.857
85573W        W57102   2.868  13.296   0.439
85574W        W57103  21.608  25.085  14.422
85575W        W57104  23.430   0.480   1.875
85576W        W57105   3.496   4.642   3.868
85577W        W57106  30.701  33.479   3.559
85578W        W57107   9.644   8.875   4.134
85579W        W57108   9.265  34.557  10.191
85580W        W57109  37.298  15.939   4.080
85581W        W57110   9.965  24.667  13.038
85582W        W57111  38.078  27.438   3.189
85583W        W57112   4.882   2.952   9.947
85584W        W57113  29.611   5.972   4.512
85585W        W57114   4.367   9.265  13.517
85586W        W57115  25.523  11.114   2.828
85587W        W57116  37.372  37.513   4.091
85588W        W57117   9.969  15.038   4.083
85589W        W57118  36.821  22.689   2.371
85590W        W57119  15.785  39.278   0.273
85591W        W57120  22.081  43.029  11.620
85592W        W57121  38.971   9.309   0.559
85593W        W57122  35.506  15.746   1.630
85594W        W57123  35.493  25.740  14.503
85595W        W57124  23.507   0.986   3.874
85596W        W57125  39.337  19.012   3.861
85597W        W57126  10.197   6.010  12.070
85598W        W57127  29.240  38.533   1.346
85599W        W57128  38.074  36.999  11.474
85600W        W57129   9.444   1.652  14.556
85601W        W57130  10.279  30.452  13.435
85602W        W57131  18.352  39.541  13.796
85603W        W57132  13.361  12.564   2.810
85604W        W57133  42.835  18.262  12.734
85605W        W57134  10.214  34.431   1.360
85606W        W57135  22.033  29.643   4.662
85607W        W57136  14.331  19.165   0.263
85608W        W57137  27.518   4.882   4.788
85609W        W57138  11.794  39.696   2.560
85610W        W57139  20.683   5.743  11.448
85611W        W57140  17.417  13.110  10.775
85612W        W57141  36.828  11.257  12.472
85613W        W57142   6.597  39.365  14.997
85614W        W57143  10.335  26.466  14.784
85615W        W57144  14.508  18.159  13.839
85616W        W57145  23.124  13.818   0.276
85617W        W57146  23.025   5.337  11.218
85618W        W57147   4.787  25.486   4.229
85619W        W57148  33.837  44.992  11.525
85620W        W57149  19.068   7.241   0.766
85621W        W57150  21.068  43.929   0.978
85622W        W57151  37.787  25.713  12.857
85623W        W57152  12.318   4.021  10.527
85624W        W57153  31.867  35.862   4.599
85625W        W57154  38.470  32.175  14.440
85626W        W57155  36.677   8.685   3.224
85627W        W57156   6.402  19.484   5.486
85628W        W57157  38.778   7.423  11.338
85629W        W57158  11.823  35.440  12.085
85630W        W57159  17.571  39.347  10.584
85631W        W57160  27.135  32.777  10.278
85632W        W57161  33.954   9.087  10.534
85633W        W57162  32.003  28.977  12.082
85634W        W57163   2.051  41.409  11.304
85635W        W57164  22.472  28.950  11.613
85636W        W57165   1.971   4.239   4.245
85637W        W57166  42.553   9.908  10.254
85638W        W57167   1.123  27.989   1.339
85639W        W57168  21.175  25.993  12.156
85640W        W57169  17.707  32.801   0.659
85641W        W57170  38.523  35.445  13.380
85642W        W57171  44.988  39.292   1.848
85643W        W57172  37.603  14.150   1.880
85644W        W57173   7.178  43.006   0.695
85645W        W57174  30.129   1.768  13.079
85646W        W57175  33.923  21.163  13.898
85647W        W57176  19.625  36.496   4.149
85648W        W57177  19.267   0.892  14.394
85649W        W57178  15.154  41.034  14.375
85650W        W57179  11.427  44.762   0.956
85651W        W57180   2.988  11.127   3.291
85652W        W57181  16.775   1.331  12.156
85653W        W57182  17.342   6.159  14.918
85654W        W57183  36.949  34.599   1.724
85655W        W57184  37.340   7.860   4.608
85656W        W57185   4.900  28.087   3.053
85657W        W57186   6.431  24.171  14.227
85658W        W57187  17.430   0.801  11.014
85659W        W57188   4.016   1.994  14.125
85660W        W57189   7.768  20.962  14.339
85661W        W57190  16.593  33.895  14.884
85662W        W57191  19.606  18.304  12.200
85663W        W57192   4.729  30.277   1.164
85664W        W57193  33.420  28.665   3.753
85665W        W57194  31.857  16.043  11.193
85666W        W57195   3.431  34.928  10.537
85667W        W57196   3.971   3.759   2.614
85668W        W57197  37.596  20.745   3.789
85669W        W57198   2.912  38.118   1.234
85670W        W57199  42.262   5.221  10.923
85671W        W57200  37.465   6.382   0.533
85672W        W57201  23.654   6.106   3.756
85673W        W57202  42.794  36.916  12.017
85674W        W57203  23.698   6.542  13.868
85675W        W57204  21.575  24.210   4.551
85676W        W57205  36.572  22.200   4.625
85677W        W57206  19.676  42.106  13.048
85678W        W57207  22.067  34.035   4.018
85679W        W57208   4.664  19.945  12.978
85680W        W57209  37.136   0.986  12.042
85681W        W57210  28.936   0.852  12.810
85682W        W57211   3.739   1.053   1.213
85683W        W57212   1.861  35.422   4.347
85684W        W57213  42.782  35.297   4.932
85685W        W57214  32.948  24.380  11.087
85686W        W57215  24.753  27.064  14.413
85687W        W57216  24.414  26.165  14.508
85688W        W57217   3.364   8.527   4.250
85689W        W57218  29.246  35.016  11.189
85690W        W57219  13.855  27.577  14.317
85691W        W57220   6.993  37.574   3.783
85692W        W57221  39.946  37.292   3.839
85693W        W57222  17.365  38.703  12.539
85694W        W57223  38.358  14.861   3.962
85695W        W57224  14.668  32.213  11.990
85696W        W57225  15.932  40.139   0.828
85697W        W57226  13.649  27.762  13.850
85698W        W57227   5.280  39.871   5.144
85699W        W57228   6.590  37.597  11.551
85700W        W57229  22.718   4.193   3.765
85701W        W57230  27.648  20.549  14.408
85702W        W57231   3.241  44.509   1.708
85703W        W57232  31.782  40.597  14.439
85704W        W57233   4.360  17.808   0.668
85705W        W57234  42.052  40.380  10.346
85706W        W57235   3.947  20.275   0.028
85707W        W57236   5.684   3.667   2.681
85708W        W57237  12.384  18.205  13.090
85709W        W57238  12.788  24.138  10.681
85710W        W57239   0.657  18.003   1.620
85711W        W57240   0.212   2.312   4.976
85712W        W57241  36.016  39.477   4.585
85713W        W57242  28.960  31.175   1.691
85714W        W57243  33.023   9.870  11.544
85715W        W57244  16.933   3.254  10.808
85716W        W57245   0.260  20.036   4.558
85717W        W57246  23.026  12.432   1.053
85718W        W57247  35.163  31.538  12.572
85719W        W57248   7.623   5.045   0.321
85720W        W57249  12.933  26.924   0.039
85721W        W57250  32.583  37.628  13.518
85722W        W57251  23.029  26.789  11.205
85723W        W57252  33.116  13.845  10.925
85724W        W57253  10.341  23.493   3.598
85725W        W57254   6.797   3.659   3.668
85726W        W57255  44.758  25.059  13.851
85727W        W57256  29.689  33.621   0.049
85728W        W57257   0.783  36.546  11.476
85729W        W57258   3.719   1.262  12.684
85730W        W57259  11.136  19.401   0.322
85731W        W57260  34.874  18.644  11.572
85732W        W57261  24.728  12.189  11.205
85733W        W57262   1.926  43.091   1.353
85734W        W57263  21.747   4.163  11.145
85735W        W57264  42.284  21.268  13.299
85736W        W57265  15.145  44.740  14.863
85737W        W57266  31.512  13.130   0.522
85738W        W57267  10.076  42.324   0.815
85739W        W57268  37.486   4.719   3.410
85740W        W57269  31.998   6.852   3.768
85741W        W57270  23.272   5.730   0.745
85742W        W57271  16.867  20.970   3.257
85743W        W57272  30.578  24.085  11.627
85744W        W57273   6.388  10.750   3.439
85745W        W57274   9.131   9.711   2.356
85746W        W57275   0.316  30.635   1.855
85747W        W57276  13.797  41.277  12.500
85748W        W57277  19.428  15.135   2.246
85749W        W57278   4.699   6.780   2.891
85750W        W57279  29.059   8.457  14.264
85751W        W57280  29.642   6.331  14.764
85752W        W57281  14.529  36.859  12.391
85753W        W57282  44.877  13.362  13.092
85754W        W57283  42.837  32.933  12.912
85755W        W57284  18.209  14.667   3.133
85756W        W57285  38.826   2.738  14.834
85757W        W57286  19.649  16.856  12.038
85758W        W57287  15.683  17.390   3.110
85759W        W57288   9.726  37.071   4.940
85760W        W57289  40.407  20.684   3.541
85761W        W57290  14.716  24.764   4.078
85762W        W57291  40.445  24.107  12.453
85763W        W57292  26.396  21.169  14.329
85764W        W57293  26.940  22.444  10.761
85765W        W57294   3.176  40.780   4.048
85766W        W57295  42.873  28.123   3.196
85767W        W57296  18.383  20.685  13.811
85768W        W57297   7.473  20.254   2.247
85769W        W57298  30.346  32.798   0.316
85770W        W57299  41.054  40.835   3.712
85771W        W57300  31.120   2.276  13.390
85772W        W57301   3.649  20.198   3.965
85773W        W57302  14.205   3.778  10.486
85774W        W57303  22.689  36.160   0.218
85775W        W57304  16.254  28.398  11.181
85776W        W57305  39.292  22.501   4.028
85777W        W57306  19.148   8.866   2.235
85778W        W57307  11.077  20.836   0.318
85779W        W57308  13.503  11.817   4.969
85780W        W57309   6.807   1.690  12.129
85781W        W57310  13.332  12.681   0.500
85782W        W57311   4.890  10.034   1.383
85783W        W57312  17.153  36.513   0.240
85784W        W57313  36.079  11.263  13.631
85785W        W57314  21.664  16.718   4.212
85786W        W57315  34.791  23.167   1.185
85787W        W57316  18.216  20.406  11.075
85788W        W57317  14.491  28.029  10.713
85789W        W57318  41.008  36.905   0.648
85790W        W57319   3.915  15.172   2.143
85791W        W57320  17.003  37.017   0.450
85792W        W57321  34.600  31.108   1.805
85793W        W57322  22.269   6.145   0.506
85794W        W57323  37.080  44.505  12.061
85795W        W57324   0.228  37.349  14.977
85796W        W57325  44.392   8.215  13.490
85797W        W57326  30.048  40.339  14.253
85798W        W57327  31.008  32.646  13.348
85799W        W57328  31.169  29.048  14.304
85800W        W57329   9.284  17.243  10.605
85801W        W57330  21.652  41.462  10.342
85802W        W57331   4.477   4.630   4.188
85803W        W57332  33.792  14.868  13.416
85804W        W57333  31.168  43.198   1.008
85805W        W57334   0.269   5.322   3.925
85806W        W57335  12.384   6.268  13.876
85807W        W57336  24.476  10.912  10.967
85808W        W57337  12.798   8.824   2.334
85809W        W57338  34.501  33.552   3.256
85810W        W57339  31.370  41.964  12.531
85811W        W57340  28.215  34.621  13.435
85812W        W57341  35.254   8.872  12.190
85813W        W57342   0.445  40.239   3.134
85814W        W57343   7.450   6.173   0.254
85815W        W57344  33.048  11.720   1.424
85816W        W57345  26.737  26.754   2.311
85817W        W57346  16.289  19.293   2.864
85818W        W57347   8.939  24.123   0.825
85819W        W57348  44.373  24.174   3.381
85820W        W57349  15.700  14.464  10.826
85821W        W57350  27.485   4.254   3.144
85822W        W57351  36.400  34.586  13.987
85823W        W57352  24.653   6.242  11.562
85824W        W57353   6.334  26.827  14.910
85825W        W57354  39.488  14.701  10.796
85826W        W57355  44.824  35.163  11.561
85827W        W57356  13.210  11.216   0.446
85828W        W57357  26.109   9.940  12.546
85829W        W57358  15.541  26.270   4.766
85830W        W57359  40.312  31.022   1.674
85831W        W57360  38.842  20.178  11.809
85832W        W57361  22.858  26.099   1.207
85833W        W57362  22.316  40.439   0.015
85834W        W57363  32.656  34.590   4.663
85835W        W57364  36.633  42.949  11.595
85836W        W57365  22.660  30.679   4.215
85837W        W57366  35.113  33.951   3.827
85838W        W57367   9.189  30.122   1.340
85839W        W57368  42.983  12.871  13.456
85840W        W57369  41.323   1.514   2.695
85841W        W57370  38.253  13.147   3.707
85842W        W57371  42.935  23.625  10.839
85843W        W57372  42.906  27.426  12.881
85844W        W57373  26.641  16.319   2.213
85845W        W57374  42.304   7.831   0.736
85846W        W57375  24.906  26.147  14.332
85847W        W57376  21.302  14.566  14.428
85848W        W57377   5.446  12.874  11.165
85849W        W57378  29.467  13.166  12.977
85850W        W57379  22.769   1.254  14.727
85851W        W57380  22.711   1.467   0.230
85852W        W57381  19.491  29.311  11.359
85853W        W57382  20.145  18.737   1.922
85854W        W57383  36.788  43.095   3.902
85855W        W57384   1.718   4.762   2.769
85856W        W57385  42.609   0.284   4.234
85857W        W57386   0.443   1.694   2.279
85858W        W57387  14.855  12.143   0.446
85859W        W57388  36.313  27.826   4.185
85860W        W57389  12.802  15.815   4.756
85861W        W57390   9.680  44.493   1.388
85862W        W57391   4.642  15.383  14.724
85863W        W57392  10.957  30.006  14.022
85864W        W57393  20.752  16.050  11.100
85865W        W57394  37.545  18.312  14.775
85866W        W57395  17.079  14.138   2.005
85867W        W57396  12.108  32.417  12.084
85868W        W57397  33.142  37.281   4.525
85869W        W57398   0.832  14.963   3.330
85870W        W57399  21.523  28.967   0.776
85871W        W57400  12.438  20.167   4.207
85872W        W57401  13.064   7.393   0.232
85873W        W57402  13.217  15.593   4.567
85874W        W57403  15.665  39.047  12.112
85875W        W57404  18.067   7.203  12.805
85876W        W57405  37.497   0.761  13.852
85877W        W57406   1.497   8.330  14.777
85878W        W57407  32.759  10.199   4.098
85879W        W57408   6.015  43.720   3.316
85880W        W57409  23.154  35.573   2.689
85881W        W57410  24.450   7.207  11.523
85882W        W57411  41.294   6.335   4.310
85883W        W57412  19.260  23.153  14.791
85884W        W57413  44.424  41.359  12.497
85885W        W57414   4.008  36.503  13.361
85886W        W57415  34.027  18.772   0.684
85887W        W57416  35.763   5.773   0.385
85888W        W57417  41.324  15.091   3.321
85889W        W57418  40.481  16.628  11.185
85890W        W57419  34.597   8.763   0.241
85891W        W57420  21.045   0.640   4.131
85892W        W57421   8.691  13.776  11.346
85893W        W57422  17.678   5.316  10.808
85894W        W57423  27.958  11.588  13.478
85895W        W57424  43.120  19.143  14.549
85896W        W57425  36.565  34.926  11.218
85897W        W57426  26.985  24.173  13.017
85898W        W57427  13.022  35.471  13.918
85899W        W57428  35.524  18.941  13.403
85900W        W57429  19.057  22.334   3.672
85901W        W57430  18.745  27.023  14.482
85902W        W57431  31.625   8.671   5.176
85903W        W57432  25.379  20.549   1.397
85904W        W57433  13.659  44.444   2.686
85905W        W57434  18.509  28.265   2.312
85906W        W57435  33.230   2.438   2.734
85907W        W57436  44.768  40.782  11.150
85908W        W57437  41.998   8.761  13.091
85909W        W57438   4.478   0.409  14.751
85910W        W57439  38.561   8.459  11.455
85911W        W57440  16.827   1.427  14.102
85912W        W57441  41.221  39.532  13.918
85913W        W57442  22.920   8.841   0.409
85914W        W57443  35.386   5.516  11.713
85915W        W57444   0.052  11.884   3.235
85916W        W57445  12.121   1.026   3.160
85917W        W57446  19.109  28.738   1.629
85918W        W57447  15.520   3.881  11.930
85919W        W57448  43.014  41.410  12.727
85920W        W57449  27.703  40.363   3.655
85921W        W57450  21.656  40.145  10.666
85922W        W57451  41.999  42.301  11.206
85923W        W57452   5.211  20.132  10.704
85924W        W57453  34.605  29.927   3.378
85925W        W57454   4.743  10.621   5.059
85926W        W57455  21.239  28.401  14.461
85927W        W57456  20.033  19.091   4.090
85928W        W57457  30.174  16.022  14.393
85929W        W57458   5.719  29.652  12.800
85930W        W57459  12.824  16.189  11.073
85931W        W57460  27.509  32.717  13.984
85932W        W57461  42.921  42.585   0.836
85933W        W57462   5.885  11.574  13.875
85934W        W57463  40.918  32.359  14.940
85935W        W57464  33.266  22.366  13.525
85936W        W57465   6.481   4.245   1.755
85937W        W57466   7.865  16.230  14.789
85938W        W57467   3.792  16.028  11.155
85939W        W57468  37.320   1.919  13.004
85940W        W57469   2.281  35.859  14.964
85941W        W57470  25.026  16.266  12.496
85942W        W57471  35.555  20.528   3.216
85943W        W57472  40.219  16.144  12.102
85944W        W57473   2.242  18.663   3.718
85945W        W57474   7.337  31.479  12.714
85946W        W57475  31.448  43.938  11.182
85947W        W57476  16.941  15.064   2.804
85948W        W57477  10.906   1.011   4.633
85949W        W57478  32.534  29.474  14.217
85950W        W57479  23.118  10.085  13.427
85951W        W57480   4.818  23.498   4.562
85952W        W57481  32.507  39.096  13.515
85953W        W57482   8.382  24.036  11.672
85954W        W57483  29.106  41.494  10.421
85955W        W57484  16.670  13.724  13.073
85956W        W57485  20.635   3.213   2.529
85957W        W57486  23.157  33.999  11.674
85958W        W57487  38.975  14.952   2.745
85959W        W57488   7.203  40.024   2.785
85960W        W57489  11.755  42.331   0.831
85961W        W57490  17.235  32.054   2.825
85962W        W57491   6.469  18.996   2.712
85963W        W57492   3.207  27.458   1.271
85964W        W57493  33.590  33.645   1.452
85965W        W57494  39.044  23.509  14.393
85966W        W57495  28.449   4.975  11.144
85967W        W57496  11.124  11.789   2.404
85968W        W57497  14.938  31.877  11.125
85969W        W57498  35.989  16.268   1.251
85970W        W57499  39.747  25.476  11.617
85971W        W57500  21.646  34.627   2.694
85972W        W57501   7.836  28.962  11.108
85973W        W57502  17.314  35.286  12.616
85974W        W57503   6.891  21.566   3.802
85975W        W57504  13.834   7.192   5.095
85976W        W57505  10.352  20.197  11.827
85977W        W57506  14.098  33.573   0.971
85978W        W57507  38.552  30.512   2.889
85979W        W57508   3.706  18.419  11.300
85980W        W57509  19.772   4.893   4.148
85981W        W57510  19.982  36.928  14.356
85982W        W57511  31.120  21.637  13.888
85983W        W57512  36.702  13.773   4.188
85984W        W57513  16.942  25.416   2.230
85985W        W57514  30.717   2.451  13.091
85986W        W57515  44.151  27.020   2.949
85987W        W57516  21.352  34.607  10.268
85988W        W57517  21.603   7.729   2.664
85989W        W57518  31.192   2.261  12.878
85990W        W57519  19.437   4.450  14.310
85991W        W57520  18.601  43.944  14.606
85992W        W57521  10.929  43.434   2.520
85993W        W57522  26.608   1.923  10.029
85994W        W57523  21.604   1.274  10.917
85995W        W57524  27.216  31.119   1.390
85996W        W57525  25.178   2.952   2.717
85997W        W57526   5.231  41.772  12.469
85998W        W57527   0.210  31.023  12.892
85999W        W57528   1.344  35.597   2.729
86000W        W57529  15.470   1.982  11.148
86001W        W57530  30.927  39.423   0.431
86002W        W57531  44.986  28.438  10.557
86003W        W57532  18.180  25.540   4.573
86004W        W57533  12.733  22.542   2.724
86005W        W57534  38.215  36.404   0.803
86006W        W57535  17.852   3.262  11.951
86007W        W57536  22.079  24.056  12.341
86008W        W57537  34.176  29.041  14.385
86009W        W57538  10.398  24.627   1.510
86010W        W57539  29.201   0.944   3.164
86011W        W57540  21.177  41.968  13.344
86012W        W57541   2.765  35.464   2.346
86013W        W57542   9.200  21.538  14.292
86014W        W57543  33.339   8.247  14.324
86015W        W57544  12.836   8.809  11.043
86016W        W57545  25.278  10.830   4.629
86017W        W57546  35.837   4.006   4.299
86018W        W57547  35.536   0.644   1.915
86019W        W57548   4.209  34.170   4.044
86020W        W57549  39.463   5.269  11.367
86021W        W57550  29.275   7.307   0.512
86022W        W57551   2.190  14.683  14.443
86023W        W57552  32.155  13.077   1.328
86024W        W57553  33.967  14.235   5.087
86025W        W57554  28.358  18.678   4.382
86026W        W57555   6.323  33.453   3.109
86027W        W57556   5.469  15.769   4.161
86028W        W57557   5.356  30.434  10.693
86029W        W57558   1.850  34.498   3.577
86030W        W57559   7.331  23.822   0.065
86031W        W57560  30.097  24.934  14.321
86032W        W57561   2.473  10.744   0.139
86033W        W57562  15.220  41.807   4.420
86034W        W57563  37.416  31.232   0.001
86035W        W57564  21.979  30.059  14.345
86036W        W57565  29.099  24.051   0.731
86037W        W57566  31.844  40.056   0.623
86038W        W57567  15.258  40.784   1.654
86039W        W57568  41.605  25.711   2.621
86040W        W57569  16.315  16.245  11.435
86041W        W57570  38.558   4.246   0.277
86042W        W57571  25.844  40.199  12.501
86043W        W57572  42.843  34.847   2.673
86044W        W57573  36.367  33.175  14.329
86045W        W57574  22.022  12.467  11.135
86046W        W57575   3.789  36.689  14.845
86047W        W57576  32.592  27.463   1.740
86048W        W57577  42.319  26.901  14.011
86049W        W57578  32.322   9.557   1.765
86050W        W57579  30.793  37.289   2.223
86051W        W57580  10.308  27.939  12.909
86052W        W57581  29.740  38.411   1.396
86053W        W57582  25.039   0.981   4.590
86054W        W57583  18.677  41.343   2.617
86055W        W57584  29.540  11.740  11.149
86056W        W57585  42.293  36.525  13.645
86057W        W57586  32.186   7.274   4.162
86058W        W57587  35.304   3.712   1.870
86059W        W57588  32.656  13.730  12.957
86060W        W57589  26.688   7.395  14.316
86061W        W57590   0.944  16.365  14.873
86062W        W57591  11.755  18.616  11.040
86063W        W57592  16.066  19.509   4.987
86064W        W57593  39.332  20.006  11.754
86065W        W57594  26.166  18.184   1.479
86066W        W57595  20.674  13.079  12.415
86067W        W57596   5.392  23.112  13.004
86068W        W57597  42.882  39.258  13.352
86069W        W57598   5.366  11.646   3.831
86070W        W57599  19.267   0.616  14.869
86071W        W57600   7.980   5.907  13.130
86072W        W57601   6.846   1.046  14.909
86073W        W57602  19.529  36.926   0.428
86074W        W57603  35.770  14.169   2.725
86075W        W57604  35.046  33.314  14.435
86076W        W57605  27.552  22.931  14.508
86077W        W57606  41.257  42.063   3.231
86078W        W57607   5.904  32.725   2.918
86079W        W57608  25.542  43.284  14.814
86080W        W57609  43.902  24.194   1.168
86081W        W57610   3.436  35.825  10.976
86082W        W57611  41.310   7.839   0.667
86083W        W57612   0.677  24.373  13.317
86084W        W57613   9.843  44.046  14.643
86085W        W57614  13.547  19.656   0.267
86086W        W57615  11.218  28.742  14.939
86087W        W57616  40.485  10.764   3.341
86088W        W57617  43.965  27.403   1.300
86089W        W57618  26.578  32.231   1.891
86090W        W57619  33.035  25.236  12.137
86091W        W57620  41.048  24.259  11.598
86092W        W57621   9.746   0.276  13.450
86093W        W57622  44.055   8.146  12.024
86094W        W57623  31.977   1.787   2.686
86095W        W57624  14.337  18.660  11.002
86096W        W57625  41.395   3.001  14.053
86097W        W57626  20.725  42.205  13.079
86098W        W57627  24.500   0.923   4.649
86099W        W57628  35.773  30.167  14.839
86100W        W57629  41.838   1.399   2.655
86101W        W57630   1.779  42.992  11.217
86102W        W57631  25.531   3.275  14.728
86103W        W57632  30.012  32.061  12.008
86104W        W57633   2.957  18.242   1.683
86105W        W57634  42.946  22.109  10.666
86106W        W57635   6.646   1.806   0.827
86107W        W57636   0.868  26.018  14.897
86108W        W57637  19.007   6.431   0.517
86109W        W57638  33.228  18.368  14.451
86110W        W57639  38.939   1.505   5.121
86111W        W57640  25.628   9.254  10.994
86112W        W57641   7.800  13.609  13.998
86113W        W57642  24.750  17.780  14.843
86114W        W57643  21.801  17.712   3.235
86115W        W57644  29.421  33.321  13.598
86116W        W57645  15.138  41.918  10.992
86117W        W57646  44.499  36.962  13.306
86118W        W57647   1.348  42.257  12.370
86119W        W57648  39.373   2.542  14.758
86120W        W57649  16.031  12.461  12.007
86121W        W57650  28.176  29.974  10.810
86122W        W57651  41.895  37.086  12.365
86123W        W57652  26.194   6.394   1.802
86124W        W57653  36.682  37.404   2.326
86125W        W57654   8.378  32.080  11.097
86126W        W57655  35.467  23.405   0.347
86127W        W57656  29.173  39.646   0.874
86128W        W57657  23.620  30.503  10.662
86129W        W57658  40.980  24.077  13.351
86130W        W57659   3.796  33.813  14.484
86131W        W57660  23.105  31.804   1.446
86132W        W57661  37.639  27.310  12.265
86133W        W57662   2.495  12.975   1.749
86134W        W57663  18.973  24.768   0.015
86135W        W57664  30.569  14.380   3.825
86136W        W57665  44.549  28.942  13.437
86137W        W57666  41.475  24.730  12.640
86138W        W57667  44.849  42.373   2.296
86139W        W57668   6.728  13.186  12.481
86140W        W57669  35.513   7.382  12.709
86141W        W57670   8.223   8.140   0.296
86142W        W57671  22.077  20.147   0.487
86143W        W57672  35.112  30.599  13.498
86144W        W57673  18.702   4.437   3.178
86145W        W57674  19.537  28.424   2.878
86146W        W57675  17.777  18.152   3.252
86147W        W57676  22.472  16.692  12.975
86148W        W57677  43.282  26.235  10.626
86149W        W57678  35.018  16.289  12.240
86150W        W57679  28.862   3.786   0.033
86151W        W57680  39.816  38.823   1.477
86152W        W57681  24.120  26.309  12.427
86153W        W57682  12.276  38.177  11.527
86154W        W57683  17.762  25.638   3.411
86155W        W57684  38.462  41.534  10.937
86156W        W57685  24.271  40.348  11.656
86157W        W57686   4.345  30.210   3.241
86158W        W57687  19.879  11.048   1.800
86159W        W57688  26.923  10.915  13.934
86160W        W57689  15.764   5.752  10.015
86161W        W57690  43.976  31.092   0.159
86162W        W57691  43.784  27.420  12.448
86163W        W57692  40.060  14.948  11.535
86164W        W57693  38.747   1.884  12.643
86165W        W57694  11.836   8.657  10.824
86166W        W57695   2.229  18.088  11.618
86167W        W57696  13.972  27.107  13.445
86168W        W57697  16.295   4.907  13.885
86169W        W57698   9.302  15.973  11.490
86170W        W57699   6.735   1.592  14.960
86171W        W57700  18.264   7.965   2.310
86172W        W57701  32.457  21.006  12.533
86173W        W57702  32.988  25.833  13.711
86174W        W57703  38.934  13.111   0.233
86175W        W57704  33.417   8.329  14.822
86176W        W57705  24.079  35.650   3.125
86177W        W57706  33.438   2.029   2.535
86178W        W57707  17.625  40.395  12.967
86179W        W57708  10.671  42.456  14.634
86180W        W57709  21.996  27.516   3.936
86181W        W57710   6.795   2.875  14.711
86182W        W57711  13.385  10.494  12.402
86183W        W57712  35.077  17.342  12.601
86184W        W57713   9.619  35.051   1.813
86185W        W57714  36.807  16.143  12.875
86186W        W57715  42.127  21.770   2.723
86187W        W57716  12.584  26.128  13.046
86188W        W57717  43.466  29.275   4.538
86189W        W57718  39.821   4.432   4.302
86190W        W57719  35.203  17.536   1.782
86191W        W57720  41.281  12.899  12.952
86192W        W57721   9.704  19.652   2.841
86193W        W57722  32.073  20.571  11.944
86194W        W57723  36.784  36.478  12.937
86195W        W57724  30.258  13.405   3.769
86196W        W57725  20.807  16.604   0.994
86197W        W57726  34.028  36.632  12.846
86198W        W57727  17.670  17.021   0.972
86199W        W57728   1.686  39.181   4.106
86200W        W57729  26.382  18.498  11.189
86201W        W57730  15.730  30.567  10.592
86202W        W57731   3.048  22.710   4.573
86203W        W57732  34.325   0.507   3.736
86204W        W57733  37.138  13.613   0.469
86205W        W57734   8.300   7.171  10.823
86206W        W57735   6.399  38.043  11.708
86207W        W57736  24.890   8.415  13.995
86208W        W57737  13.694  19.005  14.558
86209W        W57738   6.773   1.376  14.509
86210W        W57739  32.431  14.851  13.464
86211W        W57740  35.467  20.837   2.803
86212W        W57741  35.563  36.767  12.638
86213W        W57742  15.132   6.781  12.324
86214W        W57743  32.430  16.981  14.305
86215W        W57744   0.548  10.169  11.410
86216W        W57745  15.047  14.287   1.298
86217W        W57746  30.483  42.855  14.349
86218W        W57747   7.623  11.976  13.018
86219W        W57748  14.081   7.256   3.851
86220W        W57749  37.529  16.976   1.767
86221W        W57750   7.415  27.513   2.823
86222W        W57751  19.567  42.312   0.141
86223W        W57752  38.874  28.962  11.959
86224W        W57753   9.371  16.791  12.308
86225W        W57754  19.990  13.818  11.608
86226W        W57755  39.335  26.182  14.931
86227W        W57756  31.761   7.447  14.714
86228W        W57757  30.833   6.120  11.105
86229W        W57758  23.242  34.503  11.526
86230W        W57759  21.503  28.914  11.941
86231W        W57760  31.503  26.436   2.313
86232W        W57761  42.864  29.417   2.855
86233W        W57762  41.281   9.827   3.758
86234W        W57763  11.637   8.375   0.323
86235W        W57764  20.509  35.445   3.154
86236W        W57765  29.643   8.142   1.129
86237W        W57766  26.973  18.665   0.392
86238W        W57767   1.963  30.114  10.329
86239W        W57768  27.245  33.823  14.004
86240W        W57769   0.440  10.125  14.258
86241W        W57770  35.645  42.951   0.916
86242W        W57771   2.814  13.745  13.963
86243W        W57772  13.174  23.335   1.321
86244W        W57773  15.135  20.770   2.714
86245W        W57774  29.988  33.836  11.645
86246W        W57775   9.365   3.941   3.222
86247W        W57776  25.612   4.136   1.423
86248W        W57777  23.030   7.578   3.595
86249W        W57778   1.556  43.863   2.653
86250W        W57779  31.806  35.528  12.086
86251W        W57780   6.400  27.428  13.007
86252W        W57781   4.517  20.596  14.516
86253W        W57782  20.219  32.906  14.475
86254W        W57783  17.361  22.589   4.182
86255W        W57784  40.090  17.803   0.473
86256W        W57785  39.104  25.751   0.815
86257W        W57786  21.112  15.131   3.726
86258W        W57787   4.837   7.904  12.119
86259W        W57788  43.428  24.194   2.826
86260W        W57789  21.766   5.385  12.339
86261W        W57790   7.492  14.788  10.844
86262W        W57791  20.130  21.581   3.435
86263W        W57792  21.096  10.429   2.770
86264W        W57793  32.663  19.002   3.426
86265W        W57794  27.938  30.177   3.458
86266W        W57795  36.606   4.693  10.362
86267W        W57796  11.351  20.696  13.528
86268W        W57797  12.262   0.318  11.254
86269W        W57798   0.184  30.924  13.903
86270W        W57799   6.596  20.048   0.974
86271W        W57800  43.032   3.505   3.741
86272W        W57801  27.068  22.056   3.196
86273W        W57802   7.935  27.098   2.133
86274W        W57803  11.075  26.437  11.586
86275W        W57804  35.494  11.240   2.863
86276W        W57805  41.288  25.095  13.995
86277W        W57806   2.841  41.395  12.575
86278W        W57807   8.603   3.855  11.970
86279W        W57808  13.937  28.990  12.884
86280W        W57809  18.877   4.123   1.004
86281W        W57810  12.290  37.705   3.590
86282W        W57811  12.715  17.624  11.113
86283W        W57812  40.296  17.221   3.057
86284W        W57813   6.294   6.281  12.547
86285W        W57814  42.117  24.032  10.802
86286W        W57815  30.729  29.380  14.332
86287W        W57816  39.635   4.986   4.446
86288W        W57817  37.532  37.741   0.764
86289W        W57818   3.919  28.078   4.528
86290W        W57819  32.605  26.711   1.416
86291W        W57820  10.655  30.095  13.156
86292W        W57821   4.815  37.317  12.102
86293W        W57822   5.966  23.133   3.500
86294W        W57823  20.613  23.714   0.876
86295W        W57824   5.221  41.911   3.749
86296W        W57825   2.975  22.134   3.303
86297W        W57826  29.321  35.946   4.944
86298W        W57827  18.703   9.548  10.039
86299W        W57828  37.853  19.585  14.558
86300W        W57829  44.612  37.803  13.857
86301W        W57830   8.739  43.728  13.548
86302W        W57831  32.984  35.183  14.406
86303W        W57832  25.653  17.579   3.155
86304W        W57833  20.458  10.665  12.898
86305W        W57834  18.651  42.017   0.922
86306W        W57835  34.195  11.102   0.506
86307W        W57836  40.790  25.086  12.486
86308W        W57837  14.859  20.097  11.579
86309W        W57838  41.918  14.581   0.816
86310W        W57839  38.237  28.871  11.170
86311W        W57840   8.005  32.596   0.227
86312W        W57841  20.477  41.967  12.101
86313W        W57842   4.164  24.244   4.659
86314W        W57843  41.895  11.813  10.081
86315W        W57844   9.333  28.045  14.385
86316W        W57845   5.958  15.037   0.247
86317W        W57846  38.916  26.211   0.985
86318W        W57847  23.201  26.936   3.132
86319W        W57848   5.444  24.367  13.498
86320W        W57849  27.853  34.383   0.869
86321W        W57850  29.782  25.607  10.806
86322W        W57851   4.361  18.728   1.418
86323W        W57852  23.717   1.810   1.890
86324W        W57853  20.520  30.440   0.448
86325W        W57854   0.621   1.884   5.242
86326W        W57855  17.046  13.273  14.281
86327W        W57856  26.469  23.697   3.839
86328W        W57857  19.664  27.174  14.400
86329W        W57858  30.542   2.500   1.821
86330W        W57859  34.434  24.419   3.764
86331W        W57860  17.964  15.643   2.144
86332W        W57861  17.067  12.042   3.764
86333W        W57862  17.079   9.063   1.774
86334W        W57863  18.776   7.663   3.588
86335W        W57864  20.147   9.122   2.824
86336W        W57865  40.597  25.078  12.985
86337W        W57866  39.582  36.070  13.032
86338W        W57867  22.106  13.738   2.927
86339W        W57868   3.377  22.625  13.779
86340W        W57869  19.203  39.453  12.938
86341W        W57870   9.317  21.254  12.620
86342W        W57871  22.936  40.813  12.511
86343W        W57872  30.991  23.561   3.788
86344W        W57873   8.927  39.923   3.754
86345W        W57874   3.849  12.803  11.116
86346W        W57875  41.137   5.919   1.763
86347W        W57876  27.650  35.296   1.806
86348W        W57877  12.126  36.824   0.672
86349W        W57878   6.654  15.270   2.590
86350W        W57879  33.749  34.028   3.227
86351W        W57880  20.862  18.600   4.673
86352W        W57881  10.720  22.561  10.579
86353W        W57882  37.987   2.994  14.253
86354W        W57883  12.960  36.976  11.535
86355W        W57884   5.777  31.916   1.873
86356W        W57885  38.517   4.861   1.415
86357W        W57886  11.925  17.962  12.181
86358W        W57887  30.589  27.191  12.249
86359W        W57888  38.375  32.415   4.397
86360W        W57889  41.461  33.024  14.952
86361W        W57890  43.807  24.011  11.529
86362W        W57891   6.844  15.225  10.791
86363W        W57892  23.662   3.637   1.843
86364W        W57893   4.002  44.911   3.643
86365W        W57894   6.919  13.729   4.055
86366W        W57895  30.892  15.268  11.555
86367W        W57896  21.781  42.094   0.147
86368W        W57897  39.880  40.386   1.261
86369W        W57898  30.133  13.035   0.857
86370W        W57899  17.098  34.440  10.619
86371W        W57900  28.073  21.101  10.631
86372W        W57901  18.762  13.712  11.028
86373W        W57902   6.591   4.395  14.739
86374W        W57903  29.036  26.701  14.844
86375W        W57904  25.935  35.124   0.890
86376W        W57905  33.566   9.819  11.572
86377W        W57906  13.936  12.074   5.094
86378W        W57907  11.402   3.923   1.270
86379W        W57908  19.686  12.696  11.036
86380W        W57909   7.448  21.652   3.781
86381W        W57910   2.201  10.765  13.510
86382W        W57911   6.175   2.276   3.807
86383W        W57912  23.298  41.541   3.807
86384W        W57913  14.899  37.045   4.193
86385W        W57914  26.447  35.609   4.532
86386W        W57915  26.105  24.248  11.615
86387W        W57916   5.034   8.862  11.195
86388W        W57917  44.304  41.972  14.876
86389W        W57918   4.306  19.364   5.015
86390W        W57919  42.495   9.811   2.387
86391W        W57920  18.912  28.560   0.256
86392W        W57921  42.280  24.956   4.612
86393W        W57922  36.066  33.017   2.789
86394W        W57923  39.493  11.014   3.652
86395W        W57924  11.407   1.541  13.996
86396W        W57925  41.436  40.483  14.121
86397W        W57926  31.854   8.185   2.202
86398W        W57927  39.401  35.014   4.223
86399W        W57928  22.189  34.098   4.545
86400W        W57929   0.852   8.256  14.337
86401W        W57930  39.505  15.050   4.873
86402W        W57931  35.646  21.880  14.930
86403W        W57932  38.046  25.096  12.114
86404W        W57933  29.226  13.422   4.484
86405W        W57934  38.902  14.204  12.431
86406W        W57935   1.434  13.601   1.350
86407W        W57936  26.630  43.198   2.205
86408W        W57937  30.704  29.043   2.283
86409W        W57938   1.351  17.221  12.894
86410W        W57939  25.560  11.051   2.316
86411W        W57940   9.776  39.505   3.292
86412W        W57941   2.522  18.258  12.010
86413W        W57942   2.429  39.269  10.721
86414W        W57943   2.620  20.112  10.674
86415W        W57944  19.484  35.974   4.457
86416W        W57945   7.136  30.440   3.667
86417W        W57946  39.952  40.303  13.472
86418W        W57947  17.936  25.145  11.157
86419W        W57948   9.715  22.157   3.633
86420W        W57949   7.608  23.629   4.095
86421W        W57950  18.362  21.495  14.361
86422W        W57951   2.284  13.575   4.598
86423W        W57952   3.200  26.203   1.905
86424W        W57953   9.291  21.168  14.965
86425W        W57954   7.796  33.646   3.580
86426W        W57955  41.449  25.545  13.081
86427W        W57956  27.498  20.552   4.419
86428W        W57957  14.236  16.474  13.507
86429W        W57958  19.129  21.350   0.775
86430W        W57959  32.190  37.821  13.804
86431W        W57960  28.858  39.794   3.666
86432W        W57961   8.893  42.583  12.410
86433W        W57962   2.617   5.345  10.570
86434W        W57963   3.902  22.102   1.352
86435W        W57964  19.007  31.305  12.545
86436W        W57965  13.616  13.784   0.279
86437W        W57966  18.751   5.450  12.957
86438W        W57967  15.832  10.340   0.892
86439W        W57968  29.151  30.979  11.656
86440W        W57969  11.891  35.540  14.354
86441W        W57970  18.637  22.198  13.900
86442W        W57971  38.773  44.172  13.457
86443W        W57972  38.259  32.195  11.625
86444W        W57973  44.283  15.362  10.720
86445W        W57974   0.009  44.873   4.442
86446W        W57975  13.038   1.469   2.341
86447W        W57976   4.504  19.896   4.274
86448W        W57977   5.298   8.216   0.391
86449W        W57978  26.032  33.411  12.946
86450W        W57979  23.037  43.369  14.882
86451W        W57980  26.604  14.235  14.283
86452W        W57981  32.131  36.451   3.681
86453W        W57982  41.164   8.251  13.972
86454W        W57983  31.455  41.102  12.837
86455W        W57984  12.860  14.809   2.819
86456W        W57985  13.711  39.311   0.282
86457W        W57986  38.912   0.730  14.510
86458W        W57987  29.481   8.510  12.198
86459W        W57988  21.281  30.970   3.730
86460W        W57989  10.687  33.131   3.337
86461W        W57990  40.773   7.301   1.780
86462W        W57991   4.227   8.250  13.991
86463W        W57992  27.061  30.929   0.359
86464W        W57993  36.096   9.058   0.000
86465W        W57994  18.636  38.115   3.200
86466W        W57995   1.466  18.282   2.878
86467W        W57996  24.259   0.430   0.488
86468W        W57997   4.703  15.190   2.388
86469W        W57998  44.916  28.479   4.087
86470W        W57999  27.113   7.621   3.757
86471W        W58000  43.328  38.919   4.146
86472W        W58001   3.401  28.660  11.639
86473W        W58002  11.206   5.245   1.728
86474W        W58003  28.920   5.670   2.169
86475W        W58004  33.257  42.870  12.395
86476W        W58005  20.305   2.155  13.790
86477W        W58006  43.073  30.628  12.485
86478W        W58007  43.542  28.931   2.868
86479W        W58008   9.083  22.188  12.025
86480W        W58009   2.742  15.161   4.474
86481W        W58010  17.197   2.346   1.859
86482W        W58011  34.070  26.179  13.416
86483W        W58012   6.682   8.185   4.879
86484W        W58013   8.232  35.424  11.407
86485W        W58014  18.262  40.145  12.580
86486W        W58015  16.658  19.064  10.598
86487W        W58016  17.708  44.603  10.062
86488W        W58017  19.216  13.009  10.801
86489W        W58018  42.131  36.293  11.719
86490W        W58019   1.931  22.595  13.816
86491W        W58020  28.584  38.837   4.728
86492W        W58021   6.012  42.045  12.124
86493W        W58022   7.251  33.220  14.785
86494W        W58023   1.666   0.368  12.581
86495W        W58024   3.131  24.755   4.364
86496W        W58025  44.696  18.585   3.684
86497W        W58026   9.269  42.483  10.664
86498W        W58027  38.798   7.885  11.125
86499W        W58028   0.748  24.603   4.615
86500W        W58029  41.854  29.940   1.489
86501W        W58030  16.382  17.336   0.339
86502W        W58031   6.282   2.874  13.949
86503W        W58032  16.608  12.454  10.696
86504W        W58033  17.993  28.260  11.105
86505W        W58034   6.808  24.208   4.834
86506W        W58035  14.926  19.184   2.632
86507W        W58036  33.451  32.562  14.912
86508W        W58037  10.853   1.797  13.323
86509W        W58038  38.500  40.058   3.752
86510W        W58039  41.992  34.790   3.609
86511W        W58040  26.031  31.562  11.463
86512W        W58041  15.999  40.657  14.735
86513W        W58042  24.717  14.403   0.406
86514W        W58043  25.305  15.634   3.335
86515W        W58044  32.614  36.115   2.486
86516W        W58045  21.470   7.921   3.149
86517W        W58046  10.102  24.188   0.328
86518W        W58047  28.838  11.113   2.737
86519W        W58048  15.482   1.911   5.048
86520W        W58049  11.919  17.530  13.940
86521W        W58050  20.347  26.144  10.903
86522W        W58051  13.144  29.998  13.738
86523W        W58052  32.613  29.954   2.361
86524W        W58053  18.283  32.722  12.113
86525W        W58054  28.426  34.639  13.905
86526W        W58055  29.713  23.627   4.675
86527W        W58056  21.180  32.655   2.272
86528W        W58057  29.259  11.735   2.475
86529W        W58058  24.238  14.679   1.196
86530W        W58059  12.114   7.699   0.027
86531W        W58060  30.938  30.633   0.772
86532W        W58061  18.926   3.738   2.856
86533W        W58062  22.217  36.266  13.789
86534W        W58063  18.144  30.717  13.456
86535W        W58064   3.800   3.064   0.004
86536W        W58065   9.598  25.160   3.867
86537W        W58066   7.863  19.273  11.209
86538W        W58067   9.898   4.870   1.881
86539W        W58068  35.415  44.322   4.581
86540W        W58069  12.769  25.649  13.091
86541W        W58070   3.300  30.206  13.378
86542W        W58071  18.978  19.658  12.645
86543W        W58072  19.511  32.587  11.605
86544W        W58073  36.407  29.420  11.603
86545W        W58074   0.352  15.411  11.973
86546W        W58075  10.124  32.359   1.841
86547W        W58076  24.744   8.957   2.428
86548W        W58077   4.597  24.590  13.383
86549W        W58078  40.063  19.588  14.764
86550W        W58079  44.245  22.764   5.009
86551W        W58080  10.609  21.977   4.099
86552W        W58081  34.548   7.954   3.153
86553W        W58082  42.937   9.725  12.565
86554W        W58083  28.832  12.169  10.762
86555W        W58084  38.981  17.389  12.929
86556W        W58085  15.642  17.801   3.457
86557W        W58086   9.799   7.196   2.491
86558W        W58087  23.633  32.364   3.349
86559W        W58088   9.882  39.990   2.788
86560W        W58089  32.618  35.331   3.070
86561W        W58090  10.452   9.829   0.550
86562W        W58091  43.383  14.772   2.425
86563W        W58092  21.602   2.296  10.489
86564W        W58093  25.080  41.415  10.685
86565W        W58094  12.911  16.710  11.568
86566W        W58095  41.714  26.692   4.141
86567W        W58096   5.534  24.614  12.999
86568W        W58097  43.256  16.111  13.827
86569W        W58098  40.578  12.275   2.233
86570W        W58099  12.623   7.684   2.189
86571W        W58100   7.816  29.179   3.899
86572W        W58101   4.374  20.716   0.806
86573W        W58102  30.674  34.789  10.286
86574W        W58103  43.276  18.631  13.613
86575W        W58104  11.109   9.861  14.901
86576W        W58105  37.827  22.864  13.389
86577W        W58106  42.074  37.832  10.746
86578W        W58107  19.491  32.930  11.119
86579W        W58108  36.061  40.005   1.048
86580W        W58109  31.383  21.975  13.567
86581W        W58110  37.950  29.584  14.949
86582W        W58111  23.235   3.338   2.777
86583W        W58112  19.892   9.203   1.302
86584W        W58113  33.509  39.387   3.110
86585W        W58114  27.999  41.026  13.582
86586W        W58115  26.857  25.136  13.230
86587W        W58116  39.039  28.195   3.647
86588W        W58117   8.545  12.417   2.319
86589W        W58118  42.792  28.029   4.056
86590W        W58119  38.904   4.262   1.294
86591W        W58120   3.169  20.516   0.517
86592W        W58121  19.173  13.222   1.216
86593W        W58122  41.325   2.557  13.785
86594W        W58123  39.394  14.761  11.299
86595W        W58124  37.861  34.114   2.277
86596W        W58125  32.969  12.074  14.274
86597W        W58126  22.147  42.962   0.415
86598W        W58127  43.488  35.809  13.483
86599W        W58128  37.051  38.007  12.358
86600W        W58129  15.885  15.015  11.536
86601W        W58130   3.582  27.435  13.112
86602W        W58131  25.324  17.214  14.484
86603W        W58132  40.580   3.661  12.028
86604W        W58133  25.982  44.060   3.613
86605W        W58134  15.005  13.651  11.450
86606W        W58135   4.746  27.757  12.112
86607W        W58136  36.816   5.656   0.481
86608W        W58137  21.249  44.418   0.076
86609W        W58138  22.550  30.676   3.232
86610W        W58139  30.996  26.242  14.719
86611W        W58140   1.950  29.884  13.503
86612W        W58141   0.884  10.189  13.988
86613W        W58142   9.747   9.793   4.084
86614W        W58143  37.305  13.358  11.655
86615W        W58144  14.560  28.737   3.782
86616W        W58145  41.973  37.877   1.287
86617W        W58146  21.655  28.145  10.616
86618W        W58147   2.496  27.074   4.653
86619W        W58148  25.661  11.450   3.808
86620W        W58149   7.329   8.391   3.647
86621W        W58150  35.080  13.948   3.238
86622W        W58151  44.886   8.472  14.406
86623W        W58152   0.141  36.398  13.749
86624W        W58153  22.782  43.396  13.349
86625W        W58154  27.138  33.149   3.175
86626W        W58155  16.577  28.547  12.106
86627W        W58156   9.259  25.949   4.325
86628W        W58157  40.388  20.697   2.206
86629W        W58158   7.761   2.416   3.107
86630W        W58159  42.755   9.801  11.033
86631W        W58160   8.380   6.250   4.754
86632W        W58161  17.227  30.493   1.192
86633W        W58162   4.383  35.881  10.691
86634W        W58163  44.436   0.302  12.354
86635W        W58164  33.949   3.503   3.705
86636W        W58165  30.665  16.537   9.770
86637W        W58166   1.374  33.479  11.624
86638W        W58167   2.122  32.629  11.206
86639W        W58168   6.500  32.393  14.284
86640W        W58169   3.790  44.014   2.901
86641W        W58170  28.060  26.104   1.160
86642W        W58171  12.267  33.367   3.970
86643W        W58172  23.005  11.736  12.593
86644W        W58173  17.553  41.978   2.817
86645W        W58174  37.272  12.202   0.377
86646W        W58175  11.635   2.020  14.034
86647W        W58176  30.617  31.282   4.858
86648W        W58177  15.901  29.419  13.479
86649W        W58178   6.646  31.502   2.854
86650W        W58179  14.184  23.483  10.967
86651W        W58180  37.368  40.687   2.887
86652W        W58181   5.297  43.061   1.809
86653W        W58182  30.144  43.704   1.197
86654W        W58183  33.905  13.339  13.279
86655W        W58184  14.339  14.419   2.779
86656W        W58185  13.070  24.146  13.506
86657W        W58186  22.619  35.414  10.753
86658W        W58187  31.894  42.618   4.947
86659W        W58188  13.069   4.341   0.771
86660W        W58189  28.960  40.936   1.333
86661W        W58190  40.345  31.021   2.668
86662W        W58191  21.318  23.525   4.076
86663W        W58192  40.315  36.015   3.307
86664W        W58193  18.950  21.012  12.372
86665W        W58194  12.764  23.626   1.150
86666W        W58195   5.633  38.502   3.701
86667W        W58196  13.539  22.271  13.133
86668W        W58197  28.149  36.893   2.696
86669W        W58198  22.969  29.733   4.563
86670W        W58199  38.150  11.259  13.533
86671W        W58200   4.020  16.264  11.582
86672W        W58201  16.823  30.455   4.098
86673W        W58202  16.597  40.333  13.940
86674W        W58203  10.312   8.844   1.341
86675W        W58204  25.213  22.249   1.250
86676W        W58205   5.009  11.614   2.298
86677W        W58206  26.443  39.722   4.309
86678W        W58207  13.325  13.867  13.219
86679W        W58208   8.830  33.844   0.185
86680W        W58209  44.768  15.826   3.366
86681W        W58210  25.385   5.176  11.478
86682W        W58211  34.840   2.529  14.784
86683W        W58212  41.023  41.434  14.717
86684W        W58213  42.471   6.702  13.281
86685W        W58214  40.030  32.101  13.958
86686W        W58215   3.260  26.096   4.576
86687W        W58216  30.139  36.594  13.442
86688W        W58217  42.743  22.826   2.687
86689W        W58218  39.789   4.360   3.770
86690W        W58219   1.263  20.656   3.811
86691W        W58220   7.819   5.377  11.658
86692W        W58221  29.358  10.666  11.573
86693W        W58222  27.117  26.483  12.115
86694W        W58223  15.196  39.504   4.558
86695W        W58224  16.597  32.507  11.447
86696W        W58225  15.217  26.101   3.425
86697W        W58226   5.266   3.989   3.726
86698W        W58227   4.333   1.183   2.380
86699W        W58228  15.138  13.205   4.301
86700W        W58229   8.636  23.104   1.870
86701W        W58230  38.105  23.958  13.080
86702W        W58231  12.660   1.099   0.445
86703W        W58232   3.962   3.737   1.263
86704W        W58233   8.935   7.675   4.613
86705W        W58234  39.079  16.641   4.576
86706W        W58235  20.519  26.421  14.910
86707W        W58236  43.547  18.711  11.173
86708W        W58237  40.526  21.509   3.386
86709W        W58238  40.826   6.719  13.914
86710W        W58239  10.123   0.034   0.363
86711W        W58240  39.255   8.097   4.548
86712W        W58241   6.255  39.022   3.150
86713W        W58242  43.148  10.814   0.002
86714W        W58243   1.534  42.006   1.692
86715W        W58244  22.126  14.847   1.389
86716W        W58245  31.123   3.109   2.385
86717W        W58246  23.734   4.813  13.804
86718W        W58247  22.153  36.008  13.340
86719W        W58248  44.531  14.423   0.775
86720W        W58249  23.223  33.671   4.145
86721W        W58250   6.770  11.139  11.112
86722W        W58251  37.392  34.028   4.122
86723W        W58252  16.285  10.405  14.488
86724W        W58253   8.866   3.893  12.405
86725W        W58254   2.284  33.708  12.158
86726W        W58255   0.007  42.844  13.413
86727W        W58256   0.014   6.341   3.764
86728W        W58257  19.824  35.874   1.932
86729W        W58258  30.720  32.440   0.352
86730W        W58259   6.462   3.798  13.505
86731W        W58260  25.640  41.263   1.390
86732W        W58261   6.845  30.795  10.628
86733W        W58262  37.253  41.875  11.841
86734W        W58263  32.892  18.547  12.492
86735W        W58264  33.287   9.131   9.792
86736W        W58265   9.760  44.459   0.490
86737W        W58266  31.067  34.944  13.838
86738W        W58267   2.484  35.330  11.648
86739W        W58268  34.459  33.970  10.421
86740W        W58269  15.285   2.728   4.362
86741W        W58270  28.857  43.461   4.213
86742W        W58271  30.969  11.316  10.551
86743W        W58272  38.113  39.571  11.659
86744W        W58273   4.386  29.717   2.358
86745W        W58274  16.679  37.064  14.079
86746W        W58275  33.896  17.054   3.179
86747W        W58276  13.385  14.333   2.293
86748W        W58277  42.946  10.642   0.711
86749W        W58278  34.445   1.450  12.900
86750W        W58279  44.274  18.702   2.299
86751W        W58280  43.445  12.311   0.972
86752W        W58281  21.653  26.658   0.293
86753W        W58282  14.523  43.903  10.888
86754W        W58283   1.488  27.195   3.294
86755W        W58284  18.294  25.769  11.674
86756W        W58285  27.099   7.881   0.936
86757W        W58286  19.267  31.286  10.681
86758W        W58287  10.914  27.441  11.422
86759W        W58288  19.535  16.764  10.575
86760W        W58289   6.281  24.830   4.491
86761W        W58290  12.036  41.783   1.854
86762W        W58291  23.537  31.578  12.393
86763W        W58292   9.322  41.059  14.964
86764W        W58293  14.168  26.651  13.463
86765W        W58294  10.731  18.610   2.349
86766W        W58295  26.713  20.735   2.894
86767W        W58296  43.071  13.617   3.200
86768W        W58297  33.455  20.546   0.706
86769W        W58298   8.675  32.525   2.838
86770W        W58299  16.758   1.892  11.355
86771W        W58300  34.414  38.522  13.227
86772W        W58301  11.671   3.264  11.612
86773W        W58302  41.480  13.372   0.244
86774W        W58303  39.256  33.780   1.276
86775W        W58304   8.822  18.217   4.120
86776W        W58305   7.572  43.041  14.222
86777W        W58306  11.837  28.688   4.243
86778W        W58307  21.365  42.256  14.861
86779W        W58308  33.563   1.641  11.190
86780W        W58309  41.905  35.723   2.346
86781W        W58310  37.235  11.175   3.373
86782W        W58311  34.687  19.697   2.725
86783W        W58312  33.665  23.134  13.910
86784W        W58313  21.505  42.549   4.743
86785W        W58314  11.352  21.847   3.398
86786W        W58315  19.499  11.851  10.731
86787W        W58316  18.255  19.114  12.387
86788W        W58317  18.965  24.940  11.021
86789W        W58318  25.595  43.860  10.753
86790W        W58319   2.977  25.058  13.902
86791W        W58320  41.045  12.986  11.681
86792W        W58321   6.229  42.922   2.519
86793W        W58322   4.703  14.098  11.511
86794W        W58323   1.991   6.881  12.346
86795W        W58324  11.625  28.591   1.202
86796W        W58325  41.302   1.381  11.568
86797W        W58326  34.956  27.601   0.347
86798W        W58327  22.893   0.007   0.310
86799W        W58328  15.571  15.160   1.276
86800W        W58329   0.911  44.058  13.495
86801W        W58330   1.213  17.692  14.907
86802W        W58331  33.775   8.302   2.249
86803W        W58332  36.226  24.594  11.024
86804W        W58333   2.906  11.191  11.524
86805W        W58334  31.652  12.396   4.546
86806W        W58335  43.279  24.590   4.526
86807W        W58336   2.386  44.926  12.498
86808W        W58337  27.546  33.856  14.421
86809W        W58338  12.708  23.225   2.444
86810W        W58339  12.379  36.907   1.447
86811W        W58340  16.029  13.195   2.319
86812W        W58341   0.075   9.193   2.662
86813W        W58342  23.444  19.465  13.927
86814W        W58343  32.064   0.967  12.806
86815W        W58344  14.888  15.872  14.061
86816W        W58345  38.136  37.175   3.706
86817W        W58346  38.363   9.614  14.066
86818W        W58347  28.466  19.074   1.250
86819W        W58348  31.481   5.206  13.421
86820W        W58349  24.714  40.411   1.407
86821W        W58350  18.379  21.782   2.130
86822W        W58351  31.694  13.776   1.325
86823W        W58352  37.509  11.566  10.649
86824W        W58353  36.372   4.157   3.731
86825W        W58354   3.304  26.700  10.711
86826W        W58355  43.771  39.282  11.644
86827W        W58356  25.900   6.704   2.264
86828W        W58357  41.444  26.547  13.528
86829W        W58358  32.690  39.794   0.352
86830W        W58359  18.022   3.478  14.865
86831W        W58360   3.001  44.382   2.376
86832W        W58361  35.360  21.578   2.359
86833W        W58362  17.284   2.450  10.844
86834W        W58363  44.032  36.011  12.411
86835W        W58364   7.405  22.005   3.177
86836W        W58365  17.726  10.007   2.390
86837W        W58366  13.904   3.811   0.457
86838W        W58367  11.183   2.258  10.725
86839W        W58368  35.486  21.395   1.869
86840W        W58369  22.548   3.401  10.681
86841W        W58370   0.219  32.851  12.998
86842W        W58371  27.414  39.347   0.484
86843W        W58372   9.719  39.790  14.881
86844W        W58373  29.584  21.196   4.389
86845W        W58374   3.870  19.261   2.369
86846W        W58375  34.124  20.682  13.970
86847W        W58376  22.090  34.473   1.861
86848W        W58377  39.924  26.749  12.971
86849W        W58378   0.173  14.704   2.177
86850W        W58379  43.617  17.392  10.454
86851W        W58380  10.746  19.723   0.998
86852W        W58381  18.538  17.365   1.071
86853W        W58382  22.759  43.688   3.414
86854W        W58383  23.746  13.547  13.774
86855W        W58384  17.291  23.578  13.322
86856W        W58385  40.962  42.036   2.803
86857W        W58386  44.272  24.647   4.652
86858W        W58387  39.001  36.824  13.390
86859W        W58388   7.232  40.812  11.628
86860W        W58389  41.532  38.104  13.935
86861W        W58390  10.375  26.631   0.437
86862W        W58391   2.699  43.243  13.525
86863W        W58392  21.737  11.250   2.011
86864W        W58393  17.276  28.091   3.758
86865W        W58394  28.528  41.565  11.550
86866W        W58395  11.872  40.439  11.616
86867W        W58396  11.527  16.638  14.253
86868W        W58397  33.850  23.278   1.928
86869W        W58398  35.487  15.629  12.350
86870W        W58399   2.342  25.169  12.598
86871W        W58400  35.541  43.217  11.435
86872W        W58401  18.561   8.253   0.985
86873W        W58402  41.374   8.703  12.384
86874W        W58403  15.037  28.151  14.000
86875W        W58404  27.481  36.555  14.250
86876W        W58405  39.942  10.432   0.266
86877W        W58406  14.948   0.832  11.920
86878W        W58407  41.500   2.743   2.444
86879W        W58408   3.904   8.907   4.494
86880W        W58409   5.824  34.195  11.183
86881W        W58410  33.649  26.168   1.821
86882W        W58411  13.283  25.596   3.180
86883W        W58412  44.320  12.812   3.134
86884W        W58413  33.367  24.611  13.751
86885W        W58414  15.515  18.386   2.825
86886W        W58415  19.722  36.107   3.204
86887W        W58416  31.551  19.952   0.798
86888W        W58417  34.793  22.565   1.825
86889W        W58418  32.854   1.441   4.226
86890W        W58419  44.760  27.912  11.397
86891W        W58420  29.432  17.565   2.752
86892W        W58421  15.874   7.578   4.985
86893W        W58422  35.526   5.647   4.475
86894W        W58423   0.505  13.071   0.028
86895W        W58424  20.602  12.833   4.594
86896W        W58425  13.168  24.419  10.445
86897W        W58426  31.521  28.992   2.848
86898W        W58427  12.761   6.735  12.546
86899W        W58428  41.514   8.141   0.281
86900W        W58429   8.417  19.548  13.129
86901W        W58430   7.783  28.160   3.016
86902W        W58431   3.342  22.009  13.120
86903W        W58432  24.608   1.521  12.637
86904W        W58433  40.662  40.992  10.661
86905W        W58434  30.712  37.400   3.609
86906W        W58435  15.110   3.204  11.135
86907W        W58436  30.673  36.406  11.165
86908W        W58437  15.357  24.102   2.290
86909W        W58438  29.288  25.191  12.997
86910W        W58439  31.923  26.029   0.107
86911W        W58440  26.967  31.948   4.137
86912W        W58441  15.208  30.975   4.601
86913W        W58442  29.109   8.340  11.419
86914W        W58443  39.559   8.629   0.026
86915W        W58444  40.490  41.494   2.154
86916W        W58445  11.543  18.850  14.204
86917W        W58446   5.170  24.732   0.922
86918W        W58447   8.735  30.690   0.925
86919W        W58448  40.360  10.326   1.357
86920W        W58449  35.981  29.944  12.057
86921W        W58450   1.696  23.798   3.985
86922W        W58451  18.817  17.819   1.898
86923W        W58452  26.090  37.026   3.780
86924W        W58453   3.210  16.633  10.713
86925W        W58454  20.229   6.349  12.887
86926W        W58455  10.655  34.401   4.512
86927W        W58456  44.899  36.810   1.347
86928W        W58457  24.569  33.603   0.102
86929W        W58458  39.086  23.307   1.363
86930W        W58459  24.237  19.022   3.881
86931W        W58460  39.107  41.585   0.324
86932W        W58461  13.377  35.853   2.297
86933W        W58462  26.116  32.040  11.207
86934W        W58463  20.862   5.311  12.570
86935W        W58464  32.187  42.391  12.154
86936W        W58465  16.824  10.549  13.017
86937W        W58466  29.458  41.824  12.314
86938W        W58467  34.549  35.845  13.670
86939W        W58468  14.781   4.008   4.080
86940W        W58469  15.243  17.659   3.161
86941W        W58470  10.054  31.698   2.780
86942W        W58471  35.529  34.660  14.278
86943W        W58472   1.248  35.618  14.859
86944W        W58473   1.967  29.101   4.317
86945W        W58474  10.147  30.661  13.916
86946W        W58475   1.183  25.376   3.213
86947W        W58476  32.961   7.462  13.093
86948W        W58477  44.560  11.259  12.807
86949W        W58478  42.726  32.340   4.062
86950W        W58479  35.573  34.768   1.409
86951W        W58480  41.730   9.252  14.323
86952W        W58481   9.671  30.122   1.683
86953W        W58482  28.917  28.981  13.977
86954W        W58483  14.707  20.513   1.781
86955W        W58484  43.578  42.485  13.217
86956W        W58485  20.615  14.325  13.780
86957W        W58486   7.925  20.162   2.766
86958W        W58487  18.075  40.943   2.201
86959W        W58488   2.775  35.551   2.878
86960W        W58489  37.058  39.922   0.854
86961W        W58490   0.366  30.763  12.485
86962W        W58491  17.179  39.888   4.551
86963W        W58492  40.567  17.560  14.067
86964W        W58493   0.016  23.797  14.217
86965W        W58494  12.181  44.820   0.422
86966W        W58495   6.918  32.187  13.898
86967W        W58496  10.210  38.152   2.384
86968W        W58497  25.938  15.122  11.315
86969W        W58498   8.713  22.892  14.242
86970W        W58499  23.759   2.268   1.292
86971W        W58500  26.019  18.341  10.873
86972W        W58501  21.761  34.786  12.415
86973W        W58502  37.316   4.324  13.029
86974W        W58503   4.710  41.793  12.519
86975W        W58504   1.904  37.113   0.971
86976W        W58505  38.000   2.812   4.293
86977W        W58506  16.277   8.853   1.414
86978W        W58507  39.332  25.767   2.176
86979W        W58508  30.571   5.708   0.398
86980W        W58509  11.322  11.593   2.851
86981W        W58510  25.795  35.479  11.833
86982W        W58511   1.352  11.585  10.567
86983W        W58512  19.699  30.397   0.025
86984W        W58513  32.510  19.315   2.039
86985W        W58514   9.872  38.700  11.202
86986W        W58515  11.324  28.473   4.028
86987W        W58516  31.156  34.243   1.447
86988W        W58517  40.290   5.362   0.975
86989W        W58518  16.296   2.391  11.189
86990W        W58519  39.940  20.807  11.786
86991W        W58520  12.287  35.074  14.895
86992W        W58521  13.686  22.709  11.021
86993W        W58522  38.495  14.127  11.565
86994W        W58523  35.975  22.731  14.030
86995W        W58524   3.053  30.883   2.477
86996W        W58525  13.888  32.498  14.995
86997W        W58526  10.923  13.269  12.390
86998W        W58527   2.778  17.479   1.226
86999W        W58528  32.435   1.945   1.931
87000W        W58529   3.291   8.292   1.800
87001W        W58530   8.876   5.120  14.237
87002W        W58531  32.907  13.343   0.352
87003W        W58532  22.973  14.850  11.022
87004W        W58533   1.020  22.782   2.867
87005W        W58534  30.473  32.641  11.614
87006W        W58535  32.194  16.162   3.731
87007W        W58536  42.273  13.856   0.737
87008W        W58537  13.852  40.764  11.649
87009W        W58538   5.581  18.523   0.783
87010W        W58539  19.601  29.987  13.544
87011W        W58540  26.084  31.565   2.466
87012W        W58541  11.238  41.871   2.928
87013W        W58542   2.889  22.115  12.863
87014W        W58543  16.679  26.191   2.611
87015W        W58544   1.834  39.048   1.040
87016W        W58545   7.819  14.254  12.456
87017W        W58546   9.267  30.194   0.093
87018W        W58547  27.406  11.425   1.751
87019W        W58548  44.039  32.125   2.860
87020W        W58549   6.158  26.212   2.733
87021W        W58550  14.085   7.358   1.198
87022W        W58551  32.055  15.908   2.680
87023W        W58552  42.445   1.539  12.919
87024W        W58553  17.944  31.935  11.104
87025W        W58554  36.885  15.336   5.009
87026W        W58555  42.909  38.529  14.139
87027W        W58556  34.509  10.937  14.543
87028W        W58557   7.989  15.021   0.259
87029W        W58558  18.161   2.044  14.551
87030W        W58559  10.730  28.508  10.746
87031W        W58560  41.826  18.171  14.046
87032W        W58561   3.816   3.460  11.304
87033W        W58562  30.225   1.310   1.552
87034W        W58563  10.497  13.107   2.008
87035W        W58564  10.396   7.560   4.395
87036W        W58565  11.861  39.358   3.409
87037W        W58566  29.849   6.296   0.216
87038W        W58567  38.424   9.986   1.107
87039W        W58568  31.671  10.318   3.923
87040W        W58569  26.491  14.788   5.033
87041W        W58570  37.573  25.534   1.948
87042W        W58571  22.269  22.459   0.920
87043W        W58572   9.900  20.084  14.793
87044W        W58573  33.594  35.612  12.779
87045W        W58574  19.158   4.207   1.434
87046W        W58575  42.020   7.782   0.305
87047W        W58576  38.990  33.914   0.843
87048W        W58577  37.575  23.396  14.627
87049W        W58578   5.281  19.616   2.162
87050W        W58579   4.881  26.520  13.943
87051W        W58580  18.677  12.809  14.838
87052W        W58581  15.522  24.575  11.551
87053W        W58582  28.134  13.596   1.837
87054W        W58583  34.857  27.037   1.721
87055W        W58584  16.374  41.560  12.198
87056W        W58585  33.822  27.883  10.674
87057W        W58586  25.732  15.189  14.638
87058W        W58587  28.474  29.254   4.188
87059W        W58588  22.618   2.234  12.147
87060W        W58589  22.432  21.620  11.525
87061W        W58590   4.902  17.524  12.899
87062W        W58591  11.060  21.638  13.880
87063W        W58592  11.931  17.724   1.203
87064W        W58593  15.315  12.655   2.157
87065W        W58594  20.511  28.454  12.508
87066W        W58595  44.214  25.610   0.365
87067W        W58596  40.259  26.094  13.935
87068W        W58597  44.680   0.798   0.880
87069W        W58598   5.198  35.490   2.420
87070W        W58599  40.449  33.906  11.155
87071W        W58600  29.580  43.395   3.198
87072W        W58601  40.364  10.404   0.841
87073W        W58602   1.634   3.857   1.923
87074W        W58603  35.111  12.670   5.087
87075W        W58604  23.083   2.970  12.013
87076W        W58605  15.341  23.415   1.687
87077W        W58606   0.449  28.898  13.706
87078W        W58607  14.901  15.123  11.534
87079W        W58608  20.289   8.744  11.639
87080W        W58609  14.051  43.128   2.763
87081W        W58610  35.095  21.343   4.093
87082W        W58611   0.902  36.001  12.158
87083W        W58612  42.750  13.337  14.343
87084W        W58613  25.896   1.472   1.434
87085W        W58614  24.687  34.051   3.676
87086W        W58615  35.040  36.418  11.470
87087W        W58616  21.823  21.689  13.125
87088W        W58617  41.974  31.464  11.840
87089W        W58618  36.966  24.564  11.696
87090W        W58619  37.428  33.375  13.734
87091W        W58620  38.955  28.763   0.372
87092W        W58621  42.840  42.013   1.710
87093W        W58622  10.218  20.354   0.401
87094W        W58623   5.305   2.363  12.973
87095W        W58624  39.536   0.382   0.848
87096W        W58625  29.168  10.417  10.739
87097W        W58626   7.210  35.187  11.154
87098W        W58627  40.509   8.242  14.909
87099W        W58628  15.124  16.064   0.263
87100W        W58629  19.657  25.033  11.212
87101W        W58630  17.337  14.102   3.380
87102W        W58631  36.990  14.801   4.343
87103W        W58632  30.974  42.802  14.544
87104W        W58633   7.395   4.722  14.951
87105W        W58634   5.249  28.696  12.635
87106W        W58635  32.484   1.550   1.411
87107W        W58636  19.503  26.897  14.805
87108W        W58637  23.679  31.243  13.387
87109W        W58638  40.972  34.475  12.630
87110W        W58639  39.359  27.103  14.026
87111W        W58640   8.276  24.910   0.767
87112W        W58641  27.480  36.312   2.181
87113W        W58642  22.483  33.562  14.346
87114W        W58643  40.925   6.665   0.842
87115W        W58644  39.674  26.619   0.817
87116W        W58645  34.151  40.779   0.256
87117W        W58646  14.492  12.829  14.807
87118W        W58647  30.369  16.294  13.994
87119W        W58648  21.799   8.692   0.863
87120W        W58649  44.598  22.085  12.493
87121W        W58650  10.596  29.550  11.518
87122W        W58651  38.084  39.566   3.447
87123W        W58652   8.496   4.205   2.850
87124W        W58653  22.973  42.828   0.811
87125W        W58654  24.233  20.055  13.955
87126W        W58655  33.535  44.044   2.822
87127W        W58656  34.590  20.228  13.228
87128W        W58657  10.852  19.773   2.751
87129W        W58658  35.922  28.972   0.682
87130W        W58659  33.865   5.814  14.089
87131W        W58660  40.661   2.247   2.911
87132W        W58661  34.889  38.175  10.937
87133W        W58662   4.012  24.482  13.465
87134W        W58663  11.138  24.754  12.056
87135W        W58664  14.378  34.458  14.221
87136W        W58665  15.621  30.192  12.958
87137W        W58666  13.771  42.947   2.355
87138W        W58667   1.788  10.685   3.865
87139W        W58668  44.576   5.435   2.241
87140W        W58669  44.963  33.489   0.383
87141W        W58670  17.566   2.777  11.882
87142W        W58671  39.809  39.483   0.182
87143W        W58672  30.445  44.512  14.986
87144W        W58673  25.561  14.920   0.068
87145W        W58674  38.039   3.814  11.966
87146W        W58675  14.085  18.349  11.695
87147W        W58676   4.671  42.555   4.973
87148W        W58677  34.615  42.550   2.756
87149W        W58678  20.429  33.849  13.559
87150W        W58679  31.031   9.204   4.128
87151W        W58680  19.108  15.113   3.180
87152W        W58681  17.107  39.073   2.804
87153W        W58682  18.783   8.224   4.801
87154W        W58683  23.510  26.729   0.754
87155W        W58684  19.677  26.143  12.120
87156W        W58685  21.001   7.891   1.381
87157W        W58686   4.791  42.382  11.605
87158W        W58687  31.405  27.555  12.637
87159W        W58688   6.735  15.296   3.120
87160W        W58689  16.407  20.058  13.068
87161W        W58690  43.236  27.014  14.057
87162W        W58691  44.480  31.858  12.593
87163W        W58692  37.331  24.400   4.159
87164W        W58693   6.099  43.674  12.319
87165W        W58694  28.864  13.212   1.191
87166W        W58695  19.261  38.511   1.742
87167W        W58696  40.556  21.103   5.294
87168W        W58697  26.284  38.485   2.851
87169W        W58698  21.645  17.506   0.357
87170W        W58699  29.674   5.331   1.762
87171W        W58700  38.061  44.800   3.786
87172W        W58701  23.594  23.717   4.656
87173W        W58702  18.759  33.873  11.859
87174W        W58703  15.372  39.485   1.120
87175W        W58704  37.458  30.114   0.108
87176W        W58705   2.055  42.459  10.727
87177W        W58706  32.179  16.708   1.684
87178W        W58707  38.545  11.441  11.484
87179W        W58708  38.067  44.332  11.174
87180W        W58709  31.340   3.706  14.939
87181W        W58710  36.286  28.153  14.474
87182W        W58711  44.485  30.878   4.256
87183W        W58712  30.024  38.541  13.843
87184W        W58713  24.014  15.019  12.143
87185W        W58714  20.565  16.841  10.746
87186W        W58715  17.868  21.907  13.513
87187W        W58716  19.304  24.068  13.528
87188W        W58717  43.413  28.362  11.142
87189W        W58718  23.956  34.038  12.929
87190W        W58719  41.085  40.464  10.659
87191W        W58720  29.993  17.626   4.957
87192W        W58721  37.223  36.277  13.907
87193W        W58722  43.542   0.778   0.475
87194W        W58723  34.030  36.220  11.470
87195W        W58724  15.522  27.631   2.778
87196W        W58725  36.359  33.611  13.007
87197W        W58726  38.962  10.119  10.102
87198W        W58727   2.223  44.376   1.859
87199W        W58728  25.184   2.722  10.973
87200W        W58729  10.658  14.880   0.806
87201W        W58730  21.590  36.394   3.835
87202W        W58731  19.136   2.956  13.051
87203W        W58732  28.266   2.566  12.488
87204W        W58733  16.805  11.161   0.877
87205W        W58734  15.928  39.085  12.936
87206W        W58735  33.093  20.285  10.351
87207W        W58736   8.928  11.571  12.981
87208W        W58737  39.315  10.061   4.627
87209W        W58738  32.788   4.310  13.836
87210W        W58739   8.013   8.432  10.572
87211W        W58740   9.154  17.693  11.875
87212W        W58741  20.407  18.514  12.298
87213W        W58742  40.404   6.285   0.435
87214W        W58743   5.675  42.654   3.408
87215W        W58744  30.401  20.583  13.419
87216W        W58745  42.735  32.148   1.532
87217W        W58746  12.577   6.334  13.312
87218W        W58747  30.821  43.646  13.528
87219W        W58748  43.273  15.724  11.244
87220W        W58749  13.164  43.000   3.196
87221W        W58750  44.696   7.307   1.333
87222W        W58751   3.265  27.234  12.623
87223W        W58752   1.010   7.458  12.090
87224W        W58753  21.097  40.515   3.293
87225W        W58754  18.067  37.530  13.972
87226W        W58755  11.928   7.986  11.408
87227W        W58756  17.352  17.966   4.563
87228W        W58757  43.495  37.091  13.850
87229W        W58758  28.542   5.377  12.571
87230W        W58759  36.422  37.366  11.596
87231W        W58760   5.063  26.409  14.797
87232W        W58761  16.344  28.516  13.951
87233W        W58762   8.604   7.475  12.102
87234W        W58763  14.317  19.720   0.474
87235W        W58764  17.169  13.660   2.210
87236W        W58765  15.972   2.419   2.806
87237W        W58766  38.293   2.649   3.877
87238W        W58767   5.369   3.766  14.732
87239W        W58768  26.867  44.537  11.023
87240W        W58769  18.118   3.735   4.321
87241W        W58770   6.109  33.451  11.648
87242W        W58771  32.592  31.784  14.944
87243W        W58772  40.076  15.332  13.887
87244W        W58773  36.100  40.895   3.728
87245W        W58774  30.866  17.047   2.176
87246W        W58775  14.313  13.538  14.545
87247W        W58776  32.085  15.624   0.989
87248W        W58777  39.906  21.571   3.804
87249W        W58778  40.292  10.705  11.681
87250W        W58779  30.943  33.939  14.943
87251W        W58780  44.217  18.177   3.223
87252W        W58781  24.623  37.172  14.333
87253W        W58782  39.095  42.338  13.868
87254W        W58783   7.423   5.683   4.036
87255W        W58784   7.777  34.521   0.736
87256W        W58785  17.791  24.018  11.396
87257W        W58786  38.405   1.454  12.064
87258W        W58787  14.341  15.075  12.996
87259W        W58788  25.190  37.601  12.370
87260W        W58789   3.238  26.362  11.102
87261W        W58790  20.112  16.124  14.508
87262W        W58791  15.068  34.815   4.745
87263W        W58792  29.545  13.681  12.832
87264W        W58793   3.245  39.432  13.950
87265W        W58794   2.077   7.095   1.856
87266W        W58795   3.039  29.574   1.893
87267W        W58796  10.933   5.726   1.239
87268W        W58797  10.950  16.616   2.243
87269W        W58798   5.104  30.140  14.454
87270W        W58799  15.055  20.074   4.126
87271W        W58800  15.798   7.250  14.554
87272W        W58801   5.306  13.227  13.048
87273W        W58802   3.446  30.651   3.706
87274W        W58803  14.198  32.559  11.146
87275W        W58804  29.086   4.469  12.525
87276W        W58805  24.545  10.728   2.222
87277W        W58806  28.807  35.552  12.082
87278W        W58807  27.086  22.934  10.809
87279W        W58808   8.437  25.409  13.749
87280W        W58809  35.020  20.088   3.585
87281W        W58810  12.749   9.128   0.972
87282W        W58811  31.460  23.023  10.867
87283W        W58812   8.571  15.332  11.908
87284W        W58813   9.153  35.865  10.749
87285W        W58814  43.437  40.691  12.948
87286W        W58815  15.306  11.089  12.933
87287W        W58816  14.654  35.531  12.975
87288W        W58817  19.439  33.385   0.333
87289W        W58818  32.031  40.080   1.096
87290W        W58819  35.668  17.896  11.976
87291W        W58820  20.411  31.991   2.181
87292W        W58821  26.981  19.112   1.139
87293W        W58822  24.888  13.818   0.908
87294W        W58823  24.544  17.566   1.284
87295W        W58824   1.344   4.668   0.046
87296W        W58825  11.635  42.344  14.225
87297W        W58826  44.851  43.026  11.216
87298W        W58827  27.191   0.388  11.982
87299W        W58828  38.650   0.963   1.019
87300W        W58829  42.529  39.625   1.381
87301W        W58830   9.657  24.247  12.895
87302W        W58831   4.433   6.313  11.607
87303W        W58832  25.447  20.949  10.741
87304W        W58833  18.702  19.343   1.654
87305W        W58834  35.812  37.613   0.775
87306W        W58835  35.635  38.264  12.634
87307W        W58836  41.971  41.715  12.005
87308W        W58837  40.259  37.857   0.827
87309W        W58838   8.713  15.078  10.947
87310W        W58839  26.784  35.046  10.360
87311W        W58840  39.359  39.472  12.025
87312W        W58841  34.557  15.725  13.799
87313W        W58842   4.359  42.593  14.888
87314W        W58843  40.957  34.968  14.833
87315W        W58844   2.901  42.544   1.836
87316W        W58845   3.349  22.414  12.797
87317W        W58846  40.526   1.590  11.583
87318W        W58847  33.168   2.402   3.592
87319W        W58848  31.852  29.920   1.727
87320W        W58849  12.719  41.558   4.631
87321W        W58850  25.768  43.878   3.192
87322W        W58851  25.007   6.739  10.490
87323W        W58852  15.252  40.560  10.975
87324W        W58853  30.576   4.721   0.312
87325W        W58854  11.828   3.548   5.097
87326W        W58855  23.684  34.424   0.811
87327W        W58856   9.608  26.148  13.061
87328W        W58857  39.144  17.224  14.191
87329W        W58858  43.312   1.960   3.136
87330W        W58859  29.303  24.329  11.198
87331W        W58860   5.660   5.383  10.730
87332W        W58861  18.227  11.306   2.725
87333W        W58862  36.032  20.531  12.373
87334W        W58863  33.186  17.231  12.843
87335W        W58864  38.973  21.039   4.418
87336W        W58865  29.976   6.361   0.702
87337W        W58866   1.205  36.048   4.355
87338W        W58867  39.067  17.648  13.859
87339W        W58868   0.720  41.905   2.133
87340W        W58869  38.956  30.751  11.088
87341W        W58870  39.609   6.229  12.378
87342W        W58871  16.780   6.877   3.740
87343W        W58872  25.538   8.804   2.951
87344W        W58873  39.615  28.904   0.519
87345W        W58874  29.091  37.926   1.885
87346W        W58875  29.115   2.715   0.683
87347W        W58876  36.631   5.672   1.399
87348W        W58877  21.034   4.155   4.366
87349W        W58878  16.034  19.301  11.958
87350W        W58879   3.719   2.751   1.700
87351W        W58880  21.124  11.186   3.209
87352W        W58881  32.429  14.024   4.667
87353W        W58882   3.508   4.974   2.268
87354W        W58883  22.828  44.733  14.886
87355W        W58884  42.036  16.537  12.477
87356W        W58885  10.618  11.613   4.125
87357W        W58886  39.557  23.546  14.343
87358W        W58887  14.303  26.167   2.946
87359W        W58888  14.522  31.790   1.871
87360W        W58889  27.671  20.111   0.383
87361W        W58890   9.072  24.565   0.554
87362W        W58891  18.108  10.837  14.489
87363W        W58892  20.717   7.451   4.165
87364W        W58893  36.954  14.734  11.052
87365W        W58894  22.303  24.033  14.556
87366W        W58895   0.138  44.677   2.346
87367W        W58896   7.899  24.703  11.974
87368W        W58897  38.795  26.122   0.008
87369W        W58898  36.623   8.352  13.413
87370W        W58899  33.372  43.261  12.076
87371W        W58900  21.280  17.220  12.880
87372W        W58901  44.658  32.851   9.790
87373W        W58902  15.703  16.277   4.601
87374W        W58903  36.349  20.175   4.636
87375W        W58904  21.009   9.692   1.253
87376W        W58905  12.592  29.472   4.076
87377W        W58906  13.111  40.446   0.160
87378W        W58907  25.786   9.106   0.445
87379W        W58908  19.247  37.069   0.836
87380W        W58909  15.266   1.688   1.017
87381W        W58910   0.972  43.813   4.553
87382W        W58911  44.470  29.100   4.636
87383W        W58912  42.313   5.478   0.463
87384W        W58913  18.227  10.756   4.472
87385W        W58914  11.835  43.541   0.283
87386W        W58915   0.194   1.326   0.501
87387W        W58916   7.474   4.299  11.941
87388W        W58917   8.726   9.609   2.062
87389W        W58918  44.511  32.409  14.427
87390W        W58919  10.095  30.088   1.349
87391W        W58920  22.283  20.091   0.963
87392W        W58921   6.801  20.180  13.477
87393W        W58922  25.124   5.586  14.537
87394W        W58923  41.701  25.021   4.638
87395W        W58924   0.886  35.205   9.930
87396W        W58925  21.260  23.665   2.643
87397W        W58926  10.574  44.856  11.277
87398W        W58927   3.698  26.483   4.585
87399W        W58928  11.237   5.305   0.724
87400W        W58929  38.025  33.449   3.764
87401W        W58930  37.531  37.362   3.050
87402W        W58931  17.689  26.227   1.615
87403W        W58932  41.882   4.483  12.675
87404W        W58933   4.479  34.418   1.313
87405W        W58934   7.279  34.473   1.974
87406W        W58935  15.086  29.950  13.682
87407W        W58936   8.841  16.735   2.405
87408W        W58937   0.718  31.048  12.727
87409W        W58938   2.004   0.989   3.138
87410W        W58939  30.914  13.181  12.398
87411W        W58940  40.826  30.973   1.831
87412W        W58941  42.958  32.343  11.127
87413W        W58942  39.330  41.408  14.174
87414W        W58943  21.618  20.307   2.192
87415W        W58944  32.719  41.771   1.846
87416W        W58945  43.262  30.756   3.211
87417W        W58946  10.041   6.154   1.269
87418W        W58947  11.031  10.151   1.875
87419W        W58948  31.347  30.710  14.871
87420W        W58949  33.608   1.022   0.371
87421W        W58950  30.024  18.134  10.811
87422W        W58951  19.923  30.151   0.482
87423W        W58952   5.883  35.291  12.875
87424W        W58953  14.108  35.524  13.874
87425W        W58954   6.303   9.029  13.460
87426W        W58955  18.751  17.785   0.889
87427W        W58956  19.441   1.012  12.081
87428W        W58957  23.643  26.499  12.542
87429W        W58958  16.398  37.975  13.361
87430W        W58959  33.144   3.693   2.205
87431W        W58960  32.918  32.543   1.188
87432W        W58961   5.387   9.892  11.098
87433W        W58962   4.328  27.700  10.971
87434W        W58963   2.471  32.356   1.253
87435W        W58964  28.066  19.285  13.883
87436W        W58965  31.130   4.926   1.650
87437W        W58966  24.777  37.660   1.761
87438W        W58967  17.339  15.834  10.735
87439W        W58968  25.252   9.741   2.881
87440W        W58969   0.254  34.806  11.572
87441W        W58970   1.297  26.565  12.083
87442W        W58971  16.762  31.747   2.864
87443W        W58972  19.176  26.867   2.726
87444W        W58973   0.865   4.871  10.309
87445W        W58974  22.622   4.584   5.091
87446W        W58975   6.811   1.203  10.943
87447W        W58976   9.803  22.471  14.736
87448W        W58977  19.064   2.869   3.793
87449W        W58978  22.146  12.783   1.279
87450W        W58979   1.764  40.724   1.696
87451W        W58980   7.020   5.354  10.889
87452W        W58981  32.191  27.177  14.490
87453W        W58982  25.683  39.902   2.084
87454W        W58983   5.824  34.172  14.443
87455W        W58984  34.481   2.992  10.594
87456W        W58985  23.158   7.703  12.771
87457W        W58986  39.850  34.498   1.817
87458W        W58987   6.812  22.176  12.165
87459W        W58988   2.721  24.498   3.189
87460W        W58989   9.045  27.762   0.827
87461W        W58990   9.760  42.540  11.874
87462W        W58991  27.574  43.732  13.772
87463W        W58992  18.323  12.042  13.726
87464W        W58993   7.699  31.958   5.077
87465W        W58994  23.512   1.518   2.711
87466W        W58995  14.824  42.396  11.651
87467W        W58996   0.668  36.332   4.268
87468W        W58997  39.336  22.197  14.508
87469W        W58998  32.504  28.023  12.985
87470W        W58999   7.704  22.244  12.024
87471W        W59000  41.953  15.688   3.627
87472W        W59001  14.625  24.110  12.558
87473W        W59002   6.828  38.250  14.752
87474W        W59003  36.596  33.916   1.802
87475W        W59004  32.100  14.090   2.248
87476W        W59005  30.033  29.047   3.836
87477W        W59006  44.528  19.528   1.298
87478W        W59007  13.706  24.453  12.957
87479W        W59008  13.862  14.095  14.932
87480W        W59009  33.929   4.948  12.579
87481W        W59010   7.230   7.600  12.077
87482W        W59011  30.457  14.542  12.001
87483W        W59012   3.506  32.813  10.097
87484W        W59013  21.952  10.695  13.131
87485W        W59014  44.013  17.822  13.392
87486W        W59015   4.007  12.275   4.030
87487W        W59016  37.922  30.042  11.218
87488W        W59017  32.783   9.383   0.894
87489W        W59018  28.484  19.080  14.967
87490W        W59019  16.776  44.121   4.757
87491W        W59020  24.614  23.686  10.511
87492W        W59021  39.897  32.579  14.517
87493W        W59022  39.332  32.369   3.211
87494W        W59023   3.331  30.630  14.424
87495W        W59024  14.668  19.220   4.128
87496W        W59025  23.519  25.936  13.439
87497W        W59026   4.982   3.710   0.456
87498W        W59027  35.180   3.787   3.226
87499W        W59028  24.269  35.104  14.805
87500W        W59029  36.804  34.377  13.240
87501W        W59030  10.829   0.228   1.384
87502W        W59031  21.057  37.882   0.321
87503W        W59032  33.420  20.814  14.354
87504W        W59033  34.786  20.214   2.730
87505W        W59034  22.527   7.129   1.941
87506W        W59035   7.959   6.459  12.458
87507W        W59036  34.111  34.269   4.857
87508W        W59037   0.487  33.347  12.339
87509W        W59038   9.269  28.564   4.756
87510W        W59039  24.633  36.000  12.166
87511W        W59040  13.691  43.484  14.764
87512W        W59041  10.245  11.531   4.498
87513W        W59042  37.611  30.998  11.137
87514W        W59043  18.750  42.575   1.853
87515W        W59044   1.398  33.488   2.896
87516W        W59045   3.707  22.012   2.683
87517W        W59046  20.961  25.058   2.431
87518W        W59047  17.252  25.211  11.653
87519W        W59048  15.937  34.115  13.665
87520W        W59049  32.136  37.332  13.578
87521W        W59050  30.490   4.492  11.593
87522W        W59051  39.490  20.874  12.041
87523W        W59052  17.013  31.477  14.799
87524W        W59053  15.582  11.949   9.868
87525W        W59054   6.768   0.156  10.486
87526W        W59055  15.785  23.279  13.005
87527W        W59056  10.795  41.891  10.164
87528W        W59057  22.713  16.248  13.104
87529W        W59058   9.078   8.171  14.839
87530W        W59059  31.399  17.301   3.950
87531W        W59060  39.900   0.502   3.884
87532W        W59061  35.872   1.964   1.375
87533W        W59062  44.987  31.550  10.827
87534W        W59063   0.944  37.895  10.998
87535W        W59064  26.680  15.850  13.410
87536W        W59065  44.993  30.950   4.110
87537W        W59066  36.111  10.848  10.712
87538W        W59067  35.354  30.414  13.994
87539W        W59068  26.514  36.055  13.348
87540W        W59069  21.221  42.864   5.128
87541W        W59070   1.490  24.652   0.735
87542W        W59071  27.370  35.935  11.425
87543W        W59072  20.263  27.042   4.137
87544W        W59073  42.143   9.803   4.189
87545W        W59074   8.302  19.881   1.148
87546W        W59075  43.435  10.949  12.595
87547W        W59076  17.250  32.519   2.625
87548W        W59077  36.037  18.376   2.735
87549W        W59078  40.097  12.151   2.317
87550W        W59079  10.151  27.956  13.951
87551W        W59080  23.032  42.832  13.454
87552W        W59081  19.257  21.953  10.120
87553W        W59082  41.889  16.781   4.766
87554W        W59083  36.875   1.428  12.069
87555W        W59084  20.777   0.806  13.393
87556W        W59085   7.458  38.084  14.047
87557W        W59086  19.495  17.144  11.453
87558W        W59087   4.412   2.171  13.084
87559W        W59088  19.201  43.718  12.899
87560W        W59089   6.365  25.998   3.152
87561W        W59090  24.444  38.341   3.106
87562W        W59091  26.646  20.916   1.730
87563W        W59092  41.041  44.184  14.143
87564W        W59093  27.529  28.364   2.485
87565W        W59094   3.711  15.134   3.639
87566W        W59095  21.096   5.158   1.337
87567W        W59096  14.788  38.041   2.320
87568W        W59097  35.841  39.756   3.255
87569W        W59098  29.626  40.452  13.875
87570W        W59099  29.195  39.532  12.296
87571W        W59100  13.704  24.062   0.346
87572W        W59101  31.035   1.816   1.776
87573W        W59102  35.581  29.939   3.494
87574W        W59103   2.063   5.769   1.370
87575W        W59104  37.322  31.530   4.122
87576W        W59105  32.531   1.770  14.783
87577W        W59106  29.565  24.164   0.387
87578W        W59107  31.470  41.055  13.752
87579W        W59108  32.088  38.421   0.490
87580W        W59109  40.665  26.514  11.089
87581W        W59110  31.050   4.325  12.818
87582W        W59111  17.495  42.702  11.227
87583W        W59112  11.270   8.862   4.315
87584W        W59113  22.661  19.731  10.650
87585W        W59114  42.457  19.753  12.394
87586W        W59115  15.737  11.614   0.333
87587W        W59116  23.524  25.236  12.102
87588W        W59117  11.386  18.077   3.771
87589W        W59118  37.066  14.887  12.574
87590W        W59119  23.788  31.043   0.472
87591W        W59120   8.410  34.929   5.066
87592W        W59121  24.052  15.936  10.762
87593W        W59122  10.616  36.383  12.032
87594W        W59123   0.329  30.592  13.522
87595W        W59124  26.195  15.888  13.198
87596W        W59125  41.933   6.463  12.579
87597W        W59126  44.404  26.549   1.692
87598W        W59127   1.416  20.360   0.511
87599W        W59128  20.851  42.335  11.205
87600W        W59129  35.272  43.271  10.467
87601W        W59130   4.754  11.945   5.174
87602W        W59131  11.305  20.106   0.898
87603W        W59132  32.175  21.161   3.604
87604W        W59133  44.952  44.707  14.943
87605W        W59134   5.134  38.510   3.553
87606W        W59135  20.497  40.614   4.160
87607W        W59136   8.156  15.704   3.231
87608W        W59137  38.408  41.083   3.639
87609W        W59138  41.323  44.594  14.352
87610W        W59139   6.477  26.682   4.636
87611W        W59140   9.450  32.424   3.408
87612W        W59141  30.491  28.072  14.713
87613W        W59142  17.187  10.170   0.707
87614W        W59143  23.626  39.224   1.010
87615W        W59144   8.910  16.339  11.080
87616W        W59145   9.198  31.376  11.512
87617W        W59146  33.360  21.458   1.071
87618W        W59147  19.490  43.904   4.628
87619W        W59148  15.327   4.800   1.853
87620W        W59149  34.382  39.336   4.841
87621W        W59150   4.477  44.856   2.460
87622W        W59151  18.172  29.840   2.500
87623W        W59152   1.468  20.769  13.415
87624W        W59153  26.945  11.800  14.293
87625W        W59154   1.453  38.632  12.620
87626W        W59155  29.450   2.724  14.381
87627W        W59156  32.737  25.929  11.582
87628W        W59157  23.119   4.601   2.194
87629W        W59158   4.181   6.190  14.415
87630W        W59159  20.461  29.144  11.970
87631W        W59160  21.950  22.134  12.841
87632W        W59161  42.618  37.998  14.447
87633W        W59162  22.555  35.944  11.538
87634W        W59163  33.559  37.750  11.939
87635W        W59164  12.704   3.949   0.911
87636W        W59165  15.733  17.671   3.942
87637W        W59166   6.297   7.178   0.247
87638W        W59167  41.493  38.285   4.115
87639W        W59168  40.610  10.804  12.665
87640W        W59169  26.323  21.501   4.227
87641W        W59170  18.233  23.309  13.422
87642W        W59171  17.300   7.398  12.493
87643W        W59172   2.870  37.304   1.837
87644W        W59173  17.615  15.200  13.979
87645W        W59174   4.313  11.461   0.333
87646W        W59175  21.149   1.442   2.924
87647W        W59176  16.398  40.611   0.100
87648W        W59177  41.098   4.882   2.915
87649W        W59178  11.151  14.595   1.858
87650W        W59179  37.363  20.016   0.534
87651W        W59180   0.876  24.698  10.715
87652W        W59181   3.183  25.270   3.751
87653W        W59182  12.387  12.555  11.262
87654W        W59183   7.643   0.044   2.630
87655W        W59184  34.869  15.784  12.256
87656W        W59185  14.838  40.713  13.031
87657W        W59186  36.587  12.126  10.786
87658W        W59187  27.562  12.530  14.249
87659W        W59188  43.380  42.392   0.975
87660W        W59189  37.252  20.097  13.074
87661W        W59190  22.689  12.616  10.749
87662W        W59191   9.126  13.204   1.451
87663W        W59192  43.334  30.577  12.033
87664W        W59193  36.273  11.335   1.700
87665W        W59194  38.817  28.984   0.888
87666W        W59195  40.597   4.817   2.748
87667W        W59196  23.242  20.441  13.510
87668W        W59197  28.990  22.518  13.529
87669W        W59198   8.914   5.307   1.396
87670W        W59199  35.083   9.725  12.006
87671W        W59200  21.716   6.296  12.709
87672W        W59201  22.810   8.594   5.143
87673W        W59202  20.126  24.366  14.042
87674W        W59203  33.373  26.518  11.813
87675W        W59204   4.378  18.624  14.435
87676W        W59205   0.996  17.550   4.222
87677W        W59206  43.348  12.062  14.516
87678W        W59207  44.470  19.648   3.258
87679W        W59208  33.539  12.386   4.654
87680W        W59209  15.701   1.363   3.056
87681W        W59210  29.453  35.192   3.163
87682W        W59211  33.449  38.039   1.836
87683W        W59212  27.840   5.686  10.725
87684W        W59213  40.370  33.410  10.216
87685W        W59214  28.636  19.144   4.503
87686W        W59215  39.907  16.597  13.361
87687W        W59216  16.668  42.428  10.992
87688W        W59217  40.782  17.590  14.546
87689W        W59218  25.368  11.054  14.886
87690W        W59219  40.376  26.862  14.885
87691W        W59220  19.496   8.763  13.822
87692W        W59221   4.443  35.979  12.054
87693W        W59222  23.354  12.506  14.396
87694W        W59223  20.906   1.830   0.734
87695W        W59224  38.716   7.728  12.056
87696W        W59225  32.590  38.314  12.934
87697W        W59226  42.982  28.844   3.707
87698W        W59227   2.836  13.442   3.581
87699W        W59228  39.527  14.126   4.155
87700W        W59229  43.984  30.689  13.382
87701W        W59230   4.492  12.184  13.936
87702W        W59231  10.296  36.607   1.215
87703W        W59232  34.939  17.559   1.327
87704W        W59233  15.173   2.300  13.433
87705W        W59234  22.668  16.610   1.920
87706W        W59235   7.305  38.847  12.389
87707W        W59236  34.075  23.754   2.039
87708W        W59237  27.565  33.466  13.463
87709W        W59238  38.507  15.548   1.062
87710W        W59239   7.816  13.865   3.118
87711W        W59240   1.944   0.785   2.670
87712W        W59241  24.187  41.252   0.229
87713W        W59242  34.041   4.314   3.204
87714W        W59243  10.492  20.003   1.350
87715W        W59244  26.967  42.532  10.430
87716W        W59245  28.109   9.803  13.574
87717W        W59246  25.949  39.518   2.333
87718W        W59247   4.497  42.034  12.921
87719W        W59248  31.350  13.143   0.998
87720W        W59249  41.966  25.007  11.064
87721W        W59250  18.658  11.083  11.596
87722W        W59251  43.741  12.638  11.020
87723W        W59252  11.722  11.759   0.321
87724W        W59253  36.997  21.785   4.091
87725W        W59254  44.701  44.479   2.162
87726W        W59255  40.910  20.685   1.943
87727W        W59256  22.304  41.394  13.014
87728W        W59257  12.294   7.535  14.554
87729W        W59258   7.891   0.990  14.922
87730W        W59259  18.731  41.231   0.170
87731W        W59260  20.183   3.913   0.726
87732W        W59261  30.002  12.421  11.484
87733W        W59262  12.640  40.957  13.138
87734W        W59263  34.465  35.787   2.580
87735W        W59264  27.934  26.537  14.959
87736W        W59265   6.228  34.051  12.802
87737W        W59266  41.970  23.550  10.687
87738W        W59267  29.100  24.015  11.547
87739W        W59268   4.935  17.474   1.495
87740W        W59269  16.134  20.145  13.492
87741W        W59270  13.879  42.340  10.750
87742W        W59271  31.537  16.543   3.345
87743W        W59272  21.241   9.183  14.967
87744W        W59273  17.648  43.353  13.846
87745W        W59274  11.600  35.616  13.912
87746W        W59275  42.162  18.614  12.002
87747W        W59276   1.345  22.955  10.730
87748W        W59277  12.058  24.736  11.959
87749W        W59278   6.424  23.174  12.104
87750W        W59279   4.644   9.221   4.767
87751W        W59280  24.296  23.883  12.962
87752W        W59281  22.566  12.302  11.125
87753W        W59282  32.731  31.965  11.641
87754W        W59283  38.335  19.647   0.390
87755W        W59284  37.518   3.111  13.453
87756W        W59285  26.903  23.152  11.640
87757W        W59286  14.564  10.929   4.161
87758W        W59287  14.959  20.416  13.398
87759W        W59288   4.069  23.320   0.864
87760W        W59289  41.500  42.934  10.369
87761W        W59290  29.763  31.873   0.464
87762W        W59291  38.785  26.161  13.643
87763W        W59292  32.209  24.272   0.935
87764W        W59293   3.686  28.163   3.625
87765W        W59294  41.347  11.180  14.525
87766W        W59295  15.138   0.179  12.092
87767W        W59296  11.634   8.885   0.215
87768W        W59297  12.926  44.472   5.002
87769W        W59298  14.137  27.401  12.627
87770W        W59299  13.648  44.814   3.055
87771W        W59300  40.746   9.519   1.142
87772W        W59301  38.719  37.921  14.980
87773W        W59302   4.314  33.176  10.672
87774W        W59303  20.804  14.773  14.431
87775W        W59304  40.163  41.848   5.053
87776W        W59305  25.646  33.889   1.447
87777W        W59306  36.867  11.861   3.372
87778W        W59307  27.706  23.539  10.681
87779W        W59308  37.882  29.382   4.563
87780W        W59309  23.942   0.242   4.190
87781W        W59310  14.800   0.407   2.678
87782W        W59311  41.285  30.505   3.767
87783W        W59312  31.163  43.527   4.265
87784W        W59313  44.569  25.241  14.329
87785W        W59314  11.276  26.033   3.922
87786W        W59315   4.475  16.174   4.147
87787W        W59316  11.186  31.489   0.160
87788W        W59317   1.784  35.400   4.873
87789W        W59318   7.170   2.298  12.154
87790W        W59319   4.965  34.188  13.399
87791W        W59320  21.263  43.924   0.264
87792W        W59321  43.229  22.026   0.431
87793W        W59322  26.679   7.363   3.668
87794W        W59323  22.071   4.244   0.411
87795W        W59324  13.560  40.815  12.561
87796W        W59325  43.995   0.878   2.305
87797W        W59326   0.948  40.350   3.086
87798W        W59327   3.993  28.730   3.228
87799W        W59328  17.012  19.551   0.135
87800W        W59329   6.241  41.403  13.422
87801W        W59330  27.167  32.938  14.318
87802W        W59331   3.746  29.379   4.274
87803W        W59332  12.349  28.711   4.553
87804W        W59333  33.911  14.744  14.265
87805W        W59334  17.063   2.326  11.649
87806W        W59335  39.008  32.182   1.864
87807W        W59336   9.094   0.561  13.613
87808W        W59337  36.634  31.547  12.862
87809W        W59338  25.148   0.334  10.277
87810W        W59339  35.571  44.164  12.881
87811W        W59340  21.778  42.413  11.103
87812W        W59341  10.742  16.096  11.003
87813W        W59342  21.280  39.629   2.369
87814W        W59343  31.313  33.110   2.805
87815W        W59344   0.389  14.404   0.444
87816W        W59345   6.882  14.634  13.363
87817W        W59346   4.965  39.480  11.609
87818W        W59347  21.574  38.246  11.510
87819W        W59348  34.954  15.978  10.806
87820W        W59349  10.768  31.529   1.923
87821W        W59350   8.169  43.794   1.212
87822W        W59351  22.205   6.141   4.220
87823W        W59352  25.504  22.044  12.615
87824W        W59353  19.331  10.719  13.462
87825W        W59354  13.457  30.872  14.222
87826W        W59355   3.210  22.909  12.856
87827W        W59356   6.127  13.923  14.280
87828W        W59357  43.896  31.517   1.441
87829W        W59358  11.852  33.020  11.418
87830W        W59359  29.900  30.144  11.226
87831W        W59360  34.257  33.434  11.720
87832W        W59361   7.479   0.121  12.563
87833W        W59362   5.088  31.967   3.446
87834W        W59363  27.478   1.747  11.613
87835W        W59364   9.941   9.385  14.344
87836W        W59365  11.713  23.007   2.720
87837W        W59366  15.743  15.429   1.692
87838W        W59367   7.704   8.446  11.254
87839W        W59368  36.427  38.409  14.133
87840W        W59369  13.707   5.546  11.581
87841W        W59370  42.902  32.432  13.084
87842W        W59371   4.872   0.081  12.569
87843W        W59372   9.312  42.460  11.564
87844W        W59373  27.577  12.320  12.956
87845W        W59374  44.730  20.884   4.759
87846W        W59375  37.983  24.749   4.639
87847W        W59376   3.825  24.059   1.882
87848W        W59377  28.881  12.654  10.943
87849W        W59378  18.129  18.714   4.771
87850W        W59379  20.688  28.569   2.391
87851W        W59380  30.172  16.548  13.128
87852W        W59381  26.426   8.283  12.065
87853W        W59382  20.057  44.335   4.110
87854W        W59383  36.775  28.526   3.689
87855W        W59384   4.835  21.875  12.405
87856W        W59385  14.325  18.594   3.777
87857W        W59386  25.121  30.541  12.672
87858W        W59387  37.573   2.866  11.997
87859W        W59388  22.785  27.262   4.656
87860W        W59389   2.212  43.237  11.144
87861W        W59390  22.043  36.012  14.475
87862W        W59391  37.105  12.855   4.207
87863W        W59392  23.085  35.422  14.366
87864W        W59393  34.806   9.438  14.081
87865W        W59394  20.777   3.404  14.374
87866W        W59395  41.029  30.772   3.373
87867W        W59396  34.500  39.517   0.300
87868W        W59397  31.583  40.465  10.733
87869W        W59398  12.277  10.102   2.039
87870W        W59399   0.062  37.600   0.965
87871W        W59400  24.574  44.423  13.592
87872W        W59401  23.580  43.020  13.911
87873W        W59402  13.786  22.084  12.142
87874W        W59403  30.186   9.348  14.813
87875W        W59404  23.404  37.563   4.968
87876W        W59405  44.276   1.284   0.689
87877W        W59406  44.507  12.587   2.087
87878W        W59407  29.476  31.396  12.986
87879W        W59408  22.249  29.131   3.564
87880W        W59409  18.601  29.473  13.830
87881W        W59410  18.881  41.863  14.349
87882W        W59411   3.977  24.788  12.609
87883W        W59412  43.777  21.377  14.732
87884W        W59413   9.131  34.887   1.759
87885W        W59414  34.609  22.659   1.334
87886W        W59415  23.678  29.133   2.444
87887W        W59416  29.093  14.461  12.263
87888W        W59417   4.506  31.977  13.928
87889W        W59418   7.859  43.009   5.294
87890W        W59419  15.359  39.267  13.428
87891W        W59420  37.970  18.154   0.686
87892W        W59421  13.179  34.958   4.794
87893W        W59422  37.047  42.727  12.494
87894W        W59423  40.764  14.834  11.754
87895W        W59424  11.939  11.657  12.931
87896W        W59425   5.843   3.726   4.301
87897W        W59426  40.862   1.823  13.791
87898W        W59427  16.361   2.213  14.620
87899W        W59428   7.842  14.933   3.824
87900W        W59429  27.563  40.377   2.299
87901W        W59430  39.087  25.546   3.683
87902W        W59431  21.062   9.455  14.519
87903W        W59432  30.291  32.125   3.133
87904W        W59433  35.966  40.909   0.755
87905W        W59434  29.109   5.741  12.926
87906W        W59435   6.351  30.864   2.901
87907W        W59436   9.543  29.526   3.130
87908W        W59437  14.206   9.807  11.615
87909W        W59438  26.624  21.191   2.163
87910W        W59439  32.600  42.239   4.701
87911W        W59440  29.826   6.439  13.908
87912W        W59441  40.707  25.432  12.013
87913W        W59442   0.706   1.797   4.720
87914W        W59443   1.808  44.678   1.922
87915W        W59444  32.908  38.057   0.966
87916W        W59445  33.668  15.533  10.971
87917W        W59446  29.940   9.600  11.201
87918W        W59447  32.082  12.443  11.479
87919W        W59448  12.274   4.905   1.861
87920W        W59449  15.145  13.164  12.952
87921W        W59450  32.341  10.930   0.503
87922W        W59451   3.282  18.536   3.254
87923W        W59452  43.916   0.443   0.869
87924W        W59453  15.105  27.401   0.844
87925W        W59454  44.714   7.687   2.627
87926W        W59455  27.156   2.543   1.914
87927W        W59456  23.585  42.808   3.226
87928W        W59457   3.794  25.679  13.516
87929W        W59458   1.303   7.876  12.127
87930W        W59459   2.798  39.613  14.200
87931W        W59460  37.768  13.806   2.245
87932W        W59461  28.640  17.163  10.154
87933W        W59462  40.003   6.431   4.115
87934W        W59463  33.977  28.965  13.914
87935W        W59464  29.909  29.502  12.485
87936W        W59465   3.147  42.218   5.138
87937W        W59466  38.628  22.994  13.984
87938W        W59467  18.216   3.218   0.305
87939W        W59468  27.957   8.694  12.424
87940W        W59469  39.480   2.663   4.144
87941W        W59470   6.166  14.190   4.514
87942W        W59471  25.243  31.919   2.623
87943W        W59472  37.535  23.086   0.970
87944W        W59473  16.248  24.935   2.419
87945W        W59474   9.630  41.607  14.297
87946W        W59475  10.348  42.714  14.999
87947W        W59476  33.829  16.747  10.410
87948W        W59477  30.990  40.600   2.716
87949W        W59478   2.846  10.588   0.928
87950W        W59479  18.880  44.948   1.848
87951W        W59480  35.506  28.407   3.280
87952W        W59481  40.649  20.009   0.392
87953W        W59482  35.862  31.099  10.824
87954W        W59483  29.809  29.627   0.671
87955W        W59484  22.098  15.337  14.529
87956W        W59485  12.349  19.147   4.987
87957W        W59486  34.439  14.168  11.979
87958W        W59487  44.544  32.282  11.261
87959W        W59488  35.403  21.118   1.041
87960W        W59489  21.210  24.737  14.280
87961W        W59490  43.771   6.750   2.886
87962W        W59491  38.607  31.729  14.656
87963W        W59492  38.317  13.316  14.537
87964W        W59493  16.271  28.357  13.073
87965W        W59494  21.024  17.385   3.963
87966W        W59495  22.726  11.786  13.862
87967W        W59496   7.798  36.342   3.278
87968W        W59497   4.399  13.371  13.603
87969W        W59498  32.912   5.194   1.234
87970W        W59499  34.659  43.511   3.785
87971W        W59500  20.933  25.635   1.640
87972W        W59501  30.649  32.315  11.960
87973W        W59502  29.545  22.212  10.609
87974W        W59503  28.158  40.767  13.168
87975W        W59504  24.972  36.647  13.496
87976W        W59505   9.905   2.881  14.815
87977W        W59506  43.745   7.499   0.946
87978W        W59507   5.146  42.794  12.482
87979W        W59508   8.401   5.916  12.836
87980W        W59509  43.965  24.992  12.680
87981W        W59510  23.994  18.634   1.317
87982W        W59511  23.502  30.570   4.570
87983W        W59512  25.046   3.891   4.233
87984W        W59513   4.475  30.140  11.086
87985W        W59514   3.718  23.337   3.300
87986W        W59515  36.482  41.088   0.387
87987W        W59516  32.895   1.108   3.320
87988W        W59517   5.194   7.206   2.207
87989W        W59518  20.511  41.523   4.015
87990W        W59519  18.732   9.780  11.934
87991W        W59520  19.614  25.501  13.464
87992W        W59521  16.329  18.377  12.090
87993W        W59522  37.157  38.047   2.807
87994W        W59523  19.152  40.822   3.830
87995W        W59524  19.828  34.132  10.589
87996W        W59525   9.226  10.145   4.492
87997W        W59526  10.176  28.402  13.037
87998W        W59527   3.841  14.166   2.139
87999W        W59528  27.625  22.804   0.015
88000W        W59529  13.254  11.217  10.351
88001W        W59530  40.676  38.352   4.512
88002W        W59531   0.663  19.075   3.133
88003W        W59532  20.630  10.089  10.657
88004W        W59533  17.751  17.088   4.821
88005W        W59534   2.996   6.179   2.919
88006W        W59535  40.800  41.337   0.685
88007W        W59536   9.167  40.153   3.166
88008W        W59537  20.839  25.919  10.944
88009W        W59538   4.340   4.389   1.385
88010W        W59539  18.304  24.845   4.330
88011W        W59540  28.990  16.222   3.687
88012W        W59541   2.296  22.814   1.466
88013W        W59542   4.252  34.950  11.043
88014W        W59543  29.018  41.356  14.941
88015W        W59544  37.504  43.580   1.842
88016W        W59545  14.980  40.468  14.839
88017W        W59546  17.212  20.412   4.003
88018W        W59547  12.384  31.166   3.043
88019W        W59548   2.971  11.519   4.590
88020W        W59549  28.540   4.222  14.462
88021W        W59550  42.506   1.508   1.236
88022W        W59551  30.025   1.550  12.625
88023W        W59552  41.433  19.652   3.975
88024W        W59553  15.060  42.886  10.114
88025W        W59554  43.553   0.341  10.320
88026W        W59555   4.630   2.464  14.831
88027W        W59556  25.998  40.418  11.179
88028W        W59557  11.100  10.225  11.192
88029W        W59558  33.403  25.703   1.793
88030W        W59559  18.614  35.343  11.100
88031W        W59560  15.878   2.618   3.662
88032W        W59561   0.900  22.381  14.697
88033W        W59562  25.189   0.888  12.552
88034W        W59563   9.405  13.612   1.238
88035W        W59564  39.830  13.281   0.375
88036W        W59565   6.678  13.442   3.231
88037W        W59566  41.362  44.908  13.109
88038W        W59567   6.013  19.782  10.655
88039W        W59568  31.425  19.703  10.577
88040W        W59569  43.653  24.585  12.545
88041W        W59570  14.795   0.562  14.889
88042W        W59571  16.066   5.249  13.537
88043W        W59572  36.589   8.985   4.758
88044W        W59573  19.412  44.215   0.202
88045W        W59574  26.613  38.724  14.728
88046W        W59575  21.805  15.755  14.765
88047W        W59576  18.196  27.183   4.102
88048W        W59577   2.885  44.759   4.884
88049W        W59578  42.863   4.191  13.501
88050W        W59579  16.550  21.139   3.642
88051W        W59580  30.640  25.971   3.827
88052W        W59581   3.000  19.668  12.559
88053W        W59582   7.326   8.589   4.520
88054W        W59583  26.485  44.011   0.359
88055W        W59584  24.302   9.139   0.248
88056W        W59585   8.850  16.179   0.714
88057W        W59586  27.058   3.382  10.623
88058W        W59587  19.496  19.600  11.212
88059W        W59588  26.384  20.673   0.781
88060W        W59589  31.319  12.669  11.626
88061W        W59590  34.534   3.751   4.170
88062W        W59591   3.874  19.752   2.150
88063W        W59592  16.783  14.539  11.580
88064W        W59593   0.393  38.783  14.714
88065W        W59594  25.634  30.133  13.845
88066W        W59595  16.515  41.085  13.477
88067W        W59596  18.879   5.546   0.206
88068W        W59597   2.632  12.773  10.292
88069W        W59598  17.767  31.935   3.705
88070W        W59599  14.338   4.414   2.855
88071W        W59600  43.023  25.145   0.463
88072W        W59601  28.375  16.321   2.693
88073W        W59602  22.708   9.121   3.063
88074W        W59603  41.428  19.541   1.705
88075W        W59604  37.125  37.692   2.384
88076W        W59605   6.376   4.289   0.216
88077W        W59606  43.795  28.779   3.295
88078W        W59607  42.120  37.642  11.550
88079W        W59608  12.881   7.615  12.595
88080W        W59609  38.927  37.649  12.690
88081W        W59610  17.867   6.042  14.923
88082W        W59611  10.703  12.855  14.306
88083W        W59612  25.011  36.000  12.918
88084W        W59613  16.120  16.956   3.818
88085W        W59614   5.260  36.838   4.524
88086W        W59615  30.288  26.140   4.183
88087W        W59616   2.316   9.767   1.686
88088W        W59617   2.894  37.857   3.063
88089W        W59618  14.673  26.402   1.373
88090W        W59619   6.220  23.044   1.704
88091W        W59620  12.854   1.289  11.935
88092W        W59621  13.056  37.821  11.226
88093W        W59622  36.063  43.365  14.980
88094W        W59623  38.442  19.114   0.417
88095W        W59624  35.321  44.279   2.353
88096W        W59625   5.698  38.134  13.543
88097W        W59626  24.174  31.430   3.842
88098W        W59627  22.101  28.857   1.273
88099W        W59628  29.146  21.012   4.167
88100W        W59629   2.515  39.510  12.421
88101W        W59630  23.275  15.695  13.771
88102W        W59631  12.019  23.144  11.605
88103W        W59632  30.517  37.600  12.715
88104W        W59633  40.775  16.510  12.914
88105W        W59634  15.161  35.024   2.555
88106W        W59635  13.377  13.746  10.586
88107W        W59636  23.237  26.165   0.325
88108W        W59637   9.687  21.499  10.562
88109W        W59638  25.692   2.372   0.282
88110W        W59639  28.612   3.873   4.517
88111W        W59640  43.465  35.405   3.761
88112W        W59641  22.775  28.262   0.931
88113W        W59642  35.017  12.485   2.790
88114W        W59643  30.587  23.458  13.198
88115W        W59644  43.259  43.846   1.709
88116W        W59645  39.333  38.780  12.755
88117W        W59646  35.689  24.825  11.892
88118W        W59647   9.146  19.277   5.637
88119W        W59648  20.361   0.937  12.549
88120W        W59649  26.266  12.294  14.801
88121W        W59650  13.557   5.331   1.869
88122W        W59651  22.353   0.938  13.454
88123W        W59652  27.510  37.357  12.144
88124W        W59653  29.094  44.158  14.464
88125W        W59654  20.192  26.959  12.391
88126W        W59655  30.574  15.680  13.012
88127W        W59656  39.931  35.160  12.197
88128W        W59657  22.006  38.232   1.886
88129W        W59658  12.606  24.415  11.083
88130W        W59659  41.490  43.856  12.814
88131W        W59660  36.034  27.383  14.232
88132W        W59661   7.944  21.957   1.427
88133W        W59662  11.325  40.539   0.806
88134W        W59663  31.402  28.213   4.624
88135W        W59664  11.341  42.049  13.944
88136W        W59665  38.838  17.285   1.835
88137W        W59666   4.589   3.433   0.664
88138W        W59667  22.665  24.063   3.860
88139W        W59668  36.870  35.087   1.851
88140W        W59669  22.795   6.758   1.668
88141W        W59670  20.699  31.155   2.648
88142W        W59671  16.322  15.609   4.539
88143W        W59672  15.601   5.366   0.817
88144W        W59673  37.480  26.567  13.576
88145W        W59674  12.274  19.309   2.810
88146W        W59675  13.351   3.560   1.969
88147W        W59676  12.170   7.792   3.323
88148W        W59677  22.220  10.634   4.517
88149W        W59678   6.281   2.479  11.888
88150W        W59679   6.558  36.510   2.760
88151W        W59680  30.493  25.846  12.281
88152W        W59681  15.180   8.206   1.370
88153W        W59682   4.876  42.084   5.063
88154W        W59683  34.573  30.844  12.291
88155W        W59684   1.353  31.642  11.193
88156W        W59685  15.392  34.909  13.479
88157W        W59686  28.674   2.724  10.635
88158W        W59687   1.184  21.222  13.432
88159W        W59688  35.417  34.567   0.545
88160W        W59689  15.044  16.459  12.418
88161W        W59690  42.363  35.523   2.159
88162W        W59691  20.437   6.025  13.807
88163W        W59692  43.735  33.576   2.241
88164W        W59693  11.969  20.544   0.541
88165W        W59694  38.288   1.998  12.844
88166W        W59695  26.677  33.756   2.938
88167W        W59696  22.234  24.545  12.405
88168W        W59697  24.994  21.080  10.926
88169W        W59698  16.054   9.642  12.919
88170W        W59699   8.792  33.268  10.713
88171W        W59700  33.230  10.869   4.498
88172W        W59701  21.117   4.449   3.178
88173W        W59702   5.636   5.749   4.153
88174W        W59703  22.460  28.260  13.007
88175W        W59704  33.467  35.041  10.506
88176W        W59705  14.217   7.415  14.321
88177W        W59706  32.401  22.345   4.157
88178W        W59707  13.277   1.225  13.941
88179W        W59708  18.652   9.560   1.109
88180W        W59709  12.339  17.135  12.045
88181W        W59710  43.385  44.443  12.047
88182W        W59711  25.517  14.843  10.643
88183W        W59712  12.696  23.154   1.412
88184W        W59713   7.890  42.551   3.396
88185W        W59714  32.273  18.887  13.523
88186W        W59715  14.202  17.495  13.267
88187W        W59716   8.949  19.533  10.738
88188W        W59717  11.121  33.619   0.752
88189W        W59718   0.308  27.920   2.438
88190W        W59719  30.134   1.661  14.905
88191W        W59720  13.191   5.637   3.685
88192W        W59721  36.283  36.889   0.900
88193W        W59722  44.896  33.695   2.369
88194W        W59723   7.201   0.734  13.403
88195W        W59724  27.672  29.565  11.629
88196W        W59725  41.945  36.754   3.571
88197W        W59726  21.430  30.215  10.624
88198W        W59727  40.611  11.438   1.659
88199W        W59728   8.327   8.930   0.705
88200W        W59729  15.703  34.460   4.308
88201W        W59730  15.902  20.703   4.338
88202W        W59731  36.764   6.869   3.147
88203W        W59732  41.014  32.710  12.900
88204W        W59733  14.664  32.344  11.007
88205W        W59734  34.035  24.192  12.047
88206W        W59735  34.904  22.846  12.093
88207W        W59736  19.076  43.878   1.964
88208W        W59737  13.368   2.357  13.964
88209W        W59738  25.176  25.477  13.851
88210W        W59739   1.569  15.806   4.089
88211W        W59740  28.668  13.268  10.167
88212W        W59741  29.208  22.230  13.969
88213W        W59742  16.376   9.225   1.054
88214W        W59743  27.144   2.206   0.322
88215W        W59744  22.379  25.620   1.925
88216W        W59745  29.968  25.561   2.896
88217W        W59746  27.990  28.524   2.270
88218W        W59747  39.114   7.308   0.954
88219W        W59748   0.691  25.992  10.749
88220W        W59749  30.668  13.576   3.489
88221W        W59750   3.788  13.593   0.737
88222W        W59751   1.177  44.009  11.875
88223W        W59752  32.433  19.778  10.592
88224W        W59753  16.070  31.771  10.470
88225W        W59754  16.230   0.590   2.748
88226W        W59755  15.779  22.226  13.051
88227W        W59756  28.906  25.062   4.184
88228W        W59757  33.596  38.134  13.897
88229W        W59758   8.363  28.001  11.674
88230W        W59759  12.893  13.981   4.362
88231W        W59760  29.419  38.330   4.114
88232W        W59761   4.937  11.167   4.285
88233W        W59762  11.346   9.571  13.436
88234W        W59763   3.939  42.114  14.270
88235W        W59764  36.895  13.916  14.521
88236W        W59765  30.017  27.127  11.346
88237W        W59766  17.101  42.975  13.931
88238W        W59767  14.574  18.788  13.404
88239W        W59768  37.778  31.043  14.015
88240W        W59769  16.080  17.974   3.702
88241W        W59770   2.191  20.671   2.717
88242W        W59771  38.929  26.643  14.671
88243W        W59772  22.401  30.463   1.273
88244W        W59773  29.573  12.766  10.289
88245W        W59774  35.176  28.013   2.345
88246W        W59775  12.062  43.806  12.135
88247W        W59776   2.271   6.466  12.235
88248W        W59777  23.240  23.658   2.814
88249W        W59778  26.987  24.902  11.900
88250W        W59779  39.906  32.972  13.347
88251W        W59780  42.499  20.757  14.723
88252W        W59781   9.774  12.720  12.007
88253W        W59782  32.978   7.653   0.433
88254W        W59783   6.847  14.354   0.925
88255W        W59784  40.984  24.768  14.322
88256W        W59785  24.670  18.950   2.258
88257W        W59786   1.435  30.605   3.943
88258W        W59787   6.048  26.648   4.343
88259W        W59788  24.106  31.924   3.966
88260W        W59789  42.222  43.810  13.910
88261W        W59790  35.173  36.970  13.588
88262W        W59791   4.802   8.246   0.260
88263W        W59792  16.109   4.869   1.443
88264W        W59793  30.819  16.617   2.446
88265W        W59794  11.718  37.508   1.686
88266W        W59795  11.185  34.580  11.413
88267W        W59796  27.502  27.743  13.352
88268W        W59797  33.929  31.615   0.372
88269W        W59798  10.297   7.972   0.545
88270W        W59799  25.533   4.193   2.872
88271W        W59800  26.741  39.924  12.633
88272W        W59801  24.575  21.590   2.271
88273W        W59802   6.198  14.822  14.513
88274W        W59803  15.752   3.730   1.009
88275W        W59804  20.266  34.592   4.144
88276W        W59805  36.067  30.620  12.023
88277W        W59806   9.189   7.354  13.814
88278W        W59807  32.918  24.614   3.951
88279W        W59808  38.047  27.131  11.584
88280W        W59809  13.563  19.254  11.262
88281W        W59810  44.410   2.751  13.991
88282W        W59811  41.792  19.138   0.039
88283W        W59812   1.027   4.474   0.996
88284W        W59813  14.255  31.916   5.007
88285W        W59814  17.675   3.659   2.307
88286W        W59815  27.210  42.167   4.765
88287W        W59816   2.266  44.506  13.840
88288W        W59817  36.955  21.693   1.631
88289W        W59818  36.066  13.781   1.819
88290W        W59819  44.299  14.831  13.607
88291W        W59820  16.192  40.713   0.651
88292W        W59821   8.316  24.181   1.289
88293W        W59822  26.846  44.725   4.359
88294W        W59823  35.139  14.626  12.364
88295W        W59824  22.186  39.604   3.727
88296W        W59825   8.381   7.781   3.293
88297W        W59826  26.479  10.270   1.603
88298W        W59827  44.008  31.421   4.663
88299W        W59828   4.522  32.450   3.012
88300W        W59829  36.618  11.698  10.489
88301W        W59830  27.401   3.209   1.366
88302W        W59831   6.107   6.367  12.087
88303W        W59832  21.083  19.757   0.499
88304W        W59833  44.266  12.776   4.917
88305W        W59834  43.517  44.560  10.236
88306W        W59835   0.662  21.946  13.875
88307W        W59836  38.865  20.989   2.405
88308W        W59837  36.729  12.236   3.714
88309W        W59838  20.264   6.759   3.086
88310W        W59839  39.354  15.124   4.387
88311W        W59840  34.124   5.377  11.177
88312W        W59841  36.895  21.592  11.588
88313W        W59842  37.645  35.993   4.070
88314W        W59843  40.270   2.286  12.029
88315W        W59844  30.195  33.692   2.369
88316W        W59845  43.315  26.731   3.300
88317W        W59846  19.773  40.261   0.360
88318W        W59847   2.772  24.250  10.685
88319W        W59848   7.889  16.505   4.129
88320W        W59849  38.495  34.528  13.599
88321W        W59850  27.093  13.920   2.389
88322W        W59851  25.706  26.280  12.972
88323W        W59852  23.716   8.577  11.617
88324W        W59853  30.061  42.589   4.675
88325W        W59854  10.820   0.331  11.215
88326W        W59855  17.651  40.850   2.924
88327W        W59856  18.457  13.334  11.181
88328W        W59857  14.809  17.185  10.286
88329W        W59858  26.140  44.222   4.392
88330W        W59859  30.573  25.115  14.407
88331W        W59860   1.357  43.261  11.286
88332W        W59861  43.345  19.947  13.303
88333W        W59862  12.836  31.144   0.418
88334W        W59863  33.133  41.530  13.452
88335W        W59864  30.446  27.205   3.271
88336W        W59865  42.030  27.952  12.957
88337W        W59866  10.117  38.974   5.058
88338W        W59867  34.226  19.784   2.949
88339W        W59868  24.540  24.168  10.669
88340W        W59869  30.161  24.056   1.628
88341W        W59870  42.720  33.099  11.578
88342W        W59871  44.824  12.903   3.264
88343W        W59872   0.740  28.971   1.668
88344W        W59873  26.628  11.856   4.060
88345W        W59874  15.929  30.703   0.909
88346W        W59875   4.450  23.685  10.638
88347W        W59876   3.532  28.871   0.054
88348W        W59877  26.669  37.506   4.929
88349W        W59878  40.282  14.185   3.647
88350W        W59879  24.198  20.972   0.814
88351W        W59880  25.887  42.852   1.344
88352W        W59881  38.670  44.184  12.384
88353W        W59882  36.288  35.407   4.095
88354W        W59883  37.929  28.960  12.723
88355W        W59884  24.106   7.364   1.988
88356W        W59885   3.119  24.130   0.161
88357W        W59886  22.583  38.269  14.482
88358W        W59887  23.649  30.100   2.792
88359W        W59888  28.766  28.079  12.320
88360W        W59889   9.821   8.420   0.033
88361W        W59890  21.077   0.425  13.149
88362W        W59891  37.534   4.344   1.739
88363W        W59892   3.619  33.158  11.036
88364W        W59893  23.258  30.135   0.319
88365W        W59894  32.271  22.765   5.020
88366W        W59895  35.564   0.231  11.886
88367W        W59896  43.868  31.138   0.654
88368W        W59897  32.168  43.829  12.388
88369W        W59898  16.766  40.022  12.568
88370W        W59899  18.980  10.257  13.922
88371W        W59900  43.489  35.456  10.636
88372W        W59901  31.929  17.263   3.229
88373W        W59902  30.038  37.510   0.483
88374W        W59903  10.782  44.548   3.606
88375W        W59904  17.664  13.289   2.667
88376W        W59905  14.608  40.235   0.114
88377W        W59906  43.456  10.380  12.934
88378W        W59907  18.047  20.795   1.151
88379W        W59908  21.075   8.746  13.088
88380W        W59909   9.290  31.877  11.604
88381W        W59910  13.353  41.064  13.310
88382W        W59911  32.637   3.268  11.646
88383W        W59912   7.748  28.387   2.482
88384W        W59913   8.225   2.224  13.423
88385W        W59914  38.828  14.772  14.028
88386W        W59915  37.273  22.568  10.675
88387W        W59916   2.914  44.797  12.593
88388W        W59917   4.663   9.713   4.526
88389W        W59918  32.421  23.954   1.321
88390W        W59919  23.617   5.668  12.980
88391W        W59920  22.151   8.492   3.391
88392W        W59921  27.603  15.880   1.700
88393W        W59922  24.343   2.749  14.097
88394W        W59923  36.065  10.888   1.836
88395W        W59924  15.461  27.535  12.618
88396W        W59925   4.797   1.732   2.733
88397W        W59926  15.806   6.696  10.738
88398W        W59927  12.640  17.781  11.974
88399W        W59928  33.005  16.084   1.348
88400W        W59929  26.157  16.790  14.320
88401W        W59930  16.967  34.855  14.795
88402W        W59931   3.226   8.454  10.831
88403W        W59932  21.276  39.784  14.428
88404W        W59933  17.713  42.324  12.167
88405W        W59934  42.470   9.868  14.488
88406W        W59935  17.675   1.209   4.859
88407W        W59936  15.585  22.233   3.734
88408W        W59937  24.564  23.683  11.027
88409W        W59938  43.346   7.120  10.810
88410W        W59939  20.761  26.442  11.031
88411W        W59940  31.775  35.869   0.535
88412W        W59941  25.701  40.734   1.264
88413W        W59942  28.554  37.008   1.710
88414W        W59943  33.285  13.169  10.310
88415W        W59944  25.140  24.708   3.707
88416W        W59945  17.161  15.581   3.639
88417W        W59946   2.711   4.196  11.174
88418W        W59947  24.931   4.243  14.051
88419W        W59948  18.098  13.080   1.719
88420W        W59949  29.466  22.665  14.889
88421W        W59950  37.015   6.397   3.824
88422W        W59951  20.495   9.915   3.227
88423W        W59952  24.528   9.770  11.210
88424W        W59953  16.809  35.794  14.889
88425W        W59954  27.288  39.404  11.429
88426W        W59955  41.261   5.391   4.561
88427W        W59956  22.377   1.004  11.774
88428W        W59957   0.890   7.736   2.370
88429W        W59958   6.172  11.324   0.728
88430W        W59959  28.270  37.445   1.305
88431W        W59960  23.719  21.036  11.152
88432W        W59961   1.265  42.797   3.111
88433W        W59962  23.799  44.271   2.183
88434W        W59963   5.666  44.725  13.427
88435W        W59964  44.385  22.006   0.762
88436W        W59965  36.881  35.131   1.328
88437W        W59966  44.815  40.782   4.895
88438W        W59967  18.285   5.138   2.727
88439W        W59968  17.028   8.701  12.771
88440W        W59969  23.035  15.601  11.953
88441W        W59970   2.769  13.976   4.876
88442W        W59971  36.796  40.340   0.983
88443W        W59972  12.366  29.709   3.661
88444W        W59973  37.247  26.607   0.573
88445W        W59974  43.924  15.712   3.812
88446W        W59975  11.780  24.006  12.961
88447W        W59976  31.116  36.648  11.062
88448W        W59977   0.368  38.865   2.954
88449W        W59978  11.897  27.206  14.322
88450W        W59979  21.159  36.899  12.107
88451W        W59980  33.447  25.054  14.015
88452W        W59981  36.780  26.910  11.177
88453W        W59982  42.336  19.496   0.837
88454W        W59983  43.438  36.202   4.174
88455W        W59984  29.126  27.681  12.391
88456W        W59985  37.463  16.533  14.463
88457W        W59986  29.451  16.457   3.936
88458W        W59987  14.529  12.109  13.841
88459W        W59988  40.895   4.520  14.476
88460W        W59989  37.731  43.881   4.699
88461W        W59990  44.413  24.283  11.566
88462W        W59991  30.072  36.642  10.988
88463W        W59992  31.761  43.330  13.066
88464W        W59993  35.617   2.143  14.878
88465W        W59994  43.822  11.116  10.416
88466W        W59995  20.155  28.363  11.965
88467W        W59996  34.023  15.271   1.615
88468W        W59997   7.227  12.028  11.979
88469W        W59998  44.814  26.524   1.317
88470W        W59999  31.265  14.922   0.034
88471W        W60000  41.995  20.563  13.373
88472W        W60001  38.421  28.637  14.226
88473W        W60002   0.350  36.122  12.100
88474W        W60003  17.033  16.753  14.986
88475W        W60004  40.033  21.838  12.896
88476W        W60005  31.808   1.968  12.003
88477W        W60006  40.541   1.912   0.206
88478W        W60007   4.146  13.978  12.156
88479W        W60008  40.194  23.666   3.506
88480W        W60009   3.440  14.912   2.381
88481W        W60010  15.281  30.837  13.603
88482W        W60011  10.893  17.048  13.446
88483W        W60012  25.933   7.336  12.428
88484W        W60013   9.953  33.073   0.628
88485W        W60014  22.074  22.814   2.302
88486W        W60015   3.872  15.700   2.204
88487W        W60016  34.122   6.164   2.293
88488W        W60017  21.629   4.144  11.658
88489W        W60018   6.391  44.887  14.582
88490W        W60019   8.536   4.289  12.354
88491W        W60020   0.862  41.017   2.716
88492W        W60021  38.106  19.611   0.849
88493W        W60022   7.279  15.781   0.291
88494W        W60023   2.181  41.870  12.523
88495W        W60024  21.006  25.524   3.685
88496W        W60025  29.201  44.005  11.365
88497W        W60026  11.955   2.418  10.360
88498W        W60027  30.724  27.353   2.830
88499W        W60028  10.476  10.326   3.731
88500W        W60029  41.790  37.445   0.520
88501W        W60030  10.277  43.966  11.040
88502W        W60031  26.496   6.407  14.012
88503W        W60032  25.133  39.856  12.770
88504W        W60033  26.548  25.528   4.084
88505W        W60034  41.840  24.906  14.834
88506W        W60035  12.460  34.835   1.551
88507W        W60036  21.546  40.828  14.756
88508W        W60037  42.338  20.844   4.140
88509W        W60038  41.233   6.675   0.391
88510W        W60039  44.650  41.361  11.152
88511W        W60040   3.269  29.930   2.771
88512W        W60041   8.443   8.519  10.841
88513W        W60042  41.263  38.756   5.119
88514W        W60043   1.871  35.578   3.334
88515W        W60044  30.188  11.357   1.672
88516W        W60045  37.016   2.316   1.220
88517W        W60046  44.627   8.384  14.860
88518W        W60047  24.460   6.440  12.410
88519W        W60048   8.005  10.905   4.243
88520W        W60049  19.997  12.882   4.240
88521W        W60050  39.013  36.942   4.693
88522W        W60051  11.102  34.921   1.712
88523W        W60052  20.452  18.208  10.664
88524W        W60053  13.675  28.994   3.347
88525W        W60054  38.119  35.443   1.851
88526W        W60055   4.303  16.176  11.149
88527W        W60056  31.852  28.690  12.535
88528W        W60057  18.680   7.619  12.581
88529W        W60058  29.050  13.418   9.838
88530W        W60059  23.736   5.144  13.122
88531W        W60060  17.915  30.961   2.907
88532W        W60061  39.070  38.409  13.909
88533W        W60062   7.642  26.060  13.998
88534W        W60063   6.825  37.421   3.275
88535W        W60064  21.051  30.463  12.093
88536W        W60065  10.408  10.238  14.784
88537W        W60066  26.654  35.003   3.824
88538W        W60067   5.640  39.004   9.847
88539W        W60068  26.457  13.956  14.701
88540W        W60069   1.747  27.611  13.070
88541W        W60070  20.326  21.529   0.319
88542W        W60071  28.044  34.408   1.735
88543W        W60072  36.380  20.540   2.790
88544W        W60073  13.352  12.408   3.295
88545W        W60074  29.226  35.043  13.888
88546W        W60075  28.646  34.564  11.169
88547W        W60076   7.174  11.659  13.836
88548W        W60077  36.310   3.386  12.197
88549W        W60078  31.938  40.776   1.859
88550W        W60079   8.132  43.823   3.121
88551W        W60080  30.017  23.423   4.294
88552W        W60081  35.836  20.366  11.902
88553W        W60082   6.125  39.889   0.754
88554W        W60083  29.613  10.118  10.762
88555W        W60084  24.009  34.622  12.057
88556W        W60085  31.551  40.461  11.691
88557W        W60086  14.651  14.763  11.854
88558W        W60087  13.481   1.388   1.389
88559W        W60088   6.350  34.087  10.384
88560W        W60089   7.815  37.618   0.377
88561W        W60090  32.819  43.794  14.930
88562W        W60091  33.971  40.769  11.139
88563W        W60092   5.938   1.639   4.573
88564W        W60093  23.504   3.797   4.526
88565W        W60094  34.373  17.688  14.090
88566W        W60095   9.555  25.681   3.964
88567W        W60096  38.498   1.908  11.853
88568W        W60097  24.520   4.129  13.769
88569W        W60098  10.200  32.573  10.775
88570W        W60099  44.082  13.150   3.455
88571W        W60100  41.711  32.419   4.130
88572W        W60101  39.336  14.758  11.805
88573W        W60102   9.842  26.419   4.723
88574W        W60103   8.670  20.208  12.722
88575W        W60104  38.130  28.334  13.767
88576W        W60105  15.336  19.084  11.548
88577W        W60106  36.499  35.666  12.976
88578W        W60107  43.679  12.628  13.826
88579W        W60108  12.950   5.760   0.970
88580W        W60109   5.896  27.360  13.563
88581W        W60110   0.761  14.911  14.787
88582W        W60111  44.069   3.510  14.152
88583W        W60112   7.949   5.865   3.455
88584W        W60113  18.085   6.829   1.525
88585W        W60114   4.329   5.980   2.841
88586W        W60115  27.467  17.714   2.374
88587W        W60116  32.059   4.783   3.113
88588W        W60117  30.055  13.617  12.005
88589W        W60118  24.731  41.367  10.288
88590W        W60119  41.367  28.860   1.788
88591W        W60120  30.965  40.856   1.981
88592W        W60121   8.121  28.731  10.703
88593W        W60122  22.698  10.268  12.149
88594W        W60123  19.590  35.409   2.088
88595W        W60124  36.164  30.374   2.042
88596W        W60125  16.166  30.371   0.036
88597W        W60126  28.496  17.341  13.637
88598W        W60127  18.161   6.931   3.266
88599W        W60128  26.430   8.585   4.961
88600W        W60129  36.513  12.767  11.055
88601W        W60130  22.117  22.020   4.142
88602W        W60131  21.542  17.021   4.615
88603W        W60132  40.719   3.129   5.331
88604W        W60133  35.550  21.346   2.783
88605W        W60134   3.682  15.396   1.713
88606W        W60135  26.204  44.447   4.874
88607W        W60136  35.240  25.592  11.456
88608W        W60137  33.375   1.137  14.875
88609W        W60138  14.127  27.689  10.801
88610W        W60139  39.288   7.553   0.482
88611W        W60140  13.136  29.182   3.044
88612W        W60141  41.026   2.801  12.882
88613W        W60142  29.408  36.153  10.695
88614W        W60143   4.056  31.885   1.430
88615W        W60144  26.072  26.947  12.084
88616W        W60145  12.163  43.279   3.742
88617W        W60146  44.832  12.217  12.514
88618W        W60147  33.311   0.501   3.756
88619W        W60148   1.908  22.503  12.363
88620W        W60149  41.343  25.994  12.850
88621W        W60150  23.172  17.543   3.357
88622W        W60151   8.775  35.287   2.121
88623W        W60152   2.238  13.974   1.803
88624W        W60153  18.536  40.784   1.935
88625W        W60154  31.936   7.773   1.881
88626W        W60155  19.495  18.267  10.385
88627W        W60156  37.654   4.858   0.788
88628W        W60157  41.023   9.711   2.291
88629W        W60158  44.755  18.168   3.227
88630W        W60159  31.777  37.156  14.437
88631W        W60160  21.453  11.163  11.917
88632W        W60161   8.403   2.989  12.822
88633W        W60162   5.168  39.895  14.888
88634W        W60163  18.993  18.185  10.504
88635W        W60164   1.170  20.789  11.499
88636W        W60165  31.463   9.223   0.474
88637W        W60166  29.770  17.731  10.359
88638W        W60167  33.411  23.586   3.660
88639W        W60168  34.578   9.836   1.152
88640W        W60169  30.271   7.203   0.542
88641W        W60170  18.472  33.995   3.187
88642W        W60171  23.707   5.883   1.291
88643W        W60172  40.465  22.052   3.329
88644W        W60173  40.749   8.906  11.567
88645W        W60174  15.281  25.447  13.390
88646W        W60175  13.916  40.575  12.950
88647W        W60176  38.034  32.637   3.355
88648W        W60177  40.885   9.373   4.605
88649W        W60178   2.682  39.744  11.462
88650W        W60179   9.173  18.523   2.088
88651W        W60180  30.947  24.184  13.856
88652W        W60181  35.492  42.881   0.148
88653W        W60182   1.793  32.439  12.550
88654W        W60183  31.486  33.111  10.319
88655W        W60184  34.305   2.779   4.076
88656W        W60185  28.738  36.566   1.989
88657W        W60186  26.078  22.067  11.179
88658W        W60187  21.721  39.413   3.585
88659W        W60188   6.627  40.278   3.318
88660W        W60189  42.520  41.573  14.408
88661W        W60190  24.461  26.218   4.047
88662W        W60191  44.469  33.017  13.757
88663W        W60192  38.864  41.974  14.381
88664W        W60193  29.559  16.118   0.929
88665W        W60194  39.002   8.863   1.818
88666W        W60195  33.188  35.267   1.378
88667W        W60196  36.373  16.055   4.096
88668W        W60197  16.204  24.518   2.142
88669W        W60198   2.236  29.096   3.262
88670W        W60199  40.403  30.430  14.866
88671W        W60200  40.376   4.430  10.958
88672W        W60201   0.761  28.400  13.369
88673W        W60202   2.391  20.221  14.340
88674W        W60203  43.052  28.856  14.086
88675W        W60204  41.467  29.959  13.283
88676W        W60205   7.198  29.254   1.975
88677W        W60206  29.529   5.642   1.365
88678W        W60207  24.135   7.284  14.958
88679W        W60208  42.534  11.170  10.717
88680W        W60209  10.821  36.834  13.875
88681W        W60210  34.895   0.357   2.634
88682W        W60211  19.861  35.501  14.016
88683W        W60212   8.054  36.796   1.423
88684W        W60213  31.800  35.053  12.855
88685W        W60214  16.888  28.951  14.284
88686W        W60215  39.277  25.950   1.309
88687W        W60216  29.362   4.203  12.958
88688W        W60217  20.672  33.000   4.698
88689W        W60218  38.488  25.512   4.950
88690W        W60219  16.672  32.673   4.692
88691W        W60220  33.639  34.076   3.735
88692W        W60221  25.652  17.568  10.497
88693W        W60222  20.243  21.315  12.800
88694W        W60223  13.420   8.966   4.161
88695W        W60224  44.959  27.142   0.968
88696W        W60225  19.965   1.793   0.017
88697W        W60226  28.456  15.260   0.430
88698W        W60227  23.659  24.692   3.825
88699W        W60228  31.557  36.354   3.115
88700W        W60229  40.481   9.494  11.120
88701W        W60230   9.672  44.094  14.139
88702W        W60231  20.647  44.795   2.220
88703W        W60232  11.246  33.508   4.351
88704W        W60233   4.237  23.429   0.016
88705W        W60234  20.195  14.519  13.058
88706W        W60235  32.330  20.739   4.352
88707W        W60236  43.687  22.376  13.007
88708W        W60237  16.887   1.245  13.096
88709W        W60238  30.604  38.782   3.855
88710W        W60239  16.411  19.195   1.421
88711W        W60240  43.530  15.788   0.311
88712W        W60241  40.794  23.851  14.772
88713W        W60242  10.661  26.972   4.548
88714W        W60243  17.282  39.890   1.819
88715W        W60244  17.810  37.469   0.503
88716W        W60245  34.518  19.492   4.120
88717W        W60246  33.422  42.304  14.724
88718W        W60247  17.343  23.138  10.936
88719W        W60248  25.475  34.535   0.186
88720W        W60249  33.360   6.706   3.155
88721W        W60250  36.819  14.860   2.280
88722W        W60251   0.661  14.178   2.349
88723W        W60252  31.517  13.626   0.847
88724W        W60253   1.323  39.723  12.006
88725W        W60254   3.946  42.048   2.757
88726W        W60255  14.904  28.914   5.083
88727W        W60256  27.938  29.211  13.742
88728W        W60257  20.811  18.627   1.285
88729W        W60258  30.613  10.223  12.365
88730W        W60259  24.791  44.383  13.122
88731W        W60260  38.852  21.221   1.289
88732W        W60261  35.702  43.817   2.144
88733W        W60262  35.011  10.744   4.370
88734W        W60263  20.276  15.070   3.877
88735W        W60264  10.051  27.372  14.794
88736W        W60265  44.383  17.457   4.212
88737W        W60266  32.396   3.250  14.655
88738W        W60267   9.322  33.692   2.771
88739W        W60268  37.871  29.563  10.498
88740W        W60269  28.208  37.556  14.979
88741W        W60270  44.911  21.492  13.229
88742W        W60271  41.288  10.918  14.054
88743W        W60272  32.859  20.087  13.001
88744W        W60273  40.523  26.218   3.651
88745W        W60274   6.964  25.040   4.415
88746W        W60275  12.822   2.044  13.007
88747W        W60276   4.700  22.543  11.640
88748W        W60277  12.081   1.420   1.309
88749W        W60278  29.772  28.032   2.331
88750W        W60279  25.131  23.316   3.718
88751W        W60280  32.164  23.450   1.862
88752W        W60281  44.450  32.409  12.879
88753W        W60282  28.101  18.520   2.794
88754W        W60283  12.891  25.649  11.619
88755W        W60284  11.673   3.846   3.571
88756W        W60285  17.255   3.694  14.289
88757W        W60286   8.114  23.125   1.902
88758W        W60287  21.111  15.840  14.103
88759W        W60288  39.830  44.276  14.383
88760W        W60289  21.903  38.056  12.623
88761W        W60290  25.729  20.017  10.381
88762W        W60291   9.629  34.049   3.045
88763W        W60292  25.666  28.732  14.876
88764W        W60293  17.491  37.381   2.017
88765W        W60294  37.871  27.472   4.580
88766W        W60295  13.776  38.328  12.458
88767W        W60296  22.087   1.307  11.102
88768W        W60297  31.380  15.176  12.886
88769W        W60298  30.959   4.238   3.633
88770W        W60299   1.484   3.335  12.968
88771W        W60300  11.820  23.224  13.404
88772W        W60301  39.430  19.817   4.285
88773W        W60302   5.198   7.248  11.593
88774W        W60303  20.144  16.558   1.443
88775W        W60304  32.557  11.920   1.414
88776W        W60305   6.348  19.288  10.163
88777W        W60306  15.131  23.732  12.845
88778W        W60307   5.388  27.644  11.364
88779W        W60308  38.562  20.865   0.879
88780W        W60309   4.229  16.189  12.074
88781W        W60310   5.920  39.357  12.852
88782W        W60311  20.220   9.225  11.458
88783W        W60312  27.098  26.575   3.613
88784W        W60313  43.550  38.574  14.805
88785W        W60314  44.326  10.599   4.308
88786W        W60315  30.452  13.206  12.646
88787W        W60316  11.879  23.914  11.196
88788W        W60317  27.355  40.461  13.529
88789W        W60318  11.247  35.019   0.857
88790W        W60319   3.753   1.983  14.762
88791W        W60320  10.766   6.604   4.256
88792W        W60321  36.539  33.232  11.552
88793W        W60322   4.707  34.373  13.907
88794W        W60323  24.788   1.010   0.853
88795W        W60324  13.328  30.157   4.258
88796W        W60325   6.813  16.711   1.448
88797W        W60326  40.087   0.304   2.229
88798W        W60327  24.655  39.328  12.582
88799W        W60328  36.693  31.191  10.492
88800W        W60329  40.379  22.758   3.501
88801W        W60330  37.746  11.174   3.322
88802W        W60331  25.976  29.005  13.105
88803W        W60332  28.696  37.586   4.154
88804W        W60333  16.228   5.487  11.660
88805W        W60334  37.808   8.283  10.770
88806W        W60335   2.189  23.012  14.281
88807W        W60336  19.161  40.070  12.841
88808W        W60337   9.140  25.957   0.347
88809W        W60338  23.719  28.821  14.032
88810W        W60339  37.710   1.699  10.501
88811W        W60340   5.759  31.753  11.892
88812W        W60341  37.344   1.042  11.483
88813W        W60342   3.605  11.755  14.506
88814W        W60343  15.304  42.327   4.483
88815W        W60344  20.963  29.687   0.211
88816W        W60345  33.012  23.152   1.895
88817W        W60346  16.817  39.409  12.024
88818W        W60347  43.350  29.186  12.808
88819W        W60348  23.510   3.470  13.319
88820W        W60349  25.932   3.310   1.156
88821W        W60350  36.491   6.553   1.188
88822W        W60351   1.687  25.652   4.311
88823W        W60352   5.888  15.921  12.833
88824W        W60353  33.496   7.745   1.805
88825W        W60354   2.982  44.264   3.372
88826W        W60355  35.383   6.370  13.878
88827W        W60356  34.401   8.497  13.406
88828W        W60357   2.116  11.856   1.033
88829W        W60358  29.012   7.152   4.647
88830W        W60359  29.992  14.815  14.947
88831W        W60360   5.782  21.760  11.288
88832W        W60361   9.601   6.869   0.795
88833W        W60362  44.918  30.646  14.818
88834W        W60363  29.091  36.958   1.847
88835W        W60364  41.590  17.668  13.986
88836W        W60365   5.648  12.858   3.259
88837W        W60366   9.240  32.960   0.285
88838W        W60367  18.616  37.028  11.183
88839W        W60368   1.663   5.476   2.234
88840W        W60369  36.598  28.401   2.778
88841W        W60370   7.876  15.783   3.654
88842W        W60371  10.807  44.942  10.820
88843W        W60372   8.299  13.416  13.216
88844W        W60373  13.093  32.788   0.266
88845W        W60374  43.885   4.988  13.974
88846W        W60375   0.173  10.912  11.129
88847W        W60376  30.480  14.982   1.002
88848W        W60377  35.253   6.429  11.649
88849W        W60378   3.480  25.717   3.687
88850W        W60379  35.135  23.705  11.060
88851W        W60380  44.198  33.460   3.187
88852W        W60381  10.790  43.832   1.704
88853W        W60382  30.040  37.021   1.706
88854W        W60383  13.750  21.399  14.334
88855W        W60384  21.958  34.761   2.287
88856W        W60385  27.521  38.965   2.610
88857W        W60386  12.334  39.405   1.015
88858W        W60387  38.118  15.196   2.073
88859W        W60388   6.761  29.004  11.841
88860W        W60389   5.348  43.914  12.004
88861W        W60390  28.538  17.454   3.211
88862W        W60391  41.218   4.725   2.098
88863W        W60392  35.663  41.956   0.335
88864W        W60393  42.802  21.587  12.504
88865W        W60394   4.389  34.457  11.264
88866W        W60395  14.397  10.230  14.338
88867W        W60396  14.732  31.333   0.930
88868W        W60397  34.623   9.402  10.725
88869W        W60398   6.777   2.737  13.840
88870W        W60399   2.274  21.366  12.803
88871W        W60400  16.576  23.552   2.264
88872W        W60401  28.220   8.764   3.164
88873W        W60402  20.853  23.469  11.462
88874W        W60403  36.281  23.543   0.809
88875W        W60404   4.782  32.643  13.554
88876W        W60405   6.229   5.004   5.145
88877W        W60406  11.896  16.692  10.366
88878W        W60407  39.437  42.043  13.553
88879W        W60408  30.249  33.936   1.699
88880W        W60409  13.523  18.228   1.770
88881W        W60410  14.341  19.975   0.944
88882W        W60411  36.868  22.452  10.985
88883W        W60412  42.251   5.103  11.412
88884W        W60413  25.155  21.402   3.109
88885W        W60414  38.510   8.869  12.398
88886W        W60415  13.202   3.999  13.940
88887W        W60416  35.895  40.331  13.051
88888W        W60417  13.709  18.133   4.166
88889W        W60418  27.803  16.256  14.920
88890W        W60419  24.000  16.353  11.576
88891W        W60420  18.627   8.347  13.116
88892W        W60421  26.116  20.479   4.287
88893W        W60422  43.027   9.458   2.739
88894W        W60423  38.869  19.208  14.833
88895W        W60424  41.020  20.655  13.311
88896W        W60425  41.358  20.582   3.347
88897W        W60426  37.884   9.671   0.353
88898W        W60427  23.760  21.413  13.855
88899W        W60428  26.069  18.147  11.997
88900W        W60429  17.443  12.389   3.820
88901W        W60430  29.001  34.506   0.708
88902W        W60431  30.928  31.421   1.288
88903W        W60432  41.695  37.034   2.638
88904W        W60433   2.274  18.575  14.299
88905W        W60434   2.476  42.447   0.248
88906W        W60435   4.719  37.251   2.783
88907W        W60436   5.115  15.844  12.102
88908W        W60437  32.582  31.989   1.649
88909W        W60438  14.146  18.104   3.894
88910W        W60439  33.108   1.450   2.566
88911W        W60440  36.731  26.505  14.781
88912W        W60441   9.477  11.710   4.845
88913W        W60442  16.820  18.946   1.106
88914W        W60443  41.250  20.186  13.452
88915W        W60444  42.063  34.004   3.965
88916W        W60445   7.933   7.717  13.352
88917W        W60446  14.652   5.843   0.217
88918W        W60447  41.111  12.470   0.515
88919W        W60448  10.601  13.577  11.209
88920W        W60449   1.897  40.574  13.095
88921W        W60450  43.163  29.445  12.029
88922W        W60451  41.977  33.567  10.537
88923W        W60452  13.018   5.160   3.687
88924W        W60453   2.395  16.234  12.538
88925W        W60454  21.549  12.123  14.212
88926W        W60455  15.139  37.906   3.592
88927W        W60456  41.344  36.352   1.441
88928W        W60457  19.505  23.748  11.594
88929W        W60458   2.907   7.354   0.850
88930W        W60459  43.705  29.492  14.248
88931W        W60460   4.733  24.669   1.244
88932W        W60461   1.889   1.195  14.785
88933W        W60462  25.011  23.609   3.302
88934W        W60463  40.035   5.290   2.384
88935W        W60464  21.433  28.452   0.816
88936W        W60465  37.880  26.769  10.695
88937W        W60466   7.947  43.356  12.068
88938W        W60467  30.328   5.722   2.467
88939W        W60468  31.636  41.120   3.209
88940W        W60469  19.961  41.938   2.926
88941W        W60470  21.896   3.342  13.846
88942W        W60471  30.537  14.224   0.266
88943W        W60472  11.126   7.772  12.704
88944W        W60473   7.676  32.675  11.563
88945W        W60474  42.469  34.565  14.270
88946W        W60475  42.407   6.402  12.852
88947W        W60476  15.389  36.810   3.310
88948W        W60477   3.164   5.974  11.182
88949W        W60478   8.154  35.353   3.290
88950W        W60479  23.997  30.371   3.103
88951W        W60480   3.533   3.776  10.489
88952W        W60481  11.237  17.779  14.740
88953W        W60482   7.829  32.886  13.006
88954W        W60483   9.363  37.596   4.167
88955W        W60484   9.667  38.234  11.161
88956W        W60485  25.214  30.997   0.893
88957W        W60486  32.328   8.149  11.119
88958W        W60487   5.878  39.560   2.960
88959W        W60488  10.605  12.557   4.559
88960W        W60489   8.880  26.083  11.172
88961W        W60490  30.942  37.851  11.290
88962W        W60491  23.224   4.226   4.583
88963W        W60492  20.991  15.287  14.944
88964W        W60493   7.830  23.589   0.071
88965W        W60494  10.234  10.231  13.455
88966W        W60495  36.253  40.216  12.413
88967W        W60496  17.972  11.094   4.110
88968W        W60497  18.016  10.232  12.200
88969W        W60498   5.199  13.356  11.190
88970W        W60499   8.473  11.659  12.735
88971W        W60500  26.143  44.709  11.687
88972W        W60501  13.629   2.664  10.938
88973W        W60502  42.526  12.207   1.490
88974W        W60503   3.243  26.273  13.470
88975W        W60504  44.266  32.941   3.260
88976W        W60505  43.468  33.714  11.922
88977W        W60506  16.748  27.310  14.401
88978W        W60507  38.960  27.682  13.410
88979W        W60508  20.417  36.260  12.144
88980W        W60509  40.608  39.672  12.400
88981W        W60510  36.322   4.920  13.422
88982W        W60511  43.799  30.987   4.482
88983W        W60512  23.882  29.330  11.557
88984W        W60513   6.195  28.783   1.345
88985W        W60514  10.717  34.134   0.691
88986W        W60515  41.562  26.137   1.734
88987W        W60516  14.201   3.956   4.694
88988W        W60517  40.529  16.359  12.485
88989W        W60518  34.057  23.056  14.994
88990W        W60519  24.392  15.226  11.811
88991W        W60520   5.418  26.094  10.415
88992W        W60521  26.184  14.418  11.216
88993W        W60522  42.084   1.418   2.165
88994W        W60523  34.139  30.961  14.035
88995W        W60524  17.215   1.792  14.064
88996W        W60525  29.562  25.495  13.298
88997W        W60526  12.158  21.267   0.924
88998W        W60527  14.039  25.060  13.572
88999W        W60528   2.716  38.955   4.097
89000W        W60529  31.835  41.838   3.141
89001W        W60530  28.933  25.023   3.660
89002W        W60531  40.262  30.370   3.883
89003W        W60532  43.992  42.352  11.660
89004W        W60533  33.047  31.006  13.694
89005W        W60534  27.092   4.646  12.958
89006W        W60535  14.984  38.873  12.407
89007W        W60536   1.742  30.380   3.034
89008W        W60537  28.277  10.724  14.618
89009W        W60538   9.372  31.143   3.602
89010W        W60539  16.850   4.123   3.264
89011W        W60540  25.201  40.522   2.344
89012W        W60541  42.106  40.727   3.055
89013W        W60542   4.908  22.253   3.671
89014W        W60543  15.190  37.893  10.872
89015W        W60544  21.541   1.123   0.256
89016W        W60545  40.255   2.832   0.689
89017W        W60546   0.824  43.701   0.738
89018W        W60547  23.749  29.455  10.680
89019W        W60548  40.060  34.020   1.646
89020W        W60549   4.708  42.749  10.776
89021W        W60550   0.391  39.299  14.779
89022W        W60551  22.642  31.432   3.772
89023W        W60552  34.834  36.119   1.260
89024W        W60553  41.031  33.872  14.037
89025W        W60554   7.675  24.611   1.723
89026W        W60555   0.542  27.081  13.297
89027W        W60556   4.844  43.267  14.254
89028W        W60557   3.224   2.361   2.276
89029W        W60558  11.311  12.704  12.957
89030W        W60559  16.624   8.022  10.723
89031W        W60560  38.829  13.690  14.626
89032W        W60561  19.079  21.300   1.746
89033W        W60562  35.096  13.029  12.674
89034W        W60563   7.699  37.958  13.288
89035W        W60564  37.067  20.207  12.101
89036W        W60565   7.748  38.069  11.861
89037W        W60566  38.436  32.572   0.641
89038W        W60567  26.297  43.030  12.051
89039W        W60568  37.821  22.129  14.336
89040W        W60569  44.976  42.615  10.945
89041W        W60570  43.960  36.964   4.532
89042W        W60571  23.658  23.290  11.484
89043W        W60572  29.951  40.280   0.964
89044W        W60573  16.215  35.509   2.299
89045W        W60574  39.523  10.680  11.239
89046W        W60575  13.671   3.808  14.035
89047W        W60576   8.675  43.418   0.441
89048W        W60577  40.350  15.350  12.547
89049W        W60578   4.293   9.940   0.622
89050W        W60579  22.511  31.286  13.855
89051W        W60580  12.595  11.398   2.698
89052W        W60581  43.527  31.137   4.021
89053W        W60582  17.617  30.940  12.367
89054W        W60583  33.581  28.362   1.101
89055W        W60584  18.244  15.069  13.388
89056W        W60585   7.701  23.302   2.821
89057W        W60586   7.894  42.858   4.804
89058W        W60587   9.175  26.106  14.307
89059W        W60588   4.050  42.538  10.941
89060W        W60589   5.916  44.203   0.404
89061W        W60590  36.645  32.625   1.363
89062W        W60591  13.080   2.825  12.755
89063W        W60592  24.411  27.421   3.297
89064W        W60593   8.737  35.765   2.510
89065W        W60594  41.451  40.590  11.015
89066W        W60595   9.190  26.202  10.783
89067W        W60596  20.509  16.633   3.451
89068W        W60597   4.214   5.248   0.977
89069W        W60598  13.706  27.108   1.360
89070W        W60599  42.228  31.332  14.373
89071W        W60600   5.894   2.927   0.190
89072W        W60601  11.295  19.528  11.114
89073W        W60602  12.670  39.349  10.461
89074W        W60603   6.832   6.977   2.857
89075W        W60604   9.558   2.013  11.006
89076W        W60605  23.138  42.349  12.884
89077W        W60606  37.935  12.887  13.768
89078W        W60607  34.133  34.121  12.983
89079W        W60608   3.979  29.558   3.637
89080W        W60609  10.947  30.198   0.720
89081W        W60610  25.238  26.143   1.276
89082W        W60611  11.837  37.459   2.681
89083W        W60612  41.477  28.086  10.474
89084W        W60613  27.447  27.273  11.925
89085W        W60614  11.929  40.466  12.127
89086W        W60615   9.403  25.639   1.331
89087W        W60616  23.458   4.559  14.959
89088W        W60617  27.901   5.474   3.144
89089W        W60618  26.693  15.801   0.897
89090W        W60619  36.326  31.198  13.134
89091W        W60620  28.378  27.920  11.999
89092W        W60621  17.594  11.380  11.130
89093W        W60622  13.604  21.460  13.445
89094W        W60623   6.554  27.000  10.482
89095W        W60624   7.419  38.477  11.091
89096W        W60625  42.556  44.788  13.876
89097W        W60626  26.067  10.354   1.263
89098W        W60627  44.553  32.388  12.361
89099W        W60628  20.646  12.624  12.634
89100W        W60629   2.466  18.118   1.279
89101W        W60630  30.640  37.448  14.835
89102W        W60631  15.237  37.459   4.389
89103W        W60632  25.706  37.874  14.067
89104W        W60633   9.285   5.721   0.184
89105W        W60634   6.718  23.108  13.118
89106W        W60635  38.172  35.882   1.557
89107W        W60636  18.048  11.893  11.637
89108W        W60637  39.429  10.350  10.551
89109W        W60638  10.807  28.089   1.186
89110W        W60639   6.073  41.633  10.456
89111W        W60640   6.983  31.065  11.059
89112W        W60641  14.633  27.927   3.217
89113W        W60642  17.210  33.024   2.734
89114W        W60643  31.570  23.730  14.834
89115W        W60644  39.331  39.817   3.336
89116W        W60645   7.771  31.437  11.180
89117W        W60646  30.335   6.096  11.010
89118W        W60647  37.010  16.236   4.727
89119W        W60648  44.760  25.801  13.467
89120W        W60649  21.936  33.986   0.282
89121W        W60650  12.606  29.062   1.500
89122W        W60651   2.075  15.766   1.426
89123W        W60652  24.442   1.466   0.637
89124W        W60653   4.105   1.109  12.986
89125W        W60654   2.418  10.304  11.377
89126W        W60655  30.071  12.126   2.372
89127W        W60656   1.468  31.404  13.051
89128W        W60657   2.931  31.124  10.701
89129W        W60658  42.270  34.061   2.212
89130W        W60659  41.008  41.010  13.080
89131W        W60660  34.896  42.851   9.856
89132W        W60661  27.505  28.438   4.354
89133W        W60662  11.676  23.997   1.333
89134W        W60663  17.310  13.093   5.215
89135W        W60664   3.436   1.199   2.914
89136W        W60665  29.664  13.981   0.712
89137W        W60666   2.372  15.140  10.941
89138W        W60667  20.701  35.833  12.193
89139W        W60668  24.600   6.912   3.897
89140W        W60669  29.737  30.367   1.400
89141W        W60670  40.068  11.050  13.444
89142W        W60671  22.836  28.976  12.665
89143W        W60672   2.817  16.229   2.766
89144W        W60673   3.202  41.459  13.020
89145W        W60674  41.360  41.911  10.800
89146W        W60675  38.455   4.766  14.353
89147W        W60676  19.904  37.784   4.250
89148W        W60677   7.955  35.163  12.486
89149W        W60678  37.343  13.133   0.433
89150W        W60679  26.128  12.378  11.018
89151W        W60680   9.328   4.588   4.022
89152W        W60681  33.175  18.252   2.798
89153W        W60682  30.048  24.116  13.322
89154W        W60683  23.095  41.060   4.432
89155W        W60684  44.836  20.132  11.545
89156W        W60685  17.993  37.443   3.680
89157W        W60686   2.807  32.432   0.881
89158W        W60687  16.040  29.441   3.109
89159W        W60688   6.779  33.225  12.619
89160W        W60689  10.909   1.956   9.795
89161W        W60690  15.792  12.397   3.325
89162W        W60691  26.555  21.897   0.257
89163W        W60692  16.117  31.110   3.310
89164W        W60693  27.680  17.794   3.350
89165W        W60694  11.727  16.262   4.409
89166W        W60695  26.332  19.539   2.491
89167W        W60696   1.413  11.401   2.068
89168W        W60697   9.363   9.290   2.127
89169W        W60698  10.131  26.888   0.016
89170W        W60699  22.976  22.291   2.839
89171W        W60700  20.940   5.845  13.860
89172W        W60701  23.615  18.201   1.951
89173W        W60702  40.957  34.149   4.605
89174W        W60703   8.338  41.880  11.053
89175W        W60704   5.304  38.840   3.196
89176W        W60705  34.437  40.178  13.335
89177W        W60706  12.670  20.332   1.231
89178W        W60707   8.325  33.461   3.441
89179W        W60708  40.551  41.282  13.067
89180W        W60709  19.070  19.966  13.832
89181W        W60710   5.968  41.126  11.698
89182W        W60711  16.131  34.571  11.998
89183W        W60712  44.019  21.046   0.038
89184W        W60713  20.516   3.077  13.893
89185W        W60714  40.242  19.270   1.513
89186W        W60715  14.265  22.048  11.503
89187W        W60716  34.650  11.168  11.972
89188W        W60717  25.051  41.571   4.150
89189W        W60718   4.949  27.101  13.386
89190W        W60719  38.361   8.944  10.565
89191W        W60720   0.487  10.329  11.920
89192W        W60721  20.051  40.784  13.849
89193W        W60722  39.643  40.528   3.696
89194W        W60723  11.040   7.091   2.575
89195W        W60724   6.309  33.301  14.342
89196W        W60725  37.331  29.464   2.184
89197W        W60726   2.904  39.449   4.039
89198W        W60727   8.642   5.466  12.838
89199W        W60728   4.328   6.601  12.048
89200W        W60729   3.033  28.472  12.177
89201W        W60730  11.398   0.988   1.734
89202W        W60731  20.702  36.667   3.359
89203W        W60732  28.345   5.582   2.193
89204W        W60733   7.933  38.412  11.134
89205W        W60734  13.429   1.499   0.385
89206W        W60735   9.002  43.150   2.884
89207W        W60736  18.940  24.621  11.778
89208W        W60737  13.893  21.502   1.315
89209W        W60738  24.013  39.633   3.441
89210W        W60739  32.170  37.850   1.209
89211W        W60740  23.128  43.154  12.499
89212W        W60741  21.283   0.878  10.942
89213W        W60742  25.694  16.040  14.875
89214W        W60743  26.958  26.987   4.653
89215W        W60744  17.621   9.629  12.459
89216W        W60745   2.941  31.309   2.743
89217W        W60746  18.885   9.730   4.667
89218W        W60747  25.217  27.627  10.535
89219W        W60748  42.059  41.919  11.542
89220W        W60749   1.978   4.042   2.273
89221W        W60750   5.927  32.575   2.422
89222W        W60751  39.909  34.644   0.394
89223W        W60752  33.112  32.366   2.875
89224W        W60753   3.289  18.472  12.057
89225W        W60754   8.442  32.946  11.307
89226W        W60755   8.332  39.253   1.865
89227W        W60756  14.259  29.830   1.340
89228W        W60757   7.433  13.868   2.715
89229W        W60758   7.612  41.469   1.862
89230W        W60759   9.229  23.592  14.225
89231W        W60760   8.385   4.368   4.476
89232W        W60761  35.647  25.931   3.603
89233W        W60762  16.896  20.229  13.030
89234W        W60763  27.414  41.456  13.475
89235W        W60764  30.520  38.589  14.420
89236W        W60765  25.483   7.424  14.944
89237W        W60766  18.751   6.379  13.899
89238W        W60767  18.001  39.260   4.663
89239W        W60768   2.295  19.567   1.758
89240W        W60769  32.051  19.080   4.143
89241W        W60770  38.037  15.469  14.003
89242W        W60771  19.572  17.325  12.368
89243W        W60772  11.680  24.272  12.529
89244W        W60773  16.072  12.631  13.048
89245W        W60774  31.693  11.770   0.329
89246W        W60775  21.481  16.580  12.041
89247W        W60776  18.480  44.635   5.032
89248W        W60777   6.875  39.615  13.392
89249W        W60778   5.167  32.302  10.655
89250W        W60779  10.147  26.569  11.232
89251W        W60780   7.770  12.848   4.073
89252W        W60781  25.998  24.585   5.021
89253W        W60782   3.045  21.560  14.727
89254W        W60783  22.881   3.977  14.315
89255W        W60784   5.226  31.375  13.535
89256W        W60785  25.622  37.417   5.002
89257W        W60786   5.626  37.280  12.646
89258W        W60787  23.960  14.316   3.887
89259W        W60788  42.481  37.330  12.018
89260W        W60789  10.407  41.565  13.945
89261W        W60790  21.691   4.260   3.595
89262W        W60791  35.704  30.853   3.772
89263W        W60792  22.103  31.588  11.367
89264W        W60793   4.046  20.796  11.913
89265W        W60794  12.198  11.132   0.889
89266W        W60795  22.100  32.090   1.343
89267W        W60796  18.981   2.249  12.362
89268W        W60797  12.252   6.113  10.430
89269W        W60798  44.835   7.958  14.321
89270W        W60799  12.117  30.173  13.478
89271W        W60800  14.287  20.268   0.491
89272W        W60801  43.279  11.206   1.467
89273W        W60802   6.393  24.442  13.607
89274W        W60803  12.557  13.783  13.826
89275W        W60804   7.340   2.132   3.269
89276W        W60805   8.021  36.103   3.712
89277W        W60806  24.277  38.392   3.945
89278W        W60807   9.612   9.443  14.919
89279W        W60808   9.273  22.032   1.877
89280W        W60809  24.217   6.711  10.856
89281W        W60810  18.711  26.809   0.832
89282W        W60811  29.014  26.542   2.895
89283W        W60812  14.703  15.280  12.026
89284W        W60813   2.719  41.919   2.344
89285W        W60814  16.674  24.506  11.127
89286W        W60815  22.962  12.172   2.336
89287W        W60816   9.761  43.981   1.404
89288W        W60817  39.926  37.760   4.266
89289W        W60818  36.562   8.345   4.025
89290W        W60819   8.410  30.260   0.944
89291W        W60820  17.404  35.730   5.099
89292W        W60821   7.397   6.119  11.175
89293W        W60822  28.596  17.392  11.503
89294W        W60823  25.930  25.677  14.324
89295W        W60824  22.820  19.677   5.205
89296W        W60825   7.483  42.704   5.102
89297W        W60826  31.440  10.066   0.757
89298W        W60827   5.245   5.798   3.333
89299W        W60828  32.973  39.752   4.084
89300W        W60829  12.294   1.801   4.630
89301W        W60830   1.305  11.440   4.984
89302W        W60831  14.425  10.555   2.268
89303W        W60832  14.689  31.525  13.315
89304W        W60833  24.845   9.661  10.807
89305W        W60834  19.127  17.999   2.252
89306W        W60835  28.119  32.625   3.223
89307W        W60836  30.715  20.154   2.201
89308W        W60837  35.936  25.183   1.987
89309W        W60838  16.074  11.024  13.383
89310W        W60839  24.145   7.611   2.856
89311W        W60840  21.706  16.827   1.958
89312W        W60841  39.817  31.675   3.242
89313W        W60842  22.727  40.286  11.665
89314W        W60843   9.425  27.460  13.619
89315W        W60844  11.808  18.705   3.250
89316W        W60845  30.384  38.405   3.215
89317W        W60846   3.384  33.850   3.639
89318W        W60847   6.424  16.451  12.052
89319W        W60848   7.384  38.343  13.406
89320W        W60849  15.080  19.563  12.887
89321W        W60850   4.779  19.418  12.947
89322W        W60851   5.231   6.914   0.929
89323W        W60852  41.239  34.551  13.059
89324W        W60853   5.888  13.886   2.866
89325W        W60854  12.225  35.604  14.833
89326W        W60855  41.461  14.216   1.311
89327W        W60856  37.617  22.585   3.302
89328W        W60857  24.578  22.168   4.605
89329W        W60858  12.552  30.737   4.671
89330W        W60859  19.843  33.843   2.597
89331W        W60860  22.962  19.889   3.584
89332W        W60861  26.649  29.198   0.029
89333W        W60862  18.332  39.043  14.020
89334W        W60863   9.370   4.479   1.894
89335W        W60864  22.677  10.283   0.533
89336W        W60865  14.337  42.370   4.860
89337W        W60866  38.625  23.978  13.098
89338W        W60867  13.280  42.244  11.020
89339W        W60868  14.593  13.587  13.709
89340W        W60869  37.019   6.981  11.153
89341W        W60870  33.336   9.713  11.122
89342W        W60871  28.698  33.326   0.276
89343W        W60872  22.565   3.963   4.307
89344W        W60873  35.515  30.899  11.157
89345W        W60874  24.005  12.249   2.368
89346W        W60875  44.360  34.912   1.370
89347W        W60876  25.228  43.335   4.101
89348W        W60877  30.070  14.146  13.937
89349W        W60878  13.070   7.344   4.032
89350W        W60879  17.475  26.262  14.913
89351W        W60880  18.411  19.974  12.656
89352W        W60881  32.208  22.404   0.488
89353W        W60882  33.903  19.018  12.985
89354W        W60883   9.332   7.378  12.330
89355W        W60884  33.718  36.490   3.577
89356W        W60885   8.909  26.527   2.760
89357W        W60886  29.588  34.437   1.414
89358W        W60887  37.011  10.654  11.701
89359W        W60888   7.816  39.716  12.009
89360W        W60889  27.502   3.337   3.827
89361W        W60890  44.007  18.188  10.397
89362W        W60891  37.595  34.523  10.580
89363W        W60892  16.539  26.948  11.050
89364W        W60893  28.117  25.712  13.950
89365W        W60894  31.591  28.679  10.338
89366W        W60895  18.183   4.966   1.883
89367W        W60896  26.897  41.929  12.998
89368W        W60897  41.304  12.185  14.683
89369W        W60898  15.352  42.761   0.474
89370W        W60899   6.311  35.975  12.533
89371W        W60900  42.868  18.569  13.943
89372W        W60901  25.369  26.184   3.332
89373W        W60902  16.786   0.420  11.607
89374W        W60903  11.665  22.207   0.428
89375W        W60904  30.472  36.390   2.756
89376W        W60905  30.719  18.022  11.704
89377W        W60906  17.124   3.807  10.847
89378W        W60907  18.051  41.429   3.708
89379W        W60908  29.005  25.992  10.583
89380W        W60909  40.330  28.574   3.570
89381W        W60910  39.240  20.924  13.357
89382W        W60911  39.090  18.739  12.904
89383W        W60912   1.939   3.190  14.300
89384W        W60913  17.600  10.170   3.180
89385W        W60914   2.442  13.943  14.291
89386W        W60915  12.407   4.024  13.461
89387W        W60916   4.736  22.616   4.026
89388W        W60917  31.359  35.076   1.624
89389W        W60918  23.417  44.878   0.395
89390W        W60919  33.868   4.874  14.460
89391W        W60920  23.557  22.546   2.169
89392W        W60921  27.504  39.402   2.269
89393W        W60922  39.640  38.863  10.107
89394W        W60923   0.490  17.712  12.018
89395W        W60924  29.015  17.526  12.637
89396W        W60925  34.510  44.977  13.509
89397W        W60926  10.104  27.116  14.351
89398W        W60927  20.353  32.933  10.669
89399W        W60928  30.547  22.730  11.190
89400W        W60929  24.075  36.912   1.876
89401W        W60930   7.244  18.141  13.090
89402W        W60931   2.248   7.292  12.529
89403W        W60932  23.019   8.450   1.863
89404W        W60933  37.102  15.175   3.537
89405W        W60934   9.009   4.164   2.757
89406W        W60935  14.153  44.836  13.429
89407W        W60936  31.480  37.539   4.820
89408W        W60937  36.516  33.576   0.530
89409W        W60938  11.122  41.498   1.483
89410W        W60939   3.860   2.338   4.313
89411W        W60940  17.683  26.549  12.838
89412W        W60941  15.116  44.455  12.545
89413W        W60942   6.159   0.317  13.933
89414W        W60943  11.511   0.462   1.755
89415W        W60944  31.447  27.680   4.737
89416W        W60945  23.490  23.793  13.887
89417W        W60946  35.999  25.240  11.933
89418W        W60947   2.099  35.808   1.061
89419W        W60948  30.036  21.486   1.473
89420W        W60949   9.303  18.998   1.940
89421W        W60950  14.165  43.288   3.955
89422W        W60951  11.240  27.580  13.112
89423W        W60952  29.019   8.022   0.467
89424W        W60953  22.505  23.461   1.154
89425W        W60954  27.888  33.574   1.337
89426W        W60955  38.296  31.442  14.949
89427W        W60956  20.755   1.880  10.712
89428W        W60957  12.624   6.287   2.212
89429W        W60958  42.400  13.081  12.530
89430W        W60959  11.841  22.415   2.939
89431W        W60960   9.913  25.124   0.784
89432W        W60961  29.564   0.550   0.100
89433W        W60962  37.360  31.628   3.246
89434W        W60963  29.788  37.359   4.948
89435W        W60964   4.118  20.118   1.857
89436W        W60965  19.189   0.370   4.619
89437W        W60966  37.860  39.302   2.340
89438W        W60967  15.724  40.149  13.120
89439W        W60968   7.632  15.664   3.214
89440W        W60969  26.030  19.711  14.851
89441W        W60970  18.608  21.682  13.072
89442W        W60971  26.502  30.985   0.925
89443W        W60972  37.579  33.055  12.527
89444W        W60973  29.619  33.444  12.755
89445W        W60974   3.603  18.723  14.403
89446W        W60975  40.501   4.813  14.331
89447W        W60976  38.882  43.272  10.994
89448W        W60977  43.709  30.528   3.173
89449W        W60978  21.212  32.493  14.355
89450W        W60979  25.153  32.984   4.463
89451W        W60980   9.404   1.281   3.669
89452W        W60981  19.955  34.425   3.229
89453W        W60982  13.165   3.917  12.079
89454W        W60983   8.661   7.920   0.479
89455W        W60984  19.972   6.353  12.020
89456W        W60985  25.376  44.272  11.087
89457W        W60986  12.335  10.218  14.651
89458W        W60987   3.974   9.222   1.365
89459W        W60988  18.248  37.895   3.736
89460W        W60989  42.585   0.511  11.619
89461W        W60990  15.808  22.836   2.188
89462W        W60991  40.789  38.079  14.969
89463W        W60992  23.904  13.410   5.107
89464W        W60993  15.045  22.124  12.499
89465W        W60994   8.405  41.387   0.035
89466W        W60995  18.037  23.818   0.792
89467W        W60996   5.886  25.204   3.263
89468W        W60997   5.349  12.131   1.719
89469W        W60998  36.874  40.383  10.687
89470W        W60999  17.088  35.330   3.672
89471W        W61000  42.860  21.365   3.708
89472W        W61001  27.897  15.287  14.015
89473W        W61002  14.222  37.625   2.115
89474W        W61003  21.577  26.497   0.787
89475W        W61004  32.007  36.325  13.127
89476W        W61005  40.890   8.397  11.669
89477W        W61006   5.875  17.383   4.828
89478W        W61007  26.607  19.266  12.636
89479W        W61008  31.578   4.288  10.936
89480W        W61009  28.643  14.864   2.702
89481W        W61010  40.541   2.923   2.132
89482W        W61011  33.289  10.879   0.316
89483W        W61012  38.035  20.915  12.089
89484W        W61013   0.463  23.914  13.939
89485W        W61014  17.718  34.031  14.564
89486W        W61015  29.646  35.936  10.285
89487W        W61016   2.383  34.940  13.888
89488W        W61017   8.789  12.646   0.765
89489W        W61018  21.269  26.445   3.689
89490W        W61019  42.850  19.473  11.126
89491W        W61020   6.545  10.740   1.749
89492W        W61021  21.924  34.601   1.386
89493W        W61022  17.626  39.858  11.951
89494W        W61023  16.352   3.715  13.386
89495W        W61024  12.334   3.317  10.607
89496W        W61025  11.604  21.449  11.648
89497W        W61026  31.169  31.996   4.538
89498W        W61027   7.907  39.927   2.457
89499W        W61028  18.258   1.647   1.428
89500W        W61029  12.675  21.245  12.371
89501W        W61030  17.048  16.053  11.118
89502W        W61031  12.187  35.969   2.390
89503W        W61032  30.147  12.087  11.927
89504W        W61033  28.510   4.506   0.443
89505W        W61034  35.442  13.176   0.760
89506W        W61035  23.030  37.509   0.880
89507W        W61036  11.599  28.935  12.057
89508W        W61037  35.667  12.387  11.195
89509W        W61038  22.977  25.560   1.223
89510W        W61039  39.356   5.290  10.342
89511W        W61040  22.033  13.362  12.569
89512W        W61041   2.930  12.530  12.014
89513W        W61042  33.978  20.571   4.796
89514W        W61043  34.867   7.864   0.377
89515W        W61044  32.409  34.730   0.140
89516W        W61045  17.628   7.262  12.095
89517W        W61046  23.419  20.021   3.336
89518W        W61047   9.730  22.949  10.537
89519W        W61048  27.969   9.614  14.447
89520W        W61049  35.934  44.047   0.281
89521W        W61050  27.040   1.571   1.895
89522W        W61051  19.681  17.885   2.525
89523W        W61052  35.846   6.784   0.987
89524W        W61053  17.335   8.073   4.516
89525W        W61054  17.722  27.696   1.344
89526W        W61055   6.003  19.226   2.664
89527W        W61056  42.930   0.408  13.335
89528W        W61057  14.085   9.887  14.595
89529W        W61058   6.403  22.559   3.679
89530W        W61059   8.676   0.475   1.334
89531W        W61060  38.377  12.336   2.283
89532W        W61061  15.099   2.801   2.944
89533W        W61062  34.398  39.036  12.569
89534W        W61063  20.700  16.028  11.970
89535W        W61064  27.986  18.249   4.590
89536W        W61065  25.154  18.020   1.310
89537W        W61066  33.533  44.698  14.038
89538W        W61067  14.235  33.922   2.248
89539W        W61068   3.716  12.999  14.893
89540W        W61069  40.384  31.431  13.991
89541W        W61070  37.792   1.231  11.294
89542W        W61071  35.488  37.768  14.518
89543W        W61072  20.995  31.940   2.815
89544W        W61073  29.718   4.850   0.823
89545W        W61074  10.162  14.362   4.561
89546W        W61075  33.021  11.076  10.994
89547W        W61076  17.182   9.861  12.609
89548W        W61077  44.890  42.251  12.436
89549W        W61078   8.074  25.903   1.778
89550W        W61079   0.349  28.505   4.338
89551W        W61080  42.999  34.901   3.161
89552W        W61081   9.205  12.011   1.654
89553W        W61082  26.090   1.301  11.699
89554W        W61083  27.973  42.128  14.328
89555W        W61084  19.061  28.514   2.628
89556W        W61085  31.929  20.324   0.807
89557W        W61086   8.157  33.431  14.487
89558W        W61087  35.900   8.612   4.237
89559W        W61088  41.141  22.455   0.806
89560W        W61089  37.835   9.682  14.285
89561W        W61090   1.818  35.332  10.487
89562W        W61091  32.887  11.799  12.184
89563W        W61092  33.619   2.525  14.148
89564W        W61093  31.860  44.748  11.440
89565W        W61094  29.609  39.759   2.982
89566W        W61095  23.741  39.498  11.584
89567W        W61096  22.605   0.453  11.492
89568W        W61097  24.717  18.120   1.788
89569W        W61098  41.084  20.238   0.626
89570W        W61099  29.419   7.314  14.964
89571W        W61100  43.965  11.074  11.444
89572W        W61101  10.199  19.342   0.200
89573W        W61102  44.571  36.183   2.798
89574W        W61103  32.309  36.425  11.630
89575W        W61104  27.736  12.037  11.576
89576W        W61105  31.820  25.812   3.137
89577W        W61106  28.110  42.015   2.922
89578W        W61107  31.418  14.276   3.691
89579W        W61108   4.004  40.299   0.161
89580W        W61109   4.890  10.119  14.412
89581W        W61110  36.883  43.436   2.777
89582W        W61111  39.584  37.125  11.583
89583W        W61112  30.069  31.672  11.663
89584W        W61113  41.072  11.247  11.649
89585W        W61114  29.957  30.817   1.838
89586W        W61115  40.703  22.732   0.777
89587W        W61116   9.557   2.882  13.885
89588W        W61117  39.726  36.974   2.314
89589W        W61118  41.986   0.459  14.817
89590W        W61119  42.789  15.098  10.721
89591W        W61120  34.049   3.412   1.208
89592W        W61121  15.189   7.532   0.726
89593W        W61122  36.061  39.314  13.265
89594W        W61123  24.085  22.617  11.758
89595W        W61124  15.579  17.588  13.541
89596W        W61125  34.982   7.287   2.778
89597W        W61126   1.817  17.588   1.506
89598W        W61127   1.784  23.302   3.847
89599W        W61128  26.111  17.409   2.564
89600W        W61129  24.821   8.435   2.296
89601W        W61130  41.927   9.731  14.424
89602W        W61131  38.933  16.540  13.499
89603W        W61132  11.341  43.167   2.125
89604W        W61133  26.054  20.422   3.359
89605W        W61134   6.817  41.481   3.395
89606W        W61135  21.187  23.558  12.026
89607W        W61136  23.195  35.053  11.421
89608W        W61137   5.630  12.396  11.245
89609W        W61138  41.920  28.740  10.186
89610W        W61139  28.083  21.540  13.422
89611W        W61140  41.674  15.734   4.059
89612W        W61141  44.467  24.950   3.857
89613W        W61142  19.100  37.099   1.743
89614W        W61143  29.496  25.345  13.824
89615W        W61144  15.120  32.175  12.944
89616W        W61145   2.210  26.421   0.820
89617W        W61146  37.498  31.848  10.696
89618W        W61147  44.485  44.544  12.454
89619W        W61148   5.206  37.039   2.654
89620W        W61149  11.603  36.305  13.118
89621W        W61150  15.559  25.037  12.607
89622W        W61151  40.143  26.608   0.523
89623W        W61152  18.772   6.383   1.097
89624W        W61153  15.919  19.042  14.402
89625W        W61154  32.236  11.804   0.270
89626W        W61155  34.643   8.266   2.730
89627W        W61156  24.874   8.336  11.576
89628W        W61157  35.882   0.243   3.162
89629W        W61158  11.853  32.517   3.055
89630W        W61159   2.997  40.639   1.146
89631W        W61160   0.310  35.329  11.649
89632W        W61161   3.334  41.004   3.608
89633W        W61162  27.087  25.906  11.274
89634W        W61163  36.283  40.151  11.167
89635W        W61164  37.963  37.233   2.219
89636W        W61165   4.438  25.735  12.991
89637W        W61166  33.950  35.923   4.808
89638W        W61167  37.860   6.700  10.725
89639W        W61168  42.042  41.280  14.523
89640W        W61169  15.022  36.768  12.584
89641W        W61170   7.121   8.684   4.042
89642W        W61171   4.118  26.576   3.600
89643W        W61172   3.694  38.612   1.528
89644W        W61173  41.592   1.889  14.260
89645W        W61174  23.124  10.449   0.268
89646W        W61175  12.475   6.043  14.364
89647W        W61176  34.528  39.358   2.729
89648W        W61177   1.624  34.490  12.997
89649W        W61178  19.327  29.700   3.160
89650W        W61179  39.562  41.983  10.449
89651W        W61180  38.212  16.357  14.011
89652W        W61181  12.571  26.707   3.749
89653W        W61182  37.519  14.660  12.458
89654W        W61183  24.117  33.588  10.931
89655W        W61184  11.864   7.782   1.267
89656W        W61185  20.654  29.433   2.838
89657W        W61186  22.205   8.785  13.564
89658W        W61187  39.243   6.273   1.255
89659W        W61188  21.732  33.119  14.268
89660W        W61189  19.621  22.997   2.884
89661W        W61190  37.043   7.234   0.563
89662W        W61191  38.310  20.719  11.116
89663W        W61192   8.227  11.309   3.290
89664W        W61193  23.003  21.013   0.700
89665W        W61194  29.935   5.394  11.478
89666W        W61195  29.714   6.477   3.243
89667W        W61196  25.942  12.576  11.502
89668W        W61197  40.034  44.314   4.741
89669W        W61198  12.224  17.272   2.385
89670W        W61199  23.523   6.941  12.487
89671W        W61200  16.769  17.738  11.455
89672W        W61201   6.778   9.818  11.173
89673W        W61202   0.640  37.427  13.043
89674W        W61203   3.619  23.841   3.221
89675W        W61204  27.593  41.420  10.745
89676W        W61205  24.289  14.104  13.452
89677W        W61206  15.692  14.695   2.861
89678W        W61207  14.052  42.169  12.454
89679W        W61208  24.025   3.503   1.475
89680W        W61209   7.676   6.800  14.249
89681W        W61210   6.302  20.016   9.806
89682W        W61211  13.322   1.253   3.633
89683W        W61212  25.987  22.566   1.831
89684W        W61213  28.496  39.495  12.838
89685W        W61214  18.279  10.253   4.706
89686W        W61215  22.631  30.409   4.660
89687W        W61216  12.848   4.196  13.068
89688W        W61217  18.645  42.090  13.937
89689W        W61218  33.035  40.073   3.672
89690W        W61219   8.459  25.535  13.107
89691W        W61220  37.262  38.939  12.887
89692W        W61221   6.062  16.357  12.647
89693W        W61222  40.526  12.780  10.837
89694W        W61223  43.815   5.558  12.762
89695W        W61224   1.772  20.329  13.405
89696W        W61225  10.763  35.083   1.092
89697W        W61226  28.530   7.819   0.381
89698W        W61227  39.541  43.039   2.623
89699W        W61228  33.378  16.316  11.518
89700W        W61229  27.087  36.075   4.833
89701W        W61230   9.314   7.817  14.015
89702W        W61231  32.126   1.930   4.146
89703W        W61232  20.627   9.251   3.325
89704W        W61233  31.687  13.320   1.910
89705W        W61234  31.525  10.211  12.787
89706W        W61235  36.568  22.698   3.416
89707W        W61236  19.124  10.315  12.999
89708W        W61237  24.654  24.476   1.369
89709W        W61238   6.145  43.782   3.824
89710W        W61239   8.411  19.750  13.929
89711W        W61240  37.973  33.951  10.848
89712W        W61241  32.599  15.685  13.183
89713W        W61242  32.360  32.409   3.323
89714W        W61243  29.442  35.344   1.942
89715W        W61244  31.542  36.457  13.850
89716W        W61245   4.554  25.552   0.099
89717W        W61246  40.217  42.321   3.939
89718W        W61247  44.307  16.119   5.004
89719W        W61248   1.534  42.118   0.473
89720W        W61249  31.210  32.586   1.709
89721W        W61250  37.450  27.214   1.707
89722W        W61251   3.865  22.738   2.114
89723W        W61252  26.596  43.786  12.625
89724W        W61253  23.079   8.205  13.649
89725W        W61254  22.167  32.843   0.323
89726W        W61255  24.677  36.879  11.979
89727W        W61256  41.284   8.733  11.551
89728W        W61257  38.274  14.276  10.571
89729W        W61258  11.821  30.451  13.123
89730W        W61259  36.402  41.938  11.305
89731W        W61260  28.981  33.771   0.279
89732W        W61261  34.503  34.039   1.746
89733W        W61262   5.269  18.580  11.491
89734W        W61263  13.170  31.676   1.934
89735W        W61264  18.510  19.615  14.975
89736W        W61265  10.233  37.118  12.298
89737W        W61266  14.832  12.809  14.419
89738W        W61267  22.436  40.482   3.668
89739W        W61268  25.935   4.846  11.133
89740W        W61269  22.689   3.194   4.102
89741W        W61270  39.811  21.053   1.345
89742W        W61271  36.250  35.095  13.930
89743W        W61272   0.146  11.666   2.164
89744W        W61273  11.904  22.506  14.269
89745W        W61274  31.254  28.465  13.123
89746W        W61275  40.344   0.577   3.563
89747W        W61276   6.220  11.592  11.223
89748W        W61277  35.611  17.536  14.844
89749W        W61278  44.364  28.460  14.840
89750W        W61279  16.077  30.834   2.500
89751W        W61280  13.737  16.698  13.354
89752W        W61281  26.414  40.387  14.077
89753W        W61282  12.789  43.433   1.501
89754W        W61283  22.381  34.366   1.434
89755W        W61284   8.557  30.162   4.791
89756W        W61285  28.897  37.080   2.314
89757W        W61286  35.789  35.191  10.846
89758W        W61287  41.150  17.099  10.921
89759W        W61288  41.288   4.990   3.725
89760W        W61289  37.475   4.318   0.183
89761W        W61290  36.417   7.701  14.761
89762W        W61291  15.563   2.946  11.089
89763W        W61292   3.294  32.235   1.775
89764W        W61293  33.086   9.645   2.267
89765W        W61294   7.755   1.983   0.435
89766W        W61295  16.114  18.237  11.091
89767W        W61296   2.284  13.330   3.539
89768W        W61297  16.089   9.145   9.921
89769W        W61298  20.598  37.414  10.318
89770W        W61299  18.780  24.871   1.464
89771W        W61300  26.637  36.326   4.096
89772W        W61301  24.928  25.557  11.625
89773W        W61302  33.661  12.171   4.197
89774W        W61303  27.615  43.697   2.862
89775W        W61304  34.658   7.750  10.740
89776W        W61305  33.647   4.528   2.108
89777W        W61306  40.274  40.639  12.499
89778W        W61307  37.998  14.249  14.878
89779W        W61308  13.824  40.057  12.972
89780W        W61309  11.663  29.608   0.794
89781W        W61310  41.451   0.369   3.661
89782W        W61311  37.039  35.409   3.103
89783W        W61312   0.986  38.300   2.844
89784W        W61313  14.122  31.300  13.700
89785W        W61314   8.089   2.210  11.333
89786W        W61315  17.858  44.809  11.127
89787W        W61316  33.570   4.916   3.192
89788W        W61317   4.960   2.194   3.850
89789W        W61318  15.572  32.865   0.930
89790W        W61319  33.448   6.742   4.867
89791W        W61320  17.159  43.050   1.759
89792W        W61321  11.579  33.382  14.324
89793W        W61322  22.723   4.195   2.816
89794W        W61323  13.733  29.126  14.421
89795W        W61324  36.571  23.137   4.549
89796W        W61325  24.470   0.181  13.070
89797W        W61326  17.888  27.989  14.470
89798W        W61327  24.954  10.745  11.188
89799W        W61328  32.950   1.295  13.286
89800W        W61329   7.615   9.252  13.849
89801W        W61330  14.639   1.773   4.098
89802W        W61331  27.266   1.464  13.932
89803W        W61332  28.680  31.144   4.107
89804W        W61333   0.035  32.410  11.179
89805W        W61334  36.485  27.686  10.906
89806W        W61335   5.702  16.039  10.334
89807W        W61336  33.586  41.572  13.974
89808W        W61337  20.796   8.766   1.132
89809W        W61338  44.110  35.162   1.779
89810W        W61339  30.924  25.896   1.830
89811W        W61340   5.784  27.256   0.376
89812W        W61341  16.226  26.294   3.427
89813W        W61342  37.318  15.356  11.522
89814W        W61343  22.938  42.373   3.841
89815W        W61344  30.081  12.909   1.359
89816W        W61345  26.817  31.881   2.709
89817W        W61346  41.079  31.389   2.670
89818W        W61347  14.181  34.813  14.535
89819W        W61348   7.649  38.741  10.687
89820W        W61349  19.185   9.732  13.972
89821W        W61350   1.256  10.427  10.214
89822W        W61351  23.627  41.740   1.828
89823W        W61352  39.393  10.056  13.935
89824W        W61353  38.256  15.160  10.528
89825W        W61354  24.507  33.095  14.909
89826W        W61355  12.844   8.918   1.470
89827W        W61356  12.802  41.922  12.270
89828W        W61357   3.718  39.670  14.070
89829W        W61358  17.121  17.401  11.630
89830W        W61359  43.789   6.500  11.502
89831W        W61360  29.522   6.163   2.855
89832W        W61361  30.254   2.879  14.310
89833W        W61362  43.279  41.975  11.183
89834W        W61363  28.189  23.110   1.311
89835W        W61364   0.323  38.563  14.224
89836W        W61365  32.269   3.934   2.372
89837W        W61366  36.493  42.088  14.097
89838W        W61367  30.223  11.052  12.794
89839W        W61368  35.329   6.766   2.034
89840W        W61369   7.224  34.261  11.610
89841W        W61370  19.357  44.734   1.827
89842W        W61371  21.279  37.592   2.387
89843W        W61372  29.696  13.148  13.939
89844W        W61373  27.988  30.895  14.955
89845W        W61374  15.656  33.100   4.846
89846W        W61375  13.352   2.903  14.739
89847W        W61376  28.277  21.067   3.752
89848W        W61377  15.719  21.707   3.866
89849W        W61378  26.761  29.456   1.892
89850W        W61379  22.192  34.532  12.514
89851W        W61380  29.342  24.241   1.323
89852W        W61381   5.358  40.498   1.715
89853W        W61382   4.503   4.901  13.435
89854W        W61383  30.509   5.268  10.809
89855W        W61384  35.214  21.577  14.798
89856W        W61385   5.985  23.557   3.908
89857W        W61386  23.953   0.741   0.911
89858W        W61387  10.207  33.496  14.156
89859W        W61388  24.456  24.321   0.896
89860W        W61389  17.131  20.300   1.789
89861W        W61390  38.448  14.137   1.195
89862W        W61391  13.474  13.388  13.892
89863W        W61392  13.238  16.210   0.317
89864W        W61393  36.433  43.384  13.633
89865W        W61394  21.201  31.166   2.400
89866W        W61395  10.632  15.729  14.916
89867W        W61396  16.172   9.519   3.285
89868W        W61397  29.484   4.795  10.204
89869W        W61398  34.435  18.774  14.811
89870W        W61399  18.185  41.005  13.044
89871W        W61400  25.970   2.923   2.282
89872W        W61401  42.019  36.375   2.995
89873W        W61402  38.265  27.108   3.536
89874W        W61403  38.886  16.802   1.528
89875W        W61404  31.397  12.118   3.566
89876W        W61405  44.100  27.604  14.770
89877W        W61406  38.298  25.971   1.781
89878W        W61407   7.333  37.865  11.593
89879W        W61408  14.045  40.015  12.160
89880W        W61409  12.592  40.745  14.472
89881W        W61410  23.108  19.084  14.251
89882W        W61411   7.840  14.861   1.845
89883W        W61412  17.376  10.228   0.225
89884W        W61413   9.782  33.643  13.246
89885W        W61414  41.853  19.127   3.299
89886W        W61415  16.662  25.164  14.704
89887W        W61416  18.182  39.016  11.657
89888W        W61417  10.866   2.012   3.656
89889W        W61418  39.946  27.631  14.505
89890W        W61419  19.170  15.342  13.038
89891W        W61420  43.833  19.462   4.521
89892W        W61421   0.464  32.384  12.973
89893W        W61422   0.455  23.452  10.566
89894W        W61423  34.563   0.823  12.246
89895W        W61424  16.232  18.831  11.824
89896W        W61425  31.892  25.559   1.732
89897W        W61426  41.741  12.711  12.162
89898W        W61427  11.187  44.508  13.430
89899W        W61428   1.520   1.828   0.520
89900W        W61429   2.724  32.514   3.330
89901W        W61430  38.483  11.380  10.624
89902W        W61431  33.855   0.504  13.832
89903W        W61432  34.458  34.913  14.257
89904W        W61433   8.269  12.221  12.639
89905W        W61434  23.278  30.173  14.430
89906W        W61435  27.672   2.509   1.894
89907W        W61436  27.206  43.862  14.595
89908W        W61437  40.217  44.775   4.883
89909W        W61438  15.810  37.520   4.964
89910W        W61439  31.355  22.950  13.678
89911W        W61440  19.600   2.688   1.794
89912W        W61441  26.853  21.915  13.074
89913W        W61442   7.697  33.481  11.283
89914W        W61443  11.383  22.284   3.134
89915W        W61444  32.002   4.377   0.262
89916W        W61445  36.025  17.785  14.615
89917W        W61446  29.894  38.442  12.946
89918W        W61447  34.926  18.881   0.858
89919W        W61448  27.211   6.185   1.867
89920W        W61449  41.008  22.975  13.634
89921W        W61450  17.628  33.555  10.722
89922W        W61451  27.173  33.174  13.269
89923W        W61452   2.007  11.221  13.645
89924W        W61453  33.678  24.989   3.501
89925W        W61454  38.382  27.453   4.497
89926W        W61455   0.760  10.692  12.978
89927W        W61456  38.408  33.899  12.268
89928W        W61457  34.820  23.489  14.731
89929W        W61458   6.675  12.205   1.917
89930W        W61459   2.206  24.698   1.297
89931W        W61460  35.410  14.722  10.736
89932W        W61461   9.269  43.220  13.740
89933W        W61462   0.444  10.220   2.668
89934W        W61463  13.825  24.425  11.606
89935W        W61464  12.652  25.178  12.898
89936W        W61465  18.030  21.494   1.779
89937W        W61466  16.230  14.112   0.805
89938W        W61467  13.731  22.304   2.575
89939W        W61468  31.127  24.813   4.044
89940W        W61469   1.854  15.737   3.659
89941W        W61470  27.157  30.612   1.312
89942W        W61471  37.099  24.136  12.051
89943W        W61472  24.674  17.228  12.488
89944W        W61473  33.486  40.799  12.062
89945W        W61474  24.645  23.047  13.842
89946W        W61475  21.054  20.222   3.660
89947W        W61476   4.033  24.820  10.740
89948W        W61477  32.609  20.694   1.489
89949W        W61478  43.390  31.294   3.369
89950W        W61479   4.322  18.284   0.847
89951W        W61480  33.720  19.240  12.513
89952W        W61481   2.543   4.038  12.514
89953W        W61482  41.674  10.304   2.919
89954W        W61483  32.634  44.823  13.377
89955W        W61484  37.778  15.869   4.583
89956W        W61485  19.699  25.325   2.455
89957W        W61486  13.049  35.643   3.545
89958W        W61487  14.037   9.921   4.011
89959W        W61488  11.732  34.500   2.664
89960W        W61489  30.609  14.668  14.405
89961W        W61490   7.488  20.462   0.423
89962W        W61491  44.984  11.283   0.438
89963W        W61492  42.493  37.512  10.707
89964W        W61493  19.436  12.842   4.227
89965W        W61494  23.679   2.281  11.116
89966W        W61495  12.700  44.880   3.926
89967W        W61496  42.990   9.932  13.523
89968W        W61497  16.931   4.187   4.142
89969W        W61498  42.228  10.268  12.423
89970W        W61499   1.096   2.971   3.089
89971W        W61500  32.633  19.009  11.598
89972W        W61501  11.284   7.088  11.512
89973W        W61502  36.035   0.055  12.016
89974W        W61503  41.849  39.877   3.342
89975W        W61504  17.194  15.308  14.970
89976W        W61505  24.536  27.978  12.352
89977W        W61506  34.091  21.189   1.778
89978W        W61507  37.406   9.357  12.018
89979W        W61508  30.014  32.607  14.968
89980W        W61509   4.517  16.318   1.284
89981W        W61510  31.620  23.237   4.546
89982W        W61511   5.689  15.569  14.039
89983W        W61512   6.298   0.781  10.398
89984W        W61513  35.118  30.651  12.411
89985W        W61514  24.181  33.789  10.448
89986W        W61515   8.525  30.902   1.540
89987W        W61516  18.052  10.645  13.988
89988W        W61517  37.019  17.071  11.969
89989W        W61518  25.667  19.688   1.295
89990W        W61519   1.525  29.316   4.159
89991W        W61520  23.462  36.348  14.869
89992W        W61521  26.819  19.771  11.236
89993W        W61522   6.072  28.846  14.479
89994W        W61523  31.555   3.330   2.108
89995W        W61524  41.603  10.833  14.940
89996W        W61525  39.553   6.259   0.791
89997W        W61526   6.563  25.166  14.396
89998W        W61527  30.725  43.389   1.143
89999W        W61528  44.254   5.721   4.373
90000W        W61529  25.684  29.835  12.317
90001W        W61530  10.768   9.908  14.509
90002W        W61531  14.230   9.384   2.684
90003W        W61532  39.536  31.896  13.822
90004W        W61533   3.242  23.012   4.132
90005W        W61534  24.961   2.906   3.181
90006W        W61535   0.777  28.522  11.047
90007W        W61536  27.944  33.905   1.738
90008W        W61537  25.127   3.247   0.050
90009W        W61538  39.087  38.603   0.937
90010W        W61539  39.555  18.645   4.188
90011W        W61540   6.052  36.302  11.617
90012W        W61541  44.443   4.998   0.917
90013W        W61542   9.266  25.839  13.345
90014W        W61543  12.312  33.118   2.006
90015W        W61544  24.473   7.621   0.962
90016W        W61545  38.851  41.576  14.046
90017W        W61546   2.747  18.100  11.505
90018W        W61547  21.684  26.148  10.482
90019W        W61548  28.651   4.420   4.427
90020W        W61549  31.496  35.868   3.275
90021W        W61550   6.264   0.071   0.484
90022W        W61551  12.376  20.074   2.065
90023W        W61552  36.336  39.989   4.141
90024W        W61553   5.542   8.720  11.510
90025W        W61554   9.686  27.622   3.355
90026W        W61555  12.302  42.978   4.171
90027W        W61556  33.833  27.920   1.013
90028W        W61557  37.334  16.612  13.549
90029W        W61558   7.665  29.264   2.217
90030W        W61559  25.890  19.676  14.344
90031W        W61560   4.811  26.767   2.383
90032W        W61561   7.789  11.749  11.647
90033W        W61562   2.330   2.383   1.009
90034W        W61563  26.924  10.339   4.842
90035W        W61564  12.815  36.683   2.291
90036W        W61565  34.158  41.929   3.329
90037W        W61566  16.154  16.581   2.448
90038W        W61567  26.489  35.866  10.738
90039W        W61568   7.335   6.365   3.260
90040W        W61569  43.755  32.491  13.633
90041W        W61570  28.525  14.365  13.486
90042W        W61571  19.553   8.803  12.913
90043W        W61572   1.381  35.309   0.861
90044W        W61573  15.637   5.426   2.806
90045W        W61574   0.739  36.885   1.882
90046W        W61575   2.198  25.418  14.100
90047W        W61576  42.239   9.406  12.373
90048W        W61577  29.246  41.507   4.709
90049W        W61578   1.795  21.669   3.100
90050W        W61579   2.644  35.205  12.119
90051W        W61580  28.862   8.809   4.496
90052W        W61581   9.986  18.289  12.351
90053W        W61582  33.096   1.845   2.888
90054W        W61583  24.585  17.439   2.460
90055W        W61584   2.715  40.256   3.135
90056W        W61585   2.378  32.173   3.897
90057W        W61586  35.164   1.294   0.219
90058W        W61587  40.393  26.352   4.512
90059W        W61588   4.389   9.688  11.890
90060W        W61589  44.619  32.882  14.260
90061W        W61590  32.131  42.221   3.334
90062W        W61591  20.197  42.288  12.940
90063W        W61592  42.008  17.517   0.804
90064W        W61593  22.113  29.189  13.316
90065W        W61594  44.777  17.251   2.355
90066W        W61595  26.718  30.690   4.497
90067W        W61596  40.913  16.049   0.610
90068W        W61597  30.144  18.068   2.975
90069W        W61598  33.436  18.758  14.836
90070W        W61599  39.470  27.602  10.671
90071W        W61600  35.215  23.590  13.006
90072W        W61601  11.300  43.828  14.736
90073W        W61602  34.744   2.362  11.208
90074W        W61603  31.247  13.851  11.856
90075W        W61604  35.633  21.770  11.213
90076W        W61605  36.517  27.587   1.418
90077W        W61606  44.300  33.151  12.119
90078W        W61607  27.941  40.662  11.112
90079W        W61608   6.425   4.201   3.184
90080W        W61609  32.996  16.311  14.138
90081W        W61610  36.052  11.645   2.330
90082W        W61611  40.147  29.082  14.453
90083W        W61612  40.555  41.720  14.830
90084W        W61613  22.253  22.486  12.099
90085W        W61614  10.232  30.429   0.065
90086W        W61615  22.627   4.050  11.579
90087W        W61616  25.087  25.777   1.582
90088W        W61617  11.411  11.729  12.849
90089W        W61618  38.110   1.030   1.895
90090W        W61619  22.387  25.557  13.451
90091W        W61620   2.404   5.166   1.035
90092W        W61621   6.451   2.922   4.908
90093W        W61622   2.429  18.922   1.488
90094W        W61623  23.097  34.877   2.471
90095W        W61624  34.820  31.907   2.281
90096W        W61625  36.983   7.926  10.754
90097W        W61626  31.769  44.074   3.180
90098W        W61627  35.085   7.499  11.138
90099W        W61628  15.707  12.605  10.432
90100W        W61629   5.842  44.314   1.390
90101W        W61630  12.038   9.209   1.690
90102W        W61631  29.557  36.199   5.342
90103W        W61632   8.969  40.653   1.862
90104W        W61633  31.559  44.090  10.708
90105W        W61634  22.674   1.360   0.788
90106W        W61635  26.523  32.637   3.656
90107W        W61636  17.145  13.156   3.829
90108W        W61637  15.078  12.824   2.985
90109W        W61638  42.980   9.448   3.636
90110W        W61639  38.557   5.725   1.292
90111W        W61640  22.111  28.444  10.684
90112W        W61641  28.542  24.683   2.951
90113W        W61642  34.812   7.652   2.219
90114W        W61643   1.805  14.090  11.056
90115W        W61644   3.270  15.694  11.731
90116W        W61645  11.131  44.119  12.929
90117W        W61646  14.712   4.028  13.028
90118W        W61647  15.247  21.031   1.073
90119W        W61648   6.625  42.088  13.746
90120W        W61649  37.498  16.543   3.966
90121W        W61650  10.167  10.858   1.308
90122W        W61651  11.122  27.539  10.538
90123W        W61652  29.239  32.143   3.113
90124W        W61653  27.484   5.777   2.073
90125W        W61654  13.675   3.018   0.866
90126W        W61655   1.696  31.421   3.786
90127W        W61656  37.576  30.300   2.426
90128W        W61657  44.895  18.459   1.550
90129W        W61658   7.475   4.272   2.672
90130W        W61659  42.384  13.837   3.723
90131W        W61660  38.965  41.045   4.440
90132W        W61661   5.696  10.646   1.337
90133W        W61662  44.331  11.686   5.059
90134W        W61663  44.776   6.358   0.332
90135W        W61664  19.283  44.204  13.017
90136W        W61665  37.459  15.664   0.848
90137W        W61666  14.152  33.899  12.110
90138W        W61667   1.739  44.413   2.822
90139W        W61668   5.155   4.145  13.042
90140W        W61669  10.218  36.782   4.601
90141W        W61670  10.706  37.591   3.616
90142W        W61671  29.874  38.384   3.166
90143W        W61672  36.343   9.121  14.077
90144W        W61673  34.640  42.340  14.158
90145W        W61674  44.323  26.129   0.326
90146W        W61675  16.740  26.446  11.915
90147W        W61676  10.236  27.944   2.437
90148W        W61677  23.221  13.239   3.383
90149W        W61678  27.993  26.697  13.956
90150W        W61679   7.750   7.599  14.933
90151W        W61680  21.588  41.541   5.529
90152W        W61681   8.529  44.928   4.414
90153W        W61682  38.550  12.216  11.688
90154W        W61683  38.568   2.769   3.446
90155W        W61684  17.082  33.256   3.664
90156W        W61685  38.572  19.207   4.691
90157W        W61686  19.761   9.589   4.509
90158W        W61687  34.410   8.642   4.343
90159W        W61688  42.140  22.417  13.922
90160W        W61689  38.873  32.917  13.008
90161W        W61690  26.198  27.728   2.766
90162W        W61691   9.330  37.499   2.361
90163W        W61692  19.354  22.653  14.968
90164W        W61693  19.554  37.304   3.686
90165W        W61694  38.244  45.000  11.051
90166W        W61695  10.679   1.210  11.225
90167W        W61696  40.239  31.039   1.162
90168W        W61697  36.877  11.069   0.985
90169W        W61698  26.105   3.442  12.514
90170W        W61699  22.038   0.926   0.799
90171W        W61700  16.760  31.525  10.445
90172W        W61701  29.411  31.988  13.564
90173W        W61702   3.158  10.884  14.175
90174W        W61703   4.387  26.677  14.012
90175W        W61704  16.744  17.363   2.249
90176W        W61705  33.464   2.462   3.180
90177W        W61706   7.306  32.930  14.358
90178W        W61707  39.411  36.371  11.023
90179W        W61708  33.522  14.480   2.685
90180W        W61709  27.437  40.510  10.671
90181W        W61710  25.734  32.586   3.206
90182W        W61711  39.424  23.770   0.756
90183W        W61712  26.396  10.035   9.990
90184W        W61713   6.865  13.557  11.970
90185W        W61714  42.667  34.451   4.021
90186W        W61715  35.065  30.566   2.897
90187W        W61716  35.835  42.004   4.597
90188W        W61717   4.283  23.192  10.669
90189W        W61718  14.030  42.826  14.565
90190W        W61719  29.523  39.942  12.435
90191W        W61720   2.811  30.523   2.172
90192W        W61721  27.668  43.875  11.038
90193W        W61722  44.456  14.199   3.285
90194W        W61723   0.789   0.319  13.923
90195W        W61724  33.202  35.452   4.730
90196W        W61725  32.631   1.188   4.604
90197W        W61726   7.202  42.984   2.271
90198W        W61727  31.791   3.825   2.142
90199W        W61728  15.800  29.796   5.220
90200W        W61729  22.468  19.014  11.058
90201W        W61730  28.695  27.996   4.801
90202W        W61731  15.832  30.214   0.832
90203W        W61732   3.963  35.506  13.515
90204W        W61733  29.010   2.115   4.089
90205W        W61734   3.873  37.888  13.556
90206W        W61735  14.801  41.740   2.355
90207W        W61736  27.419  20.794  11.169
90208W        W61737  23.465  25.972  14.866
90209W        W61738  14.802  35.343  12.492
90210W        W61739  34.350   1.322   0.875
90211W        W61740   3.844  43.356  14.838
90212W        W61741  11.817  37.483   3.643
90213W        W61742  26.488  12.811  10.386
90214W        W61743  44.313  35.938  10.614
90215W        W61744   6.700  37.411  12.434
90216W        W61745  42.934  39.736  14.371
90217W        W61746  32.621   9.154   1.819
90218W        W61747  32.226   1.369   2.884
90219W        W61748  36.053  13.036   4.859
90220W        W61749  31.324  27.788   2.002
90221W        W61750   0.779  22.611   0.713
90222W        W61751  13.774  24.446   0.681
90223W        W61752  42.212  10.169  11.583
90224W        W61753  32.552  25.042  13.507
90225W        W61754  36.721  36.141  13.742
90226W        W61755  40.256   9.156  13.954
90227W        W61756  29.998  23.359   0.921
90228W        W61757  12.307   6.180   0.266
90229W        W61758   2.633  25.607   2.312
90230W        W61759  34.461  39.341  10.813
90231W        W61760  43.390  44.535  13.877
90232W        W61761  23.732  22.244  11.677
90233W        W61762  37.967  23.936   3.780
90234W        W61763  37.911  30.962   1.241
90235W        W61764  29.916  11.094  14.361
90236W        W61765  17.002  16.797   1.410
90237W        W61766  35.066  33.862   4.761
90238W        W61767  24.462   6.118  12.033
90239W        W61768  28.554  30.342   3.234
90240W        W61769  42.510  32.193   2.306
90241W        W61770  21.819   1.688   0.285
90242W        W61771   9.788   9.039   2.843
90243W        W61772  29.306  20.083   2.011
90244W        W61773  12.252   6.509  14.448
90245W        W61774  17.224   5.271   0.195
90246W        W61775   7.309  38.852   0.322
90247W        W61776  30.944  18.710  11.159
90248W        W61777  41.816   0.146  13.197
90249W        W61778  16.617  34.797  12.735
90250W        W61779  34.259  29.382   2.521
90251W        W61780  37.578  11.640  13.999
90252W        W61781  40.839  15.917   4.825
90253W        W61782   6.118   7.160   2.219
90254W        W61783  37.453  36.021  12.548
90255W        W61784  44.063  32.800   3.693
90256W        W61785  17.357  44.964   1.922
90257W        W61786  28.269   1.706  14.222
90258W        W61787  42.497  23.493  14.952
90259W        W61788  35.482  37.513  10.705
90260W        W61789   5.367  38.863  14.875
90261W        W61790   9.714  26.486  14.921
90262W        W61791   7.713  40.133  13.343
90263W        W61792  20.152  20.855  13.783
90264W        W61793  34.008  36.256   3.947
90265W        W61794  29.528  12.202  11.395
90266W        W61795  44.551  36.469  14.488
90267W        W61796  39.220  42.932  11.890
90268W        W61797   9.127  18.638   1.176
90269W        W61798  41.213  42.389  11.595
90270W        W61799   4.926   0.420   4.265
90271W        W61800   3.100   3.442   4.560
90272W        W61801  25.038   9.979  13.022
90273W        W61802   7.718  38.559   0.372
90274W        W61803  33.975   6.725  13.610
90275W        W61804  31.641  30.240   3.714
90276W        W61805  15.337  19.181  13.134
90277W        W61806  11.346  44.456  11.204
90278W        W61807   7.895   0.304   1.838
90279W        W61808  14.820  23.012  11.742
90280W        W61809  35.440  20.724  11.900
90281W        W61810  20.052  10.730  10.473
90282W        W61811  23.308  23.396   2.365
90283W        W61812  44.829  35.920   3.878
90284W        W61813   1.794  29.559   5.107
90285W        W61814  25.126  43.474   0.895
90286W        W61815  34.592   2.697  12.153
90287W        W61816  27.731   1.951  13.519
90288W        W61817  30.506  16.856  13.369
90289W        W61818  26.890  22.034  13.990
90290W        W61819  26.212  16.720   4.089
90291W        W61820  44.750  25.188  12.951
90292W        W61821  34.508  32.171  14.887
90293W        W61822  30.225  27.524   2.816
90294W        W61823  22.084   2.064  10.529
90295W        W61824  31.030  30.575   2.538
90296W        W61825  42.330  43.516   1.294
90297W        W61826   6.144  44.459   0.941
90298W        W61827   0.817  42.768  13.007
90299W        W61828   4.817   4.725   3.578
90300W        W61829  33.038   6.683  13.788
90301W        W61830   5.066  35.127  14.056
90302W        W61831  29.558  36.381  14.372
90303W        W61832  13.121  18.496   0.196
90304W        W61833  21.037  23.656  14.930
90305W        W61834  35.523  34.080   0.434
90306W        W61835  43.267  31.970  10.208
90307W        W61836  20.308  30.174   0.860
90308W        W61837  27.989  20.168   2.295
90309W        W61838  24.517  35.936  13.081
90310W        W61839  29.114  17.754   3.361
90311W        W61840  18.365  38.286  11.607
90312W        W61841  33.087   0.036   3.841
90313W        W61842  28.161  26.942  11.151
90314W        W61843  24.607  28.950  14.958
90315W        W61844   4.745  29.158  13.971
90316W        W61845  44.464  13.377  11.883
90317W        W61846  13.734  29.510  14.838
90318W        W61847  37.738  17.108   5.134
90319W        W61848  34.281   2.168  11.235
90320W        W61849   6.951  18.821  12.196
90321W        W61850  30.049   2.323  11.107
90322W        W61851  41.098  22.768  11.980
90323W        W61852   2.453   7.780   3.740
90324W        W61853  32.150  35.971   4.166
90325W        W61854  26.698  39.482   1.873
90326W        W61855  44.719  20.706  10.523
90327W        W61856  29.227  27.477  11.905
90328W        W61857  38.404  43.992  13.148
90329W        W61858  24.942  28.123   1.006
90330W        W61859  12.069  43.109  13.236
90331W        W61860  11.260  12.236  13.282
90332W        W61861   0.147   4.881   0.342
90333W        W61862  24.923  27.388   3.221
90334W        W61863  10.679   3.191   4.050
90335W        W61864  24.462  24.797   4.450
90336W        W61865   2.352   1.811   1.762
90337W        W61866  13.466   6.829  11.546
90338W        W61867  44.535  19.834  12.575
90339W        W61868  30.284  18.747   4.534
90340W        W61869  43.701  19.681   4.967
90341W        W61870  19.855  30.583   4.074
90342W        W61871  14.126  41.495  11.608
90343W        W61872  26.430   9.682   4.187
90344W        W61873  33.487   6.434   0.491
90345W        W61874  32.833   8.441   3.710
90346W        W61875  11.781  36.511   1.957
90347W        W61876  27.880  35.052  12.247
90348W        W61877  28.136  30.137   0.455
90349W        W61878   5.142  11.928   1.289
90350W        W61879   3.518  23.304   3.767
90351W        W61880  22.086   7.100  11.852
90352W        W61881  33.067  43.718   3.725
90353W        W61882  20.730   3.892  10.454
90354W        W61883  19.768  16.820   4.492
90355W        W61884   7.773  24.304  13.999
90356W        W61885  10.198  24.092  14.764
90357W        W61886  42.238  17.357   3.855
90358W        W61887   1.344  29.561   3.730
90359W        W61888  39.984   2.464   4.103
90360W        W61889  31.270  16.298   4.962
90361W        W61890  12.807  32.155  14.117
90362W        W61891   3.857   9.112   0.090
90363W        W61892   3.958  11.590  13.581
90364W        W61893  26.357  32.936  13.093
90365W        W61894   6.782  15.983   4.199
90366W        W61895  18.668  21.499  11.272
90367W        W61896  31.020  25.206   1.266
90368W        W61897  25.874  26.186   3.283
90369W        W61898  41.314  36.811   0.244
90370W        W61899  36.612  18.029   1.745
90371W        W61900  13.187  30.946  13.269
90372W        W61901  37.607  13.236   0.858
90373W        W61902  40.363  19.023   3.395
90374W        W61903  12.650  17.979   4.112
90375W        W61904  14.053  41.037   4.066
90376W        W61905  25.657  37.976  12.549
90377W        W61906  16.041  43.682   4.718
90378W        W61907  20.728   3.699   4.662
90379W        W61908  24.690  26.433   2.271
90380W        W61909   7.508  38.304   4.139
90381W        W61910  21.522   7.007  12.615
90382W        W61911   7.813   1.958  11.728
90383W        W61912   6.431  13.478   0.184
90384W        W61913   5.563  14.224   3.567
90385W        W61914  40.313  36.885  12.335
90386W        W61915  39.847  29.234   0.870
90387W        W61916  22.922  31.133  12.877
90388W        W61917  17.366  44.559   2.909
90389W        W61918  21.051  25.105  14.780
90390W        W61919  15.650  15.667  12.568
90391W        W61920  12.780  30.415   0.923
90392W        W61921   1.301  35.610   5.027
90393W        W61922  15.836  23.481  13.479
90394W        W61923  22.125   0.052   1.548
90395W        W61924  19.527  21.929  10.734
90396W        W61925  22.137  10.902   1.161
90397W        W61926   8.585  15.130   0.086
90398W        W61927  26.642  35.606   3.577
90399W        W61928  11.868  38.533  14.827
90400W        W61929  27.746  43.783   1.819
90401W        W61930  35.584   2.869   3.344
90402W        W61931  13.944  20.936  14.394
90403W        W61932  28.356   3.936   4.064
90404W        W61933  13.625  31.144  13.793
90405W        W61934  32.631  15.579  11.735
90406W        W61935  23.606  26.234   4.081
90407W        W61936  31.465  16.902   2.981
90408W        W61937   1.408  44.236  10.956
90409W        W61938  27.292  29.367   1.834
90410W        W61939  29.557  25.653  12.250
90411W        W61940  42.494  20.558   1.218
90412W        W61941  39.676   8.304  13.837
90413W        W61942  28.261  31.581  13.785
90414W        W61943  27.786   8.964  12.865
90415W        W61944   1.383  19.093  12.628
90416W        W61945  21.206  26.314  12.572
90417W        W61946  11.389  36.762   1.710
90418W        W61947  11.151   3.324  11.566
90419W        W61948  31.913   2.161   4.564
90420W        W61949  21.322   4.893   2.758
90421W        W61950   8.506  20.727   4.411
90422W        W61951   6.150  30.123   1.208
90423W        W61952  21.705  11.627  11.973
90424W        W61953  19.084  36.504  12.624
90425W        W61954  30.529  19.727  11.859
90426W        W61955  11.300  42.681   2.317
90427W        W61956  24.947  25.908   3.249
90428W        W61957  28.665  34.202  14.096
90429W        W61958   9.902  11.434   2.789
90430W        W61959  38.609  42.897   4.184
90431W        W61960   6.274  15.427  11.564
90432W        W61961  36.739  27.710   2.167
90433W        W61962  21.094  29.988  11.001
90434W        W61963  37.908   0.763  13.529
90435W        W61964  39.584  14.807   0.966
90436W        W61965   6.897  11.169   2.871
90437W        W61966  31.823  22.154  12.045
90438W        W61967  31.942  38.949  14.410
90439W        W61968  37.525   8.960   3.569
90440W        W61969  41.638  11.153  13.733
90441W        W61970  21.090   1.516   2.351
90442W        W61971  14.224  15.677  12.739
90443W        W61972  23.524   5.550  14.917
90444W        W61973  34.365  43.729   1.942
90445W        W61974  17.708  32.420   2.890
90446W        W61975  20.408   0.932  11.561
90447W        W61976  24.637  15.269  12.795
90448W        W61977   4.160  23.904  14.832
90449W        W61978  19.066  35.384  10.844
90450W        W61979  40.723  10.490   2.676
90451W        W61980  25.436   2.301  14.323
90452W        W61981   0.517   2.706   2.277
90453W        W61982   7.210  12.003  14.226
90454W        W61983  22.181  40.858   2.362
90455W        W61984  11.723  40.434   1.332
90456W        W61985   3.791  12.704  14.462
90457W        W61986  35.654  35.580  12.439
90458W        W61987  10.180  32.969  14.347
90459W        W61988  28.823  25.183  14.537
90460W        W61989  25.449  15.352   2.163
90461W        W61990  38.860  20.749   1.610
90462W        W61991  40.651  21.346   2.652
90463W        W61992  37.040  32.909   0.442
90464W        W61993  32.338  35.512  12.151
90465W        W61994  10.920   5.651  13.276
90466W        W61995  41.737  17.226  12.537
90467W        W61996  42.533  18.632   1.973
90468W        W61997  18.260   1.298  12.773
90469W        W61998   9.325  34.680   3.078
90470W        W61999  43.034  27.505   2.385
90471W        W62000  15.324   0.456   2.713
90472W        W62001  15.594  10.869  11.616
90473W        W62002  24.917  22.477  14.779
90474W        W62003  33.629   7.240  10.055
90475W        W62004  16.718  36.177  13.508
90476W        W62005   7.736  21.123  10.112
90477W        W62006   6.725  13.153  14.898
90478W        W62007  14.552  39.816   2.691
90479W        W62008  26.561   4.685   3.623
90480W        W62009  30.746  14.681  11.556
90481W        W62010  14.130   5.167  10.676
90482W        W62011  24.626  42.480  11.674
90483W        W62012  26.181  32.098  10.204
90484W        W62013   7.322  11.347   2.218
90485W        W62014   1.606   9.795  13.494
90486W        W62015  28.629  31.039  14.554
90487W        W62016   6.551  15.762  10.129
90488W        W62017  37.510  40.220  12.508
90489W        W62018  10.799  36.513  12.495
90490W        W62019  40.563  11.202   1.207
90491W        W62020  42.064  23.688  13.155
90492W        W62021  32.814  26.276  12.978
90493W        W62022  34.611   1.321  12.416
90494W        W62023   6.292   1.737  12.956
90495W        W62024   5.396  38.008   1.294
90496W        W62025  43.310  11.704  13.062
90497W        W62026  40.817  35.792  11.212
90498W        W62027  11.072   3.362   4.346
90499W        W62028  37.900   2.320  13.516
90500W        W62029  18.318   6.111   1.101
90501W        W62030  37.566  29.658   2.957
90502W        W62031   6.538   6.082  10.254
90503W        W62032  13.829  26.363  11.905
90504W        W62033  12.298  15.063   1.232
90505W        W62034  17.721  42.273   1.295
90506W        W62035  11.682  20.002  12.146
90507W        W62036  27.572  26.405   4.293
90508W        W62037  44.411  42.829   1.662
90509W        W62038  15.110  33.351  13.396
90510W        W62039   5.201  34.842  13.351
90511W        W62040  17.743  14.740  14.467
90512W        W62041  18.161  20.633  11.557
90513W        W62042  28.573  39.296   1.327
90514W        W62043  16.423  39.863   2.298
90515W        W62044  31.384  17.714   1.186
90516W        W62045   9.201  19.560   0.718
90517W        W62046  24.048  31.088   4.216
90518W        W62047  34.116  24.051  13.426
90519W        W62048   0.373  30.912  14.990
90520W        W62049  27.176  28.720   0.769
90521W        W62050  21.265   4.694  11.727
90522W        W62051  43.302  20.567   1.016
90523W        W62052  11.177  41.721   1.951
90524W        W62053   3.584  20.385  13.847
90525W        W62054   0.563   6.276   4.543
90526W        W62055  43.953  25.196   1.742
90527W        W62056  37.754  43.302   0.541
90528W        W62057  13.213  25.647  13.787
90529W        W62058  31.619  33.369  14.497
90530W        W62059   5.457  21.172   2.692
90531W        W62060  39.455  15.257   0.757
90532W        W62061   5.919  34.868   1.224
90533W        W62062   8.210  15.076  13.884
90534W        W62063   2.911   4.280   2.170
90535W        W62064  25.555  32.845  12.930
90536W        W62065  39.944  29.064  10.944
90537W        W62066  27.086  16.377   1.940
90538W        W62067  23.711  32.928   1.411
90539W        W62068  13.267  11.062   3.673
90540W        W62069   5.018  19.782   0.682
90541W        W62070   3.915   1.438   2.179
90542W        W62071  26.192  39.076   3.386
90543W        W62072  16.070  36.498  12.574
90544W        W62073  24.697  35.335  13.933
90545W        W62074   0.825  31.254  11.711
90546W        W62075  34.042   9.365  12.561
90547W        W62076  10.551  15.173  11.894
90548W        W62077  29.425  21.973   2.728
90549W        W62078  12.162  26.460   4.187
90550W        W62079  23.818  22.754   5.068
90551W        W62080  26.596  26.242  11.180
90552W        W62081  21.271  31.859  14.050
90553W        W62082  20.540  32.348  12.597
90554W        W62083  30.837   7.437  13.422
90555W        W62084  12.740  12.205  11.127
90556W        W62085  10.378   9.219  10.643
90557W        W62086  25.003  27.157   0.486
90558W        W62087   2.676  13.688  12.105
90559W        W62088   9.624  21.974  14.688
90560W        W62089  18.673  33.457  11.543
90561W        W62090  11.139  40.419  14.344
90562W        W62091  37.334   8.305  11.005
90563W        W62092  43.652   8.926   1.899
90564W        W62093  32.849  24.214  11.951
90565W        W62094  10.669  38.506   0.398
90566W        W62095  38.806  18.646   2.383
90567W        W62096   6.138  40.048   3.202
90568W        W62097  33.444   6.649  12.968
90569W        W62098   2.729  12.818   0.331
90570W        W62099  14.494  29.222  10.973
90571W        W62100  32.964   8.219   4.163
90572W        W62101  25.682  21.008  10.285
90573W        W62102  37.318   7.676  13.411
90574W        W62103  30.593  42.864   0.409
90575W        W62104  38.404  18.742  12.083
90576W        W62105  11.566   2.932  13.973
90577W        W62106   7.789  39.387  11.610
90578W        W62107  31.376   5.506  13.827
90579W        W62108  44.688   7.910   0.745
90580W        W62109  44.153  31.955   1.488
90581W        W62110  28.842  10.917  12.995
90582W        W62111  38.913  23.660  14.871
90583W        W62112  14.283  29.966   4.646
90584W        W62113  14.848  22.795  13.922
90585W        W62114  39.431  27.179  12.493
90586W        W62115   5.227  33.409   3.725
90587W        W62116   2.332  26.177   4.699
90588W        W62117  32.836  41.611  11.580
90589W        W62118  11.602  34.602  14.720
90590W        W62119  24.130  12.646  14.036
90591W        W62120  18.552   5.884  12.630
90592W        W62121  11.127  15.824  14.293
90593W        W62122  43.465  25.729  14.831
90594W        W62123  40.505   0.280  13.467
90595W        W62124  22.750   0.085  11.100
90596W        W62125  14.132  27.174  12.173
90597W        W62126  15.113  17.058  13.482
90598W        W62127   6.417  35.966   0.845
90599W        W62128  22.736   7.080  14.399
90600W        W62129  43.811  17.469  14.003
90601W        W62130  34.436  30.388   2.208
90602W        W62131   1.350  13.189  13.018
90603W        W62132  41.726  39.659  13.877
90604W        W62133   4.773  21.166   4.478
90605W        W62134  28.612  17.673   4.538
90606W        W62135  17.625   9.875  10.876
90607W        W62136  23.126  25.006   2.107
90608W        W62137  41.241  29.577   3.646
90609W        W62138  35.870  32.106   1.354
90610W        W62139  43.896  22.233  13.784
90611W        W62140  34.385  11.220   2.281
90612W        W62141  42.726  14.802  11.153
90613W        W62142  31.577  20.303  10.557
90614W        W62143   6.291   9.560   4.681
90615W        W62144  17.516  16.159   4.625
90616W        W62145  21.024  30.341   1.198
90617W        W62146   0.890  12.811   3.915
90618W        W62147  33.876  32.471   0.674
90619W        W62148  30.206  31.576   4.682
90620W        W62149  26.558  19.002  12.189
90621W        W62150  30.664  20.837   0.712
90622W        W62151   5.813  43.432   0.973
90623W        W62152  29.148   6.255   4.567
90624W        W62153  32.385   7.700   3.734
90625W        W62154   2.767  19.847  12.982
90626W        W62155  19.358  26.602  10.645
90627W        W62156  42.026  30.540  11.612
90628W        W62157   0.920  29.395  13.468
90629W        W62158   7.676  40.250   4.082
90630W        W62159  33.566  38.416   4.614
90631W        W62160  12.684  18.694  11.444
90632W        W62161  31.128  10.645   4.654
90633W        W62162  23.767  21.511   3.434
90634W        W62163  10.185  33.559  13.635
90635W        W62164  14.089  30.426  13.137
90636W        W62165  32.805  25.518   3.228
90637W        W62166  24.589  31.710  14.991
90638W        W62167  37.113  30.772  11.133
90639W        W62168  36.891  29.613  12.930
90640W        W62169  30.511  12.218  11.539
90641W        W62170  32.488  14.502  13.825
90642W        W62171  21.135   3.339   2.637
90643W        W62172  19.791  38.077  11.897
90644W        W62173  28.967  32.113  13.875
90645W        W62174  33.333  42.869  11.453
90646W        W62175  14.609  41.478  13.398
90647W        W62176  26.728  12.772   1.410
90648W        W62177  23.632  29.187  11.123
90649W        W62178  22.272  14.238   3.150
90650W        W62179  41.436  23.437  11.577
90651W        W62180  42.010  18.797   3.680
90652W        W62181  27.522  29.424  13.968
90653W        W62182  38.761   4.940  13.933
90654W        W62183  14.121  14.166   0.941
90655W        W62184  17.690  14.281   1.167
90656W        W62185  18.808  27.006  11.473
90657W        W62186  19.792  28.357  11.596
90658W        W62187   7.271   2.935  14.948
90659W        W62188  12.614  40.254   0.503
90660W        W62189  15.047   7.873   3.457
90661W        W62190  32.870  41.221   2.708
90662W        W62191  13.439  17.691   2.552
90663W        W62192   2.964   5.160  11.399
90664W        W62193  33.461   0.710  10.200
90665W        W62194  35.606   7.211   0.423
90666W        W62195   7.720  44.255  11.574
90667W        W62196   2.505   7.306   9.830
90668W        W62197  16.929  23.941   4.459
90669W        W62198  37.534  27.811  12.132
90670W        W62199  17.307  29.265   2.410
90671W        W62200  16.689  21.054  12.855
90672W        W62201   2.980   2.934  13.160
90673W        W62202  22.242  23.420   4.400
90674W        W62203   1.034  39.325   0.460
90675W        W62204  14.698  25.988  12.859
90676W        W62205  14.224   9.387  14.352
90677W        W62206  24.470  30.123  13.089
90678W        W62207  25.035  24.286   4.051
90679W        W62208   3.827  43.680   1.226
90680W        W62209   7.947  33.635   1.345
90681W        W62210  28.003   3.215   4.047
90682W        W62211  12.908   0.800  14.888
90683W        W62212  17.592  41.896  14.887
90684W        W62213  33.996   8.197  13.554
90685W        W62214  19.215  42.456   1.630
90686W        W62215  32.360  44.420  13.560
90687W        W62216  20.931  27.664   0.590
90688W        W62217  36.826  40.517   3.405
90689W        W62218  41.743  18.602   4.073
90690W        W62219  33.640   6.740   1.762
90691W        W62220   4.463  42.394   2.410
90692W        W62221   8.190  16.159   3.866
90693W        W62222  21.503   9.751  12.440
90694W        W62223   0.342  12.227  12.930
90695W        W62224  26.768  42.868   0.964
90696W        W62225  31.986  25.236   1.319
90697W        W62226  26.163  40.514  11.662
90698W        W62227   6.715  23.591  12.448
90699W        W62228   4.682  17.122  13.554
90700W        W62229  15.143  41.442   3.219
90701W        W62230   6.671  19.768   1.455
90702W        W62231  11.839   6.252  10.105
90703W        W62232  14.704  37.827  11.103
90704W        W62233  28.363   3.742  14.969
90705W        W62234  42.523  14.850   4.784
90706W        W62235  28.356  25.066   3.551
90707W        W62236  19.246  37.531  12.183
90708W        W62237   6.869  37.961  10.600
90709W        W62238  43.194   5.909  13.928
90710W        W62239  33.953  31.541   4.300
90711W        W62240  19.646  27.479  13.557
90712W        W62241  33.972   8.425  14.908
90713W        W62242  10.605  29.016   1.900
90714W        W62243  27.921   5.141   2.727
90715W        W62244  30.461  33.286   0.227
90716W        W62245   5.363  21.286   1.377
90717W        W62246  18.366  43.497   2.045
90718W        W62247  24.512  20.552   0.814
90719W        W62248  19.013  17.312  11.480
90720W        W62249   5.648  34.866  13.063
90721W        W62250  26.563  22.800  10.786
90722W        W62251  22.341  25.243   2.327
90723W        W62252  10.768  12.314   1.731
90724W        W62253  32.929   1.317  10.714
90725W        W62254   0.973   2.185  14.730
90726W        W62255  13.926  35.165  12.110
90727W        W62256   3.859  34.363  13.282
90728W        W62257   4.916  31.622  13.893
90729W        W62258  21.167  41.986  14.426
90730W        W62259  13.037  26.129  11.931
90731W        W62260  19.460  17.608  13.616
90732W        W62261  28.392  38.519  11.702
90733W        W62262  38.285  40.940  14.423
90734W        W62263   3.741  11.709   2.104
90735W        W62264  30.609  15.300   1.392
90736W        W62265  39.635  29.988  12.533
90737W        W62266  12.215  38.229   3.657
90738W        W62267   9.409  44.932  12.888
90739W        W62268  42.251  37.778   0.843
90740W        W62269  23.323  33.798  10.798
90741W        W62270  16.853  27.180   0.731
90742W        W62271  31.482  36.275   0.391
90743W        W62272   7.785  25.522   0.264
90744W        W62273  41.256  23.685   4.276
90745W        W62274  15.158  31.616  12.996
90746W        W62275  19.839  24.063  12.417
90747W        W62276  26.560   4.737  14.863
90748W        W62277  44.825  37.523   3.666
90749W        W62278  12.035   4.809   2.373
90750W        W62279  11.572  11.166   3.228
90751W        W62280  12.761  30.993  11.698
90752W        W62281  31.884   5.630   4.643
90753W        W62282  22.535  20.692  14.954
90754W        W62283  44.720  10.729  10.407
90755W        W62284   7.212   2.684  13.563
90756W        W62285  13.622  19.030   2.423
90757W        W62286  15.533  33.388   5.255
90758W        W62287   6.389  36.836   2.392
90759W        W62288  22.719  17.686  11.504
90760W        W62289  31.548  26.015  12.979
90761W        W62290  38.786  11.975  12.526
90762W        W62291  26.180  28.130   3.124
90763W        W62292  17.871  27.067   0.501
90764W        W62293  37.960  33.926  12.533
90765W        W62294  35.068   7.746  11.653
90766W        W62295  26.487   8.188   1.972
90767W        W62296  24.311  44.542  11.411
90768W        W62297  18.571   3.984  12.066
90769W        W62298  20.375  25.076   0.795
90770W        W62299   2.795  31.142   2.095
90771W        W62300  31.004  33.371  11.465
90772W        W62301   6.373  30.116   3.334
90773W        W62302  41.254  33.347   0.287
90774W        W62303  30.234   7.242  13.696
90775W        W62304   0.517   3.350  12.067
90776W        W62305  32.412  41.585  13.042
90777W        W62306  17.483  33.625  14.918
90778W        W62307  18.563   8.686   1.275
90779W        W62308  10.759  15.600  11.115
90780W        W62309  13.627  21.552  10.514
90781W        W62310  25.904  12.686  12.859
90782W        W62311  40.835   6.085  13.079
90783W        W62312  44.051  28.717   4.064
90784W        W62313  18.306  32.144   4.551
90785W        W62314  32.958  25.219   2.161
90786W        W62315  18.349  30.091  11.649
90787W        W62316  25.713  32.745  11.887
90788W        W62317  26.025  23.298  13.215
90789W        W62318   7.733  38.990   3.114
90790W        W62319  16.065  15.222  13.424
90791W        W62320  34.331  42.831   1.808
90792W        W62321  35.474  18.041  13.248
90793W        W62322  19.154  42.759  10.696
90794W        W62323  36.559  30.724  12.181
90795W        W62324  13.236  26.258   4.373
90796W        W62325   4.836   4.974   4.028
90797W        W62326  16.920   6.866   1.029
90798W        W62327  25.548   0.372  11.997
90799W        W62328  44.280   9.260   1.175
90800W        W62329  12.570  20.834   1.359
90801W        W62330  30.425  39.291   0.309
90802W        W62331   8.091   3.717  14.380
90803W        W62332   3.969  43.864   4.222
90804W        W62333  38.831  11.671  10.358
90805W        W62334  25.058   9.727  12.523
90806W        W62335  10.004   8.798  12.896
90807W        W62336  20.188  42.375   3.553
90808W        W62337  43.168  30.930   3.692
90809W        W62338  28.990   7.828  13.471
90810W        W62339  17.009  40.520  12.616
90811W        W62340  22.820  36.834  12.464
90812W        W62341  27.412   3.070  11.608
90813W        W62342   4.166  34.099   1.667
90814W        W62343  41.845  29.491   0.305
90815W        W62344  33.897  23.561   0.916
90816W        W62345  44.849  39.847  14.414
90817W        W62346  36.520  44.571  13.711
90818W        W62347  32.959  29.410  10.631
90819W        W62348  41.501   5.778   2.674
90820W        W62349  30.103   3.845  11.306
90821W        W62350  14.496  43.918   2.888
90822W        W62351  35.958  11.584   4.415
90823W        W62352  26.257   7.336   0.922
90824W        W62353   8.627  20.774   2.639
90825W        W62354  16.102   5.836  10.450
90826W        W62355  21.312   9.478   0.384
90827W        W62356  20.723   7.657   1.877
90828W        W62357  32.457   7.536  13.047
90829W        W62358  38.927   4.008  10.644
90830W        W62359  27.591  28.986   1.646
90831W        W62360  42.931  37.677  10.047
90832W        W62361  26.970  20.637   3.688
90833W        W62362  27.214  20.717  13.504
90834W        W62363   2.785  39.139  14.005
90835W        W62364  17.421  11.189  10.679
90836W        W62365  35.728   4.984   2.898
90837W        W62366  31.626  22.606  13.962
90838W        W62367  36.007  18.011   0.503
90839W        W62368  15.148  35.699  13.046
90840W        W62369  22.292   9.757  12.904
90841W        W62370  19.716  30.323  11.176
90842W        W62371  25.589  22.694  13.015
90843W        W62372  25.692  43.925   1.253
90844W        W62373  41.571  21.639   0.779
90845W        W62374  23.948  31.577  11.480
90846W        W62375  29.127  38.803  11.004
90847W        W62376  39.832  33.132  11.815
90848W        W62377  18.168  33.265   1.925
90849W        W62378   8.265  15.457   0.323
90850W        W62379  17.036  11.563  10.620
90851W        W62380  16.116  40.450  14.219
90852W        W62381   8.769   4.726   3.685
90853W        W62382  39.892  33.490   4.353
90854W        W62383  40.809  26.172  14.434
90855W        W62384  17.704  32.147  10.277
90856W        W62385  37.183  21.848  13.881
90857W        W62386  33.224   5.784  12.186
90858W        W62387  39.837  40.791  11.169
90859W        W62388  44.094  37.151  11.062
90860W        W62389  26.187  17.030   0.284
90861W        W62390  38.706  19.354  10.636
90862W        W62391  39.461  39.045   2.866
90863W        W62392  20.007  43.895   3.718
90864W        W62393  23.226  43.910   3.230
90865W        W62394  28.544  31.210  11.864
90866W        W62395  43.513  33.211  11.830
90867W        W62396  26.788  43.982   3.232
90868W        W62397  35.002  10.773  11.927
90869W        W62398  40.805  17.507  11.039
90870W        W62399  35.999   0.753   3.166
90871W        W62400  18.356  32.683  14.395
90872W        W62401  22.559  15.799  13.337
90873W        W62402  30.440  11.295   3.603
90874W        W62403   2.816  10.663   2.372
90875W        W62404   9.472  17.659  10.335
90876W        W62405  42.528  44.000   0.345
90877W        W62406  44.424  31.520   1.314
90878W        W62407  35.862  15.824   2.004
90879W        W62408  39.848  16.188  13.965
90880W        W62409  12.026  11.335   4.073
90881W        W62410  16.546  14.178   0.246
90882W        W62411  20.987  32.634  12.576
90883W        W62412  19.734  17.009  11.007
90884W        W62413  36.435  35.160  13.044
90885W        W62414   7.055   8.960  12.315
90886W        W62415  10.276  19.420  13.346
90887W        W62416  23.487  41.808  12.582
90888W        W62417  32.970  34.098   2.501
90889W        W62418  22.268  32.095  10.644
90890W        W62419   5.781  30.127   2.251
90891W        W62420   1.072  23.669  14.323
90892W        W62421  24.253  35.475   1.180
90893W        W62422   3.701   6.454   4.747
90894W        W62423   6.841  24.949   0.909
90895W        W62424  35.901  34.743   0.742
90896W        W62425  20.448  35.758  14.984
90897W        W62426  14.826  29.864  11.535
90898W        W62427  14.263  16.742   3.651
90899W        W62428  28.895  15.795   0.446
90900W        W62429  44.406   7.936  12.521
90901W        W62430  37.148  23.842  11.192
90902W        W62431  35.135  15.613   0.331
90903W        W62432   4.669  39.444  11.139
90904W        W62433  41.785  13.818   2.815
90905W        W62434  38.954  22.872   4.087
90906W        W62435  27.930   2.756   2.422
90907W        W62436  35.374  36.759   2.642
90908W        W62437  36.497   0.166  11.369
90909W        W62438  12.530  23.489  12.136
90910W        W62439  26.047  16.298   0.816
90911W        W62440  29.872  30.588  13.035
90912W        W62441  28.390  23.726  13.021
90913W        W62442  43.940   3.503  10.231
90914W        W62443  41.860   6.151   3.621
90915W        W62444   2.269  41.999  10.847
90916W        W62445  11.836  30.969   0.774
90917W        W62446  26.701  37.867  10.760
90918W        W62447  14.291  32.900   1.341
90919W        W62448  36.231  42.257  11.693
90920W        W62449   0.816  36.083  10.231
90921W        W62450  41.013  35.201  13.826
90922W        W62451   9.385   8.715  13.783
90923W        W62452  31.648  14.280   1.489
90924W        W62453   8.816   0.704  12.083
90925W        W62454   3.257  34.611   3.095
90926W        W62455  42.279  42.971   1.968
90927W        W62456   7.265  13.018  14.500
90928W        W62457  20.237  31.054  12.877
90929W        W62458  10.914  34.883  14.132
90930W        W62459  16.604  36.161  12.984
90931W        W62460  42.994  40.762  14.339
90932W        W62461  17.993  25.044  12.051
90933W        W62462  27.205  23.422  10.790
90934W        W62463  20.046  16.731  10.699
90935W        W62464  38.075  15.264  12.803
90936W        W62465  41.539  34.989  12.999
90937W        W62466  44.216  39.922  10.697
90938W        W62467  12.731   1.772   2.726
90939W        W62468  25.489  16.775   0.318
90940W        W62469  42.229  43.014   1.450
90941W        W62470  13.634  43.021  11.186
90942W        W62471  18.054   8.896   1.284
90943W        W62472  16.280  24.610  10.733
90944W        W62473   1.635  24.744   4.145
90945W        W62474  35.449   4.312   1.168
90946W        W62475  13.114  25.291   1.428
90947W        W62476  17.785  18.906  12.357
90948W        W62477  11.797  15.894  12.568
90949W        W62478  32.413  43.836  10.585
90950W        W62479  39.618  39.976   4.574
90951W        W62480  17.580  32.430   1.693
90952W        W62481  16.236   8.773  11.143
90953W        W62482  36.979  15.272  11.132
90954W        W62483  27.041   4.680   3.872
90955W        W62484  32.662  35.562   3.808
90956W        W62485  34.091  42.861   0.749
90957W        W62486  16.969  17.254  12.472
90958W        W62487  11.913  13.195  10.812
90959W        W62488  15.560  15.181   4.097
90960W        W62489  35.312  15.069  12.578
90961W        W62490  37.349  25.691  13.657
90962W        W62491  14.272  33.928  10.998
90963W        W62492  34.164  43.522  13.753
90964W        W62493  37.059   4.786  12.974
90965W        W62494  32.381   4.307  12.525
90966W        W62495  42.748  41.579   3.076
90967W        W62496  13.521  43.792   3.779
90968W        W62497  32.203  19.791  14.172
90969W        W62498  12.058  44.229  10.075
90970W        W62499   5.403   2.694   1.348
90971W        W62500  13.232  30.654   3.441
90972W        W62501   4.991  11.131   3.202
90973W        W62502   2.655  12.434   2.683
90974W        W62503  27.730  32.509   5.016
90975W        W62504  19.127  15.531   3.691
90976W        W62505  29.806  25.228  12.088
90977W        W62506   9.610  16.864  13.888
90978W        W62507  42.508  14.696   3.740
90979W        W62508  15.111   6.758   1.123
90980W        W62509  24.603  13.239   0.764
90981W        W62510  17.304  27.419   3.096
90982W        W62511   7.299  32.506   2.103
90983W        W62512  10.208  26.831   3.757
90984W        W62513  24.178  31.011   2.719
90985W        W62514  43.896  35.405  14.912
90986W        W62515  10.212  21.361   0.161
90987W        W62516   2.789   4.478  13.506
90988W        W62517  14.729  30.608   0.352
90989W        W62518  11.362  27.445   1.286
90990W        W62519  37.479  42.472  12.510
90991W        W62520  16.184  12.877   2.726
90992W        W62521  22.583  33.763   2.797
90993W        W62522   8.197  12.174   4.570
90994W        W62523  22.118  28.659   2.391
90995W        W62524  20.925  43.762  11.166
90996W        W62525   2.102  13.752   0.763
90997W        W62526  29.191   6.075  12.538
90998W        W62527  24.921  29.961   2.115
90999W        W62528  12.973  38.835   4.941
91000W        W62529  11.892  33.819   2.303
91001W        W62530  19.023   6.203  13.483
91002W        W62531  28.512  15.915   1.847
91003W        W62532  38.646  16.793  14.828
91004W        W62533  39.464  34.959  12.243
91005W        W62534  21.039  41.468   3.920
91006W        W62535   1.512  30.197  13.556
91007W        W62536  30.510  28.614   4.218
91008W        W62537  33.114   9.592   4.952
91009W        W62538  15.011  10.680   1.404
91010W        W62539  26.996  25.526   3.834
91011W        W62540   9.786  10.206   4.672
91012W        W62541  22.549  36.518   3.305
91013W        W62542  30.870  13.294   2.801
91014W        W62543  25.356   4.429  14.816
91015W        W62544  11.168   1.989  10.269
91016W        W62545  24.809  11.701   4.896
91017W        W62546  17.628  14.301   2.937
91018W        W62547  17.773  38.976  12.776
91019W        W62548  10.340   8.649  14.194
91020W        W62549  12.549  24.014   4.534
91021W        W62550  27.551  14.971   4.086
91022W        W62551  15.790  19.233  12.855
91023W        W62552   3.450  14.926  11.544
91024W        W62553  10.922   3.620   0.344
91025W        W62554  39.403   1.361   0.516
91026W        W62555  27.925  18.250   0.320
91027W        W62556  28.877   7.944  12.972
91028W        W62557  37.008  29.588   1.764
91029W        W62558  27.605   2.375  13.806
91030W        W62559  19.323   5.769  13.530
91031W        W62560  42.554  15.133  12.047
91032W        W62561  37.024   6.108   2.227
91033W        W62562   0.743   0.966  14.385
91034W        W62563  16.693   2.438  13.129
91035W        W62564  10.767  34.552   2.823
91036W        W62565  41.046   2.972  10.550
91037W        W62566  44.327  12.883  11.997
91038W        W62567  31.074   8.865  14.710
91039W        W62568  13.477  27.270   3.001
91040W        W62569  28.950  27.692  10.408
91041W        W62570   8.804  19.803  11.747
91042W        W62571  35.860   7.202  10.694
91043W        W62572  13.566   7.317   1.220
91044W        W62573   1.506  12.056  10.747
91045W        W62574  25.646  28.143   2.621
91046W        W62575  33.167  11.429  13.027
91047W        W62576   5.816  29.925  13.626
91048W        W62577  31.422  12.285  12.444
91049W        W62578  30.272  35.301   0.369
91050W        W62579  20.569  28.115  12.135
91051W        W62580   6.717  16.613   1.942
91052W        W62581  43.553   7.640   3.607
91053W        W62582  15.399   3.445  14.538
91054W        W62583  14.599   8.720  13.106
91055W        W62584  25.000  21.673   4.577
91056W        W62585  25.167  35.124   2.277
91057W        W62586  33.450  27.568   4.493
91058W        W62587  11.473  10.188   4.678
91059W        W62588  14.675   1.481  13.951
91060W        W62589  35.046  33.840  14.438
91061W        W62590   0.353   4.376  14.971
91062W        W62591  37.432  32.126   1.174
91063W        W62592  25.617  19.139  10.934
91064W        W62593  37.453  20.647   4.669
91065W        W62594   4.712  44.506  11.705
91066W        W62595  44.271  10.888  12.581
91067W        W62596   1.407   8.210  11.156
91068W        W62597  35.149  31.398   3.648
91069W        W62598  37.331  44.367   0.692
91070W        W62599  44.205  10.723  11.113
91071W        W62600  43.410  39.611   2.564
91072W        W62601  26.525  35.011  14.905
91073W        W62602  34.281  35.075  12.940
91074W        W62603   0.202   1.424   1.360
91075W        W62604   7.871  25.171  14.883
91076W        W62605  13.367  13.542  12.803
91077W        W62606  34.971  25.036  10.650
91078W        W62607  22.660  26.144   3.640
91079W        W62608  37.500   0.337   4.104
91080W        W62609   2.617  35.754  11.422
91081W        W62610  42.001   4.357   2.188
91082W        W62611  30.563  44.623   1.359
91083W        W62612  27.285  28.178  13.515
91084W        W62613  37.787   7.649  12.021
91085W        W62614   9.206  34.081   0.428
91086W        W62615  31.569   8.836   2.768
91087W        W62616  36.462  33.475   1.510
91088W        W62617  42.478  23.208   1.823
91089W        W62618  15.683  26.363  11.249
91090W        W62619  43.606   7.085  13.086
91091W        W62620  43.275  10.598   3.394
91092W        W62621   5.371  25.989  13.880
91093W        W62622   8.845  39.969  13.428
91094W        W62623  40.821  18.301  13.788
91095W        W62624  31.423  14.798   3.772
91096W        W62625  39.975  18.268   2.648
91097W        W62626   9.401  38.365   0.772
91098W        W62627   1.561  15.896  10.194
91099W        W62628  29.553   4.550  11.691
91100W        W62629   6.093  41.576   4.069
91101W        W62630  37.042  37.540   4.505
91102W        W62631  27.625  42.949  12.606
91103W        W62632   0.267  27.801  12.581
91104W        W62633  32.535   1.833   0.980
91105W        W62634  37.439  30.012   3.317
91106W        W62635  32.584  15.138   4.357
91107W        W62636   9.888  15.886  11.584
91108W        W62637  29.564  22.393  11.087
91109W        W62638  30.080  14.290   0.803
91110W        W62639  40.089  37.689   1.841
91111W        W62640  44.018  39.586   1.892
91112W        W62641  10.915  21.705   0.829
91113W        W62642   9.547  43.695   0.294
91114W        W62643  13.887  31.795  11.068
91115W        W62644   5.836   7.740  11.208
91116W        W62645  30.207  28.138  12.406
91117W        W62646   1.216  41.022   3.096
91118W        W62647  34.950   4.725  12.007
91119W        W62648  32.536  27.536  11.039
91120W        W62649   2.284  26.692  13.479
91121W        W62650  29.181   1.476   4.831
91122W        W62651  41.552  11.389  11.588
91123W        W62652  18.869  12.182  10.721
91124W        W62653  37.593  12.670   0.383
91125W        W62654  29.592  11.422   3.326
91126W        W62655   5.522  35.434  10.731
91127W        W62656  43.336  40.478   0.370
91128W        W62657  11.844  31.951  12.027
91129W        W62658  31.117  25.998   0.948
91130W        W62659  43.554   0.037  13.928
91131W        W62660   5.862  21.965  12.408
91132W        W62661  34.458  29.416  12.094
91133W        W62662   7.426  19.350   1.562
91134W        W62663  42.028  24.600  11.407
91135W        W62664  39.537  42.566   0.929
91136W        W62665  44.436  29.357   2.837
91137W        W62666  20.192  21.180  14.670
91138W        W62667  12.587  33.778   3.872
91139W        W62668  15.254  17.187   3.355
91140W        W62669  28.048   1.792   2.356
91141W        W62670  23.109  28.540  11.403
91142W        W62671  12.839  34.129   2.160
91143W        W62672  36.951  21.807  12.105
91144W        W62673   2.685   0.321   1.692
91145W        W62674  44.254  42.809  10.181
91146W        W62675  36.152   8.164  14.754
91147W        W62676   4.987  11.028  13.953
91148W        W62677  12.737  17.056   3.559
91149W        W62678   4.827  13.203  14.699
91150W        W62679  31.668  14.729  14.755
91151W        W62680  23.537  34.519   3.358
91152W        W62681  37.809  10.435  11.421
91153W        W62682  11.850   9.346   0.410
91154W        W62683  43.813  38.165  10.922
91155W        W62684  21.363  19.719  14.987
91156W        W62685  19.771   2.707  14.706
91157W        W62686   1.545  28.963  12.977
91158W        W62687  37.543  29.278   2.618
91159W        W62688  19.284   6.403  13.902
91160W        W62689   8.677   7.427   1.309
91161W        W62690   3.278  38.097   3.300
91162W        W62691  44.515  22.044   1.465
91163W        W62692  22.601  26.259   3.113
91164W        W62693  19.716  32.139  10.726
91165W        W62694  35.581  28.415  13.501
91166W        W62695  40.475   2.402  12.490
91167W        W62696  30.961   4.412  12.310
91168W        W62697  42.250  25.665   0.392
91169W        W62698   2.431   4.895  12.768
91170W        W62699  31.059  22.012   4.586
91171W        W62700  14.758  28.202   0.746
91172W        W62701  27.805  15.151   2.719
91173W        W62702  17.338  10.532   4.609
91174W        W62703  36.518  31.163   2.338
91175W        W62704  36.069  29.927  14.011
91176W        W62705  16.911  22.244  13.492
91177W        W62706   3.351   6.811  11.527
91178W        W62707  37.000  20.861  13.897
91179W        W62708  24.197  11.378  12.492
91180W        W62709  37.509   3.789  11.902
91181W        W62710  44.283  25.631   1.427
91182W        W62711  28.507   7.746  11.061
91183W        W62712  10.362  15.675   1.400
91184W        W62713   2.883   4.059  14.377
91185W        W62714  23.465  24.477   3.364
91186W        W62715  34.369  27.197  14.425
91187W        W62716  42.544  36.104  10.940
91188W        W62717   2.782  38.662   3.694
91189W        W62718  16.040  27.871   3.993
91190W        W62719  31.357  20.094  14.376
91191W        W62720  42.408   8.169  10.663
91192W        W62721  13.283  36.921  14.719
91193W        W62722  26.570  25.670   4.565
91194W        W62723  16.064  42.829  14.802
91195W        W62724  19.895  33.168  12.877
91196W        W62725  41.763  24.504   3.065
91197W        W62726  39.495  23.446   2.811
91198W        W62727  19.695  28.919   0.810
91199W        W62728  38.639   1.831   1.027
91200W        W62729  29.684  15.300  14.076
91201W        W62730   4.192  41.136   1.339
91202W        W62731  20.962  39.228   1.487
91203W        W62732  37.502  20.660  13.864
91204W        W62733  38.955   6.238  11.173
91205W        W62734  40.052  33.712   2.894
91206W        W62735  10.170  30.045  12.021
91207W        W62736  42.772  25.156  11.440
91208W        W62737   3.120  36.836   3.832
91209W        W62738   4.002  31.691  14.074
91210W        W62739  22.572  41.038   4.895
91211W        W62740  14.095  34.627  12.829
91212W        W62741  18.618   5.596   4.520
91213W        W62742   3.827   4.250   1.286
91214W        W62743   9.836  42.550   1.240
91215W        W62744  17.677  43.460   3.388
91216W        W62745  31.054  37.127   1.227
91217W        W62746   7.086  22.719   4.427
91218W        W62747   1.853  32.386  11.619
91219W        W62748  12.062  14.784  12.908
91220W        W62749  43.215  25.643   4.263
91221W        W62750   3.752  38.890   2.504
91222W        W62751   7.035   8.776   0.155
91223W        W62752  40.571  38.253  12.680
91224W        W62753  32.606  44.278   3.251
91225W        W62754  32.148   3.415  13.815
91226W        W62755   5.609  22.214   2.694
91227W        W62756  39.946  18.006   3.126
91228W        W62757  27.936  17.043  12.203
91229W        W62758  12.824  28.499   4.705
91230W        W62759  25.207  30.535   3.320
91231W        W62760   1.922   4.932  12.910
91232W        W62761  10.258  11.201  12.432
91233W        W62762  27.585   0.520   2.255
91234W        W62763  19.182   4.612  14.741
91235W        W62764   9.280  23.066  13.552
91236W        W62765  24.055  16.520   3.217
91237W        W62766  40.560  34.190   1.639
91238W        W62767  22.220  24.892   1.226
91239W        W62768  31.266  19.974   3.788
91240W        W62769   0.395   1.225   4.409
91241W        W62770  40.256  41.302   1.741
91242W        W62771   0.786  19.509   4.581
91243W        W62772  31.988  10.411  10.360
91244W        W62773  38.030  13.325   4.175
91245W        W62774  22.052   2.185   2.222
91246W        W62775  17.374  14.590  13.526
91247W        W62776  40.315  21.923   4.683
91248W        W62777  13.198  17.846  11.171
91249W        W62778  28.136  23.947   2.595
91250W        W62779  19.735   6.925  11.626
91251W        W62780  23.750  36.810  11.644
91252W        W62781  39.601  20.129  14.318
91253W        W62782   8.631  24.973  14.498
91254W        W62783  14.630   3.626   1.764
91255W        W62784   0.499   8.277   1.819
91256W        W62785  31.197   7.954  12.289
91257W        W62786   1.123  38.899  12.307
91258W        W62787  25.161   0.230  13.744
91259W        W62788  43.436   3.447   3.232
91260W        W62789  26.691   8.355   0.491
91261W        W62790  26.966  13.786  13.738
91262W        W62791   4.090   7.804  13.240
91263W        W62792   6.582  43.842   1.115
91264W        W62793   5.243   1.391   4.403
91265W        W62794  15.761  23.998   3.206
91266W        W62795  15.786  36.617  11.007
91267W        W62796  42.791  22.901  13.950
91268W        W62797  18.405  31.036   9.669
91269W        W62798  11.561  19.704  14.424
91270W        W62799  19.788  26.026  14.322
91271W        W62800  32.066  28.694  13.352
91272W        W62801  28.254  13.113   4.619
91273W        W62802  35.368  27.805   0.048
91274W        W62803  26.596  31.368  14.586
91275W        W62804  44.453  27.139  14.454
91276W        W62805  11.936  14.673   1.328
91277W        W62806  34.665  25.166  14.283
91278W        W62807  34.041  25.965  11.142
91279W        W62808  39.390  43.010   1.841
91280W        W62809  37.369  30.644  14.961
91281W        W62810  39.310  17.712   1.364
91282W        W62811   0.292  30.741   4.501
91283W        W62812  32.665  36.477   3.660
91284W        W62813  27.237  30.983   2.769
91285W        W62814  24.344   2.765   4.795
91286W        W62815  34.707  21.185  12.682
91287W        W62816  19.735   3.788  13.127
91288W        W62817  38.466  24.702   1.710
91289W        W62818  18.441   6.764  11.077
91290W        W62819  37.061  18.363   1.728
91291W        W62820   5.351  20.977  12.495
91292W        W62821  27.961  31.929  11.577
91293W        W62822  12.773   6.275  12.828
91294W        W62823  18.365  32.076  14.977
91295W        W62824  12.459   9.784   2.409
91296W        W62825  37.145  24.989  11.952
91297W        W62826  11.072   3.262  13.606
91298W        W62827  22.192  15.838   2.771
91299W        W62828  42.695  20.901   1.764
91300W        W62829  44.573  32.027  14.820
91301W        W62830   5.303  35.375   0.304
91302W        W62831  38.838  21.132   3.427
91303W        W62832  39.324   1.695   0.103
91304W        W62833  26.562  15.543   2.729
91305W        W62834  32.488  20.420   3.926
91306W        W62835  41.430   3.647   5.122
91307W        W62836   7.553  16.655   0.933
91308W        W62837  39.911   2.201   4.558
91309W        W62838  41.487  27.020   2.234
91310W        W62839  10.010   4.206  11.715
91311W        W62840  13.089   7.887   2.296
91312W        W62841  16.742  22.001   1.181
91313W        W62842  21.681  23.315  14.986
91314W        W62843  35.958   0.727  13.879
91315W        W62844   3.776  15.306  11.775
91316W        W62845  32.513  19.296  13.367
91317W        W62846  42.070   0.394  10.381
91318W        W62847   7.765  27.560  13.513
91319W        W62848  32.863  11.685  13.452
91320W        W62849  34.148  10.209   4.152
91321W        W62850   6.598  25.090   2.265
91322W        W62851  34.112   3.358   2.719
91323W        W62852  36.629  23.837  14.940
91324W        W62853  43.492  43.655   0.424
91325W        W62854  37.563  38.405  11.255
91326W        W62855  38.173  42.941   5.091
91327W        W62856   7.281  30.194  14.467
91328W        W62857  24.998   3.038  11.923
91329W        W62858  24.881  24.084   1.671
91330W        W62859  13.080  29.050  13.942
91331W        W62860  22.604   8.393   0.349
91332W        W62861  18.537  10.745  11.225
91333W        W62862  19.177  26.578  12.925
91334W        W62863  28.129  41.007  11.480
91335W        W62864   1.484   4.915   1.418
91336W        W62865  21.785  44.989   4.422
91337W        W62866  12.601  27.087  12.089
91338W        W62867  10.213  15.551  14.562
91339W        W62868  28.556  23.091  14.858
91340W        W62869  37.915   4.394   0.970
91341W        W62870   2.182   0.670  11.986
91342W        W62871   0.632   0.450  12.330
91343W        W62872  41.376  26.056   2.222
91344W        W62873   9.775  33.074   0.135
91345W        W62874   5.097  12.782   4.603
91346W        W62875   1.461  16.690   0.032
91347W        W62876  26.410  18.267   3.670
91348W        W62877   3.620  35.587  13.890
91349W        W62878   2.392  20.871  11.683
91350W        W62879  36.985  30.618   2.776
91351W        W62880  20.523  33.877   1.938
91352W        W62881  37.585  44.745   4.084
91353W        W62882  34.112   7.168   3.310
91354W        W62883  26.499   8.650  13.367
91355W        W62884  18.459   7.640   4.017
91356W        W62885  10.657  44.472   0.820
91357W        W62886  38.573  15.182  10.976
91358W        W62887   0.954  28.147  12.936
91359W        W62888  34.938   9.550   2.959
91360W        W62889  34.960  43.490  14.772
91361W        W62890   4.974  44.754  14.528
91362W        W62891  29.888  36.288   4.182
91363W        W62892  44.720  26.645  13.405
91364W        W62893   5.849  26.106  11.266
91365W        W62894   2.524  37.895  13.979
91366W        W62895  12.130  28.929  11.990
91367W        W62896   5.986   0.344  12.915
91368W        W62897  38.086   2.475  11.519
91369W        W62898  16.336  18.217   4.602
91370W        W62899   5.276  15.685   2.690
91371W        W62900  16.753  36.148   0.284
91372W        W62901  10.760  29.616   3.781
91373W        W62902  20.111  31.073   1.463
91374W        W62903  22.693  15.780   2.160
91375W        W62904  11.228  36.028  10.882
91376W        W62905   1.622   2.717  11.736
91377W        W62906  30.535  32.745  13.507
91378W        W62907   3.829  42.469   1.763
91379W        W62908  32.432  10.169   3.281
91380W        W62909  44.026  37.877  10.547
91381W        W62910  36.777   1.307  14.276
91382W        W62911  15.315  28.924   3.655
91383W        W62912   1.973  31.851  11.564
91384W        W62913  18.111  16.692   1.866
91385W        W62914   2.696   0.332   2.664
91386W        W62915  33.913  21.608  11.537
91387W        W62916  19.883  31.093   4.813
91388W        W62917  35.809  14.180  13.307
91389W        W62918   4.442   1.133  12.029
91390W        W62919  27.887  13.731   3.315
91391W        W62920   8.754   4.308  14.692
91392W        W62921  39.815  39.543  12.957
91393W        W62922  18.141  33.032   4.406
91394W        W62923  23.786   1.232   4.232
91395W        W62924  34.871  25.972  10.450
91396W        W62925  19.172  15.632  12.574
91397W        W62926  42.087   8.159  14.959
91398W        W62927  42.925   6.096   2.729
91399W        W62928   2.170   3.697  12.400
91400W        W62929   4.282  41.660  11.479
91401W        W62930  35.109  35.520   0.393
91402W        W62931  32.838  33.892   1.766
91403W        W62932  27.949  43.929  13.446
91404W        W62933   1.945  28.110   1.114
91405W        W62934  16.864  24.199  11.526
91406W        W62935  15.685   2.317  13.320
91407W        W62936  24.569  13.676  10.670
91408W        W62937  17.485  13.117   3.343
91409W        W62938  29.421  14.314   1.173
91410W        W62939  14.548  28.961   4.272
91411W        W62940   5.313  30.368  12.110
91412W        W62941   6.370  10.160   0.734
91413W        W62942  41.397   0.271   0.738
91414W        W62943  19.268  15.128  14.985
91415W        W62944  12.214  38.061   2.709
91416W        W62945  38.699  10.229  11.077
91417W        W62946  12.801   6.729   1.929
91418W        W62947  27.576  14.254   1.287
91419W        W62948   8.488  37.368   1.988
91420W        W62949  40.160  16.128   2.328
91421W        W62950  35.558  34.923   2.357
91422W        W62951  36.189   9.757  10.717
91423W        W62952  21.999   8.371  10.388
91424W        W62953  18.524  38.380   3.635
91425W        W62954  32.402  27.140  11.941
91426W        W62955   7.310  18.720  14.313
91427W        W62956   1.012  41.546   2.847
91428W        W62957  27.103  44.947   3.128
91429W        W62958  12.604  43.938  10.200
91430W        W62959  38.410   8.224   0.835
91431W        W62960  42.421  18.345  13.527
91432W        W62961  31.102   1.173  12.560
91433W        W62962  37.346  44.845   0.020
91434W        W62963  29.425   2.219  14.559
91435W        W62964  38.897  20.130  14.886
91436W        W62965  23.465  18.701  13.999
91437W        W62966  11.884   1.653   5.193
91438W        W62967  13.200  12.479  11.185
91439W        W62968   1.991  39.962   3.583
91440W        W62969  14.315   9.919   0.483
91441W        W62970  29.155   7.006  12.828
91442W        W62971   8.384  34.063   2.824
91443W        W62972   7.737  44.717  12.313
91444W        W62973  38.077   1.502  14.930
91445W        W62974   1.811  16.862  12.117
91446W        W62975   2.723  21.035   2.925
91447W        W62976  19.287  38.546   4.964
91448W        W62977  41.048   7.904  12.479
91449W        W62978  28.253  26.032   4.674
91450W        W62979  16.891  28.649  12.529
91451W        W62980   7.360  27.441  11.506
91452W        W62981  35.485  33.050  14.437
91453W        W62982   4.147  20.142  10.755
91454W        W62983  13.894  10.197  11.515
91455W        W62984  10.411  16.013  12.016
91456W        W62985  31.780  19.567   4.099
91457W        W62986  17.825   4.260  10.760
91458W        W62987  15.520  23.072  13.411
91459W        W62988  17.976   7.734  13.968
91460W        W62989  10.603  18.892   4.554
91461W        W62990   7.197  37.539  10.729
91462W        W62991  15.709  35.858   2.328
91463W        W62992  29.927  11.351  13.445
91464W        W62993  14.383  17.806   1.504
91465W        W62994  16.075   2.814  11.008
91466W        W62995   6.752  30.568  11.077
91467W        W62996  14.670  20.246   5.018
91468W        W62997   6.826  23.497  14.972
91469W        W62998  12.173  29.106   1.785
91470W        W62999  40.747  38.113   3.067
91471W        W63000  23.162  31.952  11.706
91472W        W63001   5.767   9.808  12.552
91473W        W63002   9.500  31.474  10.619
91474W        W63003  18.626  40.739  13.068
91475W        W63004  39.611  37.570   4.629
91476W        W63005  20.117   2.996   2.916
91477W        W63006  34.365   8.680   1.474
91478W        W63007  15.730  21.987   0.330
91479W        W63008  44.102  38.829   3.087
91480W        W63009  28.235  22.292   3.191
91481W        W63010  39.824   1.780   2.336
91482W        W63011  29.198  38.552  14.723
91483W        W63012   4.965  15.165   1.751
91484W        W63013  39.773  12.091  13.609
91485W        W63014   7.440  17.221  10.293
91486W        W63015  22.388  31.121  12.060
91487W        W63016  40.334   1.892   4.732
91488W        W63017  36.464  24.970   4.152
91489W        W63018   8.807  44.388   0.066
91490W        W63019  21.636  28.750   2.207
91491W        W63020  33.222  20.673  13.506
91492W        W63021  29.730  30.453   0.602
91493W        W63022  41.457  25.717  14.795
91494W        W63023  27.859  15.451  10.187
91495W        W63024  42.477  20.585   4.566
91496W        W63025  11.915  34.352   4.195
91497W        W63026  33.537  26.912  13.504
91498W        W63027   8.205  30.542   1.334
91499W        W63028   4.668   1.803   4.114
91500W        W63029  42.791  14.554  11.600
91501W        W63030  38.945  40.362  11.157
91502W        W63031  19.742  24.019   4.106
91503W        W63032  36.165  10.597  11.159
91504W        W63033   2.473  18.507   0.617
91505W        W63034  16.027  29.375   5.496
91506W        W63035  20.627  18.063  12.015
91507W        W63036  40.471  43.761  14.946
91508W        W63037  41.867   5.158   2.766
91509W        W63038  38.370   0.532  13.327
91510W        W63039  26.886  35.926   3.920
91511W        W63040  25.172  34.849   0.451
91512W        W63041  10.949  39.836   2.337
91513W        W63042  10.878   9.663   1.433
91514W        W63043  28.972  10.765   3.147
91515W        W63044   6.824  27.612   1.602
91516W        W63045  25.505   3.275   1.885
91517W        W63046  39.262  15.613  12.424
91518W        W63047  10.641   7.246   2.876
91519W        W63048   9.709  17.379  13.929
91520W        W63049  29.598  43.310  13.461
91521W        W63050  32.116   4.793  14.397
91522W        W63051  12.529  35.682  13.925
91523W        W63052  25.491  33.337   3.609
91524W        W63053  24.484  10.968  13.775
91525W        W63054  30.516  42.873   1.870
91526W        W63055  22.238  16.081  11.981
91527W        W63056  27.397   3.795   2.513
91528W        W63057  31.796   7.889  11.009
91529W        W63058  38.407  29.718  13.966
91530W        W63059  28.091   9.861   0.924
91531W        W63060  15.289  23.575   0.886
91532W        W63061  24.083  41.930   2.458
91533W        W63062  11.184  16.523  12.880
91534W        W63063  37.446  38.951   2.384
91535W        W63064  36.869  22.257  13.941
91536W        W63065  22.198   8.349  13.305
91537W        W63066  30.683  33.574   1.787
91538W        W63067  33.950  26.722   2.482
91539W        W63068  21.798   7.900  13.983
91540W        W63069  44.409  22.051   4.768
91541W        W63070  38.154  20.551   0.937
91542W        W63071  25.973   0.782  11.066
91543W        W63072  43.338  32.356   3.259
91544W        W63073  17.253   1.324  11.765
91545W        W63074   8.201   2.175   3.135
91546W        W63075   3.068  35.177   2.703
91547W        W63076  19.045  25.571  12.159
91548W        W63077  35.056   9.261  10.433
91549W        W63078  10.297  42.621  11.978
91550W        W63079  17.484  17.056  12.449
91551W        W63080  31.040  36.439   0.565
91552W        W63081  24.600   7.339   4.223
91553W        W63082   0.336  31.231  13.518
91554W        W63083   2.396  31.921  12.588
91555W        W63084  36.076  35.511  13.219
91556W        W63085  11.189   2.912  14.384
91557W        W63086  44.467  11.342  11.001
91558W        W63087  19.981  41.600   0.472
91559W        W63088  11.695  36.018  14.293
91560W        W63089  22.329   1.287   4.215
91561W        W63090  28.690  35.077  10.486
91562W        W63091   4.269  24.470   1.463
91563W        W63092   3.794   9.048  11.528
91564W        W63093  17.763   8.407  10.312
91565W        W63094  19.462   5.091   1.929
91566W        W63095  12.117  35.356   0.795
91567W        W63096  11.448  18.171  12.145
91568W        W63097   8.340  22.504   4.128
91569W        W63098   9.401  39.480   4.265
91570W        W63099   6.670  32.918   2.396
91571W        W63100  14.773   1.352  11.205
91572W        W63101  12.921  24.442  11.917
91573W        W63102  37.339  21.333  11.597
91574W        W63103  15.651  23.600  11.168
91575W        W63104  37.511  32.693   4.515
91576W        W63105  44.736  26.051  13.900
91577W        W63106  28.528  38.303   4.768
91578W        W63107  31.149  44.923   0.372
91579W        W63108  36.807  42.308   4.993
91580W        W63109  42.014  11.035   0.833
91581W        W63110  31.650  42.008  13.330
91582W        W63111  16.616  39.013   0.741
91583W        W63112   1.043  14.625   2.053
91584W        W63113   5.731  41.880   2.295
91585W        W63114  14.769  30.497   2.186
91586W        W63115   2.865   4.301   4.552
91587W        W63116  22.128  40.563   0.561
91588W        W63117  18.377   1.732   0.600
91589W        W63118  31.553  34.347  11.283
91590W        W63119  15.162  37.471  13.894
91591W        W63120  38.536   1.273   2.127
91592W        W63121   6.307  37.498   3.143
91593W        W63122   7.900  24.898   4.531
91594W        W63123   3.750  10.232   0.308
91595W        W63124  44.222  27.629   4.769
91596W        W63125   7.060  22.637  13.953
91597W        W63126   5.694   5.413   0.500
91598W        W63127  18.721  11.960  11.947
91599W        W63128   3.867   9.791  11.541
91600W        W63129   0.020   0.432  12.458
91601W        W63130   3.237  16.166   3.680
91602W        W63131  32.429  39.588  13.391
91603W        W63132  43.274  21.054   3.613
91604W        W63133   4.690  29.582   0.402
91605W        W63134  19.820  30.072   4.154
91606W        W63135   3.189   4.742  11.627
91607W        W63136   0.983   0.209  13.036
91608W        W63137   8.891  28.859  14.605
91609W        W63138   1.178  15.164  13.977
91610W        W63139  20.115  19.239  11.011
91611W        W63140  14.048  33.004  11.404
91612W        W63141  43.222  27.883  13.877
91613W        W63142   6.016   5.376   1.359
91614W        W63143  14.318  44.945  11.362
91615W        W63144  31.675   5.880   1.814
91616W        W63145  14.094  42.913   3.228
91617W        W63146  41.854   3.602   4.602
91618W        W63147  44.374  39.797   0.704
91619W        W63148  20.129  44.860  12.962
91620W        W63149  13.467  31.487  14.997
91621W        W63150   4.996  23.991   1.361
91622W        W63151  24.539  33.488  13.453
91623W        W63152  13.136  44.820  12.824
91624W        W63153  28.895  10.236   1.722
91625W        W63154   2.912  31.524   0.735
91626W        W63155  31.637  20.169  12.877
91627W        W63156  11.607   4.638  10.758
91628W        W63157  35.541  26.552  10.614
91629W        W63158  18.307  13.168  12.954
91630W        W63159   6.354  20.000   2.726
91631W        W63160  28.599  35.820  14.731
91632W        W63161  43.706  41.163  13.871
91633W        W63162  33.043  14.740  13.890
91634W        W63163   3.763  24.091   0.175
91635W        W63164  12.711   7.855   2.701
91636W        W63165  22.743  10.179   3.726
91637W        W63166  35.528  30.305   3.145
91638W        W63167   3.896  26.991   3.876
91639W        W63168  24.983  31.355  11.595
91640W        W63169  13.732  20.783   1.763
91641W        W63170  41.454  32.617   2.408
91642W        W63171  39.398   9.560  13.002
91643W        W63172  27.940  28.540   1.182
91644W        W63173  31.400  36.010  12.452
91645W        W63174  38.317  39.848  12.579
91646W        W63175  15.119  43.717  12.204
91647W        W63176  27.380  42.707   2.638
91648W        W63177  38.861   7.736   0.236
91649W        W63178   5.270  21.083  14.266
91650W        W63179  14.147  41.420   2.237
91651W        W63180  29.473   0.336  12.083
91652W        W63181  34.139   8.459   0.917
91653W        W63182  17.910  10.082  11.238
91654W        W63183  23.938  12.277   3.693
91655W        W63184  41.970  37.838   0.222
91656W        W63185  11.323  42.883  14.808
91657W        W63186  43.842  40.497   1.701
91658W        W63187   7.381  13.176   3.666
91659W        W63188  34.427   6.395  12.034
91660W        W63189  28.617   7.792  11.889
91661W        W63190  10.904  22.364   4.225
91662W        W63191  11.138  25.040  14.466
91663W        W63192  31.753  37.819   0.883
91664W        W63193   1.676  11.044  14.602
91665W        W63194  19.716  17.045  13.426
91666W        W63195  11.827  40.384  14.520
91667W        W63196  37.496  39.866   3.825
91668W        W63197  15.724  44.798   5.051
91669W        W63198  21.623  11.611  11.051
91670W        W63199  17.686  43.452   4.941
91671W        W63200  27.996   8.362  13.395
91672W        W63201  24.753  28.910   3.699
91673W        W63202  36.923   1.554  12.938
91674W        W63203  17.052  11.910   5.228
91675W        W63204   9.482   6.182   0.401
91676W        W63205  18.977  25.190  10.555
91677W        W63206  23.575  26.203  12.992
91678W        W63207   8.109  37.069  13.342
91679W        W63208   0.619  30.918  13.206
91680W        W63209  42.002  44.034  14.516
91681W        W63210   1.657  36.982   1.853
91682W        W63211  27.169  33.901  12.577
91683W        W63212  20.273   8.210  11.722
91684W        W63213  31.985   2.875  11.592
91685W        W63214   9.755  31.373   4.314
91686W        W63215  21.908  33.086  12.431
91687W        W63216  38.454  25.289   0.385
91688W        W63217   3.228  31.071   1.846
91689W        W63218  35.469  12.580   2.441
91690W        W63219   2.060  12.788  14.434
91691W        W63220  31.061  18.572  14.011
91692W        W63221  44.099  19.670  11.648
91693W        W63222   1.185  32.007  10.903
91694W        W63223  14.321  19.061  12.374
91695W        W63224  23.725   8.087   3.686
91696W        W63225  14.135  42.769   0.086
91697W        W63226   1.544  19.024  12.113
91698W        W63227  36.358  27.085   4.665
91699W        W63228  33.459  36.514  14.414
91700W        W63229  41.786  11.725  13.081
91701W        W63230  13.346  41.620   2.673
91702W        W63231  13.905  20.992   1.325
91703W        W63232  37.991  12.196   4.837
91704W        W63233  33.821  13.827  14.506
91705W        W63234  32.062  32.823   3.627
91706W        W63235   3.958  30.463   3.699
91707W        W63236  38.399  30.350   3.345
91708W        W63237  37.433  40.864   1.349
91709W        W63238  23.176  34.625   4.245
91710W        W63239   4.228  31.204   3.306
91711W        W63240   5.285  35.562  12.173
91712W        W63241  16.543   8.001  11.593
91713W        W63242  40.767  29.456  13.897
91714W        W63243  20.322  41.979   3.833
91715W        W63244  31.856  21.853  13.322
91716W        W63245  17.729  21.752  10.046
91717W        W63246  31.393  36.438   1.608
91718W        W63247  22.592   0.007  14.153
91719W        W63248  21.318   3.013  13.538
91720W        W63249   1.002  16.830  13.054
91721W        W63250  31.393  38.926  14.354
91722W        W63251  15.617  18.757  13.005
91723W        W63252  34.140   3.899   1.422
91724W        W63253  25.859   0.061   2.272
91725W        W63254  44.744  26.160  11.588
91726W        W63255  11.552  41.761  12.139
91727W        W63256  24.226  17.098   2.625
91728W        W63257  36.664   3.808  12.948
91729W        W63258   4.239  14.267  11.355
91730W        W63259  21.505  30.044   2.836
91731W        W63260  17.235  33.989  11.543
91732W        W63261  25.015  16.798  10.963
91733W        W63262  19.990  28.414  12.456
91734W        W63263  24.245  32.893   2.757
91735W        W63264  34.079  13.379   0.879
91736W        W63265   8.472  40.490   1.807
91737W        W63266  26.127  17.276   2.050
91738W        W63267  32.000  36.273   0.311
91739W        W63268  21.236   6.277  12.505
91740W        W63269  10.249  25.960  14.836
91741W        W63270  34.420  18.210  11.126
91742W        W63271  38.907  43.788  13.777
91743W        W63272  32.616  22.654  10.262
91744W        W63273  34.948  35.902  11.465
91745W        W63274  38.492  39.612   0.318
91746W        W63275  34.261   0.251   1.814
91747W        W63276  25.259  34.214   1.439
91748W        W63277  12.158  11.185  10.972
91749W        W63278  24.940   9.690  13.499
91750W        W63279  29.771   3.155   2.365
91751W        W63280  14.175  29.470   2.322
91752W        W63281  13.215  40.901   0.374
91753W        W63282  42.442  23.209  13.610
91754W        W63283  33.624  41.806   3.780
91755W        W63284  22.432   2.387   1.914
91756W        W63285  42.714  33.211   4.240
91757W        W63286   4.793  23.470  13.321
91758W        W63287  21.996  25.443  12.451
91759W        W63288  32.521  15.325  14.876
91760W        W63289  12.727  27.055   4.580
91761W        W63290  10.617  41.842   3.149
91762W        W63291   4.240  28.396  12.526
91763W        W63292  44.148  15.310   1.460
91764W        W63293  36.035  38.595  14.464
91765W        W63294   3.509  38.240  13.442
91766W        W63295  37.874  32.150   3.376
91767W        W63296  40.947  11.293   3.148
91768W        W63297  37.972   0.237  14.444
91769W        W63298  39.864  41.431   2.824
91770W        W63299  32.167  30.311   1.394
91771W        W63300  30.243  16.343   4.107
91772W        W63301  32.298  34.156   0.486
91773W        W63302  12.025  10.720  13.536
91774W        W63303  22.825   5.918   0.932
91775W        W63304  42.815  30.914  12.095
91776W        W63305  21.193  18.005  12.909
91777W        W63306   4.874  36.945  14.161
91778W        W63307  37.218  29.958   2.242
91779W        W63308  36.907  35.835   4.445
91780W        W63309  32.068  41.870  12.034
91781W        W63310  11.569  20.790   2.414
91782W        W63311  23.790   9.722  12.017
91783W        W63312  23.251  11.287  14.919
91784W        W63313  27.239  14.391   5.030
91785W        W63314  42.094  28.796  14.623
91786W        W63315  20.091  34.096  13.852
91787W        W63316  20.341  34.864  14.949
91788W        W63317  19.322  32.022   5.158
91789W        W63318  12.188   8.421  11.183
91790W        W63319  11.048  19.137  12.084
91791W        W63320  13.134  34.844   2.395
91792W        W63321   0.551   5.250   0.280
91793W        W63322  14.809   5.382   0.469
91794W        W63323  24.625  43.490   0.785
91795W        W63324  40.404  33.007   0.595
91796W        W63325  30.634   0.029  13.081
91797W        W63326  43.257  39.082  10.903
91798W        W63327  17.737  33.947  12.428
91799W        W63328  20.070  17.291  12.619
91800W        W63329  33.069  43.766   2.801
91801W        W63330  20.262  38.559   4.488
91802W        W63331  10.698  17.897  13.013
91803W        W63332  24.787  19.827   1.451
91804W        W63333   6.415  11.740   1.825
91805W        W63334   9.219  44.699   1.214
91806W        W63335   3.892  10.573   3.278
91807W        W63336  32.168  38.423   4.716
91808W        W63337  10.986   4.749   2.416
91809W        W63338  43.999  27.817  10.190
91810W        W63339   8.858  30.437  14.886
91811W        W63340  38.420  33.369   1.285
91812W        W63341  30.413  22.420  12.092
91813W        W63342  30.495   2.843   0.196
91814W        W63343  44.769   6.829   0.509
91815W        W63344  29.998  36.333  14.891
91816W        W63345  32.060  12.377   1.860
91817W        W63346  15.100   0.843  13.899
91818W        W63347   1.855  32.679   2.817
91819W        W63348  40.321  28.846  10.665
91820W        W63349  21.414  40.296  12.469
91821W        W63350  42.247  41.350  14.044
91822W        W63351  38.886  11.288  14.288
91823W        W63352  36.347   9.663   3.207
91824W        W63353  41.876  26.100   1.281
91825W        W63354  44.561  42.548   2.661
91826W        W63355  35.778  26.006   4.315
91827W        W63356  12.847  39.118  11.437
91828W        W63357  34.064   0.797  10.394
91829W        W63358  40.127  34.455   4.036
91830W        W63359  10.456  21.358   3.116
91831W        W63360   8.770  23.762  10.306
91832W        W63361  32.633  18.799   0.792
91833W        W63362  27.967  25.597   4.752
91834W        W63363  10.240  12.267   2.413
91835W        W63364  35.550  27.476   4.550
91836W        W63365  17.037  24.255   4.072
91837W        W63366  27.066  11.210   3.874
91838W        W63367   4.440  19.748   0.738
91839W        W63368   3.928   3.288   3.802
91840W        W63369  18.268  40.887   4.596
91841W        W63370   2.407  27.957   2.673
91842W        W63371  41.517  28.153   2.747
91843W        W63372  38.770  38.072   0.908
91844W        W63373  16.695  31.125   0.087
91845W        W63374  39.121  31.864   4.610
91846W        W63375  38.506  14.506  12.548
91847W        W63376  15.860  43.502  11.107
91848W        W63377  24.543  25.549   0.221
91849W        W63378  16.585  29.988  13.530
91850W        W63379  33.979  35.329   1.871
91851W        W63380  30.602  33.937  11.083
91852W        W63381  29.143  24.071   4.139
91853W        W63382   9.109  32.058   3.559
91854W        W63383  25.908  24.716  10.520
91855W        W63384  23.012  19.435   2.742
91856W        W63385  15.966  41.693   4.210
91857W        W63386   7.630  43.871   1.825
91858W        W63387   6.371   3.175   1.363
91859W        W63388  12.832  36.445  11.662
91860W        W63389  30.646   3.433   1.910
91861W        W63390  33.910  12.806   1.918
91862W        W63391   1.504  12.844  12.073
91863W        W63392   1.830  19.606   1.393
91864W        W63393  24.659  29.747  12.794
91865W        W63394  43.017   3.292   1.448
91866W        W63395  44.501  35.489  10.748
91867W        W63396  14.615  11.908   3.271
91868W        W63397  14.436  38.959  14.268
91869W        W63398  12.060  24.279   4.536
91870W        W63399   7.702   4.729   1.552
91871W        W63400  41.338  38.366  13.501
91872W        W63401   3.773  15.832  14.422
91873W        W63402  33.900  22.127   1.465
91874W        W63403   5.645   4.308  12.951
91875W        W63404  26.245  18.531   3.266
91876W        W63405  28.240   3.899  11.616
91877W        W63406  42.090  23.640   0.236
91878W        W63407  21.559  19.014  11.414
91879W        W63408   4.357  34.556   4.812
91880W        W63409  22.096   6.176  12.373
91881W        W63410  17.701  10.856  14.804
91882W        W63411   6.989  27.423   0.905
91883W        W63412   9.344  40.265   3.632
91884W        W63413   0.428  35.061  13.516
91885W        W63414  39.402  31.595  12.934
91886W        W63415  38.432  12.685   3.584
91887W        W63416  34.869  16.429   3.597
91888W        W63417   0.704  18.520   3.758
91889W        W63418  17.130  33.160  12.431
91890W        W63419  24.083  33.091  13.341
91891W        W63420  35.529  25.491   1.902
91892W        W63421  44.727   7.337   4.906
91893W        W63422  33.416  22.434  10.861
91894W        W63423  26.223  39.970   3.445
91895W        W63424  35.835  24.016  11.596
91896W        W63425  24.219  38.999   4.600
91897W        W63426  26.154   8.545  12.971
91898W        W63427  25.961  43.734  13.944
91899W        W63428  39.836  39.761   4.125
91900W        W63429  42.792  26.911  13.780
91901W        W63430   0.256  22.017   3.806
91902W        W63431  43.955  31.818   3.753
91903W        W63432  18.917   4.687  10.035
91904W        W63433  12.222  29.366   1.330
91905W        W63434  42.006  23.897   3.273
91906W        W63435  37.875  20.440  11.996
91907W        W63436  20.711   2.597  13.876
91908W        W63437  41.977  29.130  12.431
91909W        W63438   2.058  27.925  13.682
91910W        W63439  42.843   3.666  13.504
91911W        W63440   3.327  15.588  14.442
91912W        W63441   7.386  13.250   0.452
91913W        W63442  33.899  31.056   2.523
91914W        W63443  39.409   4.015  12.867
91915W        W63444   2.020  14.854  11.904
91916W        W63445   9.356  24.863  11.780
91917W        W63446  43.502  19.149   2.215
91918W        W63447  36.889  14.408   1.364
91919W        W63448   9.532  30.411   3.341
91920W        W63449  27.083  31.628  12.429
91921W        W63450  40.628  24.010   0.852
91922W        W63451  25.209  19.468   1.378
91923W        W63452   6.776  37.955  13.438
91924W        W63453  21.309  19.462  12.518
91925W        W63454  41.333  23.090  14.301
91926W        W63455  22.402  13.542  13.229
91927W        W63456  35.052  12.743  13.122
91928W        W63457  26.832   1.906   3.151
91929W        W63458   3.356  39.026   0.378
91930W        W63459  34.873  37.397  10.538
91931W        W63460  19.595  24.529   4.137
91932W        W63461  22.713  18.368   0.321
91933W        W63462  23.649  36.009  11.261
91934W        W63463  15.487   8.532   0.480
91935W        W63464  25.170   8.624  10.551
91936W        W63465  40.813   0.506   3.823
91937W        W63466  37.940  41.325   3.648
91938W        W63467  15.002  40.087  14.307
91939W        W63468   7.191  41.718   4.874
91940W        W63469   5.190  29.385  11.926
91941W        W63470  44.343  24.335   1.392
91942W        W63471   7.308  36.159  11.182
91943W        W63472  28.048  27.205  13.249
91944W        W63473  14.054  24.468  13.939
91945W        W63474  37.779  40.522   3.183
91946W        W63475  17.799  22.287   4.249
91947W        W63476   7.278  37.863  13.570
91948W        W63477  23.285   6.949   1.695
91949W        W63478  42.283  18.632   4.121
91950W        W63479   2.190   3.080  13.441
91951W        W63480   8.719  19.366   0.835
91952W        W63481  22.296  42.345  11.019
91953W        W63482  37.617   3.921  12.817
91954W        W63483  17.963  11.248  12.107
91955W        W63484  39.176  22.503  10.133
91956W        W63485  18.307  16.109  12.546
91957W        W63486  22.771  23.475  11.475
91958W        W63487  12.146  30.646   4.241
91959W        W63488   5.600  12.708  12.183
91960W        W63489  41.585  14.801  14.518
91961W        W63490  36.850  12.648  10.665
91962W        W63491  31.702  30.679   3.390
91963W        W63492  38.133  44.807   0.859
91964W        W63493   4.210  16.650  12.466
91965W        W63494   0.114  44.932  11.467
91966W        W63495   7.436  30.094   1.352
91967W        W63496  20.002  11.846  11.475
91968W        W63497  36.138   3.855  13.008
91969W        W63498  26.017  15.828   4.583
91970W        W63499  12.857  22.961   3.637
91971W        W63500  25.716   1.510   0.715
91972W        W63501  31.111   8.350  14.735
91973W        W63502  18.281   2.195   0.409
91974W        W63503  44.394  42.965   0.194
91975W        W63504  17.618   7.097  13.448
91976W        W63505  21.974  13.768   2.450
91977W        W63506  19.597   4.951  11.257
91978W        W63507  32.393  42.956   4.365
91979W        W63508  42.960  31.392  12.328
91980W        W63509  28.728  20.825   3.928
91981W        W63510  30.555   5.693  11.241
91982W        W63511  37.466  18.559   3.130
91983W        W63512   5.984  19.676   0.292
91984W        W63513  24.041  28.529  11.892
91985W        W63514  36.370   1.322   0.695
91986W        W63515   3.106   2.262   3.652
91987W        W63516  34.076  35.404   0.374
91988W        W63517   8.265  35.120   3.736
91989W        W63518  12.528  29.078   0.103
91990W        W63519  15.860  10.733   2.558
91991W        W63520  36.467  33.906  12.502
91992W        W63521  14.647  15.523   0.587
91993W        W63522  21.639  24.743   4.562
91994W        W63523   1.088  27.469  11.499
91995W        W63524  25.150  12.761  10.398
91996W        W63525  36.967   8.632   4.681
91997W        W63526  15.555  11.304   1.036
91998W        W63527  13.271  22.269  12.344
91999W        W63528  37.115  32.436  12.936
92000W        W63529  42.914  11.625  14.849
92001W        W63530   9.781  20.106   0.281
92002W        W63531  43.160  41.549  12.040
92003W        W63532   6.107  37.607  11.833
92004W        W63533  10.441   2.443   2.680
92005W        W63534  43.135  31.585  10.678
92006W        W63535  26.871   1.387   0.478
92007W        W63536  34.049  11.597  14.942
92008W        W63537  41.306  30.412   2.324
92009W        W63538  30.088  11.392  10.564
92010W        W63539  26.356  18.675   1.499
92011W        W63540  31.135  23.189   1.396
92012W        W63541   6.535  18.644   3.112
92013W        W63542  13.033  42.007   1.783
92014W        W63543  14.636  20.811  12.652
92015W        W63544  25.357  22.660  13.485
92016W        W63545   4.184   6.959  13.998
92017W        W63546  28.390  31.981   3.554
92018W        W63547  14.277   8.889   1.848
92019W        W63548   3.542   1.835  14.284
92020W        W63549  32.671  35.321  13.075
92021W        W63550  36.411   9.843   3.715
92022W        W63551  25.057  10.269   4.022
92023W        W63552  32.024   1.724   2.148
92024W        W63553  44.709  11.153   0.004
92025W        W63554  34.687   4.177  11.191
92026W        W63555  14.024   0.694   2.734
92027W        W63556   8.846  35.449  13.537
92028W        W63557  16.245  11.265   5.296
92029W        W63558  22.010   9.798  11.581
92030W        W63559  30.160  34.398   1.485
92031W        W63560   8.738  20.210  10.963
92032W        W63561  16.808  20.707   1.767
92033W        W63562  41.804   1.699   3.293
92034W        W63563  43.293   5.580  14.854
92035W        W63564  27.678  29.374   2.618
92036W        W63565  44.695  40.275  11.183
92037W        W63566  23.799  13.545  11.076
92038W        W63567  26.598  12.926  12.495
92039W        W63568   3.230  34.977  11.397
92040W        W63569   7.929  17.955  11.189
92041W        W63570   0.710   9.386   3.441
92042W        W63571   6.807  32.688  13.833
92043W        W63572   8.835  31.647   4.696
92044W        W63573  11.670  20.986   0.885
92045W        W63574   9.758  38.454   4.259
92046W        W63575  34.047  23.964   4.562
92047W        W63576  35.771  12.471  11.684
92048W        W63577  35.172  32.474   5.044
92049W        W63578  15.759   9.805   4.538
92050W        W63579   0.731  44.278  11.586
92051W        W63580  39.510   6.874   4.112
92052W        W63581  16.084  15.312   1.244
92053W        W63582  24.991  25.277   4.388
92054W        W63583   2.522  20.844   1.487
92055W        W63584  38.492  18.154   0.719
92056W        W63585  26.516  36.115  11.956
92057W        W63586  10.172  40.866  14.473
92058W        W63587  21.834  40.807   1.537
92059W        W63588  13.689  41.443  13.363
92060W        W63589   0.047   7.259   0.494
92061W        W63590  43.286  30.406   0.504
92062W        W63591  25.084  19.078   4.178
92063W        W63592  35.427  20.152   4.653
92064W        W63593  19.001  12.343   4.545
92065W        W63594  15.979  24.137   0.860
92066W        W63595  28.781  10.262   3.178
92067W        W63596  15.184  44.516   1.857
92068W        W63597  25.073  16.077  13.691
92069W        W63598  19.014  14.697  14.872
92070W        W63599  42.830  16.807   0.874
92071W        W63600   1.973  37.648   2.179
92072W        W63601  38.811  37.914  13.848
92073W        W63602   0.044  28.967   4.583
92074W        W63603  17.678  28.163  14.896
92075W        W63604  29.873  39.068   0.246
92076W        W63605  32.099  36.927   2.138
92077W        W63606  22.847  43.155   4.147
92078W        W63607  35.957  24.083   3.602
92079W        W63608  40.394  23.185   3.811
92080W        W63609  43.752  32.709   2.144
92081W        W63610  36.906   1.877  13.356
92082W        W63611   9.321  43.256  14.282
92083W        W63612  30.595   6.945  13.450
92084W        W63613  18.612   4.024   0.548
92085W        W63614  18.075   7.876  10.934
92086W        W63615  33.946  42.981  12.024
92087W        W63616  33.142   7.711   5.048
92088W        W63617  44.093   8.937   3.958
92089W        W63618  16.185  29.618   4.139
92090W        W63619   7.701  29.716  11.538
92091W        W63620   3.257  11.224  11.128
92092W        W63621  20.830  28.947   2.786
92093W        W63622  34.872  10.605  12.388
92094W        W63623  42.664   7.737  14.398
92095W        W63624  27.013  41.232  12.614
92096W        W63625  25.551  43.770   3.650
92097W        W63626  40.570  26.967   1.791
92098W        W63627  11.452  30.078  13.898
92099W        W63628  30.635  23.399   0.054
92100W        W63629   0.974  14.277   0.874
92101W        W63630   6.662  30.995   4.356
92102W        W63631  31.154   7.849  12.807
92103W        W63632  23.889  13.114  11.844
92104W        W63633   5.466  41.551   1.986
92105W        W63634  30.142   4.417  12.317
92106W        W63635   1.294  12.725   4.548
92107W        W63636  14.496  22.731  12.051
92108W        W63637  42.564  26.728  12.102
92109W        W63638  25.721  42.564   2.845
92110W        W63639   3.198  30.465  11.917
92111W        W63640  33.217   5.178  13.894
92112W        W63641  41.833  23.131   1.411
92113W        W63642   8.400  27.652  12.937
92114W        W63643  28.579  24.528   0.692
92115W        W63644  34.597   5.213  11.222
92116W        W63645   3.951  28.232  11.036
92117W        W63646  13.123   0.923  14.390
92118W        W63647  25.936  32.094   5.158
92119W        W63648  40.318  14.704  11.967
92120W        W63649  21.778   0.836  11.163
92121W        W63650   3.431  20.839  10.291
92122W        W63651   9.820  12.813   3.851
92123W        W63652   6.618  31.253  10.739
92124W        W63653  37.306  17.162  11.502
92125W        W63654   8.255   3.402   4.432
92126W        W63655  20.597   9.265  14.327
92127W        W63656   1.193  23.415   4.585
92128W        W63657  31.064  25.249  12.918
92129W        W63658  30.773   6.332   0.508
92130W        W63659   1.310   6.228   1.330
92131W        W63660   7.273  17.470   1.952
92132W        W63661  21.763  26.017   4.172
92133W        W63662  22.574  20.798   1.377
92134W        W63663  31.672  33.025   2.416
92135W        W63664  26.800  34.955  12.550
92136W        W63665  16.336  25.608   4.739
92137W        W63666  26.740  20.738  14.454
92138W        W63667  41.020  12.944   2.636
92139W        W63668  19.315  38.794  12.608
92140W        W63669  36.641  42.836  13.468
92141W        W63670  44.784  37.335  10.581
92142W        W63671  29.815   6.785   0.933
92143W        W63672  38.071   2.014   2.214
92144W        W63673  20.369  36.084  12.624
92145W        W63674  35.821   1.290   4.115
92146W        W63675  30.410  16.551  11.131
92147W        W63676  41.235  13.540   2.075
92148W        W63677  38.818  32.414  12.801
92149W        W63678  13.376  17.535  12.479
92150W        W63679   7.688  35.111  10.744
92151W        W63680  41.776  41.937  13.357
92152W        W63681  10.624  23.526   0.754
92153W        W63682   8.981   4.963   3.207
92154W        W63683  14.370  37.410  14.900
92155W        W63684  39.941  41.986   2.784
92156W        W63685   7.878  35.300   1.197
92157W        W63686  24.674  24.874  12.382
92158W        W63687  42.563  30.486  10.816
92159W        W63688   0.430  16.184  11.568
92160W        W63689  14.134  28.293  14.338
92161W        W63690  42.867  39.315  11.342
92162W        W63691  14.015   9.674   3.548
92163W        W63692  37.310  41.528  12.855
92164W        W63693  11.081  30.475   1.137
92165W        W63694  15.052   2.389   1.775
92166W        W63695   4.925  40.414   4.573
92167W        W63696  42.859  18.280   4.736
92168W        W63697  12.281   2.906  10.926
92169W        W63698   3.898   4.631   2.154
92170W        W63699  10.572  26.514  11.601
92171W        W63700   8.133  26.216   2.897
92172W        W63701   0.833  42.391  12.495
92173W        W63702  12.749  20.932   0.347
92174W        W63703   5.809  36.812  14.594
92175W        W63704  36.356  24.455   0.564
92176W        W63705   0.741  14.750   2.874
92177W        W63706  44.594  36.975   0.444
92178W        W63707  13.106  42.328  13.769
92179W        W63708   3.922   4.698   3.594
92180W        W63709   1.385   9.609  12.583
92181W        W63710  24.924  14.715  13.881
92182W        W63711  40.464  30.583  13.048
92183W        W63712  24.771   9.172   0.770
92184W        W63713  31.977  19.785  12.404
92185W        W63714   4.257  39.794   2.011
92186W        W63715  33.456  22.690   9.865
92187W        W63716  17.711  38.985   3.836
92188W        W63717  10.852  14.722  11.923
92189W        W63718  13.825  23.409  11.712
92190W        W63719  42.355   1.332   3.541
92191W        W63720  44.896   7.195  14.951
92192W        W63721  36.095  29.768   1.862
92193W        W63722  23.610   4.125  12.047
92194W        W63723   4.366  15.214  14.102
92195W        W63724   1.734   5.085  12.429
92196W        W63725  19.195  43.754   0.367
92197W        W63726   0.209  12.856  11.859
92198W        W63727  19.454  19.235  14.921
92199W        W63728  23.723  27.971   1.778
92200W        W63729   6.450  21.760  12.995
92201W        W63730  31.423   0.037  10.790
92202W        W63731   8.200  24.034   1.824
92203W        W63732  22.659  17.534  14.939
92204W        W63733  12.376   4.657   2.769
92205W        W63734  30.917  42.474  13.164
92206W        W63735  31.608   2.838  13.090
92207W        W63736  30.181  38.720   0.038
92208W        W63737  12.611   2.269  13.524
92209W        W63738  42.460   3.439  14.501
92210W        W63739  43.040   1.860   0.590
92211W        W63740  35.418  37.932  12.321
92212W        W63741  20.217  41.268  13.040
92213W        W63742  35.857  24.331  11.991
92214W        W63743   4.360  33.643   2.810
92215W        W63744  37.010  33.043  11.553
92216W        W63745   3.298  19.656  12.972
92217W        W63746  35.001  12.844   2.415
92218W        W63747  36.674  31.031   4.522
92219W        W63748  30.206  15.695  14.859
92220W        W63749  44.361  19.252  12.447
92221W        W63750  20.183  41.106  11.193
92222W        W63751  23.613  34.444   2.821
92223W        W63752  16.569  41.788   2.602
92224W        W63753  11.742  20.053   0.586
92225W        W63754  31.644   4.470   0.697
92226W        W63755  28.677  22.419  12.440
92227W        W63756  42.888  37.861   1.368
92228W        W63757   3.998  33.394  11.306
92229W        W63758  21.034  22.949   2.310
92230W        W63759  24.855  24.461   4.557
92231W        W63760  36.967  18.420  13.348
92232W        W63761  38.624  16.213   3.450
92233W        W63762  17.623  27.617   2.160
92234W        W63763  35.402  11.952  13.455
92235W        W63764  28.982  20.502   4.281
92236W        W63765  36.393  41.535   2.005
92237W        W63766   8.872  20.345  11.834
92238W        W63767  13.574   9.843   3.748
92239W        W63768  37.710  17.264  12.429
92240W        W63769   0.427  22.095   4.314
92241W        W63770  41.243  34.870  13.463
92242W        W63771  15.166  43.332  13.915
92243W        W63772  34.288  39.060  13.484
92244W        W63773  17.080   4.868  11.641
92245W        W63774  44.539  35.000  10.621
92246W        W63775   0.575   7.190   0.492
92247W        W63776  37.560  41.369  14.095
92248W        W63777  17.219  33.939   0.318
92249W        W63778  44.703  32.535   1.342
92250W        W63779  17.192  34.887  14.328
92251W        W63780  29.266  12.388  14.299
92252W        W63781   5.427  28.349  11.700
92253W        W63782  13.614  29.907  11.214
92254W        W63783  16.437   7.676  12.440
92255W        W63784  10.402  19.541  12.865
92256W        W63785  29.582  36.569  13.029
92257W        W63786  33.414  38.800  12.293
92258W        W63787  20.249  15.709  14.218
92259W        W63788  22.163  26.633  13.979
92260W        W63789  14.856  38.462  13.896
92261W        W63790  22.943  15.244   4.602
92262W        W63791  44.269   8.253  11.575
92263W        W63792  14.402  43.457   1.783
92264W        W63793  13.327  22.160  11.850
92265W        W63794  37.469  15.715  13.102
92266W        W63795  24.122  35.904  13.432
92267W        W63796  34.619   3.447   1.120
92268W        W63797   0.863  21.869  14.799
92269W        W63798  19.007  38.313  13.914
92270W        W63799  11.097  23.738   2.320
92271W        W63800   6.477  31.882  14.765
92272W        W63801  33.887  33.110  12.921
92273W        W63802  32.513   2.931   4.158
92274W        W63803  31.090  32.575  12.844
92275W        W63804   7.685  17.019   4.082
92276W        W63805  15.628  21.724  11.927
92277W        W63806  18.988  41.744  10.877
92278W        W63807   8.537  35.591   1.756
92279W        W63808   1.622  21.059  10.770
92280W        W63809  17.901  27.464  10.590
92281W        W63810  19.336  41.409   1.177
92282W        W63811  27.006  32.043  11.655
92283W        W63812  34.424  42.543  12.793
92284W        W63813  36.594   1.343   2.416
92285W        W63814  13.618  35.266  13.881
92286W        W63815  35.041  30.100   3.131
92287W        W63816  26.701  42.318  14.666
92288W        W63817  16.064  35.113  14.829
92289W        W63818  28.368  43.504  11.681
92290W        W63819  33.621  11.720   2.242
92291W        W63820   0.450   0.952   0.263
92292W        W63821   1.372  42.861  10.917
92293W        W63822  13.091  30.104   2.699
92294W        W63823   3.486   6.792   0.457
92295W        W63824   6.974   4.309  13.773
92296W        W63825  39.003  28.240  10.836
92297W        W63826   8.724  19.205  12.899
92298W        W63827  19.581   9.828  10.096
92299W        W63828   6.818  24.186   3.249
92300W        W63829  28.147  19.749   0.414
92301W        W63830  17.269  29.935   2.909
92302W        W63831  15.951  26.531   0.792
92303W        W63832  42.019  38.334   2.412
92304W        W63833  22.163  36.595   4.302
92305W        W63834  40.467  20.518   3.056
92306W        W63835  36.782   2.796  13.213
92307W        W63836  37.918   7.244   3.877
92308W        W63837  14.712   6.319  14.042
92309W        W63838   7.710  44.384  10.068
92310W        W63839  43.757  14.655   0.787
92311W        W63840  24.579  10.124   4.199
92312W        W63841  11.679  26.397   1.725
92313W        W63842  37.554   7.601   4.017
92314W        W63843  36.912   0.410   0.788
92315W        W63844   3.903  32.898   0.451
92316W        W63845  22.023   0.772  14.433
92317W        W63846  39.529  19.660  12.086
92318W        W63847  40.362  29.388   1.873
92319W        W63848  42.621  34.821   5.040
92320W        W63849  25.108   3.896  11.219
92321W        W63850   6.298  25.477   3.133
92322W        W63851  34.221   8.474  12.183
92323W        W63852  29.503  12.649  13.894
92324W        W63853  27.590   5.498  14.548
92325W        W63854   4.175   7.359  14.336
92326W        W63855  35.432  41.837  11.609
92327W        W63856  39.840   6.724   0.874
92328W        W63857  21.046  10.178   1.391
92329W        W63858  26.680  20.538  12.223
92330W        W63859  16.569  28.453  10.635
92331W        W63860   6.328  44.886   2.409
92332W        W63861  28.078  34.420   9.610
92333W        W63862  24.085  14.607   3.211
92334W        W63863  15.536  29.489  14.456
92335W        W63864  19.314  28.259  13.685
92336W        W63865  15.828   9.508  14.839
92337W        W63866   7.788   4.009  14.048
92338W        W63867  39.053  10.555   1.547
92339W        W63868   0.493   1.698   4.188
92340W        W63869  37.688  15.183   2.364
92341W        W63870   9.155   9.644  11.079
92342W        W63871  11.899   6.186  12.442
92343W        W63872  37.839  18.463  10.899
92344W        W63873   4.445  12.143  12.466
92345W        W63874  33.046   8.924  12.763
92346W        W63875  42.845  39.448   2.660
92347W        W63876   3.313  17.640   0.956
92348W        W63877  35.034  17.638   2.300
92349W        W63878  35.337  20.256  11.007
92350W        W63879  18.129  25.718  12.590
92351W        W63880  11.112  41.539  13.332
92352W        W63881  11.656  15.671  13.023
92353W        W63882  38.441   0.593   0.709
92354W        W63883  12.128  11.617  13.407
92355W        W63884  17.809  39.848  10.611
92356W        W63885  37.922  30.473  10.945
92357W        W63886  20.544  36.999   0.321
92358W        W63887  17.780  44.747  12.009
92359W        W63888  28.550  14.976  11.057
92360W        W63889   6.339   3.660  14.062
92361W        W63890  30.956  24.589   0.628
92362W        W63891  15.754  21.692   0.776
92363W        W63892  44.134  37.502   4.621
92364W        W63893  31.494   9.160  11.379
92365W        W63894  43.337  38.020  13.088
92366W        W63895  21.499  13.163  10.366
92367W        W63896  10.847  33.753   3.750
92368W        W63897  42.335   6.821  14.203
92369W        W63898  35.646  39.946   3.694
92370W        W63899  44.715  12.212   4.424
92371W        W63900  42.752  40.555  13.947
92372W        W63901  35.897  33.386  14.443
92373W        W63902  41.860  21.538  10.532
92374W        W63903   7.388  15.599   4.266
92375W        W63904  30.971  38.205  13.816
92376W        W63905  35.391  35.616  11.488
92377W        W63906  39.991  20.290  11.729
92378W        W63907  39.275   6.452   3.918
92379W        W63908  12.733  19.637  12.023
92380W        W63909  36.210  34.099  14.854
92381W        W63910   3.560  28.470   4.585
92382W        W63911   0.994  22.048   1.337
92383W        W63912  11.136   7.845   0.890
92384W        W63913  39.023  18.947   4.842
92385W        W63914  37.164   9.943   1.415
92386W        W63915   7.315   4.363  14.542
92387W        W63916  42.473  16.691  13.936
92388W        W63917  36.032   9.430   4.461
92389W        W63918  27.639   8.838  14.571
92390W        W63919   8.742   3.397   3.607
92391W        W63920  25.151   1.738   1.825
92392W        W63921  44.326  12.268   3.631
92393W        W63922  40.687  14.962  13.440
92394W        W63923   7.861  14.348  14.501
92395W        W63924   8.727   9.316   1.375
92396W        W63925  26.439   2.592   0.863
92397W        W63926   4.982  40.955  14.337
92398W        W63927  43.518  18.272   5.004
92399W        W63928  15.713  22.492   0.381
92400W        W63929  28.422  24.106  12.617
92401W        W63930  34.495  37.856   1.837
92402W        W63931   4.364  33.078   1.692
92403W        W63932   8.372  39.807  14.348
92404W        W63933  10.747   1.480  11.636
92405W        W63934  23.513  30.578   0.450
92406W        W63935  44.491  16.183   2.426
92407W        W63936   4.522  30.456   2.771
92408W        W63937  29.794  41.035  10.931
92409W        W63938  22.121  13.640   3.692
92410W        W63939  18.595  38.700  13.157
92411W        W63940   6.910  32.676  11.162
92412W        W63941  13.319  26.493  13.763
92413W        W63942  14.590  36.736  13.511
92414W        W63943  21.999  40.760  10.960
92415W        W63944   2.787  30.924  11.144
92416W        W63945  43.445   2.103   5.003
92417W        W63946  29.162  24.521   0.446
92418W        W63947  31.117  44.405   0.317
92419W        W63948  20.518  33.488   1.590
92420W        W63949  31.792  32.409   3.223
92421W        W63950  13.709  12.515   0.172
92422W        W63951  23.635   3.179   1.636
92423W        W63952   1.041  29.529  11.945
92424W        W63953  43.013  25.358  13.992
92425W        W63954  36.811  42.960   5.106
92426W        W63955  23.629  14.618  11.208
92427W        W63956  38.474  42.335  14.994
92428W        W63957  31.012   1.724   3.517
92429W        W63958  20.018  44.020   4.584
92430W        W63959   6.722  31.946   3.133
92431W        W63960  18.955  41.971  10.324
92432W        W63961   7.287  30.450   3.161
92433W        W63962  25.363  16.709   1.252
92434W        W63963  10.238  42.160  14.693
92435W        W63964  10.587  23.775  14.317
92436W        W63965  39.723  17.980   2.248
92437W        W63966  24.026  18.501   1.853
92438W        W63967  17.323  37.515   3.284
92439W        W63968  16.116  33.970   1.175
92440W        W63969  25.622  34.779  10.686
92441W        W63970   0.948  20.879   4.159
92442W        W63971  34.965  27.579  14.824
92443W        W63972   3.225  37.363   3.811
92444W        W63973   8.730   2.564   0.902
92445W        W63974  33.460   0.228  14.026
92446W        W63975  26.510  22.499  12.106
92447W        W63976  13.339  27.005   1.752
92448W        W63977  25.278  39.599   3.580
92449W        W63978  26.338  31.072   3.633
92450W        W63979  27.076  33.501  13.641
92451W        W63980   6.630   9.176  12.493
92452W        W63981   1.754   2.694  14.368
92453W        W63982  31.371  26.900   1.039
92454W        W63983  20.973  20.580  14.927
92455W        W63984  16.795   8.827   2.215
92456W        W63985  13.315  14.788   3.253
92457W        W63986  33.689  31.198  12.409
92458W        W63987   9.649  38.347   3.597
92459W        W63988  44.865   9.706  10.659
92460W        W63989  24.731  24.064   2.178
92461W        W63990  31.538  11.768  12.479
92462W        W63991  23.763  10.275   2.099
92463W        W63992  24.484  41.935  12.553
92464W        W63993   3.417  43.856  14.467
92465W        W63994  25.675  15.542  14.991
92466W        W63995  22.176  42.024   3.553
92467W        W63996  44.552  38.929   2.107
92468W        W63997  44.069  42.716  13.223
92469W        W63998  43.791  19.049  12.124
92470W        W63999  27.914  15.828  14.294
92471W        W64000   8.271  40.435  13.986
92472W        W64001   4.823  37.601   1.838
92473W        W64002   3.814  22.217   4.158
92474W        W64003  15.614  41.781  14.287
92475W        W64004  12.841  33.954   3.348
92476W        W64005  27.034  38.728   3.218
92477W        W64006  13.076  22.287   0.360
92478W        W64007   6.491  35.577   2.311
92479W        W64008  31.323  24.724   4.517
92480W        W64009  29.874  36.868   4.210
92481W        W64010   7.395  26.762  13.621
92482W        W64011  26.126  27.478  11.998
92483W        W64012   1.816   0.505  13.058
92484W        W64013  30.542  37.584   5.106
92485W        W64014  30.961  17.123   4.149
92486W        W64015  15.048   4.341   1.896
92487W        W64016  24.447   3.682   3.791
92488W        W64017  14.705  39.047   1.452
92489W        W64018  33.370  33.428   2.929
92490W        W64019  26.643   1.255  10.696
92491W        W64020  30.143   8.314  11.561
92492W        W64021  33.686  19.521  14.117
92493W        W64022  37.522  30.521  14.438
92494W        W64023  12.069  16.851  11.210
92495W        W64024  22.319   2.047  14.542
92496W        W64025  12.655  11.797  13.437
92497W        W64026  37.766  18.747  12.649
92498W        W64027  34.146   3.895  12.865
92499W        W64028  44.910  17.034   0.748
92500W        W64029  43.890  24.495   3.455
92501W        W64030  40.284  33.889   0.339
92502W        W64031  44.917  16.306   3.304
92503W        W64032  22.339  15.059   0.399
92504W        W64033  17.277   7.700   2.299
92505W        W64034  38.423  37.806   3.305
92506W        W64035  31.267   1.933   2.279
92507W        W64036  11.252  19.906   0.417
92508W        W64037  39.386  29.616  14.323
92509W        W64038  44.770  10.352   4.838
92510W        W64039  36.887  19.227   2.694
92511W        W64040  26.024  26.947   1.058
92512W        W64041  13.803  14.636  10.871
92513W        W64042  11.821   2.695  12.087
92514W        W64043  33.805  41.387   1.133
92515W        W64044  17.668   8.631  13.510
92516W        W64045  23.567  40.317   4.081
92517W        W64046  35.565  33.955   4.732
92518W        W64047  36.707  12.060  11.705
92519W        W64048  32.986  42.546  14.816
92520W        W64049  25.234  21.049  13.053
92521W        W64050  33.423  14.828  14.995
92522W        W64051   5.692  34.134  10.692
92523W        W64052  32.713  36.463   4.535
92524W        W64053  12.246   0.611  11.699
92525W        W64054  38.139  30.092   2.242
92526W        W64055  25.427  12.844  12.993
92527W        W64056   0.268  19.592  13.002
92528W        W64057  10.047  35.543   4.064
92529W        W64058  15.965  33.551   2.723
92530W        W64059  18.510  32.306  11.906
92531W        W64060   3.279  27.223  13.505
92532W        W64061  33.041  37.903  10.737
92533W        W64062  20.760  26.072  11.407
92534W        W64063  23.795   6.883  12.931
92535W        W64064  42.537  20.076   3.503
92536W        W64065   6.580  39.469  12.014
92537W        W64066  37.123   0.057  13.969
92538W        W64067  35.310  37.955   4.326
92539W        W64068  35.031  35.377   1.850
92540W        W64069   4.624  11.560  12.086
92541W        W64070   9.996  30.383   3.117
92542W        W64071  11.404  17.510  13.848
92543W        W64072  13.334  42.681   2.166
92544W        W64073  22.084   5.452   3.734
92545W        W64074  24.180  32.818   4.358
92546W        W64075  27.412  37.489   0.945
92547W        W64076  19.706   9.430   1.757
92548W        W64077  11.244  16.124   2.018
92549W        W64078  23.256  24.612   2.829
92550W        W64079  27.557   3.350  10.795
92551W        W64080  30.401  11.564  13.531
92552W        W64081  26.499  12.111  14.369
92553W        W64082   1.433  30.859   3.102
92554W        W64083  33.230  24.955  14.761
92555W        W64084   5.752  34.350   2.251
92556W        W64085   6.723  24.572   4.457
92557W        W64086  23.088  15.501   4.158
92558W        W64087  26.748  19.558  14.868
92559W        W64088  37.465  43.375   3.656
92560W        W64089  43.364   9.111  13.564
92561W        W64090  21.631   0.567   3.779
92562W        W64091  42.943  23.450   3.810
92563W        W64092  25.734  13.290  12.964
92564W        W64093   3.877  23.349  12.565
92565W        W64094  35.781   5.822   1.650
92566W        W64095   0.375  33.702   2.103
92567W        W64096  37.118  38.943  11.876
92568W        W64097   5.188  34.892   4.659
92569W        W64098   1.306  19.681  10.784
92570W        W64099  17.614  34.526  14.755
92571W        W64100  14.117  16.012  12.173
92572W        W64101  20.846   7.153   1.873
92573W        W64102   6.864  15.964   4.885
92574W        W64103  41.417  31.917  13.939
92575W        W64104  38.346   1.917  14.840
92576W        W64105  23.167   6.677   2.130
92577W        W64106  30.409  17.724   2.635
92578W        W64107  33.326  27.944   0.936
92579W        W64108  14.101  43.037   0.552
92580W        W64109  43.845  18.251   1.403
92581W        W64110  21.516  40.381   0.741
92582W        W64111  27.552  15.581  14.562
92583W        W64112  13.182  32.610  14.388
92584W        W64113  33.479  19.050  10.567
92585W        W64114  31.022  28.646   4.996
92586W        W64115  35.423  15.269   1.430
92587W        W64116  34.097  20.237  11.547
92588W        W64117  13.248  43.029   4.338
92589W        W64118  15.119  40.824  12.124
92590W        W64119  22.935   0.227  12.807
92591W        W64120   1.904  11.083   4.245
92592W        W64121   2.781  37.322   4.095
92593W        W64122  38.974  34.435   0.879
92594W        W64123  23.788  23.749   2.698
92595W        W64124  28.799   4.475  11.886
92596W        W64125   3.470   9.459  10.808
92597W        W64126   4.515  25.626   3.775
92598W        W64127  13.071  35.550   1.002
92599W        W64128   8.345  14.839   3.708
92600W        W64129   7.882  22.708   2.774
92601W        W64130  33.462  17.195  13.789
92602W        W64131  41.865  41.481   1.304
92603W        W64132   2.862  27.012  14.887
92604W        W64133  13.438  29.962  10.577
92605W        W64134  18.494  18.970   4.211
92606W        W64135  44.335  44.359  14.314
92607W        W64136  15.249   2.434  11.123
92608W        W64137  21.291  31.411  14.367
92609W        W64138  23.194  14.216  12.014
92610W        W64139   4.756   1.614  10.308
92611W        W64140  27.066   9.261   4.634
92612W        W64141  23.595  27.723   2.249
92613W        W64142  14.353  40.402  12.168
92614W        W64143  17.764  20.146   3.197
92615W        W64144  34.869  27.104   0.132
92616W        W64145  35.967  26.771  13.401
92617W        W64146  39.853   1.981  12.035
92618W        W64147  24.675  15.271  13.302
92619W        W64148   4.221  25.960  13.414
92620W        W64149  33.445  21.994  11.099
92621W        W64150  34.087   8.818   0.212
92622W        W64151  33.749  40.029  14.880
92623W        W64152  11.542  28.430  11.620
92624W        W64153  34.307  10.211  12.124
92625W        W64154  39.485  21.826   4.693
92626W        W64155  37.742  18.310  12.962
92627W        W64156   6.790  35.403   1.339
92628W        W64157  39.013  24.930  11.190
92629W        W64158  24.637   8.376   2.776
92630W        W64159  11.792   9.174   0.963
92631W        W64160  35.131  23.985   2.377
92632W        W64161  21.586  38.374  12.409
92633W        W64162  31.927  22.164  12.901
92634W        W64163  35.421  36.086  11.220
92635W        W64164  19.656  25.908   4.018
92636W        W64165  29.537   0.036   4.796
92637W        W64166   0.768   9.632  12.139
92638W        W64167   9.676  19.017   0.710
92639W        W64168  28.561   6.177   2.833
92640W        W64169  14.180  23.218   1.929
92641W        W64170   9.430  16.336  11.124
92642W        W64171  22.138  37.370  12.938
92643W        W64172  27.958   0.327   3.334
92644W        W64173  37.775  17.619   3.275
92645W        W64174  14.604  35.311   2.794
92646W        W64175  23.796  11.652   4.659
92647W        W64176  43.056  38.373   0.913
92648W        W64177  39.296  26.942   1.342
92649W        W64178  24.640  20.144   2.766
92650W        W64179   1.758  35.591  14.801
92651W        W64180  34.381  13.435   3.648
92652W        W64181  38.515  11.773   4.897
92653W        W64182  16.881  37.092  14.564
92654W        W64183  12.733  10.515  13.011
92655W        W64184  22.831   3.744   0.373
92656W        W64185  32.916   4.761   4.433
92657W        W64186   4.954  28.661  10.529
92658W        W64187  40.217  20.367   4.182
92659W        W64188  15.067  14.076  12.421
92660W        W64189  21.164  13.794   3.968
92661W        W64190   4.502  40.913   4.069
92662W        W64191  13.838  29.982  14.598
92663W        W64192  38.398  16.043  13.060
92664W        W64193  44.864  20.805  13.850
92665W        W64194   7.165  40.813   1.761
92666W        W64195  30.459  15.845   2.303
92667W        W64196  19.495   2.481  10.709
92668W        W64197  15.688  42.535   1.803
92669W        W64198   5.657  35.326   2.659
92670W        W64199  38.639  33.046  12.469
92671W        W64200  13.515  12.249   3.800
92672W        W64201   6.427  14.142   4.068
92673W        W64202  39.452  14.019   1.780
92674W        W64203  19.154   6.727  13.500
92675W        W64204  31.255  31.518   0.889
92676W        W64205  10.695  28.146   2.245
92677W        W64206  42.504  29.153  12.418
92678W        W64207   1.776  14.467  14.829
92679W        W64208  31.060  39.011  12.481
92680W        W64209   6.290  16.942   3.681
92681W        W64210  10.550   2.620  12.877
92682W        W64211  32.887   7.627  14.197
92683W        W64212   3.756  13.844   3.933
92684W        W64213  41.508  30.798   3.164
92685W        W64214  24.453  16.522  12.062
92686W        W64215  33.181  24.854  11.188
92687W        W64216  15.840   0.873   3.233
92688W        W64217  39.354  11.137  13.856
92689W        W64218  28.235  31.861  11.127
92690W        W64219  41.807   2.940  11.544
92691W        W64220   2.737  31.887  11.129
92692W        W64221  35.127  32.093   4.571
92693W        W64222  16.378  42.874   2.749
92694W        W64223  43.332  24.808  11.296
92695W        W64224  41.099  15.391   2.374
92696W        W64225  19.693  43.243   3.161
92697W        W64226   0.735  42.275   4.101
92698W        W64227  41.749   9.382  12.259
92699W        W64228  10.121  29.791   1.771
92700W        W64229  32.841   8.186  11.125
92701W        W64230  25.445   2.557   3.947
92702W        W64231  41.015   3.309   9.917
92703W        W64232  13.592  42.032   2.827
92704W        W64233  16.196  25.080   0.535
92705W        W64234   8.613  19.042  14.404
92706W        W64235  36.292   4.342  12.870
92707W        W64236  26.734  17.761   1.760
92708W        W64237  36.151  29.934   0.138
92709W        W64238  32.978  38.893  11.497
92710W        W64239   3.991  25.973  11.571
92711W        W64240   2.707   4.695  11.439
92712W        W64241   0.331  29.007   3.092
92713W        W64242  13.107   2.997   3.370
92714W        W64243  27.973  37.632   2.237
92715W        W64244  39.366  18.576  13.580
92716W        W64245  32.112  39.966  12.231
92717W        W64246  20.825  14.376   4.759
92718W        W64247  31.364  21.528  14.833
92719W        W64248  22.679   2.169   4.401
92720W        W64249  14.732  42.792  12.916
92721W        W64250  27.396  32.721   9.821
92722W        W64251  23.728  16.642  12.555
92723W        W64252  31.032  30.122  11.830
92724W        W64253  27.765  11.849  13.067
92725W        W64254  25.992  42.375   0.137
92726W        W64255   2.586  34.462   0.212
92727W        W64256  19.501  14.245   4.071
92728W        W64257  11.218  14.401  11.093
92729W        W64258  36.094  37.564   1.214
92730W        W64259  15.069  28.668   2.272
92731W        W64260  20.103   8.257   1.255
92732W        W64261   8.360  29.658   3.189
92733W        W64262  26.130   9.651   3.764
92734W        W64263  44.002  37.017  13.811
92735W        W64264  36.397   4.699   3.862
92736W        W64265   1.437  26.544   0.391
92737W        W64266  28.572  14.726  11.494
92738W        W64267  36.471  15.704  12.816
92739W        W64268  34.200  16.594  13.825
92740W        W64269  34.450  11.363   3.391
92741W        W64270   1.747  24.165   3.607
92742W        W64271  17.357  19.489  11.962
92743W        W64272   4.895  34.417  10.250
92744W        W64273  27.517  14.607  11.470
92745W        W64274   9.275  34.601  13.966
92746W        W64275  27.769  24.857   0.978
92747W        W64276  20.746  11.327   0.342
92748W        W64277  12.577  30.684   0.437
92749W        W64278  36.595  32.831   2.160
92750W        W64279  33.495   0.966  12.562
92751W        W64280   1.392   4.833   0.920
92752W        W64281  20.918  41.939  10.186
92753W        W64282   8.837  22.000   3.441
92754W        W64283  38.948  12.343  12.871
92755W        W64284  38.837  23.636  13.431
92756W        W64285  44.153  12.526   4.084
92757W        W64286  18.175  42.725  14.350
92758W        W64287  42.139   8.436  13.861
92759W        W64288  27.526  11.291   4.090
92760W        W64289   5.451  15.716  14.945
92761W        W64290  31.942  34.515   4.034
92762W        W64291  18.088  37.951   4.228
92763W        W64292  43.383  21.733   2.051
92764W        W64293  34.466  39.032  11.240
92765W        W64294  34.012  28.259   3.370
92766W        W64295  34.415  39.590   2.109
92767W        W64296  39.886  13.161   4.152
92768W        W64297  24.932  21.279  14.297
92769W        W64298  28.223   4.230   3.650
92770W        W64299  36.446  39.159  11.168
92771W        W64300  38.904  42.870   1.712
92772W        W64301  15.185  20.691   1.801
92773W        W64302  41.049  36.885   1.873
92774W        W64303  32.551   3.478   4.168
92775W        W64304  26.114  21.544  12.842
92776W        W64305   5.618  29.453  11.567
92777W        W64306  24.981  33.877  11.678
92778W        W64307  13.803  43.734  11.671
92779W        W64308  31.962   0.904   2.817
92780W        W64309  40.763  42.167   5.020
92781W        W64310  20.122  38.755   0.495
92782W        W64311  19.498  19.443   2.392
92783W        W64312  30.140   3.847   3.893
92784W        W64313  10.951  19.578   2.202
92785W        W64314   6.385  24.239   2.302
92786W        W64315  28.513  21.039   3.201
92787W        W64316  34.935   4.254   1.022
92788W        W64317  10.897   1.337  13.980
92789W        W64318  13.274  29.533  13.928
92790W        W64319  12.674   5.911   4.460
92791W        W64320  33.153  27.547  12.990
92792W        W64321  31.887  26.762   5.350
92793W        W64322   2.627  26.325  14.412
92794W        W64323   6.742  35.634   3.674
92795W        W64324  37.491   2.894   0.015
92796W        W64325  17.538  19.039   2.690
92797W        W64326   3.766  27.135  12.387
92798W        W64327  10.623  32.579  13.302
92799W        W64328   1.216  34.537   1.916
92800W        W64329  33.079  10.100   3.669
92801W        W64330   9.775   3.316  10.831
92802W        W64331  39.182  36.050   4.234
92803W        W64332  34.666   0.983  13.224
92804W        W64333  28.993  31.178  14.900
92805W        W64334  31.968  27.403  14.076
92806W        W64335  41.527   3.170   4.494
92807W        W64336  20.373  36.975  11.520
92808W        W64337  20.507  36.450   2.921
92809W        W64338   0.062  35.888  12.531
92810W        W64339  38.552   6.032  14.912
92811W        W64340  38.388  16.015   1.263
92812W        W64341   9.147  29.614   1.330
92813W        W64342  37.763  20.281   0.708
92814W        W64343   0.959  38.655   2.294
92815W        W64344  40.543  30.916   3.589
92816W        W64345  42.123  10.739   4.507
92817W        W64346  27.904  16.328   4.379
92818W        W64347  12.207  23.786  13.665
92819W        W64348  40.556  14.251   4.083
92820W        W64349  40.683  12.827  11.334
92821W        W64350  29.450  31.902  13.048
92822W        W64351  24.190  24.504   3.866
92823W        W64352  27.618   9.653  13.419
92824W        W64353  29.826  26.130  11.562
92825W        W64354  23.973  42.079   3.446
92826W        W64355   4.814  14.807   0.935
92827W        W64356   1.565   5.552   0.453
92828W        W64357  15.528   6.068  11.136
92829W        W64358  39.961   3.223   4.664
92830W        W64359  41.877   8.639   0.886
92831W        W64360  40.937  20.998  14.989
92832W        W64361  29.854  18.277  10.348
92833W        W64362  38.772   2.549   1.850
92834W        W64363  12.240  32.961  11.741
92835W        W64364   8.323   6.363  10.240
92836W        W64365  34.394  23.359  14.181
92837W        W64366  10.307   3.312   0.402
92838W        W64367  18.640  35.626   3.662
92839W        W64368  22.948   3.243  13.803
92840W        W64369  28.125  34.865  11.817
92841W        W64370   7.216  15.732  14.211
92842W        W64371  39.309  15.786  13.848
92843W        W64372   7.894   0.897   2.534
92844W        W64373  10.874  27.027  14.308
92845W        W64374  12.863  31.475  11.311
92846W        W64375   1.509  15.915  11.369
92847W        W64376   8.637  26.585  11.873
92848W        W64377  22.097  43.496   2.296
92849W        W64378  39.214  19.220  10.757
92850W        W64379  19.348   0.590  10.661
92851W        W64380   3.839   0.712   4.063
92852W        W64381  35.736  31.032   4.940
92853W        W64382   5.802  22.218   2.171
92854W        W64383  31.207   4.459   4.576
92855W        W64384  40.062  30.001  13.834
92856W        W64385  37.479  14.892   4.589
92857W        W64386   5.125  34.446   0.655
92858W        W64387  28.019  22.034   2.736
92859W        W64388  25.971  42.858   3.833
92860W        W64389   0.272  37.405  10.774
92861W        W64390  32.925  24.583  14.538
92862W        W64391   4.182  34.606  14.018
92863W        W64392  29.491   9.235  14.336
92864W        W64393  19.015   5.303  12.012
92865W        W64394  27.052   8.071  14.773
92866W        W64395  39.321  14.650  13.928
92867W        W64396  37.907  42.736  12.101
92868W        W64397  33.033   0.914   4.855
92869W        W64398  19.476  19.107  10.676
92870W        W64399  30.142   5.869   0.686
92871W        W64400  33.612  44.742  11.956
92872W        W64401  36.446  33.669   0.043
92873W        W64402  20.751   7.783   2.386
92874W        W64403   3.277  29.437   0.860
92875W        W64404  35.048  38.926  11.968
92876W        W64405  43.160   9.611  14.875
92877W        W64406  19.417  41.030   1.988
92878W        W64407  19.272  24.009  14.036
92879W        W64408  11.615   6.298  14.476
92880W        W64409  15.084  27.942   2.832
92881W        W64410  37.059  42.189  12.682
92882W        W64411   4.276   9.838  12.871
92883W        W64412  43.350  34.653   4.684
92884W        W64413  21.804  41.736   3.349
92885W        W64414  35.493   8.410   1.009
92886W        W64415  18.542  43.472   2.867
92887W        W64416   5.952  23.046   3.981
92888W        W64417  44.435  31.815   4.145
92889W        W64418  18.801  42.721   4.161
92890W        W64419  23.336   9.344   2.385
92891W        W64420  40.999  42.319   0.374
92892W        W64421  12.838  29.452   3.599
92893W        W64422  35.452  31.786  13.888
92894W        W64423   6.865  10.697   3.780
92895W        W64424   1.976   0.425   4.405
92896W        W64425  41.156  10.341   2.956
92897W        W64426  25.619   1.276   4.292
92898W        W64427   6.479   9.195   4.363
92899W        W64428  44.894   6.520  13.485
92900W        W64429   9.757  41.250   1.565
92901W        W64430  36.586   4.730   2.862
92902W        W64431  12.545   8.372  14.430
92903W        W64432  43.315  13.106   4.263
92904W        W64433  31.102  19.810   2.235
92905W        W64434  25.875   9.268   2.204
92906W        W64435   9.201  28.929   3.575
92907W        W64436  39.912  14.389  13.273
92908W        W64437  36.592  33.287  13.341
92909W        W64438   0.005  17.982  14.485
92910W        W64439  34.608  33.024   1.217
92911W        W64440  32.900  31.528  11.882
92912W        W64441   4.734  40.026   0.641
92913W        W64442  38.983  42.325  13.359
92914W        W64443  11.138  28.085   3.332
92915W        W64444  25.741  27.058  12.500
92916W        W64445  34.951  27.136  11.847
92917W        W64446  12.095  18.761   4.775
92918W        W64447  43.377  37.273  10.576
92919W        W64448   1.748  26.288   0.005
92920W        W64449  36.883  36.575   2.564
92921W        W64450   1.742   1.483   2.277
92922W        W64451  13.168  14.208  10.734
92923W        W64452  33.036  14.024  14.923
92924W        W64453  36.093  14.974  12.115
92925W        W64454   6.277  32.471   4.660
92926W        W64455  24.922  32.854   1.765
92927W        W64456  40.813  10.336  11.910
92928W        W64457  13.908  23.154   0.843
92929W        W64458   1.822  20.060  11.541
92930W        W64459  33.071  27.921   1.418
92931W        W64460   2.012  29.580   0.086
92932W        W64461  37.567  42.731  13.556
92933W        W64462  20.300  28.841  14.477
92934W        W64463  17.764  36.587   0.331
92935W        W64464  24.484   8.104   0.307
92936W        W64465  33.941   6.935   0.090
92937W        W64466   0.240  26.638  13.360
92938W        W64467  31.043  15.892  14.615
92939W        W64468  18.849  13.228   2.369
92940W        W64469  44.256  19.296  10.920
92941W        W64470   1.845  22.292   2.451
92942W        W64471   0.984   3.207  13.892
92943W        W64472  43.244  20.755  13.994
92944W        W64473  13.079  19.990  14.473
92945W        W64474   2.972  20.161   2.680
92946W        W64475  38.528  38.447  13.268
92947W        W64476   7.268  12.272   0.189
92948W        W64477  37.022  36.608   3.639
92949W        W64478  25.302  43.174  14.362
92950W        W64479   7.363  23.713   2.770
92951W        W64480  19.629  38.895   0.336
92952W        W64481  23.930  43.739  13.709
92953W        W64482  29.432  27.690  10.601
92954W        W64483  37.518  15.483   4.195
92955W        W64484  30.274  19.303  11.719
92956W        W64485  42.049   1.801   4.498
92957W        W64486   7.761  30.739  10.704
92958W        W64487   8.325   6.539  12.072
92959W        W64488  34.987  14.575   4.093
92960W        W64489  15.879  37.316  12.408
92961W        W64490  14.072  18.907  13.222
92962W        W64491   6.001  37.523   3.614
92963W        W64492   7.378  25.532  11.615
92964W        W64493   0.010  28.929   2.302
92965W        W64494  27.441  34.114  14.846
92966W        W64495  38.333   9.186  12.027
92967W        W64496  33.637  23.271   4.295
92968W        W64497  25.256  41.503   1.738
92969W        W64498   5.436   6.181  11.629
92970W        W64499  17.889   8.198  11.759
92971W        W64500  40.908  10.284   1.428
92972W        W64501  31.591   5.881  14.547
92973W        W64502  15.176  17.466  12.326
92974W        W64503  35.767   4.252  13.954
92975W        W64504   5.878  11.575   3.807
92976W        W64505  38.397  43.177   1.199
92977W        W64506  26.533   5.196  14.188
92978W        W64507  42.442   9.860   3.430
92979W        W64508   1.520  21.738  11.491
92980W        W64509  43.050  44.905  14.023
92981W        W64510  30.184   5.047   0.963
92982W        W64511  23.761  19.895  12.362
92983W        W64512  27.569  44.995   0.016
92984W        W64513   9.402  37.827   1.910
92985W        W64514   5.602   3.913  10.959
92986W        W64515  30.117  10.790   4.497
92987W        W64516   0.368   1.439  13.071
92988W        W64517  20.123  39.028  14.491
92989W        W64518  36.635  29.599   0.238
92990W        W64519  41.305  28.643  12.075
92991W        W64520  23.732  13.968   1.166
92992W        W64521  34.539  41.792   1.475
92993W        W64522   8.785  28.993   2.898
92994W        W64523  27.208  23.619   4.503
92995W        W64524  35.088   4.790   3.274
92996W        W64525  13.651  43.464  12.104
92997W        W64526  12.178  34.066   1.848
92998W        W64527  21.615  43.999   2.810
92999W        W64528   2.314  35.508   2.628
93000W        W64529  36.040   8.277   3.237
93001W        W64530   5.736   3.703   1.797
93002W        W64531   8.271  21.232  13.328
93003W        W64532  26.076  41.830  11.208
93004W        W64533  43.564  24.799  14.393
93005W        W64534  26.087  30.014   3.019
93006W        W64535  26.512  44.367   3.551
93007W        W64536  36.341   2.597   2.345
93008W        W64537  10.636  44.550  11.691
93009W        W64538  16.322  12.157  14.972
93010W        W64539  32.136  21.968  10.707
93011W        W64540  31.199   7.442   2.478
93012W        W64541   5.039  32.123  13.957
93013W        W64542  26.115  32.015  11.713
93014W        W64543  18.205   9.277  13.771
93015W        W64544  36.868  42.081   3.825
93016W        W64545  32.594   2.526  12.688
93017W        W64546   7.078   2.237  11.103
93018W        W64547  30.192  11.752   2.043
93019W        W64548  16.452  44.968  14.836
93020W        W64549  24.992   9.203   1.262
93021W        W64550  37.303  12.814  12.405
93022W        W64551  12.639  17.782  12.879
93023W        W64552  28.865  43.328  14.268
93024W        W64553  24.916  34.649   1.339
93025W        W64554  37.005   4.500  13.408
93026W        W64555  28.646  42.829   3.238
93027W        W64556  41.956  41.244  10.463
93028W        W64557  28.389   2.817  14.946
93029W        W64558  17.149   7.871  14.761
93030W        W64559  33.056  15.268  14.017
93031W        W64560   0.279   3.471   2.235
93032W        W64561  37.617   2.245   2.229
93033W        W64562  14.647  41.743   3.327
93034W        W64563  16.209  12.226   3.649
93035W        W64564  41.028  25.567   0.017
93036W        W64565   0.209  12.215   4.366
93037W        W64566  29.677  37.935  14.425
93038W        W64567   9.014   2.075  12.506
93039W        W64568  13.216   2.095  12.578
93040W        W64569  38.359   8.930   3.008
93041W        W64570  22.965   6.916  13.380
93042W        W64571  18.107  26.912   4.590
93043W        W64572  12.329  25.714  14.317
93044W        W64573  41.697   3.925  14.366
93045W        W64574   2.408  44.025   4.707
93046W        W64575  37.847  17.240   3.619
93047W        W64576  29.412  24.848   4.106
93048W        W64577  40.335   0.329   2.681
93049W        W64578  34.615   7.257   0.370
93050W        W64579   6.197   8.163   3.210
93051W        W64580  20.662  30.733  11.516
93052W        W64581  23.939  27.110   3.646
93053W        W64582  21.484   1.885  14.954
93054W        W64583  29.628  23.163  14.795
93055W        W64584  30.831  27.778  10.945
93056W        W64585   6.654  34.087  12.444
93057W        W64586  11.005  13.715  14.532
93058W        W64587  21.616  43.788  11.472
93059W        W64588  33.608  40.068  13.944
93060W        W64589  38.480  38.586   0.310
93061W        W64590  33.902  37.018   0.965
93062W        W64591  10.137   8.734  14.741
93063W        W64592   8.848  21.081   3.364
93064W        W64593  25.570  27.393   1.533
93065W        W64594  39.803  11.938   0.961
93066W        W64595  17.658  10.778   1.813
93067W        W64596   9.401  35.109  13.949
93068W        W64597   4.252  17.364   1.380
93069W        W64598  42.841  10.018  11.831
93070W        W64599  40.297   9.363   0.948
93071W        W64600  27.433  38.569   0.891
93072W        W64601   9.228  21.396   2.632
93073W        W64602  20.112  41.013  14.763
93074W        W64603  10.231   5.913  13.591
93075W        W64604  21.960  33.411   1.231
93076W        W64605   4.718  38.061  12.996
93077W        W64606   5.400  16.815  13.992
93078W        W64607  33.962  40.147  11.984
93079W        W64608  24.060  12.087  11.835
93080W        W64609   8.696  39.500  13.616
93081W        W64610  28.454   8.670  14.976
93082W        W64611  24.919  18.705  12.004
93083W        W64612   4.674  44.017  10.224
93084W        W64613   2.323  36.601  10.511
93085W        W64614  11.133  22.119  12.080
93086W        W64615  36.048  16.519   2.545
93087W        W64616  44.534   4.820   2.910
93088W        W64617  14.579   3.432  14.843
93089W        W64618  24.576  39.554  10.492
93090W        W64619  24.058   9.848  13.766
93091W        W64620  39.547  17.449  11.506
93092W        W64621  36.471  31.929  11.980
93093W        W64622  13.721  13.852  13.963
93094W        W64623   6.148  19.268   3.624
93095W        W64624  18.675   8.729   2.143
93096W        W64625  29.862  20.428   3.250
93097W        W64626   0.988   8.042   1.822
93098W        W64627  43.257   2.223  10.927
93099W        W64628  28.578   7.849  12.489
93100W        W64629   4.903  33.901   3.329
93101W        W64630  41.047   5.560   2.469
93102W        W64631  22.410  44.792  14.610
93103W        W64632  39.697  30.180   2.122
93104W        W64633  25.754  30.393   0.398
93105W        W64634  33.073   1.293  12.422
93106W        W64635  15.238  26.785  13.024
93107W        W64636   9.912  13.251  10.645
93108W        W64637   9.642  13.599   1.718
93109W        W64638  20.333  13.826  14.324
93110W        W64639   1.345  17.645   3.616
93111W        W64640  33.124  13.517  14.921
93112W        W64641  42.530   1.967   1.493
93113W        W64642  19.732  29.598   1.448
93114W        W64643   3.633  12.666   4.711
93115W        W64644  28.851  20.196   1.800
93116W        W64645  42.870  17.568   2.494
93117W        W64646  34.530  27.103   2.800
93118W        W64647  40.648  12.600   2.697
93119W        W64648   1.488   8.374  12.982
93120W        W64649   3.117  38.736  12.253
93121W        W64650   8.270  23.929   4.913
93122W        W64651  36.998  10.562   4.769
93123W        W64652  10.826  36.058  11.703
93124W        W64653  13.547  38.517  11.497
93125W        W64654  23.004  36.482  11.648
93126W        W64655  33.879  26.661   3.359
93127W        W64656   8.662  25.248   2.138
93128W        W64657  38.914   5.370   4.832
93129W        W64658  30.932  23.740   4.254
93130W        W64659  23.521  12.035  14.288
93131W        W64660   6.661  34.304  11.581
93132W        W64661   3.165   3.263   2.283
93133W        W64662   4.316   8.940   5.203
93134W        W64663  38.425  36.911   1.934
93135W        W64664   8.335   8.146   2.947
93136W        W64665  24.134  41.547   3.266
93137W        W64666  29.046   3.476   2.821
93138W        W64667  28.412   1.417  12.089
93139W        W64668  14.579  22.479   3.636
93140W        W64669  43.191  16.752  13.406
93141W        W64670   7.269  42.891  12.492
93142W        W64671  36.161   6.426   4.066
93143W        W64672   4.410  20.528   1.676
93144W        W64673  26.654  23.144  14.808
93145W        W64674  35.814  10.311  12.073
93146W        W64675  13.469  41.876   4.755
93147W        W64676  33.760  24.425   0.538
93148W        W64677  33.099  33.112  13.820
93149W        W64678  27.029  32.267  10.271
93150W        W64679  35.138   7.953  10.798
93151W        W64680  30.200   4.838   2.326
93152W        W64681  14.861  36.416   0.378
93153W        W64682  30.179   8.286   1.207
93154W        W64683  10.210  18.707  14.594
93155W        W64684  10.186  23.224  14.653
93156W        W64685  31.869  43.282   0.283
93157W        W64686   0.858  35.134   4.631
93158W        W64687  26.402   3.252  11.281
93159W        W64688  13.146  30.089  11.006
93160W        W64689  10.382  12.700   4.113
93161W        W64690  10.466  22.585  12.752
93162W        W64691   4.351   6.863  11.617
93163W        W64692   0.849  20.314   2.291
93164W        W64693   2.286  19.575  13.079
93165W        W64694   6.716  29.137   2.203
93166W        W64695  10.582  41.911  10.661
93167W        W64696  37.060  26.671  13.853
93168W        W64697  25.774   9.774   2.869
93169W        W64698  25.489  26.981   1.225
93170W        W64699  13.661  28.540  14.482
93171W        W64700  36.362   5.690   2.902
93172W        W64701  18.576  15.576   3.715
93173W        W64702  17.120  10.067   1.644
93174W        W64703  18.572  12.413  13.416
93175W        W64704  44.720  11.893   3.677
93176W        W64705  32.442  19.948   3.692
93177W        W64706  33.333  35.532  11.224
93178W        W64707  25.299  30.049  14.380
93179W        W64708  36.240  41.895  14.965
93180W        W64709  38.631  14.907  14.899
93181W        W64710  40.847   6.520   2.300
93182W        W64711  17.607  15.717   3.375
93183W        W64712  40.980   3.874   0.406
93184W        W64713  11.052  15.313   2.375
93185W        W64714  39.328  30.126  11.136
93186W        W64715  11.621   7.608  12.655
93187W        W64716  21.028  28.606   1.576
93188W        W64717  38.272  36.595  13.956
93189W        W64718   7.595  38.523  12.058
93190W        W64719  22.842  34.980   3.768
93191W        W64720  41.459  37.797  13.506
93192W        W64721  10.365  43.470  12.563
93193W        W64722  13.740  22.223   4.071
93194W        W64723  26.509  40.771   1.085
93195W        W64724  29.920  27.045  11.835
93196W        W64725   3.372  28.962   1.354
93197W        W64726  27.617  32.763   1.902
93198W        W64727  24.150  19.951  10.616
93199W        W64728  16.595  32.985   2.202
93200W        W64729   0.970  34.932  12.144
93201W        W64730   3.704  22.988  13.508
93202W        W64731  35.510   4.354   2.278
93203W        W64732  17.160  36.417  13.806
93204W        W64733  27.076  23.442  13.774
93205W        W64734  33.575  32.152   2.672
93206W        W64735  42.426  40.572  10.677
93207W        W64736  23.453  21.682  12.517
93208W        W64737  41.427  39.800  14.337
93209W        W64738  19.265  37.770   3.682
93210W        W64739  40.108  30.884   3.872
93211W        W64740  32.952   5.493   2.789
93212W        W64741  38.867  34.923  13.471
93213W        W64742  35.117  42.913   0.874
93214W        W64743   3.012  35.544  14.331
93215W        W64744  34.876  36.569   2.429
93216W        W64745  33.581   8.818   3.812
93217W        W64746  27.127  30.861   2.268
93218W        W64747   2.686  15.988   4.113
93219W        W64748   6.933   6.911   1.382
93220W        W64749  18.998  29.789  12.143
93221W        W64750   0.509  34.409   3.875
93222W        W64751  12.738  21.976   3.767
93223W        W64752  32.249  38.958   4.823
93224W        W64753  34.335   3.858   2.874
93225W        W64754  11.487  28.754   1.671
93226W        W64755  28.118  41.569   3.205
93227W        W64756  41.421  42.918   2.272
93228W        W64757  43.866  36.427   4.323
93229W        W64758  11.675  26.964   2.626
93230W        W64759  21.038  40.515   1.856
93231W        W64760   8.793   5.392  11.535
93232W        W64761  27.777   0.483   2.763
93233W        W64762  39.381   5.408   3.220
93234W        W64763  21.267   3.144   4.094
93235W        W64764  43.287  39.323   1.720
93236W        W64765   0.060  17.561  13.481
93237W        W64766  12.546   7.809  12.220
93238W        W64767   2.389  16.882   3.372
93239W        W64768  43.461   7.400   2.741
93240W        W64769  33.079  13.112   1.655
93241W        W64770  39.326   1.974  11.259
93242W        W64771  32.866  30.206  14.492
93243W        W64772  17.788  12.261  13.506
93244W        W64773  34.951  35.788   4.147
93245W        W64774   1.219   6.291  10.627
93246W        W64775  14.464  42.995  11.418
93247W        W64776  13.357  25.706  14.272
93248W        W64777  29.142  30.067  13.984
93249W        W64778  38.369  11.106  14.004
93250W        W64779  30.572   0.359   0.355
93251W        W64780  17.653   1.272   1.879
93252W        W64781  20.554  15.362   1.426
93253W        W64782   0.028  43.840   4.930
93254W        W64783  37.314  38.276  14.859
93255W        W64784  21.299  21.093  10.853
93256W        W64785  37.597  15.806  11.555
93257W        W64786  10.560  28.825   3.612
93258W        W64787  43.907  16.233   3.679
93259W        W64788  29.333  30.521   2.785
93260W        W64789  23.703  37.747   3.448
93261W        W64790  34.082  37.726   0.261
93262W        W64791  37.495   1.068  12.402
93263W        W64792  34.378  10.212   2.332
93264W        W64793  41.888   7.423  12.459
93265W        W64794   7.757  27.799   4.312
93266W        W64795   8.222  32.206  12.037
93267W        W64796  29.170  43.388  10.626
93268W        W64797  39.645  35.856   0.743
93269W        W64798   9.837  17.643  10.689
93270W        W64799  35.576   4.861  13.861
93271W        W64800  12.679  15.176   2.269
93272W        W64801   2.060  17.316  12.140
93273W        W64802   4.170  11.143  12.701
93274W        W64803  40.261  34.097  10.729
93275W        W64804  19.737  32.716  13.104
93276W        W64805  29.569   3.450  10.422
93277W        W64806  34.816  33.480   4.548
93278W        W64807  41.501  15.665  13.430
93279W        W64808  14.010   4.706  11.360
93280W        W64809  29.987  10.632   1.318
93281W        W64810  16.993  42.798  11.153
93282W        W64811  21.688  22.728   2.648
93283W        W64812   0.469  40.731   4.123
93284W        W64813  20.223   7.676   4.162
93285W        W64814  36.351  41.012   4.189
93286W        W64815  36.488  18.771  10.631
93287W        W64816   8.662   9.448  10.999
93288W        W64817  10.646  22.963  11.099
93289W        W64818  15.779  25.666   0.893
93290W        W64819  42.783  15.076  11.591
93291W        W64820  34.721  32.237   0.795
93292W        W64821  19.242   0.015   4.130
93293W        W64822  24.028  33.824   1.822
93294W        W64823  29.804  22.128   1.741
93295W        W64824  27.784  28.035   2.198
93296W        W64825   3.236  32.190   2.607
93297W        W64826  21.150  26.168   1.778
93298W        W64827  30.551  21.164  14.818
93299W        W64828  43.719   3.540  13.195
93300W        W64829   5.141  21.747   1.261
93301W        W64830  24.042  17.670  13.611
93302W        W64831  20.204   8.802  12.127
93303W        W64832  40.110  20.084   0.435
93304W        W64833   2.705  16.654  13.776
93305W        W64834  37.308  18.599  14.388
93306W        W64835  21.983  40.139   0.289
93307W        W64836  43.555  22.326  11.578
93308W        W64837  16.959   4.699   1.852
93309W        W64838  24.930  38.336  11.959
93310W        W64839  10.705  15.367   2.008
93311W        W64840  35.576  35.906  12.811
93312W        W64841  43.635  22.670  14.349
93313W        W64842  12.545  27.283  12.589
93314W        W64843   8.620  20.382   3.405
93315W        W64844   3.281  33.197  14.377
93316W        W64845   3.166  33.396   2.407
93317W        W64846  26.768  12.722  12.055
93318W        W64847   9.779  21.173   0.373
93319W        W64848  41.615   4.514  14.019
93320W        W64849  15.160   7.038  11.872
93321W        W64850  14.346   1.768   1.360
93322W        W64851  43.243   6.323  12.508
93323W        W64852  13.844  25.221  11.198
93324W        W64853  14.709   8.206  12.982
93325W        W64854  39.811  35.006  10.831
93326W        W64855  27.455  37.472  13.093
93327W        W64856  23.982  38.613   0.984
93328W        W64857  28.706  20.193   3.343
93329W        W64858   2.711  34.021  12.116
93330W        W64859  40.506  11.193   4.081
93331W        W64860  26.439   7.941   0.749
93332W        W64861  35.261   0.433  12.585
93333W        W64862   2.428  18.915  11.025
93334W        W64863  43.811  30.217   4.768
93335W        W64864  41.420   2.181   3.201
93336W        W64865  23.941   2.456  12.443
93337W        W64866  11.774  31.633   5.065
93338W        W64867  16.155  30.102   3.930
93339W        W64868   1.945   4.175  11.546
93340W        W64869   6.354  39.835  13.498
93341W        W64870  33.876  11.808  10.277
93342W        W64871  36.075   4.587   3.010
93343W        W64872   7.311  20.284  12.816
93344W        W64873  16.040  37.952  11.642
93345W        W64874   7.855  31.952  11.140
93346W        W64875   9.664  12.680  14.243
93347W        W64876  38.837  33.663  12.472
93348W        W64877  27.776  35.117  14.909
93349W        W64878  27.797   1.615  13.950
93350W        W64879  42.312   4.035   0.117
93351W        W64880  44.444   6.627  10.801
93352W        W64881   7.171  37.304   0.324
93353W        W64882  23.961  18.109  13.868
93354W        W64883  17.368   8.251  11.608
93355W        W64884  13.231   4.768   1.027
93356W        W64885  14.100  33.780  11.621
93357W        W64886  23.232  19.987  13.912
93358W        W64887  30.221  31.852  11.198
93359W        W64888  11.681  35.757  10.188
93360W        W64889  17.772   3.999  11.542
93361W        W64890  44.209   4.826  13.591
93362W        W64891  17.751  37.578   1.602
93363W        W64892   2.803  31.628   2.274
93364W        W64893   7.314  43.398   3.806
93365W        W64894  39.258  10.213   3.279
93366W        W64895   5.308  16.356   4.828
93367W        W64896  34.463  37.491  14.319
93368W        W64897  20.219   3.145  10.429
93369W        W64898  41.045  26.187   1.766
93370W        W64899  37.323  15.181  14.992
93371W        W64900  29.226  17.595   1.968
93372W        W64901  25.144  12.291   4.461
93373W        W64902  24.729  21.624   1.380
93374W        W64903  25.229  41.723  14.398
93375W        W64904  22.201   3.512  12.110
93376W        W64905  38.083  16.081  11.118
93377W        W64906  16.716  38.624   4.241
93378W        W64907  28.435  44.775  13.170
93379W        W64908  29.717  19.278   1.609
93380W        W64909  43.892  34.499   9.702
93381W        W64910   6.288   6.404   2.659
93382W        W64911   8.395  30.022  13.845
93383W        W64912  38.268  24.037   3.358
93384W        W64913  35.772   2.888   1.441
93385W        W64914  34.320  27.773   0.977
93386W        W64915   7.265  33.304   4.611
93387W        W64916  37.036  38.028  10.618
93388W        W64917   8.216   1.051   4.145
93389W        W64918  12.742  30.076   1.369
93390W        W64919  26.951   0.421   3.316
93391W        W64920  41.924  38.780   4.617
93392W        W64921  10.821  12.321  11.659
93393W        W64922  35.777  32.704  13.992
93394W        W64923  23.090  43.466  12.076
93395W        W64924   3.254  25.151  10.699
93396W        W64925  25.908  25.220  12.654
93397W        W64926  28.020  24.728  12.137
93398W        W64927   9.535  34.277  11.914
93399W        W64928  38.091  22.622  10.951
93400W        W64929   8.639   0.883   9.822
93401W        W64930  23.099  17.092  13.324
93402W        W64931  26.760   5.822  12.115
93403W        W64932  13.647   9.788  11.668
93404W        W64933   9.350  13.269  14.826
93405W        W64934  26.070  27.729  13.244
93406W        W64935  24.280   5.447   2.519
93407W        W64936  39.784   0.695  12.545
93408W        W64937   0.509  28.576   0.288
93409W        W64938   5.659  39.369  13.723
93410W        W64939   1.363  29.161   0.467
93411W        W64940  24.006  12.756  12.700
93412W        W64941  30.684  14.532   9.732
93413W        W64942  43.168   3.441   2.330
93414W        W64943  43.480  36.963  14.341
93415W        W64944   3.418  20.076   2.401
93416W        W64945  30.071  35.352   2.595
93417W        W64946  25.207  33.907  13.121
93418W        W64947   2.286  17.336   5.153
93419W        W64948   0.465  34.351  11.372
93420W        W64949   7.201   7.914   2.662
93421W        W64950  31.419  34.836  14.277
93422W        W64951  40.836  14.859   3.499
93423W        W64952  11.654   0.614  10.284
93424W        W64953  35.393  33.414   1.288
93425W        W64954  37.862  12.358  12.865
93426W        W64955   6.117  22.127   3.605
93427W        W64956  26.642  13.638   2.421
93428W        W64957  43.612   5.270   2.405
93429W        W64958  32.616  14.064   4.202
93430W        W64959  14.887  24.119  14.906
93431W        W64960  41.352  25.882   3.568
93432W        W64961  10.953   1.632   5.228
93433W        W64962  24.687  27.845   3.270
93434W        W64963  23.953  23.188  11.980
93435W        W64964  11.669  17.756   1.673
93436W        W64965  14.111  27.420   0.411
93437W        W64966   0.233  10.081   4.160
93438W        W64967  39.547  11.491   3.484
93439W        W64968  12.789   0.352   1.843
93440W        W64969  25.640  35.679   2.737
93441W        W64970  16.717  16.618  14.210
93442W        W64971  39.752  33.440  12.974
93443W        W64972   1.918  30.494  13.467
93444W        W64973  11.045  21.022  13.222
93445W        W64974  22.041  38.434   1.429
93446W        W64975  17.366   0.243  13.030
93447W        W64976  31.535   2.365  14.045
93448W        W64977  13.997  34.082  14.854
93449W        W64978  43.442   0.891  13.789
93450W        W64979  42.389  32.027  13.864
93451W        W64980   1.398  43.586  12.930
93452W        W64981   4.340   3.163  12.056
93453W        W64982   0.444   4.690   2.969
93454W        W64983   9.273   3.469   2.270
93455W        W64984  41.845  15.376  14.399
93456W        W64985  43.091  42.705  11.532
93457W        W64986   1.591  33.955   0.695
93458W        W64987  19.158  39.417   4.613
93459W        W64988  18.324  41.947   2.056
93460W        W64989  24.030  40.965   1.682
93461W        W64990  37.630   8.173   2.366
93462W        W64991   6.861  13.369  14.413
93463W        W64992  31.677  17.274   2.665
93464W        W64993  11.712  21.095  13.595
93465W        W64994  29.067  26.668   4.693
93466W        W64995  24.148   8.730  14.868
93467W        W64996  18.305  28.807   4.472
93468W        W64997  23.417  41.518   2.237
93469W        W64998   5.537  18.696   3.096
93470W        W64999   0.482  40.811  11.759
93471W        W65000  42.782  34.005   2.257
93472W        W65001  28.360   0.891   4.594
93473W        W65002   0.323  24.628   4.937
93474W        W65003   9.678  15.634  14.523
93475W        W65004  27.918  25.085   3.880
93476W        W65005   4.773  33.116   1.338
93477W        W65006   0.879   2.343  11.540
93478W        W65007  28.854  43.656  11.550
93479W        W65008  23.237  21.245   2.249
93480W        W65009  16.721  14.528  14.313
93481W        W65010  24.905  17.062  12.909
93482W        W65011  17.929  32.781   1.908
93483W        W65012  10.925   4.773  11.840
93484W        W65013  27.488  38.428   2.278
93485W        W65014  24.743  25.231  14.209
93486W        W65015  21.072   1.474  12.173
93487W        W65016   9.301   7.137  11.114
93488W        W65017  26.543  14.141   1.247
93489W        W65018  20.623  44.541  11.058
93490W        W65019  14.560  39.126   3.956
93491W        W65020  33.050  12.319   4.825
93492W        W65021  35.621  17.142  12.080
93493W        W65022  15.481   6.869  14.371
93494W        W65023  44.561  36.866  12.396
93495W        W65024   6.827   7.803   4.157
93496W        W65025   3.686  13.104  13.946
93497W        W65026  31.427  17.476   2.267
93498W        W65027  33.267  43.025   9.873
93499W        W65028   0.360   9.749  13.845
93500W        W65029  22.929  40.495  11.223
93501W        W65030  22.152  26.214  10.737
93502W        W65031  15.798   3.787   0.471
93503W        W65032   2.815  41.988   0.264
93504W        W65033  43.406  10.262  11.195
93505W        W65034  26.939  13.836  10.726
93506W        W65035   0.051  19.130   2.396
93507W        W65036  12.856  37.652   2.389
93508W        W65037  11.423  22.549   2.671
93509W        W65038  13.714  12.584  13.477
93510W        W65039  25.197  34.329   2.744
93511W        W65040  22.245  16.362   2.744
93512W        W65041  43.117  39.669  13.023
93513W        W65042  32.402  14.223  11.619
93514W        W65043   3.766  31.954  14.515
93515W        W65044  44.967  16.536   2.854
93516W        W65045  40.366  21.307   4.581
93517W        W65046   3.770  17.762   3.610
93518W        W65047  42.882   8.969  12.078
93519W        W65048  26.014  14.074   1.367
93520W        W65049  21.600  14.849   3.040
93521W        W65050  42.291  25.489   2.193
93522W        W65051  22.248  19.613  12.293
93523W        W65052  31.222  19.311   2.392
93524W        W65053  22.561   8.187   3.309
93525W        W65054   0.859   8.740   0.716
93526W        W65055  18.146  20.134  10.651
93527W        W65056  39.134  42.853   4.250
93528W        W65057   3.779   1.499   3.455
93529W        W65058   6.357  16.151  13.990
93530W        W65059  39.546  23.733  11.442
93531W        W65060  41.006  14.674   0.221
93532W        W65061  31.482  40.542  13.963
93533W        W65062   8.895  43.986  14.779
93534W        W65063   1.519   4.891  11.139
93535W        W65064  21.617  31.601   2.549
93536W        W65065  27.663  37.663  10.140
93537W        W65066  16.716  23.051  12.719
93538W        W65067  22.608  28.395  14.139
93539W        W65068  39.892  27.806  12.288
93540W        W65069  26.876  11.865   1.393
93541W        W65070  15.183  44.744   0.739
93542W        W65071   3.867   0.556   2.745
93543W        W65072   7.693   2.011  14.932
93544W        W65073  35.012  20.540  13.160
93545W        W65074  41.710   5.884  12.940
93546W        W65075  38.945  21.321   3.989
93547W        W65076  39.370  43.980  13.831
93548W        W65077   9.610  42.375   2.342
93549W        W65078  14.726  37.562   4.246
93550W        W65079  16.359  43.233   1.752
93551W        W65080  18.350  31.588   1.241
93552W        W65081   0.999  33.137   0.944
93553W        W65082  23.619  24.069  14.400
93554W        W65083  21.512  34.633  13.069
93555W        W65084  16.156  21.712  14.872
93556W        W65085  27.600  23.045  10.939
93557W        W65086   6.786   5.859  10.945
93558W        W65087  18.694  21.586   3.813
93559W        W65088  24.519  19.745   1.027
93560W        W65089  27.101   2.638   2.730
93561W        W65090  21.539  36.121  14.162
93562W        W65091   8.254   7.605   0.310
93563W        W65092  31.910  32.550   2.362
93564W        W65093   3.270  29.721  11.250
93565W        W65094   3.188   9.837  11.027
93566W        W65095  11.387   6.330   0.944
93567W        W65096  20.594   6.896  12.810
93568W        W65097  21.363  19.685   1.978
93569W        W65098  34.859  32.331   3.729
93570W        W65099   8.317  21.152  12.410
93571W        W65100  34.815  14.252   3.608
93572W        W65101  29.011   1.968  11.099
93573W        W65102  38.328  44.266   3.643
93574W        W65103  30.903  11.757  13.552
93575W        W65104  32.616   9.883   3.646
93576W        W65105  41.889  39.862  14.587
93577W        W65106  35.965  21.175  12.981
93578W        W65107  36.830   4.358   1.920
93579W        W65108   5.349  33.974   0.489
93580W        W65109  13.065  26.011  12.858
93581W        W65110  18.189  27.471   5.443
93582W        W65111  31.319  29.470   2.608
93583W        W65112   1.907   8.857  11.236
93584W        W65113  17.656  19.118   3.176
93585W        W65114  36.318  11.253  13.182
93586W        W65115  43.399   2.677   3.617
93587W        W65116  43.999  33.030  12.515
93588W        W65117  12.275  35.860  11.082
93589W        W65118  10.822   1.341   3.347
93590W        W65119  31.637  36.677  11.050
93591W        W65120  25.497  42.136  14.241
93592W        W65121   0.048  28.397   0.467
93593W        W65122  41.434  19.280  12.878
93594W        W65123  32.593  29.991   3.758
93595W        W65124  26.649  11.892   2.655
93596W        W65125  12.931   2.691   2.818
93597W        W65126  24.207   9.722   1.666
93598W        W65127  31.442  27.540   3.289
93599W        W65128  19.117  12.704  10.379
93600W        W65129  24.739  31.415  11.164
93601W        W65130  36.026  19.632  12.643
93602W        W65131   0.915  31.401  11.231
93603W        W65132  41.923   7.946  12.387
93604W        W65133  40.026  40.108   2.370
93605W        W65134  27.880  40.920  11.917
93606W        W65135  21.492  40.485   2.787
93607W        W65136  24.761  39.090   2.435
93608W        W65137  37.886   3.144  10.666
93609W        W65138   8.960  39.873   2.777
93610W        W65139  31.241   3.352  11.096
93611W        W65140  31.154   5.241  12.951
93612W        W65141  39.002   6.140   3.582
93613W        W65142  40.943   0.495   0.848
93614W        W65143  22.300  27.456   1.224
93615W        W65144   3.683   7.964   1.903
93616W        W65145  28.263  35.073  11.352
93617W        W65146  22.958   0.881   5.018
93618W        W65147  41.427   0.539  13.940
93619W        W65148  32.922  42.483  11.157
93620W        W65149  43.908   3.775  11.530
93621W        W65150  14.088  29.215   3.140
93622W        W65151   1.217   1.439   0.292
93623W        W65152  18.125  18.651  14.053
93624W        W65153  20.031   3.233  13.541
93625W        W65154  13.891   4.279   1.447
93626W        W65155   5.523   3.378   4.518
93627W        W65156  24.828  44.964   2.139
93628W        W65157  43.426  12.853  14.844
93629W        W65158  13.254  41.503   3.199
93630W        W65159  10.182  31.953   4.672
93631W        W65160  23.823   5.322   1.287
93632W        W65161  24.611  33.437  12.045
93633W        W65162  31.061  22.050   3.664
93634W        W65163  19.543  34.562  10.481
93635W        W65164  35.150  19.058  10.510
93636W        W65165  39.816  12.201  10.875
93637W        W65166  37.594  31.574  11.138
93638W        W65167  26.641  37.020   3.670
93639W        W65168  28.393  27.246   1.217
93640W        W65169   7.558  30.953   4.678
93641W        W65170  27.218  23.655   2.693
93642W        W65171  41.044  17.779  14.943
93643W        W65172  41.017  40.188  14.268
93644W        W65173  39.423  40.784   3.276
93645W        W65174  38.047  26.083   4.885
93646W        W65175  28.036  16.894   4.374
93647W        W65176  39.961   4.362   1.897
93648W        W65177  11.477  30.485  11.550
93649W        W65178  11.659  42.920  13.450
93650W        W65179  37.889  26.558   4.640
93651W        W65180  17.175  42.734  13.437
93652W        W65181  24.064  42.994   3.341
93653W        W65182  42.086  29.484  11.111
93654W        W65183  34.423  44.484  11.191
93655W        W65184  31.616  33.435  13.983
93656W        W65185  37.495  22.318  14.787
93657W        W65186  18.552  27.951  11.942
93658W        W65187  15.759  21.132  11.495
93659W        W65188  42.415  10.393  12.891
93660W        W65189  35.330  18.226   0.001
93661W        W65190   0.008  43.927   0.381
93662W        W65191  27.415  17.741  14.421
93663W        W65192  19.573  12.100   1.763
93664W        W65193  32.865  43.661   0.435
93665W        W65194  29.171   0.875   0.253
93666W        W65195  33.439  16.435  10.666
93667W        W65196  22.769  31.689  12.944
93668W        W65197  42.341  40.864  13.867
93669W        W65198  22.913  14.076   2.633
93670W        W65199  26.275  39.382   0.932
93671W        W65200  20.226   1.871  10.729
93672W        W65201  20.655  20.629   2.227
93673W        W65202  28.518  34.931   4.270
93674W        W65203  34.668  18.074   2.803
93675W        W65204  42.359   5.146  13.847
93676W        W65205   0.897  18.886  13.110
93677W        W65206  10.604  32.905  10.644
93678W        W65207  21.582  16.513   0.502
93679W        W65208   6.609  42.955   2.098
93680W        W65209  31.699   6.449   3.903
93681W        W65210  28.286  25.574  12.077
93682W        W65211  26.557  38.178   1.688
93683W        W65212   4.146  14.938  11.839
93684W        W65213  35.389  42.588   3.210
93685W        W65214  26.412  10.893  13.854
93686W        W65215  21.191  36.898   3.266
93687W        W65216  13.969  42.844  11.534
93688W        W65217  14.102  21.601  10.711
93689W        W65218   3.938  25.597  13.016
93690W        W65219   6.335  14.782   4.596
93691W        W65220  44.043  19.764   1.263
93692W        W65221   1.566  20.164  13.915
93693W        W65222  25.014   5.876   4.871
93694W        W65223  21.327   0.245  10.209
93695W        W65224  44.524  31.535  14.410
93696W        W65225  13.648   8.108   4.091
93697W        W65226  33.605  13.575  11.042
93698W        W65227  30.915  37.226  11.982
93699W        W65228  42.370   7.271   3.885
93700W        W65229  34.382   4.783  10.318
93701W        W65230  24.560  14.809   3.258
93702W        W65231  16.211  33.965  14.522
93703W        W65232   2.040  30.896  10.607
93704W        W65233  30.390   8.101  11.967
93705W        W65234  10.573  21.650  12.781
93706W        W65235  40.093  43.836  13.452
93707W        W65236   8.316  19.128   1.121
93708W        W65237  31.877  14.422   3.876
93709W        W65238  24.485  31.537  11.588
93710W        W65239  39.296  16.511  10.891
93711W        W65240  39.960  15.676  14.264
93712W        W65241  32.647   0.680   4.509
93713W        W65242  28.713  22.277  10.682
93714W        W65243  10.854  42.334   1.316
93715W        W65244  42.102   3.664  12.675
93716W        W65245  36.107   5.291   0.930
93717W        W65246  19.183  18.154  11.905
93718W        W65247  37.807   3.783  11.488
93719W        W65248  43.458  27.803   2.247
93720W        W65249  20.912  28.012  10.249
93721W        W65250  22.635   5.575  10.241
93722W        W65251  42.498  17.742   3.620
93723W        W65252  17.663   2.263   2.203
93724W        W65253  19.682  30.086   3.253
93725W        W65254  19.757  13.553  14.265
93726W        W65255  34.835  29.524   3.754
93727W        W65256  42.902  27.899  13.046
93728W        W65257  16.620  19.582  12.951
93729W        W65258  27.953  33.464   2.843
93730W        W65259  29.117  19.528   3.870
93731W        W65260  26.418  34.146   1.775
93732W        W65261  24.976  22.727  11.934
93733W        W65262  23.541   2.711  14.809
93734W        W65263  29.365  27.886   4.223
93735W        W65264   7.784   7.680   0.909
93736W        W65265  19.690  28.936  14.888
93737W        W65266  38.369  35.471   1.220
93738W        W65267  37.619  22.083   2.753
93739W        W65268   9.281   1.668   1.291
93740W        W65269   8.723  25.535   3.864
93741W        W65270  16.831  43.453   1.603
93742W        W65271  39.303  23.687   3.242
93743W        W65272  36.451  32.608   4.400
93744W        W65273   4.197  20.658   2.831
93745W        W65274  20.006   4.612   0.317
93746W        W65275  33.887   0.763   4.652
93747W        W65276   1.016  44.433  12.511
93748W        W65277   3.122  26.690   3.772
93749W        W65278   7.355  38.310   2.185
93750W        W65279   1.345  25.843   3.309
93751W        W65280  32.953  36.630  14.294
93752W        W65281   1.871  25.856  10.699
93753W        W65282  16.549  39.711   3.355
93754W        W65283   9.786  15.118   1.849
93755W        W65284  17.507  15.877   1.402
93756W        W65285  12.310   4.644  13.093
93757W        W65286  30.439  14.294   2.549
93758W        W65287  10.312   5.486   2.176
93759W        W65288  16.057  18.101   0.270
93760W        W65289   6.949  29.032   0.257
93761W        W65290  43.326  34.171  12.177
93762W        W65291  38.015  15.323   1.574
93763W        W65292  22.731  12.074  10.672
93764W        W65293  43.929  11.823   1.288
93765W        W65294  24.558   3.321  14.836
93766W        W65295   9.628  14.880  11.639
93767W        W65296  40.282  16.853  11.608
93768W        W65297  16.211   2.257   1.836
93769W        W65298  22.130  30.661  13.110
93770W        W65299   5.490  35.722   2.909
93771W        W65300  37.868  36.181   4.613
93772W        W65301  26.089   1.308   3.437
93773W        W65302  41.290  25.167  12.456
93774W        W65303  36.049  36.012  13.018
93775W        W65304  19.119   8.715   1.191
93776W        W65305  20.609  27.661   2.942
93777W        W65306  13.726  26.681  11.504
93778W        W65307  33.655  18.143   0.490
93779W        W65308  31.961  23.059   2.842
93780W        W65309  15.608   8.078   1.779
93781W        W65310  38.165  12.860   3.171
93782W        W65311  10.982  42.710  11.139
93783W        W65312  41.990  36.855  13.931
93784W        W65313  10.061  30.219   3.706
93785W        W65314   3.461  18.339   1.475
93786W        W65315   0.245  11.052   3.153
93787W        W65316  10.811  41.808   0.255
93788W        W65317  10.551   5.082  10.001
93789W        W65318  37.751  30.016  12.096
93790W        W65319  32.985  20.536  14.447
93791W        W65320  21.322  43.221  12.509
93792W        W65321  30.451  24.517  11.897
93793W        W65322   2.222   7.813   2.339
93794W        W65323   3.685   6.217   2.311
93795W        W65324   8.905   0.440   3.169
93796W        W65325   2.440  34.683   4.270
93797W        W65326   3.907  15.622   3.743
93798W        W65327  40.362  16.421  14.353
93799W        W65328  38.055  41.773  10.737
93800W        W65329   7.662  27.556   2.146
93801W        W65330  21.040  20.176  10.645
93802W        W65331  18.572  10.972   1.339
93803W        W65332  29.068  15.213  14.809
93804W        W65333  32.842  24.048   1.847
93805W        W65334  15.628  39.289  12.559
93806W        W65335  34.913  35.206  10.398
93807W        W65336  33.568  20.706  13.071
93808W        W65337  18.149  17.758   0.074
93809W        W65338  17.585   0.309   4.402
93810W        W65339   2.373  25.843  11.057
93811W        W65340  13.219  42.941  10.693
93812W        W65341  37.539   2.615  12.504
93813W        W65342  32.182  24.645  11.499
93814W        W65343  18.376  13.534   1.780
93815W        W65344   1.848   5.372   4.093
93816W        W65345  14.818  41.072   1.738
93817W        W65346  18.769  17.730   4.497
93818W        W65347   9.009  19.442   5.161
93819W        W65348  44.340  28.453  13.493
93820W        W65349  34.082   2.560   1.253
93821W        W65350  10.629  34.047   2.728
93822W        W65351  32.603   0.524  11.752
93823W        W65352  17.279   3.043  11.540
93824W        W65353  35.997   8.885  11.733
93825W        W65354  35.073  14.774   4.564
93826W        W65355  35.304  22.385   1.822
93827W        W65356   4.000  14.353   0.395
93828W        W65357  18.993  41.493  13.391
93829W        W65358   2.895  24.968  13.396
93830W        W65359   4.821  23.170  10.566
93831W        W65360  29.184  10.674   2.684
93832W        W65361  41.425  21.709   0.279
93833W        W65362  28.035  15.176  11.938
93834W        W65363  36.364  22.118  13.827
93835W        W65364  10.370   8.608   2.776
93836W        W65365   0.537  33.039  11.622
93837W        W65366   1.609   8.258  12.219
93838W        W65367  26.445  19.433  10.415
93839W        W65368  19.340  14.597  13.407
93840W        W65369  20.472   2.656   2.792
93841W        W65370  29.118  23.220  12.834
93842W        W65371  35.401  11.326   2.343
93843W        W65372  42.432  44.941   2.743
93844W        W65373  36.460  35.325  13.518
93845W        W65374  44.726  11.745  13.969
93846W        W65375  30.000  32.640  10.817
93847W        W65376  26.946  24.450  14.868
93848W        W65377  32.925  30.116  12.538
93849W        W65378  38.497  27.414  13.517
93850W        W65379  15.324  16.619   4.752
93851W        W65380   3.865  36.886  13.034
93852W        W65381  17.993   3.665  12.882
93853W        W65382  12.942  39.424   4.214
93854W        W65383  11.380  14.577  14.888
93855W        W65384   9.613  30.605   3.822
93856W        W65385  31.040  31.425   4.570
93857W        W65386  42.913  19.059  12.063
93858W        W65387  34.296   7.711   2.194
93859W        W65388  34.656  21.298   4.978
93860W        W65389  20.777  25.255   4.123
93861W        W65390  27.960  15.979  13.452
93862W        W65391  39.862  41.431  12.346
93863W        W65392  43.989  29.094   1.329
93864W        W65393   7.028  37.464  12.832
93865W        W65394  28.093  10.995  11.495
93866W        W65395   7.471  10.502  12.086
93867W        W65396   8.809  39.612  14.101
93868W        W65397  26.732  42.072  11.153
93869W        W65398   3.220   9.218   0.907
93870W        W65399  36.826  18.660   4.712
93871W        W65400   0.951  18.247  12.967
93872W        W65401   8.669   0.454  11.634
93873W        W65402  17.658  35.769   4.630
93874W        W65403   9.727  23.498   0.837
93875W        W65404  27.892   5.285  12.802
93876W        W65405  41.609  38.870  14.385
93877W        W65406  43.493   8.088  13.454
93878W        W65407  31.812   8.114  11.909
93879W        W65408  23.965  28.435  13.515
93880W        W65409  41.420  35.478  14.000
93881W        W65410  39.067  43.304   2.789
93882W        W65411  19.184  10.914   0.899
93883W        W65412  44.946   4.829  12.273
93884W        W65413  14.005  10.625  13.108
93885W        W65414  24.821   1.486   1.032
93886W        W65415  34.525   8.861  13.771
93887W        W65416  14.684  28.203  14.410
93888W        W65417   9.260   6.324   3.275
93889W        W65418   9.857  11.377  13.326
93890W        W65419  14.912  10.232   1.138
93891W        W65420  41.069  19.707  10.369
93892W        W65421  14.726  19.197   1.208
93893W        W65422  16.483  36.400  11.582
93894W        W65423  13.763   5.635   0.453
93895W        W65424  16.695  27.490  13.547
93896W        W65425  40.810   1.023   1.168
93897W        W65426   8.268  43.870  12.132
93898W        W65427  12.161   8.849  11.811
93899W        W65428  39.152  28.189   1.443
93900W        W65429  43.065  38.473   0.009
93901W        W65430  10.105  12.342   3.869
93902W        W65431  27.194  19.981  12.851
93903W        W65432  27.406  41.534   0.456
93904W        W65433  19.031  42.793   1.288
93905W        W65434  29.584  41.688  10.240
93906W        W65435  11.082  21.091   3.812
93907W        W65436  29.759  21.124   0.794
93908W        W65437  42.348   0.047   1.219
93909W        W65438   8.762  12.756  10.681
93910W        W65439  24.711   3.154  11.497
93911W        W65440  41.136  44.320   0.174
93912W        W65441  21.138  20.999  14.675
93913W        W65442  16.609  42.560  10.391
93914W        W65443  23.447   7.688  13.357
93915W        W65444  32.993  30.286   2.065
93916W        W65445  39.081   0.738   3.199
93917W        W65446   0.350   7.111  13.867
93918W        W65447  44.287  36.479  13.121
93919W        W65448  19.720   8.509  10.692
93920W        W65449   1.853  39.992  12.242
93921W        W65450  23.431  28.678   1.405
93922W        W65451  44.833  13.332   1.375
93923W        W65452  38.466  44.926  14.471
93924W        W65453  38.589   3.522  12.421
93925W        W65454   2.903  12.115  14.863
93926W        W65455  15.576  44.494   0.944
93927W        W65456   6.118  34.697  11.163
93928W        W65457   0.347  41.885   4.461
93929W        W65458  25.797  24.686  11.579
93930W        W65459  42.604  22.093  12.453
93931W        W65460  39.004  29.504  11.955
93932W        W65461  19.674   4.829   1.540
93933W        W65462  13.662   9.777   4.766
93934W        W65463  19.960  41.241  13.517
93935W        W65464  14.847  19.796  12.494
93936W        W65465  40.504  14.718   3.867
93937W        W65466   8.100  38.994  11.476
93938W        W65467  17.045  18.157   2.702
93939W        W65468  25.798  16.384  11.949
93940W        W65469  39.888  44.523  12.145
93941W        W65470  38.883  19.328   1.362
93942W        W65471  24.662   0.412   4.571
93943W        W65472   4.689  18.746  12.195
93944W        W65473   2.936  11.734   3.723
93945W        W65474  22.767  26.511   2.220
93946W        W65475   9.811  22.014  10.499
93947W        W65476  14.782  16.916   0.385
93948W        W65477  29.915  43.455  11.677
93949W        W65478  28.606  26.907   2.832
93950W        W65479  33.994  12.686  13.971
93951W        W65480  17.133  21.441   2.744
93952W        W65481  20.712  37.590   1.375
93953W        W65482   8.913  30.199  12.618
93954W        W65483  29.927  39.779  13.352
93955W        W65484   6.044  29.050  13.375
93956W        W65485  36.457  34.008  13.848
93957W        W65486   1.957  40.454   4.234
93958W        W65487  43.273  38.526  11.617
93959W        W65488  32.514   6.312   3.076
93960W        W65489  43.782  16.089  13.918
93961W        W65490  14.468  20.565  13.606
93962W        W65491  31.409  28.454  12.634
93963W        W65492  39.022  10.827  14.121
93964W        W65493  14.705  34.022  12.840
93965W        W65494  23.614  25.706   2.566
93966W        W65495  42.800  34.926   0.343
93967W        W65496  34.709  22.326   4.937
93968W        W65497  25.382  11.346   3.333
93969W        W65498  29.807  29.137   4.295
93970W        W65499   2.617  34.290  12.934
93971W        W65500  41.390  35.523   1.659
93972W        W65501  40.827  16.175   0.110
93973W        W65502  11.934  31.466   2.445
93974W        W65503  10.204  44.364   1.180
93975W        W65504  11.596  15.342  13.468
93976W        W65505  42.526  26.098   0.120
93977W        W65506  19.125  26.592  12.104
93978W        W65507  26.917  40.440  10.753
93979W        W65508   5.692   4.647   4.086
93980W        W65509  13.823  44.501  13.767
93981W        W65510   5.801   3.829  12.271
93982W        W65511  43.400  32.903   3.796
93983W        W65512   1.317  28.982   2.924
93984W        W65513  13.845  32.801  13.346
93985W        W65514  24.180  16.549  13.454
93986W        W65515   0.371  42.495  11.760
93987W        W65516  20.939   2.842   2.699
93988W        W65517  23.102  15.596   0.332
93989W        W65518  17.650  31.407   2.742
93990W        W65519  40.443  32.675  12.350
93991W        W65520   4.224  36.083   2.587
93992W        W65521  11.598  31.073   2.306
93993W        W65522  29.339   9.909   3.845
93994W        W65523  22.699  19.496  10.171
93995W        W65524  43.962  43.602   0.657
93996W        W65525  14.717  16.639   1.756
93997W        W65526   9.780  31.325  12.347
93998W        W65527  16.871  16.387   0.715
93999W        W65528  40.038  43.916   0.977
94000W        W65529  42.491  14.301   4.092
94001W        W65530  19.761  22.070   2.462
94002W        W65531  28.644  22.119  14.760
94003W        W65532  33.122  41.789  14.006
94004W        W65533   1.919   7.335   0.626
94005W        W65534  40.773   7.084   2.275
94006W        W65535   4.294   6.265  10.747
94007W        W65536  38.065  19.635   4.202
94008W        W65537   3.762  13.600   4.417
94009W        W65538  18.541  23.715   4.960
94010W        W65539  14.480   3.367   4.619
94011W        W65540  42.865  23.959   3.736
94012W        W65541  40.703  30.395  13.956
94013W        W65542   3.131  36.939  10.258
94014W        W65543  41.973   3.493  14.311
94015W        W65544   3.299  23.129  11.951
94016W        W65545  37.631  20.708   0.965
94017W        W65546   4.933  17.537  14.796
94018W        W65547  12.265   4.453  10.800
94019W        W65548  13.885  23.103   3.693
94020W        W65549  27.021   1.915  11.825
94021W        W65550  44.935  17.380  13.947
94022W        W65551   9.870  42.798   3.394
94023W        W65552  12.870  40.958  10.731
94024W        W65553  34.146  18.816   4.530
94025W        W65554  11.360  19.036  12.508
94026W        W65555   8.817  33.586  14.752
94027W        W65556  14.343  30.158   4.163
94028W        W65557  15.861  30.318  13.405
94029W        W65558  32.766  23.062   3.491
94030W        W65559  21.202  14.091   0.219
94031W        W65560  31.488  19.331  14.006
94032W        W65561  32.521   7.514   4.526
94033W        W65562  22.245   0.213  12.260
94034W        W65563  23.199   1.528  13.354
94035W        W65564   3.908   7.363  13.852
94036W        W65565  24.980  17.457  11.523
94037W        W65566  30.542  35.105  14.535
94038W        W65567  26.501   0.775   3.723
94039W        W65568  37.622  35.032   2.455
94040W        W65569   1.363   5.830   0.833
94041W        W65570   9.781   7.278   4.708
94042W        W65571  43.361  14.251   1.263
94043W        W65572  29.788  22.550  14.491
94044W        W65573  37.569  32.573  12.718
94045W        W65574  11.031  34.531  10.925
94046W        W65575  24.943  39.458  14.025
94047W        W65576  13.599   6.930   4.702
94048W        W65577  30.628  23.570  12.237
94049W        W65578  30.715  28.196  12.408
94050W        W65579   5.033   6.204   1.312
94051W        W65580  20.761  39.527   2.352
94052W        W65581  42.928  31.932   3.787
94053W        W65582  39.426   0.012   2.639
94054W        W65583  36.588  40.765   3.811
94055W        W65584   7.305  39.870  13.589
94056W        W65585  40.753   6.273  10.807
94057W        W65586   9.672  33.996  13.594
94058W        W65587  44.927  18.989   0.784
94059W        W65588  16.295  29.948  12.120
94060W        W65589  24.231  14.288   1.978
94061W        W65590  15.677   9.223   4.480
94062W        W65591  35.495  32.861   1.254
94063W        W65592  27.752   0.120   4.281
94064W        W65593  25.667  31.634   3.406
94065W        W65594  13.313  15.787  12.671
94066W        W65595  25.990  19.273   1.248
94067W        W65596  15.164  42.682   4.135
94068W        W65597  16.882  10.835   2.808
94069W        W65598  18.703  22.561  11.891
94070W        W65599  20.614   1.393  12.499
94071W        W65600  11.955  33.531   1.098
94072W        W65601  25.024   6.424  11.238
94073W        W65602  15.198  34.155   3.072
94074W        W65603   6.040  17.258   5.298
94075W        W65604  40.036  37.872  14.543
94076W        W65605  25.940  18.714  12.943
94077W        W65606  35.852  40.244   4.115
94078W        W65607   8.625  14.778   4.318
94079W        W65608   1.447  32.455   1.373
94080W        W65609  36.846  11.690  12.139
94081W        W65610  40.234  11.617  10.340
94082W        W65611  30.897  19.567   4.541
94083W        W65612  36.921  22.291  13.029
94084W        W65613  43.317  15.980  13.053
94085W        W65614   2.752  42.486  14.355
94086W        W65615  23.542  39.376  13.739
94087W        W65616  17.142  17.697   0.926
94088W        W65617  23.142  10.749  12.727
94089W        W65618  12.405  36.616  14.914
94090W        W65619  14.475  31.479   1.371
94091W        W65620  11.811  16.704   4.106
94092W        W65621  30.138  12.356  12.408
94093W        W65622  36.084  38.541   1.197
94094W        W65623  17.489  13.256  11.261
94095W        W65624   9.795  17.194  10.459
94096W        W65625  36.554   7.843   4.248
94097W        W65626  16.849  13.759  13.994
94098W        W65627  14.996   1.241   1.157
94099W        W65628  32.865   9.166   2.272
94100W        W65629  43.012  29.295  14.704
94101W        W65630  20.742  32.690   3.403
94102W        W65631  30.227   1.029  12.561
94103W        W65632  40.810  33.677   3.258
94104W        W65633  25.469   7.942  13.291
94105W        W65634   8.348  10.107   1.494
94106W        W65635   9.402  41.656   0.728
94107W        W65636   8.657  24.921  10.660
94108W        W65637  25.566  25.010   3.792
94109W        W65638  35.726  25.048   4.782
94110W        W65639  34.725   9.928   3.237
94111W        W65640  30.345  39.211  14.414
94112W        W65641  32.836   2.092  11.999
94113W        W65642   6.215   5.439  13.294
94114W        W65643  15.498  44.853   1.539
94115W        W65644  30.199  18.344  14.917
94116W        W65645   0.297  12.264  14.326
94117W        W65646  31.660   5.888  11.210
94118W        W65647  36.019  11.071   2.331
94119W        W65648   2.730  19.304  13.835
94120W        W65649  41.648  23.327   4.191
94121W        W65650  40.382  25.374   5.069
94122W        W65651   3.719  19.103  12.483
94123W        W65652   4.998  26.951  11.035
94124W        W65653   1.292   0.930   3.756
94125W        W65654  20.146  35.341   0.022
94126W        W65655  18.696  27.738   1.136
94127W        W65656  25.557  23.669   0.860
94128W        W65657  44.807  37.124   1.743
94129W        W65658  32.951  39.151  13.227
94130W        W65659   7.624  43.775   1.241
94131W        W65660  38.364  32.468  12.064
94132W        W65661  23.057  31.498  12.557
94133W        W65662  29.033   5.966  13.416
94134W        W65663  14.981  35.311   1.935
94135W        W65664  15.991   1.237  12.567
94136W        W65665  23.951  23.638   3.702
94137W        W65666  36.349   3.355  14.331
94138W        W65667  15.710   7.060  11.083
94139W        W65668  19.075  39.365   1.194
94140W        W65669  36.111   6.823   1.436
94141W        W65670   2.985  33.454  14.686
94142W        W65671   4.090   3.193   3.321
94143W        W65672   8.266  37.998  12.840
94144W        W65673  42.626  36.443   2.472
94145W        W65674   0.973  12.760   3.400
94146W        W65675  27.794  42.341  10.261
94147W        W65676  35.440  44.343  11.011
94148W        W65677   0.737  17.831  12.729
94149W        W65678  28.021   5.305  10.400
94150W        W65679  23.504  21.743  10.709
94151W        W65680   3.463  27.429  11.452
94152W        W65681  10.939  25.134  13.510
94153W        W65682  29.075  41.868   2.606
94154W        W65683   6.389   3.676  11.610
94155W        W65684  35.606  20.707  13.843
94156W        W65685  14.637  13.951  14.611
94157W        W65686  22.122  34.273   0.976
94158W        W65687  30.383  26.573   2.302
94159W        W65688  23.154  40.290  13.896
94160W        W65689  26.667  17.495  11.956
94161W        W65690  41.533  24.452   4.880
94162W        W65691  27.154  22.983  14.911
94163W        W65692  43.930  39.988   4.692
94164W        W65693  32.787  10.099   2.247
94165W        W65694  24.228  37.812  12.124
94166W        W65695  20.141  11.414   2.464
94167W        W65696  24.474  10.023  10.748
94168W        W65697   9.333  22.296   2.336
94169W        W65698  13.690  28.698   3.829
94170W        W65699  30.719  41.492   3.098
94171W        W65700  23.092  32.932  14.323
94172W        W65701  40.613  19.583  13.837
94173W        W65702  40.480   7.559   9.499
94174W        W65703   9.731  19.631  11.177
94175W        W65704   8.096  20.532   4.090
94176W        W65705  34.131  27.991   4.225
94177W        W65706  42.489  40.162   1.403
94178W        W65707  16.389  28.634  12.631
94179W        W65708  25.972  25.755  13.446
94180W        W65709  12.348  44.704  12.094
94181W        W65710   4.172  29.503   2.796
94182W        W65711  14.693   3.466   4.150
94183W        W65712   2.181  44.827  13.435
94184W        W65713  42.416  40.030   0.297
94185W        W65714  41.051   4.545   2.541
94186W        W65715  12.715  43.544  10.680
94187W        W65716   2.771   4.752   4.271
94188W        W65717  24.466  11.251  12.925
94189W        W65718   1.450  15.165   2.472
94190W        W65719  17.184  28.012   4.667
94191W        W65720  19.343   5.572  14.060
94192W        W65721  24.804   9.277   0.203
94193W        W65722  40.799  37.231   3.246
94194W        W65723   1.448  11.606  14.835
94195W        W65724  33.968   2.679  13.418
94196W        W65725  34.255  36.810  13.272
94197W        W65726  39.473  26.118   0.832
94198W        W65727  22.799  35.564   0.932
94199W        W65728  25.755  32.823  11.135
94200W        W65729  22.820  33.893  10.703
94201W        W65730  32.243  15.113   2.275
94202W        W65731   8.887   7.812   2.277
94203W        W65732  24.083  13.542   2.737
94204W        W65733   7.693  19.497   5.367
94205W        W65734  24.589  15.623  12.089
94206W        W65735  22.584  24.525   3.622
94207W        W65736   3.979  34.581   3.865
94208W        W65737  38.046  11.604   1.700
94209W        W65738   4.738  30.573   3.233
94210W        W65739  28.936  40.066  11.096
94211W        W65740   0.811  21.256   4.545
94212W        W65741  25.099  33.058  12.869
94213W        W65742  38.484  18.690   3.246
94214W        W65743  40.410  44.627   9.781
94215W        W65744  41.870  42.761   4.232
94216W        W65745  40.432   2.714   4.050
94217W        W65746  35.103  43.408   4.025
94218W        W65747  18.337  29.504   1.700
94219W        W65748  24.997  26.448   0.221
94220W        W65749  14.108  34.443   1.558
94221W        W65750  21.549  18.763   0.906
94222W        W65751  32.868   5.758   0.303
94223W        W65752  19.742   8.307  13.105
94224W        W65753  43.893  40.708  10.828
94225W        W65754  27.329   4.957   0.370
94226W        W65755  30.909  30.392  13.984
94227W        W65756  44.847  13.165  11.600
94228W        W65757  44.731  33.848  12.123
94229W        W65758  37.053  13.272  11.217
94230W        W65759   7.476  21.449   0.320
94231W        W65760  12.693  38.037   3.633
94232W        W65761  24.341  43.690  12.030
94233W        W65762  44.385  19.000   3.611
94234W        W65763  18.663  26.993   2.804
94235W        W65764   8.221  11.989   2.011
94236W        W65765   7.230  18.994   1.883
94237W        W65766  37.256  23.868  10.318
94238W        W65767  39.777   1.607   1.827
94239W        W65768  41.630  23.595   4.643
94240W        W65769  20.879  37.100  11.729
94241W        W65770  32.565  23.822   4.488
94242W        W65771   4.681  21.014   2.262
94243W        W65772  20.730   2.299   0.454
94244W        W65773  28.936  35.818  14.294
94245W        W65774  32.614   3.835  11.880
94246W        W65775  10.309  39.430  12.814
94247W        W65776   0.514  38.518   0.694
94248W        W65777  31.199  31.909   0.513
94249W        W65778  43.327  17.532   3.751
94250W        W65779  23.759  26.734   2.327
94251W        W65780  34.455  44.515   3.707
94252W        W65781  27.416  17.932  12.076
94253W        W65782   9.212   6.867  10.666
94254W        W65783   6.569  18.906   4.420
94255W        W65784  44.502  38.300  13.865
94256W        W65785   7.882   2.397   2.615
94257W        W65786  25.496  16.835   3.751
94258W        W65787  37.538  39.550  14.416
94259W        W65788  35.594  25.035  12.681
94260W        W65789  28.604  10.183   1.280
94261W        W65790  27.137   2.340   3.165
94262W        W65791  13.849  21.628  13.878
94263W        W65792  27.537  14.076  14.359
94264W        W65793  32.550  21.229  10.347
94265W        W65794  43.442   1.368   3.934
94266W        W65795  23.257   4.612  13.776
94267W        W65796  23.447  35.111  14.563
94268W        W65797  25.417  41.303   2.755
94269W        W65798  20.329  35.995   3.710
94270W        W65799  31.562  16.794  13.342
94271W        W65800  22.031  30.643   0.459
94272W        W65801  24.465  14.671  12.534
94273W        W65802   2.824   8.184  12.933
94274W        W65803  22.396  20.702  11.649
94275W        W65804  19.103  36.379   3.870
94276W        W65805  28.465  40.069   4.118
94277W        W65806  17.261  14.219  12.664
94278W        W65807  22.508   2.381   4.823
94279W        W65808   5.938  33.432   1.224
94280W        W65809  26.044  25.666   1.328
94281W        W65810  24.039  34.605   3.239
94282W        W65811   2.872  23.781   2.844
94283W        W65812  18.703  19.684   3.879
94284W        W65813  37.426  15.975  12.511
94285W        W65814  21.189  13.594  10.369
94286W        W65815  39.343  28.629  10.786
94287W        W65816  43.024  14.300   4.080
94288W        W65817  15.335  18.314  13.050
94289W        W65818  34.334  19.026   4.090
94290W        W65819  11.254  11.712  11.106
94291W        W65820  21.671  11.869  12.851
94292W        W65821  35.478  12.897  14.389
94293W        W65822   0.392  11.352   1.777
94294W        W65823  33.491   8.669   1.956
94295W        W65824  12.757   4.943  13.448
94296W        W65825  38.321   3.373  12.000
94297W        W65826   3.950   0.740  13.979
94298W        W65827  40.784  44.752   4.215
94299W        W65828  25.231  42.579  12.491
94300W        W65829   1.754  33.679   2.538
94301W        W65830  24.821  26.210   1.826
94302W        W65831  23.441   6.532  13.396
94303W        W65832  33.768  37.980   2.267
94304W        W65833   4.209   3.800  11.199
94305W        W65834  14.106  20.181  12.056
94306W        W65835  41.484  35.524  12.915
94307W        W65836  39.925  13.630  13.575
94308W        W65837   0.589  22.765  14.470
94309W        W65838   8.455  44.224   4.889
94310W        W65839  20.573  20.340   3.774
94311W        W65840  43.361  41.997  13.392
94312W        W65841  15.109  33.085  11.089
94313W        W65842  13.783   1.779   3.224
94314W        W65843  22.355  32.209  12.179
94315W        W65844  17.634  21.100  13.764
94316W        W65845  17.157  23.646  11.114
94317W        W65846  39.327  26.104  13.542
94318W        W65847  25.250   9.164   3.722
94319W        W65848  41.338  19.130   3.306
94320W        W65849  34.833   8.279  14.305
94321W        W65850   7.007   7.614  14.275
94322W        W65851  27.468   0.671   1.754
94323W        W65852  21.225   2.373   0.700
94324W        W65853   7.319   3.704   3.217
94325W        W65854  31.011  12.007   1.845
94326W        W65855  43.078  21.611  13.603
94327W        W65856  21.786  37.584   2.417
94328W        W65857  34.635  41.032  12.767
94329W        W65858  39.041   8.493  12.018
94330W        W65859  32.375  13.254  12.983
94331W        W65860  36.830  20.546   1.862
94332W        W65861  15.186  27.721   2.224
94333W        W65862  30.162  34.819   0.844
94334W        W65863   0.427  30.253  12.484
94335W        W65864   4.785  33.292  10.464
94336W        W65865  25.792  24.288   0.418
94337W        W65866   7.336  21.576   2.880
94338W        W65867  36.952   5.896   0.937
94339W        W65868  24.692  36.159   0.303
94340W        W65869  15.638  40.402  13.987
94341W        W65870  15.898  18.161   9.923
94342W        W65871  20.673  37.343  11.330
94343W        W65872  39.367  43.946  12.824
94344W        W65873  32.882  31.708   2.400
94345W        W65874   9.158  15.723   3.315
94346W        W65875  44.232  10.915  14.237
94347W        W65876  29.469  25.436   2.847
94348W        W65877  24.710  27.509  10.636
94349W        W65878  38.260  29.613  13.463
94350W        W65879  44.610   4.367  14.325
94351W        W65880  35.533  25.061   4.294
94352W        W65881  22.426  14.159   1.548
94353W        W65882  27.715  25.172   1.391
94354W        W65883  16.257  10.744   5.443
94355W        W65884  28.666   1.546   4.853
94356W        W65885  15.152  37.978  11.366
94357W        W65886  30.066   6.631  14.868
94358W        W65887  29.182   2.729  13.911
94359W        W65888  17.314  16.266  12.439
94360W        W65889  33.032  39.515  12.240
94361W        W65890  17.120  19.258  13.317
94362W        W65891  20.092  30.677   0.190
94363W        W65892   8.026  19.738   1.889
94364W        W65893  28.881  33.584   2.900
94365W        W65894  32.019  11.813   0.751
94366W        W65895   9.108   1.873  12.021
94367W        W65896   1.784   2.260  10.534
94368W        W65897  25.493   7.048   2.188
94369W        W65898  20.004  35.372   1.794
94370W        W65899  13.898   6.560  11.665
94371W        W65900  32.132  16.750  11.590
94372W        W65901  34.709  13.587  13.436
94373W        W65902  24.396  39.499   2.455
94374W        W65903  42.938  17.847  14.947
94375W        W65904  25.402   9.535  13.353
94376W        W65905  35.014  34.904   3.636
94377W        W65906  44.491  40.368  14.794
94378W        W65907  41.328   0.827   3.892
94379W        W65908   0.296  16.342   1.292
94380W        W65909  16.821   7.240   3.175
94381W        W65910  16.265   0.812   0.928
94382W        W65911  38.538  15.132   2.419
94383W        W65912   3.254  34.888  12.473
94384W        W65913  11.101   1.181  14.933
94385W        W65914   8.683  11.287  11.267
94386W        W65915  30.884   7.672  11.460
94387W        W65916   0.997  30.305   1.408
94388W        W65917   5.387  31.552  11.597
94389W        W65918  11.057  33.851  14.419
94390W        W65919  38.166  22.476  13.457
94391W        W65920  40.854  31.235  13.534
94392W        W65921  42.347  25.517   3.845
94393W        W65922  44.349  22.604  14.932
94394W        W65923  44.430  15.488  13.800
94395W        W65924  30.142  30.148   0.435
94396W        W65925  18.159  43.399   2.521
94397W        W65926  11.687  42.348   1.333
94398W        W65927  31.961  33.906   2.338
94399W        W65928  35.940   2.982  13.473
94400W        W65929  16.917  19.557  11.089
94401W        W65930  24.564  20.263  14.297
94402W        W65931  40.567  40.467  10.733
94403W        W65932  40.511  16.880   1.772
94404W        W65933  31.909  19.909  10.658
94405W        W65934  25.130  21.713  13.486
94406W        W65935  29.365  25.306  11.148
94407W        W65936  11.241   9.960  10.773
94408W        W65937  15.710   6.403   3.796
94409W        W65938  22.001   3.308  11.654
94410W        W65939  42.883  44.340  12.125
94411W        W65940   1.339   6.971  14.495
94412W        W65941  18.122  20.043   0.056
94413W        W65942  34.515  21.741   2.369
94414W        W65943  36.529  25.376  10.338
94415W        W65944  39.111  41.973  10.731
94416W        W65945  27.935  16.279   2.412
94417W        W65946  29.615  42.234   0.284
94418W        W65947  32.204  32.657  14.266
94419W        W65948   4.648  15.140   0.192
94420W        W65949   5.324  22.257  10.738
94421W        W65950  18.758  37.135   0.931
94422W        W65951   5.869   0.744  13.846
94423W        W65952  25.082   9.373   3.248
94424W        W65953   3.019  20.513   3.132
94425W        W65954  39.413  26.255   2.325
94426W        W65955   7.053  16.767   0.980
94427W        W65956   9.185  32.410  11.973
94428W        W65957  15.086   5.870   4.628
94429W        W65958   3.964  17.092  14.080
94430W        W65959  40.640  39.885  11.928
94431W        W65960  24.388   5.654   3.660
94432W        W65961   3.325  14.894  12.415
94433W        W65962  18.305   1.912   2.896
94434W        W65963  20.188  31.902   3.133
94435W        W65964  14.708  11.677   1.739
94436W        W65965  13.585  22.703   1.695
94437W        W65966  14.214  33.975   4.835
94438W        W65967  10.785  14.841  14.017
94439W        W65968  17.760  40.875  10.725
94440W        W65969  16.004   9.164   0.700
94441W        W65970  10.706  15.030   1.623
94442W        W65971   5.414  41.457  11.203
94443W        W65972  11.822   7.745  13.419
94444W        W65973  41.495  41.496   2.389
94445W        W65974  25.532   6.389   3.760
94446W        W65975   2.499  12.219   4.099
94447W        W65976  33.794  25.843   3.108
94448W        W65977  15.641  43.877  10.823
94449W        W65978  25.550  40.903  14.221
94450W        W65979  33.483  27.084  14.411
94451W        W65980   8.356  26.571   4.228
94452W        W65981  32.564  35.042  12.023
94453W        W65982  22.495   8.210  14.873
94454W        W65983  27.515  44.411   2.956
94455W        W65984  44.645  32.111   1.644
94456W        W65985  18.522  12.506   2.791
94457W        W65986  15.102  44.330  11.701
94458W        W65987  40.395  27.970  12.447
94459W        W65988  30.864   4.309  11.315
94460W        W65989  28.081  11.856   3.658
94461W        W65990  22.532  15.171   1.339
94462W        W65991   7.022  25.209   1.490
94463W        W65992  32.963  41.264   0.791
94464W        W65993  35.084  41.028   3.299
94465W        W65994  21.317  43.920   3.286
94466W        W65995  29.996   5.907   2.831
94467W        W65996  17.825  16.654  14.575
94468W        W65997  28.724   2.201  11.460
94469W        W65998  17.618  42.375  11.661
94470W        W65999  28.994  16.750   3.777
94471W        W66000   3.208  19.170  12.543
94472W        W66001  37.829  21.267   0.541
94473W        W66002  15.201   9.956   1.813
94474W        W66003  21.049  36.148  13.902
94475W        W66004  44.615   8.163   2.843
94476W        W66005  35.368  37.878   4.852
94477W        W66006  38.451  36.901  14.444
94478W        W66007  26.244  16.768   0.761
94479W        W66008   8.210   8.690  14.392
94480W        W66009  40.899  22.144  14.475
94481W        W66010   1.032  30.819   0.132
94482W        W66011  38.481   7.754   3.189
94483W        W66012  15.816  42.450  10.746
94484W        W66013  33.508  18.142  10.654
94485W        W66014  40.355  42.514  13.486
94486W        W66015   3.771  25.958   4.530
94487W        W66016  14.006  40.497  13.867
94488W        W66017   3.242  30.867  14.947
94489W        W66018  15.234  28.487  14.908
94490W        W66019  19.827  24.716  11.633
94491W        W66020  41.309  43.432  12.561
94492W        W66021  33.519   9.106   3.386
94493W        W66022   3.572  36.993   3.643
94494W        W66023   0.469  16.116  14.909
94495W        W66024  44.099  38.832  12.576
94496W        W66025  21.215   2.551  13.755
94497W        W66026  12.835  29.359  12.969
94498W        W66027   5.617  35.781   2.375
94499W        W66028  29.596  38.912  10.772
94500W        W66029  30.518   0.369  11.192
94501W        W66030  15.798   0.920  14.453
94502W        W66031  35.339  10.560  14.241
94503W        W66032  43.306   1.458  13.414
94504W        W66033   7.270   1.909  11.424
94505W        W66034  31.262  35.970   5.064
94506W        W66035   9.475   6.908  13.864
94507W        W66036  33.417  10.554   3.144
94508W        W66037  32.438  31.712   1.235
94509W        W66038  14.749  27.632  11.904
94510W        W66039  18.783  34.014   1.757
94511W        W66040  41.546   5.666  13.379
94512W        W66041  36.389   7.694  11.192
94513W        W66042  31.629   6.953  14.438
94514W        W66043  16.107  42.089   3.773
94515W        W66044  36.573  44.325  12.935
94516W        W66045   2.421  11.819  13.052
94517W        W66046   9.135   2.648   1.204
94518W        W66047   7.373  15.639   3.749
94519W        W66048  32.092   0.224  13.816
94520W        W66049  40.574   8.866   2.293
94521W        W66050  13.242  32.317   1.179
94522W        W66051  35.873   1.203   0.851
94523W        W66052   1.881  23.979  13.737
94524W        W66053  44.921   7.243   2.445
94525W        W66054  41.955   0.058  14.478
94526W        W66055   8.803  20.530   4.798
94527W        W66056  20.242   3.401  14.464
94528W        W66057   7.421  39.011   4.508
94529W        W66058  25.528  24.157   2.712
94530W        W66059   0.767  39.618  12.895
94531W        W66060  19.565  12.845   2.852
94532W        W66061  22.270  37.470   2.544
94533W        W66062  25.014  19.570  13.786
94534W        W66063  16.139  40.342  11.521
94535W        W66064   6.645  11.825  14.561
94536W        W66065  17.372  13.666   1.730
94537W        W66066  40.467  37.496  10.110
94538W        W66067  23.083  22.568  11.393
94539W        W66068  18.986   8.575  11.258
94540W        W66069  13.727  18.120   2.671
94541W        W66070  44.278  42.395   3.738
94542W        W66071  40.999   0.335  12.750
94543W        W66072  34.328  18.250  14.880
94544W        W66073  24.918  34.153  12.126
94545W        W66074  41.475  11.540  13.432
94546W        W66075  15.494  10.684   3.124
94547W        W66076  32.216  23.462   3.787
94548W        W66077  28.968   3.498   1.311
94549W        W66078  21.126  40.226   0.392
94550W        W66079  35.617   6.638   1.427
94551W        W66080  31.521   5.832   0.456
94552W        W66081   2.679   7.416   4.542
94553W        W66082  38.100  20.684  11.597
94554W        W66083  44.458  32.662  13.366
94555W        W66084  31.087  39.037   1.443
94556W        W66085  12.229  35.994  12.510
94557W        W66086  39.428   8.599   1.718
94558W        W66087  25.644  33.786  12.894
94559W        W66088  38.145   0.885  10.557
94560W        W66089  27.398  27.073   1.220
94561W        W66090  11.319  12.972  14.918
94562W        W66091  18.090  43.272   0.184
94563W        W66092  19.043  35.789   2.621
94564W        W66093   1.481  13.360   2.676
94565W        W66094  42.089  18.196  10.472
94566W        W66095   4.485  22.088   3.437
94567W        W66096  20.852   4.872   0.266
94568W        W66097  24.006  36.806   0.431
94569W        W66098  44.831   9.984   3.589
94570W        W66099  40.901  13.675   3.278
94571W        W66100  17.866  31.421   1.292
94572W        W66101  37.057  37.010   2.349
94573W        W66102  26.661   5.575   2.402
94574W        W66103   1.786   7.466  11.067
94575W        W66104  36.333  41.860  13.640
94576W        W66105  44.276  11.557   2.305
94577W        W66106  42.334  27.076  11.808
94578W        W66107   0.709   4.945  11.594
94579W        W66108  16.307  28.510   2.244
94580W        W66109  40.408  22.747   4.563
94581W        W66110  11.792  42.836  11.068
94582W        W66111  37.087  20.557   3.530
94583W        W66112  29.005  29.664   3.676
94584W        W66113  36.403  16.504  14.877
94585W        W66114  44.629  17.439  10.165
94586W        W66115  30.475  37.956  11.105
94587W        W66116  27.841  30.451  11.580
94588W        W66117  12.779  29.924   3.440
94589W        W66118  24.372  19.483   3.664
94590W        W66119  37.713  28.344   4.494
94591W        W66120   1.728   8.132   0.444
94592W        W66121  25.806  33.474  11.294
94593W        W66122  32.126  18.019   1.369
94594W        W66123  14.195   1.265  12.336
94595W        W66124  21.729  33.137   0.309
94596W        W66125   4.155  10.779  13.446
94597W        W66126   5.460   7.455  12.486
94598W        W66127  20.990  12.591   1.352
94599W        W66128  10.192  32.847  14.850
94600W        W66129   2.542  29.591   3.888
94601W        W66130  27.956   5.964   1.186
94602W        W66131  29.638  23.109   3.523
94603W        W66132   9.566  31.121   4.763
94604W        W66133  30.006   7.431   2.693
94605W        W66134  41.673   3.964   2.102
94606W        W66135   2.144  43.138   5.076
94607W        W66136  37.058   5.314  13.724
94608W        W66137  26.641   6.099   2.145
94609W        W66138  35.468  32.184  11.511
94610W        W66139  41.501  19.146  11.427
94611W        W66140  18.355  13.887   0.244
94612W        W66141   4.210  29.636  13.591
94613W        W66142   7.640  32.989   3.296
94614W        W66143  11.406   4.961  12.719
94615W        W66144  18.350   3.207  10.648
94616W        W66145  20.006  43.271  10.461
94617W        W66146  13.999  31.165   3.324
94618W        W66147  44.717  17.751   0.764
94619W        W66148   2.796  43.786   3.316
94620W        W66149  40.273  20.115   3.324
94621W        W66150  20.052  31.503   3.649
94622W        W66151  31.381  12.860  14.726
94623W        W66152   3.151  35.946  11.439
94624W        W66153  21.314  37.636  14.941
94625W        W66154   5.976  38.426   0.931
94626W        W66155  41.308   5.338  10.552
94627W        W66156  29.530   0.419   0.866
94628W        W66157  41.044  30.912   0.452
94629W        W66158  10.569  41.650   4.932
94630W        W66159   5.823   3.934   2.257
94631W        W66160  37.180   0.753   1.642
94632W        W66161  44.747  41.245   4.676
94633W        W66162  30.169   3.924   0.657
94634W        W66163  28.591  38.904  14.765
94635W        W66164  21.743  14.737   2.552
94636W        W66165  11.257  44.024   1.801
94637W        W66166  15.906   8.712  11.559
94638W        W66167   2.446  34.171   4.105
94639W        W66168  13.305  38.940   2.257
94640W        W66169  22.815  20.337   1.248
94641W        W66170  21.618  41.982  12.132
94642W        W66171  21.337  31.736  11.489
94643W        W66172   9.483  28.376  11.094
94644W        W66173  19.625  11.802  14.933
94645W        W66174  30.555  11.601  12.624
94646W        W66175  44.031  22.717  13.969
94647W        W66176  16.674  36.865  10.708
94648W        W66177  11.823  36.101   5.083
94649W        W66178  20.672  24.099  10.701
94650W        W66179  22.164  35.568   4.156
94651W        W66180  25.789  35.647  14.333
94652W        W66181  34.571  17.316  12.510
94653W        W66182   8.616  40.008   4.417
94654W        W66183  39.865  15.228   0.440
94655W        W66184  36.048  18.426   1.783
94656W        W66185   5.361  20.634  10.710
94657W        W66186  15.803  39.520   2.833
94658W        W66187  25.431   1.301  10.557
94659W        W66188  38.977  16.536   2.745
94660W        W66189  43.176   8.736   5.000
94661W        W66190  44.547  33.522   1.764
94662W        W66191  43.534   1.898   0.271
94663W        W66192  31.374   6.691  11.663
94664W        W66193  37.639  25.113  14.456
94665W        W66194  44.951  42.570  11.456
94666W        W66195  13.694  10.226  12.917
94667W        W66196  18.978  17.223   3.410
94668W        W66197  14.328  21.266   3.856
94669W        W66198   0.476  42.366  14.994
94670W        W66199  12.139   1.490  11.569
94671W        W66200   8.129  37.844   2.357
94672W        W66201  37.272  43.822   0.059
94673W        W66202   7.169  22.856  11.467
94674W        W66203  23.551   1.733  10.686
94675W        W66204  11.562   3.218  14.581
94676W        W66205  35.534   2.895  12.037
94677W        W66206   4.242  15.405   2.479
94678W        W66207   4.274  30.885  10.305
94679W        W66208  13.642  11.839  14.262
94680W        W66209  23.843  23.613  14.274
94681W        W66210  13.513  31.539   2.683
94682W        W66211  21.595   5.632  14.433
94683W        W66212  11.534  26.294  14.701
94684W        W66213  23.312  26.771  11.636
94685W        W66214  18.546  30.608  12.111
94686W        W66215  26.633   7.876   3.690
94687W        W66216   3.968  34.922   3.211
94688W        W66217  32.011  11.710   4.511
94689W        W66218  12.792  39.946  13.640
94690W        W66219   3.752  25.207   0.369
94691W        W66220   1.839   2.957  12.158
94692W        W66221   2.280  13.353  12.095
94693W        W66222   3.929   2.005   1.234
94694W        W66223   5.670  12.007   3.622
94695W        W66224  30.477  44.916  10.945
94696W        W66225  38.583  25.451  13.942
94697W        W66226  39.930  15.330   3.022
94698W        W66227   4.696   2.172  11.044
94699W        W66228  43.423  18.007   2.808
94700W        W66229  33.918  42.563   2.025
94701W        W66230  40.270  26.047  13.106
94702W        W66231  34.511  32.400  12.575
94703W        W66232  31.474  42.013  11.479
94704W        W66233  15.160  37.313  14.950
94705W        W66234   7.871  31.596   0.494
94706W        W66235  23.577  16.679   3.303
94707W        W66236   2.167  12.731   4.689
94708W        W66237   1.188  28.086   1.865
94709W        W66238  31.650   3.506  13.913
94710W        W66239  28.713   4.766  14.894
94711W        W66240  42.442  31.168  11.042
94712W        W66241   8.427  35.723   0.800
94713W        W66242  38.839  41.424  13.520
94714W        W66243  18.292  13.006   1.225
94715W        W66244   6.131  37.452   4.108
94716W        W66245   1.819  29.396  13.721
94717W        W66246   2.667  17.791   1.621
94718W        W66247  35.256   4.864  12.579
94719W        W66248   4.673  19.124   1.772
94720W        W66249  44.883  35.806  11.307
94721W        W66250  27.852   4.317  12.775
94722W        W66251   6.860  43.288   4.085
94723W        W66252   6.637  10.825  13.347
94724W        W66253  38.014  11.610  12.386
94725W        W66254  12.136  31.925  13.886
94726W        W66255  33.542  15.772   2.176
94727W        W66256   2.977   4.799   4.722
94728W        W66257  26.533  35.890  14.312
94729W        W66258  43.880  24.800  10.477
94730W        W66259  17.719   7.593  11.173
94731W        W66260  29.926  31.124  13.015
94732W        W66261  40.661  16.107   4.334
94733W        W66262  27.955  22.265   0.313
94734W        W66263  14.331  27.872  12.656
94735W        W66264  22.540  17.630   2.166
94736W        W66265   7.619  20.675   1.166
94737W        W66266  21.105  11.979   3.658
94738W        W66267  21.584  32.640  10.790
94739W        W66268  27.072  32.968   1.339
94740W        W66269  34.710  18.002  12.958
94741W        W66270  22.466  14.205  12.398
94742W        W66271  30.420  34.583  10.695
94743W        W66272  20.673  41.076  11.048
94744W        W66273  23.114  12.383   0.518
94745W        W66274   0.455  12.919   1.859
94746W        W66275  27.967  13.352  10.741
94747W        W66276  34.426  35.304  13.886
94748W        W66277   2.397  16.339  13.520
94749W        W66278   5.465  38.446   0.960
94750W        W66279  24.092  42.542  12.945
94751W        W66280  14.024  17.056   0.914
94752W        W66281  35.366  28.481   2.497
94753W        W66282   0.863   9.764  10.720
94754W        W66283  22.306   7.958  11.949
94755W        W66284  19.190  40.971   4.316
94756W        W66285   6.662  19.539  13.490
94757W        W66286  31.976   2.485  13.812
94758W        W66287   9.745   4.109   0.731
94759W        W66288   9.269  26.775   3.095
94760W        W66289   5.597   7.156   4.051
94761W        W66290  13.724  44.249  10.474
94762W        W66291   7.177  23.064  12.921
94763W        W66292   2.584  28.065   1.800
94764W        W66293  27.008   2.708   0.345
94765W        W66294   4.869  11.502  13.819
94766W        W66295  27.962  43.876  10.606
94767W        W66296  21.204  42.436   0.821
94768W        W66297  43.674   5.440   4.305
94769W        W66298  20.630  34.330   1.177
94770W        W66299  17.202  26.241  13.507
94771W        W66300  20.063  32.472  11.572
94772W        W66301  36.644  10.873  14.065
94773W        W66302  37.193   9.127   0.784
94774W        W66303  44.965   7.837  11.827
94775W        W66304  29.102  14.347   0.531
94776W        W66305  19.938  24.848  12.131
94777W        W66306  39.495  39.535   3.787
94778W        W66307  21.214   7.064  11.707
94779W        W66308   0.835   5.638  10.960
94780W        W66309  20.697   5.319  14.322
94781W        W66310  25.223  16.191   0.949
94782W        W66311  11.658  24.344  13.323
94783W        W66312   2.669  30.428  14.242
94784W        W66313  16.248  22.686   3.245
94785W        W66314   5.536  30.428  14.447
94786W        W66315   1.709  11.725   4.196
94787W        W66316   8.165  33.574  12.096
94788W        W66317  37.419  17.061   3.168
94789W        W66318  41.352  13.921  13.858
94790W        W66319  43.948  25.671   2.670
94791W        W66320  26.210   7.758  12.156
94792W        W66321  18.818   1.955  14.299
94793W        W66322  35.972  31.891  14.494
94794W        W66323   6.600  26.203  13.483
94795W        W66324  11.868  20.732   3.792
94796W        W66325  35.051  44.466   0.744
94797W        W66326  12.215  39.493  13.378
94798W        W66327  29.256  12.859   3.248
94799W        W66328   9.278  27.480  11.444
94800W        W66329  20.037  29.201  13.477
94801W        W66330   5.240   0.434   0.452
94802W        W66331  11.164  12.365   2.355
94803W        W66332  30.134   0.201  12.951
94804W        W66333  41.480  40.985  13.310
94805W        W66334   4.774  44.567  12.578
94806W        W66335  37.218  31.922   1.936
94807W        W66336  39.404  34.638   1.060
94808W        W66337   1.087  34.509  12.975
94809W        W66338   8.101  29.129  14.365
94810W        W66339  26.788  36.521   1.783
94811W        W66340  29.872  44.864   1.743
94812W        W66341   1.396   5.934  14.494
94813W        W66342   3.114   0.350  13.017
94814W        W66343   2.876   3.823   2.817
94815W        W66344   5.443   8.219   1.317
94816W        W66345  20.149  31.535   2.215
94817W        W66346  15.808  40.431   2.757
94818W        W66347  26.084  21.609   1.994
94819W        W66348  36.522   0.278  12.927
94820W        W66349  28.638   8.291  11.674
94821W        W66350  19.017  43.708   2.849
94822W        W66351  28.159  31.645  14.996
94823W        W66352  18.053  27.500  12.964
94824W        W66353   9.740  33.525  13.851
94825W        W66354  43.791  43.817   2.634
94826W        W66355  29.319   1.781  13.338
94827W        W66356  11.376  38.269   2.695
94828W        W66357   9.310   9.302  10.722
94829W        W66358  11.520   4.910  10.331
94830W        W66359  27.585  37.253   0.528
94831W        W66360  13.689  32.158   1.435
94832W        W66361  27.154  26.112   1.718
94833W        W66362  40.350  44.713  12.063
94834W        W66363  31.859   5.952   3.872
94835W        W66364  27.161  23.763   1.571
94836W        W66365  28.088   3.767  11.139
94837W        W66366  11.458  11.150   2.417
94838W        W66367  21.935  33.007  13.772
94839W        W66368  44.158  19.545   1.712
94840W        W66369   9.011   2.566   5.048
94841W        W66370  33.535  22.576   1.321
94842W        W66371  25.172   7.686   1.732
94843W        W66372  12.024   6.289  14.854
94844W        W66373  44.014   2.401  13.266
94845W        W66374  42.054  16.796  11.616
94846W        W66375  23.552  21.699   0.896
94847W        W66376   7.886  38.348  14.899
94848W        W66377  10.811  42.082   2.743
94849W        W66378  12.823  41.369  13.990
94850W        W66379  42.068   0.452   4.299
94851W        W66380  28.386  35.890   4.148
94852W        W66381  11.582  18.563  12.951
94853W        W66382   3.152  10.633   4.197
94854W        W66383  22.190  38.591  13.395
94855W        W66384  27.125   1.727  10.489
94856W        W66385  32.922  20.822  14.880
94857W        W66386  27.601   7.350   3.738
94858W        W66387  40.332  30.140  13.395
94859W        W66388   1.431  34.800   0.829
94860W        W66389  30.924  32.112   2.834
94861W        W66390  41.860  26.535   2.234
94862W        W66391  27.942  24.808   5.161
94863W        W66392  28.254   4.344  13.764
94864W        W66393  20.244  44.446   3.075
94865W        W66394  30.861   9.617  12.448
94866W        W66395  23.812  43.300   4.337
94867W        W66396  37.378  12.124  14.078
94868W        W66397  17.209  10.663  11.636
94869W        W66398   9.220  21.667  14.813
94870W        W66399  25.941  11.675  14.562
94871W        W66400  13.589  12.240  11.396
94872W        W66401  44.401  12.570  11.577
94873W        W66402   2.801  31.947   0.423
94874W        W66403  22.647  14.507  12.758
94875W        W66404  34.941  39.394   4.908
94876W        W66405   5.694  11.083   3.759
94877W        W66406  23.637  31.945   1.214
94878W        W66407  36.014  17.886   2.351
94879W        W66408  27.844   2.245  13.033
94880W        W66409  43.487  22.143   3.786
94881W        W66410  10.425   3.809   0.285
94882W        W66411   2.476  29.050   1.428
94883W        W66412  29.413  42.535  11.639
94884W        W66413  14.912   1.400   3.803
94885W        W66414  25.974  13.334  13.467
94886W        W66415  26.060  12.083  11.575
94887W        W66416  31.266  42.334  14.567
94888W        W66417  17.658  20.931  13.271
94889W        W66418  13.246   3.397  12.005
94890W        W66419  29.354   3.459   4.166
94891W        W66420  17.622  31.933   1.903
94892W        W66421  35.487  38.806   2.398
94893W        W66422  26.457   6.877   1.043
94894W        W66423  29.285  25.301  11.954
94895W        W66424  32.300  44.816  12.393
94896W        W66425  32.180  36.991   0.290
94897W        W66426  30.714  17.473  10.208
94898W        W66427  39.858  18.842   0.721
94899W        W66428  12.859  42.965   2.167
94900W        W66429  35.078  16.822  14.315
94901W        W66430  26.242   3.273   0.223
94902W        W66431  24.010  43.401   3.689
94903W        W66432   0.383   4.200  13.996
94904W        W66433  40.058  33.933  13.535
94905W        W66434  19.074  28.750   4.084
94906W        W66435  12.641  24.804   3.094
94907W        W66436  30.347  21.011  13.832
94908W        W66437  33.520  18.048   3.205
94909W        W66438  29.649  28.166  10.718
94910W        W66439  33.937  27.581   0.170
94911W        W66440   7.145  34.046   1.145
94912W        W66441  25.087  43.529  12.630
94913W        W66442  36.301   1.789  10.698
94914W        W66443  30.125   2.813   1.439
94915W        W66444   2.242   1.500   1.341
94916W        W66445  34.495  28.419  14.870
94917W        W66446  11.370  28.562   2.876
94918W        W66447  10.929  34.849   4.527
94919W        W66448  22.482  27.897  12.130
94920W        W66449  10.275  15.777  10.361
94921W        W66450  24.507   4.395   3.261
94922W        W66451  43.819  20.808   2.857
94923W        W66452  13.380  26.489  11.119
94924W        W66453  23.241   9.086  11.475
94925W        W66454  39.255  15.087   1.928
94926W        W66455   4.393  32.966  13.103
94927W        W66456  27.121  36.939   2.876
94928W        W66457  29.455  34.578  13.863
94929W        W66458  27.653  22.016   0.667
94930W        W66459  18.786  26.756  10.622
94931W        W66460  30.471  44.264   3.969
94932W        W66461   0.022   0.572  11.090
94933W        W66462  24.466   6.241   3.168
94934W        W66463   3.306  35.601   1.754
94935W        W66464   0.937  14.256   2.773
94936W        W66465  13.045  26.023   3.378
94937W        W66466  36.140  42.762   0.794
94938W        W66467  30.073  27.171   0.466
94939W        W66468  33.493  16.484   4.664
94940W        W66469  23.686   1.499   0.438
94941W        W66470  12.030  26.293  11.948
94942W        W66471  26.538  19.544  13.066
94943W        W66472  15.261  24.934   0.784
94944W        W66473  38.024   9.385  12.923
94945W        W66474  21.063   8.639  12.589
94946W        W66475   6.538  42.769   2.916
94947W        W66476  37.982   2.307   4.110
94948W        W66477  21.487   3.219  11.632
94949W        W66478  12.967  17.629   0.388
94950W        W66479  17.961  42.726   3.884
94951W        W66480  32.214  43.805   4.056
94952W        W66481  13.248  21.112   2.866
94953W        W66482   8.860  27.440  10.659
94954W        W66483  42.830  14.396   1.293
94955W        W66484  25.015   3.522   1.858
94956W        W66485   6.034  30.945   0.505
94957W        W66486  15.122   8.293   3.757
94958W        W66487   7.396  30.765  13.591
94959W        W66488   4.314  33.654  10.492
94960W        W66489  36.869  16.818   3.202
94961W        W66490  20.511  33.600  14.458
94962W        W66491   0.357   0.043  13.826
94963W        W66492  10.876  23.071  10.648
94964W        W66493  39.603  22.382   3.265
94965W        W66494  26.187   6.275   2.320
94966W        W66495  34.517   4.413   3.987
94967W        W66496  13.117  13.468  11.489
94968W        W66497  18.627   2.381  11.009
94969W        W66498  15.895  28.552   9.825
94970W        W66499  20.527  10.108   2.095
94971W        W66500   0.176  15.051  11.636
94972W        W66501  24.010  32.938  14.934
94973W        W66502  15.402  24.263   3.749
94974W        W66503  36.415  18.829   2.179
94975W        W66504  42.299  10.137   0.230
94976W        W66505  20.001  10.323  13.884
94977W        W66506  20.737  43.585   3.261
94978W        W66507   9.400  13.710   2.452
94979W        W66508  15.284   0.753  14.844
94980W        W66509   7.948  35.605   2.178
94981W        W66510  15.447   9.770   2.229
94982W        W66511  25.399  13.685   3.221
94983W        W66512   1.120  25.692   9.705
94984W        W66513   0.227  20.291  13.455
94985W        W66514  39.812  35.614   2.808
94986W        W66515  13.668   5.206  13.450
94987W        W66516  31.908  23.285  12.512
94988W        W66517  42.263  42.316   0.303
94989W        W66518  32.487   4.958   3.328
94990W        W66519   6.307  32.932   3.805
94991W        W66520  15.490  27.551  10.005
94992W        W66521   3.146   1.532  13.488
94993W        W66522  10.601  27.621   2.261
94994W        W66523   3.748  40.824   1.333
94995W        W66524  39.767  37.855  14.072
94996W        W66525  31.159  28.008  13.359
94997W        W66526   1.327   7.369  10.760
94998W        W66527  35.267   1.793  12.899
94999W        W66528  34.385  41.737   2.903
95000W        W66529  42.476  41.591   2.554
95001W        W66530   8.729   7.285  13.586
95002W        W66531  22.731  17.305   3.518
95003W        W66532  44.402  37.501  14.483
95004W        W66533   4.842   6.314  13.990
95005W        W66534   6.104  28.525  12.183
95006W        W66535  31.845  22.180  13.724
95007W        W66536  38.335  23.279   1.122
95008W        W66537  35.171  29.140  14.083
95009W        W66538   3.964  23.592   1.332
95010W        W66539  20.047  41.265  14.042
95011W        W66540  18.935  17.843  11.552
95012W        W66541  37.713  29.621  13.509
95013W        W66542   7.789   0.816   1.999
95014W        W66543  29.511  27.305  12.985
95015W        W66544  25.241  39.093   3.713
95016W        W66545  44.823  14.209  14.793
95017W        W66546  42.376  18.227   4.456
95018W        W66547  25.909   6.932   0.914
95019W        W66548   8.279  39.998   1.712
95020W        W66549   1.704  15.170   3.877
95021W        W66550  40.299  29.904  10.937
95022W        W66551   7.126  11.967  12.867
95023W        W66552  35.355  24.718  13.064
95024W        W66553  33.933  29.594   2.162
95025W        W66554   3.015   3.257  12.346
95026W        W66555  20.522   3.118   0.736
95027W        W66556  13.902  17.642   3.859
95028W        W66557   5.399  24.967  11.597
95029W        W66558  13.783   3.033  12.199
95030W        W66559  28.610  23.592  14.060
95031W        W66560  15.053  42.930  12.533
95032W        W66561  21.469   8.584   0.368
95033W        W66562   7.215  18.674   2.308
95034W        W66563   5.237  11.351  12.116
95035W        W66564  21.989   6.374  14.745
95036W        W66565  11.591  26.124  12.811
95037W        W66566  39.392  11.540  11.736
95038W        W66567   9.194  32.047   4.068
95039W        W66568  12.265   2.959  11.945
95040W        W66569  24.769   2.883  10.718
95041W        W66570  39.218  43.917  13.326
95042W        W66571   1.752  38.928  10.905
95043W        W66572  39.381   1.725   4.334
95044W        W66573  34.583  32.629  13.032
95045W        W66574   4.923   5.799   1.660
95046W        W66575  30.932  31.228   1.806
95047W        W66576  16.862  27.377   1.215
95048W        W66577  42.920  11.443   1.187
95049W        W66578   1.421  21.099   2.084
95050W        W66579  42.568  27.969  11.353
95051W        W66580   8.245  19.767  11.038
95052W        W66581   5.144   9.015   4.720
95053W        W66582   8.440  18.035  11.073
95054W        W66583   5.549   6.150   1.281
95055W        W66584  22.263   6.658  12.109
95056W        W66585   7.962   6.804  13.802
95057W        W66586  39.470   1.420   2.457
95058W        W66587  21.034  21.723  11.973
95059W        W66588  20.113  43.808   0.801
95060W        W66589  22.350  31.487  14.328
95061W        W66590  43.584  15.038  13.121
95062W        W66591  25.515  23.749  11.588
95063W        W66592  18.087   5.721  14.218
95064W        W66593   2.421   2.738  10.821
95065W        W66594   9.030  15.301   1.405
95066W        W66595  27.515  32.967  12.135
95067W        W66596  39.307  41.551  13.690
95068W        W66597  24.164  29.934  13.495
95069W        W66598   1.340   2.300  11.908
95070W        W66599  11.385  27.172  14.378
95071W        W66600  33.018  41.502  14.875
95072W        W66601  19.718  21.868   4.464
95073W        W66602  42.382  24.395   4.554
95074W        W66603  30.142  12.878  14.948
95075W        W66604  39.755  20.315  13.053
95076W        W66605   9.280  44.011   4.419
95077W        W66606  29.992  20.631  12.112
95078W        W66607  13.312  23.803   2.824
95079W        W66608  30.614  29.148   1.520
95080W        W66609  36.003  20.576  10.655
95081W        W66610  44.914  29.574   2.771
95082W        W66611  39.994  19.822   5.008
95083W        W66612  16.542  34.365   4.238
95084W        W66613  40.336  42.177  12.330
95085W        W66614   6.768  44.376  11.494
95086W        W66615  31.142  35.700   4.629
95087W        W66616   9.074  30.356  11.355
95088W        W66617  20.126  32.311   1.683
95089W        W66618  13.349  32.829   1.117
95090W        W66619  30.362  21.587   3.748
95091W        W66620  44.228  13.805  11.711
95092W        W66621  20.507  44.345   2.617
95093W        W66622  24.101   6.594   3.123
95094W        W66623  27.945  26.110  13.569
95095W        W66624  15.072   8.762  13.771
95096W        W66625  28.667  23.154   1.488
95097W        W66626  40.333  34.912   0.344
95098W        W66627  42.085  30.154  14.971
95099W        W66628  23.541  21.601  14.295
95100W        W66629  39.428   8.752   0.774
95101W        W66630  20.211  11.389   1.946
95102W        W66631  29.712  30.028   4.585
95103W        W66632   2.257  25.709  11.529
95104W        W66633  42.016  28.123   2.585
95105W        W66634   6.759   6.216   0.834
95106W        W66635   4.080  31.351   3.776
95107W        W66636  23.583  40.279   3.385
95108W        W66637   9.413  14.106  10.651
95109W        W66638  42.871  40.090   1.744
95110W        W66639  25.179  17.309   1.901
95111W        W66640  44.774  22.099  12.007
95112W        W66641   4.880   1.026   0.884
95113W        W66642  13.318  32.403   2.269
95114W        W66643  17.815  21.311   2.364
95115W        W66644   4.592  33.461   5.183
95116W        W66645  11.922   0.689   1.549
95117W        W66646  40.300   9.697   4.657
95118W        W66647  16.128   0.667  14.819
95119W        W66648  34.047  21.495  12.934
95120W        W66649  12.144   6.959  12.387
95121W        W66650  18.082  20.177  11.838
95122W        W66651  23.553  15.237   3.576
95123W        W66652   6.915  32.192   3.765
95124W        W66653  12.418  40.509  11.859
95125W        W66654  34.076  12.181  12.550
95126W        W66655  37.237  24.248   2.258
95127W        W66656   3.973  14.459  12.114
95128W        W66657  33.638  24.777   0.138
95129W        W66658  42.567  10.768  14.427
95130W        W66659  23.052  15.834   0.796
95131W        W66660   3.272  29.011   4.411
95132W        W66661   7.326  44.936  13.938
95133W        W66662  42.398  38.073  11.617
95134W        W66663  23.433  39.961  11.623
95135W        W66664  14.372  23.737  13.485
95136W        W66665   5.720  20.275   3.795
95137W        W66666  30.817  24.261   3.262
95138W        W66667   6.187  43.477  12.798
95139W        W66668   4.704  23.134  12.299
95140W        W66669  29.428  17.369   1.237
95141W        W66670  24.114  21.458   1.796
95142W        W66671  25.115  14.118   2.945
95143W        W66672  17.348  32.168  12.493
95144W        W66673  30.498   9.768  11.674
95145W        W66674   9.687  16.619   3.337
95146W        W66675   9.315  15.388   1.830
95147W        W66676  14.203  25.903  14.593
95148W        W66677   0.416  22.764  11.132
95149W        W66678   0.456  41.263   4.164
95150W        W66679   0.377  28.331  14.856
95151W        W66680  42.756  32.955  12.380
95152W        W66681  17.464  23.488  12.465
95153W        W66682  27.511  26.030  10.625
95154W        W66683  14.746  11.802   2.225
95155W        W66684   8.935  41.110   1.211
95156W        W66685  20.756  43.272  11.661
95157W        W66686  13.809  18.541   3.821
95158W        W66687  26.177   0.308  11.150
95159W        W66688  33.816  25.680   2.244
95160W        W66689  26.081  16.314  11.552
95161W        W66690   0.239  32.624  11.607
95162W        W66691  37.922  19.238  12.666
95163W        W66692  44.532   6.164  13.449
95164W        W66693   1.245  12.317  14.562
95165W        W66694  28.170  31.845   0.886
95166W        W66695  38.976  25.609   4.740
95167W        W66696  22.686   1.839   4.792
95168W        W66697   3.189  21.739  12.122
95169W        W66698  17.481  22.276  11.259
95170W        W66699  11.239  25.728   4.983
95171W        W66700  36.972  28.429  12.131
95172W        W66701   5.917  25.404  10.752
95173W        W66702  22.883  42.098  13.537
95174W        W66703  10.360   3.866   2.700
95175W        W66704  18.202  30.312   3.730
95176W        W66705  40.570  23.524  10.452
95177W        W66706  25.961   9.960   4.198
95178W        W66707  33.066  36.882   1.357
95179W        W66708   5.697  12.936   1.774
95180W        W66709  17.441  24.025   4.308
95181W        W66710   8.048  29.195   4.390
95182W        W66711  21.153  37.752   3.685
95183W        W66712  12.891  32.000   0.950
95184W        W66713  22.289  41.384  14.973
95185W        W66714  41.219  23.245   2.660
95186W        W66715  32.882  18.733  14.340
95187W        W66716  18.205   4.954  14.836
95188W        W66717  32.494  23.972  14.535
95189W        W66718  36.466  18.252  10.545
95190W        W66719   1.847  20.645   1.408
95191W        W66720  10.404  17.231   1.770
95192W        W66721   5.706  34.636  10.869
95193W        W66722  44.435  21.523   1.478
95194W        W66723  17.419  43.854  12.954
95195W        W66724  29.523  20.559   2.089
95196W        W66725   7.718   7.151   1.798
95197W        W66726  33.181  40.866   1.016
95198W        W66727  17.653  43.579  13.331
95199W        W66728   7.216  34.946   1.725
95200W        W66729  24.447  32.038   4.664
95201W        W66730  29.623   4.754  14.033
95202W        W66731  42.818  12.745   0.736
95203W        W66732  18.852  34.858   2.842
95204W        W66733  34.885  16.937  11.134
95205W        W66734  26.514   5.730  13.474
95206W        W66735  17.684  26.693   3.725
95207W        W66736  21.324  35.035  11.448
95208W        W66737   0.255  43.541   1.424
95209W        W66738   4.864  36.550  12.802
95210W        W66739  13.871   6.840  10.754
95211W        W66740  29.519  25.155  12.514
95212W        W66741  11.897  24.262   0.148
95213W        W66742  41.623  32.546  14.838
95214W        W66743  32.866  44.701   0.126
95215W        W66744   5.192  26.725   2.745
95216W        W66745  30.393  40.851   1.374
95217W        W66746  19.016  36.840   3.632
95218W        W66747  33.359  38.288   1.341
95219W        W66748  34.210  27.545  13.048
95220W        W66749  38.927  13.787  13.604
95221W        W66750  10.316  30.061  10.820
95222W        W66751  31.432  11.200  10.730
95223W        W66752  18.653   2.567   3.705
95224W        W66753  38.393  12.719   2.664
95225W        W66754  20.121  22.701   3.793
95226W        W66755   6.135  14.855  12.517
95227W        W66756   0.627   3.728  13.833
95228W        W66757   0.530  19.779  12.604
95229W        W66758  14.814  23.192  12.940
95230W        W66759  12.442  32.579  14.958
95231W        W66760  40.655   3.690  11.135
95232W        W66761  22.707  33.626   5.114
95233W        W66762  23.552  39.769   3.641
95234W        W66763  26.543   6.946  11.762
95235W        W66764  40.029   0.652   4.777
95236W        W66765   4.295  12.867  13.597
95237W        W66766  15.581  31.801   9.998
95238W        W66767   9.151   6.077   2.828
95239W        W66768  21.985   4.521   3.274
95240W        W66769   6.855  31.576  14.942
95241W        W66770   0.811  23.231  14.473
95242W        W66771  36.686  19.541   4.755
95243W        W66772   2.985  29.316  11.095
95244W        W66773  15.250  40.380   2.727
95245W        W66774   6.700  23.279  14.497
95246W        W66775  36.906  32.944   3.158
95247W        W66776  11.367  41.535  14.016
95248W        W66777   4.625  26.492   3.768
95249W        W66778  36.451  12.266   0.863
95250W        W66779  14.280  18.705   1.260
95251W        W66780  15.223  28.116  14.490
95252W        W66781  28.955  32.504   2.846
95253W        W66782  35.968  30.631  14.257
95254W        W66783  28.095  29.066  12.397
95255W        W66784   3.470  31.386  12.317
95256W        W66785  14.053   5.156  11.618
95257W        W66786  37.409  42.715   2.639
95258W        W66787  33.731  13.188   4.277
95259W        W66788  29.993   8.346  10.881
95260W        W66789  33.374  22.785   1.775
95261W        W66790   2.813  28.241   4.117
95262W        W66791  17.818   0.835  13.801
95263W        W66792  31.070  37.719  14.808
95264W        W66793   2.931  30.603  12.544
95265W        W66794  28.116  26.034   2.793
95266W        W66795   2.531  11.564   1.186
95267W        W66796   3.270  18.743  14.030
95268W        W66797  26.634   9.264  14.022
95269W        W66798   2.898   1.949  11.098
95270W        W66799   1.186  33.922   0.375
95271W        W66800  15.046   7.459   2.729
95272W        W66801  42.937   7.442  10.743
95273W        W66802  11.715  22.579   3.935
95274W        W66803  27.445   6.905  11.082
95275W        W66804  43.864  25.136   2.685
95276W        W66805  24.466  42.020  13.448
95277W        W66806   4.316  19.904  10.321
95278W        W66807  39.800  35.979   3.178
95279W        W66808  44.248   6.428  11.740
95280W        W66809   7.642  24.540  11.542
95281W        W66810  33.133  23.133   4.416
95282W        W66811  23.366  30.880   3.783
95283W        W66812  41.447  19.070   1.471
95284W        W66813  18.098  22.006   1.754
95285W        W66814   0.420  37.223  14.041
95286W        W66815  42.587  19.340   0.409
95287W        W66816  10.009  33.564   3.579
95288W        W66817  32.441  14.718   1.968
95289W        W66818  18.289  30.570  13.954
95290W        W66819   1.597  28.260  14.545
95291W        W66820  38.343  22.169   3.128
95292W        W66821  37.928  38.944  13.439
95293W        W66822  20.155  32.502  13.979
95294W        W66823  21.173  23.503   3.196
95295W        W66824   0.380   7.260  14.432
95296W        W66825  26.612  32.528  12.912
95297W        W66826  29.554  33.955  10.744
95298W        W66827  42.298  24.509   3.699
95299W        W66828   5.352  39.354   3.196
95300W        W66829  11.204  24.633   2.616
95301W        W66830  40.895  21.729  13.801
95302W        W66831   4.728  33.123   0.370
95303W        W66832  18.984  43.774   3.732
95304W        W66833  36.061  25.658  13.166
95305W        W66834  35.913   9.963  14.950
95306W        W66835  37.362  30.479   0.481
95307W        W66836  24.073  39.065   3.358
95308W        W66837   0.794  13.736  12.478
95309W        W66838  27.485  10.959  12.949
95310W        W66839  22.315  12.176  11.544
95311W        W66840  38.438   6.511  14.735
95312W        W66841  41.862  31.158   2.844
95313W        W66842  34.069  18.694   3.836
95314W        W66843  22.169  10.289   2.676
95315W        W66844  39.559  29.901  13.934
95316W        W66845  14.095  30.119  11.195
95317W        W66846  41.473  19.458   4.970
95318W        W66847  33.094  13.083   2.175
95319W        W66848  16.380  11.509  14.489
95320W        W66849  41.746  40.565   1.824
95321W        W66850  12.261   7.466  13.531
95322W        W66851  16.593  34.995  11.616
95323W        W66852   1.603  25.168  12.956
95324W        W66853   3.679  36.584  11.058
95325W        W66854   5.042  36.663   4.948
95326W        W66855  41.529  34.546   1.367
95327W        W66856  19.742  17.002   3.643
95328W        W66857  41.529  25.000   3.569
95329W        W66858  16.565  44.842  12.894
95330W        W66859  28.117   9.231  14.093
95331W        W66860  20.259  25.962  14.509
95332W        W66861  19.502  33.482  12.175
95333W        W66862  35.030  13.012   4.029
95334W        W66863  23.418  13.576   4.237
95335W        W66864  41.972  21.014  13.631
95336W        W66865  27.672  29.933   1.180
95337W        W66866  28.466  11.798  13.477
95338W        W66867   6.232  27.955  10.593
95339W        W66868  40.959   5.035  14.447
95340W        W66869  18.566   7.253  12.965
95341W        W66870  37.598   9.359   2.768
95342W        W66871  16.617  14.638  12.475
95343W        W66872  22.646  12.528   1.401
95344W        W66873   1.357  16.200  10.566
95345W        W66874   5.028  29.206   1.299
95346W        W66875  10.404  28.626   4.059
95347W        W66876  11.164   3.750  13.837
95348W        W66877   2.256  14.561  13.125
95349W        W66878  16.767  13.617   0.900
95350W        W66879   9.063  43.770   0.226
95351W        W66880  21.644  10.369  14.780
95352W        W66881  42.219  22.622   3.571
95353W        W66882  41.658  11.328  10.560
95354W        W66883  34.414  33.448  14.985
95355W        W66884  15.308   3.149   1.715
95356W        W66885  34.052  27.360   3.699
95357W        W66886  43.731  29.164   4.104
95358W        W66887   1.656  42.410   2.693
95359W        W66888  19.754  20.525   2.310
95360W        W66889  19.002   4.391  12.097
95361W        W66890  26.735  17.704   3.196
95362W        W66891  27.205  10.623  13.604
95363W        W66892   8.618  13.468   4.057
95364W        W66893  14.958   7.631  10.262
95365W        W66894   4.035  14.405  13.048
95366W        W66895  26.147  42.485   1.634
95367W        W66896  27.372  30.506   2.581
95368W        W66897  13.123   8.632   1.012
95369W        W66898   1.258  44.381   1.818
95370W        W66899   1.576   8.435   2.788
95371W        W66900  30.979  23.118   1.899
95372W        W66901  15.759   7.682   0.314
95373W        W66902  34.889  28.510   2.786
95374W        W66903  15.047   2.194   2.696
95375W        W66904  35.589  36.121   4.421
95376W        W66905  24.462  11.749  11.077
95377W        W66906  16.863  25.071  14.259
95378W        W66907  41.125   6.169   0.956
95379W        W66908  15.517  36.359   2.617
95380W        W66909  43.755  33.891  10.725
95381W        W66910   5.676   9.105   4.745
95382W        W66911  16.350  26.581   3.841
95383W        W66912  12.939   9.207  13.976
95384W        W66913  29.402   1.831  12.015
95385W        W66914  22.407  26.712   2.877
95386W        W66915  43.039  26.096   0.920
95387W        W66916  20.277  36.641  10.690
95388W        W66917  32.887   3.384  14.356
95389W        W66918   8.826  17.647   2.629
95390W        W66919  31.462   8.233   3.600
95391W        W66920  18.602  26.558  12.833
95392W        W66921  39.323  13.853   3.753
95393W        W66922  13.206  26.591   2.302
95394W        W66923   9.743  40.767  13.924
95395W        W66924  39.622  21.758  11.928
95396W        W66925  19.549  13.353  13.833
95397W        W66926  30.510  24.691   0.915
95398W        W66927  40.889  17.849   3.364
95399W        W66928  19.646   9.002  10.840
95400W        W66929  25.585  25.982  12.520
95401W        W66930  22.945  28.839   0.920
95402W        W66931  19.931  30.293  10.704
95403W        W66932  26.740  21.057   0.801
95404W        W66933  11.261  30.573   2.832
95405W        W66934   8.597   8.357   1.289
95406W        W66935  38.965   0.823   4.183
95407W        W66936  21.279  34.701   0.001
95408W        W66937  33.551   5.336   0.810
95409W        W66938   3.853  37.451  11.393
95410W        W66939   9.260  20.806   0.951
95411W        W66940   2.452   8.879   3.338
95412W        W66941   1.431  30.041   1.379
95413W        W66942  10.812  36.926   0.634
95414W        W66943  20.494  36.958  14.404
95415W        W66944  15.337  26.670  11.032
95416W        W66945  21.769  14.360   2.111
95417W        W66946   0.355  24.933  13.262
95418W        W66947  30.619  32.446  13.016
95419W        W66948   4.069  33.478   5.142
95420W        W66949  44.848  31.073  10.968
95421W        W66950  26.089  26.726   3.662
95422W        W66951  33.732  27.911  11.556
95423W        W66952  11.831  25.268   3.150
95424W        W66953  11.290   8.740  10.643
95425W        W66954  30.711  29.197  10.495
95426W        W66955   7.998   4.508   0.826
95427W        W66956  22.144  21.021  10.676
95428W        W66957  40.032   6.215  12.670
95429W        W66958  35.107  14.848  14.757
95430W        W66959  21.162  33.371  13.064
95431W        W66960  15.411  15.257  12.811
95432W        W66961  41.085  23.993   2.869
95433W        W66962  18.737   3.373  14.432
95434W        W66963   1.210   5.350   1.317
95435W        W66964   7.689   4.909  11.560
95436W        W66965   5.417  43.886  12.903
95437W        W66966   6.165   5.215  10.699
95438W        W66967  14.202   8.926   0.244
95439W        W66968  33.800  33.589   3.818
95440W        W66969  34.079   0.611   2.204
95441W        W66970  19.788  34.402  12.625
95442W        W66971  30.884   6.279   1.884
95443W        W66972  33.554   8.451   1.229
95444W        W66973   4.345   4.018  13.542
95445W        W66974  38.982  13.838   1.100
95446W        W66975  25.576  12.318  13.065
95447W        W66976  18.782  18.826   3.739
95448W        W66977  20.659  41.513  14.001
95449W        W66978  28.051  29.468   3.348
95450W        W66979  42.203   6.381   3.921
95451W        W66980   0.509  24.763  11.104
95452W        W66981  23.492  16.296   1.664
95453W        W66982  33.973  10.658  12.092
95454W        W66983  30.146  44.954   2.796
95455W        W66984   1.005  40.493  11.594
95456W        W66985  14.327  42.793   1.864
95457W        W66986  38.503  12.563   4.214
95458W        W66987  36.932  37.010   1.618
95459W        W66988  24.433   1.425  10.532
95460W        W66989  43.894  16.175  10.618
95461W        W66990  25.799  12.650  13.420
95462W        W66991  18.520  35.997  11.885
95463W        W66992  16.575  10.993   4.225
95464W        W66993  18.846  23.274  11.173
95465W        W66994  43.217   1.278   1.748
95466W        W66995  29.762   1.635   2.589
95467W        W66996  37.159  42.907  10.694
95468W        W66997   2.516  28.784   2.942
95469W        W66998  36.367   3.638   4.667
95470W        W66999  16.794  32.578  12.442
95471W        W67000  31.428  44.453   2.200
95472W        W67001  34.057   1.695   0.055
95473W        W67002  37.587  28.402  11.134
95474W        W67003  34.346  26.569   0.288
95475W        W67004  27.540   0.005   0.575
95476W        W67005  36.225  35.142  11.552
95477W        W67006  11.852   1.039   3.616
95478W        W67007  30.935   3.855   1.743
95479W        W67008  12.393  27.101  14.344
95480W        W67009  25.933   6.844  13.407
95481W        W67010  44.663   3.134  14.797
95482W        W67011  44.337  42.889   4.112
95483W        W67012  37.441  16.018  14.469
95484W        W67013  17.144  33.790  10.670
95485W        W67014  43.933  18.988   2.726
95486W        W67015   4.444  25.687  13.812
95487W        W67016  15.580   7.749  12.887
95488W        W67017  15.692  44.805   2.880
95489W        W67018  35.163   6.152   3.369
95490W        W67019   8.178  18.277   2.163
95491W        W67020  11.682   8.001  13.941
95492W        W67021  14.798  37.865  13.410
95493W        W67022  43.321  42.496   2.372
95494W        W67023   3.032  14.757   1.824
95495W        W67024  14.570  23.179   1.154
95496W        W67025  14.431   5.806   2.255
95497W        W67026  38.926   5.237  13.128
95498W        W67027  12.666  36.594   1.795
95499W        W67028  22.321  26.692  11.978
95500W        W67029  23.179   9.192   3.706
95501W        W67030   1.019  29.290  10.782
95502W        W67031  25.233  13.673   1.281
95503W        W67032  26.691   3.532  10.978
95504W        W67033  25.007  35.312  13.499
95505W        W67034  23.621  23.808   0.724
95506W        W67035  16.293  41.286   3.152
95507W        W67036  26.892  14.348  10.761
95508W        W67037   9.411   5.391  10.741
95509W        W67038   0.955  19.019   2.718
95510W        W67039  31.799  44.125   4.115
95511W        W67040   2.292  27.118  12.409
95512W        W67041  15.671  16.871   3.243
95513W        W67042  23.657  27.650   2.819
95514W        W67043  20.707  21.722  13.543
95515W        W67044  16.060   8.036   2.052
95516W        W67045  10.786   2.589   4.512
95517W        W67046  42.357  16.645   0.787
95518W        W67047  19.156   1.343  12.351
95519W        W67048   4.517  24.698   2.380
95520W        W67049  14.101  16.254  12.615
95521W        W67050   6.756   5.523   3.233
95522W        W67051  29.021  32.570   3.351
95523W        W67052  23.262  30.052  11.653
95524W        W67053  20.177  17.140   4.633
95525W        W67054  43.010  16.248  13.376
95526W        W67055  11.138   1.417  14.432
95527W        W67056  43.745   2.780  11.450
95528W        W67057  42.481  21.177   0.061
95529W        W67058   9.601  33.596   4.913
95530W        W67059  18.778  24.604   3.788
95531W        W67060   6.997  15.290   3.564
95532W        W67061  27.167  15.840  12.297
95533W        W67062  43.553   4.266  11.767
95534W        W67063   7.337  28.771  13.468
95535W        W67064  40.895   3.505  14.347
95536W        W67065  21.625   1.921   2.362
95537W        W67066  14.336  23.032  13.018
95538W        W67067  43.331   3.893  14.415
95539W        W67068   1.685  31.950   2.220
95540W        W67069  28.611  32.324  12.623
95541W        W67070  12.106  11.833   4.176
95542W        W67071  32.602  40.650  12.251
95543W        W67072  32.782  20.988  11.243
95544W        W67073   9.719  32.809  10.755
95545W        W67074  22.039  38.085  13.543
95546W        W67075  18.363  25.659   2.106
95547W        W67076  31.934  15.157   0.731
95548W        W67077  40.517  32.065  13.785
95549W        W67078   9.955  25.074  13.844
95550W        W67079  13.633  29.508   3.186
95551W        W67080  34.100   6.672  14.677
95552W        W67081  27.631  10.127  11.952
95553W        W67082  39.521  27.249  13.130
95554W        W67083  24.462   4.403  14.776
95555W        W67084   9.835  15.688   1.419
95556W        W67085   3.175   5.706   4.050
95557W        W67086  29.904  10.817  13.926
95558W        W67087  18.336  22.651  14.924
95559W        W67088  27.618  25.728  12.842
95560W        W67089  31.178  41.754   0.810
95561W        W67090  42.873  11.377  11.954
95562W        W67091  40.174  39.942  12.153
95563W        W67092  36.572   2.028  13.702
95564W        W67093  30.444  19.307  14.988
95565W        W67094   0.648  40.741  13.592
95566W        W67095  20.219  27.394   1.764
95567W        W67096  37.092  26.246   3.548
95568W        W67097   1.527  28.164  12.955
95569W        W67098   5.828  14.124   1.221
95570W        W67099  17.785   7.596   1.726
95571W        W67100   7.129  13.827  14.365
95572W        W67101  38.866  26.617   4.445
95573W        W67102  21.128   5.850  11.212
95574W        W67103  41.416  32.999   0.970
95575W        W67104   8.004   8.911   0.287
95576W        W67105   6.314  27.440  10.626
95577W        W67106  43.382  36.812   3.107
95578W        W67107   4.279  34.287  12.735
95579W        W67108  19.666  33.433   0.825
95580W        W67109  38.318  34.694  11.612
95581W        W67110   5.166  39.118   2.755
95582W        W67111  18.550   2.271  10.439
95583W        W67112   3.444   6.853  11.003
95584W        W67113   1.182  41.477   0.944
95585W        W67114   9.407  26.202  11.780
95586W        W67115  23.664  25.744  13.915
95587W        W67116  18.043   8.114   1.827
95588W        W67117  17.806  30.146   2.262
95589W        W67118  39.146  23.608   3.739
95590W        W67119  11.375   0.241   0.714
95591W        W67120  33.249  37.950   2.320
95592W        W67121   8.377  23.457   0.955
95593W        W67122  43.217  19.506  11.882
95594W        W67123   9.265   0.693  12.404
95595W        W67124  28.568  38.758  13.359
95596W        W67125  34.618  18.508   0.223
95597W        W67126  15.786  37.577  10.190
95598W        W67127  36.669  17.592   0.811
95599W        W67128  30.695  37.501   1.359
95600W        W67129  11.865  39.266  10.733
95601W        W67130  32.786   4.085   2.277
95602W        W67131  28.096  15.260  11.058
95603W        W67132  21.985  37.507  10.795
95604W        W67133  11.083  27.067  11.068
95605W        W67134  43.957  29.031   4.545
95606W        W67135  17.650  26.916   2.489
95607W        W67136  32.039  19.050   1.403
95608W        W67137   2.327  24.610   2.480
95609W        W67138  12.807  37.483   4.563
95610W        W67139  12.358  14.236   2.306
95611W        W67140  33.911  25.855   3.642
95612W        W67141  43.438  20.733  13.496
95613W        W67142   1.545  16.116  13.615
95614W        W67143  34.090  36.347   1.740
95615W        W67144  35.598   7.535  12.236
95616W        W67145  27.521  13.766   1.146
95617W        W67146  32.609  30.261   1.692
95618W        W67147  27.558   5.244  10.633
95619W        W67148  39.888  24.447   3.245
95620W        W67149  32.289   7.316  14.833
95621W        W67150  41.054   3.728   1.330
95622W        W67151  20.174  15.287  14.520
95623W        W67152  14.206  17.047  11.516
95624W        W67153  29.015  23.770  14.379
95625W        W67154  33.015  36.928   0.002
95626W        W67155  34.870  19.599   2.246
95627W        W67156   1.936   0.798  14.376
95628W        W67157   4.983  36.641  10.664
95629W        W67158  27.460  36.487  14.771
95630W        W67159  21.725  36.318  11.102
95631W        W67160  18.029  28.257  11.979
95632W        W67161  17.649  12.720   2.415
95633W        W67162  16.989  11.104  11.905
95634W        W67163   2.826  12.355   1.255
95635W        W67164  32.062   4.878   4.151
95636W        W67165  15.664  27.894   0.436
95637W        W67166   2.573  44.430  12.303
95638W        W67167  15.313  30.545  11.872
95639W        W67168   4.386  14.598   1.736
95640W        W67169  17.908   2.448  13.779
95641W        W67170  37.830  32.486   0.432
95642W        W67171  21.191   9.901  14.188
95643W        W67172  34.567  30.108   4.378
95644W        W67173  22.718   7.925   0.578
95645W        W67174  18.247   0.983  10.743
95646W        W67175  35.514  36.596  14.390
95647W        W67176  44.525  41.633   4.357
95648W        W67177   9.732  21.699   4.814
95649W        W67178  11.100  36.070  13.289
95650W        W67179  18.887  28.507  10.981
95651W        W67180  15.130  17.522  10.517
95652W        W67181  22.206   3.335  14.278
95653W        W67182  21.702  22.038  13.506
95654W        W67183  10.567  27.469   4.379
95655W        W67184  28.886  35.036  12.072
95656W        W67185  28.004  19.609   1.888
95657W        W67186  11.206  17.062  13.010
95658W        W67187  40.317  18.169  12.898
95659W        W67188  19.564   7.700   4.682
95660W        W67189  27.082  43.365   4.117
95661W        W67190   8.773  41.318  13.535
95662W        W67191   0.382  23.624  12.000
95663W        W67192  16.702  13.673  11.067
95664W        W67193  30.321  36.588   4.164
95665W        W67194  41.316  19.134  14.878
95666W        W67195  11.888  33.547  10.625
95667W        W67196  17.654  19.859  14.870
95668W        W67197   3.214  21.059  12.748
95669W        W67198  39.281  25.774  11.338
95670W        W67199  23.963   6.882   0.858
95671W        W67200  15.614  31.509   2.795
95672W        W67201   5.422   3.130  14.094
95673W        W67202   5.318  14.826  14.715
95674W        W67203  23.348  21.962  13.954
95675W        W67204   0.529  18.778  13.452
95676W        W67205  37.584   9.771   4.381
95677W        W67206  11.124  15.728  14.792
95678W        W67207  23.990   6.941   1.655
95679W        W67208  14.824  31.992   2.747
95680W        W67209  42.361   6.072  11.526
95681W        W67210  16.641  15.364   2.088
95682W        W67211   6.252  10.153   5.066
95683W        W67212  19.018   4.491   4.089
95684W        W67213  13.509  11.203  10.822
95685W        W67214  21.713  39.861   3.199
95686W        W67215  41.322  15.723   0.507
95687W        W67216  44.772  12.609  11.943
95688W        W67217  27.454  43.346  14.765
95689W        W67218  30.538   9.548   1.925
95690W        W67219  32.782  25.000   0.055
95691W        W67220  24.619  15.507   1.201
95692W        W67221  20.108   6.862  13.048
95693W        W67222   9.807  36.838   1.367
95694W        W67223  21.003  28.659  12.621
95695W        W67224  12.862  33.633   1.225
95696W        W67225  37.410  30.867   0.816
95697W        W67226  27.155  18.244  10.960
95698W        W67227  11.902  20.529   3.298
95699W        W67228  24.133  22.945  13.102
95700W        W67229  24.948  21.207  12.290
95701W        W67230  35.382  26.191   3.980
95702W        W67231   9.861  10.673   4.464
95703W        W67232   0.647  41.154  11.173
95704W        W67233  41.360  29.145  10.757
95705W        W67234  44.837  29.064   3.281
95706W        W67235  32.767  13.017   0.759
95707W        W67236  26.594  33.074  11.540
95708W        W67237  10.372  36.272   9.805
95709W        W67238  22.985  30.148  12.070
95710W        W67239  22.964   9.165  12.876
95711W        W67240  35.934  31.005   3.353
95712W        W67241  22.520  10.248  14.016
95713W        W67242  10.053  21.949  13.467
95714W        W67243   1.402  32.193   0.724
95715W        W67244  12.855  25.180  13.965
95716W        W67245  39.061   7.173  11.680
95717W        W67246  42.724  21.607   2.227
95718W        W67247   6.298   2.986  13.281
95719W        W67248  41.261  26.929   4.189
95720W        W67249  44.524  31.424   3.234
95721W        W67250  22.036  32.565  10.541
95722W        W67251   0.981  29.916   3.807
95723W        W67252  43.700   9.110  11.691
95724W        W67253  35.872  19.906   3.901
95725W        W67254  39.170  44.318   4.173
95726W        W67255  13.166  22.228  11.379
95727W        W67256   5.435   6.710   4.667
95728W        W67257  12.180  40.994   1.161
95729W        W67258  37.877   7.867   0.938
95730W        W67259  27.006  27.111  14.159
95731W        W67260  44.886  12.352   2.357
95732W        W67261   6.073  44.401  12.934
95733W        W67262   4.952  17.609   4.433
95734W        W67263  38.923  25.240  11.599
95735W        W67264   8.146  32.631   4.218
95736W        W67265   4.790  23.039   1.394
95737W        W67266  25.813  38.865   9.757
95738W        W67267  22.804  37.394   0.275
95739W        W67268  18.311  27.047  11.626
95740W        W67269   8.633  40.813   4.767
95741W        W67270  42.496  41.881   0.477
95742W        W67271  35.941  12.074   4.045
95743W        W67272  33.055  34.843  12.058
95744W        W67273  37.083  17.081  11.042
95745W        W67274  12.404  12.647   4.494
95746W        W67275  43.785  15.298   2.620
95747W        W67276  31.440  22.976   3.280
95748W        W67277  10.394  36.844   2.030
95749W        W67278  38.130  25.231  14.475
95750W        W67279  43.414   5.992   0.947
95751W        W67280  29.216  27.319  10.159
95752W        W67281  29.481  11.543   0.368
95753W        W67282  19.018  32.176   1.252
95754W        W67283  25.182  16.786  14.811
95755W        W67284  19.986  43.318  12.302
95756W        W67285   8.875  23.856  14.509
95757W        W67286  41.741  31.109  14.870
95758W        W67287  28.372  40.945  12.053
95759W        W67288  43.466  14.036   4.088
95760W        W67289   1.005   6.541   4.026
95761W        W67290  13.077  12.089  11.535
95762W        W67291  40.553  14.860   0.448
95763W        W67292  42.865   3.723  14.289
95764W        W67293  44.371  35.052  12.688
95765W        W67294  26.696  31.341   4.207
95766W        W67295  43.435  36.600   0.358
95767W        W67296   6.266  15.830   2.387
95768W        W67297   4.253   2.887   1.774
95769W        W67298  17.557  22.217   0.301
95770W        W67299   5.897  23.101   4.481
95771W        W67300  23.168  10.360  12.402
95772W        W67301  31.248   9.048   0.947
95773W        W67302  14.675  43.419  11.694
95774W        W67303  35.605  12.291   2.046
95775W        W67304  36.790  15.330  12.571
95776W        W67305  28.600  12.090   0.440
95777W        W67306  36.147  12.151  11.090
95778W        W67307   1.873  13.429  13.826
95779W        W67308  36.500  15.188  13.990
95780W        W67309  42.271  44.846  11.085
95781W        W67310  25.651  25.574   0.991
95782W        W67311  35.987   0.994   4.514
95783W        W67312  36.026  24.930  14.374
95784W        W67313  13.259  36.356  10.721
95785W        W67314  14.688   4.047   0.830
95786W        W67315  38.574  42.551   3.776
95787W        W67316  25.937   4.764   2.301
95788W        W67317  17.831  20.254  14.062
95789W        W67318  14.339  28.601   0.677
95790W        W67319  41.557  35.442  11.539
95791W        W67320  20.306  28.094  14.891
95792W        W67321  11.669  41.987  12.584
95793W        W67322  11.649   8.756  11.688
95794W        W67323  23.962   1.236  11.999
95795W        W67324   8.304  43.852   4.555
95796W        W67325  11.136  26.567   2.266
95797W        W67326   0.262  11.724  13.876
95798W        W67327   5.399   1.800  14.863
95799W        W67328  25.571   3.813   4.105
95800W        W67329  24.037  32.355  10.424
95801W        W67330  24.060  40.147   3.221
95802W        W67331  15.179  27.926   0.873
95803W        W67332  39.456  22.679   2.358
95804W        W67333  23.141  34.404  13.478
95805W        W67334  20.285   5.927  11.997
95806W        W67335  23.692  27.171   1.388
95807W        W67336   3.144  30.733   1.405
95808W        W67337  27.063  43.603   3.635
95809W        W67338  26.217  12.609   0.350
95810W        W67339   0.690  14.697   0.782
95811W        W67340  43.261   8.464   2.756
95812W        W67341  26.554  42.387   1.193
95813W        W67342  10.761  29.999  11.688
95814W        W67343   5.849   2.982  14.677
95815W        W67344  12.829   6.699   2.936
95816W        W67345  42.101  10.684  12.058
95817W        W67346   9.432  19.818  13.825
95818W        W67347   2.856  16.681   0.237
95819W        W67348  11.910   8.814  12.890
95820W        W67349  19.300  21.072  12.774
95821W        W67350  26.011  16.991  13.830
95822W        W67351  42.580  17.721  14.284
95823W        W67352  17.815  25.599  13.491
95824W        W67353  39.933  29.725   2.693
95825W        W67354  11.071  22.282   1.914
95826W        W67355  21.717   2.159  10.993
95827W        W67356  37.901  38.106   3.380
95828W        W67357  39.264   1.047   1.286
95829W        W67358  36.703  31.036  10.995
95830W        W67359  19.297  14.569  11.544
95831W        W67360  27.154  42.392   2.979
95832W        W67361  42.337  24.481  12.697
95833W        W67362  34.873  11.732  14.875
95834W        W67363  15.849  26.963   2.157
95835W        W67364   9.709  42.724   0.739
95836W        W67365  10.219   3.950  10.990
95837W        W67366  19.658   0.898   4.135
95838W        W67367  29.107  24.263  14.311
95839W        W67368   7.320   6.085   1.440
95840W        W67369  28.005  39.379   0.493
95841W        W67370  31.373  39.576   3.211
95842W        W67371  15.626  24.128  13.479
95843W        W67372   5.287  27.053  10.582
95844W        W67373  20.678  23.628   3.229
95845W        W67374  37.085  33.810   1.890
95846W        W67375  16.263   6.030   1.772
95847W        W67376  32.046  14.320  14.088
95848W        W67377  30.213  29.922  12.491
95849W        W67378  32.025  32.940  11.065
95850W        W67379  39.091  29.038   1.339
95851W        W67380   2.706   9.355   3.318
95852W        W67381  43.369  38.330   1.974
95853W        W67382  13.082  19.630   4.664
95854W        W67383  24.072   0.774  13.904
95855W        W67384  17.083  17.306   2.685
95856W        W67385  26.407  30.333   4.288
95857W        W67386  36.519  25.545   0.752
95858W        W67387   6.330  21.149   5.118
95859W        W67388  39.591  17.755  11.062
95860W        W67389  20.279  40.794  12.115
95861W        W67390  16.319  19.780  13.869
95862W        W67391  33.007  35.920   0.645
95863W        W67392   3.387   1.839  11.251
95864W        W67393  35.318  42.260   1.442
95865W        W67394  22.301   0.857   4.749
95866W        W67395  35.219  21.234  12.571
95867W        W67396  19.966  19.600   2.166
95868W        W67397  17.917  25.809   4.103
95869W        W67398  29.516  19.365   2.559
95870W        W67399  30.650   8.425  11.615
95871W        W67400  39.932   3.955   4.049
95872W        W67401  22.137  27.401  14.479
95873W        W67402  44.513  15.243   3.355
95874W        W67403  14.767  37.867  12.611
95875W        W67404   7.855  20.601   2.128
95876W        W67405  20.294  43.187   1.808
95877W        W67406  38.151  29.237  13.089
95878W        W67407   4.163  29.106   4.421
95879W        W67408  26.614  36.864  12.957
95880W        W67409  27.545   0.613   4.290
95881W        W67410  16.610  19.046   4.183
95882W        W67411  41.932  13.350   4.630
95883W        W67412   2.128  19.630   3.633
95884W        W67413   8.821   9.927  10.809
95885W        W67414  31.380  29.581   3.918
95886W        W67415  44.023   6.427  13.929
95887W        W67416  14.479   2.816   3.676
95888W        W67417  25.271  10.207  12.441
95889W        W67418  35.785  23.938  14.393
95890W        W67419  37.881   7.415  13.130
95891W        W67420   3.011  42.209  11.551
95892W        W67421  14.552  19.131   3.142
95893W        W67422   6.549  36.084  11.640
95894W        W67423  20.996  18.049   2.320
95895W        W67424  25.610   6.130  10.429
95896W        W67425  30.325  40.836   2.822
95897W        W67426  29.571  37.843   4.242
95898W        W67427  15.388  35.589   4.620
95899W        W67428  20.128   2.130   3.669
95900W        W67429  32.507  10.920   2.195
95901W        W67430  15.360  43.066  14.373
95902W        W67431   6.913  31.629  12.348
95903W        W67432  19.304  29.610   1.743
95904W        W67433   0.943  18.463   4.230
95905W        W67434  14.122  35.406   1.853
95906W        W67435  42.132  14.143   1.885
95907W        W67436  11.579   1.969   4.170
95908W        W67437  19.096  24.227   1.295
95909W        W67438  41.823  20.795   3.185
95910W        W67439  35.841  20.470   2.766
95911W        W67440   8.699  30.480  10.637
95912W        W67441  39.893  22.142   2.438
95913W        W67442  12.421  40.045  10.713
95914W        W67443  38.486  14.635  11.673
95915W        W67444   8.181  31.614   2.641
95916W        W67445  36.543   9.956  12.026
95917W        W67446   9.348  24.141  12.499
95918W        W67447  33.639  16.207   0.947
95919W        W67448  19.519  10.606   0.648
95920W        W67449  13.284  21.251  13.075
95921W        W67450  35.845  10.418  10.783
95922W        W67451  41.056  31.548  10.624
95923W        W67452  43.350  12.760  12.095
95924W        W67453  32.629   7.806  12.018
95925W        W67454  12.623  22.470   3.658
95926W        W67455  27.452  15.658   2.339
95927W        W67456  33.834   5.110  10.801
95928W        W67457  29.919  41.547   0.862
95929W        W67458  42.345  21.155  11.935
95930W        W67459  10.768  34.898   0.061
95931W        W67460  39.516  34.128   4.837
95932W        W67461  17.077   8.967   2.632
95933W        W67462  29.529   4.412   0.371
95934W        W67463   0.875  31.443   0.608
95935W        W67464  10.288   7.499  12.429
95936W        W67465   9.656  42.028   0.052
95937W        W67466   6.249  34.021   2.390
95938W        W67467  34.086  43.528   1.268
95939W        W67468  11.368  31.132   0.926
95940W        W67469  28.644  34.727   0.987
95941W        W67470  15.145  32.458  10.531
95942W        W67471  20.285  43.867   4.150
95943W        W67472   9.658  22.311  14.276
95944W        W67473  43.232  12.684  11.030
95945W        W67474  12.223   9.602   3.695
95946W        W67475   7.757  26.327  13.030
95947W        W67476  39.363  30.842   1.576
95948W        W67477  36.202  37.949  13.988
95949W        W67478   1.264  38.497  14.232
95950W        W67479  10.561  14.839  11.509
95951W        W67480  36.970  27.869   4.825
95952W        W67481  13.733   8.250   1.240
95953W        W67482  16.229  40.988   2.449
95954W        W67483  38.261  43.864   4.821
95955W        W67484  27.939  13.787  12.664
95956W        W67485  34.569   7.548  11.213
95957W        W67486  26.175  10.101   1.987
95958W        W67487  21.416  15.602   0.531
95959W        W67488  32.227   7.621  11.145
95960W        W67489  26.639  14.335  10.314
95961W        W67490  24.528  14.752   1.955
95962W        W67491  24.544  42.943  13.539
95963W        W67492  21.331  20.066   2.565
95964W        W67493  14.042   3.445  11.505
95965W        W67494   0.078   2.189  14.988
95966W        W67495  25.044  24.838   1.330
95967W        W67496  25.988   5.230  14.818
95968W        W67497   7.193  40.165  14.033
95969W        W67498  35.584  22.027  11.667
95970W        W67499  44.292   6.945   0.671
95971W        W67500  14.674  13.860   1.293
95972W        W67501  15.727  12.600  10.941
95973W        W67502   7.848  40.432   0.771
95974W        W67503  31.903  34.910  10.707
95975W        W67504  24.184   9.310   4.590
95976W        W67505  40.609   3.617   4.614
95977W        W67506   9.192  44.550  13.345
95978W        W67507   7.829  13.266  13.422
95979W        W67508  40.397  44.488   2.562
95980W        W67509  19.187  23.901   0.284
95981W        W67510  42.929  35.789   4.787
95982W        W67511   3.779  24.738  13.073
95983W        W67512  27.994  12.107  11.082
95984W        W67513  12.823  40.121  11.004
95985W        W67514   7.962  23.517  13.118
95986W        W67515  10.877  38.322   0.872
95987W        W67516  42.942  26.261   0.400
95988W        W67517  36.092  43.854  10.729
95989W        W67518  27.139  25.139   4.728
95990W        W67519  21.647  37.104  12.015
95991W        W67520   0.350  26.782  12.466
95992W        W67521   4.559   6.392   1.416
95993W        W67522  38.381   2.963   1.023
95994W        W67523  38.519  19.034  11.618
95995W        W67524  22.937  32.440  13.409
95996W        W67525  19.784  22.741  13.108
95997W        W67526  37.589  42.313  11.995
95998W        W67527  38.880  36.621  11.243
95999W        W67528   8.714  33.511  12.454
96000W        W67529  22.575  20.252  10.744
96001W        W67530  38.951  19.283  11.622
96002W        W67531   8.999  31.388  10.669
96003W        W67532  42.448  23.584   3.339
96004W        W67533  35.878   2.478  13.389
96005W        W67534  33.530  36.888  12.530
96006W        W67535  40.406  33.394  11.135
96007W        W67536  27.186  10.245  14.306
96008W        W67537  26.540  21.706  13.454
96009W        W67538   4.954  41.774   1.474
96010W        W67539  39.040  24.175  10.778
96011W        W67540  22.895  25.679   1.808
96012W        W67541   2.514   5.882   3.163
96013W        W67542  31.637   7.327  11.538
96014W        W67543  31.698  26.681  12.543
96015W        W67544  31.560  20.073   4.850
96016W        W67545  11.620  27.143   4.569
96017W        W67546  13.394  20.434   4.534
96018W        W67547   1.544   7.417  14.292
96019W        W67548   1.140   7.381  10.275
96020W        W67549  40.799  10.973   1.828
96021W        W67550   2.876  23.215  10.691
96022W        W67551  27.732  30.145   2.177
96023W        W67552  43.714   4.492   0.815
96024W        W67553  36.742   3.334  13.981
96025W        W67554  13.271  23.625   3.768
96026W        W67555  30.592   3.725   0.418
96027W        W67556   4.696  30.179  11.965
96028W        W67557  11.110   3.156   1.087
96029W        W67558  34.851  42.800   1.921
96030W        W67559  42.491  28.188  12.815
96031W        W67560  44.269   7.477  11.890
96032W        W67561  43.872  30.451   1.943
96033W        W67562  18.254  17.320  11.950
96034W        W67563  32.355   8.825  11.608
96035W        W67564  31.165  43.818  12.319
96036W        W67565   7.152   2.446  11.596
96037W        W67566  39.321   5.210   0.043
96038W        W67567   6.935  36.612  14.057
96039W        W67568   5.605  16.505  10.960
96040W        W67569  18.057  43.312  13.494
96041W        W67570  21.192   2.803  11.677
96042W        W67571  20.622  17.312  10.558
96043W        W67572  40.330  33.938   1.215
96044W        W67573  22.053   2.924  11.228
96045W        W67574   6.043  28.454   1.729
96046W        W67575  35.044  27.648   1.998
96047W        W67576  40.005   5.333  13.950
96048W        W67577  27.493  12.395  12.066
96049W        W67578  28.998   4.699   4.829
96050W        W67579  21.281   0.214  14.586
96051W        W67580  18.819  39.490  12.077
96052W        W67581   9.584  22.322  12.927
96053W        W67582  13.916  29.369   0.951
96054W        W67583  11.421   0.984  13.557
96055W        W67584   0.446   0.491  10.758
96056W        W67585  20.611  40.344  14.413
96057W        W67586  15.751  34.612  12.344
96058W        W67587  37.530   5.140   0.192
96059W        W67588  32.168  33.284  11.405
96060W        W67589  38.000  16.674  10.678
96061W        W67590  13.232  33.990   1.134
96062W        W67591   9.124   3.330  14.963
96063W        W67592  44.691   1.748   4.522
96064W        W67593   9.228  23.971  14.862
96065W        W67594  41.885  19.717   1.017
96066W        W67595  38.792  34.820   2.460
96067W        W67596  44.520  40.585  11.565
96068W        W67597   1.222  28.067  10.662
96069W        W67598  23.797  35.923  14.825
96070W        W67599   6.802  35.600  11.583
96071W        W67600   9.205  23.663  12.379
96072W        W67601  27.645  22.095   1.189
96073W        W67602  12.090  36.987  13.450
96074W        W67603  34.132  25.655  12.614
96075W        W67604  39.892  33.158   3.567
96076W        W67605  25.178  19.823   5.173
96077W        W67606  30.741  21.626  12.816
96078W        W67607  31.131  31.075   2.738
96079W        W67608   9.004  35.377   1.653
96080W        W67609  22.040  19.090  10.773
96081W        W67610  10.473   3.967  11.777
96082W        W67611  15.545  20.305  14.226
96083W        W67612  12.223  11.462   1.881
96084W        W67613  29.582  36.006   0.681
96085W        W67614  12.410  17.812   2.646
96086W        W67615   3.298  22.974  14.970
96087W        W67616  22.707  16.271   2.318
96088W        W67617  33.527  37.965  10.495
96089W        W67618   5.080  40.267   3.351
96090W        W67619   3.043  33.094  12.425
96091W        W67620  19.826  22.450   4.157
96092W        W67621   4.635  17.596  13.344
96093W        W67622  23.661  35.369   0.808
96094W        W67623  18.867   4.201  11.633
96095W        W67624   1.782  26.583  13.410
96096W        W67625  32.193  37.958  12.915
96097W        W67626  10.364  42.001   0.484
96098W        W67627  25.082  15.196   0.804
96099W        W67628  19.058  36.939  11.440
96100W        W67629   1.351  15.056  14.438
96101W        W67630  14.314  44.198  11.271
96102W        W67631  36.343  31.494   4.512
96103W        W67632  18.456   8.949   1.708
96104W        W67633  22.173  37.836  12.031
96105W        W67634  28.081  38.410  10.774
96106W        W67635  40.277  22.892   2.987
96107W        W67636  44.807  22.813   0.105
96108W        W67637  32.962   5.470  12.515
96109W        W67638   3.861  37.984  14.055
96110W        W67639   2.595  29.061  11.496
96111W        W67640  14.252  43.573   1.263
96112W        W67641  19.822  23.190  11.576
96113W        W67642  11.058   7.108   3.619
96114W        W67643   8.940  41.573   0.949
96115W        W67644  10.910  23.921  10.964
96116W        W67645   9.735  40.421   2.185
96117W        W67646  31.411  25.065  11.236
96118W        W67647  23.783  17.346  10.802
96119W        W67648  34.358  21.310  14.616
96120W        W67649  13.251  19.563  13.523
96121W        W67650   4.966  11.996  13.926
96122W        W67651  44.709  34.595   4.792
96123W        W67652  34.425  12.621  10.659
96124W        W67653  14.140  22.233   4.831
96125W        W67654   1.680  23.105  12.903
96126W        W67655   3.131   7.696  13.520
96127W        W67656  36.873   3.861  11.666
96128W        W67657  16.591  19.524   4.982
96129W        W67658   0.423  43.767   2.340
96130W        W67659  39.257   3.087  13.923
96131W        W67660  41.031  25.034  12.024
96132W        W67661  13.286  28.203   4.581
96133W        W67662  14.122  27.904  14.010
96134W        W67663  41.496  27.588  14.706
96135W        W67664  22.132  37.894  13.050
96136W        W67665  23.643  32.088  11.479
96137W        W67666  10.118  33.041   3.753
96138W        W67667  23.703  13.474   1.087
96139W        W67668  14.612  15.168  13.426
96140W        W67669  13.190   2.424  10.978
96141W        W67670   8.628  35.599  11.084
96142W        W67671  42.898  43.549  14.301
96143W        W67672   7.299  18.629   3.061
96144W        W67673  33.779  31.808   2.333
96145W        W67674  37.134  38.089   3.632
96146W        W67675  30.538   9.638   4.165
96147W        W67676  27.702  16.083  12.989
96148W        W67677   4.839  21.238  13.103
96149W        W67678  27.987  40.141  10.277
96150W        W67679  25.392  42.500   4.345
96151W        W67680  36.910  39.272   1.269
96152W        W67681  40.362  24.466  12.065
96153W        W67682   8.942  38.175   4.010
96154W        W67683   1.966  24.456   2.835
96155W        W67684   0.607  41.308   1.969
96156W        W67685   5.698  14.840  14.368
96157W        W67686   5.969  26.663   2.961
96158W        W67687  10.559  36.904  13.454
96159W        W67688  22.941  13.497  13.553
96160W        W67689  44.466  35.825  11.624
96161W        W67690  43.049  28.183   2.398
96162W        W67691  35.878  31.003  12.911
96163W        W67692  10.396  16.155  10.010
96164W        W67693   2.266   9.721  12.883
96165W        W67694  38.840   5.485   2.477
96166W        W67695   2.653  39.775  14.679
96167W        W67696  32.058   9.149   5.073
96168W        W67697  32.823  31.404  13.965
96169W        W67698   0.299  21.718  14.898
96170W        W67699  40.740  38.461  10.477
96171W        W67700   3.307  43.438  13.290
96172W        W67701  16.248  17.556   2.348
96173W        W67702   9.794  10.658   3.925
96174W        W67703  42.369  39.965  13.388
96175W        W67704   0.382   3.222  14.312
96176W        W67705  34.510  38.503   0.186
96177W        W67706  20.252  22.361  12.015
96178W        W67707  27.461  28.490   0.389
96179W        W67708   5.289   3.683  12.872
96180W        W67709  18.562  32.983   2.687
96181W        W67710  17.672   3.381   3.749
96182W        W67711  18.453   6.338  12.973
96183W        W67712  30.780  24.674   2.285
96184W        W67713  37.022  31.633  11.969
96185W        W67714   1.590  38.972  13.026
96186W        W67715   5.857  44.889   0.851
96187W        W67716   8.800  25.703   4.360
96188W        W67717  21.098  12.330   1.776
96189W        W67718   2.295  44.772  11.050
96190W        W67719  39.880  27.470  14.015
96191W        W67720  35.646   7.850  14.466
96192W        W67721  10.100  43.348  14.464
96193W        W67722  24.683  16.345   2.656
96194W        W67723  28.546  24.587  10.852
96195W        W67724  12.869  40.525   3.759
96196W        W67725   3.731  24.002   2.756
96197W        W67726   8.864  27.834   3.858
96198W        W67727  18.252  31.100   1.457
96199W        W67728   2.891  43.943  11.131
96200W        W67729  14.093  10.666  11.324
96201W        W67730   1.262  26.642  14.288
96202W        W67731  28.554  14.438  11.071
96203W        W67732  41.851   0.725   3.796
96204W        W67733   2.504  21.361   1.664
96205W        W67734  19.185  33.537   4.683
96206W        W67735   1.231  29.139  12.587
96207W        W67736  20.592  44.983   3.267
96208W        W67737   0.759  40.129  12.831
96209W        W67738   8.571   8.272  14.923
96210W        W67739   8.344  17.139  14.574
96211W        W67740  32.567  16.591   4.458
96212W        W67741  39.941  28.597   2.038
96213W        W67742   2.240   5.242   3.771
96214W        W67743  13.610  30.114   2.790
96215W        W67744   6.893  31.460   3.306
96216W        W67745  10.487  22.624   2.589
96217W        W67746  34.160  35.039   1.178
96218W        W67747  13.834   7.449   2.208
96219W        W67748  38.614  38.015  12.463
96220W        W67749  11.218  15.785  11.436
96221W        W67750  34.007  43.836   4.925
96222W        W67751  38.711   2.589   0.734
96223W        W67752  15.869   2.352   5.004
96224W        W67753  36.848   2.684   2.258
96225W        W67754  33.969  16.312   4.224
96226W        W67755  17.268  23.710  12.014
96227W        W67756  27.538  31.297   4.215
96228W        W67757  44.418  41.430   2.818
96229W        W67758  44.657  39.378  11.312
96230W        W67759  29.851   5.493   0.959
96231W        W67760  14.243  31.609  12.567
96232W        W67761   6.363  32.134  13.872
96233W        W67762   5.666   6.437  12.940
96234W        W67763  30.642  44.243   0.405
96235W        W67764  34.586  30.998  13.722
96236W        W67765  15.219   6.151   0.379
96237W        W67766  29.715  23.410  11.173
96238W        W67767  23.063   8.697   3.708
96239W        W67768  10.396  18.669   1.112
96240W        W67769  28.245  42.071   3.838
96241W        W67770  23.450  17.375  13.038
96242W        W67771  39.800  40.808  13.483
96243W        W67772  24.150  25.808  13.766
96244W        W67773  32.428  39.573  13.927
96245W        W67774  28.499  39.298   0.349
96246W        W67775  37.956  38.834  14.418
96247W        W67776  23.223  23.725   1.967
96248W        W67777   1.921  25.959  11.218
96249W        W67778  17.640  29.683   2.430
96250W        W67779  30.885  31.141  12.897
96251W        W67780  28.497   0.722  13.094
96252W        W67781   8.680  21.588   3.177
96253W        W67782  28.631  34.032  12.045
96254W        W67783  18.068   9.612  11.081
96255W        W67784  23.633  33.617  13.611
96256W        W67785  10.577  32.031  14.702
96257W        W67786   4.444  36.498  11.533
96258W        W67787  28.904   4.263  11.081
96259W        W67788  31.519  24.469   1.306
96260W        W67789  37.362  18.211  10.930
96261W        W67790   7.642  41.145  11.514
96262W        W67791  40.710  18.934  12.280
96263W        W67792  38.094  13.641  13.621
96264W        W67793   9.216  35.544   2.446
96265W        W67794  23.512  43.462  11.680
96266W        W67795  29.015  13.716  13.491
96267W        W67796  30.537  28.917   3.785
96268W        W67797  23.732  15.145   1.629
96269W        W67798  36.287   9.871   4.549
96270W        W67799  44.401   7.400  13.911
96271W        W67800   7.100   8.001   4.609
96272W        W67801  21.587  13.550   3.263
96273W        W67802  14.218  34.824  10.726
96274W        W67803   0.205  11.834  12.497
96275W        W67804  37.034  40.956   2.584
96276W        W67805  24.290  13.049  11.370
96277W        W67806  23.408  40.786  14.778
96278W        W67807  34.781  11.245  13.904
96279W        W67808  25.545  10.406   4.488
96280W        W67809  18.656  43.551  12.499
96281W        W67810  17.169  28.904  13.045
96282W        W67811  32.050  19.792   0.892
96283W        W67812  25.241   2.825  13.116
96284W        W67813  34.940   9.504   3.488
96285W        W67814  14.269   0.399  11.638
96286W        W67815   7.818   0.479   2.870
96287W        W67816  36.675  21.275  11.188
96288W        W67817  42.244   6.791   4.694
96289W        W67818  41.905  30.586  14.709
96290W        W67819  42.596  38.009  10.696
96291W        W67820  42.385  29.774   1.284
96292W        W67821  28.856  17.089  12.878
96293W        W67822  12.605  42.396   0.001
96294W        W67823  39.649   8.305  12.517
96295W        W67824  41.562  38.530  14.910
96296W        W67825  40.814   8.388  14.489
96297W        W67826  26.258   8.517   0.248
96298W        W67827  35.922   9.131  14.511
96299W        W67828  32.977  15.329  13.019
96300W        W67829  25.500   1.007   2.230
96301W        W67830  28.908  28.935   2.447
96302W        W67831  12.907   9.804   0.372
96303W        W67832   7.848  44.006  14.856
96304W        W67833   7.002  34.634  14.763
96305W        W67834  12.670   9.294  11.075
96306W        W67835   5.336  39.641   0.344
96307W        W67836   7.855  38.980  13.361
96308W        W67837  15.874   3.242  10.815
96309W        W67838  21.617  22.077   3.918
96310W        W67839  43.568  42.361   4.560
96311W        W67840   0.003  16.743  12.915
96312W        W67841   3.235  38.858   1.316
96313W        W67842   3.004   6.793   2.174
96314W        W67843   6.244  25.628  12.967
96315W        W67844  31.080  39.832  14.748
96316W        W67845  42.416  40.450   3.810
96317W        W67846  26.171  14.989  12.892
96318W        W67847   0.580   7.802   0.126
96319W        W67848  37.234  23.930   1.813
96320W        W67849   1.493  40.142   0.960
96321W        W67850  32.535  18.091   4.383
96322W        W67851  10.313  38.848  11.473
96323W        W67852  19.805  17.340  11.859
96324W        W67853  18.227  22.205  10.817
96325W        W67854  31.109  16.245  10.647
96326W        W67855  16.961  26.538   1.874
96327W        W67856   1.682  20.690   1.901
96328W        W67857   3.712  43.705  12.656
96329W        W67858   1.208   0.799   1.827
96330W        W67859   7.301  33.446  14.307
96331W        W67860  37.974  36.995  10.926
96332W        W67861   5.693  10.658   0.368
96333W        W67862  43.670  16.339  11.896
96334W        W67863   7.884  26.827   4.090
96335W        W67864  22.934  27.126  10.827
96336W        W67865  38.645   4.487  12.514
96337W        W67866  41.291   6.452  11.447
96338W        W67867   6.894  34.566   2.712
96339W        W67868  17.182   9.570   1.780
96340W        W67869  19.754  39.045  13.878
96341W        W67870  35.340  42.394  10.782
96342W        W67871  12.762  38.582  14.230
96343W        W67872  24.682  28.160   2.820
96344W        W67873   8.169   5.587   1.203
96345W        W67874  14.788  24.752  14.422
96346W        W67875   4.796  11.107   1.430
96347W        W67876  34.360   8.885   0.744
96348W        W67877  31.300  11.674   3.893
96349W        W67878  13.400  32.376   3.700
96350W        W67879  27.427   0.739   1.176
96351W        W67880   7.811  43.318   4.141
96352W        W67881  16.373  43.139   3.326
96353W        W67882  28.257  17.139  10.711
96354W        W67883  26.233   6.577  11.526
96355W        W67884  29.462   2.066   2.655
96356W        W67885  43.367  12.774   3.679
96357W        W67886  34.664  17.563  14.951
96358W        W67887   2.394  42.333  12.616
96359W        W67888  21.962  24.924   2.163
96360W        W67889  18.587  32.529  14.847
96361W        W67890  31.286  28.723   4.521
96362W        W67891  16.488  31.427   0.743
96363W        W67892  23.735  11.358  11.572
96364W        W67893  36.615  30.123   0.255
96365W        W67894  28.139  44.888   3.131
96366W        W67895  23.230  27.115   4.351
96367W        W67896  41.421  25.586   1.025
96368W        W67897  41.518  19.513   4.459
96369W        W67898   5.307  28.269   3.327
96370W        W67899  13.317  35.477  10.457
96371W        W67900  40.332  23.398   2.821
96372W        W67901  36.472  15.142   0.396
96373W        W67902   1.949  41.557  10.815
96374W        W67903  39.458  25.690  14.045
96375W        W67904  31.973  10.388  12.544
96376W        W67905   8.692  25.848   5.096
96377W        W67906   6.436  19.579   1.877
96378W        W67907  12.346  24.473   2.803
96379W        W67908  26.093  32.146   3.223
96380W        W67909   8.133  11.904  13.056
96381W        W67910  29.507  25.481   1.962
96382W        W67911  44.190   5.169   3.107
96383W        W67912  42.302  19.650   1.328
96384W        W67913  41.690  10.201  13.406
96385W        W67914  10.775   1.639   2.924
96386W        W67915   6.262  34.888  14.889
96387W        W67916   1.266  41.834  11.554
96388W        W67917  12.793  32.011  14.606
96389W        W67918   1.741  22.861   4.095
96390W        W67919   4.031   8.770  11.177
96391W        W67920   6.858  14.657   4.624
96392W        W67921  19.516  38.128   3.395
96393W        W67922   1.553  35.140   4.015
96394W        W67923  44.952  39.302   4.375
96395W        W67924  27.507   1.528  14.874
96396W        W67925  11.724  24.305  10.756
96397W        W67926  38.479  12.446   3.122
96398W        W67927  34.448  31.991   3.760
96399W        W67928   0.582  12.211   4.019
96400W        W67929  42.521  18.197   3.918
96401W        W67930   5.215  22.253  14.010
96402W        W67931  15.038   9.363   0.939
96403W        W67932  41.935   3.947  13.407
96404W        W67933  32.302  41.411   3.760
96405W        W67934  18.003   5.891   2.441
96406W        W67935  34.983  29.304   5.032
96407W        W67936  38.728  31.996  11.559
96408W        W67937  21.452  39.272  14.459
96409W        W67938  28.783   7.178   0.653
96410W        W67939  11.897  15.148  10.428
96411W        W67940  27.035  34.519  12.360
96412W        W67941   9.437  22.790   2.230
96413W        W67942  25.126   1.525  11.933
96414W        W67943  28.381   0.375   4.760
96415W        W67944  16.068  42.804   2.323
96416W        W67945  13.243  36.376   1.617
96417W        W67946  27.519  24.499  14.297
96418W        W67947  28.541  20.342   0.934
96419W        W67948   8.847  38.309  10.662
96420W        W67949  15.633  38.166   0.879
96421W        W67950  24.565  12.369  13.945
96422W        W67951  16.987  21.534   1.268
96423W        W67952  25.332  28.095  11.209
96424W        W67953  22.272  40.077  12.468
96425W        W67954  44.565  39.514  12.154
96426W        W67955  43.259  44.359   1.046
96427W        W67956   1.580  27.941  13.483
96428W        W67957   7.284  28.149  12.039
96429W        W67958  23.594  23.167   3.912
96430W        W67959  39.029  16.758  13.970
96431W        W67960  11.319  23.414  13.321
96432W        W67961  14.302   0.320   1.837
96433W        W67962   7.210  38.451  14.433
96434W        W67963  28.009   3.293   4.551
96435W        W67964   3.823  19.315   3.937
96436W        W67965  32.953  21.966   0.529
96437W        W67966  26.744  14.543   2.458
96438W        W67967  43.471  12.614   0.404
96439W        W67968  36.595  12.221  13.519
96440W        W67969   1.485  10.330  12.991
96441W        W67970  36.793  33.153  12.004
96442W        W67971  19.059  14.846  11.168
96443W        W67972  20.452   7.023  12.328
96444W        W67973  17.195   5.347   0.756
96445W        W67974  22.040  21.749  12.411
96446W        W67975  15.853  11.341  11.690
96447W        W67976  13.153  35.473  11.791
96448W        W67977  44.317  40.850  10.527
96449W        W67978  13.838  31.112  10.620
96450W        W67979   3.912  12.241   4.551
96451W        W67980   6.505  29.064   4.201
96452W        W67981  39.787  38.237   4.132
96453W        W67982   2.808  18.793   4.722
96454W        W67983  20.005  33.616  11.976
96455W        W67984  24.575  39.108  14.904
96456W        W67985   3.416  43.114  12.011
96457W        W67986  13.626  33.960  11.615
96458W        W67987  29.768  21.582  12.623
96459W        W67988  29.241  16.866   0.687
96460W        W67989   4.614  19.947   3.176
96461W        W67990  10.157  23.442  11.572
96462W        W67991  32.619  35.375  10.813
96463W        W67992  41.063  42.754  13.419
96464W        W67993  19.773  38.768   4.833
96465W        W67994  44.489  16.744  12.827
96466W        W67995   3.238  43.517  11.129
96467W        W67996  41.489  38.567  11.138
96468W        W67997  43.396  10.109  13.845
96469W        W67998   6.684  22.080  10.651
96470W        W67999   5.522   6.700   1.309
96471W        W68000  25.930  12.143   0.350
96472W        W68001   6.355  38.913   1.212
96473W        W68002  42.752  17.440  11.258
96474W        W68003  34.341   0.337  13.849
96475W        W68004  10.104   7.879   5.120
96476W        W68005  43.117  36.697  11.601
96477W        W68006   7.843  27.983   0.285
96478W        W68007  22.197  12.575   0.160
96479W        W68008  24.260  28.524   0.770
96480W        W68009   7.406  21.544  11.642
96481W        W68010  26.843  35.142  11.137
96482W        W68011  35.600   3.136  11.200
96483W        W68012  20.111  15.955   4.576
96484W        W68013  43.688  31.173  13.383
96485W        W68014   0.865  11.179  12.128
96486W        W68015  22.331  25.558  12.850
96487W        W68016  13.685  10.991  13.302
96488W        W68017  24.611   3.887   0.951
96489W        W68018  20.812  28.454   0.346
96490W        W68019  12.092  33.566   1.881
96491W        W68020   3.457   5.628  14.111
96492W        W68021  19.489  29.086  14.062
96493W        W68022   1.169   6.411   2.278
96494W        W68023  15.058  28.498  12.389
96495W        W68024  43.069  22.835   4.462
96496W        W68025  11.700  38.466   1.230
96497W        W68026  16.717  35.893   4.711
96498W        W68027  25.413  41.777  11.986
96499W        W68028  30.612  21.985  11.619
96500W        W68029   9.766  24.360  13.399
96501W        W68030  38.931  26.327   1.506
96502W        W68031  17.609   0.733  14.863
96503W        W68032  40.799   4.970  13.940
96504W        W68033  20.039  30.986   3.452
96505W        W68034  43.464   5.650  10.759
96506W        W68035   4.001  27.830  13.040
96507W        W68036  30.678  15.233   2.252
96508W        W68037   6.945  23.530  12.928
96509W        W68038  11.193  36.078   0.016
96510W        W68039  17.011  20.043  14.387
96511W        W68040  42.149  42.942   3.848
96512W        W68041  10.799   7.907   3.810
96513W        W68042  11.415  38.789  14.473
96514W        W68043  29.217  39.431   2.865
96515W        W68044  37.776  15.283  13.230
96516W        W68045  27.105  24.277  13.506
96517W        W68046  37.340  34.656   2.737
96518W        W68047  14.553  29.569   4.126
96519W        W68048   0.300  18.278   1.864
96520W        W68049  13.636  14.323   0.368
96521W        W68050  38.458  44.474   4.098
96522W        W68051  11.156  20.512   2.294
96523W        W68052   9.994  30.863  12.407
96524W        W68053  21.577   5.442   2.260
96525W        W68054  31.850  38.424  13.675
96526W        W68055  23.101  43.443  12.927
96527W        W68056   4.355   0.338  14.180
96528W        W68057  41.415   9.220   3.943
96529W        W68058  33.917  29.851  14.808
96530W        W68059  38.408  11.935   3.176
96531W        W68060   7.504  23.404  12.221
96532W        W68061  27.817  31.077   4.608
96533W        W68062  44.735  33.332  11.260
96534W        W68063  16.628  21.650   0.143
96535W        W68064  21.354  12.622   4.682
96536W        W68065  33.517  42.300   1.197
96537W        W68066  34.292  15.076  11.349
96538W        W68067  41.762  13.464   3.358
96539W        W68068  32.382   7.184   3.673
96540W        W68069  29.883  16.149  13.968
96541W        W68070   9.063   5.393   2.281
96542W        W68071  28.741  31.633  12.045
96543W        W68072  20.201  41.193   2.246
96544W        W68073  17.557  26.006   2.576
96545W        W68074  43.369  18.036   1.235
96546W        W68075  13.883  40.947   2.147
96547W        W68076  29.165  26.952  12.886
96548W        W68077  31.186  21.717  10.736
96549W        W68078   2.876  31.572  11.538
96550W        W68079  29.405  14.045  13.419
96551W        W68080  38.511  43.981   1.022
96552W        W68081  10.879  23.240   4.781
96553W        W68082  25.597  35.034  11.699
96554W        W68083  25.073  11.269   1.679
96555W        W68084  25.194   4.030   1.162
96556W        W68085  15.980  29.385  14.865
96557W        W68086  40.071  37.436  14.835
96558W        W68087   1.874  21.789  11.105
96559W        W68088  13.525  10.717  12.897
96560W        W68089  44.005   4.921   2.672
96561W        W68090  29.495  20.660  13.061
96562W        W68091  22.248  10.703  10.710
96563W        W68092  24.196   4.239  13.340
96564W        W68093  16.050  19.204   4.169
96565W        W68094  23.556  26.453  14.380
96566W        W68095  15.811   4.950   2.794
96567W        W68096   6.770   1.469  13.062
96568W        W68097  38.381  37.372   4.139
96569W        W68098   2.380  21.605  11.078
96570W        W68099   1.447  34.837   3.575
96571W        W68100  44.765  25.269  11.386
96572W        W68101  15.070  43.995   1.961
96573W        W68102   3.822   4.366  12.987
96574W        W68103   8.211   1.045  10.571
96575W        W68104   0.731  32.884  12.101
96576W        W68105  13.132   3.741  14.945
96577W        W68106  31.937  11.299  10.798
96578W        W68107   0.203  44.783   0.789
96579W        W68108  29.044  11.341  12.040
96580W        W68109  26.205  31.636   3.320
96581W        W68110  19.348  43.754   0.996
96582W        W68111   7.567  41.420   2.374
96583W        W68112  29.971  16.678  12.277
96584W        W68113  32.459  28.764   3.898
96585W        W68114   0.092  37.186   3.983
96586W        W68115   9.502  20.751  14.712
96587W        W68116   7.198  36.459  10.753
96588W        W68117  33.775  10.356  14.730
96589W        W68118  19.258  19.663   0.828
96590W        W68119  38.900   9.667  10.614
96591W        W68120  36.821  17.233   0.232
96592W        W68121  15.533  44.925  12.968
96593W        W68122   1.672  26.235   4.494
96594W        W68123  16.082   2.169   3.751
96595W        W68124  22.485  38.012   4.717
96596W        W68125  24.021  26.985  13.026
96597W        W68126  42.753  25.647   0.310
96598W        W68127   8.137  28.097   0.689
96599W        W68128  20.502  27.089   3.607
96600W        W68129  11.255  14.870   0.287
96601W        W68130  18.637  19.781   9.973
96602W        W68131  38.551   9.730   1.967
96603W        W68132  13.252  18.061  11.645
96604W        W68133   1.316  36.122   2.712
96605W        W68134  31.476   1.939   0.847
96606W        W68135  21.634   2.712   0.883
96607W        W68136  17.816   0.863  13.253
96608W        W68137  27.122  26.784   0.791
96609W        W68138  27.753  26.481  13.253
96610W        W68139  25.936  44.961  12.087
96611W        W68140  26.967  36.041   2.913
96612W        W68141  34.217  22.553   2.765
96613W        W68142  26.187   5.661   3.695
96614W        W68143  18.625  34.883  11.969
96615W        W68144   9.755  42.396  11.353
96616W        W68145  31.641  39.356  14.540
96617W        W68146   3.723  21.486   1.439
96618W        W68147  41.458  20.267  13.944
96619W        W68148   2.805   8.393  14.272
96620W        W68149  31.671  11.676   3.547
96621W        W68150  40.909  27.178  12.098
96622W        W68151  38.848  39.237  14.186
96623W        W68152  33.585  15.712  13.861
96624W        W68153  10.686  44.377  13.052
96625W        W68154  37.460  20.940   0.352
96626W        W68155  19.138  29.004  11.028
96627W        W68156  44.699   4.394   4.638
96628W        W68157  36.868   2.547   4.314
96629W        W68158  19.540  35.395  12.826
96630W        W68159  17.193  10.579   1.687
96631W        W68160  25.616  36.152  14.382
96632W        W68161   4.481   7.837   0.203
96633W        W68162  27.660  41.808   4.567
96634W        W68163  44.936   9.693  11.579
96635W        W68164  41.955  12.704  13.327
96636W        W68165  33.623  21.187  12.833
96637W        W68166   0.755  10.154   0.558
96638W        W68167  22.872  38.956   4.540
96639W        W68168  10.906  10.914  14.387
96640W        W68169  11.372  16.812   0.447
96641W        W68170  20.721  13.390   3.314
96642W        W68171  30.450  28.430  11.573
96643W        W68172  20.649   4.316  11.355
96644W        W68173  15.052  35.396   0.961
96645W        W68174   8.132   0.870   9.747
96646W        W68175  22.701  40.261   1.306
96647W        W68176  34.835  25.541   3.169
96648W        W68177  22.423  12.404  14.276
96649W        W68178  19.127  35.400   0.317
96650W        W68179   0.509  16.996  10.237
96651W        W68180  40.147  23.752  13.976
96652W        W68181  28.566   4.747  13.065
96653W        W68182   8.704  33.489   0.932
96654W        W68183  38.402  30.110   4.635
96655W        W68184   4.860  43.824  13.393
96656W        W68185  40.159   4.620  12.102
96657W        W68186  40.559  13.109  11.870
96658W        W68187   2.296  23.706  12.949
96659W        W68188  39.955  26.734  14.608
96660W        W68189  26.907  37.459   3.642
96661W        W68190   5.656  25.502   4.593
96662W        W68191  38.959  14.371  11.665
96663W        W68192  20.183   3.842  14.820
96664W        W68193  42.990  19.656  12.380
96665W        W68194  18.631  34.091   0.386
96666W        W68195  39.927   1.393   4.189
96667W        W68196  12.099  24.082   1.040
96668W        W68197   0.775  37.437   1.741
96669W        W68198  34.230  34.337   1.401
96670W        W68199  41.711  30.452   1.418
96671W        W68200  14.325   1.260  10.922
96672W        W68201  42.645   2.189   3.692
96673W        W68202  21.538  44.713   0.411
96674W        W68203  42.568  34.004   4.833
96675W        W68204   3.393  26.964  13.050
96676W        W68205  40.461   5.651   1.367
96677W        W68206  18.027  41.722   2.868
96678W        W68207   9.784  22.694   0.259
96679W        W68208  13.820   7.443   3.362
96680W        W68209  27.421  22.526   2.134
96681W        W68210  25.619  30.574   4.137
96682W        W68211   6.873  31.470   4.741
96683W        W68212  27.369  33.657  13.019
96684W        W68213  26.970   4.944   1.272
96685W        W68214  19.866  14.800   4.637
96686W        W68215  36.813   1.321   0.973
96687W        W68216  35.574  33.407  12.449
96688W        W68217  31.710  13.856  11.603
96689W        W68218   2.652  31.830  14.887
96690W        W68219  44.951  14.076  12.512
96691W        W68220  19.546  12.896   1.410
96692W        W68221  13.363  44.282   3.741
96693W        W68222  20.216  30.669  14.136
96694W        W68223   9.064   4.371  12.386
96695W        W68224  32.357   6.746   2.366
96696W        W68225  29.408  10.259   1.726
96697W        W68226   0.018  34.461  13.690
96698W        W68227  11.342  28.308  13.506
96699W        W68228  34.608   8.664   1.944
96700W        W68229  43.453   1.910   2.201
96701W        W68230  23.570  42.313  14.763
96702W        W68231   9.755  29.794   5.113
96703W        W68232  21.099   3.675   2.022
96704W        W68233  21.201  37.646  12.764
96705W        W68234  12.458  28.067  10.802
96706W        W68235   6.475  28.144   2.867
96707W        W68236   7.681  33.947  12.125
96708W        W68237  14.726   7.149  10.270
96709W        W68238   3.500  22.148  11.983
96710W        W68239  14.242  42.052   1.334
96711W        W68240  20.430  33.727   1.138
96712W        W68241  31.071  25.148  11.621
96713W        W68242  36.817  20.669  11.957
96714W        W68243  23.134  43.262  10.727
96715W        W68244  11.682   2.629   3.120
96716W        W68245  37.267  40.362   0.703
96717W        W68246  40.623  10.084  13.786
96718W        W68247  41.407  16.946   3.817
96719W        W68248  16.325  22.138  12.049
96720W        W68249  44.495  21.230  10.726
96721W        W68250  15.094  12.499   2.596
96722W        W68251  41.275  39.585   2.223
96723W        W68252  40.748  12.611   4.119
96724W        W68253  38.118  15.167  11.892
96725W        W68254   9.581  42.079  14.543
96726W        W68255   8.646  15.270   3.622
96727W        W68256  33.509  34.301  13.111
96728W        W68257  31.348   9.146  13.488
96729W        W68258  28.410  15.151   5.085
96730W        W68259  10.815  34.328  14.339
96731W        W68260   7.628  14.904   4.295
96732W        W68261  12.256  30.206   2.758
96733W        W68262  33.491  39.311  12.346
96734W        W68263   5.867  14.331  13.153
96735W        W68264   9.728  31.572  14.796
96736W        W68265  15.746   8.600   1.828
96737W        W68266  30.113  39.211   3.699
96738W        W68267   0.771  40.959  14.577
96739W        W68268  25.632  24.174  11.869
96740W        W68269  26.987  15.345   0.973
96741W        W68270  24.581  44.720  12.795
96742W        W68271  13.803   3.447  10.600
96743W        W68272  10.266   1.310   4.213
96744W        W68273  15.267  23.842  11.398
96745W        W68274  41.980  15.095   2.120
96746W        W68275  19.518  11.773   2.234
96747W        W68276   7.954  35.559  14.399
96748W        W68277  15.385  43.396   2.706
96749W        W68278  14.308   7.181  11.416
96750W        W68279  23.022  16.006   4.144
96751W        W68280  32.611  38.430   3.440
96752W        W68281  17.260  44.964   4.658
96753W        W68282   9.397  40.310  13.178
96754W        W68283   4.781   6.897   3.878
96755W        W68284  22.416   3.028  11.570
96756W        W68285  21.847  11.147   0.136
96757W        W68286   7.711  34.586   2.259
96758W        W68287  30.414   2.750   0.708
96759W        W68288  40.541  27.467  12.892
96760W        W68289   6.045  16.106   1.679
96761W        W68290  41.518  15.574   1.477
96762W        W68291  39.026  38.890  10.831
96763W        W68292  24.875  40.542  12.514
96764W        W68293  12.899  13.852   1.643
96765W        W68294  14.639   8.205   2.736
96766W        W68295  15.764  21.810   1.667
96767W        W68296   7.560   8.268   2.366
96768W        W68297  24.873  39.056  11.163
96769W        W68298  20.843   6.657  10.825
96770W        W68299  14.086  29.422  10.669
96771W        W68300  19.282   9.198   3.354
96772W        W68301  36.436  43.880   0.286
96773W        W68302  42.587  13.126   0.427
96774W        W68303  12.926   9.941   2.228
96775W        W68304  44.740  14.910   1.986
96776W        W68305  41.051  30.996  12.562
96777W        W68306  24.498  25.935   2.224
96778W        W68307  27.156  42.079   3.792
96779W        W68308  18.624  41.263  14.367
96780W        W68309  31.366  30.051   1.936
96781W        W68310  27.476  30.968  14.759
96782W        W68311   8.446  42.508  14.083
96783W        W68312   4.916  16.903   3.902
96784W        W68313  12.685  11.882   0.194
96785W        W68314  28.060  43.566   3.122
96786W        W68315  12.699   2.888  10.548
96787W        W68316   1.474  25.156   4.407
96788W        W68317  16.785   1.826  14.735
96789W        W68318  24.062  24.914   2.266
96790W        W68319  26.190   7.887  10.711
96791W        W68320   0.767  30.970  14.655
96792W        W68321  14.168   7.372   1.710
96793W        W68322  22.495  44.666   3.604
96794W        W68323  31.708  11.252  13.923
96795W        W68324  33.413  14.534   4.536
96796W        W68325  31.951   2.670   0.286
96797W        W68326   7.421  20.653   3.316
96798W        W68327  25.918  29.112  10.642
96799W        W68328  37.959  31.294  10.368
96800W        W68329  20.983  16.086   3.611
96801W        W68330   1.963  41.797  12.064
96802W        W68331   2.508  34.713   9.794
96803W        W68332  28.039   0.145   0.571
96804W        W68333  39.189  24.210   0.664
96805W        W68334   5.385  24.543  14.996
96806W        W68335  42.768  43.514   0.481
96807W        W68336  19.934  40.028  14.872
96808W        W68337  25.399   4.322  11.600
96809W        W68338   7.643  15.682  10.990
96810W        W68339  27.595  19.559  13.816
96811W        W68340  20.036  14.280   2.326
96812W        W68341  33.651  44.241  13.792
96813W        W68342  42.346  18.020  11.249
96814W        W68343  20.678   7.967   4.128
96815W        W68344  34.419  31.635  13.946
96816W        W68345  24.269  32.489   0.759
96817W        W68346   1.467  25.657  12.832
96818W        W68347  37.065  25.452   0.792
96819W        W68348   4.432  10.336  14.525
96820W        W68349  22.043  36.630   3.799
96821W        W68350   4.932  33.743  12.302
96822W        W68351  11.213   0.038  13.356
96823W        W68352  23.973  21.045   4.581
96824W        W68353   0.532  29.584  14.957
96825W        W68354   2.811  22.601  13.054
96826W        W68355  12.756  21.189   5.283
96827W        W68356  11.193  16.587   3.776
96828W        W68357   3.719   0.542   1.261
96829W        W68358  25.920   1.910   3.051
96830W        W68359  22.129  33.260  11.075
96831W        W68360  19.789  28.970  11.023
96832W        W68361   5.459  30.550   0.837
96833W        W68362  31.236  17.073   0.041
96834W        W68363  36.186  16.842   2.115
96835W        W68364  29.116  19.240  10.719
96836W        W68365  33.868  34.613   2.688
96837W        W68366  25.598   0.364  13.993
96838W        W68367  22.624  18.120  11.121
96839W        W68368  43.115  42.826  13.613
96840W        W68369  27.114  18.376   1.847
96841W        W68370  19.626  36.260   1.660
96842W        W68371  17.794  40.163  12.336
96843W        W68372  29.565  37.368  11.130
96844W        W68373  39.042   1.985   4.645
96845W        W68374  20.952  40.079  11.831
96846W        W68375  23.513  21.078   3.260
96847W        W68376  16.335  19.250  11.520
96848W        W68377   9.263  31.412   3.175
96849W        W68378  32.559  18.765  10.595
96850W        W68379  19.210  32.312  10.771
96851W        W68380  33.576  15.106  12.665
96852W        W68381  17.735  34.055   1.838
96853W        W68382  36.877  23.952   4.788
96854W        W68383  33.328  20.583  12.555
96855W        W68384   3.401  40.210  11.141
96856W        W68385   9.763  43.282  13.968
96857W        W68386  41.532  27.851  13.009
96858W        W68387   0.522  38.268  11.015
96859W        W68388  18.763  26.116  14.143
96860W        W68389  17.121  24.666   1.250
96861W        W68390  34.860  35.395  13.616
96862W        W68391   0.072  38.769   3.375
96863W        W68392  17.726   8.854  12.216
96864W        W68393  27.380  10.181   3.271
96865W        W68394  16.732  13.871   4.381
96866W        W68395  37.262  28.000  11.158
96867W        W68396  36.158  36.224   0.733
96868W        W68397  32.667   1.488   0.178
96869W        W68398  18.675  30.545   5.351
96870W        W68399   0.739  22.957  11.504
96871W        W68400  43.423  38.797   3.632
96872W        W68401  36.619  30.568  11.164
96873W        W68402  34.252  37.363  10.654
96874W        W68403  11.918  41.337  11.115
96875W        W68404  29.888   8.869   4.674
96876W        W68405   4.698  32.864  14.350
96877W        W68406  31.167  37.636   2.274
96878W        W68407  23.619  20.825   4.205
96879W        W68408  44.847   0.338   3.104
96880W        W68409  37.579  22.126   3.650
96881W        W68410  38.292  12.568   5.091
96882W        W68411  13.323  38.226   1.882
96883W        W68412  10.515   3.164  13.475
96884W        W68413  37.437   6.782  12.082
96885W        W68414  16.165  30.115   1.378
96886W        W68415  19.969  40.309   0.838
96887W        W68416  12.208  32.104   3.024
96888W        W68417   7.448  23.007  13.904
96889W        W68418   1.987  26.286   1.283
96890W        W68419   7.385  43.619   4.271
96891W        W68420   0.358  44.011   2.788
96892W        W68421  22.528  37.003  14.015
96893W        W68422  36.949  39.692  10.657
96894W        W68423  14.039  20.202  14.863
96895W        W68424  37.537  19.040   0.359
96896W        W68425  21.112  10.732  12.430
96897W        W68426   7.872   3.797  14.854
96898W        W68427  16.054  15.271   2.837
96899W        W68428  33.332  30.925  12.129
96900W        W68429  31.709   8.763  13.442
96901W        W68430  42.741  13.396   1.405
96902W        W68431   5.070  20.716   4.389
96903W        W68432  34.548  15.586  10.625
96904W        W68433  27.572  40.092  13.265
96905W        W68434   7.812  42.033  14.298
96906W        W68435  27.570   4.450  13.192
96907W        W68436  27.774  21.828  12.449
96908W        W68437  31.688  43.017  12.331
96909W        W68438  20.806  40.272  11.366
96910W        W68439  29.587  35.530   0.918
96911W        W68440  31.815  12.012  13.006
96912W        W68441  10.186  23.062  11.224
96913W        W68442  29.972   9.741   3.855
96914W        W68443   7.835  21.041   3.323
96915W        W68444  43.980  18.079   3.703
96916W        W68445  11.628  29.746   4.129
96917W        W68446   3.664  20.665   2.850
96918W        W68447  17.803  28.090   3.846
96919W        W68448   6.704  14.492   0.395
96920W        W68449  29.052  20.478  13.370
96921W        W68450  34.729  26.205   2.929
96922W        W68451  22.026  14.084   0.745
96923W        W68452  12.365  27.481  13.972
96924W        W68453  15.764  11.387   5.137
96925W        W68454  22.130  17.863  11.971
96926W        W68455   4.127  35.631  13.984
96927W        W68456  12.653   7.607  13.100
96928W        W68457  27.749  31.594  11.958
96929W        W68458   8.559  11.529  14.905
96930W        W68459  11.740  12.849  11.293
96931W        W68460  32.955  10.612  10.762
96932W        W68461  19.961  33.125   4.204
96933W        W68462  20.382  30.658   4.099
96934W        W68463  31.952  23.624   3.387
96935W        W68464  13.866  24.251   4.254
96936W        W68465  10.151  40.405  11.191
96937W        W68466  37.919   9.055  11.779
96938W        W68467  13.727   3.331  13.862
96939W        W68468  35.670  19.981   2.761
96940W        W68469   1.383  29.057   0.971
96941W        W68470   6.748  40.838  14.939
96942W        W68471  31.928  40.393  13.373
96943W        W68472  36.026  10.531  12.511
96944W        W68473  43.687  33.108  11.313
96945W        W68474  43.933  39.815  14.409
96946W        W68475  31.628  15.914  13.798
96947W        W68476  27.208  10.171  11.526
96948W        W68477   3.907  19.167  10.634
96949W        W68478   1.331   2.547  11.340
96950W        W68479  19.238  39.777   2.657
96951W        W68480  13.554  20.483  12.584
96952W        W68481  21.145  10.555  12.972
96953W        W68482  32.615  13.318   1.169
96954W        W68483  11.072  30.485  13.874
96955W        W68484  19.240  43.811  10.573
96956W        W68485  33.581  33.501   4.264
96957W        W68486  44.447   0.914   0.261
96958W        W68487  11.968  41.221  10.626
96959W        W68488  21.896  17.033  13.935
96960W        W68489  44.537  32.631   3.620
96961W        W68490  10.596   9.781   0.014
96962W        W68491  19.595  18.838   4.924
96963W        W68492   3.956  28.874   0.375
96964W        W68493  38.790   4.709   0.404
96965W        W68494  16.660  18.675  14.778
96966W        W68495   4.898  40.373  14.931
96967W        W68496   8.142  25.158   0.339
96968W        W68497  29.968   0.399   1.613
96969W        W68498  34.096  44.499  12.959
96970W        W68499  16.713  16.127  14.023
96971W        W68500  23.364  35.929  10.425
96972W        W68501  39.372  33.161  10.593
96973W        W68502  17.189  34.452   0.079
96974W        W68503  33.165   1.705  10.428
96975W        W68504   8.821  37.105   2.734
96976W        W68505  39.874  11.604  14.454
96977W        W68506  44.357   7.120   4.601
96978W        W68507   4.707  21.119  10.553
96979W        W68508  40.237   3.842   1.731
96980W        W68509  40.489  39.066  11.708
96981W        W68510   6.265  37.633   1.298
96982W        W68511  18.888  38.889   0.929
96983W        W68512  32.950  10.773  14.945
96984W        W68513  21.079  34.624   2.364
96985W        W68514  33.687  40.814  14.447
96986W        W68515  41.338  34.444  14.880
96987W        W68516   8.093  24.902  14.489
96988W        W68517  16.674  42.802   4.092
96989W        W68518  41.757  23.377  13.417
96990W        W68519  13.769   2.872   4.326
96991W        W68520  43.570  26.004   4.165
96992W        W68521   9.662  14.743   1.018
96993W        W68522  11.056  14.328   3.787
96994W        W68523  23.175   3.797  10.845
96995W        W68524  20.008  20.542   0.214
96996W        W68525  30.899  15.671  12.388
96997W        W68526  43.983   3.259   0.387
96998W        W68527  40.535  29.091  12.428
96999W        W68528  44.289  27.610  14.279
97000W        W68529   4.701  12.653  11.834
97001W        W68530  41.760  17.238   5.019
97002W        W68531  14.325  15.953  13.502
97003W        W68532  28.859  43.899   0.476
97004W        W68533   0.874  35.491  12.348
97005W        W68534  20.975  14.270  14.737
97006W        W68535  25.037  41.989  12.375
97007W        W68536   7.622  32.069   3.139
97008W        W68537  40.431  12.705   3.201
97009W        W68538  12.838  28.135  13.527
97010W        W68539  16.973   8.925   0.435
97011W        W68540   0.842  31.598  10.765
97012W        W68541  21.111  41.178   1.279
97013W        W68542  31.684  10.875   2.703
97014W        W68543  33.522  26.650   1.708
97015W        W68544  21.595   8.936   4.175
97016W        W68545  37.349  27.893  14.834
97017W        W68546  14.545  37.871  14.368
97018W        W68547  23.735   5.309   2.660
97019W        W68548  26.736  13.577   0.030
97020W        W68549   0.461  16.072   2.295
97021W        W68550  16.087  19.388   3.694
97022W        W68551  37.505   4.200  11.544
97023W        W68552  40.387  30.581  12.527
97024W        W68553  26.501  17.583  10.671
97025W        W68554  22.105   2.868   3.661
97026W        W68555  38.037  44.194   4.243
97027W        W68556  37.581  39.384   3.566
97028W        W68557  44.026   7.005  13.969
97029W        W68558  12.317  33.133  11.251
97030W        W68559  32.837  40.741   2.918
97031W        W68560  30.804  43.758   3.394
97032W        W68561  20.299   8.119  11.228
97033W        W68562  13.309  31.890  13.394
97034W        W68563  30.008  17.836  14.828
97035W        W68564  41.505   0.495  11.543
97036W        W68565  16.288  11.309  10.180
97037W        W68566  17.342  41.010  13.122
97038W        W68567  34.703  21.531   3.783
97039W        W68568  21.260  39.910  13.372
97040W        W68569  21.731  21.765  10.675
97041W        W68570  14.408   4.909   3.750
97042W        W68571  35.544   5.373   1.770
97043W        W68572  31.142  30.532  12.549
97044W        W68573  26.740   4.834  10.723
97045W        W68574   6.318  21.116   4.598
97046W        W68575  16.554  22.632  12.003
97047W        W68576  20.212  35.373   3.570
97048W        W68577  36.832   5.412   0.002
97049W        W68578  44.503  17.360  11.515
97050W        W68579  30.977   5.631  10.959
97051W        W68580  24.623  20.727   0.335
97052W        W68581  40.397  31.588  13.490
97053W        W68582   9.675  23.776  12.211
97054W        W68583  43.736  41.509   3.227
97055W        W68584  15.269  25.258  13.920
97056W        W68585  21.230   4.293   0.872
97057W        W68586  30.937  44.913  10.676
97058W        W68587  43.103   1.899   4.665
97059W        W68588  14.010  15.817   1.177
97060W        W68589  26.441  38.339  13.868
97061W        W68590  31.116   1.591   0.776
97062W        W68591  25.353  33.925   0.544
97063W        W68592  24.111  36.385  14.349
97064W        W68593   0.053   4.223  13.491
97065W        W68594  26.148   2.632  12.939
97066W        W68595   0.498  37.034   0.336
97067W        W68596  30.993   0.121   4.767
97068W        W68597   6.084  16.194  13.548
97069W        W68598  39.317  38.402   4.285
97070W        W68599  31.078  14.582  10.089
97071W        W68600  35.380  43.717  13.086
97072W        W68601  40.555  18.340   1.284
97073W        W68602  27.752   2.534  12.599
97074W        W68603  28.957   8.770  14.731
97075W        W68604   4.482  39.380   2.687
97076W        W68605   6.169  20.040   3.617
97077W        W68606  41.501  13.083  14.288
97078W        W68607  34.614   5.702  12.900
97079W        W68608  43.049  35.041  14.892
97080W        W68609  27.973  12.759  14.068
97081W        W68610  36.023  22.253   2.382
97082W        W68611  15.179   7.428  12.786
97083W        W68612  38.859  42.408   4.175
97084W        W68613  34.593  28.677   0.710
97085W        W68614  37.151  36.792  14.836
97086W        W68615  17.009  41.768  11.026
97087W        W68616  12.871  39.073   1.916
97088W        W68617   6.224  37.398  13.812
97089W        W68618  12.655  43.920   2.131
97090W        W68619  22.062  16.045   3.225
97091W        W68620  24.782  41.983   4.300
97092W        W68621  28.129  20.075   1.720
97093W        W68622  38.159  32.373   1.318
97094W        W68623  43.398  27.268   3.219
97095W        W68624  33.071  10.243   1.839
97096W        W68625  27.654  10.358   2.342
97097W        W68626  11.606  20.250   3.606
97098W        W68627   4.311   4.305   3.602
97099W        W68628  43.573  30.565  11.594
97100W        W68629  34.864  11.388   2.345
97101W        W68630  39.995  20.149   2.880
97102W        W68631   1.788  35.586   0.687
97103W        W68632  28.143  30.880  13.338
97104W        W68633  29.976  20.025   0.414
97105W        W68634  25.112  44.295  13.528
97106W        W68635  30.684   4.271  13.157
97107W        W68636  23.780  34.986   3.573
97108W        W68637  27.034  27.113   3.560
97109W        W68638  34.343  27.169   3.302
97110W        W68639  25.272   8.665   4.343
97111W        W68640  17.225   8.898   1.320
97112W        W68641  20.051  19.661  14.271
97113W        W68642  33.108   1.945   0.858
97114W        W68643  24.432  23.630   0.378
97115W        W68644  20.276  19.054   0.375
97116W        W68645  10.709   5.678  13.744
97117W        W68646  32.635  10.918   1.167
97118W        W68647  29.611  42.466   4.272
97119W        W68648  23.704  40.364   0.298
97120W        W68649  39.353  37.582  11.924
97121W        W68650  36.378   0.903  11.770
97122W        W68651  14.842   1.549   4.510
97123W        W68652  44.561  23.537  12.010
97124W        W68653  38.603  37.151   0.968
97125W        W68654  35.077  18.761  12.599
97126W        W68655   5.107  15.515  10.167
97127W        W68656  44.342  10.462  10.643
97128W        W68657  15.646  36.033  14.493
97129W        W68658  22.146  25.920   1.168
97130W        W68659  25.723  39.775  14.000
97131W        W68660   7.745   1.760   1.452
97132W        W68661  38.041  39.369   0.268
97133W        W68662   6.591  17.839  11.576
97134W        W68663  26.588   3.877  11.704
97135W        W68664  31.940   4.466   3.867
97136W        W68665   1.188  18.805  11.772
97137W        W68666  19.708  41.371  12.586
97138W        W68667  19.533  26.540  11.814
97139W        W68668  30.502  30.290  12.744
97140W        W68669  19.579   9.714   1.319
97141W        W68670  23.236  37.975   3.351
97142W        W68671  32.228   2.727   3.751
97143W        W68672  29.024  21.295   0.405
97144W        W68673  25.616  14.101   2.307
97145W        W68674  31.907  44.214   1.221
97146W        W68675  41.890  38.293   4.450
97147W        W68676  13.180  13.276  12.295
97148W        W68677  28.400  36.901   2.218
97149W        W68678  30.113   3.954  12.532
97150W        W68679  20.148   7.682  14.966
97151W        W68680  23.429  34.919  10.027
97152W        W68681  26.078  37.813  11.767
97153W        W68682  38.254  26.169   0.039
97154W        W68683  13.384  42.867   1.135
97155W        W68684  25.987  44.058   1.848
97156W        W68685  38.169  40.540   2.795
97157W        W68686   3.955  41.283  13.903
97158W        W68687   6.011   7.441   0.598
97159W        W68688   3.357  42.750   2.653
97160W        W68689  25.715  21.562   5.035
97161W        W68690  17.744  42.974   0.810
97162W        W68691  23.201  30.530   0.870
97163W        W68692  22.985  30.531  12.396
97164W        W68693  20.752  24.500   1.518
97165W        W68694  43.954  10.156  13.899
97166W        W68695   7.437  14.618   3.750
97167W        W68696  25.448  26.127   4.269
97168W        W68697  42.996  36.595   0.649
97169W        W68698  33.581  20.782   1.168
97170W        W68699  21.256  26.160  10.185
97171W        W68700  25.771   8.681  13.781
97172W        W68701  38.342  44.868  12.803
97173W        W68702  21.774   9.320  12.408
97174W        W68703  20.162  17.250  13.616
97175W        W68704  14.656  11.849  12.593
97176W        W68705  41.483  35.029   1.548
97177W        W68706  30.695   2.390   3.799
97178W        W68707   3.257  39.599  14.458
97179W        W68708   6.336  39.594  13.040
97180W        W68709  16.123  13.772  12.318
97181W        W68710  12.410  15.597  13.867
97182W        W68711  31.582  20.614   4.795
97183W        W68712  19.514   6.543  14.746
97184W        W68713  32.406   1.081  14.048
97185W        W68714  18.236  22.060   4.608
97186W        W68715  13.718  42.388  14.456
97187W        W68716  42.157  43.357  14.320
97188W        W68717  14.316  11.868   4.730
97189W        W68718  23.945   0.930  11.569
97190W        W68719  15.568  32.790  11.161
97191W        W68720  25.809   8.204   1.491
97192W        W68721   8.328  44.358  13.444
97193W        W68722  32.090  34.023  14.605
97194W        W68723  19.097  32.721  13.968
97195W        W68724  34.868  12.553  13.969
97196W        W68725  17.016  13.191  10.437
97197W        W68726  30.045   9.841   0.810
97198W        W68727  38.830  20.678  13.060
97199W        W68728  35.447   1.471  13.771
97200W        W68729  31.314  41.001   2.851
97201W        W68730  24.070  39.779   2.139
97202W        W68731  24.194  16.544   1.891
97203W        W68732  44.655   6.300   1.281
97204W        W68733  15.249   7.112  14.774
97205W        W68734  23.685   2.029   0.462
97206W        W68735  10.951  19.740  12.896
97207W        W68736  37.033  36.645   1.179
97208W        W68737  13.489  25.068  14.553
97209W        W68738  33.974  11.580  13.966
97210W        W68739  13.454  38.736   1.805
97211W        W68740  33.073  20.613   1.187
97212W        W68741  20.536  23.675  13.556
97213W        W68742  39.759  41.263  14.416
97214W        W68743   5.296   6.188   0.445
97215W        W68744   5.928  18.343   3.329
97216W        W68745  28.921   2.917   2.183
97217W        W68746  20.719  34.952  13.385
97218W        W68747   1.026  10.427  12.618
97219W        W68748  19.526  34.742  12.333
97220W        W68749  42.936   1.765  11.188
97221W        W68750  22.545  23.660  14.843
97222W        W68751   4.667  38.498   4.622
97223W        W68752  37.845  36.337   2.316
97224W        W68753   9.316   4.086  12.739
97225W        W68754  31.463  26.600  13.533
97226W        W68755   6.895  36.814  14.984
97227W        W68756  12.925  21.857  11.661
97228W        W68757  37.602  37.080  11.250
97229W        W68758  27.918  44.661   2.718
97230W        W68759   7.700  23.616   2.392
97231W        W68760  16.473  17.335  12.332
97232W        W68761  27.887  18.742  11.151
97233W        W68762   2.743  13.110   2.191
97234W        W68763  24.344  30.944  12.650
97235W        W68764  44.717  18.548   1.058
97236W        W68765  10.384  36.394   2.541
97237W        W68766  16.761  27.580  10.691
97238W        W68767  14.780   2.305   1.348
97239W        W68768  29.917  27.141   1.285
97240W        W68769  31.108   7.003  12.633
97241W        W68770  24.517   5.675   4.156
97242W        W68771   5.950   5.690  12.891
97243W        W68772  18.324  39.474  14.294
97244W        W68773  14.658  29.533   1.198
97245W        W68774   2.334  35.256  12.946
97246W        W68775  44.893  17.871  11.104
97247W        W68776  31.670   5.755   3.095
97248W        W68777  20.850  26.329   4.565
97249W        W68778  17.110  13.668  12.050
97250W        W68779  17.087  25.606   1.214
97251W        W68780  23.684   0.946   1.924
97252W        W68781  27.443   6.441  10.920
97253W        W68782  44.979  10.735  13.337
97254W        W68783  14.633  20.210  12.031
97255W        W68784   0.357   6.854  14.750
97256W        W68785  43.916   4.397  12.703
97257W        W68786  43.768  20.742   0.841
97258W        W68787  17.578  40.925   1.329
97259W        W68788  17.534  17.012   3.836
97260W        W68789  36.375  22.356   1.449
97261W        W68790  38.429  23.486  13.069
97262W        W68791  17.528  28.058   2.395
97263W        W68792  42.048   1.823   0.437
97264W        W68793  15.072  27.138   1.305
97265W        W68794  19.652  31.121   0.703
97266W        W68795  40.141  25.006  10.780
97267W        W68796  20.672  35.954   2.826
97268W        W68797  31.480  40.991  14.258
97269W        W68798  23.776   9.506  12.505
97270W        W68799   8.197   4.722   1.821
97271W        W68800  10.769  39.943  14.986
97272W        W68801  16.630  26.135   3.126
97273W        W68802   6.921  31.679   3.776
97274W        W68803  42.444  24.788  11.158
97275W        W68804  10.690  28.867  12.566
97276W        W68805  38.013  33.157   3.324
97277W        W68806  25.786  43.846   4.557
97278W        W68807  13.699  37.005   1.469
97279W        W68808   2.064  43.581   1.298
97280W        W68809  37.471  34.121  12.453
97281W        W68810  17.880  36.644   2.189
97282W        W68811  44.355   0.490   1.250
97283W        W68812   9.694  30.409  13.885
97284W        W68813   1.274  32.660   5.377
97285W        W68814  24.809  42.876  12.342
97286W        W68815  22.194  40.286   2.345
97287W        W68816  36.350  36.441  13.936
97288W        W68817   6.986  13.213   0.810
97289W        W68818   4.234  34.977   3.677
97290W        W68819   1.267  29.649  12.429
97291W        W68820  13.515  14.286  11.137
97292W        W68821  27.088  13.782  14.239
97293W        W68822  44.388  43.039   2.679
97294W        W68823  29.689  29.978  12.542
97295W        W68824  31.291  35.565  12.113
97296W        W68825  20.738  27.738  13.879
97297W        W68826  31.100  16.801   3.371
97298W        W68827  18.106  13.397   0.263
97299W        W68828  12.624  37.193   2.365
97300W        W68829  28.446  36.497  11.666
97301W        W68830  12.283  35.493  12.358
97302W        W68831  18.800  20.107   4.143
97303W        W68832  17.024  35.067   5.156
97304W        W68833   8.756   4.967   2.400
97305W        W68834  34.511  34.950   4.325
97306W        W68835  10.106  21.983  12.107
97307W        W68836  39.933  16.194  14.488
97308W        W68837  11.777  15.786   0.991
97309W        W68838  11.310  42.677   3.976
97310W        W68839  43.398  32.926   3.007
97311W        W68840  37.916   7.048  13.523
97312W        W68841  25.227  10.301  13.999
97313W        W68842   4.791   7.365  10.651
97314W        W68843  36.971  42.330   4.304
97315W        W68844  13.827  39.427   1.179
97316W        W68845  30.872  13.246  12.928
97317W        W68846  40.340  21.021  13.831
97318W        W68847  21.151   9.168  11.542
97319W        W68848  37.665  42.550   3.067
97320W        W68849  36.427  35.956   4.620
97321W        W68850  43.926  26.478   3.106
97322W        W68851  30.964   4.510  11.799
97323W        W68852  38.316  12.791  12.440
97324W        W68853  22.590  21.521   2.765
97325W        W68854   6.613  27.777   0.635
97326W        W68855  19.252  11.005   2.400
97327W        W68856  12.314  38.896   2.432
97328W        W68857  14.667  34.459  13.768
97329W        W68858   8.378  34.572   2.868
97330W        W68859  30.899  24.991  11.150
97331W        W68860  37.483  28.094   3.885
97332W        W68861   7.423   8.895   3.630
97333W        W68862  13.357  15.761  10.299
97334W        W68863  11.257  40.992   1.454
97335W        W68864  17.184  31.142  12.613
97336W        W68865  26.703  29.925  14.270
97337W        W68866  36.574  21.570  14.991
97338W        W68867  20.805  20.987  11.040
97339W        W68868  31.059   9.212  11.614
97340W        W68869  40.831  25.904  12.150
97341W        W68870  17.107   6.175   5.001
97342W        W68871   2.823  16.328   0.675
97343W        W68872  20.557  41.290   2.681
97344W        W68873   7.228  18.415   0.343
97345W        W68874  41.547  32.534   1.270
97346W        W68875  41.524  37.781  10.706
97347W        W68876   2.367   6.256   3.695
97348W        W68877  19.555  22.739  12.138
97349W        W68878  23.089  29.662   1.310
97350W        W68879   1.544   3.405  10.955
97351W        W68880  31.042  39.054  11.935
97352W        W68881  39.966  37.418  10.875
97353W        W68882   9.131   1.657  14.996
97354W        W68883  11.074  20.935  10.836
97355W        W68884  37.578  16.807  10.396
97356W        W68885   2.240  29.853   2.277
97357W        W68886   8.302  12.878  11.904
97358W        W68887  44.892   2.993   4.926
97359W        W68888  41.968  26.205   4.132
97360W        W68889   7.908  41.086  11.060
97361W        W68890  18.834  25.971  14.620
97362W        W68891  44.374  27.885   2.442
97363W        W68892  37.021  39.401  12.151
97364W        W68893   9.679  37.944  10.718
97365W        W68894   9.879  24.726   1.634
97366W        W68895  35.312  36.306  12.565
97367W        W68896  31.900  17.139  13.458
97368W        W68897  13.728   4.212  14.412
97369W        W68898  37.824  30.915   3.644
97370W        W68899  43.598   7.456  14.516
97371W        W68900  28.611  40.272  11.965
97372W        W68901  32.264  12.769  14.425
97373W        W68902   6.441  19.067  13.610
97374W        W68903  16.471  27.029  11.906
97375W        W68904  44.855   1.763   0.769
97376W        W68905  19.283  30.221  11.635
97377W        W68906  24.638   8.710  11.807
97378W        W68907  35.931  38.985   0.971
97379W        W68908   6.867  25.686  12.304
97380W        W68909   1.026  12.265   0.062
97381W        W68910  10.288  23.426   1.540
97382W        W68911  28.870  15.320   2.731
97383W        W68912  27.883  30.259   3.951
97384W        W68913  37.715  19.042  11.389
97385W        W68914  31.006   6.224  12.983
97386W        W68915  30.985  21.774   4.130
97387W        W68916  11.860  19.600   2.694
97388W        W68917  32.543  28.953   2.643
97389W        W68918   1.314  25.142  12.287
97390W        W68919  13.489  35.993  14.803
97391W        W68920  33.368  31.417  13.756
97392W        W68921   5.006   3.849  11.674
97393W        W68922  35.417  31.880   1.437
97394W        W68923   3.957   3.434  14.356
97395W        W68924  39.940  38.517   1.941
97396W        W68925  30.829  16.762   3.791
97397W        W68926  15.742   3.182  12.072
97398W        W68927  16.224  19.649  13.375
97399W        W68928  20.022   1.883   4.110
97400W        W68929  23.138  34.897  13.294
97401W        W68930  15.215  26.348  14.319
97402W        W68931  23.516  39.776   4.168
97403W        W68932  42.881  35.625   2.167
97404W        W68933   8.006  22.795  11.115
97405W        W68934  42.404   7.689  14.848
97406W        W68935  25.666  18.167  13.417
97407W        W68936  15.651  34.605  10.593
97408W        W68937   8.132  26.201   0.449
97409W        W68938  43.272  28.666   2.463
97410W        W68939  22.467  10.366   2.289
97411W        W68940  37.583  29.867   3.795
97412W        W68941  31.878  11.986  14.892
97413W        W68942  12.599  31.393   3.550
97414W        W68943  35.126  38.388  12.750
97415W        W68944  22.436  21.590   4.674
97416W        W68945  32.070   5.385   2.176
97417W        W68946  10.772   5.555   4.837
97418W        W68947   6.832  18.376  14.065
97419W        W68948   9.421  35.481  12.601
97420W        W68949   8.834  13.499  12.353
97421W        W68950  42.343  20.037   0.789
97422W        W68951   9.430  28.113   3.322
97423W        W68952  41.332  16.797  12.097
97424W        W68953  30.525  26.960   1.956
97425W        W68954  44.467  13.804  12.176
97426W        W68955   7.829  36.362   0.813
97427W        W68956  17.815  41.914   4.636
97428W        W68957   4.197  26.796  11.171
97429W        W68958  24.051  24.993   3.083
97430W        W68959   4.819  25.839  12.057
97431W        W68960  16.164  32.179   1.717
97432W        W68961  33.912   3.148   4.108
97433W        W68962   7.048   3.322   1.477
97434W        W68963  26.527  41.874   1.324
97435W        W68964   7.496   2.823  12.869
97436W        W68965  31.040  30.123   0.719
97437W        W68966  43.721  33.080   1.692
97438W        W68967  21.556  27.508   1.833
97439W        W68968  32.710  27.978   4.014
97440W        W68969   8.835  37.349  14.398
97441W        W68970   6.711  20.771  14.773
97442W        W68971  24.637  37.940  12.980
97443W        W68972  16.524   8.706  12.806
97444W        W68973  32.047  22.050   3.380
97445W        W68974  17.547   2.848  13.985
97446W        W68975   2.036  33.053   0.875
97447W        W68976  12.638  13.231   0.910
97448W        W68977  12.825  13.453   2.618
97449W        W68978  22.205  44.675   3.033
97450W        W68979  26.871  23.225   4.567
97451W        W68980  10.228  38.420  14.472
97452W        W68981   4.160  18.574  12.975
97453W        W68982  27.013  23.762  13.365
97454W        W68983  35.034  30.092   4.697
97455W        W68984  43.203  27.586   0.962
97456W        W68985   2.669  17.163   0.327
97457W        W68986  26.104  28.450  14.816
97458W        W68987  40.357   9.304   3.204
97459W        W68988  18.553  43.009  13.997
97460W        W68989  36.765  23.331  14.908
97461W        W68990  32.741  32.966   0.864
97462W        W68991  24.281  28.172  14.879
97463W        W68992   4.738   1.830  12.898
97464W        W68993   2.393   8.092  14.554
97465W        W68994  12.760  30.110  10.655
97466W        W68995   1.310  13.850   2.714
97467W        W68996  31.603  11.767  13.799
97468W        W68997  30.493  35.640   0.726
97469W        W68998  40.039  20.680  13.530
97470W        W68999   9.255  33.543  14.035
97471W        W69000  12.563   5.350   1.789
97472W        W69001  43.562   3.607  11.120
97473W        W69002  33.488  23.450  11.708
97474W        W69003  16.565  44.979  13.918
97475W        W69004   9.215   3.204   5.032
97476W        W69005  11.692  44.374  13.640
97477W        W69006  35.925  30.285  12.425
97478W        W69007  33.240  13.335  10.806
97479W        W69008  32.670  26.604  11.145
97480W        W69009  22.985   3.749   4.630
97481W        W69010  32.925  44.794   1.622
97482W        W69011  43.473  42.067  12.896
97483W        W69012   8.193  11.252  11.411
97484W        W69013  21.320  43.127   3.694
97485W        W69014  32.096   3.435   2.323
97486W        W69015  42.496  11.696  10.699
97487W        W69016  21.707   8.787  13.779
97488W        W69017   1.273  17.178  10.780
97489W        W69018  24.020  16.081  13.334
97490W        W69019   9.603   5.887  10.786
97491W        W69020  14.125  42.386   3.834
97492W        W69021   4.271  31.309   0.415
97493W        W69022  33.938   2.281  13.098
97494W        W69023   7.592  35.992  11.607
97495W        W69024   9.389  33.996  12.879
97496W        W69025  13.250  12.187  14.311
97497W        W69026  40.818   4.987   1.832
97498W        W69027  18.273   9.593   4.076
97499W        W69028  14.635   8.932   4.049
97500W        W69029  27.182  12.701  11.434
97501W        W69030   8.767   2.709  12.043
97502W        W69031  10.344  26.882  12.003
97503W        W69032  30.407  30.587  12.311
97504W        W69033   2.602  29.373  12.355
97505W        W69034  23.576  35.119   2.108
97506W        W69035  36.770  28.184  14.668
97507W        W69036  22.268  41.946   0.231
97508W        W69037  18.069  40.276   0.895
97509W        W69038  41.771  23.258   0.379
97510W        W69039  35.848  43.938   1.148
97511W        W69040   4.471  16.675  12.006
97512W        W69041  31.811  13.665  13.573
97513W        W69042  16.628  10.179  12.157
97514W        W69043  31.984   9.637   2.292
97515W        W69044   5.150  27.192  11.481
97516W        W69045   4.510  24.624   4.685
97517W        W69046  28.448  20.523   4.270
97518W        W69047  44.280  17.292  12.646
97519W        W69048  16.273  23.537   0.722
97520W        W69049   0.779  27.394  14.928
97521W        W69050  38.445   3.235  13.432
97522W        W69051  15.584  25.467  12.881
97523W        W69052   8.670  25.157  12.848
97524W        W69053  32.077  31.431  11.219
97525W        W69054  36.446   7.346   3.080
97526W        W69055  39.459  17.329  14.972
97527W        W69056  19.530   9.232  14.486
97528W        W69057  16.175  10.026  11.436
97529W        W69058  26.888   5.089   3.588
97530W        W69059   2.044  21.546  11.526
97531W        W69060   4.590  28.034  11.646
97532W        W69061   8.168   8.751  13.029
97533W        W69062   0.207  26.683   1.004
97534W        W69063   6.902  25.559  14.251
97535W        W69064  34.589  26.084   3.411
97536W        W69065   5.290   9.473  14.849
97537W        W69066   2.887  15.678   4.477
97538W        W69067   4.255  44.115  14.864
97539W        W69068   7.908  38.964  10.288
97540W        W69069  11.429  17.776   1.200
97541W        W69070  19.557   9.708   0.260
97542W        W69071  22.277  27.506  11.009
97543W        W69072   8.945  42.751   1.809
97544W        W69073  27.611  26.104   1.408
97545W        W69074  13.097   8.794  10.340
97546W        W69075   9.121  16.756   4.283
97547W        W69076  36.683  40.562   2.428
97548W        W69077  20.560  29.498  10.642
97549W        W69078  20.155  15.175   1.934
97550W        W69079  19.032  21.480   2.866
97551W        W69080  24.662  12.648  10.608
97552W        W69081   7.819  13.741   1.753
97553W        W69082  24.063  42.206   4.571
97554W        W69083   6.222   4.635   1.567
97555W        W69084  32.172  43.995  14.401
97556W        W69085  35.539  18.312   0.475
97557W        W69086   1.780  16.636   1.423
97558W        W69087  42.522  42.347  12.523
97559W        W69088   0.818  13.241   3.645
97560W        W69089  16.342  16.173   1.474
97561W        W69090  11.271  15.162   4.217
97562W        W69091  44.851   3.772   2.152
97563W        W69092   4.877  20.658  11.838
97564W        W69093  17.596  41.478   0.291
97565W        W69094  37.017   7.454   1.887
97566W        W69095   5.431  17.472   3.684
97567W        W69096  38.910   9.346   1.997
97568W        W69097  14.134  39.150  13.848
97569W        W69098   4.908  35.982  13.499
97570W        W69099   6.917   6.868   2.248
97571W        W69100   6.266  19.212  12.692
97572W        W69101   0.117   8.033   2.651
97573W        W69102  18.079  17.289  14.680
97574W        W69103  20.526  24.900   2.726
97575W        W69104  14.473   2.997   4.152
97576W        W69105  21.029  25.815  12.622
97577W        W69106  25.580  36.126  13.321
97578W        W69107   3.294   3.586  12.095
97579W        W69108  34.950  13.389   0.882
97580W        W69109  38.848   1.786  14.878
97581W        W69110   6.312  21.107  11.403
97582W        W69111  13.847  33.985   1.846
97583W        W69112  27.498  16.029   3.651
97584W        W69113  31.584   0.977   3.175
97585W        W69114  13.717   1.498  13.954
97586W        W69115  24.501  27.217  13.029
97587W        W69116  20.622   3.598   2.178
97588W        W69117  35.542  40.258   4.558
97589W        W69118  29.580   0.817   4.172
97590W        W69119  21.539  44.801   3.272
97591W        W69120  37.438   7.165  13.370
97592W        W69121  21.961  12.126   3.589
97593W        W69122  24.175  24.705   1.701
97594W        W69123  20.604  20.991  11.538
97595W        W69124  36.839   8.427  11.259
97596W        W69125  12.780  37.484   3.646
97597W        W69126  22.000   1.261   4.642
97598W        W69127  40.830  12.418  14.604
97599W        W69128   2.403  36.651   3.677
97600W        W69129   8.151  14.273   1.290
97601W        W69130  33.788  42.586  13.798
97602W        W69131  14.884  25.083   2.756
97603W        W69132  35.060  22.498   3.130
97604W        W69133   5.129  12.742  11.537
97605W        W69134   8.393  44.267   1.251
97606W        W69135   7.316  13.824  14.852
97607W        W69136  13.544  28.902  14.859
97608W        W69137  28.223  17.737   1.878
97609W        W69138   0.356  33.559   3.525
97610W        W69139  18.150   6.936  11.458
97611W        W69140  12.636   0.603   0.297
97612W        W69141  39.546   4.762   3.999
97613W        W69142  41.613  24.224  10.761
97614W        W69143   3.880  36.113   0.190
97615W        W69144  25.398  10.825  10.860
97616W        W69145  12.611  36.933  13.425
97617W        W69146  26.407  28.351   3.534
97618W        W69147  15.462   8.305   0.935
97619W        W69148   5.359  13.692  13.938
97620W        W69149  12.149  24.008  10.729
97621W        W69150   1.458  26.026  11.941
97622W        W69151   2.231  32.984  14.356
97623W        W69152  14.162  40.200  12.614
97624W        W69153  22.435   0.493  14.310
97625W        W69154   0.585   7.969  13.912
97626W        W69155  13.787  13.616  14.414
97627W        W69156   0.856   3.473  10.024
97628W        W69157  35.412  44.217   3.768
97629W        W69158   4.354  34.140   2.565
97630W        W69159  34.845  24.182  11.218
97631W        W69160  12.835  29.947  14.974
97632W        W69161  37.752  11.232   1.901
97633W        W69162  16.515  32.865  14.961
97634W        W69163  16.824  40.119  11.658
97635W        W69164  16.288  21.865   0.897
97636W        W69165  25.510  40.797   2.802
97637W        W69166  42.104  37.974  14.353
97638W        W69167  23.235   9.999  11.086
97639W        W69168  25.924  13.360   4.986
97640W        W69169   7.931  39.850   3.910
97641W        W69170  22.042  44.286   2.694
97642W        W69171  39.446  38.486  11.846
97643W        W69172  34.127  24.600   4.166
97644W        W69173  12.896  15.704  10.933
97645W        W69174  14.823  41.225  12.996
97646W        W69175  21.947  34.371  14.152
97647W        W69176  35.208  32.357   4.132
97648W        W69177   3.780   9.630  14.978
97649W        W69178  42.369  42.927  10.945
97650W        W69179  32.418   4.553  11.153
97651W        W69180  31.526  19.660  12.622
97652W        W69181  38.489   9.819  13.588
97653W        W69182  17.859  25.158   0.305
97654W        W69183  21.763  39.374  12.375
97655W        W69184  42.782  18.724  13.432
97656W        W69185  44.910  20.501   3.243
97657W        W69186  37.026   1.450  14.974
97658W        W69187  24.831  20.190  11.356
97659W        W69188  38.459  24.145   3.807
97660W        W69189  42.723  31.700   0.602
97661W        W69190   6.733  39.343   3.332
97662W        W69191  35.231  18.731  14.373
97663W        W69192  31.153  19.126   4.396
97664W        W69193  42.234   5.912  12.926
97665W        W69194  21.688  32.635  14.530
97666W        W69195   3.901  36.111   1.293
97667W        W69196  23.919  23.617  13.648
97668W        W69197  11.432  14.797   1.242
97669W        W69198  18.745  25.017   4.140
97670W        W69199  25.987   7.888  11.180
97671W        W69200  10.851  37.344  12.373
97672W        W69201  10.932  20.529  13.273
97673W        W69202  18.730  39.527   3.179
97674W        W69203  22.922  22.222  14.103
97675W        W69204  26.425  28.389  11.120
97676W        W69205  12.805  25.684  10.705
97677W        W69206  21.586  38.056   5.381
97678W        W69207  34.074   9.589  10.665
97679W        W69208  13.847  40.496  12.087
97680W        W69209  40.100  11.263   0.970
97681W        W69210  21.811  40.857   3.199
97682W        W69211  12.883  14.222   2.260
97683W        W69212  28.459  26.534  12.625
97684W        W69213  32.077   3.163  10.917
97685W        W69214  18.264   8.306  11.163
97686W        W69215  38.645  32.157  14.950
97687W        W69216  30.079  29.503   4.550
97688W        W69217   3.547  14.294  12.959
97689W        W69218  35.662  21.496   4.819
97690W        W69219  23.104   8.432  14.110
97691W        W69220  44.124  23.068  14.989
97692W        W69221  35.334  11.033   1.640
97693W        W69222  15.107  34.108   1.312
97694W        W69223   7.548  22.048  11.185
97695W        W69224  24.449  14.280  11.261
97696W        W69225   7.466  19.125  13.725
97697W        W69226  10.263  24.443  11.504
97698W        W69227  43.297  38.509  13.362
97699W        W69228  14.807   1.456   3.276
97700W        W69229  19.950  15.719   3.259
97701W        W69230  33.099   7.925   0.907
97702W        W69231   5.279  19.228  14.259
97703W        W69232  32.733  24.922   2.991
97704W        W69233  24.731  43.074   1.507
97705W        W69234  28.955   3.393  11.174
97706W        W69235  19.785  27.974   4.557
97707W        W69236  28.945  23.415   1.840
97708W        W69237  17.035   2.718  12.851
97709W        W69238  43.969  21.650   0.735
97710W        W69239  21.699  33.951  11.987
97711W        W69240  41.903  30.012  14.072
97712W        W69241  16.387  14.069  11.018
97713W        W69242   7.180  33.941  14.360
97714W        W69243  33.610  18.020   4.176
97715W        W69244  31.350  35.492  14.857
97716W        W69245  42.446   8.838  11.688
97717W        W69246  14.676  42.759   4.922
97718W        W69247  18.725  44.817   2.376
97719W        W69248  27.132  37.525   9.983
97720W        W69249  22.762  15.006  14.359
97721W        W69250   1.323  23.725  11.145
97722W        W69251  12.184  10.318  14.168
97723W        W69252  39.573  17.821  13.084
97724W        W69253   3.723   4.009   0.849
97725W        W69254   1.848  28.554  11.463
97726W        W69255  40.995   9.370   3.674
97727W        W69256  28.833  23.109   4.097
97728W        W69257   1.320  31.382  10.197
97729W        W69258   4.879   3.978   4.250
97730W        W69259  29.854  14.041   1.201
97731W        W69260   0.709  22.123  11.982
97732W        W69261   4.263  41.859   0.267
97733W        W69262  23.582  19.747   1.138
97734W        W69263  20.021   0.808   1.670
97735W        W69264  17.020  13.121   4.334
97736W        W69265  42.834  14.650  12.710
97737W        W69266  28.016  38.414   3.141
97738W        W69267  21.062  42.690   2.827
97739W        W69268  12.902  42.997   1.249
97740W        W69269  16.115  17.275  14.845
97741W        W69270   6.351  21.707   3.818
97742W        W69271  31.185  11.392  14.765
97743W        W69272  38.015  31.326  12.856
97744W        W69273   8.788  16.115   1.719
97745W        W69274  41.521  38.317   2.803
97746W        W69275  28.708  36.914  11.509
97747W        W69276   6.894   5.740  10.453
97748W        W69277  17.118  40.912   2.823
97749W        W69278   0.979  37.907  11.519
97750W        W69279  34.681  18.151  11.933
97751W        W69280  32.912   2.807   2.299
97752W        W69281   2.126  19.279   3.262
97753W        W69282  42.829  21.834   4.608
97754W        W69283  33.879   5.869  12.714
97755W        W69284  11.736  10.846   0.764
97756W        W69285  27.953  12.224   2.148
97757W        W69286  38.597   6.796   2.748
97758W        W69287   9.853   9.544   2.731
97759W        W69288  21.184  27.913   3.408
97760W        W69289  34.005  36.816  12.375
97761W        W69290  33.700  14.860   1.464
97762W        W69291   2.920  21.102  14.918
97763W        W69292  15.610   8.752   0.020
97764W        W69293  17.217  11.793  13.981
97765W        W69294   1.335  37.182   2.682
97766W        W69295   1.751  32.527   0.003
97767W        W69296  29.283  31.495   4.619
97768W        W69297  23.480  12.283   2.388
97769W        W69298  37.537  33.811  11.087
97770W        W69299  44.703  19.034  12.030
97771W        W69300  28.033  40.348   4.464
97772W        W69301  26.446   7.358   2.682
97773W        W69302  43.758  42.048  14.871
97774W        W69303  42.005  31.505  12.727
97775W        W69304  13.479  25.124   3.200
97776W        W69305   9.606   1.443   4.124
97777W        W69306  37.456  42.208   2.750
97778W        W69307  31.663  24.738  11.533
97779W        W69308   2.389  31.365  14.880
97780W        W69309  20.051  22.909   0.323
97781W        W69310  15.399  28.478  12.846
97782W        W69311  30.436   9.668  12.166
97783W        W69312  23.896  16.322   4.364
97784W        W69313  31.548   4.698  13.488
97785W        W69314  13.311  30.163   4.780
97786W        W69315  14.120  35.100   2.787
97787W        W69316  14.342  43.775  14.256
97788W        W69317  17.559  21.490  11.496
97789W        W69318  15.136  37.468  13.358
97790W        W69319  40.738  17.155  13.745
97791W        W69320  26.099   3.382   2.594
97792W        W69321  38.052  43.336   1.732
97793W        W69322   2.375   5.660   0.005
97794W        W69323  17.095  43.415   0.793
97795W        W69324  43.620  27.873  11.164
97796W        W69325  34.204  44.018   2.868
97797W        W69326   8.179   6.937  12.403
97798W        W69327  24.951  26.128  12.072
97799W        W69328  16.275  17.783  14.887
97800W        W69329  15.060  19.633   1.839
97801W        W69330  34.137  31.395  13.394
97802W        W69331  44.630  16.698   2.467
97803W        W69332  29.331  20.393   3.337
97804W        W69333  17.327  31.703  14.392
97805W        W69334  26.039  28.242   4.310
97806W        W69335   2.862  21.185  12.415
97807W        W69336  12.705  44.579   3.450
97808W        W69337  30.165  43.883  12.465
97809W        W69338   5.600  25.082   2.267
97810W        W69339  33.599  10.585   1.255
97811W        W69340   3.446  18.467   2.400
97812W        W69341  26.444  32.100   3.627
97813W        W69342   9.641  14.734  12.496
97814W        W69343  16.749  10.168   3.886
97815W        W69344  11.621  29.710   0.211
97816W        W69345  37.035   9.163   4.582
97817W        W69346  24.225  16.597  12.541
97818W        W69347  32.981  34.395   1.078
97819W        W69348  32.551  21.576   1.929
97820W        W69349  25.976  27.491   4.457
97821W        W69350  11.653  26.201   0.267
97822W        W69351   3.829   9.431  11.193
97823W        W69352  23.215   5.365   2.640
97824W        W69353   2.631   5.796   0.444
97825W        W69354  29.915  14.145   4.484
97826W        W69355   5.989  23.004   2.152
97827W        W69356   6.421   6.411  14.303
97828W        W69357  37.126  19.096   1.172
97829W        W69358  29.536  25.993   2.177
97830W        W69359  22.451  30.968   2.761
97831W        W69360  44.342  40.794   4.667
97832W        W69361  42.574  32.654  14.485
97833W        W69362   4.114  37.892   1.701
97834W        W69363  17.989  13.604  14.788
97835W        W69364  32.586  10.456   1.851
97836W        W69365  43.108  32.454   3.733
97837W        W69366  28.761  13.390  13.842
97838W        W69367  38.515  15.660  14.738
97839W        W69368  37.953   2.782  12.787
97840W        W69369  22.182  26.893   0.332
97841W        W69370   2.199  43.493  11.583
97842W        W69371  32.019  42.020  11.503
97843W        W69372  37.584  12.306   0.775
97844W        W69373  29.712  12.346   4.571
97845W        W69374  44.427   4.029   1.245
97846W        W69375  16.133   5.897   2.702
97847W        W69376  40.029  41.629  10.568
97848W        W69377  12.546  25.361  11.892
97849W        W69378  34.027  11.846   1.906
97850W        W69379  39.352  43.006   4.745
97851W        W69380  21.606  37.313   1.736
97852W        W69381  28.703  30.791   1.437
97853W        W69382  31.997   1.727   3.681
97854W        W69383  30.558  25.358  12.439
97855W        W69384  30.071  11.817  10.273
97856W        W69385  25.984   2.905   0.789
97857W        W69386   0.811   2.173  13.900
97858W        W69387   6.728  36.122  14.034
97859W        W69388  37.954  44.372   4.723
97860W        W69389  20.980  19.191  11.205
97861W        W69390  27.623  14.763   1.358
97862W        W69391  37.939  22.102   0.725
97863W        W69392   9.855  22.672   3.716
97864W        W69393  11.857  21.284  12.063
97865W        W69394  23.605   1.781  14.992
97866W        W69395  27.949  14.157   4.582
97867W        W69396  15.175  23.288   0.325
97868W        W69397  18.486   2.878   1.977
97869W        W69398   1.953  12.882   3.319
97870W        W69399   3.034  43.363   1.349
97871W        W69400  19.115  27.658   5.065
97872W        W69401  41.783  20.250  14.369
97873W        W69402   1.896  24.453   0.969
97874W        W69403  33.087  44.875  13.769
97875W        W69404  30.545  11.288  11.334
97876W        W69405  30.379  27.532  10.848
97877W        W69406   8.482  41.367   1.371
97878W        W69407  42.852  40.859  10.629
97879W        W69408   9.634   8.058   2.883
97880W        W69409  29.163   9.408   1.343
97881W        W69410  41.334  23.088  13.269
97882W        W69411  18.519   2.931  14.956
97883W        W69412  30.977  36.396   2.480
97884W        W69413  31.327  34.503  10.831
97885W        W69414  15.310  20.445   2.241
97886W        W69415   7.490  41.748  11.452
97887W        W69416  26.544  20.715  12.687
97888W        W69417  36.383  43.363   4.093
97889W        W69418  15.110  29.697   2.124
97890W        W69419  25.670  16.600   3.319
97891W        W69420  12.129  20.366   1.213
97892W        W69421  23.573   0.223   3.422
97893W        W69422  16.649  24.287   1.941
97894W        W69423  16.809  16.199  12.490
97895W        W69424  22.262  14.134   3.669
97896W        W69425  30.482  11.862  13.070
97897W        W69426  32.977  17.605  11.623
97898W        W69427  35.950  17.039  13.845
97899W        W69428  35.685  16.743   2.171
97900W        W69429  11.735  18.654   1.271
97901W        W69430   6.610  26.109   2.269
97902W        W69431   2.014  27.492  14.028
97903W        W69432  37.014  15.134  13.961
97904W        W69433  27.107   5.442   2.152
97905W        W69434   0.388  20.038  10.671
97906W        W69435  36.507  44.014  13.849
97907W        W69436  12.959  22.743   1.231
97908W        W69437  26.199  25.249   0.492
97909W        W69438  29.238  25.192  10.297
97910W        W69439   7.919  16.718   4.596
97911W        W69440  33.006  33.082  11.925
97912W        W69441  16.786  44.968  14.417
97913W        W69442  12.975   4.872   0.047
97914W        W69443  27.686  30.253   0.229
97915W        W69444  44.189  16.832  13.247
97916W        W69445  15.760  28.916   0.530
97917W        W69446  33.354   3.342  14.605
97918W        W69447  24.767  11.177  13.360
97919W        W69448   5.653  36.521   4.107
97920W        W69449   7.460  17.784   1.251
97921W        W69450  37.700  27.663  13.089
97922W        W69451  16.118  37.244   1.696
97923W        W69452  24.765  42.532  14.863
97924W        W69453   5.044   7.149  12.614
97925W        W69454   1.446  29.239  11.604
97926W        W69455  17.272  10.329  10.350
97927W        W69456   8.219  24.477  11.430
97928W        W69457  29.276  35.755   2.242
97929W        W69458  12.624  18.558  11.931
97930W        W69459  13.390  11.410  14.013
97931W        W69460  44.579  22.168   2.845
97932W        W69461  43.877  35.785  14.522
97933W        W69462  39.736  33.118  10.975
97934W        W69463   2.245  10.213   3.416
97935W        W69464  32.619  40.877   1.157
97936W        W69465  25.525  37.515  11.166
97937W        W69466   4.842  33.840  12.801
97938W        W69467  20.502   2.777   4.461
97939W        W69468   6.756  19.183  12.512
97940W        W69469   1.949  34.087   2.290
97941W        W69470   4.306  39.210   4.882
97942W        W69471  41.361  42.439  12.488
97943W        W69472  10.415   1.054   3.758
97944W        W69473  27.059  29.010   0.328
97945W        W69474  13.786   1.329  13.456
97946W        W69475  30.129  19.514   1.334
97947W        W69476   6.674   4.929   4.071
97948W        W69477  21.287  39.738  10.644
97949W        W69478  22.674  18.875  14.429
97950W        W69479  29.627  10.302  12.495
97951W        W69480  17.663   5.012   0.351
97952W        W69481  22.613  33.695   1.922
97953W        W69482  32.736  32.277  14.866
97954W        W69483   6.892   2.915   1.205
97955W        W69484  35.908   1.080  11.982
97956W        W69485  13.172  16.823   4.032
97957W        W69486  11.632  22.466  12.827
97958W        W69487  39.544  36.416   3.294
97959W        W69488  40.345  21.772   0.279
97960W        W69489  29.346  39.694   3.802
97961W        W69490  25.788  10.337  12.487
97962W        W69491  29.731  32.941   2.690
97963W        W69492  12.051  31.470  11.950
97964W        W69493  16.928   6.556   1.446
97965W        W69494  32.470   0.060   3.756
97966W        W69495  26.099  20.693  10.341
97967W        W69496  27.383  36.034  12.365
97968W        W69497  29.729  40.275   3.748
97969W        W69498  15.715  24.694   3.850
97970W        W69499  16.151   2.681   3.212
97971W        W69500  13.734   0.099   9.919
97972W        W69501  33.271  28.946   3.358
97973W        W69502  32.098  13.583   2.227
97974W        W69503  25.724  26.447  10.844
97975W        W69504  22.310  40.071   1.005
97976W        W69505  32.444   8.341  13.559
97977W        W69506  40.987   1.042  14.360
97978W        W69507  29.807  41.212   4.226
97979W        W69508  20.216  22.348  13.844
97980W        W69509  16.081  37.174  10.374
97981W        W69510   7.457  34.905   4.903
97982W        W69511  24.723  12.751  14.402
97983W        W69512  32.995  25.718  11.194
97984W        W69513  30.860  17.752   1.172
97985W        W69514   1.495  15.225  13.182
97986W        W69515  34.938  28.004   4.509
97987W        W69516   2.173  24.371  10.459
97988W        W69517  10.746  22.151  13.013
97989W        W69518  37.955   6.349  14.876
97990W        W69519  13.675   8.206   0.385
97991W        W69520  31.852  43.439   4.565
97992W        W69521  16.521   6.961  14.499
97993W        W69522  31.596   4.596   4.266
97994W        W69523  17.649  41.286   1.688
97995W        W69524  13.726  17.755  13.254
97996W        W69525   7.698  23.962  12.961
97997W        W69526  43.996  14.211   0.870
97998W        W69527  14.198  43.844  13.760
97999W        W69528  19.270   8.057   4.955
98000W        W69529  36.012  22.051  11.000
98001W        W69530  29.172   4.516  13.349
98002W        W69531  40.402  13.603  13.369
98003W        W69532  22.972  20.700   0.248
98004W        W69533  41.781  16.083  14.758
98005W        W69534  11.205  21.128  13.753
98006W        W69535   8.719  27.414  11.160
98007W        W69536  35.960  39.383   1.309
98008W        W69537  39.801  31.446   0.414
98009W        W69538  13.178  40.556   1.237
98010W        W69539  13.616  26.616   4.302
98011W        W69540  22.953  25.031  13.930
98012W        W69541  15.716  14.550  14.057
98013W        W69542  37.212   5.332  11.990
98014W        W69543  11.226   0.658  14.422
98015W        W69544   9.141  40.545  14.993
98016W        W69545   4.676  41.346   1.325
98017W        W69546  21.358  26.945   3.236
98018W        W69547  30.656  44.756   4.064
98019W        W69548  43.027  27.760  12.058
98020W        W69549  20.786   9.855   1.721
98021W        W69550  32.529  25.766  12.479
98022W        W69551  43.240  37.471  11.026
98023W        W69552   3.407   7.449  13.136
98024W        W69553  38.263  42.029  12.890
98025W        W69554  36.600  28.006  13.638
98026W        W69555  17.796  41.380   1.190
98027W        W69556  11.267  42.222   2.549
98028W        W69557  33.895  24.485   1.428
98029W        W69558  16.557  40.249   3.351
98030W        W69559  37.081  10.570  14.044
98031W        W69560  28.586   4.978   4.257
98032W        W69561   4.392  35.423   3.878
98033W        W69562   8.181  13.165   4.064
98034W        W69563  17.223  32.912   0.488
98035W        W69564  31.734   8.845   4.681
98036W        W69565   1.859  21.945  14.615
98037W        W69566  27.019  40.181  11.189
98038W        W69567  31.435  10.585   3.089
98039W        W69568  32.956  27.576   4.793
98040W        W69569  44.768  34.785  13.982
98041W        W69570  31.734  33.077   4.171
98042W        W69571   0.830   5.769   4.482
98043W        W69572   0.657  26.987   2.825
98044W        W69573   8.819   5.334   4.664
98045W        W69574  44.457   5.233   1.778
98046W        W69575  33.056   0.931   2.405
98047W        W69576   8.727   8.778   0.997
98048W        W69577  19.071  21.392  13.113
98049W        W69578   4.681  34.138   1.746
98050W        W69579  26.013  39.413   4.208
98051W        W69580  24.769  32.238  14.467
98052W        W69581  15.257  41.918   1.434
98053W        W69582  29.976   5.131  11.024
98054W        W69583  23.687  10.757   1.251
98055W        W69584   7.466  16.972   0.072
98056W        W69585  13.156  15.083   4.499
98057W        W69586  27.461   7.919  14.487
98058W        W69587  24.576   5.461  13.437
98059W        W69588   3.869  44.693   2.381
98060W        W69589  34.333   8.304  14.504
98061W        W69590  28.428  44.497   4.888
98062W        W69591  16.431   6.674   9.603
98063W        W69592   4.023  36.364   2.163
98064W        W69593  32.964  23.718   2.241
98065W        W69594  12.964  37.335  10.211
98066W        W69595  32.535  13.650   3.911
98067W        W69596  44.324  14.680  12.678
98068W        W69597  43.569   1.710  11.877
98069W        W69598  12.266  24.093   1.514
98070W        W69599  39.080  42.480   3.652
98071W        W69600  21.802   3.258   3.209
98072W        W69601  29.145  34.657   3.164
98073W        W69602  44.734  34.887  10.155
98074W        W69603  24.262  38.070  14.669
98075W        W69604  22.799   8.692  12.994
98076W        W69605  14.733  31.647   3.643
98077W        W69606  38.618  10.446   1.278
98078W        W69607   9.500  14.725  14.229
98079W        W69608  20.242  16.054   1.525
98080W        W69609   7.197  34.629  12.426
98081W        W69610   6.779  35.601  12.497
98082W        W69611  18.099   7.107  11.948
98083W        W69612  31.963  33.832  12.424
98084W        W69613   8.952   5.868   3.256
98085W        W69614   3.870  24.581   0.752
98086W        W69615  27.162  40.220  12.502
98087W        W69616  12.332   2.024  12.392
98088W        W69617  15.247  13.181   0.831
98089W        W69618  33.995  28.554   2.953
98090W        W69619  13.666  19.459   1.438
98091W        W69620   7.727  14.283   2.710
98092W        W69621  28.075  29.153   2.925
98093W        W69622   4.648  16.274  14.764
98094W        W69623  12.527   9.897  14.298
98095W        W69624  30.988  16.588   1.526
98096W        W69625   0.061  26.249  11.111
98097W        W69626  39.916  17.552   4.161
98098W        W69627  29.052  38.064   3.330
98099W        W69628  21.086  23.061  11.255
98100W        W69629  18.311   8.948   2.434
98101W        W69630  13.844  33.190   1.203
98102W        W69631  25.209  21.575  13.982
98103W        W69632  18.347  27.889  14.647
98104W        W69633  36.086  22.987  10.628
98105W        W69634   3.239   7.441  12.655
98106W        W69635  28.392   2.612  11.533
98107W        W69636  14.137  10.697   3.670
98108W        W69637  28.692  16.555  11.882
98109W        W69638  32.954  10.615  12.083
98110W        W69639  17.704   5.120  14.808
98111W        W69640  14.779  17.698   2.930
98112W        W69641  15.874  39.519  12.136
98113W        W69642  42.443   9.393   4.809
98114W        W69643   7.238  23.263   4.151
98115W        W69644  12.097  17.195  11.590
98116W        W69645  23.532  12.156  11.947
98117W        W69646   7.843  44.375  14.425
98118W        W69647  11.669  18.135  10.795
98119W        W69648  10.099  41.562   2.829
98120W        W69649  19.016  17.775  12.581
98121W        W69650  41.942  17.090  14.890
98122W        W69651  33.479  21.295   3.842
98123W        W69652  29.017  11.752   0.543
98124W        W69653   7.429   5.833   1.894
98125W        W69654  28.540   4.357   2.225
98126W        W69655  41.401  37.353  14.445
98127W        W69656  38.337  14.458  13.964
98128W        W69657   7.187  30.295  13.639
98129W        W69658  43.764  18.630   4.075
98130W        W69659  37.037  36.760  13.324
98131W        W69660  33.008  42.020  14.808
98132W        W69661  30.402  41.953   4.814
98133W        W69662  35.092  18.727   3.680
98134W        W69663  21.356  41.794   3.100
98135W        W69664  24.406  34.611   1.432
98136W        W69665   0.918   7.308   0.086
98137W        W69666  23.473   4.229  13.045
98138W        W69667  33.193  26.485  12.672
98139W        W69668  40.785  27.912  13.748
98140W        W69669  31.517  43.836  12.689
98141W        W69670  15.516  38.697   0.893
98142W        W69671  33.474   9.830  13.915
98143W        W69672  28.413  27.558  13.420
98144W        W69673  18.091  23.550   3.698
98145W        W69674  34.058  37.578  11.954
98146W        W69675  18.309  37.656   4.585
98147W        W69676  21.043  28.418  12.150
98148W        W69677  29.468  13.089   9.796
98149W        W69678  29.954   9.315   2.616
98150W        W69679  10.351  15.313   0.734
98151W        W69680  27.122  32.979   0.450
98152W        W69681   6.598  24.124   2.767
98153W        W69682  40.458  14.126  11.213
98154W        W69683  12.948  18.017   0.056
98155W        W69684  38.744  19.595  12.412
98156W        W69685  39.833  32.592   4.208
98157W        W69686  44.176  44.823  14.513
98158W        W69687   7.136  24.585  11.430
98159W        W69688   1.801  21.089  12.177
98160W        W69689  16.879  40.514   1.053
98161W        W69690  20.972  38.966  10.756
98162W        W69691  24.510  41.097  14.813
98163W        W69692  32.347  42.305   3.805
98164W        W69693  39.461  38.520   2.838
98165W        W69694   5.528  39.328  10.946
98166W        W69695   8.159  15.787   0.882
98167W        W69696   3.391   9.170  11.216
98168W        W69697  42.216  27.294   0.719
98169W        W69698   4.780  18.055  12.505
98170W        W69699  28.130   1.594   3.733
98171W        W69700  34.148   5.647   2.220
98172W        W69701  26.479  28.232   4.974
98173W        W69702   4.976  27.905   1.395
98174W        W69703  15.071  44.245  14.923
98175W        W69704   7.365  11.763   0.385
98176W        W69705  15.919  27.444  10.293
98177W        W69706   6.076  15.754   3.317
98178W        W69707  22.942  16.265   3.717
98179W        W69708  11.822   2.496  14.972
98180W        W69709  29.973  42.829  14.533
98181W        W69710  16.530  42.269   2.785
98182W        W69711   3.030  18.906  12.123
98183W        W69712  28.446  18.238   3.591
98184W        W69713  37.581  35.901  13.982
98185W        W69714  39.423  15.249   2.751
98186W        W69715  37.005   3.440   0.819
98187W        W69716  15.948  10.915   5.023
98188W        W69717  23.722  23.150  12.875
98189W        W69718  33.162   6.760  14.684
98190W        W69719  15.691  15.970  13.979
98191W        W69720  17.719  11.519  11.600
98192W        W69721  17.235  10.293   3.564
98193W        W69722  37.988   7.673  10.688
98194W        W69723  26.288  29.581  14.275
98195W        W69724  14.005  25.563   5.075
98196W        W69725  21.283  32.384  12.901
98197W        W69726  37.021  16.094  12.041
98198W        W69727   3.646  37.205   3.190
98199W        W69728  37.547  20.323  13.460
98200W        W69729  38.458  36.905  11.129
98201W        W69730   7.809  27.127  12.742
98202W        W69731  44.763  16.603  13.347
98203W        W69732  38.761  35.532   2.697
98204W        W69733  38.856  29.498  14.107
98205W        W69734  44.473   6.303   2.822
98206W        W69735  20.263  41.288   4.970
98207W        W69736  34.113  40.881  12.493
98208W        W69737  30.915  36.890  13.800
98209W        W69738  35.796  12.113   0.287
98210W        W69739  37.765  36.038  11.653
98211W        W69740  43.406  15.085   4.172
98212W        W69741  37.123  37.273   0.616
98213W        W69742   0.337  42.338  11.214
98214W        W69743   4.799  35.117  13.090
98215W        W69744  22.581   6.290   1.785
98216W        W69745  28.315  28.907  14.625
98217W        W69746  17.149   3.552  11.679
98218W        W69747  23.546  18.277  13.078
98219W        W69748  31.540  25.591  11.140
98220W        W69749  24.414  40.281   3.615
98221W        W69750  29.158  44.877  13.807
98222W        W69751  18.160  21.058  14.535
98223W        W69752  35.072  16.996   1.604
98224W        W69753  33.573  37.024  10.589
98225W        W69754   7.666  27.254   1.731
98226W        W69755  20.856  24.325  14.277
98227W        W69756  29.634  10.447   4.533
98228W        W69757   7.552  13.683  13.537
98229W        W69758  41.260  10.155  14.521
98230W        W69759  14.486  38.028  13.040
98231W        W69760   4.543  20.504   2.178
98232W        W69761  34.533  20.723  13.036
98233W        W69762   1.906  36.653   0.709
98234W        W69763  10.814  13.089   4.274
98235W        W69764   4.775  39.934   2.214
98236W        W69765  28.991  18.072  11.922
98237W        W69766  15.992  41.893   0.849
98238W        W69767  35.298  28.968  11.082
98239W        W69768   4.305  15.850  10.753
98240W        W69769   3.388  24.767   0.831
98241W        W69770  10.046  29.649  10.633
98242W        W69771  14.768  13.664   4.302
98243W        W69772  32.398  40.985   2.730
98244W        W69773  17.129  14.226  10.346
98245W        W69774  15.569  40.313   2.304
98246W        W69775  39.052   6.077  13.496
98247W        W69776   8.582  10.134   1.969
98248W        W69777   1.909  32.329  10.823
98249W        W69778  33.541   5.682   1.780
98250W        W69779  42.791  39.292  10.827
98251W        W69780  34.531   8.236  10.810
98252W        W69781   6.217  22.781   2.830
98253W        W69782  17.184  40.979   1.906
98254W        W69783  22.299   7.161   3.278
98255W        W69784  30.611   7.296   1.935
98256W        W69785  28.414  38.597   4.288
98257W        W69786  23.645   5.359  12.141
98258W        W69787  11.422  22.037  12.502
98259W        W69788   4.346   2.560   1.388
98260W        W69789  30.723  22.999  13.408
98261W        W69790  35.561  19.841   1.721
98262W        W69791  29.617   1.491  10.222
98263W        W69792  27.348   9.722  12.556
98264W        W69793  28.661  25.478   1.795
98265W        W69794  37.962  14.032   0.447
98266W        W69795  17.112  40.542  13.140
98267W        W69796   7.151  11.251   4.675
98268W        W69797  35.980  27.513   0.618
98269W        W69798   0.021  10.807  13.838
98270W        W69799   4.248  17.179  14.486
98271W        W69800   0.345   3.975  12.837
98272W        W69801  39.346  34.447   1.800
98273W        W69802  27.769  18.584  14.843
98274W        W69803   9.206  16.515   2.810
98275W        W69804  19.030  19.051   2.575
98276W        W69805   6.364  40.628  13.011
98277W        W69806  39.456  22.329   4.620
98278W        W69807  32.495   2.456  12.199
98279W        W69808  16.667  36.659  14.447
98280W        W69809  28.952   1.720  13.676
98281W        W69810  24.466  11.124  10.493
98282W        W69811  20.507  35.504   1.787
98283W        W69812  40.949   7.827  11.582
98284W        W69813  16.172  44.300  10.296
98285W        W69814  10.395  13.822   0.351
98286W        W69815  20.769  37.385  13.484
98287W        W69816  41.484   2.229   0.645
98288W        W69817  10.410  39.626   1.444
98289W        W69818  24.753   1.479   3.902
98290W        W69819   5.702   7.280  11.009
98291W        W69820  29.725   4.647  11.011
98292W        W69821   0.196   0.802  14.360
98293W        W69822  41.990  40.253  14.943
98294W        W69823  31.087   7.400   0.691
98295W        W69824   3.093  41.143  12.182
98296W        W69825   3.463  27.015   5.077
98297W        W69826   5.390  32.428  14.815
98298W        W69827   1.435  34.062  13.886
98299W        W69828  26.655  25.156   4.442
98300W        W69829  33.343   9.488  12.787
98301W        W69830  44.348  10.215   2.710
98302W        W69831   4.380  44.771  11.367
98303W        W69832  26.856  30.394   2.434
98304W        W69833  27.072  11.163  14.404
98305W        W69834  44.006  41.087  14.986
98306W        W69835  40.522  10.749  12.153
98307W        W69836  40.919  40.408  11.133
98308W        W69837  18.469  13.636   3.649
98309W        W69838  23.471  26.656   2.771
98310W        W69839  27.439   5.511   1.643
98311W        W69840   8.469  40.069   2.593
98312W        W69841   0.770  11.401   4.370
98313W        W69842  12.123  41.740   2.753
98314W        W69843  38.122   0.023  11.544
98315W        W69844  23.127  19.567   0.975
98316W        W69845   1.974  13.226   2.652
98317W        W69846  15.024   1.633  12.140
98318W        W69847  11.140  31.946  10.713
98319W        W69848  18.574  18.731   0.385
98320W        W69849  27.938  14.241  14.780
98321W        W69850  14.516  16.664  14.508
98322W        W69851   1.162  40.315   1.802
98323W        W69852  23.106  25.668   2.674
98324W        W69853  21.253  21.581  10.596
98325W        W69854  16.205  19.702  12.349
98326W        W69855  37.866  23.957  13.531
98327W        W69856  38.850  41.636  12.740
98328W        W69857  13.200  40.253   4.609
98329W        W69858  10.172  16.530   2.825
98330W        W69859  12.642   2.996   3.151
98331W        W69860  41.509   7.433   3.366
98332W        W69861  39.946   8.561   0.875
98333W        W69862  21.754  25.507   4.199
98334W        W69863  25.060  34.644  11.198
98335W        W69864  42.066  43.328  11.953
98336W        W69865  14.598   2.643   1.835
98337W        W69866  26.555  22.425   1.796
98338W        W69867  44.770  17.103   9.804
98339W        W69868  29.515  38.307   0.955
98340W        W69869  38.967   1.647   3.661
98341W        W69870  43.338   6.269  11.538
98342W        W69871  37.423  13.315  12.524
98343W        W69872   0.783   7.297  13.618
98344W        W69873  34.037  16.151  12.069
98345W        W69874  19.649  17.192  12.906
98346W        W69875   0.467  25.271  14.688
98347W        W69876   2.691   5.817   3.880
98348W        W69877   6.861  44.915  13.713
98349W        W69878  18.195  37.009  12.025
98350W        W69879  29.081  23.242  14.417
98351W        W69880   3.931  42.994   4.588
98352W        W69881  25.061  18.205   2.314
98353W        W69882  27.433  31.688   0.447
98354W        W69883   6.926  20.527   1.851
98355W        W69884  42.206  33.132   2.144
98356W        W69885  32.641   4.120  14.535
98357W        W69886  36.773  13.361   1.304
98358W        W69887   1.567  18.176  10.749
98359W        W69888  17.966  11.343  10.772
98360W        W69889  23.693  11.878  11.536
98361W        W69890  14.399  23.082   0.679
98362W        W69891  34.407  26.887  14.873
98363W        W69892   6.854   3.403   3.215
98364W        W69893  35.949  26.677   0.435
98365W        W69894  19.940   5.238   1.761
98366W        W69895  15.735  20.449  12.544
98367W        W69896  10.194  38.637   2.553
98368W        W69897  11.776   9.360   3.615
98369W        W69898   3.894  16.157  14.023
98370W        W69899  36.499   3.345  14.838
98371W        W69900  16.095  25.972  13.491
98372W        W69901  32.841  31.455   4.606
98373W        W69902  22.389  42.022  11.414
98374W        W69903  36.426  37.831  10.629
98375W        W69904  11.709  10.882   2.811
98376W        W69905  32.378  18.657   3.678
98377W        W69906  33.454  11.462   3.406
98378W        W69907  36.267  17.142  10.615
98379W        W69908   3.954   0.719   0.830
98380W        W69909  29.541  21.064   2.223
98381W        W69910   7.921  35.835   0.842
98382W        W69911  15.388   3.749   3.230
98383W        W69912  27.181  18.191  13.754
98384W        W69913  19.304   2.605   0.510
98385W        W69914  25.635   3.753   0.518
98386W        W69915   8.282  38.626  10.429
98387W        W69916  16.578  32.956   0.755
98388W        W69917  20.705  42.249   3.597
98389W        W69918  33.425  35.460   4.244
98390W        W69919  40.494  12.000   3.785
98391W        W69920  30.927  40.939  12.002
98392W        W69921  19.732   1.707  10.721
98393W        W69922  39.397   6.984  12.068
98394W        W69923   2.367  23.296   1.268
98395W        W69924  11.867   2.880   3.558
98396W        W69925  29.839  30.203   3.393
98397W        W69926  32.404  35.823  10.665
98398W        W69927  23.174  25.372  10.793
98399W        W69928  44.276  34.871   3.626
98400W        W69929  32.658  23.235   2.249
98401W        W69930  27.562  13.060  14.217
98402W        W69931  22.578  15.492  14.326
98403W        W69932  38.424  35.961  10.705
98404W        W69933  41.052  16.640  12.506
98405W        W69934  29.646  37.524   1.449
98406W        W69935  18.054   2.250   4.134
98407W        W69936  30.184  23.333  12.523
98408W        W69937   9.347   9.811   1.877
98409W        W69938  13.695   2.134  14.546
98410W        W69939   7.889  33.883  13.697
98411W        W69940   8.193  17.369   1.914
98412W        W69941  30.601  13.554   4.142
98413W        W69942  17.148   9.360  13.376
98414W        W69943   0.472  30.422  14.873
98415W        W69944   9.014  16.323   2.154
98416W        W69945  17.164  38.129  14.868
98417W        W69946  25.583  38.741  11.470
98418W        W69947  25.103   4.477   2.629
98419W        W69948  28.329  15.831  11.552
98420W        W69949  13.602  25.539   4.694
98421W        W69950  30.250  43.288  14.479
98422W        W69951  15.253  16.069   1.253
98423W        W69952   2.849  42.688  11.542
98424W        W69953  13.815  21.624   0.434
98425W        W69954   8.086  43.032  14.553
98426W        W69955  24.021  23.298   2.933
98427W        W69956  36.796  22.299  12.090
98428W        W69957  29.372  15.767   4.041
98429W        W69958  25.921  27.717  11.584
98430W        W69959  27.161   0.423  10.649
98431W        W69960  32.617   5.992   4.219
98432W        W69961  38.470   6.584  12.136
98433W        W69962  28.479  35.368  12.974
98434W        W69963   1.445   4.757  12.014
98435W        W69964  15.789  44.071  11.576
98436W        W69965  12.963  27.428  14.858
98437W        W69966  20.683  34.018   2.935
98438W        W69967   8.421  16.573  12.914
98439W        W69968  38.410  11.710  14.859
98440W        W69969   6.418  14.535  11.601
98441W        W69970  20.797  41.591   1.367
98442W        W69971  41.838  33.917  13.044
98443W        W69972  29.152  28.952   3.438
98444W        W69973  37.641  26.432  12.064
98445W        W69974   8.856  42.431   0.480
98446W        W69975  42.260  16.706   1.724
98447W        W69976  35.692  26.467   3.666
98448W        W69977  13.355  29.005  10.052
98449W        W69978  21.916  23.014  13.320
98450W        W69979  38.072  23.547  14.831
98451W        W69980  10.077   4.659  11.454
98452W        W69981  32.058  19.436  10.498
98453W        W69982  25.280  40.865   0.291
98454W        W69983  36.687  25.083   4.623
98455W        W69984  28.517  23.087  12.986
98456W        W69985  23.026  43.648  10.370
98457W        W69986   9.215  25.215   2.183
98458W        W69987  27.109  41.208  11.246
98459W        W69988  35.636  32.091   1.880
98460W        W69989  12.257  19.607  12.603
98461W        W69990  40.553   8.855   4.396
98462W        W69991   9.917   5.492  11.637
98463W        W69992   3.123  25.941   3.210
98464W        W69993  30.704  26.342   3.097
98465W        W69994  19.313  10.818  14.877
98466W        W69995  24.505  28.071   0.745
98467W        W69996  42.142  23.969  14.842
98468W        W69997  15.881  25.460   3.143
98469W        W69998  30.997  44.244   4.635
98470W        W69999  16.194   9.392   2.709
98471W        W70000   5.642  27.237  13.990
98472W        W70001   7.823  26.908  11.202
98473W        W70002  17.993  26.445  14.881
98474W        W70003  32.228  40.100   2.469
98475W        W70004  10.313   8.222   3.733
98476W        W70005  24.806  31.775  14.246
98477W        W70006   6.680  39.855   1.603
98478W        W70007   8.353  11.238   2.755
98479W        W70008  29.455  25.904  11.088
98480W        W70009  29.014  42.331   1.314
98481W        W70010  23.337  38.127   1.967
98482W        W70011  24.289  15.890  14.743
98483W        W70012   9.345  43.537  10.386
98484W        W70013  16.187  30.123   0.468
98485W        W70014   0.418   3.982   2.190
98486W        W70015  22.230   8.202   3.815
98487W        W70016  17.186  43.302  14.869
98488W        W70017   4.264  10.263   1.793
98489W        W70018   0.581  37.593   1.269
98490W        W70019  29.062   1.785   2.448
98491W        W70020  10.749  10.518   4.146
98492W        W70021  41.324  13.805  14.953
98493W        W70022  14.180   8.384   9.915
98494W        W70023  17.359  42.551  14.115
98495W        W70024  33.273  37.473   5.002
98496W        W70025  21.914  29.596   3.458
98497W        W70026   0.352  14.673  12.503
98498W        W70027   5.281  13.183   2.952
98499W        W70028  29.906  43.476  12.217
98500W        W70029  20.894  41.596   4.395
98501W        W70030  18.459  32.181   1.313
98502W        W70031  27.236  26.041  13.865
98503W        W70032  42.002  22.926  13.537
98504W        W70033  23.551  41.877  11.119
98505W        W70034  23.809  32.880  10.749
98506W        W70035  37.591  26.758   1.482
98507W        W70036  30.201  17.675  10.664
98508W        W70037  30.472  17.749  12.995
98509W        W70038  24.187  22.895  14.070
98510W        W70039   4.036   2.950  11.165
98511W        W70040  34.316  15.841  12.411
98512W        W70041  44.431  34.531  10.427
98513W        W70042  36.382  26.452  13.451
98514W        W70043  40.828   8.746  14.941
98515W        W70044  33.620  13.866  11.984
98516W        W70045   0.742  18.615  11.643
98517W        W70046  39.135  18.903   4.341
98518W        W70047  20.228   0.521   1.299
98519W        W70048  39.403  18.089  10.716
98520W        W70049   1.448  22.613  11.981
98521W        W70050  26.875  36.486   3.649
98522W        W70051  36.314   2.917   1.377
98523W        W70052   7.968   1.925  12.639
98524W        W70053   4.296   9.239  11.141
98525W        W70054  41.278   4.222   1.289
98526W        W70055  18.539  19.515  12.906
98527W        W70056  34.785  42.229   1.491
98528W        W70057  25.793  20.066   3.100
98529W        W70058  26.461  33.154   5.304
98530W        W70059  37.481  41.009   3.750
98531W        W70060  30.256  22.746  11.645
98532W        W70061  27.877  32.455  10.510
98533W        W70062  30.168  36.458  12.010
98534W        W70063  28.987  31.437   0.348
98535W        W70064  17.012  41.211  13.493
98536W        W70065  16.184  21.034  14.543
98537W        W70066  15.780  36.785   2.385
98538W        W70067  29.286  29.718   0.849
98539W        W70068  35.850  13.561   4.043
98540W        W70069   3.003   4.068   3.250
98541W        W70070  16.065   6.000   1.310
98542W        W70071  42.864  18.357  14.882
98543W        W70072  31.107  40.268  10.776
98544W        W70073  20.775   2.899   4.022
98545W        W70074  14.513   4.668   3.297
98546W        W70075   4.362  12.918  11.145
98547W        W70076  22.038  42.243   2.324
98548W        W70077  35.045   8.153   1.244
98549W        W70078   1.497  42.507   1.832
98550W        W70079  31.260   9.453   3.704
98551W        W70080  44.835  39.277   0.300
98552W        W70081   1.014  44.431  14.488
98553W        W70082  14.348  19.793  14.949
98554W        W70083  35.533  25.432   3.645
98555W        W70084  24.422  19.206  12.522
98556W        W70085   4.903  21.214  11.077
98557W        W70086   5.412   9.357   1.548
98558W        W70087  27.709   7.343   2.225
98559W        W70088  12.000  39.251  12.355
98560W        W70089   2.804  42.568   3.560
98561W        W70090  21.413   5.412  13.445
98562W        W70091   7.437  36.825  12.562
98563W        W70092  42.772  37.157   0.512
98564W        W70093  30.517  18.322  12.115
98565W        W70094  29.324  26.473   4.017
98566W        W70095  34.118  28.558  11.116
98567W        W70096  30.685  30.101  13.611
98568W        W70097  17.653  31.788   0.940
98569W        W70098  33.847  13.351   4.750
98570W        W70099  41.749  43.345  10.594
98571W        W70100  43.976  26.318   4.091
98572W        W70101   5.428  31.982   1.218
98573W        W70102  37.875  13.787  11.043
98574W        W70103  34.788  29.166  13.363
98575W        W70104  18.047  12.432   4.441
98576W        W70105  18.545  21.191  13.780
98577W        W70106  43.967  33.541  11.964
98578W        W70107  17.588  13.166   0.895
98579W        W70108  27.924  43.306   2.681
98580W        W70109  19.462  32.691   0.289
98581W        W70110   1.630  18.941   1.699
98582W        W70111  16.221  26.631  14.469
98583W        W70112  38.499   6.987   3.719
98584W        W70113   0.798   6.164  12.581
98585W        W70114   6.339  38.961   0.262
98586W        W70115   3.268   1.983  12.518
98587W        W70116  11.872   2.943   0.749
98588W        W70117  16.149  10.223  11.920
98589W        W70118  13.814  15.775   2.264
98590W        W70119   1.881  40.879   4.483
98591W        W70120  38.016  29.726  13.016
98592W        W70121  16.795  43.253  14.275
98593W        W70122  37.452  15.167  12.854
98594W        W70123  20.999  30.454   4.785
98595W        W70124  43.544   0.383   1.680
98596W        W70125   4.655  38.512   0.514
98597W        W70126  39.316  29.162   0.871
98598W        W70127  14.157   7.711  10.697
98599W        W70128  39.318  13.817  10.942
98600W        W70129  42.045  15.643  14.856
98601W        W70130   3.336  15.255  12.037
98602W        W70131  42.450  40.297   4.879
98603W        W70132  42.843  34.342  12.058
98604W        W70133  16.732  12.142  11.097
98605W        W70134   4.743  19.355   3.595
98606W        W70135  27.002  32.906   4.521
98607W        W70136  37.133   2.306   0.286
98608W        W70137  31.110  12.685  11.166
98609W        W70138  35.871  19.312  11.093
98610W        W70139  18.243  34.405  11.103
98611W        W70140  19.711  37.664  13.868
98612W        W70141  29.000  28.429   2.633
98613W        W70142  34.811   6.202  14.800
98614W        W70143  35.498   5.633  12.233
98615W        W70144  11.628  22.620   0.118
98616W        W70145  23.607  16.315   2.210
98617W        W70146  42.489  37.252   1.750
98618W        W70147  13.813  42.358  11.649
98619W        W70148   1.864   3.664  11.610
98620W        W70149   3.035   5.868   2.267
98621W        W70150  10.193  10.309  11.974
98622W        W70151  22.047  12.089  11.989
98623W        W70152  19.716  10.334   0.249
98624W        W70153  43.712   7.987  11.121
98625W        W70154  15.208  16.517   3.799
98626W        W70155  23.428  36.470  11.964
98627W        W70156  25.691  27.690   2.823
98628W        W70157  42.706   1.179   1.635
98629W        W70158  35.208  39.054   3.979
98630W        W70159  35.796   5.038  13.411
98631W        W70160  32.032   9.642  13.087
98632W        W70161  16.306  32.042   4.350
98633W        W70162  35.102  44.561  12.862
98634W        W70163  19.635  39.692  10.990
98635W        W70164  35.435   6.130  12.103
98636W        W70165  39.555   4.366   0.563
98637W        W70166  35.003  22.473   2.301
98638W        W70167   5.558   0.860  11.143
98639W        W70168  42.278  33.128   0.385
98640W        W70169  37.991  33.073   2.400
98641W        W70170  33.567  27.152   4.832
98642W        W70171  12.193  10.113   2.742
98643W        W70172  40.309  11.680   2.095
98644W        W70173  44.690  17.019  10.498
98645W        W70174  27.805  40.799  14.009
98646W        W70175  44.859  11.780   1.193
98647W        W70176   0.783  23.478  13.950
98648W        W70177   9.505  40.540   3.209
98649W        W70178  23.280  44.991  13.463
98650W        W70179  43.591  20.075   2.261
98651W        W70180  17.470   4.929   4.819
98652W        W70181  16.416  10.928  10.526
98653W        W70182  18.290  12.204   0.971
98654W        W70183  16.616  22.544   5.201
98655W        W70184  37.378  28.179   4.884
98656W        W70185   7.682  28.951   1.736
98657W        W70186  44.739   0.675   1.613
98658W        W70187  32.136  14.639  14.490
98659W        W70188  43.855  29.123  10.643
98660W        W70189  36.361  39.325  13.947
98661W        W70190  38.472  10.861  13.529
98662W        W70191   9.284  14.398   4.541
98663W        W70192   9.853  25.212  12.426
98664W        W70193  31.387  27.107  11.399
98665W        W70194   6.647  42.434   2.231
98666W        W70195  30.326  35.425  11.965
98667W        W70196   3.197  43.979  14.014
98668W        W70197   0.234   4.403   3.839
98669W        W70198  16.365  17.759  11.132
98670W        W70199  17.651  38.422   2.020
98671W        W70200  37.037  42.908  14.298
98672W        W70201   6.348  41.710   1.252
98673W        W70202  32.604  36.352  11.176
98674W        W70203  23.201  44.342  12.108
98675W        W70204  18.213  17.553   3.757
98676W        W70205   6.857  22.794   3.666
98677W        W70206  15.984  33.676  13.022
98678W        W70207  43.561   4.663   3.845
98679W        W70208   6.718   4.775   2.776
98680W        W70209  19.673  39.515   2.967
98681W        W70210  14.813  22.522   3.159
98682W        W70211  27.146  26.484   4.639
98683W        W70212  13.233  29.039  12.915
98684W        W70213  21.285  34.901  14.476
98685W        W70214  24.088   9.212   1.748
98686W        W70215  29.900  17.580   1.382
98687W        W70216  24.081  26.561   4.733
98688W        W70217  22.804  43.551  12.523
98689W        W70218   4.148  32.634  14.899
98690W        W70219  12.359  36.335   0.752
98691W        W70220  42.390  42.485   3.658
98692W        W70221  28.969  12.237  11.249
98693W        W70222  22.001  37.583  12.450
98694W        W70223  16.173  38.016  10.626
98695W        W70224   3.151   0.538   1.702
98696W        W70225  19.795  14.200   3.631
98697W        W70226  24.963  16.484  11.369
98698W        W70227  27.541  23.518  11.162
98699W        W70228  39.042  35.693   1.853
98700W        W70229   0.915  22.161  12.868
98701W        W70230  15.103  19.610  11.514
98702W        W70231   7.942  39.545  11.155
98703W        W70232  43.009  17.033  11.112
98704W        W70233  20.621  19.487  12.044
98705W        W70234   0.249   6.471  10.873
98706W        W70235   1.313  44.048   2.243
98707W        W70236  22.240  21.214   0.194
98708W        W70237  27.946  27.991  11.662
98709W        W70238  34.986  37.899  12.700
98710W        W70239   3.276  23.741   4.602
98711W        W70240  19.653   5.309  10.901
98712W        W70241   4.430  15.359  10.695
98713W        W70242  28.210  35.446  10.977
98714W        W70243   4.950  10.663   3.631
98715W        W70244  26.801  11.349  12.360
98716W        W70245  11.855  27.691   2.891
98717W        W70246  10.714  43.168  13.030
98718W        W70247  35.268  12.313  10.872
98719W        W70248  24.220  39.490  11.393
98720W        W70249  25.547  31.397   0.347
98721W        W70250  36.870   6.197   1.353
98722W        W70251  41.537  42.472   4.560
98723W        W70252  17.804   6.810  13.029
98724W        W70253  25.096   3.969   2.714
98725W        W70254  40.006  30.346  13.055
98726W        W70255   9.564  13.122   4.180
98727W        W70256  44.065   4.883   0.378
98728W        W70257  41.419  13.380   4.475
98729W        W70258  13.077  33.087   3.097
98730W        W70259  17.583  35.947  10.592
98731W        W70260  17.415  28.410  13.681
98732W        W70261  30.760  19.728   2.617
98733W        W70262   5.206  24.224   1.767
98734W        W70263  11.621  42.837   0.825
98735W        W70264  29.984  44.445  10.924
98736W        W70265  27.321  39.562   3.266
98737W        W70266  17.513  13.533  13.227
98738W        W70267  34.437  24.645   2.872
98739W        W70268  38.012   6.588   1.934
98740W        W70269  41.874  44.948  10.767
98741W        W70270  21.198   5.291   4.590
98742W        W70271  32.590  28.943   2.127
98743W        W70272  26.047  34.969   3.054
98744W        W70273  32.788  30.761   1.974
98745W        W70274  34.481  36.852   2.572
98746W        W70275   5.281  16.489  13.506
98747W        W70276  40.310  37.186   0.207
98748W        W70277  23.157  41.007  14.370
98749W        W70278   1.068  28.547   3.107
98750W        W70279  15.551   3.245  13.432
98751W        W70280   3.848  21.100  14.556
98752W        W70281   9.166   1.468  13.882
98753W        W70282  20.221  12.273  13.150
98754W        W70283  10.287  44.491   3.219
98755W        W70284  39.009   7.486  13.907
98756W        W70285  19.145   7.129   3.126
98757W        W70286  14.663   5.306   2.713
98758W        W70287  22.039  44.574   1.696
98759W        W70288   6.623  14.610   4.175
98760W        W70289  35.354   0.122   1.150
98761W        W70290  40.045  15.457  11.453
98762W        W70291  20.000  39.251   3.693
98763W        W70292   8.879  31.813  14.612
98764W        W70293  41.952  38.006   2.794
98765W        W70294  41.327  27.401  13.246
98766W        W70295  27.586  35.691  12.682
98767W        W70296  39.200  12.428   1.190
98768W        W70297   9.156   9.360   1.664
98769W        W70298  17.688   7.136   1.427
98770W        W70299  39.861  16.221   0.023
98771W        W70300  24.181  22.270   3.238
98772W        W70301   7.765  24.130   0.028
98773W        W70302  30.206  14.352  14.881
98774W        W70303   8.787  12.866   2.334
98775W        W70304  39.929  11.692  10.770
98776W        W70305  23.046  36.876  12.922
98777W        W70306  18.592  43.999   2.777
98778W        W70307  39.961   8.812   4.597
98779W        W70308  13.000  20.038   0.836
98780W        W70309  12.660  28.389   2.709
98781W        W70310  29.036  21.061  11.967
98782W        W70311   3.221  20.404   4.821
98783W        W70312   4.390  29.668   4.570
98784W        W70313  21.654  32.549   2.975
98785W        W70314  16.040  29.454  14.350
98786W        W70315  30.695  21.970  10.759
98787W        W70316  35.897  35.096   0.313
98788W        W70317  42.078  24.104  11.666
98789W        W70318   2.136  23.057   1.889
98790W        W70319  20.613  39.313  11.793
98791W        W70320  23.549   0.298  12.137
98792W        W70321  24.155   5.284  10.508
98793W        W70322  42.461   0.311   3.196
98794W        W70323  30.438  15.285   4.496
98795W        W70324  34.799  25.495   2.219
98796W        W70325  24.527   3.251  14.314
98797W        W70326  25.533  15.460   1.659
98798W        W70327  41.275  14.597   3.473
98799W        W70328  13.834   6.974  14.927
98800W        W70329  31.345  20.066   1.264
98801W        W70330  28.664  41.794   3.825
98802W        W70331  16.330  39.249  13.536
98803W        W70332  19.240   4.963  14.299
98804W        W70333  17.930   9.748   3.193
98805W        W70334   6.962   1.974  12.979
98806W        W70335  22.100   5.656  12.621
98807W        W70336   2.203   3.567   2.236
98808W        W70337  14.565  23.004   1.643
98809W        W70338  37.487  31.825   3.717
98810W        W70339  29.751  17.017   3.369
98811W        W70340  38.063  43.856   3.847
98812W        W70341  14.914  38.522   0.056
98813W        W70342   5.687  42.828   2.700
98814W        W70343  33.963  28.610  12.017
98815W        W70344  37.565  37.365  11.961
98816W        W70345  28.438   4.175  10.732
98817W        W70346  34.755  22.817  11.121
98818W        W70347  29.255  37.747  11.942
98819W        W70348  22.691   9.627   4.578
98820W        W70349  37.383  31.369   0.531
98821W        W70350   1.786  39.454   3.532
98822W        W70351  36.350   1.717   2.168
98823W        W70352  14.822  41.491   0.262
98824W        W70353  39.758  42.031  13.995
98825W        W70354  41.253  20.781  13.985
98826W        W70355  18.761  27.206  10.143
98827W        W70356  16.063  25.617   1.314
98828W        W70357  25.579  42.529   0.413
98829W        W70358  21.002  42.333  10.691
98830W        W70359  39.334  42.477   1.827
98831W        W70360  37.644  37.244   0.634
98832W        W70361  18.857  16.135  10.558
98833W        W70362  37.601  40.426  14.380
98834W        W70363  34.560  35.117   3.824
98835W        W70364  30.019   0.821  11.629
98836W        W70365  14.256  17.969   0.700
98837W        W70366  41.415  25.035   4.091
98838W        W70367  18.082  11.806   4.486
98839W        W70368  12.762  41.241   3.302
98840W        W70369  33.615   9.754   2.355
98841W        W70370   4.973  40.714  10.350
98842W        W70371  37.799  41.995  11.129
98843W        W70372  28.881   7.076  12.388
98844W        W70373  27.408   3.727   1.390
98845W        W70374  24.962  15.426   1.929
98846W        W70375   1.854  31.528   3.280
98847W        W70376   8.102  34.168   1.954
98848W        W70377  40.252  25.175  13.932
98849W        W70378  28.452  12.576   1.783
98850W        W70379   2.541   2.737   1.374
98851W        W70380  15.156  41.903  10.486
98852W        W70381  43.779   1.666   3.350
98853W        W70382  19.986  17.752   2.943
98854W        W70383  17.449   0.695  12.310
98855W        W70384  38.722  24.656  14.449
98856W        W70385   0.491  27.011   4.550
98857W        W70386  28.962  39.559   0.408
98858W        W70387   9.604   2.919   4.818
98859W        W70388   2.985  14.278   2.680
98860W        W70389  22.746  38.740  10.851
98861W        W70390  38.000  35.489   3.207
98862W        W70391   4.723  18.130   0.406
98863W        W70392  35.068   8.474  13.870
98864W        W70393   7.138   1.828   2.864
98865W        W70394  30.926   1.320   4.867
98866W        W70395  10.594  32.416   1.644
98867W        W70396  37.064  20.909   2.151
98868W        W70397  41.761  10.458  11.613
98869W        W70398  16.375  10.780   2.673
98870W        W70399   6.367  42.218   1.207
98871W        W70400  41.316  19.703   2.757
98872W        W70401  18.013   9.363   2.331
98873W        W70402  15.377  13.948  11.083
98874W        W70403  43.633  34.997  10.409
98875W        W70404   5.726  12.273  14.950
98876W        W70405  20.514  29.785  13.772
98877W        W70406  18.012  26.055   2.833
98878W        W70407  30.088  12.612   4.994
98879W        W70408  20.215   6.673   1.231
98880W        W70409  25.650   6.876   3.955
98881W        W70410  11.514  10.785  13.521
98882W        W70411  24.175  36.974  11.874
98883W        W70412  36.399  35.954  14.095
98884W        W70413  20.158  14.203  14.013
98885W        W70414  38.993   8.724  14.408
98886W        W70415  43.377  42.037  12.020
98887W        W70416  38.139  41.551   4.197
98888W        W70417  42.858  31.365   1.868
98889W        W70418  26.393   3.969  10.784
98890W        W70419  21.007  29.222  11.515
98891W        W70420  12.631  28.226   1.698
98892W        W70421   5.549  28.036  10.424
98893W        W70422  17.311   7.947  13.389
98894W        W70423  31.642  28.042   2.516
98895W        W70424  27.929  16.283   2.929
98896W        W70425   4.925  16.107  13.402
98897W        W70426  11.640  15.339   4.833
98898W        W70427  29.589   0.070  14.906
98899W        W70428  32.352  29.262   1.409
98900W        W70429  24.493  27.379   2.305
98901W        W70430  33.831   2.758  12.908
98902W        W70431  24.714  44.563   2.452
98903W        W70432  28.971  15.228   1.611
98904W        W70433  33.534  42.376  13.384
98905W        W70434  19.748  11.582  11.104
98906W        W70435   1.100  37.698  12.996
98907W        W70436  22.463  36.944  14.538
98908W        W70437  35.023   5.430   1.855
98909W        W70438  31.907  25.928  12.146
98910W        W70439   8.439   3.678  11.018
98911W        W70440  34.992   7.171  13.923
98912W        W70441  44.961  14.319  11.173
98913W        W70442  35.556  19.498  12.852
98914W        W70443  28.522  23.987  14.379
98915W        W70444   5.447  17.353   1.413
98916W        W70445   3.915  32.412   0.271
98917W        W70446   2.994  23.490  14.241
98918W        W70447  33.047  20.575   1.720
98919W        W70448   6.275  21.742  10.595
98920W        W70449   8.654  44.187   2.033
98921W        W70450  15.910  10.330   4.524
98922W        W70451  24.510  25.989   4.531
98923W        W70452  37.131   6.329  13.454
98924W        W70453   3.391  11.142   4.247
98925W        W70454   0.290  31.874  14.261
98926W        W70455  44.215  38.101   2.468
98927W        W70456  18.820   6.287   1.622
98928W        W70457  22.725  25.211   0.301
98929W        W70458  20.797  21.512   2.176
98930W        W70459  12.640  35.875   2.744
98931W        W70460  21.340  11.193  14.392
98932W        W70461  38.156  43.776  14.322
98933W        W70462  26.480  36.444  14.290
98934W        W70463   4.432  25.073  10.535
98935W        W70464  37.649  25.319   0.759
98936W        W70465  41.025  32.162   2.293
98937W        W70466  32.599  11.874   2.456
98938W        W70467  24.075   9.550  11.263
98939W        W70468  23.144  38.389   4.615
98940W        W70469  31.412  28.556   0.032
98941W        W70470  31.673   9.429  13.775
98942W        W70471  24.535  13.922   0.526
98943W        W70472  31.935  37.052   4.078
98944W        W70473  44.020  36.092  11.583
98945W        W70474   1.789  16.804  14.252
98946W        W70475   8.041  25.474  13.409
98947W        W70476  42.512   9.216  10.396
98948W        W70477   8.819  27.923  12.888
98949W        W70478  16.340  10.256   1.208
98950W        W70479  23.712  42.816  11.698
98951W        W70480   2.342   7.306   0.218
98952W        W70481  18.259   2.813   3.434
98953W        W70482  23.076  25.234   1.623
98954W        W70483  17.246   1.574   1.155
98955W        W70484   7.824  34.315   3.421
98956W        W70485  30.931  35.496  13.370
98957W        W70486  12.394   1.079  12.196
98958W        W70487   0.321   2.222  14.011
98959W        W70488  17.734  38.245   1.484
98960W        W70489   3.276  35.496  14.807
98961W        W70490  20.587   5.988   3.161
98962W        W70491  43.259  33.899   1.240
98963W        W70492  10.630  18.170  11.758
98964W        W70493  28.070  21.836  12.023
98965W        W70494   0.776  38.217   3.853
98966W        W70495  24.761  40.233  11.703
98967W        W70496   7.199  19.182  14.590
98968W        W70497   3.871  37.079   0.508
98969W        W70498  31.200  39.516  12.614
98970W        W70499   6.958  23.735   3.491
98971W        W70500  11.181  20.083  10.552
98972W        W70501  33.387  10.340  10.740
98973W        W70502   2.781  22.072   2.808
98974W        W70503  19.071  18.798   3.312
98975W        W70504  10.538  19.621   4.113
98976W        W70505  34.481  23.579   1.396
98977W        W70506  38.425  18.706  13.493
98978W        W70507  19.641  12.363   2.704
98979W        W70508  28.733  22.936  12.537
98980W        W70509  19.264  31.261  10.170
98981W        W70510  34.609  35.387   0.413
98982W        W70511   6.815  24.293  11.739
98983W        W70512   3.975  18.748  11.014
98984W        W70513  23.673   1.656  14.484
98985W        W70514  25.415  17.788   3.568
98986W        W70515  16.295  29.550  12.436
98987W        W70516  42.581   1.062  13.031
98988W        W70517   2.929  42.740   0.869
98989W        W70518  29.473  30.219   2.325
98990W        W70519   7.880  25.202   4.085
98991W        W70520  42.119  31.295   3.605
98992W        W70521   9.654  20.021  13.408
98993W        W70522  19.017  36.885   0.394
98994W        W70523  36.983  43.275  10.343
98995W        W70524   9.907  26.034   0.692
98996W        W70525  11.244   0.749  12.856
98997W        W70526  37.870  14.764  12.093
98998W        W70527   7.812  37.121   1.736
98999W        W70528   2.060  40.450  12.157
99000W        W70529  35.612  33.050   4.538
99001W        W70530   4.327   3.210  13.008
99002W        W70531   1.084  35.645  13.373
99003W        W70532  26.167   2.431   2.422
99004W        W70533  32.090  18.007  10.932
99005W        W70534  15.180  20.092   4.998
99006W        W70535  35.803  27.745   4.927
99007W        W70536  31.005   3.475   3.246
99008W        W70537  18.833  21.013  11.283
99009W        W70538  28.596  29.411  11.961
99010W        W70539   8.400  38.298  13.609
99011W        W70540  15.700  11.231  11.180
99012W        W70541   2.088   2.265   3.836
99013W        W70542  28.863  30.874  14.133
99014W        W70543  28.208  28.719  12.856
99015W        W70544  20.808  30.981  13.217
99016W        W70545  22.920  21.475   3.254
99017W        W70546   4.327  25.598   3.279
99018W        W70547  30.271  21.265   4.546
99019W        W70548  20.957  32.839  13.961
99020W        W70549  25.631  21.221  11.596
99021W        W70550  34.689  44.789  14.467
99022W        W70551  35.205  15.470   4.141
99023W        W70552  26.203  42.395  14.679
99024W        W70553  21.541  43.398  13.015
99025W        W70554  44.487  39.801   3.050
99026W        W70555  26.040   9.103  12.929
99027W        W70556  18.640  28.466  11.424
99028W        W70557  17.897  28.380  13.493
99029W        W70558  38.693   7.304   3.329
99030W        W70559  16.111  34.301   3.924
99031W        W70560  29.043  42.403   4.343
99032W        W70561  42.829  20.729   0.805
99033W        W70562   0.831   6.400  11.585
99034W        W70563   8.778   8.398  11.598
99035W        W70564   0.486  32.440  14.004
99036W        W70565  30.890  39.753   3.299
99037W        W70566  43.526  21.172  13.792
99038W        W70567   2.827  26.836  10.417
99039W        W70568   6.750   6.642   4.752
99040W        W70569   7.890   0.713   1.508
99041W        W70570  21.165  22.713  12.913
99042W        W70571  41.316  44.532  11.874
99043W        W70572  40.431  25.823   2.468
99044W        W70573  27.135   2.916   0.956
99045W        W70574  15.243  17.048   3.832
99046W        W70575  17.874  16.695  13.157
99047W        W70576   1.911   2.274   4.314
99048W        W70577  41.817  44.541   4.236
99049W        W70578   2.888   7.094  13.916
99050W        W70579  34.232  29.818   1.779
99051W        W70580  41.610  27.998   2.242
99052W        W70581  17.867  32.519  12.340
99053W        W70582  12.646  24.762   2.176
99054W        W70583  43.723  14.138   3.617
99055W        W70584  21.573   8.115  11.115
99056W        W70585   8.751   2.988  11.585
99057W        W70586  11.793  42.755   4.180
99058W        W70587  17.445   8.673  14.459
99059W        W70588  31.208  13.164  13.850
99060W        W70589  33.087   3.390  11.412
99061W        W70590   3.917  32.822   3.713
99062W        W70591  10.883  33.741   1.453
99063W        W70592  16.108  12.363   2.706
99064W        W70593  38.423  33.686   3.554
99065W        W70594  10.885  31.069   0.039
99066W        W70595  23.232  30.093  12.534
99067W        W70596  35.599  33.987  13.414
99068W        W70597   6.898  29.421   1.323
99069W        W70598  43.866   4.784  11.565
99070W        W70599   2.168  10.732  11.580
99071W        W70600  40.570  32.123   0.340
99072W        W70601  15.187  32.757   5.059
99073W        W70602   4.144  27.328   0.397
99074W        W70603   3.724  21.760  12.862
99075W        W70604  28.443  32.933  13.429
99076W        W70605   0.240  14.211  12.917
99077W        W70606  38.396   9.197  13.759
99078W        W70607  21.550  12.605  14.032
99079W        W70608  12.437  10.190   4.999
99080W        W70609   3.959  34.714  11.417
99081W        W70610  22.755  24.708  13.333
99082W        W70611  25.533  38.328   1.787
99083W        W70612  28.701  20.578  12.636
99084W        W70613  23.011  44.535   0.478
99085W        W70614  35.892  24.182  14.844
99086W        W70615  22.192  27.401   0.413
99087W        W70616  12.447  36.767  12.598
99088W        W70617  27.448  32.600   1.452
99089W        W70618   0.689  31.094  10.874
99090W        W70619  43.511  28.080  13.485
99091W        W70620  41.315  40.285  11.442
99092W        W70621  22.632  11.671  12.976
99093W        W70622  30.486  12.073  13.541
99094W        W70623  29.517  23.965  14.252
99095W        W70624  18.642  35.615   4.431
99096W        W70625  19.620  43.491  13.542
99097W        W70626   3.140  32.041   0.800
99098W        W70627  19.113  35.897   3.649
99099W        W70628  19.916  43.712  14.514
99100W        W70629  32.599  37.018  11.450
99101W        W70630   5.825  22.686  14.496
99102W        W70631  13.143  28.395   1.728
99103W        W70632  25.875  42.530   4.649
99104W        W70633   0.704  10.941  11.145
99105W        W70634  37.057  10.933  11.012
99106W        W70635   9.000  20.436  12.338
99107W        W70636   4.255  29.865  12.162
99108W        W70637  34.109  28.791  13.410
99109W        W70638   0.296  27.962  10.551
99110W        W70639  22.812   6.759   3.802
99111W        W70640  18.105   2.903   4.957
99112W        W70641  35.379  18.888  12.182
99113W        W70642  34.436  29.374  12.616
99114W        W70643  23.854  27.676  12.347
99115W        W70644  15.904   8.098  11.078
99116W        W70645  20.290  38.541  14.396
99117W        W70646  31.257  31.443  10.492
99118W        W70647  41.249  38.542   1.547
99119W        W70648   2.843  26.598   1.199
99120W        W70649  22.005  34.780  11.118
99121W        W70650  43.773  29.152   1.824
99122W        W70651  22.490  19.874  14.473
99123W        W70652  16.333  33.353  11.495
99124W        W70653  17.825  19.615   3.222
99125W        W70654  20.655  15.690   3.641
99126W        W70655  15.650  43.436  14.979
99127W        W70656   6.743  42.346  11.470
99128W        W70657  31.139  29.886   0.270
99129W        W70658  37.491  37.987   4.652
99130W        W70659  25.695  40.055  14.427
99131W        W70660  13.443  23.899  10.328
99132W        W70661  24.966  38.850  12.855
99133W        W70662   4.946  29.527  12.355
99134W        W70663   3.236  12.559  11.518
99135W        W70664  11.851  29.554   3.669
99136W        W70665  44.516  29.829  14.773
99137W        W70666  14.827   9.863   0.776
99138W        W70667  13.743  28.547  13.064
99139W        W70668   2.881   7.808  12.548
99140W        W70669   6.903  12.516   0.450
99141W        W70670  43.861   7.894   2.492
99142W        W70671  16.007  25.484   2.285
99143W        W70672  38.974  38.616   5.042
99144W        W70673  23.471  30.495   3.074
99145W        W70674  21.649   1.361   1.623
99146W        W70675  12.352  41.363   1.917
99147W        W70676   6.994   5.383   4.093
99148W        W70677  13.248  14.169   5.090
99149W        W70678   0.290  21.471   0.963
99150W        W70679  36.454  36.610   0.465
99151W        W70680  24.888  26.426  13.887
99152W        W70681  25.931  39.511   3.235
99153W        W70682   3.186  13.037  11.296
99154W        W70683  36.388  24.173   4.804
99155W        W70684  14.882  15.123   1.873
99156W        W70685  24.430  23.001  11.900
99157W        W70686  12.407  24.117   3.169
99158W        W70687  28.017   6.812  13.446
99159W        W70688   8.821  38.868   2.310
99160W        W70689   1.883  33.349   1.337
99161W        W70690  35.937   1.362  13.462
99162W        W70691   6.698   6.858   0.496
99163W        W70692  35.654  11.423   1.480
99164W        W70693  32.103   7.193  10.414
99165W        W70694  29.510  10.905   3.210
99166W        W70695  38.948  23.994  12.129
99167W        W70696  20.692   3.848  13.547
99168W        W70697  41.515  29.409   3.226
99169W        W70698   2.935  39.260  10.603
99170W        W70699  16.639   6.184  13.782
99171W        W70700   4.776  23.225  11.789
99172W        W70701   2.393  15.321   1.434
99173W        W70702  20.826   0.832  14.975
99174W        W70703  31.103   2.713  14.828
99175W        W70704  16.757  43.354   3.889
99176W        W70705  42.002   3.763  11.401
99177W        W70706  25.620  37.148  12.078
99178W        W70707  36.856  37.568  10.783
99179W        W70708  11.777  36.439   4.649
99180W        W70709   1.679  33.040  13.062
99181W        W70710  23.070  33.917   2.884
99182W        W70711  13.747  35.305   0.421
99183W        W70712  20.110   3.592  12.305
99184W        W70713  31.177   6.699  14.434
99185W        W70714  42.779   4.247  12.165
99186W        W70715  17.008  33.011   4.856
99187W        W70716  14.617   8.042  12.483
99188W        W70717  22.011  31.382  13.923
99189W        W70718  22.390   9.474   3.250
99190W        W70719  36.625  43.811  13.395
99191W        W70720  17.483  15.803  11.530
99192W        W70721  29.119  21.707  13.895
99193W        W70722  37.479  13.445   4.629
99194W        W70723  41.978   0.402   3.401
99195W        W70724  26.029  18.837  11.005
99196W        W70725  28.208  43.732   2.661
99197W        W70726  37.565   5.824  14.880
99198W        W70727   5.303  10.657  10.679
99199W        W70728  36.099  13.119  12.270
99200W        W70729  37.943   4.371  14.948
99201W        W70730  38.898  29.610  12.593
99202W        W70731  42.038  25.933   1.800
99203W        W70732  19.637  13.117   0.930
99204W        W70733  24.227  40.645   3.318
99205W        W70734  12.342  23.573   1.476
99206W        W70735  36.050  40.059  14.009
99207W        W70736   2.872  28.029  14.946
99208W        W70737  13.841   8.291  13.396
99209W        W70738  39.029   1.886   3.198
99210W        W70739   6.805   0.803  13.727
99211W        W70740  16.473   5.475  13.287
99212W        W70741  10.304   6.319   1.782
99213W        W70742   2.435  38.357  10.253
99214W        W70743  18.231  10.346   1.527
99215W        W70744   8.492  26.539   1.425
99216W        W70745  21.973  38.058  14.500
99217W        W70746   7.992  34.427   9.797
99218W        W70747  13.521   0.672   0.399
99219W        W70748  30.249  26.616  10.636
99220W        W70749   4.291  23.777  14.346
99221W        W70750  31.910   2.891  12.108
99222W        W70751   0.824   5.150  10.739
99223W        W70752  11.559  21.706   4.398
99224W        W70753  11.577   3.444  13.651
99225W        W70754   2.905   2.354  11.411
99226W        W70755  34.899  37.889  13.582
99227W        W70756   4.364  33.875   2.093
99228W        W70757   0.361   7.190   3.157
99229W        W70758  23.832  38.192   0.705
99230W        W70759  36.384   2.610   3.709
99231W        W70760  15.752  29.674  12.406
99232W        W70761  35.333  12.356   0.265
99233W        W70762  43.030  32.564   2.909
99234W        W70763  10.875   6.203   1.007
99235W        W70764   4.381  33.988  11.495
99236W        W70765  14.918  20.571   3.989
99237W        W70766  38.096  17.629   0.686
99238W        W70767  41.863  27.227  11.674
99239W        W70768  35.885  40.190   1.900
99240W        W70769  37.467  21.055   1.849
99241W        W70770  38.766  10.786   1.937
99242W        W70771  29.830  14.049  13.106
99243W        W70772  15.068  44.251   4.715
99244W        W70773  14.683  42.316   1.323
99245W        W70774  34.752  15.951   1.807
99246W        W70775  21.945  17.053  14.827
99247W        W70776  10.254   4.281   1.312
99248W        W70777  15.387  11.425   3.247
99249W        W70778  12.327  40.982   3.079
99250W        W70779  42.879  38.547   1.946
99251W        W70780  11.170  24.074   1.390
99252W        W70781  30.064  12.384   2.837
99253W        W70782  30.154  16.036  13.531
99254W        W70783   4.394  13.641   2.805
99255W        W70784  37.440  11.589   5.014
99256W        W70785  38.563  42.892  10.769
99257W        W70786  32.772  25.377  11.557
99258W        W70787  35.374  36.644   4.167
99259W        W70788   6.871  27.611  12.915
99260W        W70789  22.061  29.672  14.772
99261W        W70790  19.315  27.835  12.442
99262W        W70791   9.415  15.267   0.412
99263W        W70792  21.923   0.286   2.473
99264W        W70793  29.239  10.669  12.462
99265W        W70794  34.124  30.396   5.070
99266W        W70795  11.365  40.602  11.518
99267W        W70796  22.059   2.480   0.204
99268W        W70797  23.822  24.664  10.420
99269W        W70798  35.551   3.195  10.668
99270W        W70799  25.884  13.079   2.364
99271W        W70800  20.513   3.884   1.189
99272W        W70801  10.389  19.623   4.635
99273W        W70802  27.941   2.464   2.954
99274W        W70803  11.903  11.657  12.084
99275W        W70804  15.863  40.993  13.898
99276W        W70805  12.750   6.466   4.279
99277W        W70806  11.411  35.485   2.259
99278W        W70807   7.066  30.394  14.908
99279W        W70808  16.927  34.676  11.923
99280W        W70809  27.610  20.282   4.862
99281W        W70810  10.664  35.681   1.864
99282W        W70811   2.682  13.456  13.404
99283W        W70812   7.198   1.262   3.691
99284W        W70813  27.080  43.490  13.786
99285W        W70814  20.782  35.071   1.746
99286W        W70815  20.240  12.380   0.021
99287W        W70816  15.173  10.120   2.519
99288W        W70817  23.913  38.865   5.000
99289W        W70818   8.580   2.163  11.216
99290W        W70819   0.632  10.378   3.965
99291W        W70820  28.049  31.535  10.738
99292W        W70821   0.970  18.256   9.708
99293W        W70822   6.766  16.729   0.483
99294W        W70823  17.312  25.736  13.475
99295W        W70824  12.853  10.100   4.669
99296W        W70825  14.206  15.823   4.668
99297W        W70826   2.911  31.049   3.250
99298W        W70827  22.641  29.083   3.216
99299W        W70828  22.083   4.978   3.102
99300W        W70829  31.502  26.087  10.996
99301W        W70830  17.366  19.593   4.029
99302W        W70831  28.529  32.796   1.567
99303W        W70832  40.267  40.090  13.857
99304W        W70833  18.987  38.393  14.849
99305W        W70834  13.235  10.133   1.280
99306W        W70835  23.072   7.344   4.862
99307W        W70836  21.481  10.928  14.838
99308W        W70837  23.694  22.295   4.838
99309W        W70838  20.190  21.563  12.350
99310W        W70839  19.717  10.770  13.938
99311W        W70840  36.344  43.235   3.604
99312W        W70841  10.689  29.013  13.080
99313W        W70842  15.168   8.722   4.054
99314W        W70843  15.556   2.200   3.743
99315W        W70844  21.037  27.593   1.138
99316W        W70845  31.748  40.093  12.561
99317W        W70846  19.359  38.295  12.618
99318W        W70847  12.126  27.314  13.437
99319W        W70848  38.797  22.323   4.049
99320W        W70849   4.837  32.069   2.342
99321W        W70850  30.650  39.122   0.756
99322W        W70851  23.990   4.189  12.880
99323W        W70852  11.651  40.005   4.721
99324W        W70853  32.568   7.882   1.228
99325W        W70854  43.379  44.876  10.639
99326W        W70855   8.363  31.977  11.587
99327W        W70856  25.180   4.922   4.461
99328W        W70857  34.847  30.063   2.149
99329W        W70858  42.363   3.784  13.661
99330W        W70859  34.073   7.633  11.875
99331W        W70860  14.905  21.764   2.282
99332W        W70861  11.790  36.959   3.847
99333W        W70862  27.108  27.598  14.038
99334W        W70863   0.734  18.970   1.932
99335W        W70864   8.326   7.129  11.323
99336W        W70865  19.046  26.015   4.871
99337W        W70866  14.163  36.564  11.552
99338W        W70867   3.635  20.987  12.454
99339W        W70868  14.097  29.947  12.872
99340W        W70869  44.566   3.468   4.794
99341W        W70870  42.013  24.168   0.346
99342W        W70871  20.982   7.938   4.589
99343W        W70872  40.819  36.408   1.852
99344W        W70873  11.097  16.186   2.498
99345W        W70874  44.368  12.332  12.038
99346W        W70875  32.077   5.929  12.360
99347W        W70876  20.939   2.998  12.074
99348W        W70877  23.095  26.568   1.821
99349W        W70878  15.181  21.972  12.014
99350W        W70879  19.748  10.216  13.413
99351W        W70880  12.882   5.643   1.467
99352W        W70881  10.118  21.308  10.789
99353W        W70882  33.538  18.033  12.104
99354W        W70883   5.719  29.269   2.585
99355W        W70884  35.023  44.067  12.927
99356W        W70885  29.593  27.492   4.527
99357W        W70886  33.122  34.633   3.385
99358W        W70887  27.109  16.363   2.472
99359W        W70888  33.912  26.017  10.639
99360W        W70889  30.072  24.530  11.536
99361W        W70890   0.678  34.823   0.323
99362W        W70891   2.853  11.077  12.052
99363W        W70892  12.377  40.407  13.017
99364W        W70893  36.987  29.078   1.518
99365W        W70894   9.687   2.848  11.554
99366W        W70895  30.164   2.361   3.134
99367W        W70896   8.370   7.930   2.379
99368W        W70897  43.499  31.320   2.325
99369W        W70898  11.371   4.246   3.705
99370W        W70899   9.060  33.548   2.305
99371W        W70900  36.546  19.655  13.504
99372W        W70901  28.496  11.764   4.531
99373W        W70902  20.752  39.845  14.453
99374W        W70903  19.808  27.163   3.285
99375W        W70904  13.341  39.818   1.830
99376W        W70905  15.057  17.895   0.266
99377W        W70906  14.752  17.083   3.214
99378W        W70907  28.352  35.078   1.213
99379W        W70908  28.732  35.919   3.163
99380W        W70909  17.803   8.378   4.438
99381W        W70910  21.008   6.055  14.959
99382W        W70911  39.248   0.298  11.196
99383W        W70912  11.830   7.555   2.202
99384W        W70913   6.229   9.878   1.184
99385W        W70914  24.143   5.000   2.735
99386W        W70915  28.926  17.280   3.566
99387W        W70916  37.389  13.246  13.040
99388W        W70917  10.905  18.159   4.900
99389W        W70918  26.949  21.741   2.789
99390W        W70919   6.379  35.110   1.270
99391W        W70920  13.172   5.244   1.246
99392W        W70921  10.861   1.206  12.077
99393W        W70922  40.474  22.638  13.392
99394W        W70923  36.363  17.300  13.668
99395W        W70924  40.773  40.994  14.519
99396W        W70925  21.358   1.650  14.512
99397W        W70926  38.554   6.328  13.507
99398W        W70927  38.971  27.746  10.723
99399W        W70928  26.960  38.113   2.441
99400W        W70929  15.913  39.451  14.823
99401W        W70930  18.372   7.188   2.874
99402W        W70931  29.003  43.717   3.782
99403W        W70932  17.780  44.474  11.559
99404W        W70933  36.927   3.280  10.742
99405W        W70934  15.702  15.069   2.076
99406W        W70935  11.771  38.288  11.428
99407W        W70936   5.859  43.224  10.733
99408W        W70937  36.187  36.921   0.043
99409W        W70938  38.342  10.990   4.824
99410W        W70939  21.216  10.769  13.551
99411W        W70940  15.260  21.785   0.460
99412W        W70941   1.288  10.086  11.494
99413W        W70942   8.104   9.374  11.067
99414W        W70943  11.808  32.545   4.615
99415W        W70944  44.454   7.044   1.720
99416W        W70945   1.449   8.328   1.844
99417W        W70946  39.786  36.971  12.458
99418W        W70947  20.584  42.379  13.927
99419W        W70948   6.182   1.198  14.320
99420W        W70949  42.060  18.829  14.265
99421W        W70950   4.393  27.445  12.356
99422W        W70951  31.486  32.493   3.629
99423W        W70952   1.379  11.065   4.248
99424W        W70953  32.617  37.299  12.159
99425W        W70954  10.662  25.165   2.202
99426W        W70955   3.344  28.265  13.270
99427W        W70956   1.275  25.721   0.132
99428W        W70957   4.338  35.160  12.825
99429W        W70958  39.054  26.985   4.774
99430W        W70959  15.620   4.479   4.519
99431W        W70960   1.792  25.917   3.634
99432W        W70961  34.933  32.119  14.441
99433W        W70962  19.506  18.831   2.468
99434W        W70963  31.907  19.702  13.766
99435W        W70964  34.861  24.595  12.302
99436W        W70965   8.871  13.682   2.147
99437W        W70966  31.033  17.065  10.316
99438W        W70967  24.605   7.687  11.676
99439W        W70968  13.266  18.698   3.152
99440W        W70969  40.308  26.075  14.449
99441W        W70970  36.638  31.091   0.484
99442W        W70971  12.135  17.500   1.684
99443W        W70972  10.009  20.142   3.554
99444W        W70973  21.839  26.328   1.204
99445W        W70974  41.296   8.722   3.770
99446W        W70975   9.688  34.998   2.804
99447W        W70976  27.554   7.194  14.360
99448W        W70977  11.367  36.972   4.186
99449W        W70978   2.298  36.181  11.974
99450W        W70979  36.990  33.492   4.637
99451W        W70980   7.912   6.798  11.984
99452W        W70981  39.838  17.620  10.538
99453W        W70982  28.713  43.550   2.191
99454W        W70983  29.862  28.900  11.972
99455W        W70984  34.861  30.606  10.691
99456W        W70985  13.230  43.198  14.768
99457W        W70986  13.953  29.505  13.424
99458W        W70987  42.900  14.904   1.216
99459W        W70988  34.254  26.303   4.694
99460W        W70989  12.831  25.709  14.970
99461W        W70990  39.208  19.991   2.246
99462W        W70991  33.619  38.084  13.053
99463W        W70992   2.041  36.830   0.208
99464W        W70993   8.018   3.815   1.866
99465W        W70994  12.672  32.249   4.687
99466W        W70995   0.906  35.843   2.838
99467W        W70996  23.231  18.335  14.930
99468W        W70997  34.708  22.029  11.504
99469W        W70998  40.084  16.125  13.462
99470W        W70999  37.907  43.524   2.189
99471W        W71000   0.926  17.145  11.164
99472W        W71001  44.360   7.748  12.989
99473W        W71002   4.413   1.243   0.994
99474W        W71003  32.975   0.494  12.860
99475W        W71004  24.224   4.690   3.635
99476W        W71005  34.048  41.647   4.075
99477W        W71006  18.334  43.595  13.898
99478W        W71007   7.285  19.700  14.722
99479W        W71008  26.106  44.791  11.167
99480W        W71009  28.983   2.195  11.924
99481W        W71010  16.316  20.699   3.983
99482W        W71011  41.334   3.461   2.928
99483W        W71012   2.694  11.859   0.357
99484W        W71013  14.255  34.158  13.575
99485W        W71014  26.773  21.874   4.540
99486W        W71015  20.614  32.041  11.763
99487W        W71016  19.063   7.091  12.014
99488W        W71017  40.963  36.622   3.110
99489W        W71018  12.649   1.051   3.196
99490W        W71019  22.564  23.344  12.331
99491W        W71020  28.497   6.467   0.614
99492W        W71021  31.427   1.867  13.927
99493W        W71022  17.199   1.762   0.028
99494W        W71023  32.006  36.171  14.470
99495W        W71024  15.594  42.870   4.426
99496W        W71025  31.127  10.292   2.717
99497W        W71026  15.634  34.501   2.262
99498W        W71027  27.741  37.687   1.780
99499W        W71028  28.431  30.373   2.708
99500W        W71029   3.221  36.870  13.850
99501W        W71030  21.326  25.879   1.358
99502W        W71031  10.840  22.894   4.385
99503W        W71032  11.639  15.605  14.882
99504W        W71033  12.724   7.508  10.420
99505W        W71034   4.377  17.514  11.999
99506W        W71035   1.708  23.478  13.699
99507W        W71036  13.487  15.272   4.103
99508W        W71037  16.753  29.105  13.296
99509W        W71038   0.742  25.268  12.085
99510W        W71039  11.935   9.634   2.316
99511W        W71040  23.478  24.718   0.549
99512W        W71041  13.738  37.347  12.683
99513W        W71042   1.465  43.786   0.343
99514W        W71043   9.214  28.091   1.403
99515W        W71044  27.124  27.467  14.550
99516W        W71045  35.919  39.783  11.208
99517W        W71046  33.478  41.852   0.008
99518W        W71047  26.100   8.612   3.668
99519W        W71048   7.315  11.247  13.560
99520W        W71049  26.993  32.809   3.535
99521W        W71050  12.885  17.313   1.251
99522W        W71051  30.642  21.884  14.074
99523W        W71052  30.175  18.104  11.306
99524W        W71053  27.914  20.581  14.844
99525W        W71054  33.454  15.758  14.731
99526W        W71055   6.340   5.198  11.509
99527W        W71056  16.158  28.921   4.743
99528W        W71057  35.464  15.743   4.498
99529W        W71058  34.314  39.844   4.665
99530W        W71059   1.821  43.704  12.502
99531W        W71060  19.880  35.839  11.616
99532W        W71061  11.236  33.027  12.585
99533W        W71062  21.795  36.945   0.911
99534W        W71063   2.882  14.261   0.726
99535W        W71064  18.744  23.080  13.416
99536W        W71065   1.657  11.223   1.633
99537W        W71066  13.276  20.196   0.408
99538W        W71067  42.479  29.570   2.149
99539W        W71068  33.118  29.952  12.032
99540W        W71069  34.763  22.204   0.779
99541W        W71070  41.338  26.707   2.906
99542W        W71071   5.975   1.720   5.108
99543W        W71072  10.666  42.338   4.200
99544W        W71073  12.523  10.789  12.618
99545W        W71074  40.671   7.925  14.260
99546W        W71075   3.719  26.171  14.331
99547W        W71076  19.295  34.524  11.276
99548W        W71077  31.963  40.451   3.306
99549W        W71078   9.160  11.077  12.944
99550W        W71079  28.090   7.709   0.035
99551W        W71080  24.508  24.510   3.467
99552W        W71081  36.361  38.985   1.339
99553W        W71082  27.850  30.201  12.051
99554W        W71083  27.685  29.479   4.348
99555W        W71084  33.364  10.295  11.591
99556W        W71085  43.037  10.395  12.090
99557W        W71086   2.952  17.936   3.973
99558W        W71087  19.971  15.106  13.633
99559W        W71088  16.091  36.388  14.517
99560W        W71089  30.543   8.075   2.269
99561W        W71090  27.639  14.685   2.955
99562W        W71091  31.042   3.870  14.436
99563W        W71092  30.955  16.721  10.712
99564W        W71093  44.534  13.337   3.095
99565W        W71094  33.042  37.979  12.131
99566W        W71095  27.388  35.330   3.263
99567W        W71096  11.330  18.664  12.027
99568W        W71097  15.212   1.296   0.691
99569W        W71098  16.114  38.257   1.674
99570W        W71099   4.848  26.178   2.398
99571W        W71100  14.673   3.381  12.451
99572W        W71101  13.705  18.520   3.311
99573W        W71102  17.378  41.523   0.755
99574W        W71103   6.904   6.397   1.325
99575W        W71104  13.413   2.441  12.912
99576W        W71105  13.851  38.526  11.957
99577W        W71106  27.007   5.635  13.342
99578W        W71107  12.334  13.104  14.066
99579W        W71108  37.515   4.191   1.224
99580W        W71109  21.631  20.938   0.425
99581W        W71110   6.660  22.579  10.565
99582W        W71111   0.563  29.534  11.064
99583W        W71112  44.725  17.808   4.377
99584W        W71113  21.105  31.406  11.176
99585W        W71114  42.245  35.918   3.136
99586W        W71115  29.876   5.342  12.934
99587W        W71116  25.108   6.956  12.075
99588W        W71117   5.165  44.766  11.881
99589W        W71118   9.329  44.204   0.289
99590W        W71119  18.803   5.802  14.769
99591W        W71120  12.107  36.967   0.173
99592W        W71121  24.216  44.864  14.905
99593W        W71122  30.345  28.027  13.761
99594W        W71123  21.723   7.355  12.216
99595W        W71124  39.589  39.646  12.486
99596W        W71125  41.096  17.460   2.159
99597W        W71126   0.685  28.293   1.211
99598W        W71127  40.802  11.383  11.205
99599W        W71128  40.559   8.978  11.082
99600W        W71129  35.436  10.816   2.579
99601W        W71130  15.781  13.064  10.197
99602W        W71131  15.200  23.920   1.824
99603W        W71132   0.958   0.455  14.404
99604W        W71133  42.055  21.327   3.184
99605W        W71134   0.787   7.138  14.130
99606W        W71135  40.449  28.324   4.652
99607W        W71136  15.179  13.633   4.638
99608W        W71137  30.227  27.528  12.089
99609W        W71138  27.286  29.064  11.099
99610W        W71139  32.001  18.528   1.405
99611W        W71140   5.294   4.715   0.871
99612W        W71141   5.442  29.704  11.136
99613W        W71142  11.355  38.773   1.662
99614W        W71143  22.277  15.230  12.101
99615W        W71144   8.650  31.399   2.771
99616W        W71145  15.552   0.067  13.790
99617W        W71146  16.088  25.750  12.944
99618W        W71147   3.076  24.760   1.828
99619W        W71148   4.668  40.964  11.142
99620W        W71149  43.878   9.253   0.372
99621W        W71150  18.197  42.354  10.630
99622W        W71151  20.223  25.275  11.988
99623W        W71152  25.398  10.884   1.845
99624W        W71153   3.737   8.404  10.876
99625W        W71154   1.914   4.720  13.401
99626W        W71155  25.735  20.201   4.585
99627W        W71156  22.149  26.795  13.177
99628W        W71157  35.891  17.407  14.213
99629W        W71158  21.080  24.090  12.078
99630W        W71159   2.885  40.454  12.717
99631W        W71160   4.449  37.378  14.914
99632W        W71161  22.668  37.762   4.283
99633W        W71162  15.231  33.891   2.165
99634W        W71163  27.496  27.221  13.233
99635W        W71164  35.274  35.873  12.269
99636W        W71165  34.906  12.413  11.611
99637W        W71166  34.262  22.685  11.046
99638W        W71167  11.897  38.434  10.919
99639W        W71168  17.747  34.713   2.923
99640W        W71169  12.486  37.335   3.266
99641W        W71170   0.735  27.895  10.228
99642W        W71171  21.507  41.735  12.580
99643W        W71172  25.014   7.228   3.904
99644W        W71173  31.708   0.829   1.684
99645W        W71174  23.216   6.167   3.044
99646W        W71175  27.156  22.477  13.907
99647W        W71176   7.256  43.681   3.378
99648W        W71177  16.714  22.171  10.815
99649W        W71178  31.558  44.868   3.589
99650W        W71179  19.456  23.955   3.630
99651W        W71180  15.858  18.619   4.088
99652W        W71181  27.536  36.807   3.162
99653W        W71182  44.084  14.691   0.286
99654W        W71183   0.786  41.726  13.893
99655W        W71184   0.120  43.955  12.277
99656W        W71185  10.575  44.014  10.207
99657W        W71186   1.742  28.539  12.000
99658W        W71187  17.648   3.757   0.804
99659W        W71188   5.748   7.867   2.771
99660W        W71189  11.317   1.657   2.209
99661W        W71190  22.593  37.305  13.572
99662W        W71191   1.031  26.125  11.650
99663W        W71192   7.305  22.909   0.293
99664W        W71193  28.964  23.974   2.813
99665W        W71194  22.012   6.713  12.578
99666W        W71195  13.197  37.821  14.507
99667W        W71196  20.523  29.914   0.422
99668W        W71197  43.403  29.566   4.096
99669W        W71198   7.958  23.231  10.169
99670W        W71199   0.868   6.905  14.727
99671W        W71200  21.764   1.819   1.838
99672W        W71201  33.644  43.911   0.871
99673W        W71202  44.753  28.200  10.970
99674W        W71203  15.057  37.438  11.045
99675W        W71204   4.324  24.299  14.461
99676W        W71205  19.498   6.899   1.417
99677W        W71206   5.855  42.501  11.393
99678W        W71207  27.695   5.820  12.754
99679W        W71208  20.131   5.609  11.621
99680W        W71209  39.056   5.809   1.428
99681W        W71210  33.990  38.031   1.790
99682W        W71211  12.915  33.103   1.239
99683W        W71212  14.300  19.217  11.535
99684W        W71213  16.610  16.661   0.298
99685W        W71214  32.335  27.531   3.163
99686W        W71215  23.305  33.957   2.415
99687W        W71216  27.158  35.460  10.338
99688W        W71217  11.681  37.847   0.470
99689W        W71218   4.697  23.052   1.902
99690W        W71219  32.457  30.508  14.354
99691W        W71220  24.632  41.021  14.287
99692W        W71221   8.095  24.079   0.433
99693W        W71222  31.363  15.508  12.482
99694W        W71223   0.560  40.352  13.307
99695W        W71224  19.151  32.552   4.463
99696W        W71225   4.392  34.582   2.889
99697W        W71226  20.107   6.272   3.132
99698W        W71227  13.278  44.512  10.514
99699W        W71228   7.886  35.104   2.309
99700W        W71229  19.172  11.708   3.555
99701W        W71230  34.096  32.975   4.571
99702W        W71231   5.791  12.631  14.205
99703W        W71232  28.929  32.039   3.502
99704W        W71233  23.575  30.146   4.264
99705W        W71234  30.469   1.492   1.970
99706W        W71235   6.199  42.597   3.312
99707W        W71236  12.274  30.416   3.254
99708W        W71237  12.418  44.679   0.005
99709W        W71238  41.544  25.014  13.061
99710W        W71239  39.637  43.617  13.600
99711W        W71240  29.509  12.912  12.118
99712W        W71241   7.549  18.115   3.157
99713W        W71242  11.092  34.540   2.410
99714W        W71243  23.555  26.721  13.923
99715W        W71244  40.439  30.166   1.422
99716W        W71245   4.334  28.750  13.583
99717W        W71246   4.877  36.121  10.702
99718W        W71247  43.522   5.896  14.371
99719W        W71248  17.822  31.641   3.297
99720W        W71249  39.495  39.540  13.390
99721W        W71250  18.822  28.916   4.506
99722W        W71251  31.031  44.043  13.263
99723W        W71252  12.341  40.861  10.544
99724W        W71253   5.677  33.600   1.684
99725W        W71254  38.439  29.180  14.061
99726W        W71255  11.436  19.406  13.976
99727W        W71256  11.594  41.525   1.733
99728W        W71257  23.287  13.601  14.815
99729W        W71258   0.958  26.615  13.848
99730W        W71259   1.058  29.261   1.398
99731W        W71260  19.932   4.316   3.162
99732W        W71261  15.605  33.925   2.838
99733W        W71262   1.976  37.972   1.159
99734W        W71263  39.579  25.571   3.527
99735W        W71264   7.768  29.931  11.994
99736W        W71265   8.805  14.642  14.845
99737W        W71266  14.554   6.467  13.512
99738W        W71267  20.698  11.337   4.341
99739W        W71268  39.015  26.505  10.253
99740W        W71269  36.363   0.760   2.730
99741W        W71270  43.044  42.292  12.484
99742W        W71271  31.771  15.832  10.234
99743W        W71272  22.986  18.544   3.626
99744W        W71273  35.371  33.965   3.361
99745W        W71274  35.338  11.052  14.388
99746W        W71275  32.724  11.659   0.467
99747W        W71276  40.970  20.254  13.000
99748W        W71277  13.133   2.538  12.326
99749W        W71278  13.894  18.234  12.147
99750W        W71279  14.036  19.278  11.968
99751W        W71280  36.347  23.110   3.195
99752W        W71281   5.484  34.908   0.451
99753W        W71282  43.809  30.025  14.232
99754W        W71283  18.143  15.504  10.887
99755W        W71284  10.389   6.554   1.282
99756W        W71285  42.350  38.025  12.974
99757W        W71286   3.225  12.249  13.886
99758W        W71287  20.013   7.302   0.320
99759W        W71288  27.007   9.863   2.277
99760W        W71289  11.435  14.669  13.667
99761W        W71290  32.815  36.899  13.838
99762W        W71291  12.096  30.146   3.661
99763W        W71292  21.221  15.724   1.285
99764W        W71293   4.922  36.978   2.195
99765W        W71294  39.814  18.662   0.202
99766W        W71295   5.010  41.568  12.886
99767W        W71296  20.834  22.257  14.519
99768W        W71297  31.199  17.026  12.786
99769W        W71298  43.463  27.019   3.697
99770W        W71299  28.292   5.667   0.873
99771W        W71300  30.633   1.727   0.976
99772W        W71301   6.051  42.984   3.019
99773W        W71302  19.042  13.907   4.784
99774W        W71303  10.742  32.809   4.728
99775W        W71304  17.531  11.702  10.727
99776W        W71305  43.151  17.082   4.570
99777W        W71306  25.272  35.233  13.054
99778W        W71307  21.658   2.635  14.491
99779W        W71308   2.822  25.053  11.261
99780W        W71309  25.102  28.627   4.524
99781W        W71310  28.174  19.331   4.698
99782W        W71311  35.993  14.723  13.341
99783W        W71312  24.583  38.805  12.530
99784W        W71313  41.844  18.338   2.144
99785W        W71314   8.271   9.812   2.209
99786W        W71315  44.992   6.125   4.239
99787W        W71316  33.038  24.998   1.712
99788W        W71317  23.245  19.285   2.299
99789W        W71318  23.591  16.408   1.149
99790W        W71319  10.499  27.015  14.663
99791W        W71320  24.321  15.724  11.633
99792W        W71321  44.230  19.224  11.931
99793W        W71322  27.201  38.549   2.689
99794W        W71323   0.238  28.595  14.086
99795W        W71324   9.151  41.266  11.315
99796W        W71325  38.359  24.416  14.163
99797W        W71326  18.095  33.317  10.776
99798W        W71327  13.182   7.165  13.955
99799W        W71328  18.160  22.472  13.030
99800W        W71329  34.633  16.659   2.675
99801W        W71330  13.944  16.593  11.509
99802W        W71331  40.009   5.793   1.116
99803W        W71332  38.343  20.233   1.972
99804W        W71333  33.606  30.095  13.344
99805W        W71334  44.282  44.396  12.905
99806W        W71335  33.830  11.274  10.745
99807W        W71336  34.847   7.924  12.132
99808W        W71337  26.526  36.058   1.730
99809W        W71338  44.707  28.482   2.858
99810W        W71339  21.912  23.282   2.147
99811W        W71340   2.608  15.083  11.387
99812W        W71341  33.659  44.497  11.483
99813W        W71342  12.254   9.178   1.232
99814W        W71343  34.596  11.893  12.445
99815W        W71344   5.708  37.120   0.466
99816W        W71345  15.926  39.201  11.673
99817W        W71346  29.465  41.187   2.808
99818W        W71347  36.081  20.148   1.251
99819W        W71348  25.922  33.194   0.249
99820W        W71349  26.503  42.959  13.957
99821W        W71350  43.044  29.838  14.751
99822W        W71351   2.722  29.556   1.417
99823W        W71352  32.048  35.080  11.998
99824W        W71353  15.755   2.648  14.092
99825W        W71354  29.613  28.020   0.272
99826W        W71355  14.638   5.913  10.554
99827W        W71356   0.364  30.903   0.996
99828W        W71357  40.791  22.961  13.083
99829W        W71358  39.046  13.678   4.578
99830W        W71359  38.656  13.154  11.245
99831W        W71360  40.327  11.611  12.901
99832W        W71361   4.002  21.504  13.704
99833W        W71362  36.560  29.372   4.036
99834W        W71363  31.873   6.873  11.612
99835W        W71364  19.366  20.472  11.892
99836W        W71365  29.457  23.405   0.879
99837W        W71366  17.142   9.224   4.211
99838W        W71367  44.169  27.290   4.201
99839W        W71368  22.638  41.650  13.387
99840W        W71369  24.002  30.587  10.995
99841W        W71370   3.240  40.806   4.558
99842W        W71371  18.580  31.480   5.003
99843W        W71372   7.466  23.502  12.921
99844W        W71373   9.755  31.741   0.308
99845W        W71374  25.258  40.957  10.996
99846W        W71375  24.495  29.133  10.955
99847W        W71376   7.855   6.324  10.017
99848W        W71377   1.022  40.218  11.130
99849W        W71378  43.881  27.252   1.805
99850W        W71379   6.197   7.703   2.937
99851W        W71380   3.157   1.931  12.996
99852W        W71381   6.643  41.429  11.720
99853W        W71382  34.070  22.785  11.562
99854W        W71383   2.431   2.777   2.237
99855W        W71384   7.134  42.886   3.805
99856W        W71385  40.925  38.824   1.848
99857W        W71386   7.654  25.416  13.008
99858W        W71387  26.516  35.099   4.334
99859W        W71388   2.277   5.657   1.900
99860W        W71389  29.402  34.323   1.886
99861W        W71390  10.393  16.785  11.363
99862W        W71391  36.918   3.025  12.775
99863W        W71392  38.191  38.068  13.045
99864W        W71393   3.481  29.187  11.216
99865W        W71394   7.370  34.429  14.261
99866W        W71395  19.756  42.797   0.336
99867W        W71396   2.143  32.268  10.365
99868W        W71397  16.648   0.924  11.234
99869W        W71398  34.640   8.255   1.626
99870W        W71399  29.567  44.981   3.434
99871W        W71400  29.376  18.157   0.284
99872W        W71401  14.373  29.143  12.105
99873W        W71402  35.849  19.591  10.638
99874W        W71403   3.551   5.719   2.183
99875W        W71404  16.040  11.751   5.372
99876W        W71405  27.116  14.717   4.291
99877W        W71406  12.636  10.912   1.158
99878W        W71407  23.141  13.115   4.326
99879W        W71408  15.709  22.736   3.065
99880W        W71409   0.451  28.629   2.262
99881W        W71410  25.757  10.882   4.436
99882W        W71411  38.764  27.173   3.673
99883W        W71412   6.461  34.620   0.520
99884W        W71413  13.138  12.489  13.884
99885W        W71414  29.066  17.583   4.881
99886W        W71415  36.024  34.846  14.318
99887W        W71416  41.913  24.636   1.246
99888W        W71417  10.750  20.053   3.193
99889W        W71418  16.128  25.386  11.954
99890W        W71419   0.327  43.189   1.813
99891W        W71420   3.660  35.465   4.136
99892W        W71421  24.464  36.541  13.546
99893W        W71422  15.121  27.451  12.245
99894W        W71423  24.142  40.878   4.581
99895W        W71424  20.796  12.293  11.548
99896W        W71425  36.931  38.542   0.759
99897W        W71426  44.346  17.417  11.024
99898W        W71427  31.527  34.489   0.865
99899W        W71428  32.485  44.796   3.243
99900W        W71429  28.615  27.562  12.426
99901W        W71430  22.266  36.078  12.471
99902W        W71431  43.262  42.423   3.229
99903W        W71432  43.990   9.367   1.912
99904W        W71433  21.518  29.454   4.272
99905W        W71434  20.530   6.917  13.333
99906W        W71435  31.532  27.186   4.589
99907W        W71436  35.322  11.118  13.017
99908W        W71437  24.645   6.926  12.348
99909W        W71438  17.543  10.437   2.183
99910W        W71439  25.169   0.030   0.883
99911W        W71440  29.587  10.298   1.243
99912W        W71441   5.271   3.374   4.983
99913W        W71442  23.050  36.434  11.124
99914W        W71443   8.858   0.547  10.659
99915W        W71444  37.624   2.933  11.062
99916W        W71445   7.250  33.903   2.186
99917W        W71446   0.369  20.951  10.677
99918W        W71447  36.703   9.119   1.873
99919W        W71448  16.633  44.924  13.407
99920W        W71449  36.316   6.091   5.023
99921W        W71450  31.618  40.488   0.455
99922W        W71451  15.869  29.224  10.713
99923W        W71452  15.754  40.201   5.053
99924W        W71453  41.332  23.213  12.047
99925W        W71454  35.440   3.235  11.677
99926W        W71455  11.091  23.133   1.351
99927W        W71456   2.168  15.616   5.135
99928W        W71457  42.570   7.901   4.614
99929W        W71458  25.357  25.330   1.498
99930W        W71459   7.937  38.501  11.635
99931W        W71460   9.796  26.954   0.900
99932W        W71461  24.449   6.156   4.345
99933W        W71462  43.774  27.546  14.328
99934W        W71463  14.853   9.158  14.964
99935W        W71464  27.920  41.686   1.166
99936W        W71465  25.659  25.017   2.418
99937W        W71466  16.359  31.113   3.747
99938W        W71467   6.364  25.492  11.571
99939W        W71468   4.492   9.382   1.355
99940W        W71469  42.660   4.447  12.971
99941W        W71470  17.665  32.151  14.156
99942W        W71471   2.697  16.819  14.281
99943W        W71472   8.388  26.437  14.555
99944W        W71473  31.437  43.374   3.794
99945W        W71474  37.266  23.262  11.141
99946W        W71475  39.283  17.025  11.664
99947W        W71476   3.839  20.699   0.814
99948W        W71477  14.239  42.002   3.064
99949W        W71478  28.154  42.856  11.974
99950W        W71479  30.007  12.389  14.773
99951W        W71480  12.851  19.020   4.866
99952W        W71481  26.419  27.523   1.802
99953W        W71482  12.266  16.893   3.720
99954W        W71483   0.440  33.439   2.557
99955W        W71484  11.122  25.082   2.953
99956W        W71485  17.107   7.749  12.959
99957W        W71486  20.493  35.258   2.246
99958W        W71487  21.433  26.618  10.470
99959W        W71488  25.621   9.852  12.342
99960W        W71489  31.610  38.436   1.468
99961W        W71490  40.731  21.094   3.647
99962W        W71491   6.569  40.229  14.858
99963W        W71492  28.231  43.566  12.534
99964W        W71493  44.716   7.841  14.814
99965W        W71494  29.385  43.911   0.861
99966W        W71495   3.239  34.405  13.712
99967W        W71496  39.480  21.727  14.823
99968W        W71497  20.525  43.741  14.465
99969W        W71498   8.313  30.988   1.037
99970W        W71499  30.293   8.852  10.676
99971W        W71500  13.657  10.103   2.700
99972W        W71501  38.948  15.920  14.811
99973W        W71502  12.385  21.943   3.221
99974W        W71503   7.394  29.943   3.197
99975W        W71504  30.580  25.573   2.059
99976W        W71505  44.308  29.348  10.720
99977W        W71506  24.055  35.134  12.087
99978W        W71507   9.879  37.484  12.081
99979W        W71508  21.251   0.183   1.764
99980W        W71509   9.016  10.235  14.137
99981W        W71510   2.519  31.387  13.491
99982W        W71511  31.427  43.794  11.712
99983W        W71512   1.029  26.012   2.412
99984W        W71513  13.239  30.736   5.235
99985W        W71514  38.705  44.630  10.274
99986W        W71515   0.831  26.139   4.214
99987W        W71516  39.361  26.748   2.215
99988W        W71517  15.278   0.502  13.538
99989W        W71518   4.176   3.856  14.896
99990W        W71519  43.288   7.166   2.231
99991W        W71520  36.058  12.113  13.564
99992W        W71521  23.588  13.164  14.794
99993W        W71522   6.427  26.531  11.566
99994W        W71523  38.419  34.950  13.241
99995W        W71524  30.612  19.744  14.784
99996W        W71525  29.928  28.041   2.855
99997W        W71526  17.009  23.740  13.752
99998W        W71527  26.558  26.944  14.366
99999W        W71528  41.557   1.267  11.134
    0W        W71529  22.612  38.533  14.034
    1W        W71530  38.419  32.198   2.641
    2W        W71531   8.311  25.285  10.491
    3W        W71532  14.232   8.306   2.441
    4W        W71533  20.118  21.262   2.770
    5W        W71534  10.437  37.930  14.992
    6W        W71535  21.745  38.709   4.770
    7W        W71536   0.957  33.612  12.380
    8W        W71537  35.046  20.107   1.238
    9W        W71538  35.590  19.916  13.479
   10W        W71539  13.370   1.877   2.316
   11W        W71540  10.679  43.900  10.701
   12W        W71541   3.849  35.739  12.763
   13W        W71542  10.429  43.556  13.973
   14W        W71543  31.039   2.210  13.907
   15W        W71544  33.640  44.387   1.129
   16W        W71545  18.577  19.523  13.421
   17W        W71546   8.699  14.886   2.876
   18W        W71547  40.604  10.870  14.924
   19W        W71548  26.633  16.795   0.434
   20W        W71549  19.221  37.922  14.845
   21W        W71550  42.630  32.892   2.712
   22W        W71551  37.681   1.659   0.220
   23W        W71552   6.663  31.795  13.649
   24W        W71553   3.088  23.205   0.438
   25W        W71554  14.856   7.769  14.018
   26W        W71555  10.673   0.438  11.703
   27W        W71556   8.159  30.461   2.864
   28W        W71557  30.374  13.613  13.606
   29W        W71558   1.068   6.243   4.444
   30W        W71559  28.663  11.654   0.169
   31W        W71560   1.224   2.210   0.688
   32W        W71561   1.237  26.973   4.179
   33W        W71562   1.927  41.322   4.204
   34W        W71563   0.313   8.738  11.999
   35W        W71564  30.388  20.567  11.286
   36W        W71565  17.677  10.646  13.329
   37W        W71566  34.253  23.164  12.864
   38W        W71567  33.598  22.275   4.698
   39W        W71568   3.660  16.618   1.837
   40W        W71569  28.228  10.517   4.458
   41W        W71570  40.895  28.941  11.500
   42W        W71571   5.535  21.160   0.463
   43W        W71572   9.590   1.988   3.124
   44W        W71573   9.712  16.760   0.060
   45W        W71574  10.759  25.699  14.001
   46W        W71575   6.994   3.012  12.120
   47W        W71576  21.400   4.273  13.024
   48W        W71577  26.285  27.089   0.531
   49W        W71578  21.376  28.162   2.969
   50W        W71579   2.342  27.151   2.269
   51W        W71580  39.006  39.381   2.834
   52W        W71581  30.949  16.784   2.890
   53W        W71582   3.894  28.787  11.630
   54W        W71583  31.975  16.761   3.134
   55W        W71584  32.015  38.735   1.351
   56W        W71585  38.483  15.299   4.434
   57W        W71586  18.555   8.684   4.694
   58W        W71587  36.016  17.086  12.411
   59W        W71588   1.213  43.297   3.265
   60W        W71589  27.872  35.060  10.982
   61W        W71590  28.178  24.772   2.212
   62W        W71591  25.776   4.624  14.514
   63W        W71592  38.923  40.114   1.687
   64W        W71593  10.327  33.202   4.979
   65W        W71594  33.431  33.965   0.289
   66W        W71595   9.409  30.073   0.796
   67W        W71596  34.892  23.752  11.505
   68W        W71597  35.517   5.571  14.259
   69W        W71598  23.830   8.618  10.754
   70W        W71599  12.240  30.726   2.800
   71W        W71600   3.887  24.589   1.781
   72W        W71601  36.628  35.588   1.915
   73W        W71602   7.377  41.975   4.478
   74W        W71603   2.810  28.250   0.407
   75W        W71604  27.285  19.962   1.161
   76W        W71605  33.652  29.769   1.725
   77W        W71606  21.109   5.610   0.973
   78W        W71607  28.683  21.302   4.126
   79W        W71608  14.774  12.427   0.868
   80W        W71609  14.116  30.984   2.381
   81W        W71610   1.022   9.698   2.233
   82W        W71611  18.919   3.979   3.333
   83W        W71612  41.016  40.119  13.368
   84W        W71613  32.246  27.087   4.144
   85W        W71614  13.413  44.336  10.026
   86W        W71615   1.711  14.628   0.842
   87W        W71616  33.937  13.144   3.290
   88W        W71617  37.438  25.576   5.223
   89W        W71618  34.666  13.739  12.936
   90W        W71619  26.930  38.862   4.103
   91W        W71620  20.006  16.879   2.050
   92W        W71621  13.934  21.216  12.474
   93W        W71622  40.427   1.475   3.346
   94W        W71623  31.585  37.268   3.595
   95W        W71624  20.284  12.699   3.170
   96W        W71625  13.793  14.989   3.203
   97W        W71626   7.874  31.222   2.820
   98W        W71627   7.379   3.728  14.987
   99W        W71628   9.754  44.856   4.142
  100W        W71629  20.830  42.923  13.520
  101W        W71630  37.554  26.309  12.556
  102W        W71631   7.290  44.262  12.540
  103W        W71632  24.064  24.868  13.930
  104W        W71633  26.432  29.090  10.608
  105W        W71634   2.384  26.897   0.952
  106W        W71635  15.591   9.051   0.420
  107W        W71636  17.322  43.828  14.885
  108W        W71637   5.270  25.025  14.038
  109W        W71638  30.623  24.078   4.478
  110W        W71639   4.372   1.785   0.995
  111W        W71640  39.266   5.024   3.639
  112W        W71641  30.429  15.780  12.538
  113W        W71642  34.072  12.367   1.011
  114W        W71643  17.927  31.432   3.763
  115W        W71644  26.233   8.859  13.935
  116W        W71645  20.205  43.289   0.837
  117W        W71646  38.100  27.882  11.992
  118W        W71647  38.563  43.263   1.675
  119W        W71648  15.048   4.870  11.498
  120W        W71649  17.393  17.754   2.390
  121W        W71650   7.404  20.402  12.318
  122W        W71651  23.476   9.426   0.874
  123W        W71652   5.537  44.373  12.985
  124W        W71653   6.165  27.170  13.968
  125W        W71654  13.601  41.243   3.506
  126W        W71655  10.938   1.026  10.492
  127W        W71656  41.742  33.643   4.891
  128W        W71657  11.312  37.605  10.729
  129W        W71658  24.695  30.945   2.136
  130W        W71659  29.455  31.901   4.928
  131W        W71660  15.501  25.449  14.338
  132W        W71661  39.389  32.626  14.418
  133W        W71662  38.529  18.039   3.634
  134W        W71663  14.179   8.873   2.769
  135W        W71664   5.730  16.248   2.654
  136W        W71665  22.493  14.612  10.932
  137W        W71666   4.465   8.233   0.992
  138W        W71667  10.632  28.588   1.285
  139W        W71668  11.079   1.898   4.128
  140W        W71669  24.232   0.037  11.546
  141W        W71670  15.682  19.495  14.296
  142W        W71671  37.045  35.398  11.473
  143W        W71672  24.821  32.666  10.808
  144W        W71673  31.563  27.423  11.021
  145W        W71674  10.635  38.330  11.530
  146W        W71675   2.778  10.400   1.788
  147W        W71676  39.656   3.416   1.208
  148W        W71677  13.116   0.040   4.217
  149W        W71678  40.954  24.295  14.575
  150W        W71679  10.143  32.423  11.657
  151W        W71680  42.394  14.339  10.769
  152W        W71681  17.368  21.681   2.270
  153W        W71682  30.058  12.705   0.460
  154W        W71683  24.250   0.302  13.908
  155W        W71684  10.210  11.287   2.323
  156W        W71685  19.159  43.270   2.605
  157W        W71686  30.867  11.290   0.181
  158W        W71687  14.110  15.418  10.102
  159W        W71688  12.262  25.097  11.535
  160W        W71689  30.630  19.131   4.588
  161W        W71690  43.668  29.174   0.890
  162W        W71691  33.431  16.916  10.111
  163W        W71692  21.489  35.821   5.152
  164W        W71693  26.909  40.045  12.055
  165W        W71694  42.362   3.492   3.311
  166W        W71695   1.328  22.080  13.269
  167W        W71696  13.578  37.056   1.980
  168W        W71697  12.724  33.003   1.719
  169W        W71698  11.166  36.620  12.061
  170W        W71699   2.093   7.152   2.867
  171W        W71700   0.764  34.189   1.692
  172W        W71701  44.521  11.037  11.399
  173W        W71702   8.411  21.313   2.541
  174W        W71703  43.868  14.042  11.970
  175W        W71704   6.922  22.523  11.799
  176W        W71705  30.958  20.069  13.990
  177W        W71706  29.763  13.840  12.363
  178W        W71707  29.599  44.969   2.384
  179W        W71708  44.642  12.260  10.194
  180W        W71709  19.546  12.101  14.508
  181W        W71710  34.004  23.147   0.515
  182W        W71711  12.365  40.006  11.682
  183W        W71712  26.991  35.847  13.156
  184W        W71713  29.355   8.662   5.273
  185W        W71714  12.737   9.369   3.761
  186W        W71715   0.073   4.442  14.519
  187W        W71716   4.232   2.782  14.880
  188W        W71717  44.957  34.590   2.630
  189W        W71718  42.500  10.362  14.772
  190W        W71719  34.916  38.518   2.812
  191W        W71720  40.344  16.797  13.572
  192W        W71721  26.200  26.743  12.566
  193W        W71722  33.787  34.671  13.805
  194W        W71723  29.220  22.978  13.480
  195W        W71724  40.813  32.016  10.772
  196W        W71725  12.330  20.427   3.010
  197W        W71726  10.451  36.439  13.843
  198W        W71727   8.827  18.938   2.127
  199W        W71728  34.462  15.655  11.947
  200W        W71729  14.314  13.830   0.013
  201W        W71730   4.110  21.107  11.471
  202W        W71731   5.299  20.182   4.736
  203W        W71732  25.976   6.281  12.616
  204W        W71733   6.286  43.549   0.801
  205W        W71734  28.573  42.326   3.028
  206W        W71735  36.910   1.174   1.454
  207W        W71736  19.507  40.505  10.314
  208W        W71737  37.925  23.533  13.822
  209W        W71738  24.105  10.401  10.718
  210W        W71739  37.347  29.495   3.391
  211W        W71740   2.550   1.586  13.412
  212W        W71741  22.702  14.546   4.070
  213W        W71742   8.625  20.713  12.087
  214W        W71743   0.704  29.033  11.065
  215W        W71744  44.893  34.104   2.831
  216W        W71745  40.513  30.344   0.769
  217W        W71746  18.510  35.740   1.945
  218W        W71747  11.242  37.459  14.355
  219W        W71748  39.032   9.697   1.651
  220W        W71749  11.169  28.186   0.813
  221W        W71750  18.738  30.367  11.205
  222W        W71751  20.251  18.832  14.893
  223W        W71752  20.558  21.108   1.883
  224W        W71753  28.801   1.032   1.026
  225W        W71754   6.019  23.061   0.694
  226W        W71755  28.084  27.710  10.609
  227W        W71756  39.755   9.470  11.215
  228W        W71757   6.941  14.231   4.068
  229W        W71758  16.870  25.195  12.911
  230W        W71759   6.622  18.868  14.057
  231W        W71760  31.653  23.824   4.389
  232W        W71761  36.435  22.689   4.813
  233W        W71762   6.391  27.525  14.329
  234W        W71763  24.552   8.852   3.799
  235W        W71764  22.222  32.417   0.026
  236W        W71765  44.562  30.102   5.188
  237W        W71766   1.947   3.428  14.780
  238W        W71767  42.505  10.692  12.452
  239W        W71768  13.636  43.661  12.951
  240W        W71769  36.006  11.906   0.744
  241W        W71770  25.789  12.857   3.640
  242W        W71771  14.932  26.963   2.880
  243W        W71772  36.541  23.509  14.473
  244W        W71773  14.512  44.074   3.780
  245W        W71774  15.764  41.058   0.631
  246W        W71775  21.072  43.814  14.796
  247W        W71776  19.570  27.113  12.158
  248W        W71777   3.642  13.616  13.635
  249W        W71778  24.723  34.312   2.328
  250W        W71779  21.886   3.749  12.451
  251W        W71780  43.995  41.736   1.403
  252W        W71781  20.023  39.555   0.840
  253W        W71782  37.955   4.858  13.471
  254W        W71783   4.815   3.413  14.628
  255W        W71784  33.563  12.249  13.495
  256W        W71785  21.728  22.094  11.059
  257W        W71786  21.066   9.515   2.654
  258W        W71787   8.636  42.761  14.515
  259W        W71788  36.338  11.287  12.671
  260W        W71789  12.715  15.890   1.221
  261W        W71790  11.078  37.546  13.835
  262W        W71791  38.760   3.976   3.100
  263W        W71792  30.041  12.384   3.361
  264W        W71793  11.175  12.765   4.523
  265W        W71794  17.648  27.626  12.030
  266W        W71795  26.503   5.389   4.968
  267W        W71796  10.741  10.306  13.550
  268W        W71797  14.541   7.686   5.042
  269W        W71798   4.894  28.169   4.477
  270W        W71799  13.543  18.607   2.725
  271W        W71800  30.721  39.363  13.510
  272W        W71801  43.972  27.493  12.936
  273W        W71802   6.648  30.664   1.210
  274W        W71803   8.263  43.122   2.188
  275W        W71804  44.469   0.780   2.112
  276W        W71805  14.128  28.695   3.166
  277W        W71806   7.172  13.215  11.616
  278W        W71807   6.443  28.949  13.053
  279W        W71808  38.462   3.291   3.313
  280W        W71809  24.420  31.011   3.690
  281W        W71810   0.939   9.907  14.424
  282W        W71811  12.695  17.180  11.664
  283W        W71812  27.704   7.457  11.719
  284W        W71813  27.705  40.844  12.441
  285W        W71814  43.244  24.896  13.955
  286W        W71815  42.439  21.708   3.146
  287W        W71816  19.921  27.427   0.378
  288W        W71817  27.129  37.322  13.494
  289W        W71818  21.297   1.552   0.342
  290W        W71819  40.443  33.912   4.871
  291W        W71820   8.912  20.000  14.483
  292W        W71821  17.057  30.231   0.375
  293W        W71822   5.794   5.685  13.775
  294W        W71823  16.246  13.884  13.912
  295W        W71824  43.900  43.913   0.230
  296W        W71825  27.229  14.663  13.682
  297W        W71826  36.440  19.787   3.252
  298W        W71827  20.288  13.329   4.264
  299W        W71828   3.244  38.677  11.202
  300W        W71829  38.371  21.294  11.985
  301W        W71830  19.575  22.570   3.162
  302W        W71831   3.462  28.474  10.733
  303W        W71832  20.084  19.238   1.794
  304W        W71833   9.710   8.947  14.513
  305W        W71834  40.820   5.237   1.074
  306W        W71835  30.681  37.599  10.786
  307W        W71836  43.816   3.165   4.133
  308W        W71837  27.349  10.456  13.119
  309W        W71838  25.297  26.495  12.113
  310W        W71839   8.883  30.107  10.945
  311W        W71840  36.039  23.675   1.296
  312W        W71841  30.640   6.794   1.764
  313W        W71842  41.463  19.295  10.938
  314W        W71843  20.641  11.409   3.203
  315W        W71844   9.339  38.085   4.319
  316W        W71845  15.640  26.469   2.205
  317W        W71846  10.589  10.854   2.170
  318W        W71847  41.889  42.239  11.971
  319W        W71848  12.482  33.540  13.579
  320W        W71849  22.727  31.157  14.478
  321W        W71850  15.322  44.497  13.233
  322W        W71851  18.354   0.926   0.892
  323W        W71852  10.989  12.264   0.826
  324W        W71853  24.612  13.180   4.033
  325W        W71854  29.430   8.636  11.704
  326W        W71855  19.571  39.152  14.367
  327W        W71856  22.941   7.733  13.480
  328W        W71857  39.964  14.499  12.420
  329W        W71858  26.671  11.095   2.993
  330W        W71859  30.900  28.871  13.869
  331W        W71860  30.328  22.869  10.739
  332W        W71861  14.057  12.163   3.870
  333W        W71862   9.888  39.106   2.960
  334W        W71863   8.785  42.277  10.756
  335W        W71864  24.185  32.032   5.100
  336W        W71865  34.916  23.427   4.626
  337W        W71866   2.695  12.925  11.156
  338W        W71867   6.265  22.531  13.376
  339W        W71868  22.204  39.938  13.090
  340W        W71869   0.940  40.012   2.150
  341W        W71870  12.901   1.969  11.677
  342W        W71871  29.202  42.691   3.755
  343W        W71872  27.919   5.194   3.570
  344W        W71873  44.136  39.424  11.275
  345W        W71874  32.614  29.031  14.555
  346W        W71875  13.819   8.946  14.873
  347W        W71876  23.081   2.772  14.589
  348W        W71877  30.436  23.008   1.812
  349W        W71878  11.185  27.951   2.252
  350W        W71879  10.632  25.083  14.596
  351W        W71880  30.045   3.207  12.000
  352W        W71881  18.989  32.938   0.273
  353W        W71882  27.660   6.163  11.748
  354W        W71883  10.273  40.205   3.569
  355W        W71884  11.749  31.668   4.554
  356W        W71885  26.066  12.184  12.959
  357W        W71886   1.745  30.035  14.395
  358W        W71887  29.995  14.232  11.662
  359W        W71888   8.851  25.746   3.336
  360W        W71889  18.245  42.827   0.998
  361W        W71890  29.026  20.167   0.757
  362W        W71891   1.000  30.919   3.899
  363W        W71892   8.222  31.680   1.788
  364W        W71893  33.335  40.492   3.811
  365W        W71894  44.019  40.968   4.252
  366W        W71895  13.138  44.364  12.561
  367W        W71896  12.334  29.207   3.648
  368W        W71897  29.689  11.187   1.922
  369W        W71898  23.598  26.457   1.920
  370W        W71899   0.428  23.025   4.125
  371W        W71900  33.592  36.499  13.889
  372W        W71901  13.643   6.080   4.082
  373W        W71902  41.997  26.030  11.190
  374W        W71903   1.232  22.128  11.972
  375W        W71904  20.138  27.591  13.601
  376W        W71905  22.731  35.824  12.443
  377W        W71906  43.152  35.930  14.913
  378W        W71907  14.450   1.698  12.109
  379W        W71908  33.789  37.593   5.060
  380W        W71909  40.466  33.052  14.905
  381W        W71910  43.806  43.545   3.266
  382W        W71911  26.456  28.313   1.168
  383W        W71912  34.088  20.252   2.198
  384W        W71913   2.938  40.988  12.953
  385W        W71914  11.795  11.165   1.338
  386W        W71915  26.610  16.110  12.960
  387W        W71916  40.006   0.844   2.898
  388W        W71917   9.914  10.416  14.412
  389W        W71918  25.251  38.820   4.648
  390W        W71919  22.357  42.281   1.815
  391W        W71920   6.680  19.503   1.008
  392W        W71921  21.903  37.382  11.585
  393W        W71922   2.838  35.846   1.626
  394W        W71923  21.814  30.300  13.871
  395W        W71924   8.332  33.337  11.655
  396W        W71925  40.922  16.109  11.613
  397W        W71926  11.118   5.176   4.932
  398W        W71927  11.603  43.819   1.417
  399W        W71928  15.194   4.715   0.429
  400W        W71929  16.156  40.300   3.707
  401W        W71930  29.473   0.179   1.825
  402W        W71931  32.391  17.700  13.037
  403W        W71932  41.320   3.398  10.367
  404W        W71933  42.981  27.421  13.865
  405W        W71934   2.900  33.036   3.531
  406W        W71935  28.952  23.554   0.164
  407W        W71936  15.718  32.415   3.274
  408W        W71937  41.019  30.132   4.563
  409W        W71938  30.974  17.636  13.957
  410W        W71939  27.162  10.203   3.794
  411W        W71940  28.530  17.286   2.728
  412W        W71941  44.937  40.086  14.869
  413W        W71942  37.590  10.716  14.041
  414W        W71943  35.466  22.127  12.340
  415W        W71944  37.574  31.665   0.990
  416W        W71945   9.365  37.601  12.050
  417W        W71946  27.023  36.292  14.989
  418W        W71947  17.662  38.485  12.930
  419W        W71948   7.644  40.954   4.605
  420W        W71949  19.653  35.047   0.779
  421W        W71950   6.260  30.305   4.591
  422W        W71951  34.987  10.326   4.077
  423W        W71952  16.186  14.897  14.260
  424W        W71953  18.967  10.229   1.801
  425W        W71954   2.386  29.878   4.384
  426W        W71955  22.285  44.327   1.284
  427W        W71956   5.758   0.014  14.994
  428W        W71957  27.920  44.283   1.880
  429W        W71958  23.993  25.930   2.274
  430W        W71959  10.747  17.559  11.147
  431W        W71960  39.495  30.020   3.800
  432W        W71961  29.840  26.687   4.832
  433W        W71962  43.790   5.954  11.057
  434W        W71963   0.829  15.521  14.154
  435W        W71964  19.240  40.870   3.127
  436W        W71965   2.298  10.389  12.366
  437W        W71966  35.902   4.252  14.471
  438W        W71967   8.333  33.018   0.340
  439W        W71968  17.688  30.965  13.348
  440W        W71969  39.280  31.323  11.620
  441W        W71970  14.757   7.212  11.121
  442W        W71971  15.814   8.929  10.705
  443W        W71972  41.537  40.583  10.456
  444W        W71973   9.855  38.510  13.418
  445W        W71974   9.596  29.871   0.330
  446W        W71975  17.191   5.931  12.875
  447W        W71976   6.981  24.296  13.547
  448W        W71977  25.013  36.417  10.787
  449W        W71978  10.246   9.635   4.442
  450W        W71979  10.945  16.524  13.375
  451W        W71980   8.509  19.571   1.862
  452W        W71981  10.262   7.405  11.011
  453W        W71982   3.925  24.210   4.120
  454W        W71983  36.131  38.040   1.494
  455W        W71984   6.925   8.831  13.876
  456W        W71985  25.923  20.065   1.713
  457W        W71986   7.388  23.413  11.693
  458W        W71987   5.689  20.541  14.823
  459W        W71988  37.104   1.995  11.103
  460W        W71989  44.029   2.278   1.412
  461W        W71990  29.208  20.660  12.520
  462W        W71991  32.317  16.060  11.466
  463W        W71992  16.089  15.141   3.388
  464W        W71993   9.072  10.437   0.442
  465W        W71994  38.336  10.721   4.004
  466W        W71995  14.618  26.928   1.452
  467W        W71996   0.880  36.854  13.857
  468W        W71997  42.857   2.513  10.712
  469W        W71998   7.215  21.307  12.569
  470W        W71999  41.749  10.751   1.204
  471W        W72000   2.502  19.786  11.185
  472W        W72001  23.102  40.295   5.044
  473W        W72002  29.428  39.874  11.173
  474W        W72003   0.738  20.332   3.334
  475W        W72004  25.078  16.048   3.895
  476W        W72005  43.343  11.249  12.196
  477W        W72006  13.228  31.880   1.452
  478W        W72007  15.581   2.901   0.456
  479W        W72008  13.312  30.662   1.845
  480W        W72009  43.627  37.665   4.583
  481W        W72010  27.628   2.141   3.264
  482W        W72011  21.632  13.614  14.022
  483W        W72012  21.746   2.361  11.468
  484W        W72013  38.256  27.438  14.798
  485W        W72014  11.696  38.372   0.318
  486W        W72015  28.131  14.106   1.740
  487W        W72016  22.627  29.969   2.128
  488W        W72017   8.126  38.031   0.253
  489W        W72018  13.330  11.064  11.705
  490W        W72019  19.229  40.405  10.744
  491W        W72020  38.289  37.324  14.791
  492W        W72021  17.204  21.817  13.164
  493W        W72022   9.967  36.647   2.255
  494W        W72023  24.982  16.684   0.304
  495W        W72024  42.801   1.241   0.362
  496W        W72025  38.790  40.909   3.315
  497W        W72026  12.333  25.071   3.747
  498W        W72027  34.945  41.736  13.294
  499W        W72028  26.945  36.227  12.505
  500W        W72029  44.384  22.241   4.259
  501W        W72030  32.114   0.728  12.359
  502W        W72031  23.056  16.559   3.305
  503W        W72032  34.614  38.564   2.359
  504W        W72033  18.113  36.483  10.657
  505W        W72034   9.826  44.774   1.780
  506W        W72035   9.702  39.945   1.774
  507W        W72036  29.174  27.676   1.472
  508W        W72037   2.784  30.269  12.147
  509W        W72038  24.236   1.496   3.194
  510W        W72039  29.416   9.308  13.488
  511W        W72040  35.910  23.792  10.727
  512W        W72041  43.462  33.660   4.834
  513W        W72042   9.264  29.361  12.522
  514W        W72043  17.196  31.442  10.739
  515W        W72044  33.437  32.344   1.090
  516W        W72045  15.206  40.450  11.703
  517W        W72046   8.331  28.409  13.405
  518W        W72047  44.169  43.564  12.487
  519W        W72048  15.505  20.107  14.686
  520W        W72049  32.519  14.348   1.130
  521W        W72050   9.604  22.707  13.769
  522W        W72051   0.731  29.079  14.914
  523W        W72052  31.781  36.186   1.819
  524W        W72053  33.638  32.477  14.377
  525W        W72054  24.136   8.391   5.042
  526W        W72055   5.831  15.038  12.038
  527W        W72056  35.383   8.462  14.944
  528W        W72057  38.012  34.825  10.995
  529W        W72058  43.243  18.320   4.123
  530W        W72059   2.859  15.397  14.502
  531W        W72060  19.097  30.081   3.937
  532W        W72061  38.977  26.205  10.679
  533W        W72062   1.421   5.643  12.628
  534W        W72063   7.257  17.933   1.707
  535W        W72064  22.143  25.122   4.340
  536W        W72065  25.524  19.052   1.332
  537W        W72066  39.801  10.769  10.797
  538W        W72067  43.905  24.962   3.700
  539W        W72068  16.861  25.484  12.494
  540W        W72069   9.885  44.714   2.288
  541W        W72070  12.112   5.180   0.418
  542W        W72071  12.602  11.905   4.092
  543W        W72072  11.655  25.488   4.730
  544W        W72073  38.497  12.803   2.126
  545W        W72074  38.486  44.234   4.556
  546W        W72075   6.973   1.296  12.451
  547W        W72076   8.876  18.880   4.969
  548W        W72077   0.930  26.630   0.322
  549W        W72078  20.168  21.352  11.891
  550W        W72079  17.232   8.429   3.668
  551W        W72080  24.232  24.272   3.057
  552W        W72081   0.358  31.821  12.520
  553W        W72082   4.823   4.237   3.726
  554W        W72083  43.391  18.754  14.146
  555W        W72084  41.967  34.253  13.915
  556W        W72085  24.216  23.394  10.242
  557W        W72086  13.664  38.801   4.145
  558W        W72087  17.529  29.113   1.299
  559W        W72088   0.331  32.383  10.731
  560W        W72089  31.873  15.546   1.449
  561W        W72090   9.588  34.759  13.573
  562W        W72091  22.705  20.828   1.944
  563W        W72092  28.368  21.448   2.897
  564W        W72093  33.401  32.597  12.450
  565W        W72094   9.743  41.993   3.624
  566W        W72095  33.012  10.741   1.753
  567W        W72096  21.517   8.332  13.931
  568W        W72097  31.025  41.233   0.864
  569W        W72098  33.617   3.832  12.804
  570W        W72099  44.807  31.840   3.109
  571W        W72100  27.665  40.525   1.260
  572W        W72101  32.424   8.579   0.010
  573W        W72102  44.227  42.103  12.502
  574W        W72103  23.184   3.359   4.163
  575W        W72104  39.518  36.758  13.409
  576W        W72105  18.632  33.996  11.384
  577W        W72106  14.202  42.567   1.392
  578W        W72107  40.847  27.609  10.342
  579W        W72108  43.585  42.924   2.185
  580W        W72109  21.558   6.408  10.790
  581W        W72110  31.580   2.416  12.099
  582W        W72111  35.109  29.402   0.892
  583W        W72112  12.230   1.929   2.067
  584W        W72113   6.157   8.916   4.074
  585W        W72114  34.833   3.976   1.930
  586W        W72115  16.061  23.091   4.216
  587W        W72116  32.014  30.651   2.359
  588W        W72117  41.374   6.985   3.605
  589W        W72118  22.682   4.727  10.664
  590W        W72119   5.678  22.240  14.289
  591W        W72120   8.917   9.235   3.326
  592W        W72121  28.672  17.770   3.615
  593W        W72122  11.683  27.081  12.516
  594W        W72123  43.421  40.970  10.909
  595W        W72124  36.761  15.781   4.769
  596W        W72125  22.585  30.470  10.966
  597W        W72126  40.929  43.504   1.827
  598W        W72127   2.517  41.230  10.551
  599W        W72128  25.610  14.400  10.289
  600W        W72129  41.077  43.888   0.490
  601W        W72130  33.509   5.728  14.514
  602W        W72131  29.903  42.220   3.375
  603W        W72132  44.698  12.133  10.698
  604W        W72133  27.699  14.042   4.120
  605W        W72134  21.696  34.817   1.829
  606W        W72135  15.365  10.241   0.681
  607W        W72136  29.036   9.598   4.121
  608W        W72137  35.848  26.290   1.395
  609W        W72138  28.892  19.665   0.636
  610W        W72139  36.208  21.587  13.837
  611W        W72140  20.681  23.087  12.767
  612W        W72141  22.506  26.677  11.506
  613W        W72142  36.914   7.668   2.384
  614W        W72143  38.569  22.135  10.627
  615W        W72144  16.323  36.854  13.747
  616W        W72145   0.773  35.641   3.728
  617W        W72146   8.419   7.986  10.698
  618W        W72147  44.854  12.169  13.061
  619W        W72148  31.919  15.259  13.034
  620W        W72149  40.132  12.710   1.371
  621W        W72150  27.100  40.329   0.389
  622W        W72151  43.833  12.463   4.816
  623W        W72152  17.280  16.247   0.343
  624W        W72153  15.753  12.440   3.839
  625W        W72154  39.884  42.052   4.238
  626W        W72155  35.417  38.407   4.088
  627W        W72156  10.275  24.903   1.965
  628W        W72157  12.297   6.145  10.951
  629W        W72158  18.144   3.467  12.400
  630W        W72159  34.569  43.561   1.448
  631W        W72160  38.071  26.124   0.707
  632W        W72161  22.259   8.730  12.152
  633W        W72162  40.490  43.467  13.470
  634W        W72163  35.871   0.991   1.357
  635W        W72164  35.506  22.141   4.562
  636W        W72165   6.977  33.135  14.019
  637W        W72166  12.123  27.600   2.148
  638W        W72167  26.023   7.157   4.770
  639W        W72168  37.862  24.260   3.138
  640W        W72169  10.623  16.845   2.850
  641W        W72170   5.393  10.582  11.553
  642W        W72171  29.688  18.330  14.811
  643W        W72172  19.797  29.408   0.971
  644W        W72173   0.261   7.709  14.688
  645W        W72174  35.070  29.628   2.776
  646W        W72175   8.614  28.256   1.992
  647W        W72176  29.477   6.301  10.995
  648W        W72177   5.965  10.888   0.923
  649W        W72178  41.480  21.000   1.773
  650W        W72179  20.549  39.046   3.102
  651W        W72180  18.344   8.042  14.971
  652W        W72181  31.039  27.520  12.240
  653W        W72182  28.863  25.567   4.167
  654W        W72183  14.212  24.672   4.333
  655W        W72184  11.234  12.298   1.505
  656W        W72185  13.138  40.416   3.312
  657W        W72186   3.022   1.099   1.732
  658W        W72187   6.376   6.388   4.443
  659W        W72188  35.575  11.216  13.463
  660W        W72189   2.654  10.700  13.265
  661W        W72190  27.628  23.335   3.707
  662W        W72191  13.789  33.287  11.055
  663W        W72192  38.254  30.178  12.147
  664W        W72193   2.308  22.073  13.302
  665W        W72194  16.388  19.548  11.074
  666W        W72195  14.722  17.688  13.943
  667W        W72196  41.728  38.198  12.291
  668W        W72197  18.076  17.817   4.198
  669W        W72198   8.918  30.191   0.892
  670W        W72199  43.497  20.244  11.629
  671W        W72200  33.594   7.678  12.149
  672W        W72201   9.805  26.835   4.282
  673W        W72202  38.196  24.201   1.665
  674W        W72203   7.866  25.430  11.562
  675W        W72204  37.410   1.933   4.739
  676W        W72205  27.418  14.461   3.960
  677W        W72206  25.236   5.828  10.645
  678W        W72207  11.453   4.933   4.621
  679W        W72208  20.091  40.957   1.409
  680W        W72209  19.130  13.829   2.885
  681W        W72210  10.829  19.593  12.034
  682W        W72211  35.864  41.958   3.646
  683W        W72212  24.268  18.135  11.843
  684W        W72213  36.502  40.401  11.621
  685W        W72214  22.704  13.842  11.876
  686W        W72215  12.749   3.678  13.972
  687W        W72216  24.591  33.670  10.730
  688W        W72217  43.894  32.050   1.042
  689W        W72218  43.349  41.871   0.814
  690W        W72219  31.539  24.412   9.818
  691W        W72220  41.993  27.517   1.503
  692W        W72221   3.324  30.967  14.036
  693W        W72222  29.469  25.509   5.052
  694W        W72223  16.328  22.267   5.519
  695W        W72224  35.149  22.014   0.080
  696W        W72225  13.246  13.842  13.733
  697W        W72226   4.351   8.442   2.462
  698W        W72227   4.004   1.492   1.215
  699W        W72228  14.669  17.024  11.755
  700W        W72229   2.176  18.380   4.165
  701W        W72230  31.089  24.994   0.317
  702W        W72231  26.219  21.560  10.545
  703W        W72232  19.514  16.987   2.179
  704W        W72233  44.013  31.546   0.938
  705W        W72234  23.290  15.593   2.338
  706W        W72235  20.995  39.626  11.611
  707W        W72236  39.242   1.182  12.550
  708W        W72237  20.280  11.806  13.346
  709W        W72238  24.375  10.218  10.275
  710W        W72239  41.124  20.271   1.173
  711W        W72240  44.366   9.706   2.798
  712W        W72241  30.155  23.649  12.946
  713W        W72242  19.023  32.641  11.773
  714W        W72243  44.518   5.497   0.016
  715W        W72244   9.737  12.221   0.348
  716W        W72245  39.130  15.773   3.324
  717W        W72246  34.613   6.138  10.983
  718W        W72247  28.439  42.405   0.206
  719W        W72248  17.068   2.773  11.991
  720W        W72249  35.148  16.291   2.604
  721W        W72250   5.504  15.056  13.383
  722W        W72251  13.756  23.202   2.354
  723W        W72252  35.188  41.782  14.722
  724W        W72253   6.710  11.371  12.490
  725W        W72254   3.427  38.716   0.833
  726W        W72255  21.023  41.371   2.389
  727W        W72256  15.276  44.473   2.829
  728W        W72257   2.385  25.219   0.856
  729W        W72258  44.023  28.701   1.687
  730W        W72259  10.638  24.659   2.255
  731W        W72260  41.259  43.154   3.135
  732W        W72261  29.404   1.297   4.405
  733W        W72262  26.970  26.095  10.819
  734W        W72263  36.609  13.175   2.972
  735W        W72264  11.586   3.328   0.933
  736W        W72265  36.384  31.794  11.503
  737W        W72266  21.348  28.265  14.945
  738W        W72267  38.503  40.735  13.093
  739W        W72268  40.132   4.127  13.170
  740W        W72269  31.449  26.534  12.987
  741W        W72270   7.746  42.960   2.223
  742W        W72271  14.367  39.527   3.640
  743W        W72272  25.541  24.102  12.834
  744W        W72273  19.349  40.291   1.749
  745W        W72274  23.010  34.420  14.456
  746W        W72275  28.095  21.919  14.936
  747W        W72276  16.539  12.411   1.715
  748W        W72277  43.809  43.837   1.704
  749W        W72278  16.677  32.389   1.753
  750W        W72279  33.485  42.767  11.927
  751W        W72280  41.801  20.983   4.929
  752W        W72281   3.970  20.739   3.279
  753W        W72282  10.558  37.683  10.149
  754W        W72283  16.785   4.297  10.656
  755W        W72284   8.861  18.594  14.459
  756W        W72285   6.094  21.747   2.810
  757W        W72286   4.696  28.619   4.284
  758W        W72287   1.359  44.755  11.040
  759W        W72288  14.607  31.986   1.407
  760W        W72289  32.966  23.010   0.665
  761W        W72290  44.601   0.318  13.951
  762W        W72291  30.148  32.996  12.259
  763W        W72292   9.288   6.689  14.737
  764W        W72293  30.625   9.858   4.647
  765W        W72294  32.741  27.614  12.697
  766W        W72295  18.080  27.766  11.194
  767W        W72296  10.733  12.125   2.237
  768W        W72297  20.585  15.519  12.021
  769W        W72298  19.933  37.593   2.234
  770W        W72299   9.258   0.598   2.283
  771W        W72300  39.082  27.458  11.993
  772W        W72301  33.962  23.841  12.424
  773W        W72302   5.709   6.291   2.865
  774W        W72303  44.303  17.106   4.598
  775W        W72304  38.022  19.241   1.181
  776W        W72305  29.481  31.905  10.336
  777W        W72306  35.812   1.259   3.194
  778W        W72307  20.685  13.508  10.995
  779W        W72308  35.599  25.862   2.680
  780W        W72309  35.548  39.727   4.507
  781W        W72310   6.438   6.193   1.277
  782W        W72311   3.385   3.620  10.967
  783W        W72312  35.378  34.090   1.890
  784W        W72313  39.434  41.104   0.833
  785W        W72314  37.586  17.271  14.869
  786W        W72315  27.432  23.203  14.077
  787W        W72316   2.311  44.050   0.057
  788W        W72317   8.157  41.338  12.948
  789W        W72318  43.170   4.220  14.909
  790W        W72319  31.208  38.780   3.296
  791W        W72320  41.420  13.047  14.810
  792W        W72321   7.348  20.571  11.452
  793W        W72322   6.478  23.726  12.889
  794W        W72323  34.345  27.894   1.778
  795W        W72324  43.808   5.574   1.629
  796W        W72325   6.438  17.262  10.263
  797W        W72326   2.141  32.846   4.526
  798W        W72327  38.409   4.415   1.167
  799W        W72328  12.296  43.815   2.840
  800W        W72329   3.628  18.722  10.641
  801W        W72330  38.575  29.621   2.842
  802W        W72331  14.175  32.756  12.964
  803W        W72332   7.358  37.925  12.148
  804W        W72333  21.937  30.709   1.359
  805W        W72334  19.042   3.947  10.946
  806W        W72335  40.077  38.365   1.276
  807W        W72336  15.560  21.992  12.430
  808W        W72337  16.029  38.132  12.147
  809W        W72338  10.626  40.442  13.407
  810W        W72339  27.140  20.839   0.288
  811W        W72340  10.705  15.743   4.144
  812W        W72341  44.235  30.555   3.176
  813W        W72342   2.900   8.926   3.087
  814W        W72343  17.053  40.397  10.463
  815W        W72344  29.423  15.948  11.275
  816W        W72345   8.063   1.410   5.214
  817W        W72346  31.161   5.058   0.775
  818W        W72347  34.099  18.866   0.193
  819W        W72348   9.916  29.512  13.326
  820W        W72349   5.346  18.132  13.346
  821W        W72350   8.898  27.037   3.694
  822W        W72351  37.700  11.232  12.541
  823W        W72352  37.120  44.423   3.431
  824W        W72353  25.984  18.312   2.864
  825W        W72354  21.830   6.394   0.341
  826W        W72355  33.924   6.991   4.717
  827W        W72356  19.488  13.107  13.384
  828W        W72357  29.987  39.528   3.298
  829W        W72358  11.844   6.650   2.393
  830W        W72359   5.837   2.818  14.196
  831W        W72360  41.327   8.807  14.853
  832W        W72361  31.931  38.846  12.385
  833W        W72362   8.935   4.861   0.755
  834W        W72363  26.226  13.428   2.208
  835W        W72364   4.767   9.298  11.383
  836W        W72365  26.111  41.539   1.327
  837W        W72366   8.148  20.395   4.576
  838W        W72367  17.817  43.493   1.931
  839W        W72368   5.851  34.628   4.206
  840W        W72369  20.775  28.397   4.806
  841W        W72370  35.694  18.215  11.555
  842W        W72371   5.342  11.341  12.729
  843W        W72372  28.459  33.443  13.391
  844W        W72373   4.811   1.249  13.442
  845W        W72374  23.528   4.155  10.768
  846W        W72375  15.841  32.689   1.339
  847W        W72376  40.382   8.314   3.062
  848W        W72377  29.104  29.902   0.383
  849W        W72378   7.331   8.113  12.054
  850W        W72379  32.207  44.326   3.889
  851W        W72380  39.771  28.735   0.997
  852W        W72381  20.276  17.163  14.114
  853W        W72382  39.561   1.867   3.323
  854W        W72383  23.118  39.813  12.977
  855W        W72384   4.438  31.120  12.928
  856W        W72385  25.594   8.628   1.209
  857W        W72386  11.303  22.728  11.450
  858W        W72387   9.799  15.681  13.053
  859W        W72388  12.985  40.767  13.516
  860W        W72389  19.996  38.948  13.450
  861W        W72390  14.315   6.882   1.195
  862W        W72391  19.797  11.200  13.604
  863W        W72392  25.477  34.521   1.810
  864W        W72393  44.903  35.450   0.211
  865W        W72394  17.949  28.612  14.894
  866W        W72395  18.632   4.348  12.466
  867W        W72396  40.280   3.592   3.775
  868W        W72397  37.654  10.755   2.697
  869W        W72398  27.756  16.688  10.997
  870W        W72399   9.819   9.934  13.520
  871W        W72400  24.131   2.776   0.606
  872W        W72401  38.318  17.067  12.528
  873W        W72402  25.745  42.070  13.430
  874W        W72403  42.357  26.689   2.944
  875W        W72404  31.951  31.963   4.552
  876W        W72405   6.789  26.020  13.957
  877W        W72406   8.915  27.160   1.751
  878W        W72407  31.970  32.747   1.481
  879W        W72408   6.517  26.723  13.386
  880W        W72409   1.413  16.124   2.289
  881W        W72410  37.883  32.099   0.821
  882W        W72411   4.128   8.467  13.170
  883W        W72412  20.049  28.397   2.795
  884W        W72413  29.832  22.796   2.278
  885W        W72414  32.787   0.139  14.811
  886W        W72415  18.290  41.233  10.590
  887W        W72416  30.084   8.608   1.941
  888W        W72417  21.291  24.269  12.573
  889W        W72418  38.366  13.271   1.351
  890W        W72419  42.553  42.228   4.545
  891W        W72420  18.039  23.517  10.761
  892W        W72421  33.951  11.051  14.034
  893W        W72422   9.907   3.835   3.189
  894W        W72423  32.009  18.272   0.908
  895W        W72424  24.085  28.106   1.049
  896W        W72425  42.830  44.898  14.980
  897W        W72426   1.603  38.185   0.874
  898W        W72427  25.193  31.472   3.547
  899W        W72428  36.365   0.725  14.926
  900W        W72429  35.504  25.498   4.652
  901W        W72430   3.677  29.082  10.570
  902W        W72431  11.921  10.690   4.572
  903W        W72432  28.849  37.318  11.820
  904W        W72433  34.899  22.042   1.763
  905W        W72434  36.837  27.084   3.085
  906W        W72435  19.141  31.225   0.787
  907W        W72436  21.079  34.161   3.268
  908W        W72437  15.829   4.800  12.077
  909W        W72438  43.274  11.038   0.460
  910W        W72439  36.211  21.214   3.252
  911W        W72440   1.042  16.281   1.701
  912W        W72441  41.611   0.728   2.182
  913W        W72442  38.309  12.562  14.885
  914W        W72443  23.988   8.283   4.082
  915W        W72444   9.232   1.170   1.384
  916W        W72445  43.402  22.872  12.838
  917W        W72446   4.909  16.337   3.184
  918W        W72447  27.954  43.981  12.464
  919W        W72448  14.267  20.204   4.664
  920W        W72449  24.702   5.741  11.782
  921W        W72450   3.865  33.525  13.486
  922W        W72451  37.809   4.696   0.329
  923W        W72452  40.885  18.218  14.686
  924W        W72453  11.843  23.799  12.485
  925W        W72454  14.802  23.417   3.734
  926W        W72455  28.082   9.188   2.887
  927W        W72456  37.176  31.045   4.744
  928W        W72457  25.153  16.624  12.856
  929W        W72458  37.832  11.405  14.394
  930W        W72459   6.054   5.220  12.356
  931W        W72460  26.144  44.181   0.795
  932W        W72461   5.274  12.311   4.501
  933W        W72462  40.380  10.685   0.362
  934W        W72463  21.659   7.678   3.557
  935W        W72464  16.716   8.555   0.723
  936W        W72465  37.086  18.279   2.867
  937W        W72466  35.511  21.205  12.041
  938W        W72467  39.745  12.261   1.931
  939W        W72468   3.885  36.918   4.498
  940W        W72469  22.517   6.960  11.554
  941W        W72470   6.832  22.597   1.146
  942W        W72471  41.826  28.991   2.189
  943W        W72472   1.660  33.000  14.362
  944W        W72473  33.783  43.185   9.859
  945W        W72474  11.176  38.394   0.432
  946W        W72475  32.932  21.479   2.832
  947W        W72476  29.663  37.037   3.666
  948W        W72477   8.877  40.814   4.138
  949W        W72478  17.789   0.819  11.944
  950W        W72479  29.038  30.531   3.344
  951W        W72480  36.040  13.168   4.337
  952W        W72481  15.343  14.296   0.871
  953W        W72482  39.827  27.797  11.011
  954W        W72483  24.526  13.258  14.276
  955W        W72484  12.804  31.702  13.332
  956W        W72485  20.471  22.619  10.631
  957W        W72486  23.216  27.277  13.512
  958W        W72487   5.874  11.178   3.152
  959W        W72488  29.299  22.174   1.555
  960W        W72489  33.923  26.656  13.270
  961W        W72490   9.717  32.979  14.630
  962W        W72491  12.876  34.680  12.109
  963W        W72492  32.832  32.333  12.001
  964W        W72493  39.090  39.841   0.862
  965W        W72494  27.210  20.970  13.065
  966W        W72495   4.210   8.757   3.743
  967W        W72496  33.207  41.516   1.717
  968W        W72497  40.962  41.760   0.399
  969W        W72498  32.182  10.724   4.579
  970W        W72499  30.511  19.133   1.342
  971W        W72500  14.503  36.035  12.181
  972W        W72501  35.969  16.006   2.494
  973W        W72502   6.862  15.178  13.472
  974W        W72503  17.095  12.681  12.129
  975W        W72504  27.587  43.356   4.921
  976W        W72505  42.317  25.339  11.205
  977W        W72506  37.746   3.857   1.876
  978W        W72507  24.114  28.941  11.302
  979W        W72508   8.351  17.323  14.045
  980W        W72509  10.334  27.966  10.606
  981W        W72510   8.874  27.903  14.588
  982W        W72511  11.655  37.558  11.973
  983W        W72512   0.164   2.806  11.362
  984W        W72513  10.115  38.215   3.393
  985W        W72514  11.791  23.166   0.876
  986W        W72515  24.018  33.376   0.726
  987W        W72516  10.082  37.116   3.129
  988W        W72517  33.998  22.042  14.568
  989W        W72518  40.982  39.664  11.148
  990W        W72519  36.558  35.097  14.371
  991W        W72520  24.440   1.273   1.552
  992W        W72521  42.244  17.374   4.853
  993W        W72522  14.296   2.148   2.208
  994W        W72523  39.115  44.988  14.767
  995W        W72524  37.154   5.654   1.383
  996W        W72525  42.470  30.071   2.311
  997W        W72526  13.630  40.430   4.805
  998W        W72527  22.978   9.399   1.534
  999W        W72528  11.256  26.667  14.314
 1000W        W72529   8.379  18.204   0.647
 1001W        W72530  11.700  14.946   4.480
 1002W        W72531   4.687   1.506  13.869
 1003W        W72532   3.794   0.455   3.239
 1004W        W72533  33.718  32.204  13.462
 1005W        W72534   2.436   9.362   1.284
 1006W        W72535  29.168  30.902  11.146
 1007W        W72536   2.984   0.925   0.501
 1008W        W72537  43.805  17.192   4.718
 1009W        W72538  24.215  19.225   2.284
 1010W        W72539  32.055  19.619   1.855
 1011W        W72540  14.708  35.035   2.304
 1012W        W72541  11.373  17.094  14.499
 1013W        W72542  43.706  38.337  11.399
 1014W        W72543  38.484  29.898   1.865
 1015W        W72544  29.856  28.725   3.460
 1016W        W72545   5.724  35.435  11.932
 1017W        W72546  23.935  23.120   4.440
 1018W        W72547  22.389  19.184   3.650
 1019W        W72548  41.782   8.702  13.562
 1020W        W72549  39.379  39.297   3.339
 1021W        W72550  26.763  23.533  14.181
 1022W        W72551  23.949  18.146  10.597
 1023W        W72552  37.774  11.553  11.097
 1024W        W72553  35.423  38.824   4.401
 1025W        W72554  33.181  35.795   2.011
 1026W        W72555   2.806  38.333   3.295
 1027W        W72556  30.436  11.029   0.017
 1028W        W72557  27.009  44.465   3.330
 1029W        W72558  43.454  18.505  13.117
 1030W        W72559   6.350  34.818   2.929
 1031W        W72560   9.134  16.652  13.907
 1032W        W72561  13.507  41.727   0.724
 1033W        W72562  19.823   6.917   4.157
 1034W        W72563  13.156  35.901   1.834
 1035W        W72564  28.916  11.740   2.084
 1036W        W72565   9.346   2.973  13.411
 1037W        W72566  27.183  34.988  12.914
 1038W        W72567  18.695   0.997   3.805
 1039W        W72568  44.826  20.427   0.183
 1040W        W72569  28.538   0.861   3.603
 1041W        W72570  39.819  15.780  14.744
 1042W        W72571  44.234   9.893  10.187
 1043W        W72572  21.275  15.267   2.866
 1044W        W72573  33.523  40.552  11.227
 1045W        W72574   8.828  15.525  10.721
 1046W        W72575  43.015  17.172  10.616
 1047W        W72576  39.107  13.518   2.613
 1048W        W72577  42.484  35.735   2.658
 1049W        W72578  19.281  18.683   3.746
 1050W        W72579  17.462  43.365  14.403
 1051W        W72580  24.935  28.652  11.914
 1052W        W72581  13.265   1.290  13.107
 1053W        W72582  41.219  31.503   0.762
 1054W        W72583  33.737  19.684   2.785
 1055W        W72584  38.627  22.761   4.797
 1056W        W72585  28.104  28.672  10.959
 1057W        W72586   3.361   0.744   3.153
 1058W        W72587   5.440  30.235   0.419
 1059W        W72588  24.881  21.195   4.397
 1060W        W72589   0.991   8.694  13.489
 1061W        W72590  12.114  38.430   2.248
 1062W        W72591  40.392   0.258   4.772
 1063W        W72592  11.182  34.418   1.502
 1064W        W72593  29.128  18.984  13.595
 1065W        W72594  28.409  41.078   0.400
 1066W        W72595  43.435   9.920  11.650
 1067W        W72596  14.563  17.974   4.521
 1068W        W72597  17.329  34.984  13.433
 1069W        W72598  27.604   3.338  14.721
 1070W        W72599  14.040  12.553  11.063
 1071W        W72600  21.698   6.447   1.311
 1072W        W72601  33.029  12.684  14.889
 1073W        W72602   9.319  43.481   1.719
 1074W        W72603  20.785   4.815  14.387
 1075W        W72604   8.180   6.860   3.329
 1076W        W72605   1.300   6.479   0.439
 1077W        W72606  39.864  34.129   2.629
 1078W        W72607  15.232   8.248  13.077
 1079W        W72608  26.602  13.933  12.545
 1080W        W72609  36.102  33.966  13.311
 1081W        W72610  41.537  26.956  12.492
 1082W        W72611  40.984  11.867  14.053
 1083W        W72612  10.337  41.102   1.433
 1084W        W72613  35.436  37.608   1.747
 1085W        W72614  10.684  26.009  13.277
 1086W        W72615  44.775   9.203  10.750
 1087W        W72616  35.043   2.491  12.447
 1088W        W72617  18.748   0.382   2.427
 1089W        W72618  21.977  16.388   1.768
 1090W        W72619  35.948  23.521   2.768
 1091W        W72620  19.054  42.998  14.839
 1092W        W72621  40.397  34.400   0.324
 1093W        W72622   7.131  27.714   0.472
 1094W        W72623  18.464  29.874  14.105
 1095W        W72624   5.417  10.824   2.344
 1096W        W72625   4.950  37.832  11.210
 1097W        W72626  44.729  34.535   3.133
 1098W        W72627  34.737   1.445   1.580
 1099W        W72628  27.160  19.625  12.004
 1100W        W72629   1.692  41.615  12.924
 1101W        W72630   0.192  17.093  10.647
 1102W        W72631  40.838  29.770   2.733
 1103W        W72632  28.901   0.119   3.537
 1104W        W72633  37.250  42.679   5.051
 1105W        W72634  32.536  11.844  14.073
 1106W        W72635  15.437  27.082   2.813
 1107W        W72636  38.260  37.968   1.035
 1108W        W72637  38.488   8.808   4.636
 1109W        W72638  22.437   2.135  10.107
 1110W        W72639  33.589  19.037   0.564
 1111W        W72640  30.599   3.323   2.967
 1112W        W72641  19.505  14.617  12.041
 1113W        W72642   7.081  20.267   4.088
 1114W        W72643   3.653   6.421  11.995
 1115W        W72644  21.013  36.953  11.261
 1116W        W72645   2.799  15.280  10.618
 1117W        W72646   9.279  41.799   3.878
 1118W        W72647  39.958   3.713   0.351
 1119W        W72648  36.139  38.271  11.943
 1120W        W72649  42.350   0.734   3.956
 1121W        W72650  12.014  10.110  12.426
 1122W        W72651  23.728  36.419  13.120
 1123W        W72652  32.631   4.657   1.004
 1124W        W72653   2.493   5.151  11.060
 1125W        W72654   7.136  41.326   2.636
 1126W        W72655  36.991  44.188  11.094
 1127W        W72656  32.921  44.865   1.097
 1128W        W72657  10.180  44.161   4.585
 1129W        W72658  25.092  25.195   3.891
 1130W        W72659   0.297  22.743  14.907
 1131W        W72660  30.571  20.241   3.197
 1132W        W72661  26.020  35.465  14.784
 1133W        W72662  26.405  16.508  10.647
 1134W        W72663  28.451   8.476  13.597
 1135W        W72664  37.993  32.361   2.911
 1136W        W72665  37.337   2.253   0.805
 1137W        W72666  33.855  32.835  14.712
 1138W        W72667  43.277  36.550  12.564
 1139W        W72668  29.686  22.055   2.256
 1140W        W72669  11.680  22.289  10.581
 1141W        W72670   0.729  38.454   1.253
 1142W        W72671   1.489  17.610   4.111
 1143W        W72672   0.857   7.881   3.549
 1144W        W72673  43.240  10.397   1.198
 1145W        W72674  12.874  26.391  11.131
 1146W        W72675  44.671   1.940  14.400
 1147W        W72676  23.457   1.815   3.705
 1148W        W72677  15.254  12.091  12.011
 1149W        W72678  35.432  42.188  14.930
 1150W        W72679  17.683   2.174  14.761
 1151W        W72680  33.296  17.606  12.011
 1152W        W72681   3.205   0.865   4.724
 1153W        W72682  33.397  26.126   1.352
 1154W        W72683  19.763  23.986   0.959
 1155W        W72684  44.767  16.818  11.978
 1156W        W72685  27.624  36.069  11.011
 1157W        W72686  32.475   1.206  13.024
 1158W        W72687  42.973  22.044   2.300
 1159W        W72688  43.044  38.398  12.884
 1160W        W72689  12.231   2.923   2.259
 1161W        W72690  34.593  15.367   3.512
 1162W        W72691  24.728   2.681   2.777
 1163W        W72692  25.018  38.095   3.788
 1164W        W72693   4.832  31.662   2.638
 1165W        W72694  15.265  11.725  10.617
 1166W        W72695  30.683  22.947   3.756
 1167W        W72696  12.624   6.117   1.354
 1168W        W72697  22.998   2.445   2.634
 1169W        W72698  30.871  13.805  13.613
 1170W        W72699  40.424  21.787   2.455
 1171W        W72700   6.086  26.357  14.903
 1172W        W72701   1.773   5.795  11.410
 1173W        W72702  31.063  29.186  11.364
 1174W        W72703  43.544  31.367   0.294
 1175W        W72704  13.831   0.412  11.326
 1176W        W72705   1.648   5.172  13.323
 1177W        W72706   1.488  14.129   0.171
 1178W        W72707   3.306  38.314   4.648
 1179W        W72708  25.050  33.043   0.684
 1180W        W72709  23.613  20.089  13.367
 1181W        W72710  38.684  23.936  13.841
 1182W        W72711  19.236  30.437   4.915
 1183W        W72712  18.651  28.951  11.266
 1184W        W72713   9.689  29.153  14.274
 1185W        W72714   5.834  18.362   2.312
 1186W        W72715  11.467  18.201  14.945
 1187W        W72716   6.952   4.007  13.367
 1188W        W72717  22.241  10.294  11.610
 1189W        W72718   8.264  36.905  11.918
 1190W        W72719   7.345  11.132  11.297
 1191W        W72720  35.003  26.004  10.949
 1192W        W72721  31.974  32.483   1.036
 1193W        W72722  30.969  12.161  14.182
 1194W        W72723  40.072  39.047  13.852
 1195W        W72724  31.834  20.917   4.472
 1196W        W72725  12.905  41.914  12.846
 1197W        W72726  36.857  35.655   1.283
 1198W        W72727  28.258  15.449   1.261
 1199W        W72728  15.487  15.649   4.272
 1200W        W72729  24.194  40.339   0.452
 1201W        W72730  33.524  24.538   4.860
 1202W        W72731  39.822  42.733  14.482
 1203W        W72732  33.276   4.187   2.188
 1204W        W72733   0.404  42.524  13.203
 1205W        W72734  33.009   3.948  11.560
 1206W        W72735  40.181  31.354   3.653
 1207W        W72736  30.475  39.621   1.379
 1208W        W72737  21.240  10.174   0.048
 1209W        W72738  10.235   6.398  13.349
 1210W        W72739  13.107  39.324  10.727
 1211W        W72740  42.035  34.861  13.924
 1212W        W72741  10.836  31.403   4.389
 1213W        W72742  12.611  40.366  11.402
 1214W        W72743   9.729  18.093   3.243
 1215W        W72744  17.390  44.410  11.916
 1216W        W72745  38.049   3.881  14.758
 1217W        W72746   4.172  19.845   3.437
 1218W        W72747  14.883  29.692  12.829
 1219W        W72748  13.794  31.748  11.957
 1220W        W72749   4.025  41.030   2.800
 1221W        W72750   4.246  18.042   0.208
 1222W        W72751  38.395  10.574   4.492
 1223W        W72752  38.880   1.396   3.179
 1224W        W72753  17.666  18.853  13.875
 1225W        W72754  39.380  19.071   1.292
 1226W        W72755  18.828  16.724  12.206
 1227W        W72756  39.550   9.417  14.363
 1228W        W72757  26.235  24.668   2.969
 1229W        W72758  37.024  37.813  14.580
 1230W        W72759  41.745  32.746   4.527
 1231W        W72760  29.785  38.052  12.651
 1232W        W72761  21.161  39.282   5.001
 1233W        W72762  16.922  12.223  13.861
 1234W        W72763   8.709  41.546  12.150
 1235W        W72764   6.320  14.549  11.091
 1236W        W72765  33.326  44.782  12.460
 1237W        W72766  33.076  40.976   4.689
 1238W        W72767  16.244   9.302   3.776
 1239W        W72768  26.141  32.637  14.472
 1240W        W72769   7.908  19.556   0.980
 1241W        W72770  38.607   5.834   2.881
 1242W        W72771  10.608  31.813  12.423
 1243W        W72772  15.206  26.064   2.902
 1244W        W72773  13.628   1.461   0.892
 1245W        W72774  42.824  38.808  13.116
 1246W        W72775  40.566  40.796  11.138
 1247W        W72776  37.479  37.477   1.616
 1248W        W72777   9.460  38.808   2.922
 1249W        W72778  20.546  37.153  12.649
 1250W        W72779  28.635  14.366   1.809
 1251W        W72780  16.450  24.315   2.810
 1252W        W72781   4.536  31.552   3.598
 1253W        W72782  11.725  20.513  14.305
 1254W        W72783  42.055  34.126   0.697
 1255W        W72784  22.403  11.184  12.945
 1256W        W72785   6.310  30.915   3.753
 1257W        W72786   6.055  33.256   0.762
 1258W        W72787  30.158  17.284   5.341
 1259W        W72788   9.749  19.890   4.328
 1260W        W72789  14.103  22.596   4.186
 1261W        W72790  13.336  14.777  13.791
 1262W        W72791  20.960  14.830   0.943
 1263W        W72792  36.233   0.252   4.242
 1264W        W72793  25.685  26.531   1.955
 1265W        W72794   4.181   0.737  14.478
 1266W        W72795  20.030   7.933   0.394
 1267W        W72796  19.599  39.790   0.208
 1268W        W72797  23.067  14.779   4.804
 1269W        W72798  16.781  42.952  10.701
 1270W        W72799  39.232   5.905   4.584
 1271W        W72800  40.791  26.637   2.175
 1272W        W72801   0.471  14.492   3.634
 1273W        W72802  21.640  39.272   4.085
 1274W        W72803   5.390  17.776  12.953
 1275W        W72804   2.065  31.830   1.395
 1276W        W72805  20.032  26.611  10.052
 1277W        W72806   0.392  23.152  14.172
 1278W        W72807   0.791  40.225  11.992
 1279W        W72808  10.644   8.065  13.919
 1280W        W72809  16.541  10.799   1.246
 1281W        W72810   2.743  35.497   3.393
 1282W        W72811  25.227  15.409   2.833
 1283W        W72812  29.897   3.675   2.364
 1284W        W72813  35.332  15.256  14.988
 1285W        W72814  13.869   4.894  12.238
 1286W        W72815  26.275  14.883  10.999
 1287W        W72816  23.668  12.774   3.625
 1288W        W72817  24.539   3.304  12.466
 1289W        W72818   7.896  32.227  12.461
 1290W        W72819  18.751  32.882   0.733
 1291W        W72820  20.555  15.617   0.772
 1292W        W72821   4.399  19.229  13.349
 1293W        W72822   5.496   4.436  11.067
 1294W        W72823   2.140  17.141  10.301
 1295W        W72824  19.246  34.059   4.730
 1296W        W72825  39.980  26.485  12.445
 1297W        W72826  27.207  33.076   2.369
 1298W        W72827  31.094  24.301  10.483
 1299W        W72828  40.050  18.557   4.055
 1300W        W72829  37.896  42.841   1.809
 1301W        W72830  32.480  43.325  14.795
 1302W        W72831  40.268  17.912   2.384
 1303W        W72832   7.785   8.421   0.330
 1304W        W72833  23.428  31.449   2.647
 1305W        W72834  40.195  38.090   2.243
 1306W        W72835  10.892  31.350  14.123
 1307W        W72836  18.578  39.294   2.142
 1308W        W72837  39.954   6.464   2.238
 1309W        W72838  30.888  38.229  11.645
 1310W        W72839  42.562  38.515   0.197
 1311W        W72840  41.103  10.632  12.724
 1312W        W72841  31.910  18.004  14.902
 1313W        W72842  38.538  10.065  13.120
 1314W        W72843  24.218   6.458   1.796
 1315W        W72844  22.440  31.051   1.825
 1316W        W72845  19.092  14.676   1.391
 1317W        W72846   0.751   1.997   3.177
 1318W        W72847  27.289  42.797  11.773
 1319W        W72848  28.567   2.717  14.287
 1320W        W72849   9.114  30.040   4.755
 1321W        W72850  12.395   6.663  14.954
 1322W        W72851  19.607  33.443  11.687
 1323W        W72852  43.868  21.481   1.955
 1324W        W72853   7.342  30.555  13.146
 1325W        W72854  16.028  23.561   0.239
 1326W        W72855  30.916  34.797  10.737
 1327W        W72856  35.069   8.392  11.503
 1328W        W72857  36.321   4.104   0.557
 1329W        W72858  10.567  42.945  11.680
 1330W        W72859  28.102  32.124  14.450
 1331W        W72860  10.409  30.943   0.220
 1332W        W72861  24.939   3.747  14.305
 1333W        W72862  38.335  25.580  11.648
 1334W        W72863   7.183  28.004  10.664
 1335W        W72864   5.333  31.740  11.112
 1336W        W72865  40.362  33.401   3.171
 1337W        W72866  20.198  10.703  11.045
 1338W        W72867  10.187  27.003  12.478
 1339W        W72868  13.884  10.234   3.616
 1340W        W72869  28.506   1.523  13.477
 1341W        W72870   1.954  11.635   2.703
 1342W        W72871  11.419   0.232   3.664
 1343W        W72872  21.302  24.229  14.546
 1344W        W72873  32.923   0.441  14.394
 1345W        W72874  28.206  18.766  10.729
 1346W        W72875  18.017   9.949  12.624
 1347W        W72876  25.962  40.892  12.000
 1348W        W72877  32.612  28.218   0.569
 1349W        W72878  27.844  18.610   4.263
 1350W        W72879  41.727  36.091   3.298
 1351W        W72880  16.992  11.668   0.833
 1352W        W72881  24.523  40.785   4.258
 1353W        W72882  10.093  21.139  10.306
 1354W        W72883  40.889   3.712   2.299
 1355W        W72884  33.029  39.950   2.629
 1356W        W72885  13.311  15.272   0.644
 1357W        W72886  41.970  14.235   4.108
 1358W        W72887  26.472  32.439  14.856
 1359W        W72888   7.977   2.442  14.839
 1360W        W72889   4.426  11.760  14.920
 1361W        W72890  17.163  30.574   1.716
 1362W        W72891   5.690   2.659   2.712
 1363W        W72892  42.909  28.401  13.071
 1364W        W72893   1.345   3.616   0.976
 1365W        W72894   0.777  29.847   4.904
 1366W        W72895   2.452  14.100   0.277
 1367W        W72896  21.480   1.277   4.594
 1368W        W72897  36.534  13.277   4.263
 1369W        W72898  21.967   9.756  13.777
 1370W        W72899  26.471  13.169  11.999
 1371W        W72900  34.814  38.308  11.921
 1372W        W72901   9.370   3.547   4.049
 1373W        W72902  23.650  21.191  12.532
 1374W        W72903  37.179  13.854   4.006
 1375W        W72904  23.966  11.171   3.119
 1376W        W72905  21.318  10.245   4.944
 1377W        W72906   2.972  12.767  13.878
 1378W        W72907  38.933  39.905   2.951
 1379W        W72908  33.867  40.430   1.280
 1380W        W72909   2.592  21.529   0.008
 1381W        W72910  36.018  11.603   3.880
 1382W        W72911  28.509   0.366   0.398
 1383W        W72912  29.436  15.209   3.023
 1384W        W72913  41.838  21.545  14.976
 1385W        W72914  16.604  37.519   2.228
 1386W        W72915  39.842  43.849   4.641
 1387W        W72916  21.501   9.858   1.311
 1388W        W72917  35.322  29.559   4.640
 1389W        W72918  33.491  10.645   2.233
 1390W        W72919   6.247  37.053   0.577
 1391W        W72920  35.314  39.496   2.053
 1392W        W72921  39.452  22.804   4.422
 1393W        W72922  32.989  16.115   3.252
 1394W        W72923   4.564  18.266   1.307
 1395W        W72924  11.371   6.276   2.704
 1396W        W72925  43.455  30.156   1.953
 1397W        W72926   8.645  18.761  11.083
 1398W        W72927  18.280   3.160  14.541
 1399W        W72928   7.201  12.343  13.821
 1400W        W72929  18.589  29.463   3.940
 1401W        W72930   9.827  39.469   1.664
 1402W        W72931  22.986  15.900  11.530
 1403W        W72932  30.551   0.234  13.553
 1404W        W72933  16.997  15.320   4.076
 1405W        W72934  40.863   3.018  12.420
 1406W        W72935  12.011  30.570  10.172
 1407W        W72936  26.446  13.967  10.646
 1408W        W72937  36.411  20.309   3.280
 1409W        W72938  28.210  26.954   0.132
 1410W        W72939  15.216  11.699  14.778
 1411W        W72940  15.518   6.718   2.339
 1412W        W72941  22.021  20.238   1.797
 1413W        W72942   7.630  42.397  12.872
 1414W        W72943  17.973   3.183   3.173
 1415W        W72944  17.154  44.045  12.533
 1416W        W72945   2.343  17.642  13.079
 1417W        W72946   0.225  32.389   2.236
 1418W        W72947  22.795  35.670   1.780
 1419W        W72948  42.051  36.033  10.998
 1420W        W72949  21.072   9.072   2.957
 1421W        W72950  24.243  36.384  13.106
 1422W        W72951  12.025  37.950  12.012
 1423W        W72952   7.698  16.144   0.272
 1424W        W72953  28.384  35.977   0.182
 1425W        W72954  14.341  41.405  10.725
 1426W        W72955  14.189   8.901  12.835
 1427W        W72956  34.848   3.359  10.839
 1428W        W72957   3.805  37.267   4.867
 1429W        W72958   5.005   6.955   0.255
 1430W        W72959  16.339  43.245   4.666
 1431W        W72960  12.877  38.089   2.135
 1432W        W72961  32.156  39.875  10.319
 1433W        W72962  10.842  24.146  13.098
 1434W        W72963  26.117   5.675   1.336
 1435W        W72964   9.250  37.983  12.373
 1436W        W72965  17.936  14.184   3.325
 1437W        W72966  13.144   5.882  14.029
 1438W        W72967  42.475  36.901   2.343
 1439W        W72968   0.703  43.434  14.352
 1440W        W72969  26.714  33.477  10.288
 1441W        W72970  19.515  23.575  10.785
 1442W        W72971  38.483  36.543  14.824
 1443W        W72972   6.983  21.639   0.359
 1444W        W72973  39.877  36.774   1.573
 1445W        W72974  39.474   3.290   2.243
 1446W        W72975  41.735  25.735  14.373
 1447W        W72976  31.526  39.381  13.891
 1448W        W72977  32.507  22.731  11.518
 1449W        W72978   4.992  26.300  12.556
 1450W        W72979  23.136  41.060   3.922
 1451W        W72980  37.790   1.273  13.563
 1452W        W72981  39.406  25.253   2.211
 1453W        W72982  29.489  17.276  11.639
 1454W        W72983  22.131  44.091   1.787
 1455W        W72984  33.349  32.106  12.557
 1456W        W72985   8.938  21.122   1.367
 1457W        W72986   1.884  27.553   1.675
 1458W        W72987  29.427  38.932  13.387
 1459W        W72988   8.711   6.774  11.357
 1460W        W72989  20.941  26.040   3.727
 1461W        W72990  16.780  25.670  11.591
 1462W        W72991  17.308  18.183   0.789
 1463W        W72992  16.048  31.181   0.807
 1464W        W72993   8.601  34.839  14.252
 1465W        W72994  42.843  44.097  10.361
 1466W        W72995  11.713  14.155   1.369
 1467W        W72996  26.595   5.361   1.674
 1468W        W72997  41.886  44.332   2.291
 1469W        W72998  20.041  10.642  14.337
 1470W        W72999  37.629  12.741   3.209
 1471W        W73000  34.354  41.451   3.345
 1472W        W73001  35.575   9.870  12.031
 1473W        W73002  30.968  39.952  12.134
 1474W        W73003  21.828   5.460  14.879
 1475W        W73004  27.948  36.818   4.136
 1476W        W73005  12.154  42.542   2.350
 1477W        W73006  41.941  18.950  11.638
 1478W        W73007   9.709  44.424  14.983
 1479W        W73008  23.672  33.598   0.362
 1480W        W73009  43.869  11.158  12.421
 1481W        W73010  19.961  22.654  10.401
 1482W        W73011  28.179   7.174  12.805
 1483W        W73012  44.837  43.012   2.405
 1484W        W73013  21.311  20.224   3.169
 1485W        W73014   6.171  20.261   4.937
 1486W        W73015  19.838   1.852   2.714
 1487W        W73016  33.205  13.244  14.063
 1488W        W73017  25.093  35.168  11.201
 1489W        W73018  12.854  34.577   4.112
 1490W        W73019  17.681   3.410  14.474
 1491W        W73020  32.828  44.659  14.619
 1492W        W73021  25.891  29.464  12.854
 1493W        W73022  13.611   9.238  12.045
 1494W        W73023   3.647  29.051   0.786
 1495W        W73024  26.202  40.459  10.687
 1496W        W73025  30.731  13.999  12.344
 1497W        W73026  36.536  25.329   3.736
 1498W        W73027  22.517  38.407   5.100
 1499W        W73028  32.863  38.927  10.699
 1500W        W73029   5.924  35.958  11.258
 1501W        W73030  12.717  30.236   3.032
 1502W        W73031  19.590  40.667   3.633
 1503W        W73032  22.723  26.992  13.459
 1504W        W73033  27.856  29.100  12.870
 1505W        W73034   6.729   4.697   0.142
 1506W        W73035  43.203  40.063  13.438
 1507W        W73036  33.950  13.636   1.335
 1508W        W73037  30.764   2.922   2.715
 1509W        W73038  29.506  21.565   2.372
 1510W        W73039  41.551  15.801  14.376
 1511W        W73040  27.782  39.062   0.818
 1512W        W73041  15.308  29.574   5.167
 1513W        W73042   4.969  40.523   5.086
 1514W        W73043  11.302  24.470   0.884
 1515W        W73044  12.193   4.906  12.170
 1516W        W73045   1.416  24.552   3.725
 1517W        W73046   5.175  19.615  14.896
 1518W        W73047   3.781  33.919   3.953
 1519W        W73048  15.295  37.537   4.908
 1520W        W73049  27.746  31.438  13.686
 1521W        W73050  26.998  16.375   3.370
 1522W        W73051  21.332  33.583  13.540
 1523W        W73052  18.055  34.628   0.747
 1524W        W73053   5.306  38.672  14.022
 1525W        W73054   0.720  37.801   0.793
 1526W        W73055   4.796  27.661   0.978
 1527W        W73056  44.710  40.155  13.941
 1528W        W73057  11.821  22.997  14.360
 1529W        W73058   9.617  25.480  11.550
 1530W        W73059  44.859  22.049   3.352
 1531W        W73060  13.093   1.781   1.902
 1532W        W73061   6.357   3.536  10.975
 1533W        W73062  42.543  36.601  14.995
 1534W        W73063  17.268  43.019  12.450
 1535W        W73064  22.027  39.863  13.902
 1536W        W73065   7.788  30.643   0.330
 1537W        W73066  29.101  40.846   1.844
 1538W        W73067  39.973  39.292   3.716
 1539W        W73068   4.760  39.015   4.714
 1540W        W73069   8.828  40.664   0.959
 1541W        W73070  22.995  29.993  14.868
 1542W        W73071  26.873   1.775   4.516
 1543W        W73072  26.177   4.371  11.089
 1544W        W73073  21.131   5.759   4.353
 1545W        W73074  39.981   1.327  13.888
 1546W        W73075  16.587  14.980  12.035
 1547W        W73076  43.799  14.226   2.705
 1548W        W73077   5.519  26.884  11.021
 1549W        W73078   5.413   9.896   4.422
 1550W        W73079  24.544  10.414  11.076
 1551W        W73080   6.630  42.846   3.810
 1552W        W73081  38.908   8.276  14.994
 1553W        W73082  18.182  25.515  12.106
 1554W        W73083  26.566  31.410   2.343
 1555W        W73084   3.635  15.881   0.495
 1556W        W73085  36.557  25.729   2.962
 1557W        W73086  41.978  43.898   3.350
 1558W        W73087  14.298   4.666  12.039
 1559W        W73088  12.139  10.372   4.146
 1560W        W73089  13.549   9.521   1.519
 1561W        W73090   2.422  25.411  11.980
 1562W        W73091  12.252  15.481   2.639
 1563W        W73092  25.675  38.799   3.861
 1564W        W73093  26.689   7.406   3.157
 1565W        W73094  38.246  27.647  13.098
 1566W        W73095  26.053  31.202   0.271
 1567W        W73096  35.797  21.402  14.565
 1568W        W73097  43.919  11.428  13.427
 1569W        W73098  19.792  11.846  13.988
 1570W        W73099   5.437  17.810  12.110
 1571W        W73100  41.867   1.413  10.714
 1572W        W73101  18.578  37.038  14.533
 1573W        W73102   3.793  10.175  13.846
 1574W        W73103  24.529  42.462  14.391
 1575W        W73104  13.799   8.873   4.538
 1576W        W73105  21.696   3.309  11.181
 1577W        W73106  26.518  36.137   2.698
 1578W        W73107  18.328  19.968   1.380
 1579W        W73108  22.098  31.637   0.745
 1580W        W73109  28.027  29.967  11.635
 1581W        W73110  18.281   4.670  13.846
 1582W        W73111  40.055  14.187   4.128
 1583W        W73112  20.185  26.575  11.129
 1584W        W73113  29.379  29.159   1.729
 1585W        W73114  38.809  34.190  12.412
 1586W        W73115  15.855   9.146  13.973
 1587W        W73116  37.960   9.754  13.774
 1588W        W73117  26.591   6.220   0.698
 1589W        W73118  42.283   1.882  13.303
 1590W        W73119  25.006  38.826   0.756
 1591W        W73120  22.809  11.208   0.557
 1592W        W73121  20.992  34.978   4.074
 1593W        W73122  41.240   6.860   2.212
 1594W        W73123  29.059  19.646   4.935
 1595W        W73124  31.118  16.719  13.659
 1596W        W73125  15.515   7.210   1.465
 1597W        W73126   5.702   4.705   2.684
 1598W        W73127   1.921  22.004   2.049
 1599W        W73128   0.983  42.743  13.889
 1600W        W73129  13.049  27.973  13.042
 1601W        W73130  23.560  17.840   1.071
 1602W        W73131  14.831   7.091  12.589
 1603W        W73132  24.937  24.699  11.862
 1604W        W73133  17.349  18.164  12.151
 1605W        W73134   9.647  14.668   4.259
 1606W        W73135   0.099  24.151  10.413
 1607W        W73136  14.063  20.053  11.180
 1608W        W73137  22.408  23.164  11.195
 1609W        W73138  41.293   2.749  13.312
 1610W        W73139  25.209  14.526   0.293
 1611W        W73140  38.805   9.703   0.259
 1612W        W73141  17.213  22.335   0.672
 1613W        W73142  40.222  10.797   1.196
 1614W        W73143  37.350  36.864   0.358
 1615W        W73144  17.046  32.353   1.375
 1616W        W73145  22.247  29.589   2.054
 1617W        W73146   9.240  19.472   2.694
 1618W        W73147   9.757  19.147   2.632
 1619W        W73148   8.413  32.140   5.309
 1620W        W73149  16.333  37.929   3.843
 1621W        W73150  43.280  43.251  14.525
 1622W        W73151  14.082  33.002  12.352
 1623W        W73152  11.238  40.043   3.407
 1624W        W73153   1.532  27.280  12.718
 1625W        W73154   0.356  29.403  13.510
 1626W        W73155  11.749  35.400  14.847
 1627W        W73156  14.554  18.220  12.550
 1628W        W73157   2.149   9.770   4.164
 1629W        W73158  36.952  31.508   2.277
 1630W        W73159  21.130   1.982   3.648
 1631W        W73160  39.533  19.285  11.169
 1632W        W73161  33.137  31.934  12.080
 1633W        W73162  18.407  41.735  14.497
 1634W        W73163  43.927  43.225   4.026
 1635W        W73164  28.064  18.486   3.333
 1636W        W73165  25.392  19.591  14.520
 1637W        W73166   1.329  21.146   3.576
 1638W        W73167  16.742   8.339  13.746
 1639W        W73168  27.470  31.825   4.166
 1640W        W73169  41.463  39.047   3.563
 1641W        W73170  12.901   0.427  13.901
 1642W        W73171  32.648  38.085  11.280
 1643W        W73172   3.461  31.604   4.964
 1644W        W73173  30.833  27.256  10.911
 1645W        W73174  15.119  18.795  12.827
 1646W        W73175  13.107  11.971  14.817
 1647W        W73176  28.028   0.749   2.386
 1648W        W73177  15.542   7.839   3.330
 1649W        W73178  39.525  12.728   4.458
 1650W        W73179  34.064  34.182  14.599
 1651W        W73180   5.598   2.890  12.459
 1652W        W73181  35.504  41.472   2.839
 1653W        W73182  25.081  44.303   3.036
 1654W        W73183   9.341   8.197  14.377
 1655W        W73184  18.743   8.120  11.264
 1656W        W73185  38.440  42.253   1.920
 1657W        W73186  21.827  16.236  10.659
 1658W        W73187   5.436  14.073   3.025
 1659W        W73188  22.534  36.052  12.936
 1660W        W73189  17.315   6.807  12.909
 1661W        W73190  17.754   1.296   2.897
 1662W        W73191   6.126  25.686   2.684
 1663W        W73192   6.380   3.471  10.462
 1664W        W73193  41.909   5.606   4.615
 1665W        W73194  26.837  36.718  12.511
 1666W        W73195  42.930  22.340   4.545
 1667W        W73196  32.638  27.079   1.045
 1668W        W73197   4.274  11.547  13.057
 1669W        W73198  42.837   3.275   0.471
 1670W        W73199   9.568   1.192  13.154
 1671W        W73200   5.322  27.471   4.088
 1672W        W73201  27.157  42.376  13.093
 1673W        W73202  13.601  42.801   4.657
 1674W        W73203  17.070  41.448   0.307
 1675W        W73204  12.228  18.948  10.915
 1676W        W73205  13.742   6.113  14.331
 1677W        W73206  44.959   1.140  13.008
 1678W        W73207   3.429   4.782  14.427
 1679W        W73208  11.146  20.255   1.796
 1680W        W73209  17.635  18.742   2.298
 1681W        W73210  15.501  41.425   4.144
 1682W        W73211  42.245  27.612   2.834
 1683W        W73212  19.054  41.342  12.200
 1684W        W73213   0.664   1.232  11.596
 1685W        W73214  28.228  25.650  13.427
 1686W        W73215   8.103  22.216   2.784
 1687W        W73216  36.446  17.092  12.705
 1688W        W73217  36.441  23.505   2.711
 1689W        W73218   9.612  40.586   0.223
 1690W        W73219  21.599   5.679   0.873
 1691W        W73220  41.824   6.459   3.173
 1692W        W73221  40.979   2.682   2.318
 1693W        W73222   2.232  43.958   2.204
 1694W        W73223  34.604  40.806   3.885
 1695W        W73224   2.281  27.433   0.403
 1696W        W73225  43.542   4.324  14.555
 1697W        W73226   8.665  20.172  13.739
 1698W        W73227  18.738  40.253   3.755
 1699W        W73228  30.010  33.352  11.416
 1700W        W73229  17.054  34.505   4.257
 1701W        W73230  22.297  30.397  14.100
 1702W        W73231  35.577  38.901   0.243
 1703W        W73232  37.166  26.183   0.884
 1704W        W73233  40.304  31.955   2.175
 1705W        W73234   7.811  22.526  12.432
 1706W        W73235  11.718  12.120   1.409
 1707W        W73236   6.635  19.323  11.054
 1708W        W73237  42.334  16.526  13.041
 1709W        W73238   6.326  24.761  12.111
 1710W        W73239  15.039  26.661   4.034
 1711W        W73240   3.716  24.226   3.592
 1712W        W73241  39.586  42.567  12.156
 1713W        W73242  13.334  17.206  14.477
 1714W        W73243  29.136  30.159   1.754
 1715W        W73244  39.800  15.548  12.310
 1716W        W73245  33.654  19.366  13.291
 1717W        W73246  26.053  32.218   0.416
 1718W        W73247  12.179  44.818   1.855
 1719W        W73248  13.177  38.366  10.564
 1720W        W73249  40.060  28.213   3.811
 1721W        W73250  13.718  33.357  12.511
 1722W        W73251  10.271   9.434   0.239
 1723W        W73252  18.202  10.835   0.022
 1724W        W73253  26.169  27.757  12.487
 1725W        W73254  40.908  10.778   0.440
 1726W        W73255  29.561  36.616  14.821
 1727W        W73256  15.699  41.170  10.512
 1728W        W73257  25.523  32.857  12.388
 1729W        W73258  17.315   5.357  13.862
 1730W        W73259   0.241   5.164  13.313
 1731W        W73260   5.035  29.605  14.021
 1732W        W73261   2.847  14.378   3.969
 1733W        W73262   2.300  18.604   1.105
 1734W        W73263   2.929  10.706  12.849
 1735W        W73264  13.551  13.268   0.378
 1736W        W73265  29.911  35.804  14.005
 1737W        W73266  44.595  43.200  13.816
 1738W        W73267  19.770  25.723  13.022
 1739W        W73268  28.386  37.233  13.363
 1740W        W73269  42.319  35.165  10.612
 1741W        W73270  19.186  26.264   1.272
 1742W        W73271  11.161  29.504  14.056
 1743W        W73272  41.071  12.055   0.834
 1744W        W73273  19.713  10.939  10.788
 1745W        W73274   3.298  34.447   1.635
 1746W        W73275  41.445  36.554  13.888
 1747W        W73276   8.926  27.448   2.657
 1748W        W73277  20.223  27.700   4.618
 1749W        W73278  37.499  16.787  13.060
 1750W        W73279  13.242   9.489   4.084
 1751W        W73280  35.388  11.229   3.902
 1752W        W73281  12.258   9.024   4.907
 1753W        W73282  25.582  15.231   3.654
 1754W        W73283  26.116  27.407  11.124
 1755W        W73284   9.324  21.531   1.737
 1756W        W73285  16.855  16.800   3.628
 1757W        W73286  42.454  24.496  14.061
 1758W        W73287   4.077  21.119   0.588
 1759W        W73288  36.062   0.101  14.405
 1760W        W73289  30.706  17.805  10.658
 1761W        W73290  27.613   2.805  13.547
 1762W        W73291  18.094  14.331   0.376
 1763W        W73292   0.821  29.878  11.618
 1764W        W73293  17.544  16.208  11.091
 1765W        W73294  30.843  28.634  14.335
 1766W        W73295  12.210  16.955   1.972
 1767W        W73296   1.772  37.879  14.399
 1768W        W73297  12.137  22.030   0.267
 1769W        W73298  30.386  33.603   3.959
 1770W        W73299  20.279  34.065   2.359
 1771W        W73300  15.332  15.715  10.739
 1772W        W73301  31.938  37.136  12.023
 1773W        W73302  44.755  41.044   2.952
 1774W        W73303  26.734  37.183  14.785
 1775W        W73304  43.292   3.175  14.903
 1776W        W73305  27.899  26.987  14.690
 1777W        W73306  33.548  27.039  12.000
 1778W        W73307  39.047  15.682  14.357
 1779W        W73308  43.576  27.237   0.920
 1780W        W73309  22.484   6.176  12.007
 1781W        W73310  13.786  14.338  13.050
 1782W        W73311  33.165  25.498  14.043
 1783W        W73312  32.870   9.409  12.980
 1784W        W73313  10.843   3.343  13.107
 1785W        W73314  42.342  31.102  11.949
 1786W        W73315   1.258  22.741   4.044
 1787W        W73316   2.338   0.789  13.487
 1788W        W73317  38.531  39.311   1.770
 1789W        W73318  30.918  41.763  12.687
 1790W        W73319  43.749  21.248   3.646
 1791W        W73320  10.100  34.465   4.979
 1792W        W73321  16.040   2.314  11.609
 1793W        W73322   2.241  12.019   1.911
 1794W        W73323  22.791  21.037  12.441
 1795W        W73324  21.455   9.752   3.262
 1796W        W73325  26.476  23.171  12.935
 1797W        W73326  18.210  10.159   0.740
 1798W        W73327   4.454  44.096  13.622
 1799W        W73328  37.673  19.249   2.142
 1800W        W73329  31.028  41.627  13.187
 1801W        W73330  35.997  18.373  11.063
 1802W        W73331  39.510   4.239   2.175
 1803W        W73332  30.152   3.682   1.271
 1804W        W73333  36.568  36.538  12.434
 1805W        W73334  30.967  36.114   1.503
 1806W        W73335  35.475  28.483  12.189
 1807W        W73336   6.635  11.064   0.347
 1808W        W73337   6.883   4.984   2.278
 1809W        W73338  17.624  35.480  11.347
 1810W        W73339   6.466  14.350  14.257
 1811W        W73340  32.068  20.300   3.603
 1812W        W73341  19.779  13.848  13.805
 1813W        W73342  10.718   3.482   2.663
 1814W        W73343  21.176  36.186  14.940
 1815W        W73344  25.642  18.971   2.188
 1816W        W73345  43.497  14.084   0.764
 1817W        W73346  19.777  44.407   0.514
 1818W        W73347  30.016  28.116  12.872
 1819W        W73348  23.521  19.331   2.741
 1820W        W73349   0.055   1.519  10.737
 1821W        W73350  33.360  19.597   4.993
 1822W        W73351  19.778   8.298   4.071
 1823W        W73352   2.352   7.678  11.854
 1824W        W73353  42.467  18.087   1.334
 1825W        W73354  11.900  34.062   3.225
 1826W        W73355  23.246  14.727   0.238
 1827W        W73356  13.642   8.727  12.082
 1828W        W73357  23.032  11.667   2.229
 1829W        W73358  13.725  25.930  14.849
 1830W        W73359  12.091  12.326   1.759
 1831W        W73360  37.996  42.345   2.700
 1832W        W73361  26.914  14.661  14.104
 1833W        W73362   6.419  17.018   2.690
 1834W        W73363   5.334  16.288   2.314
 1835W        W73364  36.980  28.048   3.673
 1836W        W73365  16.768  24.952   3.330
 1837W        W73366   8.415   1.753   4.774
 1838W        W73367   4.533  39.802  13.007
 1839W        W73368  21.136  20.988  12.749
 1840W        W73369  42.620   2.991   1.209
 1841W        W73370  27.696   6.783  12.432
 1842W        W73371   4.190  42.948   2.882
 1843W        W73372  23.691  17.834   4.562
 1844W        W73373   9.359  29.050  12.932
 1845W        W73374  44.264   2.758  11.519
 1846W        W73375  27.350  11.901  11.946
 1847W        W73376  17.639  24.334   0.153
 1848W        W73377  39.819  34.448   3.595
 1849W        W73378   7.942   6.823  12.858
 1850W        W73379  35.211  20.307  14.901
 1851W        W73380  17.168  15.036  14.501
 1852W        W73381  40.798  38.992  14.971
 1853W        W73382  31.066  22.691  13.139
 1854W        W73383  15.670  17.886   2.943
 1855W        W73384  32.022  26.606   4.139
 1856W        W73385  23.631  25.672  10.665
 1857W        W73386  36.139  29.763   4.120
 1858W        W73387  11.589  19.588  12.459
 1859W        W73388  40.342   6.012  13.919
 1860W        W73389  43.150   8.995   1.775
 1861W        W73390   8.752  13.931   0.801
 1862W        W73391   5.319  36.907  11.527
 1863W        W73392   5.785  20.900  10.855
 1864W        W73393  34.947  42.605  12.073
 1865W        W73394  42.737  13.085   5.003
 1866W        W73395  36.445  37.119   0.467
 1867W        W73396  20.804  32.098  12.985
 1868W        W73397  16.451   1.667   2.300
 1869W        W73398   3.347  23.783   3.653
 1870W        W73399   0.835  18.895  12.612
 1871W        W73400  12.641  13.245   4.015
 1872W        W73401  29.074  22.661   4.429
 1873W        W73402  18.262   7.337  12.362
 1874W        W73403  16.164  12.618  14.786
 1875W        W73404   2.708  16.450  11.275
 1876W        W73405   1.365   4.441   1.583
 1877W        W73406  31.959  20.675  14.795
 1878W        W73407  11.873   1.778   2.880
 1879W        W73408  42.026  35.302   3.635
 1880W        W73409  43.600  16.271   0.450
 1881W        W73410  14.875   2.749  11.117
 1882W        W73411  24.026  20.787  12.925
 1883W        W73412  12.094   6.650   0.360
 1884W        W73413  15.118  32.138   1.332
 1885W        W73414   2.728   1.896   4.253
 1886W        W73415  40.365  18.773  11.663
 1887W        W73416  35.966  19.596   3.090
 1888W        W73417   4.508  24.047   3.278
 1889W        W73418  37.647  43.868  14.134
 1890W        W73419   1.454  22.925   2.552
 1891W        W73420   9.302  37.852   0.926
 1892W        W73421  20.030  29.495  13.895
 1893W        W73422  32.846  33.524   1.381
 1894W        W73423  34.093  13.124  11.445
 1895W        W73424  14.258  12.666  13.895
 1896W        W73425  16.748   6.179   4.152
 1897W        W73426  22.974   6.199  14.966
 1898W        W73427  10.062  16.399   4.222
 1899W        W73428   6.956  10.356   4.667
 1900W        W73429  14.211  34.572   2.890
 1901W        W73430  15.488  28.136   1.915
 1902W        W73431  37.383  34.649   3.268
 1903W        W73432  34.871  14.293   5.002
 1904W        W73433  28.142  19.501  13.411
 1905W        W73434  30.596  16.331   1.273
 1906W        W73435  16.196  40.320  13.216
 1907W        W73436  15.834  36.183  12.260
 1908W        W73437   5.262   8.460   1.749
 1909W        W73438   0.358  16.820   1.495
 1910W        W73439  35.271   5.527   3.999
 1911W        W73440  31.051  40.849   4.137
 1912W        W73441  31.707  27.025   4.130
 1913W        W73442  34.443  16.725   4.769
 1914W        W73443  31.176  10.869  13.474
 1915W        W73444  18.214   0.951   0.386
 1916W        W73445  13.626  32.076   3.327
 1917W        W73446  30.927  44.681  11.159
 1918W        W73447   5.960   7.310  13.437
 1919W        W73448  20.534  11.699  10.681
 1920W        W73449  15.899   5.400   3.952
 1921W        W73450  11.930  31.056  14.867
 1922W        W73451  12.738   2.976   4.146
 1923W        W73452  28.911  44.784  13.376
 1924W        W73453  36.377  26.069  10.919
 1925W        W73454  33.828  14.162  12.883
 1926W        W73455   0.077   6.380   4.681
 1927W        W73456  10.868   8.163  13.467
 1928W        W73457  18.556  16.500   3.173
 1929W        W73458   2.519  33.894   3.171
 1930W        W73459  16.518  38.991   3.160
 1931W        W73460  19.702  41.743   2.169
 1932W        W73461  10.902  11.936   3.777
 1933W        W73462  26.346  39.813   4.880
 1934W        W73463  13.075   1.528  13.526
 1935W        W73464   7.442  36.036  12.088
 1936W        W73465  12.233  39.810   3.803
 1937W        W73466  35.071   2.162   0.042
 1938W        W73467  43.948   9.377  11.166
 1939W        W73468  41.083  34.373  13.525
 1940W        W73469   1.007   5.836   1.204
 1941W        W73470  24.970  33.642  14.342
 1942W        W73471  40.508   4.838  13.330
 1943W        W73472  10.274  35.283   5.031
 1944W        W73473  26.711  35.476   4.070
 1945W        W73474   6.304   8.387   3.689
 1946W        W73475  33.887   1.397   1.467
 1947W        W73476  42.104  35.415   2.773
 1948W        W73477  24.235  22.114   0.356
 1949W        W73478  22.025  15.142   2.357
 1950W        W73479  10.182   8.914   0.254
 1951W        W73480  39.681  15.516   5.085
 1952W        W73481  43.026  10.329   1.841
 1953W        W73482   5.158  34.599   3.090
 1954W        W73483  12.175   8.018   4.538
 1955W        W73484  32.454  27.144  14.040
 1956W        W73485   4.174  16.210  12.874
 1957W        W73486  19.132   0.820   0.801
 1958W        W73487  44.813  25.160  12.410
 1959W        W73488  27.197  31.906   3.177
 1960W        W73489   5.930  17.769  11.980
 1961W        W73490  31.408  36.827   0.772
 1962W        W73491  32.700  27.263  14.492
 1963W        W73492  44.727   8.337  12.514
 1964W        W73493  35.960  21.590  10.794
 1965W        W73494   3.721  14.071  14.790
 1966W        W73495   7.396  35.855   2.242
 1967W        W73496  27.583  33.284   4.137
 1968W        W73497   2.535   5.037  12.278
 1969W        W73498  30.296   0.827  11.156
 1970W        W73499   6.869  40.040  11.900
 1971W        W73500  41.188  36.822  10.755
 1972W        W73501  12.195  33.108   1.512
 1973W        W73502   7.546  23.936   3.668
 1974W        W73503  23.026  32.423   4.459
 1975W        W73504   4.679  29.152  10.184
 1976W        W73505   8.435  31.445   2.212
 1977W        W73506  24.087  20.967   1.685
 1978W        W73507   6.163  34.247   4.069
 1979W        W73508  14.804  12.258   2.942
 1980W        W73509  11.832  19.405  14.752
 1981W        W73510  12.760  33.120   2.242
 1982W        W73511  24.571  18.832  11.627
 1983W        W73512  38.581  12.903   1.639
 1984W        W73513  26.117  15.687  12.189
 1985W        W73514  21.910  30.001  10.723
 1986W        W73515  20.187   6.182   1.392
 1987W        W73516   0.335  22.945  10.657
 1988W        W73517  26.099  34.436   3.921
 1989W        W73518  39.563  27.069  10.703
 1990W        W73519  31.503   5.369   2.780
 1991W        W73520  37.215  18.144  12.986
 1992W        W73521  31.538  25.505   1.334
 1993W        W73522  42.435  12.884   3.629
 1994W        W73523  33.573  27.619   3.566
 1995W        W73524  16.022  14.600  11.226
 1996W        W73525  20.540  39.468  12.295
 1997W        W73526   7.963  30.916  11.179
 1998W        W73527  17.993  34.634   4.372
 1999W        W73528   3.822   7.024   0.782
 2000W        W73529  21.670  37.105  12.883
 2001W        W73530   4.827  24.861  13.839
 2002W        W73531  14.550  28.057   4.989
 2003W        W73532  37.855  32.968  12.970
 2004W        W73533  26.255   1.864   3.881
 2005W        W73534  13.342  44.044   4.205
 2006W        W73535  33.448   5.232  12.507
 2007W        W73536   0.912   0.572   1.439
 2008W        W73537  21.227  22.147  12.203
 2009W        W73538  37.767  27.505   0.789
 2010W        W73539  11.474  31.613   2.271
 2011W        W73540  32.230  16.556   4.063
 2012W        W73541  29.886  40.977   2.562
 2013W        W73542  44.215  21.802   4.079
 2014W        W73543  34.100   7.930  14.873
 2015W        W73544  15.684  38.782  11.154
 2016W        W73545   5.690   3.360  12.996
 2017W        W73546  28.227  10.596  10.411
 2018W        W73547  18.292  38.282  13.418
 2019W        W73548  38.143  24.017   2.224
 2020W        W73549  44.332  13.092  11.490
 2021W        W73550  24.735  24.490  13.509
 2022W        W73551  27.694  33.857  12.637
 2023W        W73552  24.256  41.424  12.494
 2024W        W73553  25.652  17.057  10.321
 2025W        W73554  34.656  42.641  14.744
 2026W        W73555  11.578  35.073   1.817
 2027W        W73556  17.244  11.409   3.415
 2028W        W73557  17.518  12.601  14.666
 2029W        W73558  16.207  26.011   0.133
 2030W        W73559   5.925  21.488  12.194
 2031W        W73560  11.658  10.679   4.153
 2032W        W73561  38.912   9.284  13.098
 2033W        W73562  40.537  32.455  12.820
 2034W        W73563   6.822  29.798  11.477
 2035W        W73564  22.485   7.636   3.186
 2036W        W73565  38.978  10.668   0.467
 2037W        W73566  41.888  17.750   0.359
 2038W        W73567  15.045  18.423   0.296
 2039W        W73568  32.453  27.587   4.566
 2040W        W73569  23.683  25.218   3.820
 2041W        W73570  44.139  24.253   4.996
 2042W        W73571  19.659  40.239   2.161
 2043W        W73572  38.980   2.618   3.742
 2044W        W73573   7.830  10.897  11.347
 2045W        W73574  39.055  13.081  10.938
 2046W        W73575  32.569  39.980   1.709
 2047W        W73576  18.470  10.440  14.795
 2048W        W73577  28.597  42.075   4.253
 2049W        W73578  33.926  42.496  11.900
 2050W        W73579   4.951  10.243   5.366
 2051W        W73580  33.501   7.473   0.404
 2052W        W73581  29.699  30.055   0.945
 2053W        W73582  18.496  27.102   3.685
 2054W        W73583  25.443  28.896  10.679
 2055W        W73584  43.385  40.397   4.632
 2056W        W73585  40.386  41.844  10.906
 2057W        W73586   3.834  13.077  11.542
 2058W        W73587  11.554  12.108   0.667
 2059W        W73588  16.314  38.639   2.800
 2060W        W73589   9.543   4.519  12.514
 2061W        W73590  18.595   0.499   3.799
 2062W        W73591   4.208  41.167  11.316
 2063W        W73592  16.833  15.545   0.786
 2064W        W73593  28.834  44.221   2.676
 2065W        W73594  16.731  34.654  14.224
 2066W        W73595   2.315  19.515  14.546
 2067W        W73596  25.045  18.650  10.681
 2068W        W73597   3.869  17.535   2.229
 2069W        W73598  34.432  14.021  10.621
 2070W        W73599   9.640   1.206  14.352
 2071W        W73600  32.728  22.636  14.513
 2072W        W73601  29.548  37.083  12.985
 2073W        W73602   0.999  32.309   2.901
 2074W        W73603   6.238  11.549   4.511
 2075W        W73604  40.351   8.934   3.564
 2076W        W73605   9.860  20.666   1.876
 2077W        W73606   8.170  26.643   2.235
 2078W        W73607   1.398  22.042  11.106
 2079W        W73608  13.153  37.687   2.812
 2080W        W73609   2.278  16.603   2.340
 2081W        W73610  15.245  35.813   0.755
 2082W        W73611  28.294   8.869  11.899
 2083W        W73612  35.933  33.022   4.107
 2084W        W73613  16.262  21.063  13.242
 2085W        W73614  40.403   4.855  11.227
 2086W        W73615  36.887  31.390   3.308
 2087W        W73616  25.096  34.912  10.749
 2088W        W73617   4.651  13.370  11.091
 2089W        W73618  29.021  25.380  12.593
 2090W        W73619  38.423   1.077   0.245
 2091W        W73620  32.502  19.120   3.890
 2092W        W73621  44.259  43.928   2.806
 2093W        W73622  18.295   8.960   3.883
 2094W        W73623  16.047   9.002   4.168
 2095W        W73624  12.285  11.133  14.469
 2096W        W73625  14.168  36.296   4.012
 2097W        W73626  11.705  42.817  14.005
 2098W        W73627  15.756   9.109   1.727
 2099W        W73628  25.694  19.617  11.159
 2100W        W73629  11.352  24.982   0.053
 2101W        W73630  37.597  38.024   2.170
 2102W        W73631   1.863  29.074   0.765
 2103W        W73632   5.311   5.501  13.680
 2104W        W73633  22.801  42.875  10.565
 2105W        W73634  43.967  33.597   5.350
 2106W        W73635  37.556  37.537   2.123
 2107W        W73636   1.182  30.967  10.931
 2108W        W73637  43.040   0.793   0.422
 2109W        W73638  26.941  14.055  14.938
 2110W        W73639  33.882  19.208  12.022
 2111W        W73640  18.107  36.835   3.598
 2112W        W73641  36.135  43.963  12.995
 2113W        W73642  20.220  26.182  11.936
 2114W        W73643  25.701  40.382   2.343
 2115W        W73644  41.520  36.427  14.388
 2116W        W73645   0.959  18.068  10.975
 2117W        W73646  30.826  36.504   4.290
 2118W        W73647  26.240  44.461   2.624
 2119W        W73648  37.990   3.036  13.725
 2120W        W73649   4.244  43.408   4.572
 2121W        W73650   4.909  16.528   2.707
 2122W        W73651  36.732  23.655  14.007
 2123W        W73652  26.080  34.530   4.432
 2124W        W73653  33.896  17.846  12.857
 2125W        W73654  10.900  25.535  11.635
 2126W        W73655  12.617  10.978   4.544
 2127W        W73656  12.755  36.188  12.100
 2128W        W73657  23.527  18.995  14.983
 2129W        W73658  27.708  41.324   3.409
 2130W        W73659   6.237  10.260  13.856
 2131W        W73660  30.880   9.827   0.414
 2132W        W73661  24.897  43.059   0.609
 2133W        W73662  24.743  31.283  14.422
 2134W        W73663   8.760  13.608  10.861
 2135W        W73664  41.746  25.224   1.320
 2136W        W73665  36.304  22.745   2.338
 2137W        W73666  22.213  30.214  13.457
 2138W        W73667   0.299  21.077  11.599
 2139W        W73668  25.011   0.098  11.080
 2140W        W73669  32.834  30.389   4.826
 2141W        W73670   0.934   8.826   2.247
 2142W        W73671  10.689   7.950  11.498
 2143W        W73672  22.045  19.336  11.887
 2144W        W73673  20.422   4.437  12.304
 2145W        W73674  38.590  40.269   4.555
 2146W        W73675  15.849  41.086  11.673
 2147W        W73676  16.589  35.135   3.788
 2148W        W73677  25.887  30.131  11.091
 2149W        W73678  36.998  39.790   1.353
 2150W        W73679   8.530   2.311   4.105
 2151W        W73680   4.194  16.557   5.053
 2152W        W73681  30.009  19.277  10.495
 2153W        W73682  14.182  38.759   3.275
 2154W        W73683  20.266   4.412   0.732
 2155W        W73684  26.136  28.943   0.050
 2156W        W73685  30.418   0.288   3.249
 2157W        W73686   2.931  15.784  10.687
 2158W        W73687  23.077  33.118  14.819
 2159W        W73688   0.299  35.505  13.804
 2160W        W73689  41.760  23.965   2.288
 2161W        W73690  27.938  40.001   1.727
 2162W        W73691   9.239  19.216  13.060
 2163W        W73692  11.264   4.767  14.081
 2164W        W73693  13.559  21.800   1.838
 2165W        W73694   1.997  30.821  13.873
 2166W        W73695  34.435  28.404   1.686
 2167W        W73696  22.116  24.558  11.072
 2168W        W73697   7.355  17.110  11.117
 2169W        W73698  11.657  24.093   4.195
 2170W        W73699  30.745   8.888  11.410
 2171W        W73700  37.645  32.502  13.227
 2172W        W73701  14.404  29.520  12.960
 2173W        W73702  42.061   9.168   3.600
 2174W        W73703  41.874   9.030  11.574
 2175W        W73704  31.711   8.329   4.756
 2176W        W73705  35.324  32.605  10.725
 2177W        W73706   3.924   1.779   0.757
 2178W        W73707   3.255  13.687   4.296
 2179W        W73708  37.887  29.086  14.821
 2180W        W73709  40.182  38.114  11.528
 2181W        W73710  15.542   1.416  11.630
 2182W        W73711   4.772  24.172   4.646
 2183W        W73712   6.705  15.017  13.962
 2184W        W73713  33.939   6.157   0.372
 2185W        W73714  14.355  21.013  12.254
 2186W        W73715  32.881  23.229   5.517
 2187W        W73716  44.242  18.432   2.741
 2188W        W73717  41.006  42.980   0.972
 2189W        W73718  38.663  30.637   0.411
 2190W        W73719  23.986  18.624  13.093
 2191W        W73720   8.258  44.453   4.467
 2192W        W73721   9.958  19.155  11.140
 2193W        W73722  38.007  39.895   3.826
 2194W        W73723  43.910   2.139   4.172
 2195W        W73724  42.825   4.758   3.135
 2196W        W73725  39.032  39.760   3.783
 2197W        W73726  21.416  43.494  12.037
 2198W        W73727  42.412  40.440  12.060
 2199W        W73728  25.889  38.329  11.595
 2200W        W73729  20.453  23.634   0.378
 2201W        W73730   9.159  25.389   4.127
 2202W        W73731  16.616  31.070  13.515
 2203W        W73732  24.231  18.262   3.293
 2204W        W73733  27.636  20.262   1.470
 2205W        W73734  28.576  18.585   1.452
 2206W        W73735  36.088  44.295   1.906
 2207W        W73736  29.303  25.092  14.718
 2208W        W73737  30.194  28.646   0.327
 2209W        W73738   6.270  22.410  14.392
 2210W        W73739   7.625  15.235  11.737
 2211W        W73740  20.557  11.831   0.340
 2212W        W73741   8.337  36.500   4.600
 2213W        W73742  13.356   1.207  11.221
 2214W        W73743  19.818  36.631   5.078
 2215W        W73744  10.618  23.621   2.131
 2216W        W73745  37.844  34.043  10.369
 2217W        W73746  23.630  19.852   2.723
 2218W        W73747   2.121  40.348   1.686
 2219W        W73748  32.405  24.575  13.285
 2220W        W73749   7.658  37.829   3.032
 2221W        W73750  41.091  37.609  14.931
 2222W        W73751  16.797  36.596  11.158
 2223W        W73752   7.647  42.987  13.467
 2224W        W73753  19.791  25.187   0.403
 2225W        W73754  27.261  15.113   4.579
 2226W        W73755   7.770  40.276  10.614
 2227W        W73756  39.284  43.355  12.192
 2228W        W73757  10.000  26.999   1.470
 2229W        W73758  17.583   6.718   3.135
 2230W        W73759  10.243  20.028  12.811
 2231W        W73760   5.880   4.986   0.264
 2232W        W73761  13.566  17.369  12.024
 2233W        W73762  17.430  31.607   4.509
 2234W        W73763  16.151  19.598   1.672
 2235W        W73764  23.020  17.617   2.385
 2236W        W73765  15.863  44.238   2.292
 2237W        W73766  40.073  22.662  12.024
 2238W        W73767   1.007  19.934   1.935
 2239W        W73768  18.564  15.992   3.263
 2240W        W73769  31.593   7.527  12.982
 2241W        W73770  11.250  23.047   0.828
 2242W        W73771  39.851  26.238  14.736
 2243W        W73772  35.569  34.681  12.903
 2244W        W73773   0.711  27.666  12.820
 2245W        W73774  31.858   6.408   1.661
 2246W        W73775  20.853   7.384   1.388
 2247W        W73776  22.125  13.688  10.596
 2248W        W73777  41.595  10.730   4.609
 2249W        W73778  37.711  38.498   1.508
 2250W        W73779  19.148  10.859  12.929
 2251W        W73780  16.506   7.373  11.982
 2252W        W73781  23.283  20.632  14.380
 2253W        W73782  18.681  34.719   4.110
 2254W        W73783  22.920  41.505   2.858
 2255W        W73784  15.338  11.309  11.586
 2256W        W73785  39.405  15.034  14.832
 2257W        W73786  44.931  33.940   0.083
 2258W        W73787  31.151   8.283  14.016
 2259W        W73788  26.609  32.331  14.347
 2260W        W73789   5.175  41.018  11.073
 2261W        W73790  25.748   8.348  11.119
 2262W        W73791   8.870   4.863  14.859
 2263W        W73792  13.182   6.940  12.788
 2264W        W73793  27.239   5.957  12.976
 2265W        W73794  35.602  40.192  11.280
 2266W        W73795  29.030  21.557  12.113
 2267W        W73796  14.197  26.692  10.724
 2268W        W73797  16.116  13.584   1.599
 2269W        W73798   7.433  39.013   3.531
 2270W        W73799  20.044  22.780   0.840
 2271W        W73800   1.901   9.719   4.670
 2272W        W73801  17.914  38.640  13.368
 2273W        W73802  18.906  43.849  10.967
 2274W        W73803  42.944  28.159   4.524
 2275W        W73804  31.353   8.249   2.043
 2276W        W73805  23.617  36.979   2.679
 2277W        W73806  42.664  14.283  13.567
 2278W        W73807   5.817  37.615  13.495
 2279W        W73808  44.780  34.017  13.564
 2280W        W73809  12.275  36.312  10.839
 2281W        W73810  26.437   7.852  14.194
 2282W        W73811  31.919  16.468  12.541
 2283W        W73812  23.282   5.180   1.365
 2284W        W73813  24.204  28.533   4.179
 2285W        W73814  35.083  28.535  13.404
 2286W        W73815  28.667  30.274  13.060
 2287W        W73816  38.829  44.698  13.522
 2288W        W73817  21.808   8.907   2.308
 2289W        W73818  34.120  15.620   0.292
 2290W        W73819  20.021   5.771  12.425
 2291W        W73820   6.865  16.803  13.207
 2292W        W73821  19.454   9.162   4.613
 2293W        W73822  40.450  32.010  14.839
 2294W        W73823  15.491   1.492  12.493
 2295W        W73824  11.773   8.298   2.712
 2296W        W73825  17.586  27.838   9.844
 2297W        W73826  33.068   4.477   1.818
 2298W        W73827  38.539  13.435   0.009
 2299W        W73828  38.897  32.663  10.701
 2300W        W73829  40.415  17.832  11.118
 2301W        W73830   6.964  28.081   4.663
 2302W        W73831  17.753   2.639   3.285
 2303W        W73832  36.066  22.303  12.657
 2304W        W73833  23.003  33.844  11.192
 2305W        W73834  42.741  32.889   1.695
 2306W        W73835  18.224  34.581  12.023
 2307W        W73836  14.016  41.656   2.752
 2308W        W73837   3.947   1.246   0.761
 2309W        W73838  25.683  13.333   3.809
 2310W        W73839  28.844  38.504  12.962
 2311W        W73840   4.825  15.319   3.241
 2312W        W73841  22.062  22.926  10.900
 2313W        W73842  27.063   2.255   1.400
 2314W        W73843   6.663  16.250   0.332
 2315W        W73844  21.287  19.145  14.731
 2316W        W73845   1.487  27.576  13.955
 2317W        W73846  20.144  28.471  13.754
 2318W        W73847  27.519  34.734   4.953
 2319W        W73848  26.295  14.563   3.729
 2320W        W73849  23.944  37.329  10.546
 2321W        W73850  30.412  10.206   0.732
 2322W        W73851  32.121  22.083  14.712
 2323W        W73852  10.412  16.510  10.932
 2324W        W73853  13.683  19.723  13.304
 2325W        W73854  30.684   3.028  11.524
 2326W        W73855  39.554  33.852  13.641
 2327W        W73856  42.925  10.855  14.036
 2328W        W73857   3.973  37.541   4.482
 2329W        W73858  19.498   6.147  10.787
 2330W        W73859  25.285  29.481   4.156
 2331W        W73860  44.435   5.811   0.539
 2332W        W73861  36.920   4.646   2.362
 2333W        W73862   3.374   1.667   3.109
 2334W        W73863  22.621  33.079   3.784
 2335W        W73864  28.678  19.091  12.874
 2336W        W73865  11.828  43.313   3.309
 2337W        W73866   0.403  17.266  12.327
 2338W        W73867  34.149  17.087   3.623
 2339W        W73868  35.548  32.149   0.047
 2340W        W73869  42.053  22.439   4.774
 2341W        W73870  10.651   2.917   1.193
 2342W        W73871   5.472  26.403   0.224
 2343W        W73872  35.522   8.411   2.415
 2344W        W73873   8.820  18.830   0.770
 2345W        W73874  27.571  11.749   3.841
 2346W        W73875   1.350  27.802  14.462
 2347W        W73876   5.712   8.285   0.038
 2348W        W73877  12.375  32.050  10.342
 2349W        W73878  11.431  14.217   4.167
 2350W        W73879  27.705   6.385   3.387
 2351W        W73880  21.271  39.968   0.994
 2352W        W73881  33.302   5.340  14.889
 2353W        W73882  28.366  29.879   3.336
 2354W        W73883  21.266  31.733  13.554
 2355W        W73884  20.993  19.693   2.388
 2356W        W73885  28.005  23.114   2.258
 2357W        W73886  30.377  11.715  11.623
 2358W        W73887  31.605  35.492  13.959
 2359W        W73888  15.036   3.322   0.765
 2360W        W73889  31.052  30.083   4.203
 2361W        W73890  42.792   8.850   0.024
 2362W        W73891  27.255  24.358   2.148
 2363W        W73892  16.933  28.169   0.531
 2364W        W73893   9.288  27.535  14.504
 2365W        W73894  39.619   7.345  11.072
 2366W        W73895   9.795  27.969   2.989
 2367W        W73896  41.717   8.859   4.198
 2368W        W73897  25.745   5.319  13.832
 2369W        W73898  26.911  38.097  13.857
 2370W        W73899  28.197  19.200  13.007
 2371W        W73900  23.650  12.661  11.991
 2372W        W73901  43.294  23.774  13.112
 2373W        W73902  21.205  43.026  11.225
 2374W        W73903  41.533  14.184   3.246
 2375W        W73904  10.733   5.321   1.483
 2376W        W73905  18.614  41.735   0.264
 2377W        W73906   4.188  29.219  13.953
 2378W        W73907  13.725   8.178  12.910
 2379W        W73908  18.154  32.998   2.361
 2380W        W73909  39.269  17.553  13.382
 2381W        W73910   1.166  29.059   3.857
 2382W        W73911  30.017  39.044  12.537
 2383W        W73912  44.830  20.813  14.764
 2384W        W73913   6.907  25.475   0.224
 2385W        W73914   2.369  32.888   4.062
 2386W        W73915  29.460  20.158   4.824
 2387W        W73916  20.165  28.667   3.264
 2388W        W73917  37.837   9.199   0.003
 2389W        W73918  28.215   0.384   4.239
 2390W        W73919   4.876   6.180  14.852
 2391W        W73920  38.598  11.084   2.329
 2392W        W73921   1.761  44.010  12.910
 2393W        W73922  35.041  23.623   1.331
 2394W        W73923   2.764  43.274  14.036
 2395W        W73924  13.480  11.368  12.087
 2396W        W73925  22.186  38.265  13.987
 2397W        W73926   3.657   3.348   2.420
 2398W        W73927   6.489  24.603   4.947
 2399W        W73928   0.315  23.292   3.166
 2400W        W73929  33.365  27.391   4.002
 2401W        W73930  34.031  37.660  14.573
 2402W        W73931  20.800  22.595   1.274
 2403W        W73932   8.468  38.796   1.682
 2404W        W73933  20.352   8.763  14.380
 2405W        W73934  14.173  39.936   2.295
 2406W        W73935  36.855   3.489   4.776
 2407W        W73936  31.697  27.541  13.612
 2408W        W73937  14.704  10.415  13.044
 2409W        W73938  29.980  21.662  14.508
 2410W        W73939  12.393  17.541  13.543
 2411W        W73940  41.319  10.163  12.757
 2412W        W73941   6.756  21.165   2.404
 2413W        W73942   9.141  25.869   4.838
 2414W        W73943  27.989  34.722  12.622
 2415W        W73944   4.830  28.577   0.605
 2416W        W73945  42.789  30.060   4.562
 2417W        W73946  28.066   0.080   3.822
 2418W        W73947  22.184  28.493  12.627
 2419W        W73948  22.457  34.168   3.674
 2420W        W73949  19.039  16.109  13.957
 2421W        W73950  33.256  41.461   1.189
 2422W        W73951  29.645  20.147   2.392
 2423W        W73952  23.508  43.101   2.818
 2424W        W73953  41.312  32.744   2.891
 2425W        W73954  41.352  23.736   2.517
 2426W        W73955  38.292  35.353  12.901
 2427W        W73956  35.337   5.817  13.842
 2428W        W73957  41.051  37.437   1.917
 2429W        W73958  16.756  28.493  11.104
 2430W        W73959  37.090  33.225   2.753
 2431W        W73960  36.404  30.951  14.718
 2432W        W73961  11.903   4.799   3.688
 2433W        W73962  28.493  30.866  12.255
 2434W        W73963  27.045  33.432  12.189
 2435W        W73964  34.573  28.916  14.717
 2436W        W73965  15.133  10.896   4.535
 2437W        W73966   6.716  38.408   2.783
 2438W        W73967   4.795  21.091   4.995
 2439W        W73968   1.071  35.861  12.631
 2440W        W73969  36.939  24.250  14.887
 2441W        W73970  33.904  21.354  10.676
 2442W        W73971   2.006  12.896   1.934
 2443W        W73972  25.425  14.744  13.883
 2444W        W73973  10.755  31.779  13.710
 2445W        W73974  24.848  16.001  11.227
 2446W        W73975  21.263   2.381   3.336
 2447W        W73976  17.433   4.272   4.224
 2448W        W73977   2.787  11.697   2.471
 2449W        W73978  25.739  15.988   1.651
 2450W        W73979  36.161  23.013  13.649
 2451W        W73980  20.626  40.926   5.084
 2452W        W73981  32.696  27.915   3.138
 2453W        W73982  40.948  19.715   1.869
 2454W        W73983  40.768   7.897  12.055
 2455W        W73984  25.443   1.975   3.722
 2456W        W73985  25.083  27.700   1.799
 2457W        W73986  23.635   1.328  13.606
 2458W        W73987  34.551  26.715   4.636
 2459W        W73988  38.519  27.738  14.400
 2460W        W73989  12.398   2.206   1.212
 2461W        W73990   3.835   0.425  10.445
 2462W        W73991   7.191  38.513  12.948
 2463W        W73992  33.653  34.939  14.948
 2464W        W73993  29.647  44.510   3.694
 2465W        W73994  11.905  25.466  11.504
 2466W        W73995  11.703  34.941  10.747
 2467W        W73996  22.458  10.789  14.845
 2468W        W73997  29.196  11.292   2.225
 2469W        W73998  19.063   3.379   3.711
 2470W        W73999  13.244  27.828  11.486
 2471W        W74000  26.551  30.458   0.847
 2472W        W74001  37.529   2.317   1.361
 2473W        W74002  25.843   2.948   5.141
 2474W        W74003  21.717  27.052  12.945
 2475W        W74004   0.867  40.177   0.783
 2476W        W74005  13.902  29.891  10.787
 2477W        W74006  16.669  34.903   4.293
 2478W        W74007  43.839  26.811  10.751
 2479W        W74008  15.179  43.530  14.429
 2480W        W74009  43.899  12.566  12.130
 2481W        W74010  11.331  28.889   2.157
 2482W        W74011  22.172  32.097   4.067
 2483W        W74012  22.211  26.845   1.240
 2484W        W74013   6.192  30.664  13.862
 2485W        W74014   3.236   2.720   3.877
 2486W        W74015  16.139  41.771  10.610
 2487W        W74016   2.530   6.646   0.328
 2488W        W74017  37.945  44.000  12.945
 2489W        W74018  19.812  42.934   0.845
 2490W        W74019  34.150  21.253   3.153
 2491W        W74020  16.048  42.450   2.710
 2492W        W74021  41.731  18.094  11.774
 2493W        W74022  18.213  16.072   2.295
 2494W        W74023  25.439  38.484  12.904
 2495W        W74024  23.946  31.968   4.619
 2496W        W74025  10.774   6.221   0.506
 2497W        W74026  41.382  37.570  13.039
 2498W        W74027   9.393  29.708  14.868
 2499W        W74028   5.402   0.992  13.875
 2500W        W74029  19.049  39.063   3.180
 2501W        W74030   4.964  39.485   4.540
 2502W        W74031  22.287   1.076  14.824
 2503W        W74032  14.855  31.561   4.634
 2504W        W74033  18.692  10.593  12.970
 2505W        W74034  23.934  43.793  11.339
 2506W        W74035  10.881   3.696  10.803
 2507W        W74036  18.082  30.127   0.279
 2508W        W74037  17.068   4.724   2.374
 2509W        W74038  19.032  43.984  14.921
 2510W        W74039  40.882  24.650  14.936
 2511W        W74040  29.019  29.203  13.532
 2512W        W74041  15.177  19.401   1.374
 2513W        W74042  36.659  20.007  11.841
 2514W        W74043  19.812  20.056   3.163
 2515W        W74044  28.744   8.738   1.948
 2516W        W74045  14.077  34.407   2.064
 2517W        W74046  37.778  42.962   3.752
 2518W        W74047   3.590   3.256   4.710
 2519W        W74048  36.571   6.726   3.677
 2520W        W74049  41.453  24.223  12.528
 2521W        W74050  13.938   4.365   0.923
 2522W        W74051  14.650  16.534  13.196
 2523W        W74052  42.543  44.557   1.254
 2524W        W74053  30.959  33.441   0.213
 2525W        W74054  25.319  32.376  13.837
 2526W        W74055  19.316  18.299  10.879
 2527W        W74056  40.694  15.120   2.219
 2528W        W74057  44.344  33.320  12.786
 2529W        W74058  23.444   4.281   1.317
 2530W        W74059  39.997   7.750  12.459
 2531W        W74060   8.389  39.433   0.002
 2532W        W74061  15.876  25.158   2.729
 2533W        W74062  36.506  42.223  14.683
 2534W        W74063  29.378  31.179  12.491
 2535W        W74064   1.307  22.657  14.912
 2536W        W74065  23.562  38.315  10.966
 2537W        W74066  14.574  40.252  14.568
 2538W        W74067   7.346  43.146   3.359
 2539W        W74068  30.943  15.653   4.041
 2540W        W74069  36.763  13.968   2.226
 2541W        W74070   7.336  34.812   2.712
 2542W        W74071   4.607  28.880  14.592
 2543W        W74072  15.129  24.550  11.200
 2544W        W74073  22.575  41.970   4.844
 2545W        W74074  13.686  17.979   2.182
 2546W        W74075  22.475   3.393  13.286
 2547W        W74076  32.131  24.032  12.657
 2548W        W74077  16.297  35.163  12.970
 2549W        W74078  44.850  19.768  13.906
 2550W        W74079   3.510  12.106   4.003
 2551W        W74080  16.678  38.956   1.250
 2552W        W74081  44.209  42.560   0.498
 2553W        W74082  37.238  26.148  13.378
 2554W        W74083   7.678   6.368  13.891
 2555W        W74084  21.182  20.669   0.378
 2556W        W74085   1.669   9.362   2.556
 2557W        W74086  40.298  38.430  13.506
 2558W        W74087   8.655  26.071   0.484
 2559W        W74088  34.685  43.809   4.241
 2560W        W74089   3.451  11.734   4.583
 2561W        W74090  13.583  32.930   2.071
 2562W        W74091  35.217  40.418   0.828
 2563W        W74092   4.373  22.184  14.420
 2564W        W74093   4.170  23.017  11.146
 2565W        W74094  12.458  23.276   3.798
 2566W        W74095  20.227   8.763   1.997
 2567W        W74096  12.737  19.574   2.723
 2568W        W74097  34.566  14.700   0.973
 2569W        W74098   2.525  15.788  12.988
 2570W        W74099  25.946  12.084  10.641
 2571W        W74100   5.629   5.214   1.659
 2572W        W74101   0.076   9.305   4.805
 2573W        W74102  40.402   6.917   1.638
 2574W        W74103  35.615  25.262  11.030
 2575W        W74104  38.429  39.467   1.238
 2576W        W74105  12.465  13.825  12.940
 2577W        W74106  43.490   3.995   0.734
 2578W        W74107  26.105   2.608  13.841
 2579W        W74108  10.162  41.727   2.318
 2580W        W74109  28.008  40.051  11.695
 2581W        W74110   7.289   0.613  12.536
 2582W        W74111  31.979  43.199   4.125
 2583W        W74112  42.301   9.041   2.454
 2584W        W74113   3.990  39.873  14.469
 2585W        W74114   0.118  43.466   3.658
 2586W        W74115  26.698  33.213  11.058
 2587W        W74116  34.841  16.352   3.075
 2588W        W74117  29.578  43.021  11.601
 2589W        W74118  28.594  25.889  14.006
 2590W        W74119  16.528  12.715   1.275
 2591W        W74120  36.044  16.309  11.074
 2592W        W74121  13.333  35.468   4.660
 2593W        W74122   2.916  44.998   2.996
 2594W        W74123  21.587   9.577   2.800
 2595W        W74124  23.887   7.295  11.114
 2596W        W74125  13.645  34.208   2.263
 2597W        W74126  20.959  17.794   1.446
 2598W        W74127   8.657  39.930   1.361
 2599W        W74128  12.867  27.963   2.066
 2600W        W74129  21.690  31.647  10.521
 2601W        W74130  36.017  32.896  11.952
 2602W        W74131   6.205  10.132   1.649
 2603W        W74132  42.993   7.130   3.310
 2604W        W74133   5.070   7.781  10.703
 2605W        W74134  16.312  36.548   4.177
 2606W        W74135  18.838  27.070   1.712
 2607W        W74136  27.257  40.814   4.494
 2608W        W74137   0.382   7.646   0.613
 2609W        W74138  32.933  17.712  10.629
 2610W        W74139  44.158   3.992   1.688
 2611W        W74140  12.358  24.715   4.623
 2612W        W74141  15.102  41.266  13.434
 2613W        W74142   0.444  26.999  10.731
 2614W        W74143  41.246  15.159  14.903
 2615W        W74144  42.793  25.508  13.088
 2616W        W74145  29.949  44.124  10.104
 2617W        W74146  32.533  10.192  14.355
 2618W        W74147   8.864  20.581   1.639
 2619W        W74148  29.351  28.304   4.941
 2620W        W74149  35.981   4.966   2.175
 2621W        W74150  33.949  23.077  11.127
 2622W        W74151  32.085  42.648   1.443
 2623W        W74152  34.855  10.237  13.039
 2624W        W74153  16.720  26.447  11.106
 2625W        W74154   3.057  23.953  12.926
 2626W        W74155  13.357  40.391  12.091
 2627W        W74156  32.423  23.350   4.400
 2628W        W74157  42.046  24.278   2.701
 2629W        W74158  44.974  17.400   0.396
 2630W        W74159  34.853  19.595   3.584
 2631W        W74160  43.879  18.097   4.693
 2632W        W74161  10.765   7.305  13.127
 2633W        W74162   5.314  25.674  11.996
 2634W        W74163  16.731  26.961   1.585
 2635W        W74164  23.416  18.727   5.000
 2636W        W74165   5.472  41.374   4.783
 2637W        W74166  21.684  41.263  11.659
 2638W        W74167   0.977   8.027  11.371
 2639W        W74168  42.438  23.453  14.073
 2640W        W74169  33.419  12.870  10.705
 2641W        W74170   3.362  34.974  14.920
 2642W        W74171   8.821  20.673   0.647
 2643W        W74172   2.486   7.926   4.707
 2644W        W74173  14.847  18.667  11.023
 2645W        W74174  39.538  43.082  13.260
 2646W        W74175  24.762  14.599  14.482
 2647W        W74176  30.080  21.176  14.267
 2648W        W74177  28.275  22.811   3.245
 2649W        W74178  44.348   6.154   0.176
 2650W        W74179  10.733  19.125   4.093
 2651W        W74180  40.029  23.045  12.586
 2652W        W74181   0.210  25.594   2.494
 2653W        W74182  41.016  17.959   2.115
 2654W        W74183  26.389  37.457   3.879
 2655W        W74184  30.598  18.246   3.711
 2656W        W74185  30.504  34.561   1.863
 2657W        W74186  26.499   3.922   1.481
 2658W        W74187   2.769  15.863  11.986
 2659W        W74188  37.938  16.082  12.398
 2660W        W74189  22.210   9.675   1.832
 2661W        W74190  27.400  14.257   4.533
 2662W        W74191   8.372  39.504  10.895
 2663W        W74192  35.903  26.885   3.927
 2664W        W74193  21.571  43.461   2.418
 2665W        W74194   5.118  37.305  13.429
 2666W        W74195  29.591  24.076   2.512
 2667W        W74196  42.549  41.821  11.497
 2668W        W74197  21.699  36.825   4.641
 2669W        W74198  13.303  28.415  11.936
 2670W        W74199   7.360   3.137   2.430
 2671W        W74200  12.447  17.986  14.951
 2672W        W74201  26.961  13.642  12.898
 2673W        W74202   7.154  15.237   2.555
 2674W        W74203  25.452  17.199   0.009
 2675W        W74204  27.608  40.507  12.045
 2676W        W74205   9.328  24.361  10.649
 2677W        W74206  13.289  26.938  11.565
 2678W        W74207  10.159   9.839   2.321
 2679W        W74208  25.497  14.516   2.016
 2680W        W74209  34.073  13.187  14.061
 2681W        W74210   3.266  17.591  14.584
 2682W        W74211  33.389   2.745  11.113
 2683W        W74212  17.442  33.914   1.423
 2684W        W74213  23.738  20.605  12.075
 2685W        W74214  17.070   9.799   3.673
 2686W        W74215   3.759   3.396  12.299
 2687W        W74216   8.373  41.038  13.330
 2688W        W74217  31.151  44.237  11.512
 2689W        W74218  20.663  13.893   4.588
 2690W        W74219  39.491  42.754   3.841
 2691W        W74220  11.441  17.073  13.530
 2692W        W74221  34.619  21.546   2.886
 2693W        W74222  38.045  41.244  10.787
 2694W        W74223  16.165  41.125   0.985
 2695W        W74224  16.775  37.599  14.062
 2696W        W74225  17.204  11.918   1.324
 2697W        W74226  18.119  18.147  12.352
 2698W        W74227   4.137  17.077  12.189
 2699W        W74228  38.512  10.238   0.302
 2700W        W74229  37.839   1.412   0.944
 2701W        W74230  36.157  25.806  10.512
 2702W        W74231  40.019  30.561  14.480
 2703W        W74232  41.084  16.904   0.889
 2704W        W74233   1.261  30.672  11.502
 2705W        W74234   9.859  34.922   5.026
 2706W        W74235  25.028   1.338  14.958
 2707W        W74236   4.361   5.186   1.972
 2708W        W74237  10.575  21.996  14.561
 2709W        W74238  16.265   7.519   4.094
 2710W        W74239  31.873  17.711  13.084
 2711W        W74240  18.145  24.537  13.959
 2712W        W74241   7.420  33.962   0.200
 2713W        W74242  40.260  10.196  14.492
 2714W        W74243  23.429  31.612  11.418
 2715W        W74244  30.913  27.252  14.796
 2716W        W74245  11.471  10.417   0.930
 2717W        W74246  31.400   9.056   1.472
 2718W        W74247  36.107  16.701   0.369
 2719W        W74248  21.168  11.664  14.522
 2720W        W74249  28.983   5.216  14.782
 2721W        W74250  38.346   2.659   1.455
 2722W        W74251   1.233  40.847  14.827
 2723W        W74252  30.071  41.388   1.728
 2724W        W74253  12.158  37.018  10.394
 2725W        W74254   6.272  19.166   0.916
 2726W        W74255  14.331  20.761   3.077
 2727W        W74256  27.367  31.532   5.019
 2728W        W74257   0.014  36.346   3.662
 2729W        W74258  40.807   9.831   0.231
 2730W        W74259   9.963   4.179   0.266
 2731W        W74260  29.550  43.708  11.961
 2732W        W74261   5.553  43.873   1.293
 2733W        W74262  21.007  22.669  13.406
 2734W        W74263  13.287  41.803   2.192
 2735W        W74264  10.641  39.572  12.091
 2736W        W74265  20.569  31.592   4.452
 2737W        W74266   8.021  37.573   1.913
 2738W        W74267  34.933   1.797   3.308
 2739W        W74268   5.505  26.611  14.220
 2740W        W74269  43.729  39.122   0.751
 2741W        W74270  15.168  44.847  11.563
 2742W        W74271  21.945  14.101   1.668
 2743W        W74272  34.973  44.853   0.403
 2744W        W74273  40.071  37.617   2.882
 2745W        W74274  43.841  20.958  11.416
 2746W        W74275  19.047  12.244  13.357
 2747W        W74276   3.459   6.200   4.177
 2748W        W74277  26.739  36.939  14.320
 2749W        W74278  23.117  40.488  14.452
 2750W        W74279  22.050  10.296   3.159
 2751W        W74280  17.569   1.636  11.482
 2752W        W74281  12.761  41.756  13.548
 2753W        W74282  14.001  34.199  11.336
 2754W        W74283  24.063  34.332  13.356
 2755W        W74284  39.609  43.025   5.221
 2756W        W74285  31.472  22.129  14.093
 2757W        W74286  22.503  11.126  10.298
 2758W        W74287  10.655  43.953   4.499
 2759W        W74288  11.913  30.292  13.962
 2760W        W74289  39.147  21.642   0.907
 2761W        W74290  11.315  27.963  10.784
 2762W        W74291  32.945   8.792  12.256
 2763W        W74292  17.324   0.761   4.350
 2764W        W74293   6.440  41.375   3.736
 2765W        W74294  39.037   4.541   2.240
 2766W        W74295  22.620   5.237  10.641
 2767W        W74296  34.584  16.283  12.588
 2768W        W74297  34.474  18.114   4.573
 2769W        W74298  33.910  18.781  10.702
 2770W        W74299  33.318  19.979   2.886
 2771W        W74300   2.456   6.773   3.037
 2772W        W74301   2.385  42.007   0.535
 2773W        W74302  18.005  39.350  12.478
 2774W        W74303  43.429  38.884  10.444
 2775W        W74304   9.281   2.724   3.721
 2776W        W74305  37.284   3.751  11.397
 2777W        W74306  37.691  36.897   2.849
 2778W        W74307  19.868  32.481  14.382
 2779W        W74308  12.813   6.031  11.042
 2780W        W74309  17.757  44.420   1.283
 2781W        W74310   6.299  44.712   2.887
 2782W        W74311   6.450  30.521  12.908
 2783W        W74312  39.879   7.573   0.960
 2784W        W74313   0.131  39.276  11.130
 2785W        W74314  27.668  38.391  13.971
 2786W        W74315  15.687  37.098  10.767
 2787W        W74316  30.181  30.670   4.169
 2788W        W74317  36.351   5.214   1.378
 2789W        W74318  26.136   1.620   1.005
 2790W        W74319  41.896  30.866  11.972
 2791W        W74320  30.651  12.483   2.130
 2792W        W74321  19.659  44.857   1.438
 2793W        W74322  37.947  30.107  14.913
 2794W        W74323  10.140  28.104   0.447
 2795W        W74324  41.000  42.859   4.078
 2796W        W74325  43.964  37.190  14.295
 2797W        W74326  30.767  29.548   2.442
 2798W        W74327  16.758  42.440  13.057
 2799W        W74328   7.745   3.283   2.754
 2800W        W74329  35.805   9.926  11.522
 2801W        W74330  18.119  44.950  12.366
 2802W        W74331  19.078   1.924   1.193
 2803W        W74332  14.258  12.556   2.289
 2804W        W74333  10.714  24.435  12.113
 2805W        W74334  43.602  35.095   0.857
 2806W        W74335  39.494  40.989   2.130
 2807W        W74336  28.215   1.489  11.031
 2808W        W74337  41.925  14.671  12.152
 2809W        W74338   6.411   5.131   3.298
 2810W        W74339  40.530  21.335   4.083
 2811W        W74340  11.659  42.257   4.143
 2812W        W74341  36.978  35.481   4.835
 2813W        W74342  30.510  37.310   2.693
 2814W        W74343  30.569  21.300  14.232
 2815W        W74344  30.906  34.407  13.946
 2816W        W74345  10.374  14.069   4.187
 2817W        W74346   0.328  25.690  12.650
 2818W        W74347  44.532  37.487   3.220
 2819W        W74348  14.312  15.862  14.869
 2820W        W74349  37.966  26.161   3.391
 2821W        W74350  20.667  35.570   3.727
 2822W        W74351  13.833  19.273  13.534
 2823W        W74352  27.039  20.626   4.210
 2824W        W74353  23.670  24.833  12.423
 2825W        W74354   7.343  23.648  10.729
 2826W        W74355  40.041   3.827   1.220
 2827W        W74356  37.280  15.710  11.139
 2828W        W74357  27.737  43.410  10.784
 2829W        W74358  43.432  35.421   1.322
 2830W        W74359   4.383   7.640  12.018
 2831W        W74360  23.758  19.646   3.183
 2832W        W74361  38.339  29.050  12.433
 2833W        W74362  25.748  20.720   1.768
 2834W        W74363  27.567  23.286   2.875
 2835W        W74364  11.107   0.934   3.175
 2836W        W74365  27.943  16.046   3.382
 2837W        W74366  10.499   4.820  14.772
 2838W        W74367  33.956  35.788  12.414
 2839W        W74368  27.127  16.182   0.043
 2840W        W74369  22.196   4.397   1.851
 2841W        W74370  26.467   4.544   2.899
 2842W        W74371  23.552  37.854   2.942
 2843W        W74372  19.543  20.989   3.618
 2844W        W74373   8.765   3.683   2.677
 2845W        W74374  11.417   3.705   0.392
 2846W        W74375   4.851   8.949  13.075
 2847W        W74376  37.520  10.850   0.028
 2848W        W74377   1.203  16.609   2.125
 2849W        W74378   2.974  19.321   2.375
 2850W        W74379  42.541  23.175  12.195
 2851W        W74380  43.920  26.997  14.450
 2852W        W74381  43.592  33.501  10.161
 2853W        W74382  22.862  44.050  10.058
 2854W        W74383  34.145  13.689  12.717
 2855W        W74384  24.422  34.954   0.860
 2856W        W74385  31.858  20.411  11.502
 2857W        W74386  40.062  23.167   2.236
 2858W        W74387  33.990  42.019  11.582
 2859W        W74388  10.177  25.437   4.752
 2860W        W74389  38.830  22.495  12.221
 2861W        W74390   0.919   9.358  14.389
 2862W        W74391  42.047  16.085  10.945
 2863W        W74392  12.775   5.714  14.931
 2864W        W74393   5.173  42.567   3.155
 2865W        W74394  12.056  16.180  10.481
 2866W        W74395  40.611  44.292  14.882
 2867W        W74396  30.206  29.878   0.915
 2868W        W74397  44.545  21.112  10.185
 2869W        W74398  12.535  20.637  12.044
 2870W        W74399   2.496   6.280   2.761
 2871W        W74400  35.002  10.564   2.675
 2872W        W74401  43.097  39.860   2.885
 2873W        W74402  15.058  41.786  13.418
 2874W        W74403  23.598   1.858  11.490
 2875W        W74404  16.610  39.107   2.672
 2876W        W74405  22.208  29.939  12.473
 2877W        W74406  34.186  18.195  14.023
 2878W        W74407  22.856  18.177  10.668
 2879W        W74408  14.365  11.232  12.527
 2880W        W74409  19.787  36.608   3.329
 2881W        W74410  27.451  28.054  12.411
 2882W        W74411  17.562  12.620   4.265
 2883W        W74412  12.640   9.261  12.184
 2884W        W74413  30.055   0.806  13.774
 2885W        W74414  16.277  36.580   2.272
 2886W        W74415  28.218  35.914   0.699
 2887W        W74416  43.593  41.400   0.029
 2888W        W74417  20.912  23.272   0.443
 2889W        W74418  18.251   8.317   0.427
 2890W        W74419   8.986  11.575   3.863
 2891W        W74420  10.770   7.406   4.741
 2892W        W74421  28.525  13.624   0.395
 2893W        W74422  24.864  39.857   4.078
 2894W        W74423   1.329  39.101   2.885
 2895W        W74424  31.966   1.780  12.458
 2896W        W74425  36.649  41.918   3.339
 2897W        W74426  18.204  25.935  13.494
 2898W        W74427  24.922   1.357  10.659
 2899W        W74428  33.100  31.632  11.435
 2900W        W74429  16.912  23.113  10.621
 2901W        W74430  25.462  21.705   4.260
 2902W        W74431  24.077  43.985   0.231
 2903W        W74432  29.067  42.231  13.965
 2904W        W74433  17.541   3.909  12.946
 2905W        W74434   1.874  44.692   3.695
 2906W        W74435  16.348  24.172  12.873
 2907W        W74436  13.733  24.717  14.247
 2908W        W74437  16.172  28.964  11.955
 2909W        W74438  42.771  37.278   4.536
 2910W        W74439  22.986   3.973   0.825
 2911W        W74440  10.447  24.605   4.855
 2912W        W74441   7.180  30.164   0.879
 2913W        W74442  23.525  14.067   4.076
 2914W        W74443  33.208  30.923   0.724
 2915W        W74444   9.300  32.461  10.758
 2916W        W74445   7.766  36.046   0.399
 2917W        W74446  21.663  40.324   1.384
 2918W        W74447   4.949  35.044   4.218
 2919W        W74448  10.868  17.017  14.463
 2920W        W74449  36.584  11.431   0.180
 2921W        W74450   0.964   1.916  13.466
 2922W        W74451  11.203  42.259  12.661
 2923W        W74452  28.599  19.504   0.263
 2924W        W74453  37.569  42.519   3.563
 2925W        W74454  29.026  25.261   2.143
 2926W        W74455  38.911  42.320   2.724
 2927W        W74456  32.635  24.297   3.051
 2928W        W74457  30.720  31.298   2.301
 2929W        W74458  38.081   6.805   2.786
 2930W        W74459  31.064  35.347  11.622
 2931W        W74460  41.850  25.887  12.977
 2932W        W74461   5.837  33.346   2.100
 2933W        W74462  42.938  21.649   3.268
 2934W        W74463  33.471   3.222  12.136
 2935W        W74464  39.903   8.566  14.476
 2936W        W74465  40.032  12.220  11.858
 2937W        W74466   4.811  30.534   9.851
 2938W        W74467  24.500  28.867   2.434
 2939W        W74468  34.800  40.043  12.019
 2940W        W74469   2.779  10.487   4.543
 2941W        W74470  39.990  29.932  10.518
 2942W        W74471  18.864  27.712  14.761
 2943W        W74472   2.009  44.215   3.862
 2944W        W74473  15.908  14.187   1.777
 2945W        W74474  21.581  44.800  14.523
 2946W        W74475  13.696  27.210  11.444
 2947W        W74476  29.658  43.194  10.663
 2948W        W74477  44.461  37.071   4.575
 2949W        W74478  21.174  19.019  12.825
 2950W        W74479  23.747  44.784   4.880
 2951W        W74480  23.031  14.895   0.958
 2952W        W74481  12.354  39.426  10.860
 2953W        W74482  41.035  10.698  13.642
 2954W        W74483   6.884  13.995   0.537
 2955W        W74484  25.469  17.034   5.081
 2956W        W74485   5.440   9.369   4.335
 2957W        W74486   4.446  22.719   0.760
 2958W        W74487  25.479  44.522   3.321
 2959W        W74488  36.429  22.020  12.910
 2960W        W74489  41.967  24.694   0.298
 2961W        W74490   5.358  11.184  13.632
 2962W        W74491  42.793  27.558  14.607
 2963W        W74492   8.680  18.814  12.063
 2964W        W74493  13.698  27.129  13.008
 2965W        W74494  18.522  19.469   4.334
 2966W        W74495   9.212  27.876   4.642
 2967W        W74496  11.869  32.095   9.986
 2968W        W74497  22.072  39.776   1.378
 2969W        W74498  22.480  12.176   3.547
 2970W        W74499   5.747   2.303   1.447
 2971W        W74500  18.991  16.626  13.959
 2972W        W74501  28.028  43.658  12.057
 2973W        W74502  40.140  10.835   2.464
 2974W        W74503  19.045  40.718   1.795
 2975W        W74504   6.937  28.634   1.878
 2976W        W74505  43.397  30.874   2.634
 2977W        W74506   5.447  21.446   3.497
 2978W        W74507   8.100  28.560   2.834
 2979W        W74508  16.782  33.957   2.000
 2980W        W74509   4.342  14.591  10.961
 2981W        W74510  25.133   0.542  11.279
 2982W        W74511  31.633   1.472  11.992
 2983W        W74512  36.677  37.100  11.111
 2984W        W74513  40.721   6.550   1.355
 2985W        W74514  19.060  37.868  10.777
 2986W        W74515  23.470  16.829  12.997
 2987W        W74516   0.708  36.096  11.703
 2988W        W74517  34.004  37.000   2.713
 2989W        W74518  26.624  41.423   1.954
 2990W        W74519  18.626  31.376   0.840
 2991W        W74520  12.733   4.284   2.148
 2992W        W74521  17.742  23.984  10.532
 2993W        W74522  37.629  44.410  11.427
 2994W        W74523  36.096  31.646   0.886
 2995W        W74524   7.413  22.578  14.880
 2996W        W74525  37.662  23.985  14.005
 2997W        W74526   0.209  13.627  10.730
 2998W        W74527  33.717   1.766  13.865
 2999W        W74528  12.302  30.028  12.017
 3000W        W74529  16.980  32.990  12.917
 3001W        W74530  44.690  29.515  13.892
 3002W        W74531  12.060  13.166   2.389
 3003W        W74532   7.149   5.275   0.775
 3004W        W74533  14.010  39.434  12.989
 3005W        W74534   5.176  12.579  12.477
 3006W        W74535  38.977  17.719   3.724
 3007W        W74536  33.631  42.775   2.424
 3008W        W74537  26.111  24.744   2.435
 3009W        W74538  38.581  30.130  11.689
 3010W        W74539  18.276   5.445   3.581
 3011W        W74540  40.136  31.549   4.619
 3012W        W74541  42.419   2.743   2.092
 3013W        W74542  38.967  10.177   2.581
 3014W        W74543   2.364   2.373  12.176
 3015W        W74544  12.962  13.653  11.949
 3016W        W74545  39.689  27.908   3.198
 3017W        W74546  19.761  12.237   2.228
 3018W        W74547  42.783   0.863  14.980
 3019W        W74548  33.381  15.048  10.175
 3020W        W74549  30.760  16.090  10.250
 3021W        W74550   9.868  32.184   0.570
 3022W        W74551  10.555  30.078   3.682
 3023W        W74552  31.203  37.465   3.890
 3024W        W74553  23.690  44.279  10.604
 3025W        W74554  41.882   0.208  12.287
 3026W        W74555  33.346  43.440  13.532
 3027W        W74556  33.505  16.024  14.277
 3028W        W74557  24.095  42.047   0.984
 3029W        W74558  36.804  10.578  12.156
 3030W        W74559  35.977  31.525   3.281
 3031W        W74560  11.918  16.834  13.354
 3032W        W74561  28.330   1.067   0.853
 3033W        W74562   3.383  25.510  13.007
 3034W        W74563  40.292  25.779  13.535
 3035W        W74564   0.844   6.751   4.480
 3036W        W74565  36.036  23.183   0.461
 3037W        W74566  44.750  19.051   3.247
 3038W        W74567  19.658  32.662  10.693
 3039W        W74568  35.944  31.036  13.441
 3040W        W74569  15.219   6.707   4.519
 3041W        W74570  11.747   8.131   4.878
 3042W        W74571  28.948  19.044   3.192
 3043W        W74572   6.187  44.071   4.257
 3044W        W74573   5.936  35.837  12.180
 3045W        W74574  34.027  29.485  13.837
 3046W        W74575  12.545  27.936   4.124
 3047W        W74576  40.768  38.279  10.959
 3048W        W74577  14.664  28.680   4.688
 3049W        W74578  10.756  44.905  13.862
 3050W        W74579  36.035  30.073  10.652
 3051W        W74580  22.370  19.870  13.094
 3052W        W74581  27.547  24.748  10.957
 3053W        W74582  11.950  31.382  12.875
 3054W        W74583  27.227  42.535  12.235
 3055W        W74584  34.970  31.787  12.096
 3056W        W74585  40.538   6.223  12.048
 3057W        W74586  23.809  28.004  11.718
 3058W        W74587  14.578  15.723   2.799
 3059W        W74588  22.996  27.780  14.395
 3060W        W74589  24.902   0.351  14.575
 3061W        W74590   7.310  35.564  10.829
 3062W        W74591  16.722   8.843  13.605
 3063W        W74592  32.168  20.814   2.296
 3064W        W74593   2.889  43.036   2.672
 3065W        W74594  29.082  26.309   3.536
 3066W        W74595  11.105  12.514   3.680
 3067W        W74596  26.696  35.557   1.766
 3068W        W74597  40.413  21.351  12.120
 3069W        W74598  20.169  16.038   3.757
 3070W        W74599  38.879  39.246  12.097
 3071W        W74600  13.721  15.803  11.937
 3072W        W74601   9.329  25.610  14.393
 3073W        W74602  28.544  28.573  10.652
 3074W        W74603  27.869  42.434  11.653
 3075W        W74604  33.579  27.687  14.137
 3076W        W74605  19.732   5.531  12.789
 3077W        W74606  32.245  13.053  12.494
 3078W        W74607  38.733  35.749   1.443
 3079W        W74608  38.998  41.169  11.602
 3080W        W74609  35.088  21.837   3.583
 3081W        W74610  20.222  42.937  10.093
 3082W        W74611  39.996  34.418  14.858
 3083W        W74612   3.434  35.114   0.952
 3084W        W74613  24.488   3.187   3.685
 3085W        W74614   7.445  38.814   4.009
 3086W        W74615  37.322  34.890   1.373
 3087W        W74616  35.788  38.314   3.117
 3088W        W74617  42.098  34.316  13.407
 3089W        W74618  12.629  21.451  11.443
 3090W        W74619  44.285  13.286   4.447
 3091W        W74620  19.600  33.591   2.999
 3092W        W74621  30.197  10.689   2.861
 3093W        W74622  43.832  28.084   1.312
 3094W        W74623  17.639  31.500  13.478
 3095W        W74624  37.816  18.642  13.510
 3096W        W74625  31.414  29.120   0.912
 3097W        W74626  44.102  43.120   5.063
 3098W        W74627  33.167  13.942   3.348
 3099W        W74628  28.974  42.566  12.472
 3100W        W74629  20.098  42.524   2.217
 3101W        W74630   8.622   6.502   5.134
 3102W        W74631  38.765  24.810  12.570
 3103W        W74632  20.268  36.483  14.190
 3104W        W74633   5.140   8.469  12.997
 3105W        W74634  33.953   5.756   0.935
 3106W        W74635  44.031  36.256   1.428
 3107W        W74636  27.398  10.256  10.611
 3108W        W74637   3.036  32.690   4.278
 3109W        W74638   1.061  22.981  12.130
 3110W        W74639  32.236  32.194  14.875
 3111W        W74640  27.721  26.310   0.806
 3112W        W74641  17.157   6.844  14.245
 3113W        W74642   9.397  17.770  14.041
 3114W        W74643   0.921  24.276  12.838
 3115W        W74644  39.938  33.647  13.965
 3116W        W74645   6.340   7.838   1.571
 3117W        W74646  15.626   5.361  14.359
 3118W        W74647  38.047   7.305  12.659
 3119W        W74648   1.546   5.760   1.311
 3120W        W74649  35.442  16.678   4.685
 3121W        W74650  18.916  10.935  12.028
 3122W        W74651   2.960  42.476   0.404
 3123W        W74652  31.314  44.769  12.584
 3124W        W74653  20.598   2.807   1.697
 3125W        W74654  44.198  44.221   1.753
 3126W        W74655  22.235  26.064   4.441
 3127W        W74656  41.072  27.894   0.429
 3128W        W74657  36.617  12.810   4.006
 3129W        W74658   9.754   8.816  13.384
 3130W        W74659  18.581  27.450  12.962
 3131W        W74660   1.281  32.478   4.317
 3132W        W74661  10.379  28.221   0.936
 3133W        W74662  14.104   9.723   4.485
 3134W        W74663  19.486   6.370   0.777
 3135W        W74664  38.028  37.909  11.230
 3136W        W74665  32.075  15.344   4.349
 3137W        W74666  34.574  23.909  14.865
 3138W        W74667  36.330   3.626  13.887
 3139W        W74668  36.645   0.436   2.409
 3140W        W74669  28.844  29.868  12.080
 3141W        W74670   2.198   0.339   2.664
 3142W        W74671   6.934  30.673  12.849
 3143W        W74672  31.147  19.071   3.626
 3144W        W74673   7.355  25.614   3.732
 3145W        W74674  40.856  29.592   1.838
 3146W        W74675  27.634  44.771   4.724
 3147W        W74676   1.887  32.166   2.693
 3148W        W74677  23.294  43.279  13.420
 3149W        W74678  12.583  24.165   3.639
 3150W        W74679  21.170  15.199  13.485
 3151W        W74680   4.973   9.663  14.069
 3152W        W74681  23.519  20.437  13.936
 3153W        W74682  18.496  18.656  12.209
 3154W        W74683  24.721  19.323   1.308
 3155W        W74684  18.281  29.115   0.864
 3156W        W74685   5.285  42.793   1.360
 3157W        W74686  43.434  26.748   2.386
 3158W        W74687  41.402   9.977  11.239
 3159W        W74688  38.051  30.984   4.612
 3160W        W74689  30.713   4.829   2.996
 3161W        W74690  21.000  35.574   3.112
 3162W        W74691  25.492  22.656   0.774
 3163W        W74692   8.878   2.981   1.508
 3164W        W74693  35.571  22.392   0.159
 3165W        W74694  10.571  27.027  11.040
 3166W        W74695  43.547  15.410  14.401
 3167W        W74696  32.603  25.260  12.460
 3168W        W74697  19.635  32.063   3.297
 3169W        W74698  30.318  26.664   3.300
 3170W        W74699  22.728   0.683  11.976
 3171W        W74700   0.913  43.929  14.403
 3172W        W74701  21.755  30.496   3.598
 3173W        W74702  21.378  30.373   0.821
 3174W        W74703  33.117   1.639  14.938
 3175W        W74704  36.346  15.850   2.186
 3176W        W74705  39.466  37.690  11.447
 3177W        W74706  43.367   9.856   3.520
 3178W        W74707  38.778   1.393  12.446
 3179W        W74708  15.896   6.075   4.156
 3180W        W74709   5.394  31.313  10.408
 3181W        W74710   8.712   2.792  14.486
 3182W        W74711  36.275   9.709   2.219
 3183W        W74712   4.770  27.424   1.452
 3184W        W74713  24.051   4.770   1.916
 3185W        W74714  17.801   4.420  13.836
 3186W        W74715  34.932  13.085   1.424
 3187W        W74716  20.995  20.474  14.030
 3188W        W74717  31.841  17.741   3.418
 3189W        W74718  16.377   3.123  14.493
 3190W        W74719  27.173  27.540   1.395
 3191W        W74720  23.700  19.608  11.924
 3192W        W74721  27.777  39.176  12.580
 3193W        W74722  30.948  21.071   1.303
 3194W        W74723  32.540  11.659   4.560
 3195W        W74724  14.354  13.295  14.981
 3196W        W74725  20.945  13.580   2.287
 3197W        W74726  35.990  17.160  13.327
 3198W        W74727   6.966  16.593   4.271
 3199W        W74728   8.632  17.135   1.305
 3200W        W74729  11.826   4.113  12.165
 3201W        W74730  34.099   6.968   1.798
 3202W        W74731   9.818   9.684   4.735
 3203W        W74732  16.075  27.083  10.887
 3204W        W74733  37.010  18.595   2.464
 3205W        W74734   1.694  12.349   4.640
 3206W        W74735   0.998  27.585  13.777
 3207W        W74736   1.188  24.940   3.484
 3208W        W74737   0.688  13.645  11.504
 3209W        W74738  27.147  11.478  10.975
 3210W        W74739   7.160  33.404  11.915
 3211W        W74740  20.081  12.843  14.800
 3212W        W74741  14.042  19.681  11.575
 3213W        W74742  13.749  37.058   2.741
 3214W        W74743  28.389  41.687   1.894
 3215W        W74744   9.575  20.269  12.445
 3216W        W74745  31.958  42.950  11.905
 3217W        W74746  40.347   8.866   0.876
 3218W        W74747  44.057  39.382  13.060
 3219W        W74748  15.135   2.987  14.444
 3220W        W74749   4.242  25.520  11.564
 3221W        W74750  22.367  35.656  11.126
 3222W        W74751  18.471  10.251  13.898
 3223W        W74752  40.471   9.142  14.946
 3224W        W74753  25.988  11.583  11.430
 3225W        W74754  35.912  41.277   4.164
 3226W        W74755  22.764  29.135   1.755
 3227W        W74756  10.681  14.127  11.137
 3228W        W74757  36.303  20.576  11.873
 3229W        W74758   5.211  21.145   1.837
 3230W        W74759  12.888  16.078   3.198
 3231W        W74760  43.895  16.445  12.368
 3232W        W74761  44.333  35.579  13.638
 3233W        W74762   8.926   0.997   2.294
 3234W        W74763  33.537  41.049   4.918
 3235W        W74764   7.696   7.681   1.796
 3236W        W74765  44.238  14.720  14.292
 3237W        W74766  39.396  18.532   3.693
 3238W        W74767  33.163   7.486  14.991
 3239W        W74768  24.415  24.269   1.792
 3240W        W74769  33.687  38.917   2.375
 3241W        W74770  39.888   7.336   1.661
 3242W        W74771  35.502  31.310   3.281
 3243W        W74772   2.705  21.582   2.633
 3244W        W74773  11.532  21.545  12.869
 3245W        W74774  41.764  25.889   4.567
 3246W        W74775  23.099  24.714   3.626
 3247W        W74776  37.731   9.107  10.775
 3248W        W74777  39.332  11.838  13.479
 3249W        W74778  40.915  19.847   1.369
 3250W        W74779  32.943  28.737  13.388
 3251W        W74780  23.150  13.988   4.457
 3252W        W74781  41.771  18.267   2.670
 3253W        W74782  17.772  23.588  12.025
 3254W        W74783  37.061  17.743   0.534
 3255W        W74784  31.615  34.807  11.117
 3256W        W74785   1.878  18.250  14.509
 3257W        W74786  21.703  25.560  14.004
 3258W        W74787   2.449   3.535  13.533
 3259W        W74788   0.948  23.581  10.791
 3260W        W74789  41.510  21.793  12.061
 3261W        W74790  33.408  24.599  14.286
 3262W        W74791  37.009  12.187  10.477
 3263W        W74792  12.639  30.139   3.925
 3264W        W74793  38.242  11.849  11.472
 3265W        W74794  24.643   8.223   4.346
 3266W        W74795  35.279  40.811  11.628
 3267W        W74796  13.649  43.806   0.456
 3268W        W74797  42.056  40.358  12.408
 3269W        W74798  44.316  20.966   2.722
 3270W        W74799  11.707   1.756  13.593
 3271W        W74800   6.214   5.615   0.476
 3272W        W74801  17.239   9.820  12.109
 3273W        W74802   2.874   4.826  13.056
 3274W        W74803  32.569  32.692  12.823
 3275W        W74804  33.541   1.275  13.925
 3276W        W74805  44.259  35.812   1.762
 3277W        W74806  25.153  13.788  14.840
 3278W        W74807  20.418  30.459  10.653
 3279W        W74808  31.489  42.927   0.281
 3280W        W74809   2.672  25.681   4.103
 3281W        W74810  13.753  14.341   4.437
 3282W        W74811   3.750  21.224   0.977
 3283W        W74812  16.541  12.085   2.863
 3284W        W74813  41.859  44.101   1.032
 3285W        W74814  10.637  34.113   1.761
 3286W        W74815  32.541  42.748   1.770
 3287W        W74816  13.289  16.700   0.588
 3288W        W74817  33.246   6.184   0.107
 3289W        W74818  23.998  44.857   2.800
 3290W        W74819  25.723  28.702  11.482
 3291W        W74820  19.272  10.579  11.944
 3292W        W74821  44.259  37.858   1.900
 3293W        W74822  25.131  42.445  13.905
 3294W        W74823   6.434  38.787  13.425
 3295W        W74824   0.775  24.409   2.371
 3296W        W74825  29.244   2.264  11.494
 3297W        W74826  35.568  20.134   1.284
 3298W        W74827  39.516  10.114  12.106
 3299W        W74828   1.944   4.011  10.675
 3300W        W74829  39.949  43.163   1.927
 3301W        W74830  31.874   2.463   0.987
 3302W        W74831  14.002   2.951   3.853
 3303W        W74832   8.750   3.958  13.827
 3304W        W74833  18.600  21.061   3.677
 3305W        W74834  40.071  21.716  14.416
 3306W        W74835  10.771  33.294   4.545
 3307W        W74836  20.574  30.645  14.975
 3308W        W74837  38.018  20.088  13.572
 3309W        W74838  10.853  35.389   0.241
 3310W        W74839  25.131  13.254   3.218
 3311W        W74840  19.086  29.915   1.399
 3312W        W74841  27.744  23.476  14.398
 3313W        W74842  29.125  17.019  10.302
 3314W        W74843   4.398  36.015   1.085
 3315W        W74844  38.542  21.570  11.085
 3316W        W74845  35.029   0.737  14.329
 3317W        W74846  37.871  20.740  14.981
 3318W        W74847  32.981  22.619   2.098
 3319W        W74848  35.265   5.751   1.532
 3320W        W74849  30.328  14.458   4.634
 3321W        W74850   6.369  29.231  12.616
 3322W        W74851   2.839  22.618   3.130
 3323W        W74852  41.795   5.203  12.166
 3324W        W74853  39.260  18.612   1.043
 3325W        W74854  42.739   1.321  13.776
 3326W        W74855  40.074  21.183   5.071
 3327W        W74856  30.648  24.203  12.642
 3328W        W74857  27.990   2.328   0.476
 3329W        W74858   7.247  38.032   3.779
 3330W        W74859   6.346   5.496   3.708
 3331W        W74860  35.167   4.781  14.727
 3332W        W74861  34.732  30.264  11.527
 3333W        W74862  35.927  16.219  14.331
 3334W        W74863  13.418   5.644   1.460
 3335W        W74864  32.405  17.394  13.958
 3336W        W74865  34.586  39.010  13.068
 3337W        W74866  10.210  37.887   1.450
 3338W        W74867  18.729  16.655   4.483
 3339W        W74868   4.230  18.646  11.900
 3340W        W74869  27.392   1.285  12.179
 3341W        W74870  42.313  32.475   2.723
 3342W        W74871  27.732  20.193   3.644
 3343W        W74872  29.338  14.150  11.504
 3344W        W74873  28.056  21.320  11.308
 3345W        W74874  38.037  40.069   3.004
 3346W        W74875  37.410  24.623   1.930
 3347W        W74876   2.774  37.067  11.134
 3348W        W74877   0.939  22.003   0.419
 3349W        W74878  18.143  15.326  11.906
 3350W        W74879  27.079  16.682  14.848
 3351W        W74880  21.932  40.620   3.660
 3352W        W74881  31.605  25.025  14.409
 3353W        W74882  21.535  22.318  13.099
 3354W        W74883  20.088  26.776   3.587
 3355W        W74884   4.276  21.795   1.676
 3356W        W74885  18.546  35.761   2.459
 3357W        W74886  24.588  41.887   0.934
 3358W        W74887  42.726   0.858  13.501
 3359W        W74888  42.976  14.142   3.165
 3360W        W74889   2.997   6.733   3.060
 3361W        W74890  44.035  25.215  13.533
 3362W        W74891  18.143  32.377  14.016
 3363W        W74892  43.805  33.211  12.933
 3364W        W74893  31.184  30.057  10.756
 3365W        W74894  29.897  24.053   2.084
 3366W        W74895  41.643  42.677  12.863
 3367W        W74896  18.052   2.269  10.310
 3368W        W74897  27.118  44.277  10.632
 3369W        W74898  24.159  17.068  13.341
 3370W        W74899  26.185   4.500   5.052
 3371W        W74900  11.662  30.960  10.146
 3372W        W74901   0.149  16.831   2.421
 3373W        W74902  31.533  19.709   3.200
 3374W        W74903  38.703  13.138   2.741
 3375W        W74904  43.293  24.247   3.781
 3376W        W74905  22.171  24.079   0.563
 3377W        W74906   0.670   3.025  12.621
 3378W        W74907  10.269  36.141  13.346
 3379W        W74908  13.340  11.675   4.510
 3380W        W74909  27.702  10.641  13.448
 3381W        W74910  13.330  24.564  13.284
 3382W        W74911  25.204  19.210  12.891
 3383W        W74912   7.716   1.578  14.069
 3384W        W74913  30.184  34.660   3.253
 3385W        W74914  11.394  43.594   4.114
 3386W        W74915  43.884  20.160   4.805
 3387W        W74916  35.616  39.608  12.072
 3388W        W74917  26.726  27.207  11.209
 3389W        W74918   5.507  19.184   2.822
 3390W        W74919  33.614  41.969  12.527
 3391W        W74920   9.257  36.081   5.094
 3392W        W74921   9.388   5.930   1.164
 3393W        W74922  36.418   0.063  13.605
 3394W        W74923  22.115   0.580  11.471
 3395W        W74924  27.788  43.504   1.355
 3396W        W74925  29.203  16.069  10.514
 3397W        W74926   6.714  38.442  14.253
 3398W        W74927  15.735   6.238   1.635
 3399W        W74928  34.397  14.810   4.298
 3400W        W74929  40.955   5.215   4.177
 3401W        W74930   1.362   0.662   4.244
 3402W        W74931  16.557  28.395  13.497
 3403W        W74932   7.179  32.055   2.875
 3404W        W74933  36.555  37.964  14.386
 3405W        W74934  16.555  30.635   3.680
 3406W        W74935  34.334  31.458   4.637
 3407W        W74936  35.353  24.302   2.784
 3408W        W74937  30.948   0.299   3.196
 3409W        W74938  34.048   6.456   1.875
 3410W        W74939  24.242  20.157   3.671
 3411W        W74940  36.621  39.784   3.648
 3412W        W74941   3.186  14.724  12.881
 3413W        W74942  24.810  44.475   1.030
 3414W        W74943   5.771   0.220  13.597
 3415W        W74944  42.530  35.396   3.747
 3416W        W74945  41.539   5.642  10.913
 3417W        W74946  30.450   8.275  12.449
 3418W        W74947  37.234  44.657  11.144
 3419W        W74948  44.884  20.271   2.783
 3420W        W74949   2.959  41.397  10.751
 3421W        W74950  30.921  27.464   0.275
 3422W        W74951  43.877  19.118   0.839
 3423W        W74952  31.678  35.001   3.148
 3424W        W74953  29.175  13.050  13.929
 3425W        W74954   0.371  33.866  11.048
 3426W        W74955  22.051  33.883  14.385
 3427W        W74956   8.447  34.423  14.989
 3428W        W74957   0.072  37.401  13.140
 3429W        W74958   6.200  16.459   0.365
 3430W        W74959  30.239  23.846  13.722
 3431W        W74960  39.265  11.177   4.539
 3432W        W74961  39.035  17.387  11.990
 3433W        W74962  32.607  18.541   3.199
 3434W        W74963  29.006   0.170  12.008
 3435W        W74964  19.296  15.765   0.296
 3436W        W74965  31.351  14.803   1.858
 3437W        W74966   9.260  32.508  12.953
 3438W        W74967  17.150  39.366  10.923
 3439W        W74968   8.766   5.406  13.811
 3440W        W74969  30.455  38.505   4.254
 3441W        W74970  13.259  41.868  12.006
 3442W        W74971  23.106  13.966  10.782
 3443W        W74972  23.836  22.237  14.886
 3444W        W74973  13.122  18.477  12.531
 3445W        W74974  40.750   2.711  14.805
 3446W        W74975  31.564   1.880  14.899
 3447W        W74976  32.288   2.873   1.496
 3448W        W74977  36.756  28.932  10.850
 3449W        W74978  30.958  27.743   3.212
 3450W        W74979  25.124  13.021  11.271
 3451W        W74980  34.634  28.014   4.056
 3452W        W74981   5.325   9.359  14.338
 3453W        W74982  14.815  17.344   3.782
 3454W        W74983  44.420   9.654  11.609
 3455W        W74984  36.537  43.679  10.975
 3456W        W74985  28.967  13.384   4.038
 3457W        W74986  34.147  43.248  13.015
 3458W        W74987   4.865   1.016  10.651
 3459W        W74988  26.016  40.238   1.844
 3460W        W74989  24.366  12.552  11.258
 3461W        W74990  23.264  10.299   1.984
 3462W        W74991  32.577  18.823  13.927
 3463W        W74992  38.611  11.597  13.960
 3464W        W74993  42.728   3.409  11.545
 3465W        W74994  42.268   0.874  14.946
 3466W        W74995  32.525  15.195   1.797
 3467W        W74996  11.657   5.926  11.120
 3468W        W74997  32.167  29.934   2.811
 3469W        W74998  34.879  20.251  14.373
 3470W        W74999  20.646  17.806  10.395
 3471W        W75000   3.667  34.125   1.840
 3472W        W75001   3.854   7.332  11.069
 3473W        W75002  32.204   3.995   4.068
 3474W        W75003  29.927  32.634   3.065
 3475W        W75004  38.332   3.407  14.781
 3476W        W75005  18.217  24.460   4.705
 3477W        W75006  13.092   9.739   3.643
 3478W        W75007  19.225   9.893   3.671
 3479W        W75008   3.202   4.474  11.190
 3480W        W75009  20.803   6.292  14.087
 3481W        W75010   2.468   1.219  12.090
 3482W        W75011  17.239   3.796   1.171
 3483W        W75012  21.557  31.662   3.061
 3484W        W75013  22.563  28.901  11.048
 3485W        W75014  32.527  29.164  12.013
 3486W        W75015   2.209  11.801   4.267
 3487W        W75016  35.547  11.715   0.505
 3488W        W75017  24.307  27.603   0.612
 3489W        W75018   1.550  18.509  11.946
 3490W        W75019  23.668  26.438   0.269
 3491W        W75020   5.180   8.779  10.704
 3492W        W75021  44.830  11.305  13.568
 3493W        W75022  13.199   2.898  11.144
 3494W        W75023  17.413  44.479   1.676
 3495W        W75024  39.547   6.839   2.635
 3496W        W75025  37.375   6.516  11.220
 3497W        W75026   8.362  25.085   4.710
 3498W        W75027  25.200  40.786   1.373
 3499W        W75028   9.093  25.899   3.853
 3500W        W75029  14.608  17.326  13.532
 3501W        W75030  33.950  29.979   3.054
 3502W        W75031   0.642  25.797  12.283
 3503W        W75032  16.486  33.769  12.969
 3504W        W75033   6.191  23.886  13.304
 3505W        W75034  36.614  23.200   3.662
 3506W        W75035   9.215  27.080   0.378
 3507W        W75036  23.592  14.685  11.733
 3508W        W75037   8.374   6.130   3.866
 3509W        W75038  11.153  21.594   1.929
 3510W        W75039  38.798  19.046  12.069
 3511W        W75040  23.411  35.204  14.044
 3512W        W75041  24.533  42.935  14.599
 3513W        W75042  25.387  35.836   0.709
 3514W        W75043  36.105  32.146   4.097
 3515W        W75044  37.135  34.842   2.279
 3516W        W75045  31.528  36.295  13.326
 3517W        W75046  37.523   8.623  13.400
 3518W        W75047  30.059  28.176  13.379
 3519W        W75048  40.962   0.781  13.917
 3520W        W75049  39.026  11.357  12.860
 3521W        W75050  37.287  30.895  13.092
 3522W        W75051  11.781  22.751  13.812
 3523W        W75052  31.405  17.638   4.410
 3524W        W75053   3.640  37.008  10.767
 3525W        W75054  16.746  15.627  13.742
 3526W        W75055  33.922  15.337   4.108
 3527W        W75056  40.461  29.922   1.888
 3528W        W75057  26.429   4.695   2.178
 3529W        W75058   0.831  28.921   3.435
 3530W        W75059  41.545  33.557   1.741
 3531W        W75060   1.479   0.340   1.103
 3532W        W75061  11.779  34.875  13.528
 3533W        W75062   8.631  25.264  11.996
 3534W        W75063  28.686  41.986   0.403
 3535W        W75064  41.809  43.692   2.888
 3536W        W75065   0.464  27.173   0.972
 3537W        W75066  42.766  24.659  13.620
 3538W        W75067  34.576  26.702  14.422
 3539W        W75068  18.153  18.903  11.046
 3540W        W75069  27.601  35.899   1.316
 3541W        W75070  27.102  44.278   4.241
 3542W        W75071  14.252   0.349   0.724
 3543W        W75072   3.506  13.765  13.158
 3544W        W75073  17.365  14.003  14.366
 3545W        W75074   2.912   9.237  13.095
 3546W        W75075  21.147  28.601  10.722
 3547W        W75076  22.516  29.466   2.893
 3548W        W75077  25.272   0.403  14.992
 3549W        W75078  42.397  37.093   3.858
 3550W        W75079  34.546  32.294  10.830
 3551W        W75080   2.464  17.317   1.687
 3552W        W75081  34.988  41.437  12.855
 3553W        W75082   2.813  36.050  12.750
 3554W        W75083   5.983  32.349  14.152
 3555W        W75084   2.440  18.865  13.816
 3556W        W75085   3.682  22.328  11.104
 3557W        W75086   0.186  39.495   0.736
 3558W        W75087   1.235  39.366  12.989
 3559W        W75088  10.014  32.501  14.481
 3560W        W75089   3.254  41.741   0.403
 3561W        W75090  23.036  15.760   4.602
 3562W        W75091  17.221   7.401  11.196
 3563W        W75092   2.248  37.580  14.884
 3564W        W75093   0.741  30.041   0.606
 3565W        W75094  21.216  31.662   0.847
 3566W        W75095   1.110  19.104   1.608
 3567W        W75096   3.543  14.895   1.863
 3568W        W75097  39.957  20.975   4.619
 3569W        W75098   9.001  30.127   2.787
 3570W        W75099  21.757  43.054  12.706
 3571W        W75100   2.280   7.056  13.427
 3572W        W75101  43.281  23.039  13.758
 3573W        W75102  16.449  37.493   3.604
 3574W        W75103   7.306  20.045  10.804
 3575W        W75104  42.874  23.469  13.298
 3576W        W75105  27.087  43.304   0.852
 3577W        W75106  21.604   9.754   0.066
 3578W        W75107   2.476   1.723   3.209
 3579W        W75108  23.464  37.416   2.141
 3580W        W75109   9.450  18.608  11.517
 3581W        W75110  36.436  15.786  12.309
 3582W        W75111  24.747  32.301  12.551
 3583W        W75112  18.847  42.243   1.344
 3584W        W75113  30.679  40.402  12.066
 3585W        W75114  28.078   8.716  14.251
 3586W        W75115  14.265  38.122   2.041
 3587W        W75116  27.084  43.489   3.109
 3588W        W75117  39.881  25.047   2.251
 3589W        W75118  44.121  29.646   3.370
 3590W        W75119  29.310  24.488  13.436
 3591W        W75120  41.537  16.737   1.085
 3592W        W75121  28.597   0.607   0.839
 3593W        W75122  38.435  26.181  12.652
 3594W        W75123  34.020   8.488   4.643
 3595W        W75124  31.113  33.453  12.854
 3596W        W75125  30.370  34.570   4.036
 3597W        W75126  17.264  27.480   0.796
 3598W        W75127  34.823  30.593   1.921
 3599W        W75128  31.013   5.993   1.266
 3600W        W75129  44.672   7.648   1.758
 3601W        W75130  38.463  44.476   1.139
 3602W        W75131  10.370  34.562   1.858
 3603W        W75132  11.164  17.065  14.016
 3604W        W75133   1.040  42.927  12.565
 3605W        W75134  34.617   1.500   2.559
 3606W        W75135  25.171  18.237   0.305
 3607W        W75136  22.501   2.202   0.014
 3608W        W75137  35.951   4.479   1.978
 3609W        W75138  41.528   8.722  12.868
 3610W        W75139   0.845   3.698   0.766
 3611W        W75140   6.067  10.886  12.519
 3612W        W75141  34.147  36.098  10.985
 3613W        W75142   0.258  22.155   5.059
 3614W        W75143  42.461  33.363  11.964
 3615W        W75144  28.961  23.542   0.763
 3616W        W75145   1.927  25.130   1.320
 3617W        W75146  29.248  19.701  12.446
 3618W        W75147  15.491  10.944   4.151
 3619W        W75148  26.758   1.409  13.903
 3620W        W75149  12.310   7.669  11.508
 3621W        W75150  37.268  17.165  13.845
 3622W        W75151  35.936   4.663  12.121
 3623W        W75152  41.018  43.592  11.034
 3624W        W75153  11.796  33.088  14.870
 3625W        W75154   0.704  25.786  11.419
 3626W        W75155   9.263  32.676  14.009
 3627W        W75156  17.307  28.082  11.660
 3628W        W75157  36.755   6.777  13.793
 3629W        W75158  15.176  38.757  11.219
 3630W        W75159   2.967   3.910  10.788
 3631W        W75160  29.656  19.100  13.392
 3632W        W75161   0.469   4.979   1.316
 3633W        W75162  40.514  13.077  13.521
 3634W        W75163  23.985   6.423   4.700
 3635W        W75164  27.138  39.722  12.389
 3636W        W75165  24.580  31.873   4.177
 3637W        W75166   3.803  14.046  13.957
 3638W        W75167  14.152   0.780  11.069
 3639W        W75168  35.599  20.664   2.311
 3640W        W75169   9.365  43.478   3.641
 3641W        W75170   4.806  31.998   0.380
 3642W        W75171  34.981  28.390   4.144
 3643W        W75172   1.838  29.063  11.995
 3644W        W75173  13.428  10.399   0.857
 3645W        W75174  24.739  34.465  12.504
 3646W        W75175  34.561  44.344  10.729
 3647W        W75176  15.024  12.971  11.258
 3648W        W75177  22.648  27.479  14.193
 3649W        W75178  32.133  17.588  13.541
 3650W        W75179   6.800  42.593  13.643
 3651W        W75180  24.616   9.687  13.079
 3652W        W75181  22.582  12.469   3.117
 3653W        W75182   7.956  13.142   2.632
 3654W        W75183  42.339  14.631   0.507
 3655W        W75184  43.439  28.453  12.057
 3656W        W75185   1.798  12.598  12.635
 3657W        W75186   0.494  41.888  14.291
 3658W        W75187  10.169  41.358   5.039
 3659W        W75188  17.159  13.803  11.568
 3660W        W75189   2.853  28.711   3.840
 3661W        W75190   5.908   8.712   3.683
 3662W        W75191   7.345  42.052  13.150
 3663W        W75192  13.037  38.612  11.597
 3664W        W75193  13.311  24.261   4.271
 3665W        W75194   5.796  20.925   2.373
 3666W        W75195  43.543  34.368   0.301
 3667W        W75196  25.687  17.220   4.579
 3668W        W75197   1.566  23.118  12.025
 3669W        W75198  25.584  19.525   5.107
 3670W        W75199  17.651  41.864  12.395
 3671W        W75200  36.634   6.449  13.403
 3672W        W75201  44.784  40.416   3.925
 3673W        W75202  18.147   8.346  13.368
 3674W        W75203   0.914  12.430  11.361
 3675W        W75204  38.839  21.962   3.179
 3676W        W75205   3.095  27.548   3.530
 3677W        W75206   8.749  28.721   3.793
 3678W        W75207   4.946  11.833   1.832
 3679W        W75208  44.297  10.829   3.338
 3680W        W75209  31.446  17.223   1.366
 3681W        W75210  41.400  20.865   3.815
 3682W        W75211   5.217  34.111  12.530
 3683W        W75212  27.638  19.991   1.922
 3684W        W75213   0.992  12.219  10.879
 3685W        W75214  34.076  26.971   0.756
 3686W        W75215  14.423  22.551   1.349
 3687W        W75216  22.085  33.079   3.181
 3688W        W75217  17.736   5.632  14.593
 3689W        W75218  28.986  27.179  10.615
 3690W        W75219   1.868  24.869   4.608
 3691W        W75220  17.834  11.883   2.828
 3692W        W75221  31.660  37.588  10.885
 3693W        W75222   2.570  31.914   1.477
 3694W        W75223   0.673  35.894   3.291
 3695W        W75224  32.218   4.334  10.705
 3696W        W75225   5.877  37.978   2.222
 3697W        W75226  19.980  27.470  11.619
 3698W        W75227  13.293   4.507  13.891
 3699W        W75228  22.538  25.733   1.436
 3700W        W75229  31.580   3.351   0.829
 3701W        W75230  29.994  22.789  14.941
 3702W        W75231  28.722  14.523  11.917
 3703W        W75232  11.773  31.514  11.470
 3704W        W75233  11.707   7.742   3.622
 3705W        W75234   3.303  26.487   1.466
 3706W        W75235  10.760  41.933  13.333
 3707W        W75236  32.926  24.032   0.425
 3708W        W75237   6.216  36.027  13.965
 3709W        W75238  19.130  11.481   2.538
 3710W        W75239  13.668   9.601   2.908
 3711W        W75240  20.074  17.557   3.809
 3712W        W75241  39.373  23.287  11.204
 3713W        W75242   5.821  13.442  13.359
 3714W        W75243  41.386  17.765   2.462
 3715W        W75244   2.951  14.096   4.378
 3716W        W75245   9.941  39.125  13.020
 3717W        W75246  34.448   0.028   4.663
 3718W        W75247  36.378  32.169   0.464
 3719W        W75248  31.675  18.714  10.796
 3720W        W75249  10.879  35.834  12.159
 3721W        W75250  41.399  24.681  14.997
 3722W        W75251  39.804  25.000   3.735
 3723W        W75252   2.383   8.812   4.917
 3724W        W75253  36.837  18.849  11.007
 3725W        W75254  37.066  20.219   1.519
 3726W        W75255  25.103  36.645   3.270
 3727W        W75256  13.618  29.218   0.255
 3728W        W75257  10.995   0.947  13.262
 3729W        W75258  25.055  27.706   4.772
 3730W        W75259  32.920  36.541   2.331
 3731W        W75260  29.714  21.105   2.727
 3732W        W75261  23.410   3.175   3.243
 3733W        W75262  39.909   0.912  13.045
 3734W        W75263  43.188   0.696   0.997
 3735W        W75264  44.094  20.651   4.764
 3736W        W75265  20.295  13.695  13.426
 3737W        W75266  23.618  36.911  12.130
 3738W        W75267  18.853  24.291  13.959
 3739W        W75268  41.734  19.806  10.314
 3740W        W75269  30.587  23.220  11.004
 3741W        W75270  40.529   4.129  12.854
 3742W        W75271  34.503  21.024   4.114
 3743W        W75272   7.258  42.425  10.268
 3744W        W75273  34.660  25.140   4.386
 3745W        W75274  18.170  22.279   0.770
 3746W        W75275   0.434   7.675   1.266
 3747W        W75276  44.189  24.201  12.712
 3748W        W75277  36.301   2.572  11.846
 3749W        W75278   3.367   2.010   2.696
 3750W        W75279  41.388   2.477   3.642
 3751W        W75280  39.790  22.030   2.940
 3752W        W75281  17.128  23.774   3.876
 3753W        W75282  16.719  21.604   0.819
 3754W        W75283  35.624  20.363   0.365
 3755W        W75284  23.448  18.269   2.802
 3756W        W75285  17.479  34.291   1.056
 3757W        W75286  28.568  32.499   4.604
 3758W        W75287  37.051   5.882  14.885
 3759W        W75288  38.360  14.025  12.443
 3760W        W75289  17.000  29.422   2.847
 3761W        W75290  29.121  42.293   2.330
 3762W        W75291  20.172  38.492  12.555
 3763W        W75292  17.842  30.028  11.783
 3764W        W75293  38.826  26.998  11.962
 3765W        W75294  35.167  16.105   3.838
 3766W        W75295  18.131  37.968   0.910
 3767W        W75296  43.072   1.525  12.057
 3768W        W75297  17.054  30.201  14.449
 3769W        W75298   8.867  42.496  14.949
 3770W        W75299  10.752  41.304   1.165
 3771W        W75300  20.922  17.193  11.584
 3772W        W75301   4.278   7.334  10.726
 3773W        W75302  40.327  41.933  11.844
 3774W        W75303  12.823  27.976   4.609
 3775W        W75304   0.937  17.887  13.710
 3776W        W75305   9.687  29.533   4.695
 3777W        W75306  14.332  43.792  11.588
 3778W        W75307  10.399  44.797  12.941
 3779W        W75308  38.658  43.720  11.162
 3780W        W75309  26.628   2.407   5.012
 3781W        W75310   4.043  43.332  13.304
 3782W        W75311  39.060  35.675  12.519
 3783W        W75312  25.973   0.687   0.804
 3784W        W75313  24.985   9.165  12.516
 3785W        W75314  30.463  30.101  14.073
 3786W        W75315  14.757  21.255   2.336
 3787W        W75316  16.162  18.362  10.515
 3788W        W75317  23.126  33.093  13.799
 3789W        W75318  17.229  44.500  14.088
 3790W        W75319  18.251  26.594   1.008
 3791W        W75320  19.552  39.518   1.036
 3792W        W75321  23.523   3.589   3.544
 3793W        W75322  17.777  17.636   2.729
 3794W        W75323  18.147  24.706  12.810
 3795W        W75324  42.644  31.230   2.339
 3796W        W75325  33.585  11.857   4.603
 3797W        W75326  41.027  30.885   4.783
 3798W        W75327  43.229   3.922   3.220
 3799W        W75328  25.505  18.473   2.167
 3800W        W75329  10.162  43.840  14.306
 3801W        W75330  17.944  34.133   1.365
 3802W        W75331   9.652  41.466  10.571
 3803W        W75332  20.687  28.892   1.238
 3804W        W75333  26.078  28.672  10.887
 3805W        W75334  33.444   0.764  13.975
 3806W        W75335  34.774  29.011  11.178
 3807W        W75336   4.222  34.509   3.406
 3808W        W75337  16.496  42.089  13.368
 3809W        W75338  11.327  35.196  13.459
 3810W        W75339  12.571  23.979   1.919
 3811W        W75340   0.929  32.859   3.692
 3812W        W75341  26.143  18.220   0.954
 3813W        W75342  34.575   5.656  14.829
 3814W        W75343  42.888  33.348  11.171
 3815W        W75344  38.095  26.497  11.082
 3816W        W75345  40.775  26.759   2.851
 3817W        W75346  27.962   9.306  13.263
 3818W        W75347  25.987  20.926   3.347
 3819W        W75348  26.302  41.942   3.160
 3820W        W75349  10.089   3.604   5.172
 3821W        W75350  24.725  43.295   4.422
 3822W        W75351  41.944  26.599   1.177
 3823W        W75352  15.851  22.382   5.316
 3824W        W75353  36.768   8.897   4.250
 3825W        W75354   9.775  30.642   4.733
 3826W        W75355  13.849  24.095  10.610
 3827W        W75356  40.232  16.117   3.781
 3828W        W75357  21.576  11.445   4.871
 3829W        W75358  36.736  12.828   1.627
 3830W        W75359  22.183  27.565  13.993
 3831W        W75360   2.414   4.821  13.288
 3832W        W75361   0.340  21.300   0.472
 3833W        W75362  22.682  40.980  11.181
 3834W        W75363   2.461  27.357  11.972
 3835W        W75364  22.974  38.020   0.712
 3836W        W75365  28.868  38.564   3.266
 3837W        W75366  19.384  19.272  11.594
 3838W        W75367  34.230   8.415   2.445
 3839W        W75368  32.697   5.727  12.127
 3840W        W75369  29.749  11.444   4.841
 3841W        W75370  37.658  15.564  14.377
 3842W        W75371  14.716  23.652  13.130
 3843W        W75372   4.310  24.548   0.326
 3844W        W75373  43.243  41.896  14.847
 3845W        W75374  14.834  26.642  11.015
 3846W        W75375  17.639  15.722  14.079
 3847W        W75376  41.572  20.659  11.022
 3848W        W75377  28.136  16.345   0.388
 3849W        W75378   0.398  44.299   3.276
 3850W        W75379  16.302   8.272  12.924
 3851W        W75380  40.773  28.954  11.998
 3852W        W75381  20.427  35.018  14.449
 3853W        W75382  15.240  40.150  11.256
 3854W        W75383  27.877  16.849  14.517
 3855W        W75384  11.664  16.534  11.216
 3856W        W75385  12.680  42.525   2.374
 3857W        W75386  32.445   5.887  10.820
 3858W        W75387  18.165   6.382   2.417
 3859W        W75388  25.509  37.623  14.608
 3860W        W75389  30.881  17.093   1.428
 3861W        W75390  31.305  43.446   0.258
 3862W        W75391  30.292  31.676  12.486
 3863W        W75392  11.196   3.326   3.842
 3864W        W75393  42.279  22.926  14.027
 3865W        W75394   0.936   2.854  11.241
 3866W        W75395  42.558  39.579   2.225
 3867W        W75396   2.007  32.353   2.198
 3868W        W75397   9.823  17.356   3.720
 3869W        W75398   9.310  20.933   0.443
 3870W        W75399  30.340  20.046   5.006
 3871W        W75400  38.798  27.704   0.730
 3872W        W75401  42.775   9.440  12.970
 3873W        W75402   5.824  38.777   3.317
 3874W        W75403  36.165  42.719  12.587
 3875W        W75404  30.139  35.001   4.281
 3876W        W75405  32.946  25.774   2.109
 3877W        W75406  40.492  40.411   2.402
 3878W        W75407   7.711  23.129   3.951
 3879W        W75408  22.787  19.019  11.459
 3880W        W75409   9.736   3.767  11.070
 3881W        W75410  26.007  29.118   2.644
 3882W        W75411  41.978  43.343  13.834
 3883W        W75412  40.193  14.354   5.226
 3884W        W75413   4.086   2.454   3.785
 3885W        W75414  18.191   0.798  12.899
 3886W        W75415  20.640   9.406   1.506
 3887W        W75416  11.765  25.303   0.044
 3888W        W75417  44.997  20.124   2.176
 3889W        W75418  11.730   7.248  11.314
 3890W        W75419   3.326  19.138   4.119
 3891W        W75420  38.533   1.026   3.995
 3892W        W75421  17.573  42.846  13.755
 3893W        W75422  29.816   1.867  13.484
 3894W        W75423  28.178   4.537  12.372
 3895W        W75424  26.996  37.099   4.336
 3896W        W75425  10.322  30.225  12.485
 3897W        W75426  44.331  14.733  11.672
 3898W        W75427  34.950   2.494  14.275
 3899W        W75428  42.218  35.191  11.116
 3900W        W75429  19.452  13.276   3.736
 3901W        W75430   6.657   6.719   0.996
 3902W        W75431   5.485  23.992  14.905
 3903W        W75432   0.047  35.461  13.343
 3904W        W75433  22.519  42.754  12.766
 3905W        W75434  44.067  10.356  13.435
 3906W        W75435   4.487  31.155   1.959
 3907W        W75436  44.940   1.764  11.183
 3908W        W75437  24.651  35.447   0.864
 3909W        W75438  29.913  34.554  13.593
 3910W        W75439   1.031   6.232  13.997
 3911W        W75440  33.589   3.479  13.647
 3912W        W75441  41.545  39.391   1.808
 3913W        W75442  34.393  24.110  10.717
 3914W        W75443  23.178  31.037   1.292
 3915W        W75444  26.881  20.573   0.688
 3916W        W75445  20.049   4.166  12.920
 3917W        W75446   7.203  35.256   0.584
 3918W        W75447   9.402  12.008   2.684
 3919W        W75448   3.715  10.864  10.641
 3920W        W75449   3.200  12.733   4.444
 3921W        W75450  25.012  19.016   3.344
 3922W        W75451  18.246  12.048   4.080
 3923W        W75452  30.665   4.839   1.943
 3924W        W75453  37.475  10.302  14.304
 3925W        W75454  13.143  39.547  12.198
 3926W        W75455  41.817  38.993  14.846
 3927W        W75456   3.716  21.077   4.619
 3928W        W75457  17.230  12.229  12.384
 3929W        W75458  34.324  16.623  10.588
 3930W        W75459  30.865  32.762   3.201
 3931W        W75460   8.844   2.836  11.094
 3932W        W75461   8.357  18.288   2.661
 3933W        W75462  40.180  21.687   4.248
 3934W        W75463  18.071  25.709  14.364
 3935W        W75464  41.612  39.642  12.994
 3936W        W75465  34.564  16.729  12.873
 3937W        W75466  40.463   6.293  10.355
 3938W        W75467  19.088  24.597  12.326
 3939W        W75468  32.353   3.803   0.941
 3940W        W75469  31.088  16.193  13.562
 3941W        W75470  38.052  12.879  10.713
 3942W        W75471   0.016  42.063   3.601
 3943W        W75472  27.155   6.721  12.351
 3944W        W75473  16.342  28.003   3.177
 3945W        W75474   1.335  31.565   2.427
 3946W        W75475  44.278  22.304   1.872
 3947W        W75476  22.540   8.727   2.804
 3948W        W75477   0.998  22.574  12.515
 3949W        W75478  40.046  36.078  12.135
 3950W        W75479   4.721  27.698  12.707
 3951W        W75480  25.929  14.513   2.330
 3952W        W75481  11.200  29.989   1.271
 3953W        W75482  40.217  14.371   2.378
 3954W        W75483  43.434  30.454   3.665
 3955W        W75484  33.549   4.681   9.697
 3956W        W75485  37.288  43.216  11.161
 3957W        W75486  34.390   7.635  13.023
 3958W        W75487  25.089  21.701   2.388
 3959W        W75488  41.515  19.930   0.700
 3960W        W75489   4.466  36.410   0.794
 3961W        W75490  29.140  30.759  10.506
 3962W        W75491  29.077  14.632   2.872
 3963W        W75492  36.527  32.490  12.647
 3964W        W75493   2.379  19.083  12.887
 3965W        W75494  37.486  42.516   1.739
 3966W        W75495  32.470   0.269  13.129
 3967W        W75496  22.694   9.824   0.926
 3968W        W75497   8.272  44.131  10.727
 3969W        W75498  14.471  31.590  14.834
 3970W        W75499   4.782  15.640   4.606
 3971W        W75500  29.252  37.960  10.665
 3972W        W75501  23.611  25.882  12.059
 3973W        W75502   9.310  23.122  10.852
 3974W        W75503  29.981  31.107   3.374
 3975W        W75504   0.158   3.430   2.795
 3976W        W75505  34.018  13.975  11.681
 3977W        W75506  23.186  28.037   2.254
 3978W        W75507  37.330   7.905  12.078
 3979W        W75508  22.653  30.179   4.178
 3980W        W75509  24.550  21.313  10.774
 3981W        W75510  12.365   3.551  14.346
 3982W        W75511  35.041   0.217  14.448
 3983W        W75512  15.757  43.983  12.544
 3984W        W75513   5.006  21.542   4.814
 3985W        W75514  23.614   9.791   1.352
 3986W        W75515   4.036  16.268   1.970
 3987W        W75516  19.020   5.034   0.694
 3988W        W75517  44.897  22.774   1.013
 3989W        W75518  18.252  23.821   3.285
 3990W        W75519  32.436  43.631  11.991
 3991W        W75520  39.063   1.189   0.837
 3992W        W75521   5.795   6.573  11.647
 3993W        W75522  17.733  38.506  10.949
 3994W        W75523  38.831  33.397   2.874
 3995W        W75524  30.644  30.513   0.362
 3996W        W75525  41.828   0.862  11.712
 3997W        W75526  25.529   9.319   2.927
 3998W        W75527  12.089  29.752  14.324
 3999W        W75528  19.122  41.363  10.242
 4000W        W75529   0.405  37.101  14.543
 4001W        W75530   7.522  26.765   1.818
 4002W        W75531   3.503  10.081  14.304
 4003W        W75532  32.063   3.426   4.928
 4004W        W75533   0.876  22.944  14.031
 4005W        W75534  37.125  33.581   4.138
 4006W        W75535   1.250  41.855  10.725
 4007W        W75536   2.599  35.861  13.420
 4008W        W75537  21.526  42.057   4.575
 4009W        W75538  21.289  13.936  13.795
 4010W        W75539  27.125  29.551  11.174
 4011W        W75540  20.764  10.457  11.569
 4012W        W75541  34.924  26.541   2.489
 4013W        W75542  24.812  14.076   4.229
 4014W        W75543  28.097  35.688  12.579
 4015W        W75544  27.514  14.705   3.481
 4016W        W75545  24.233  23.907   2.275
 4017W        W75546  27.580  23.697   0.247
 4018W        W75547  38.898  26.717  10.729
 4019W        W75548  29.220  40.348   2.039
 4020W        W75549  30.644  30.879   3.158
 4021W        W75550  27.983   4.324  11.453
 4022W        W75551  32.718  25.019   0.691
 4023W        W75552  22.771   6.902  11.048
 4024W        W75553  27.068   8.255  13.522
 4025W        W75554  12.299  10.791  13.096
 4026W        W75555  12.237  38.371   0.409
 4027W        W75556  14.631  43.810  12.036
 4028W        W75557  15.711   5.752   2.422
 4029W        W75558  36.874   6.629  12.970
 4030W        W75559  39.931  19.438   4.659
 4031W        W75560  20.260  34.358   1.926
 4032W        W75561  30.574   1.490  13.265
 4033W        W75562  27.089  39.049   3.650
 4034W        W75563   8.710  20.139   1.388
 4035W        W75564  40.622  13.508  14.337
 4036W        W75565  23.624  23.007  10.593
 4037W        W75566  23.247  27.259   0.281
 4038W        W75567  11.407   1.017  11.167
 4039W        W75568  23.085  30.339  13.437
 4040W        W75569  20.310  19.009   2.414
 4041W        W75570  18.514  43.451   3.771
 4042W        W75571  12.727  37.392  12.927
 4043W        W75572  40.934   8.910   2.692
 4044W        W75573  33.878  33.081   3.671
 4045W        W75574  16.032  18.452   1.136
 4046W        W75575  43.538  10.232   3.158
 4047W        W75576  13.274   9.985  12.511
 4048W        W75577   0.223  16.671  14.093
 4049W        W75578  11.791  15.182   1.287
 4050W        W75579   1.466  43.381   4.132
 4051W        W75580  20.732  32.690   2.504
 4052W        W75581  39.146  26.605   0.705
 4053W        W75582  12.836  23.480  13.456
 4054W        W75583  38.952   5.730  11.315
 4055W        W75584  23.953   4.643   2.420
 4056W        W75585  38.654  21.073   0.356
 4057W        W75586   2.390  34.990  14.455
 4058W        W75587  40.267  34.453  13.854
 4059W        W75588   5.704  32.578   1.554
 4060W        W75589  25.509  17.655  10.982
 4061W        W75590  11.825  39.980  12.826
 4062W        W75591  20.255   9.738  11.361
 4063W        W75592  12.628   7.603   3.153
 4064W        W75593  17.845   2.137   3.178
 4065W        W75594  35.522  43.319   3.572
 4066W        W75595   7.202   4.724  12.439
 4067W        W75596   2.643  15.546   4.917
 4068W        W75597   1.428   4.230  13.666
 4069W        W75598  10.429  13.209  14.060
 4070W        W75599  28.983  25.699  11.118
 4071W        W75600  15.293  24.226   0.258
 4072W        W75601  33.885  22.172   0.933
 4073W        W75602  33.425  15.330   0.032
 4074W        W75603  23.290   3.249  12.916
 4075W        W75604  33.834   2.877  11.501
 4076W        W75605  34.984  30.842  11.936
 4077W        W75606  19.761  29.394   1.929
 4078W        W75607   2.284   7.914   3.265
 4079W        W75608  37.307  38.798  14.873
 4080W        W75609  28.963  42.916  12.867
 4081W        W75610  44.195   9.819  12.046
 4082W        W75611  34.212  38.535  12.479
 4083W        W75612  30.839  33.043   1.938
 4084W        W75613  38.606   0.200  10.131
 4085W        W75614  28.399  38.652   1.671
 4086W        W75615   2.059   3.950   3.687
 4087W        W75616  35.056  31.603   3.168
 4088W        W75617  24.556  42.913   4.729
 4089W        W75618  36.253   6.802  10.682
 4090W        W75619   6.773  28.162   2.414
 4091W        W75620   7.179   0.458  13.906
 4092W        W75621  21.307  35.183   1.860
 4093W        W75622  29.451  40.726   3.718
 4094W        W75623  40.271  28.441  11.920
 4095W        W75624   5.797  16.643   2.276
 4096W        W75625  15.492   1.816  11.984
 4097W        W75626  33.942  28.885  12.473
 4098W        W75627  14.135  10.430   2.681
 4099W        W75628   2.061  36.801   4.535
 4100W        W75629  31.518  43.560   1.929
 4101W        W75630   4.271  41.448  13.510
 4102W        W75631  20.055  26.176  13.003
 4103W        W75632  12.590  34.070   0.336
 4104W        W75633  26.805  41.595  12.025
 4105W        W75634  17.087  27.713   0.357
 4106W        W75635  19.802   9.856   2.749
 4107W        W75636   8.898  13.348  11.516
 4108W        W75637  37.963  24.560   2.726
 4109W        W75638   3.528  32.903  12.381
 4110W        W75639  18.737  15.243   2.843
 4111W        W75640  27.489  20.201   2.394
 4112W        W75641  30.969  36.375  11.587
 4113W        W75642  13.209  25.901  10.450
 4114W        W75643  43.909  28.373  11.880
 4115W        W75644  23.201  42.520  14.422
 4116W        W75645  24.964  30.526  13.543
 4117W        W75646  10.935  35.016   3.027
 4118W        W75647  22.781   9.641  12.915
 4119W        W75648  16.072  37.588   2.112
 4120W        W75649   0.236   0.610  12.011
 4121W        W75650  40.504  33.118  10.633
 4122W        W75651  21.035   4.660   1.198
 4123W        W75652   6.929  36.840   4.185
 4124W        W75653   0.984   4.003  11.703
 4125W        W75654   6.469   1.263  12.361
 4126W        W75655  22.560  37.345   0.748
 4127W        W75656  13.551   0.036   3.920
 4128W        W75657  23.519  43.609   3.715
 4129W        W75658  32.135   3.178   9.866
 4130W        W75659  17.010   8.864   3.129
 4131W        W75660  36.483  25.936   4.500
 4132W        W75661  35.733  16.258   3.805
 4133W        W75662  41.938  14.143  11.481
 4134W        W75663  29.483  33.865  13.618
 4135W        W75664   2.272   4.672   0.177
 4136W        W75665  15.304   1.326   3.443
 4137W        W75666   4.754  28.360   1.507
 4138W        W75667  42.840  25.002   3.817
 4139W        W75668  30.048  43.106   4.640
 4140W        W75669  41.753   2.211  12.587
 4141W        W75670  18.303  42.689   3.334
 4142W        W75671  22.779   7.816  11.141
 4143W        W75672  11.171  32.596  13.321
 4144W        W75673  22.858   0.915  11.490
 4145W        W75674  16.374  35.683  12.924
 4146W        W75675  26.271  26.080   1.098
 4147W        W75676  40.878  35.979  12.533
 4148W        W75677  12.593   2.479   4.052
 4149W        W75678   1.006   3.467  11.986
 4150W        W75679  26.461  34.860  11.328
 4151W        W75680   2.956  27.258  11.842
 4152W        W75681  37.115  35.788  11.112
 4153W        W75682  43.099  11.883  11.910
 4154W        W75683  33.517  37.848  11.001
 4155W        W75684  32.184  21.110  12.021
 4156W        W75685  44.802   9.607   3.165
 4157W        W75686  38.560  27.616  12.046
 4158W        W75687  17.724  17.561   4.480
 4159W        W75688  31.084   2.572   2.930
 4160W        W75689  32.052  13.533  14.972
 4161W        W75690  43.166  30.185  11.652
 4162W        W75691  23.243  18.584  14.453
 4163W        W75692  35.025  19.123   0.403
 4164W        W75693  14.240  20.308   2.855
 4165W        W75694  29.398  20.579   0.698
 4166W        W75695  36.309  17.771  13.925
 4167W        W75696  20.616  27.498   1.445
 4168W        W75697  35.522  16.647  14.553
 4169W        W75698   5.875  11.101   2.612
 4170W        W75699   3.768  35.751  10.313
 4171W        W75700   0.750   4.517  11.296
 4172W        W75701  19.562   9.256  13.962
 4173W        W75702   9.867  11.269  10.536
 4174W        W75703  35.958   8.379  11.542
 4175W        W75704   9.197   6.200  14.944
 4176W        W75705  40.111   7.156   0.718
 4177W        W75706  35.565  25.906   1.605
 4178W        W75707  36.078  26.624  14.780
 4179W        W75708  19.335  30.489  12.504
 4180W        W75709  36.081  13.144  13.328
 4181W        W75710  35.872  37.493   2.707
 4182W        W75711   6.244  17.065   9.815
 4183W        W75712  39.635   2.354   2.672
 4184W        W75713   2.365   9.382   0.750
 4185W        W75714  22.052  41.804  14.788
 4186W        W75715  30.743  31.645   0.860
 4187W        W75716  27.132  25.668   2.005
 4188W        W75717  40.484  42.954  11.691
 4189W        W75718  11.374  32.169   3.510
 4190W        W75719  20.305  29.830  12.456
 4191W        W75720   4.515   9.401  13.052
 4192W        W75721  22.626  18.353   1.212
 4193W        W75722  18.875   3.895   3.858
 4194W        W75723   2.583   1.517  14.316
 4195W        W75724  42.371   2.291  11.924
 4196W        W75725  32.011  35.100   0.897
 4197W        W75726  37.863   9.663  14.803
 4198W        W75727  29.344  26.594  11.833
 4199W        W75728  20.961  30.712   3.301
 4200W        W75729   6.759  42.825  12.400
 4201W        W75730   4.868  15.704  11.579
 4202W        W75731  40.893  31.267   3.495
 4203W        W75732  35.547  30.105  12.834
 4204W        W75733   9.307  12.777  14.602
 4205W        W75734   0.696  39.922  14.237
 4206W        W75735  22.562  19.681  13.552
 4207W        W75736  21.690  27.528  14.259
 4208W        W75737  17.712  35.611   0.285
 4209W        W75738  42.910  29.882  11.990
 4210W        W75739  44.941  41.314  12.524
 4211W        W75740  24.178  24.668   1.165
 4212W        W75741  29.050  29.395   2.221
 4213W        W75742  39.052   8.817  12.409
 4214W        W75743  27.361  33.463   0.419
 4215W        W75744  26.262  38.163  10.839
 4216W        W75745  17.788   5.429   1.266
 4217W        W75746   5.476  28.400  14.893
 4218W        W75747  10.859  40.040  11.986
 4219W        W75748   9.894  13.650   0.328
 4220W        W75749  27.913  24.102  12.496
 4221W        W75750  43.351  31.638   1.894
 4222W        W75751  35.412   7.941  14.914
 4223W        W75752   7.403  32.633  13.934
 4224W        W75753  22.258   1.493   0.494
 4225W        W75754  34.120  16.776   1.893
 4226W        W75755  37.670  22.381  13.287
 4227W        W75756  33.432  15.294   0.964
 4228W        W75757   4.962  36.524  11.519
 4229W        W75758   4.343  36.355   1.748
 4230W        W75759  29.496  35.267   0.399
 4231W        W75760  21.706  20.639   4.519
 4232W        W75761  36.085  37.372   4.533
 4233W        W75762  35.457  32.799   4.125
 4234W        W75763   7.198  29.460   0.107
 4235W        W75764  42.499  32.907  13.864
 4236W        W75765  21.707  37.528   0.705
 4237W        W75766  19.829  42.924  11.068
 4238W        W75767  25.215  38.988   1.652
 4239W        W75768  22.694  39.218   1.419
 4240W        W75769  12.149  44.021   0.923
 4241W        W75770  23.955  27.096  10.276
 4242W        W75771  23.295  10.114   3.891
 4243W        W75772  29.338   7.148  13.450
 4244W        W75773  35.965  33.640   0.736
 4245W        W75774  17.253  15.881  14.375
 4246W        W75775  38.057   8.851  14.178
 4247W        W75776  12.435  34.636  12.366
 4248W        W75777  35.413   1.940   2.162
 4249W        W75778  12.313  11.152  13.505
 4250W        W75779  32.933  27.277  11.480
 4251W        W75780  11.734  41.392  11.580
 4252W        W75781  33.476  41.247   0.772
 4253W        W75782  34.412  31.707  12.094
 4254W        W75783  31.665  36.816   2.877
 4255W        W75784  14.047  12.219  10.665
 4256W        W75785  13.543  43.022  13.454
 4257W        W75786   6.330   2.980  14.910
 4258W        W75787  33.395  29.392  11.234
 4259W        W75788  11.447  40.098  11.512
 4260W        W75789   1.451  22.821  12.499
 4261W        W75790  25.975   0.199   0.600
 4262W        W75791  25.102  20.810  12.584
 4263W        W75792  10.314   5.178   1.223
 4264W        W75793  29.379   8.595   1.143
 4265W        W75794   6.744  24.883   1.823
 4266W        W75795  40.112  30.488   0.454
 4267W        W75796  15.032  14.910  11.089
 4268W        W75797  12.118   8.481   4.744
 4269W        W75798   9.798  30.008  10.904
 4270W        W75799  25.071   5.855   1.382
 4271W        W75800  13.075  17.676  14.497
 4272W        W75801  34.675  31.550  11.252
 4273W        W75802  18.130  22.785  11.595
 4274W        W75803  29.788  35.639   2.242
 4275W        W75804  20.122   3.666  12.816
 4276W        W75805  27.566  24.472  13.373
 4277W        W75806  44.685  13.669  11.516
 4278W        W75807  43.555  26.041   1.025
 4279W        W75808  38.050  13.871   4.162
 4280W        W75809  20.185   6.394   3.608
 4281W        W75810  21.564   9.991  11.449
 4282W        W75811  26.233   3.620   4.276
 4283W        W75812  27.932  37.107   2.261
 4284W        W75813  23.171   0.778  13.875
 4285W        W75814   6.594  26.619   2.349
 4286W        W75815  44.551  28.702   1.767
 4287W        W75816  14.891  13.393   1.343
 4288W        W75817  21.643  42.867   1.866
 4289W        W75818   0.077  21.008   2.405
 4290W        W75819  23.413   2.237   1.797
 4291W        W75820  14.124  29.552  12.484
 4292W        W75821  37.153  26.508   0.080
 4293W        W75822  16.229   8.021   4.151
 4294W        W75823  21.520  22.420  11.396
 4295W        W75824  21.145  17.813  10.168
 4296W        W75825  16.566  22.961  10.263
 4297W        W75826  22.798  37.389  11.296
 4298W        W75827   1.144   1.412  13.428
 4299W        W75828  25.789  22.176   2.266
 4300W        W75829  19.508  37.870   0.253
 4301W        W75830  13.552   2.066  12.156
 4302W        W75831  35.095   5.267  12.078
 4303W        W75832  16.957  44.842  14.904
 4304W        W75833   5.561  24.617  10.737
 4305W        W75834  33.658  13.169   1.045
 4306W        W75835   0.478  33.138   2.158
 4307W        W75836  25.263  36.436  13.043
 4308W        W75837   1.328  20.043  12.157
 4309W        W75838  18.814  25.273   3.258
 4310W        W75839   6.795  20.815  11.608
 4311W        W75840  18.502  37.593  14.252
 4312W        W75841  29.747  10.031   0.431
 4313W        W75842  19.528  11.684   3.156
 4314W        W75843  25.528  33.334  13.105
 4315W        W75844  41.938  44.380  13.514
 4316W        W75845  33.367   5.688  14.026
 4317W        W75846  35.971  34.970  12.956
 4318W        W75847  43.512  13.091  13.379
 4319W        W75848  28.177   9.138  11.361
 4320W        W75849  15.851  20.145  11.553
 4321W        W75850  14.143  24.034  11.750
 4322W        W75851  22.703  24.647  11.692
 4323W        W75852  44.831  32.661   4.167
 4324W        W75853  42.851  19.290   4.649
 4325W        W75854  36.375  43.072   1.663
 4326W        W75855  35.991  27.392  12.202
 4327W        W75856  13.120  42.360  14.937
 4328W        W75857  20.752  30.316   4.259
 4329W        W75858  34.038  32.839   1.995
 4330W        W75859  36.828  32.409  14.562
 4331W        W75860  31.092  37.511   0.309
 4332W        W75861  43.279  24.279  11.300
 4333W        W75862   2.166  33.617   3.432
 4334W        W75863  10.872  44.415  14.054
 4335W        W75864  32.128  16.597   0.172
 4336W        W75865  31.969   5.633  14.811
 4337W        W75866  12.272  17.396   2.889
 4338W        W75867  37.528  35.388  13.937
 4339W        W75868  29.510  38.348   4.629
 4340W        W75869  18.533  43.167   1.402
 4341W        W75870  41.024  22.310   3.268
 4342W        W75871   2.857  37.051  13.006
 4343W        W75872   3.003   4.729   1.403
 4344W        W75873  44.489  14.261  12.407
 4345W        W75874  27.287  43.979   3.155
 4346W        W75875  23.609  10.165  13.059
 4347W        W75876  22.782  42.808  14.547
 4348W        W75877   2.764  19.349   0.784
 4349W        W75878  24.931  26.943  13.885
 4350W        W75879  36.816   4.140   2.399
 4351W        W75880  28.087  22.033   3.645
 4352W        W75881  25.479  13.389  13.885
 4353W        W75882  20.700   5.380   0.339
 4354W        W75883  37.314  32.340  14.761
 4355W        W75884  11.208  31.049   0.453
 4356W        W75885  34.609  34.882   3.334
 4357W        W75886  28.384  14.885   3.648
 4358W        W75887  37.301  30.632  13.920
 4359W        W75888  39.980  22.167   1.926
 4360W        W75889  22.167   2.184   4.307
 4361W        W75890  26.974  35.153   4.582
 4362W        W75891  14.482  17.622  11.131
 4363W        W75892  19.193  31.050  13.499
 4364W        W75893  33.710  32.145   4.616
 4365W        W75894  21.513  39.547  13.082
 4366W        W75895  38.779  37.894  11.955
 4367W        W75896   1.232  44.337   2.714
 4368W        W75897  22.286  14.593   4.763
 4369W        W75898  23.448  41.895  13.514
 4370W        W75899  29.136  28.671   4.151
 4371W        W75900  30.874  10.515   2.322
 4372W        W75901  36.037  28.450   0.792
 4373W        W75902  30.548  38.076  13.501
 4374W        W75903  18.398  33.564  12.018
 4375W        W75904   3.308  12.094   1.245
 4376W        W75905  40.983  17.895  13.451
 4377W        W75906  29.077  34.559   1.227
 4378W        W75907   0.896  42.713   3.746
 4379W        W75908  11.189  35.436   1.805
 4380W        W75909  35.126  25.865  12.360
 4381W        W75910  17.025  41.465   4.637
 4382W        W75911  43.344  29.406   1.234
 4383W        W75912  14.769  13.289  14.580
 4384W        W75913   3.897  20.299  11.965
 4385W        W75914  32.283   9.655   2.710
 4386W        W75915  41.484  14.349  12.657
 4387W        W75916  15.539   2.027   4.240
 4388W        W75917  36.620  32.957   2.693
 4389W        W75918  37.524  16.505   0.355
 4390W        W75919  32.102  39.230  10.673
 4391W        W75920  22.067  31.592  14.778
 4392W        W75921  12.748  33.222  11.556
 4393W        W75922  41.484  37.782   4.157
 4394W        W75923  31.177  38.999  13.893
 4395W        W75924   0.613   8.866  11.563
 4396W        W75925  24.736   0.341   1.285
 4397W        W75926  12.191   7.386  11.109
 4398W        W75927  30.009  27.226  12.836
 4399W        W75928  39.772  40.482  12.424
 4400W        W75929  43.837  19.802  14.280
 4401W        W75930  44.605  20.825   0.485
 4402W        W75931  34.877  39.477   2.352
 4403W        W75932  29.955  36.343   0.990
 4404W        W75933  26.059  28.140  14.113
 4405W        W75934  11.117  32.062  11.554
 4406W        W75935  22.978  23.262  14.439
 4407W        W75936  40.944  33.857  13.528
 4408W        W75937  31.049   9.647  12.937
 4409W        W75938   9.937  26.096  11.110
 4410W        W75939  16.607  43.069  10.217
 4411W        W75940  18.212   3.686  14.425
 4412W        W75941  21.403  42.812  14.156
 4413W        W75942  22.525  34.873   1.321
 4414W        W75943  42.209  21.554   2.260
 4415W        W75944  20.193  34.627  11.103
 4416W        W75945  20.050  32.387   1.156
 4417W        W75946  25.698  18.718   2.643
 4418W        W75947  43.597   3.703  14.024
 4419W        W75948   4.085  27.466   3.783
 4420W        W75949  40.498   6.432  14.242
 4421W        W75950   7.174  31.931  11.966
 4422W        W75951   0.474  35.190  10.317
 4423W        W75952  25.719  42.990  11.227
 4424W        W75953   0.488   8.186  12.997
 4425W        W75954  21.297   7.375  14.743
 4426W        W75955  34.785   2.900  14.015
 4427W        W75956   3.907  30.447   1.692
 4428W        W75957  32.406  11.441  14.355
 4429W        W75958  13.418  10.907   2.398
 4430W        W75959   7.247  14.305   1.318
 4431W        W75960  22.132  16.810   1.493
 4432W        W75961   3.771  14.633  12.556
 4433W        W75962  32.006   5.012   3.586
 4434W        W75963   2.789  23.125   0.028
 4435W        W75964  23.222  13.149  13.272
 4436W        W75965  36.675  28.117  14.147
 4437W        W75966   9.364  16.670   0.476
 4438W        W75967  21.345  18.112  13.402
 4439W        W75968  41.883  24.440   2.224
 4440W        W75969  19.716  21.959   3.956
 4441W        W75970   4.258  31.111  11.321
 4442W        W75971   7.737  18.270  11.995
 4443W        W75972   5.345   0.871  10.666
 4444W        W75973  36.102   1.253   2.218
 4445W        W75974  32.017  28.189  11.577
 4446W        W75975  12.357   9.343   4.137
 4447W        W75976   8.415  23.071   4.732
 4448W        W75977   0.361  18.987  11.573
 4449W        W75978  30.956  26.053  12.381
 4450W        W75979  42.491  12.070  13.739
 4451W        W75980  30.632   7.657   0.463
 4452W        W75981   5.866  43.554   2.417
 4453W        W75982  38.098  26.820   3.152
 4454W        W75983  39.146  42.210   3.192
 4455W        W75984  39.040  40.798  13.020
 4456W        W75985  25.105  31.006  13.322
 4457W        W75986  43.533  37.927  14.063
 4458W        W75987  20.233  26.131  12.462
 4459W        W75988  37.009  19.456  13.550
 4460W        W75989  23.114  32.816   0.305
 4461W        W75990   4.710  16.654  12.528
 4462W        W75991  44.974   2.553   3.078
 4463W        W75992  21.415  34.063  10.478
 4464W        W75993   0.836   7.450  11.545
 4465W        W75994  34.531  30.037  13.977
 4466W        W75995  27.566  23.626   4.122
 4467W        W75996   4.731  24.380   1.668
 4468W        W75997  44.035   6.828   1.448
 4469W        W75998  15.483   2.028   0.040
 4470W        W75999  29.903  16.094  13.046
 4471W        W76000   7.198  27.035  14.968
 4472W        W76001  35.369  41.325  14.928
 4473W        W76002  34.215  39.390   4.344
 4474W        W76003   1.881  16.253  11.796
 4475W        W76004  25.268  32.079   4.904
 4476W        W76005  26.536  18.500   2.533
 4477W        W76006   5.967  16.656  11.901
 4478W        W76007  36.326  38.841   2.829
 4479W        W76008  37.885  36.935  10.418
 4480W        W76009   7.153  13.205   2.013
 4481W        W76010  10.806  12.233   4.902
 4482W        W76011  19.740  22.221  12.036
 4483W        W76012  15.227  11.312  12.467
 4484W        W76013  41.325   4.237  14.556
 4485W        W76014   4.698  13.938  12.945
 4486W        W76015   9.390  41.848  13.053
 4487W        W76016   3.351  39.667  11.857
 4488W        W76017  40.611  18.274   2.198
 4489W        W76018  43.836  28.390  13.749
 4490W        W76019   8.827   0.723   1.780
 4491W        W76020  18.650  39.683   1.307
 4492W        W76021   2.449  43.948   0.536
 4493W        W76022  19.735   2.930  10.582
 4494W        W76023   8.828   7.724  11.388
 4495W        W76024  24.114  10.553  12.949
 4496W        W76025   0.829   2.806   4.504
 4497W        W76026  33.570  42.788   0.964
 4498W        W76027   3.332  30.588  12.928
 4499W        W76028  25.183  22.960  13.871
 4500W        W76029  12.385  37.974   2.227
 4501W        W76030   4.709   7.383   0.307
 4502W        W76031  26.719  43.329  12.881
 4503W        W76032  12.838  23.551   4.614
 4504W        W76033  21.268  15.715  13.632
 4505W        W76034  34.388  19.798  14.923
 4506W        W76035  36.083  37.423   3.179
 4507W        W76036   2.555   5.869   1.485
 4508W        W76037  11.152  27.146  12.624
 4509W        W76038  43.804  13.376  14.499
 4510W        W76039  19.434   7.380  11.599
 4511W        W76040  38.617  22.602   3.257
 4512W        W76041  26.231  29.417   1.792
 4513W        W76042  33.627  35.175   2.280
 4514W        W76043  16.452  27.592   4.581
 4515W        W76044  10.252  32.335  14.978
 4516W        W76045   7.013  38.126   1.344
 4517W        W76046  19.082  12.636   0.114
 4518W        W76047  26.948  38.682  11.105
 4519W        W76048  23.943  24.522  12.747
 4520W        W76049  27.739  33.465   2.131
 4521W        W76050  11.734   3.356   3.746
 4522W        W76051  10.937  22.640   1.312
 4523W        W76052   2.850   2.904   4.627
 4524W        W76053  35.737  18.718  14.248
 4525W        W76054  42.313  13.951  11.123
 4526W        W76055  16.702   9.794  11.381
 4527W        W76056  18.775  31.728   2.116
 4528W        W76057  15.818   8.695   3.829
 4529W        W76058   5.961  42.817   4.430
 4530W        W76059  35.969  32.880  14.450
 4531W        W76060  15.471  31.003   1.880
 4532W        W76061  21.727  42.245  12.569
 4533W        W76062   0.611  22.640  10.318
 4534W        W76063  12.473   3.806  11.378
 4535W        W76064  29.083   9.689   1.759
 4536W        W76065  27.735  43.255  13.929
 4537W        W76066   8.279  15.791   1.874
 4538W        W76067  17.784  10.645   3.201
 4539W        W76068  24.361   4.323   1.709
 4540W        W76069   6.305  10.451  11.657
 4541W        W76070  28.468  43.997  11.513
 4542W        W76071   0.930  44.889   2.748
 4543W        W76072  13.361   6.265  14.672
 4544W        W76073  19.551  23.151  12.901
 4545W        W76074  43.533  36.091  13.957
 4546W        W76075  30.749   1.862   2.228
 4547W        W76076   6.201  42.535  14.518
 4548W        W76077  14.698   9.987  13.338
 4549W        W76078   4.344  43.596  14.958
 4550W        W76079  19.048  31.336   5.149
 4551W        W76080  43.623  32.831  13.225
 4552W        W76081   8.786  44.675   1.881
 4553W        W76082  34.452   8.781   3.855
 4554W        W76083  18.008   2.945  14.909
 4555W        W76084  22.536   2.750  14.977
 4556W        W76085  42.391  37.810  11.150
 4557W        W76086  12.067  33.745   0.626
 4558W        W76087  25.238   4.594  12.492
 4559W        W76088  38.711  32.983  14.400
 4560W        W76089  25.996  32.047  12.719
 4561W        W76090  19.235  35.386   2.902
 4562W        W76091  35.652  37.476   2.194
 4563W        W76092  20.240  30.418  11.128
 4564W        W76093  15.114  17.244  14.882
 4565W        W76094  14.392  18.977   1.781
 4566W        W76095  14.192  18.769   3.293
 4567W        W76096  15.995  29.376   4.558
 4568W        W76097  29.892   6.112  11.225
 4569W        W76098   9.508  30.280   2.836
 4570W        W76099  17.548   5.702   3.135
 4571W        W76100  29.684   9.407   1.231
 4572W        W76101  42.939  10.355  12.915
 4573W        W76102   7.770  40.802  14.818
 4574W        W76103  33.512  21.742   4.571
 4575W        W76104   1.226  17.725  12.963
 4576W        W76105  18.726  36.556  11.435
 4577W        W76106  33.416  41.759  12.052
 4578W        W76107  31.464  17.499  14.862
 4579W        W76108   5.866  42.036  11.153
 4580W        W76109  16.651  31.582   3.829
 4581W        W76110  18.487  40.197   1.180
 4582W        W76111  21.067  35.087   0.353
 4583W        W76112  22.712  22.709   0.731
 4584W        W76113  30.642  10.719  12.631
 4585W        W76114  43.959  42.159  13.118
 4586W        W76115  31.192  28.161   2.313
 4587W        W76116  34.321  22.198  12.059
 4588W        W76117  19.776  25.742  13.896
 4589W        W76118  27.905   9.880   0.421
 4590W        W76119   2.951  35.195   0.140
 4591W        W76120  19.139  21.746   5.137
 4592W        W76121   7.894  26.636   5.089
 4593W        W76122  39.459  32.161  13.369
 4594W        W76123  21.048  14.799  10.747
 4595W        W76124  18.985   7.421   0.284
 4596W        W76125  28.740  29.052  10.675
 4597W        W76126  22.549  11.938   3.107
 4598W        W76127  33.414   0.787  11.123
 4599W        W76128  34.841  28.547   0.268
 4600W        W76129  28.480  30.459   0.672
 4601W        W76130  44.063  21.007   5.137
 4602W        W76131  44.348  43.718   3.265
 4603W        W76132  27.924  11.374   3.583
 4604W        W76133  42.827   8.190   0.698
 4605W        W76134  28.024   8.403  10.653
 4606W        W76135  25.633  30.762   3.159
 4607W        W76136  37.423  20.436   4.194
 4608W        W76137   9.352  21.761   4.437
 4609W        W76138  19.261   9.594   4.336
 4610W        W76139  43.127  25.102  14.424
 4611W        W76140  21.697  23.906  12.634
 4612W        W76141  11.369  20.984  14.890
 4613W        W76142  13.502  35.754  13.937
 4614W        W76143  12.784  43.056   0.320
 4615W        W76144   4.605  24.953  11.001
 4616W        W76145  27.907  27.108   1.157
 4617W        W76146  23.124  37.020   2.860
 4618W        W76147  22.157  39.677  11.151
 4619W        W76148  13.569   9.956  10.315
 4620W        W76149  38.046   4.242  11.570
 4621W        W76150  10.635   6.611  14.873
 4622W        W76151  12.603  33.571   4.361
 4623W        W76152   9.092  42.063   0.795
 4624W        W76153  22.064  30.087   1.967
 4625W        W76154   4.076   0.443   3.683
 4626W        W76155  14.211  12.802  13.378
 4627W        W76156  17.752  37.688   4.669
 4628W        W76157  35.913  21.966  13.637
 4629W        W76158  26.214  33.208  14.452
 4630W        W76159  18.938  16.874  13.515
 4631W        W76160  10.208  20.539  12.795
 4632W        W76161  30.877  21.105  12.043
 4633W        W76162   4.735   6.489  10.665
 4634W        W76163   9.844  44.402   3.862
 4635W        W76164  25.024  31.580   0.360
 4636W        W76165  26.919  26.765  13.781
 4637W        W76166  13.682   3.952  12.160
 4638W        W76167   7.400  39.322  14.064
 4639W        W76168  32.472  36.558  12.988
 4640W        W76169  11.136  39.920  14.098
 4641W        W76170   9.777  11.401   1.954
 4642W        W76171  14.858  39.318  13.274
 4643W        W76172  19.670  11.998   3.991
 4644W        W76173  43.860   3.416  13.676
 4645W        W76174   6.355  40.109  13.036
 4646W        W76175   3.384  27.914  11.584
 4647W        W76176   9.766  36.309  13.533
 4648W        W76177  44.059  21.127  13.781
 4649W        W76178  31.452  34.409  13.062
 4650W        W76179   5.173   9.745  13.531
 4651W        W76180  27.047  11.804  12.378
 4652W        W76181  14.678  40.074  12.476
 4653W        W76182  20.788  34.285   2.065
 4654W        W76183  30.895  24.052  14.367
 4655W        W76184   9.258  39.506  10.913
 4656W        W76185  18.627  10.237   3.122
 4657W        W76186  44.403  32.573   1.794
 4658W        W76187  13.018  26.590   1.825
 4659W        W76188  10.231  12.568  12.238
 4660W        W76189   8.410   0.991   2.642
 4661W        W76190  11.704  43.226  14.353
 4662W        W76191   0.507  31.531  12.042
 4663W        W76192  10.738  39.734  11.589
 4664W        W76193  43.793  33.014  10.275
 4665W        W76194  15.666  26.574  13.854
 4666W        W76195  38.405  26.531   4.156
 4667W        W76196  14.664  26.888  10.566
 4668W        W76197  43.063  12.087  11.413
 4669W        W76198  24.216  36.444   2.032
 4670W        W76199  13.076   5.263   1.765
 4671W        W76200  30.574  41.611   1.674
 4672W        W76201  13.009  44.311   4.501
 4673W        W76202  20.853   5.936  10.415
 4674W        W76203  26.191   3.373   2.090
 4675W        W76204   3.350  29.693  13.213
 4676W        W76205  13.929  31.987   0.886
 4677W        W76206  36.886  34.009   4.327
 4678W        W76207   7.037  13.674  13.745
 4679W        W76208   7.652  21.470   4.210
 4680W        W76209  15.964  22.915   1.262
 4681W        W76210  35.597  17.806   3.704
 4682W        W76211  31.528  28.901  10.785
 4683W        W76212  10.604  13.432   0.857
 4684W        W76213  29.153  44.697  12.113
 4685W        W76214  35.886  39.940  12.666
 4686W        W76215  28.040  39.067   1.726
 4687W        W76216   0.194  11.841  11.116
 4688W        W76217  19.086  23.923   1.726
 4689W        W76218   5.654  21.724   1.324
 4690W        W76219  28.761  37.325   1.195
 4691W        W76220  11.237  23.995  12.478
 4692W        W76221   5.777   9.086  14.467
 4693W        W76222   1.417  26.635  10.558
 4694W        W76223  11.945  13.585   3.660
 4695W        W76224  22.203  40.083  14.331
 4696W        W76225   2.849  23.477   1.229
 4697W        W76226  36.981   6.400  10.748
 4698W        W76227  18.410  38.865   4.571
 4699W        W76228  10.661  37.421  14.701
 4700W        W76229   0.539  12.888  12.242
 4701W        W76230  12.964  17.587   4.186
 4702W        W76231  41.331  40.084  10.959
 4703W        W76232  13.667   8.003  11.525
 4704W        W76233  17.253  31.025  11.052
 4705W        W76234  21.655  31.228   2.175
 4706W        W76235   1.634  44.845  13.793
 4707W        W76236  19.779  17.236   0.273
 4708W        W76237  13.616  29.618  12.474
 4709W        W76238  19.397  27.996   3.243
 4710W        W76239  13.467   0.942  10.258
 4711W        W76240  33.832  39.285  13.305
 4712W        W76241  13.728   3.511  11.927
 4713W        W76242  41.416  23.571   3.005
 4714W        W76243  28.244  25.278   1.478
 4715W        W76244   6.368  13.625  11.183
 4716W        W76245  29.885  20.526   4.438
 4717W        W76246  27.094  32.779   2.817
 4718W        W76247  12.076  40.421  10.659
 4719W        W76248   4.512  33.465  11.482
 4720W        W76249   5.688  14.764   0.590
 4721W        W76250  19.873  32.662   3.345
 4722W        W76251  44.105  38.549  11.119
 4723W        W76252  37.883  13.905  10.534
 4724W        W76253  32.326  32.161  14.384
 4725W        W76254   7.497  31.114   1.455
 4726W        W76255   7.934   3.057  13.049
 4727W        W76256  21.266  16.183   2.725
 4728W        W76257  15.728  29.419   0.420
 4729W        W76258  13.625  30.618  11.766
 4730W        W76259   0.855  31.974  10.055
 4731W        W76260  14.555   6.924  14.405
 4732W        W76261  28.081   6.136   3.669
 4733W        W76262  13.541   5.241   3.734
 4734W        W76263  10.891   4.929   3.768
 4735W        W76264  21.262   1.551   1.285
 4736W        W76265  44.682  30.941  12.016
 4737W        W76266  11.361  13.792   0.539
 4738W        W76267  28.479  43.023  10.011
 4739W        W76268   2.783  36.607   1.254
 4740W        W76269  41.516  13.898   2.323
 4741W        W76270  19.728  25.020  12.586
 4742W        W76271  23.022   1.371   4.776
 4743W        W76272   1.338  30.455   0.992
 4744W        W76273   7.332   1.878  11.916
 4745W        W76274  11.764  21.147  13.084
 4746W        W76275  20.136  32.530  12.847
 4747W        W76276  33.961  39.418   3.866
 4748W        W76277   0.098  24.263  14.013
 4749W        W76278  18.296  21.861  12.188
 4750W        W76279  27.197  22.020   2.243
 4751W        W76280  31.219  17.149  10.792
 4752W        W76281  41.189  15.537   4.917
 4753W        W76282  35.355   3.327   4.624
 4754W        W76283  14.371  34.627  13.353
 4755W        W76284  18.184   9.250  10.730
 4756W        W76285  37.042  24.859  11.060
 4757W        W76286   8.316  41.280   0.533
 4758W        W76287  20.702  22.499   2.236
 4759W        W76288  11.908   7.364   1.701
 4760W        W76289   9.763   1.378   0.327
 4761W        W76290  30.109  12.608   4.092
 4762W        W76291  12.760   0.912  10.822
 4763W        W76292  22.791  16.117  11.976
 4764W        W76293  35.124  14.559   0.362
 4765W        W76294   0.251  17.667  12.592
 4766W        W76295   1.375  25.651   0.678
 4767W        W76296  25.003  18.648  12.932
 4768W        W76297  41.565  38.318   1.052
 4769W        W76298  23.759  24.926  13.511
 4770W        W76299  26.472  16.176  11.055
 4771W        W76300  12.244   8.854  13.294
 4772W        W76301   7.384  11.126   4.209
 4773W        W76302  17.339  40.487   1.341
 4774W        W76303  34.341  23.271   3.046
 4775W        W76304  26.771   7.400  13.311
 4776W        W76305  23.303   0.508  13.447
 4777W        W76306  35.240  20.693   0.275
 4778W        W76307  39.757  20.959   3.689
 4779W        W76308  24.443  12.160  12.157
 4780W        W76309  27.740   5.359   4.812
 4781W        W76310  30.978  28.760  14.805
 4782W        W76311   6.934  39.975   4.064
 4783W        W76312  18.800  12.901   3.240
 4784W        W76313  33.486  41.122  10.059
 4785W        W76314  25.097   0.601  14.116
 4786W        W76315  41.494   1.445  12.937
 4787W        W76316  43.241  40.765   3.356
 4788W        W76317  41.564  40.264  14.576
 4789W        W76318  10.354  29.230   4.531
 4790W        W76319  21.568   6.779  11.167
 4791W        W76320  28.116   8.735   5.086
 4792W        W76321  40.850  28.672   1.341
 4793W        W76322  26.082  23.769  13.405
 4794W        W76323  41.253  11.548   2.345
 4795W        W76324  39.124   2.533   0.431
 4796W        W76325   8.422  19.305  11.196
 4797W        W76326  26.440  26.016  13.481
 4798W        W76327  39.940   9.829   2.848
 4799W        W76328  12.247  43.810   0.441
 4800W        W76329  42.443  41.307  14.835
 4801W        W76330  21.963   9.078  14.509
 4802W        W76331  24.261   8.120   3.655
 4803W        W76332   0.370   9.875  14.924
 4804W        W76333  33.000   7.663   1.383
 4805W        W76334  32.818  10.379  12.921
 4806W        W76335  42.519  31.961  12.386
 4807W        W76336  14.178  32.604   0.893
 4808W        W76337  17.857  12.560  12.901
 4809W        W76338  25.554  29.412   4.669
 4810W        W76339  40.583  19.198  14.413
 4811W        W76340   8.259  12.663   4.255
 4812W        W76341   7.681  26.954   0.318
 4813W        W76342  36.675  41.571  10.993
 4814W        W76343   4.310  29.047   1.877
 4815W        W76344   6.678  40.862  14.410
 4816W        W76345  44.814   5.859   0.213
 4817W        W76346  29.375  22.505   0.740
 4818W        W76347  34.617  10.625  14.947
 4819W        W76348   2.055   9.928  13.303
 4820W        W76349  21.114   4.240  10.511
 4821W        W76350  42.324  26.794   0.872
 4822W        W76351  15.586  31.036   4.985
 4823W        W76352   0.541  42.001   3.678
 4824W        W76353  17.807  10.850  10.685
 4825W        W76354   2.898  22.682  13.583
 4826W        W76355  32.934  16.348  13.012
 4827W        W76356  36.957  22.821  12.993
 4828W        W76357  20.688  27.554   1.945
 4829W        W76358   3.053   1.731  14.444
 4830W        W76359  36.260   6.675  13.670
 4831W        W76360  42.950  42.300  13.547
 4832W        W76361   9.617  43.527  13.471
 4833W        W76362  22.761  13.639  11.127
 4834W        W76363   9.435   5.238   0.281
 4835W        W76364  28.512  10.189   3.660
 4836W        W76365  24.167  29.673  12.948
 4837W        W76366  39.722  42.759  12.914
 4838W        W76367  33.514  29.917   2.205
 4839W        W76368  31.883   4.871  13.926
 4840W        W76369  10.144   1.148  14.462
 4841W        W76370   7.427   1.389   2.875
 4842W        W76371   7.124  34.848  12.874
 4843W        W76372  18.222  37.372   1.501
 4844W        W76373  25.206  29.820  10.547
 4845W        W76374  23.012   4.450  12.863
 4846W        W76375  12.860  20.991  11.547
 4847W        W76376  34.782  22.317   4.070
 4848W        W76377  14.066  16.103   1.885
 4849W        W76378  22.246  26.319  13.570
 4850W        W76379  39.565  12.948  12.440
 4851W        W76380  21.035  27.114  14.840
 4852W        W76381  32.330   9.691  11.161
 4853W        W76382  11.800   6.852   1.264
 4854W        W76383  30.792   3.120   0.945
 4855W        W76384  26.630  26.448  12.527
 4856W        W76385  23.444  14.347  14.420
 4857W        W76386  11.173  30.045   2.782
 4858W        W76387  20.203   8.379  10.794
 4859W        W76388  34.440   9.662   1.918
 4860W        W76389  10.323  44.987   2.864
 4861W        W76390   9.145   4.788   0.287
 4862W        W76391  27.506  35.396   1.279
 4863W        W76392  28.580  25.073  10.707
 4864W        W76393  43.901  12.712   3.670
 4865W        W76394  36.303  13.251  10.514
 4866W        W76395   7.321  30.843   0.055
 4867W        W76396   8.846  39.295  11.591
 4868W        W76397  28.071  27.600  14.059
 4869W        W76398  22.131  35.073   0.496
 4870W        W76399  33.606   3.435  10.255
 4871W        W76400  39.178  16.784   3.346
 4872W        W76401  16.305  16.079  12.506
 4873W        W76402  12.832  21.739   1.385
 4874W        W76403  32.653  17.248  12.821
 4875W        W76404  33.808  34.881  11.586
 4876W        W76405   4.323   5.456   3.769
 4877W        W76406  23.994  19.183  11.978
 4878W        W76407  30.706  24.044   2.801
 4879W        W76408  42.872   0.080  11.695
 4880W        W76409  33.349  26.650   0.722
 4881W        W76410   1.171   2.236   3.367
 4882W        W76411  21.029  41.011  13.132
 4883W        W76412  36.860   2.725  10.611
 4884W        W76413  26.737   1.288  12.976
 4885W        W76414  17.019  27.625  11.593
 4886W        W76415  43.741   9.701  13.865
 4887W        W76416  35.330  31.913  11.083
 4888W        W76417   0.486  17.523  13.827
 4889W        W76418  29.061  17.351   0.817
 4890W        W76419   4.419   6.209   1.901
 4891W        W76420   1.164  40.601   0.796
 4892W        W76421  44.981  16.587  10.686
 4893W        W76422  13.330  19.816  14.017
 4894W        W76423  29.490  28.703  11.677
 4895W        W76424  38.694  25.955  14.125
 4896W        W76425  19.778   5.807  11.968
 4897W        W76426   8.424   1.001  14.893
 4898W        W76427   3.842  40.262  13.367
 4899W        W76428  38.629  29.615  11.588
 4900W        W76429   5.369  17.460   0.532
 4901W        W76430  26.512  13.051   0.752
 4902W        W76431  32.554   6.683  14.073
 4903W        W76432   3.958   3.799   3.196
 4904W        W76433  29.495  15.806   2.262
 4905W        W76434  27.663  19.537  10.750
 4906W        W76435  34.487  25.169   2.903
 4907W        W76436  33.943   8.297  11.149
 4908W        W76437   3.795  28.375   4.097
 4909W        W76438  31.441   1.434  14.218
 4910W        W76439  34.591   5.908   2.304
 4911W        W76440   4.459  19.773  12.531
 4912W        W76441  42.714  23.510   1.435
 4913W        W76442   8.025   9.756   0.737
 4914W        W76443  12.165  29.201  13.427
 4915W        W76444  40.932  12.703  12.558
 4916W        W76445  27.721  35.512  13.486
 4917W        W76446  19.676  12.999   1.921
 4918W        W76447  43.105  38.989   3.232
 4919W        W76448  21.100   0.085   3.242
 4920W        W76449   3.275  39.919   0.364
 4921W        W76450  31.614  22.571  12.277
 4922W        W76451  38.354  30.960  10.476
 4923W        W76452  23.831  28.122   2.905
 4924W        W76453  36.686  14.360  14.378
 4925W        W76454  29.780   4.887   2.611
 4926W        W76455  18.234   4.828  12.116
 4927W        W76456   2.384  42.541   1.959
 4928W        W76457  39.445  35.762  14.369
 4929W        W76458  10.900  13.687  13.011
 4930W        W76459  40.899   7.680  13.804
 4931W        W76460   5.242  20.936   2.296
 4932W        W76461   6.169  36.895  12.878
 4933W        W76462  22.580  22.883  10.758
 4934W        W76463  25.076   0.920  13.096
 4935W        W76464  44.601  43.522   3.682
 4936W        W76465   8.492  12.134  11.245
 4937W        W76466  14.827  29.082  14.526
 4938W        W76467  40.433  40.477  13.555
 4939W        W76468   7.814  36.436   4.788
 4940W        W76469  10.081  15.377  14.065
 4941W        W76470   1.870  13.267   4.559
 4942W        W76471  38.889  44.780   0.470
 4943W        W76472  32.110   4.132   2.890
 4944W        W76473  37.622   1.506  13.114
 4945W        W76474  35.555  35.772   1.171
 4946W        W76475  28.108  40.950  14.422
 4947W        W76476  27.745  32.964   4.525
 4948W        W76477  20.029  36.993   0.352
 4949W        W76478  22.083  28.107   2.268
 4950W        W76479  39.409  34.477  14.560
 4951W        W76480   0.883   9.263   0.299
 4952W        W76481  43.427  26.114  13.573
 4953W        W76482  33.145  33.250   4.165
 4954W        W76483  33.641  33.133   2.186
 4955W        W76484  15.832  44.714  12.086
 4956W        W76485  33.576   9.429  12.272
 4957W        W76486   4.964   7.804   3.419
 4958W        W76487  18.167  33.801  13.853
 4959W        W76488  44.871  29.033   2.779
 4960W        W76489  18.327   9.395   3.593
 4961W        W76490  15.190  31.616   0.533
 4962W        W76491  11.334  30.573  12.912
 4963W        W76492  36.493  37.886  11.482
 4964W        W76493   9.335  11.256   4.034
 4965W        W76494  43.356   0.795  11.927
 4966W        W76495  40.468  10.221   4.792
 4967W        W76496  28.647  41.019  12.479
 4968W        W76497   8.736   2.009  13.940
 4969W        W76498  21.514  36.360   1.678
 4970W        W76499  29.419   7.341   4.967
 4971W        W76500  21.191  28.619   4.551
 4972W        W76501  39.520  27.144   0.802
 4973W        W76502   4.237  18.729  13.455
 4974W        W76503  42.870  35.059   4.048
 4975W        W76504  24.051   1.353  10.887
 4976W        W76505   9.316   1.515   3.227
 4977W        W76506  12.159  24.783   3.286
 4978W        W76507  14.097  41.984  14.353
 4979W        W76508   8.316  20.649  13.394
 4980W        W76509   6.363  15.475   0.272
 4981W        W76510  19.083  42.429   3.533
 4982W        W76511  33.655  28.990  14.423
 4983W        W76512  27.076   0.056  11.027
 4984W        W76513  37.339  33.398  12.802
 4985W        W76514  31.445  11.693   1.818
 4986W        W76515  36.477  34.995   2.828
 4987W        W76516   3.995   9.466  10.713
 4988W        W76517   4.948  10.907  14.860
 4989W        W76518   8.468  42.350  13.482
 4990W        W76519  11.824  34.280   4.711
 4991W        W76520  22.627  21.153  11.583
 4992W        W76521  41.617  34.485   2.309
 4993W        W76522  32.672   8.250   3.147
 4994W        W76523  14.536  32.952   2.418
 4995W        W76524  18.926  34.521   0.358
 4996W        W76525   4.824  23.253   2.797
 4997W        W76526  14.670  20.040   2.704
 4998W        W76527  32.911  36.376   1.432
 4999W        W76528  30.587   4.947  14.336
 5000W        W76529  22.212  43.070   1.889
 5001W        W76530  11.168   9.649  14.279
 5002W        W76531  28.060   8.153   0.409
 5003W        W76532  12.324  21.597  10.634
 5004W        W76533  28.441  41.441   2.366
 5005W        W76534  19.822  31.522   0.338
 5006W        W76535  43.108  39.071  10.032
 5007W        W76536  44.351  38.944  13.015
 5008W        W76537  39.040  35.335  10.766
 5009W        W76538  31.564  32.389  12.999
 5010W        W76539  23.741   0.283   4.679
 5011W        W76540  44.256  14.231   2.321
 5012W        W76541  31.122   6.889  10.818
 5013W        W76542  31.522  24.966  13.043
 5014W        W76543  22.267   4.391  14.048
 5015W        W76544   3.991  11.580   3.290
 5016W        W76545  34.112  27.125   4.152
 5017W        W76546   4.164  43.949  12.646
 5018W        W76547  43.192  37.484   4.832
 5019W        W76548  16.833  44.044   1.063
 5020W        W76549   9.320  36.853  12.830
 5021W        W76550  24.941   0.334   3.255
 5022W        W76551  19.379  39.250  11.015
 5023W        W76552  13.550  11.942   3.369
 5024W        W76553  28.142  23.276   3.736
 5025W        W76554  24.489  15.490  14.357
 5026W        W76555   1.779  44.983   4.110
 5027W        W76556  39.407  32.875  13.947
 5028W        W76557   0.130   3.301   4.554
 5029W        W76558  41.379  24.541   3.390
 5030W        W76559  23.980   4.047   4.460
 5031W        W76560  37.380   9.389  14.798
 5032W        W76561  22.585   1.338  12.131
 5033W        W76562  35.951  31.652   4.196
 5034W        W76563  37.662  40.819  10.503
 5035W        W76564  30.402  21.895  12.087
 5036W        W76565  19.960  17.741  13.752
 5037W        W76566  12.167  37.511  10.192
 5038W        W76567  28.470   9.746  12.828
 5039W        W76568  29.505  16.041   3.612
 5040W        W76569  11.258  20.143  11.884
 5041W        W76570  12.801   4.333  10.649
 5042W        W76571   1.466  32.940   2.176
 5043W        W76572  13.844   5.178   4.157
 5044W        W76573  19.269  19.694   4.740
 5045W        W76574  26.974  42.403   2.487
 5046W        W76575  31.909  34.837  14.411
 5047W        W76576  25.019  38.357  14.978
 5048W        W76577   1.366  24.457  10.677
 5049W        W76578  33.280  25.423   4.133
 5050W        W76579  32.346  41.323   0.234
 5051W        W76580  32.934   1.388   2.109
 5052W        W76581  33.369  27.091   1.934
 5053W        W76582  39.344  13.161  11.984
 5054W        W76583  41.061  17.574  13.862
 5055W        W76584  28.126  14.272   5.042
 5056W        W76585  17.763  11.409   4.542
 5057W        W76586  29.410  24.966   1.887
 5058W        W76587  41.955  40.774  10.670
 5059W        W76588  32.448  40.854   1.688
 5060W        W76589  14.818  30.198  14.860
 5061W        W76590   4.876   4.236   0.294
 5062W        W76591  15.827  29.958  14.393
 5063W        W76592   6.198  31.894  13.437
 5064W        W76593  19.429   1.760  12.455
 5065W        W76594  44.945  28.683  11.020
 5066W        W76595  22.555  33.966   4.167
 5067W        W76596   2.751  18.555  12.421
 5068W        W76597  33.858  11.712   4.132
 5069W        W76598   4.320  35.781   0.226
 5070W        W76599  35.549  34.798  11.123
 5071W        W76600   8.241   9.201  14.474
 5072W        W76601   3.910  11.324  10.428
 5073W        W76602   4.941  25.406  13.854
 5074W        W76603  42.944  31.854  11.065
 5075W        W76604  26.237   9.294  14.845
 5076W        W76605  13.294  30.399   1.392
 5077W        W76606  38.540   9.853  11.419
 5078W        W76607   6.433  44.903  14.070
 5079W        W76608  35.824  37.146   0.996
 5080W        W76609  19.611  33.559  13.161
 5081W        W76610  10.086  35.443  12.149
 5082W        W76611   9.841  27.089  12.119
 5083W        W76612   6.970  25.526   4.594
 5084W        W76613  39.809   2.654  14.449
 5085W        W76614  25.733  38.398   0.270
 5086W        W76615   3.215  21.262  13.777
 5087W        W76616  42.014   9.330  10.599
 5088W        W76617  33.589  29.588  12.138
 5089W        W76618   2.872  26.995  12.340
 5090W        W76619  35.640  37.789   3.942
 5091W        W76620  18.628  16.625  14.324
 5092W        W76621  13.293  41.859  13.805
 5093W        W76622  26.609  20.798   0.296
 5094W        W76623  18.910   8.653   5.079
 5095W        W76624   8.318  23.897   3.166
 5096W        W76625  10.252  37.920  13.002
 5097W        W76626  32.062  34.570   2.565
 5098W        W76627  29.028  14.447  12.770
 5099W        W76628  28.160  17.656   2.889
 5100W        W76629  35.583  18.210   3.193
 5101W        W76630  28.877  30.063  11.220
 5102W        W76631  34.451  12.170  11.611
 5103W        W76632  12.108  37.288   2.259
 5104W        W76633  24.644   5.982  13.441
 5105W        W76634  31.464  29.662  14.003
 5106W        W76635  25.424   2.864  12.137
 5107W        W76636  15.146   4.320  13.034
 5108W        W76637   4.329   4.441  13.229
 5109W        W76638  38.489  34.129   1.692
 5110W        W76639   4.461  27.970   1.302
 5111W        W76640  22.593  43.264   0.428
 5112W        W76641  30.847   2.001   0.568
 5113W        W76642  17.152  27.719  13.402
 5114W        W76643   4.691  17.984  14.905
 5115W        W76644  34.850  17.719   3.294
 5116W        W76645   1.457  44.564   2.292
 5117W        W76646  28.443   1.927  14.679
 5118W        W76647  17.175  27.081  12.351
 5119W        W76648  32.408  38.065  12.412
 5120W        W76649  33.811  27.853  12.414
 5121W        W76650  15.675  25.235  12.141
 5122W        W76651   8.128  14.767   4.225
 5123W        W76652  20.519  44.781  12.041
 5124W        W76653  23.611  31.795   0.710
 5125W        W76654   7.477   9.649  10.766
 5126W        W76655   4.430  19.068   9.999
 5127W        W76656   6.468  16.534   4.165
 5128W        W76657   8.294  32.499   1.196
 5129W        W76658  31.090  26.454   0.228
 5130W        W76659  27.429  35.961  13.409
 5131W        W76660   4.098  33.903  13.154
 5132W        W76661  39.647  21.511   3.374
 5133W        W76662  10.633   9.994  13.115
 5134W        W76663   4.658  42.786  10.269
 5135W        W76664  11.642  37.279  11.537
 5136W        W76665  23.588  41.767  11.632
 5137W        W76666  37.345  25.297   1.200
 5138W        W76667  40.569  35.648   4.585
 5139W        W76668   8.057   2.729  13.665
 5140W        W76669   3.405   5.543  12.079
 5141W        W76670   2.897   2.329   1.361
 5142W        W76671  15.839  36.327   2.165
 5143W        W76672   4.890  16.593  13.851
 5144W        W76673  21.054  20.539  11.014
 5145W        W76674  24.025  19.646   0.904
 5146W        W76675  24.232  32.307   1.857
 5147W        W76676   8.280  17.463   0.465
 5148W        W76677   2.582   6.205   0.748
 5149W        W76678  37.397  14.760   2.194
 5150W        W76679  26.532  16.046   4.570
 5151W        W76680  26.203  10.694   1.640
 5152W        W76681  29.862   4.014   0.231
 5153W        W76682  26.560  37.806  14.088
 5154W        W76683   8.348  40.562   0.803
 5155W        W76684  40.348   2.401  13.368
 5156W        W76685  42.477  12.735  13.457
 5157W        W76686  19.199  38.314  10.563
 5158W        W76687   3.888  36.561  12.405
 5159W        W76688   6.212  41.829   0.286
 5160W        W76689  28.436   8.091  10.692
 5161W        W76690  16.117  10.293   0.347
 5162W        W76691  12.294  24.183  14.773
 5163W        W76692  29.631  28.705  10.697
 5164W        W76693  31.935   1.517  14.918
 5165W        W76694  34.992  12.888   0.782
 5166W        W76695  28.159  13.492  10.286
 5167W        W76696  27.968  20.821   5.071
 5168W        W76697   7.604   3.161   5.062
 5169W        W76698  43.538  19.631   3.326
 5170W        W76699  16.099  19.700  11.471
 5171W        W76700  25.408  30.977   3.568
 5172W        W76701  10.936  42.716  10.052
 5173W        W76702  42.498  18.043  10.778
 5174W        W76703  26.241  44.968  13.506
 5175W        W76704   1.855  21.535  10.653
 5176W        W76705  18.284  35.040   0.524
 5177W        W76706  31.038   3.969   0.362
 5178W        W76707  26.160   8.103   3.776
 5179W        W76708   2.251   5.665  13.636
 5180W        W76709  36.135  30.305  11.131
 5181W        W76710  15.781  23.786  13.884
 5182W        W76711   2.967  23.249   2.807
 5183W        W76712  33.124  36.982  11.422
 5184W        W76713   1.898  18.234  11.182
 5185W        W76714  11.508  38.037  11.800
 5186W        W76715  37.917  20.750   0.512
 5187W        W76716  28.134  34.809   2.099
 5188W        W76717   2.343  39.548   3.681
 5189W        W76718  32.517  30.862   2.420
 5190W        W76719  28.530  16.806  13.591
 5191W        W76720  28.514  30.939   0.459
 5192W        W76721  26.992  27.293   0.016
 5193W        W76722   0.339  25.778  11.062
 5194W        W76723  37.365  16.709  12.080
 5195W        W76724  36.554   4.339  10.741
 5196W        W76725  18.902  34.625  13.858
 5197W        W76726  43.047  13.580   2.308
 5198W        W76727  35.691   4.712   4.292
 5199W        W76728  26.250  12.318   1.809
 5200W        W76729  26.095  30.094  11.603
 5201W        W76730  29.616  35.174   2.417
 5202W        W76731  20.740  31.041  12.723
 5203W        W76732  38.489  26.693  12.459
 5204W        W76733   0.061  39.385  12.116
 5205W        W76734  32.850  23.458   4.717
 5206W        W76735   6.490   3.830   1.018
 5207W        W76736  13.986  28.248  12.537
 5208W        W76737   1.518  30.671  13.793
 5209W        W76738  37.272  10.854   3.765
 5210W        W76739  11.110  32.973   3.615
 5211W        W76740   7.889  35.820   4.152
 5212W        W76741  24.470   9.936  12.637
 5213W        W76742  22.652  40.004   0.023
 5214W        W76743  15.036  43.920  10.976
 5215W        W76744  15.851  10.246   1.413
 5216W        W76745  33.923  36.112  12.887
 5217W        W76746  20.110  39.451  13.580
 5218W        W76747  38.481   7.699   2.198
 5219W        W76748  12.632  18.262   0.395
 5220W        W76749  10.699   6.103   4.114
 5221W        W76750  10.557  42.260   0.094
 5222W        W76751  34.902  21.580   1.986
 5223W        W76752  32.540  14.686  12.916
 5224W        W76753  29.261  44.156   1.788
 5225W        W76754  17.574  40.728   5.131
 5226W        W76755   4.868  31.946   1.826
 5227W        W76756  32.467  13.776  12.403
 5228W        W76757  31.742  24.127   2.677
 5229W        W76758   9.155   9.964  11.498
 5230W        W76759  35.553  33.906  12.486
 5231W        W76760  34.395  31.069  11.293
 5232W        W76761  37.061   6.827   3.565
 5233W        W76762  43.334  35.487   2.411
 5234W        W76763  24.233  25.472   3.144
 5235W        W76764  14.240  16.511  10.653
 5236W        W76765  21.491  16.575   3.744
 5237W        W76766  25.243  13.334  11.640
 5238W        W76767  25.947  31.751   4.178
 5239W        W76768  28.151  39.620   4.158
 5240W        W76769  13.895  41.478   0.436
 5241W        W76770  20.539  35.604  14.457
 5242W        W76771  21.374   9.538  13.815
 5243W        W76772  16.096  20.549   0.434
 5244W        W76773  18.758   2.849  14.503
 5245W        W76774  27.930  10.388  14.837
 5246W        W76775  14.681  17.548  13.025
 5247W        W76776   5.010  10.508   0.733
 5248W        W76777  36.520  36.790  10.726
 5249W        W76778  29.517   4.042  14.338
 5250W        W76779  25.074  15.236  13.857
 5251W        W76780  28.297  22.586  10.714
 5252W        W76781  23.819  22.964   1.262
 5253W        W76782  34.633  27.001  13.622
 5254W        W76783  25.971  40.604   2.749
 5255W        W76784  20.094   4.956  14.934
 5256W        W76785  44.522  43.972  10.748
 5257W        W76786  12.461  33.517  14.466
 5258W        W76787  20.646  31.625   2.440
 5259W        W76788   5.693   4.735  13.755
 5260W        W76789  38.141   3.039  11.118
 5261W        W76790   6.380  43.939   2.990
 5262W        W76791   0.842  11.430   1.522
 5263W        W76792  17.598  44.260  12.348
 5264W        W76793  12.116   6.248   3.142
 5265W        W76794  13.333   6.373  14.153
 5266W        W76795  27.804  27.249  12.786
 5267W        W76796  24.724  14.620   4.206
 5268W        W76797  39.857  26.615   0.089
 5269W        W76798  37.947   5.922  12.733
 5270W        W76799  18.843  10.883  13.370
 5271W        W76800  24.142  17.229  12.429
 5272W        W76801  17.014  33.799   3.682
 5273W        W76802  13.626  32.724   2.550
 5274W        W76803  33.015  19.290   3.216
 5275W        W76804  39.071  31.199  12.067
 5276W        W76805  43.415  17.783  14.107
 5277W        W76806  18.278  17.658   2.832
 5278W        W76807  28.234   3.404   2.245
 5279W        W76808  20.805  28.347  11.640
 5280W        W76809  32.623   5.132   0.795
 5281W        W76810  34.687  13.536  14.555
 5282W        W76811  13.128  33.996  14.123
 5283W        W76812  30.532  28.992   0.487
 5284W        W76813  35.850  28.595   1.243
 5285W        W76814  26.593  37.914  11.631
 5286W        W76815  44.131  21.959  12.344
 5287W        W76816   8.340  15.171  12.882
 5288W        W76817   5.401  39.198  14.142
 5289W        W76818  10.553  22.529  11.919
 5290W        W76819   0.533  24.103   3.577
 5291W        W76820  11.393   4.766   3.755
 5292W        W76821  22.763  20.799  14.365
 5293W        W76822  35.611  22.573  11.623
 5294W        W76823  22.086  18.867  11.401
 5295W        W76824  28.440  19.829   0.965
 5296W        W76825  38.243  25.583  12.156
 5297W        W76826  20.231  26.173   1.403
 5298W        W76827  13.457   4.367  11.943
 5299W        W76828  33.481  16.520   4.136
 5300W        W76829   2.796  14.805   0.920
 5301W        W76830  22.246  29.220   1.652
 5302W        W76831  43.792   3.156  12.825
 5303W        W76832   3.119   9.813  13.350
 5304W        W76833  25.523   8.910  11.795
 5305W        W76834  27.582  31.132   2.147
 5306W        W76835  36.556   7.366   0.804
 5307W        W76836  26.631   7.315   1.327
 5308W        W76837  34.338  40.502   3.311
 5309W        W76838  40.565  28.548  12.305
 5310W        W76839  32.439  29.650  13.306
 5311W        W76840   3.968   8.037   0.809
 5312W        W76841  42.831   0.514   3.818
 5313W        W76842  37.241  27.875  13.044
 5314W        W76843  30.334  14.517   1.885
 5315W        W76844  38.802  38.323   2.255
 5316W        W76845  12.141   1.514  12.086
 5317W        W76846  36.486  32.462   0.890
 5318W        W76847  31.508  23.425  12.850
 5319W        W76848  26.580  16.705  12.491
 5320W        W76849   5.215   1.404   2.851
 5321W        W76850   1.380  15.280   3.184
 5322W        W76851   9.626  43.737   4.128
 5323W        W76852  25.241   1.699   0.762
 5324W        W76853  22.600  28.938   1.295
 5325W        W76854  27.090  44.892  13.772
 5326W        W76855  40.260  27.471  12.430
 5327W        W76856  19.688  19.130   1.381
 5328W        W76857  20.132   1.579   1.940
 5329W        W76858  26.684   1.948  11.450
 5330W        W76859  40.216   5.244   3.740
 5331W        W76860   2.976   2.991  14.058
 5332W        W76861   5.904   3.812  11.777
 5333W        W76862  34.051   6.752  14.132
 5334W        W76863  39.644  16.066   4.213
 5335W        W76864   3.917  16.368   3.430
 5336W        W76865  32.470  15.604   2.763
 5337W        W76866  29.075  20.446  14.418
 5338W        W76867   7.623  10.175  10.764
 5339W        W76868  11.650  37.399   4.121
 5340W        W76869  39.590   3.255  13.322
 5341W        W76870   7.240   3.196  13.122
 5342W        W76871  32.311  17.714  11.966
 5343W        W76872   2.707  30.421   4.633
 5344W        W76873  28.635  35.432   4.281
 5345W        W76874  26.647  16.741  11.030
 5346W        W76875  33.110  13.085   1.141
 5347W        W76876  26.570  31.398  10.684
 5348W        W76877  26.736  14.685   2.974
 5349W        W76878  10.887   2.999  14.824
 5350W        W76879  16.704  28.685   1.183
 5351W        W76880   5.885   7.161  12.514
 5352W        W76881  22.665  41.598  11.273
 5353W        W76882   4.190  22.800  13.531
 5354W        W76883  39.309  40.833   4.068
 5355W        W76884  33.622   0.022  14.480
 5356W        W76885  30.542   3.834  11.031
 5357W        W76886  32.476  26.017   2.174
 5358W        W76887  38.551  10.603  13.081
 5359W        W76888  27.040  22.073   0.039
 5360W        W76889  16.132  16.347  12.912
 5361W        W76890  14.095  41.869  10.758
 5362W        W76891   7.942  19.831   3.724
 5363W        W76892   8.645   3.744   4.498
 5364W        W76893   9.432   9.694   0.334
 5365W        W76894   7.835  17.654  12.882
 5366W        W76895   1.723  29.769  12.690
 5367W        W76896  18.224  22.083  11.714
 5368W        W76897  26.882   8.328   3.257
 5369W        W76898  35.209   0.429   0.742
 5370W        W76899  43.318   9.812   2.993
 5371W        W76900   6.825  34.041   4.215
 5372W        W76901  20.853  30.151   0.745
 5373W        W76902  24.994   7.914  11.336
 5374W        W76903  23.613  10.582  10.531
 5375W        W76904  18.569   8.849  11.169
 5376W        W76905  32.377  40.411   3.621
 5377W        W76906  15.343  29.942  14.172
 5378W        W76907  21.914  32.479  13.509
 5379W        W76908  19.007   0.866  12.439
 5380W        W76909  20.507  10.161  13.040
 5381W        W76910  27.468  22.259  12.576
 5382W        W76911   0.614   2.804  11.640
 5383W        W76912   7.363   7.916   0.709
 5384W        W76913  16.114  43.620  14.761
 5385W        W76914  24.142  32.831  11.441
 5386W        W76915  24.257  15.858   5.000
 5387W        W76916   3.930   5.340   2.270
 5388W        W76917   2.496   1.257   0.923
 5389W        W76918   2.755  27.255   3.826
 5390W        W76919  38.076   9.812  13.277
 5391W        W76920  23.603  14.767   3.264
 5392W        W76921  26.060  30.718   2.275
 5393W        W76922   9.178   2.710  11.521
 5394W        W76923  43.339  34.978  10.839
 5395W        W76924  42.583  32.003  10.726
 5396W        W76925  38.575  11.618  12.861
 5397W        W76926  38.777   6.134   0.401
 5398W        W76927  40.260  21.328   1.267
 5399W        W76928  41.045  38.044   4.283
 5400W        W76929  33.443  36.020  13.056
 5401W        W76930  43.345  16.215  11.474
 5402W        W76931   5.827  38.775  11.835
 5403W        W76932  40.065  38.817  10.866
 5404W        W76933  27.077  29.710  13.937
 5405W        W76934  17.813  36.719   3.109
 5406W        W76935  23.312  44.839  12.043
 5407W        W76936  23.778  34.109   2.244
 5408W        W76937  15.605  25.291   3.573
 5409W        W76938  23.102   4.838   2.648
 5410W        W76939  28.241  31.637  11.963
 5411W        W76940  43.974  12.101   3.324
 5412W        W76941  40.383  33.383   2.639
 5413W        W76942   0.290  35.123  11.173
 5414W        W76943   2.180  19.300  13.920
 5415W        W76944  38.623  23.099   1.988
 5416W        W76945  37.052  19.986   0.137
 5417W        W76946   6.232  39.257   2.694
 5418W        W76947   4.624  13.761   1.985
 5419W        W76948  33.669  26.415  14.225
 5420W        W76949  44.459   6.124   1.773
 5421W        W76950  33.161  18.027   0.411
 5422W        W76951  23.550   8.243   1.982
 5423W        W76952  26.986   4.937  12.011
 5424W        W76953  40.307  14.878   2.841
 5425W        W76954  33.211  23.735  13.524
 5426W        W76955  33.894  25.528  13.063
 5427W        W76956  41.524   9.533   1.392
 5428W        W76957  10.480  35.771  14.116
 5429W        W76958  17.774  30.031   2.785
 5430W        W76959  15.765  30.063   1.699
 5431W        W76960  26.950  19.740   3.750
 5432W        W76961  43.267  16.477  12.958
 5433W        W76962   8.750  13.338   4.544
 5434W        W76963  39.485  38.890   4.424
 5435W        W76964  14.184   1.698  14.105
 5436W        W76965   1.482  36.667  10.282
 5437W        W76966  31.397  32.578   5.017
 5438W        W76967  30.156   9.116  12.061
 5439W        W76968   0.828  20.032   4.644
 5440W        W76969  27.649   6.473   1.832
 5441W        W76970  29.603  22.019  13.220
 5442W        W76971  22.726   1.788  13.363
 5443W        W76972  25.272  40.721  12.872
 5444W        W76973  18.282  41.425   4.162
 5445W        W76974  16.203  38.346   4.113
 5446W        W76975   2.231  15.098   4.282
 5447W        W76976  37.198  17.706  12.116
 5448W        W76977  22.704  14.866  10.549
 5449W        W76978  17.446  28.453   1.736
 5450W        W76979  38.239  11.322  11.976
 5451W        W76980  33.634  33.155   1.678
 5452W        W76981  36.433  28.840   0.781
 5453W        W76982  26.631  44.959  13.073
 5454W        W76983  43.239   5.257  13.959
 5455W        W76984   9.365  14.829   1.746
 5456W        W76985  22.159  15.596   2.099
 5457W        W76986  10.168  31.172   2.740
 5458W        W76987   0.344  13.515   0.879
 5459W        W76988  39.862  44.751  11.541
 5460W        W76989  11.130   2.649   2.350
 5461W        W76990  15.076  38.061   0.225
 5462W        W76991  29.213   2.895   3.607
 5463W        W76992   1.331  36.976  14.090
 5464W        W76993  12.488  11.722   1.499
 5465W        W76994  31.974  37.943  14.946
 5466W        W76995   3.962  29.554  10.667
 5467W        W76996  12.277  35.119   4.721
 5468W        W76997  38.250  23.999  14.477
 5469W        W76998  13.184   9.704   4.553
 5470W        W76999   7.301  22.784   2.093
 5471W        W77000  40.317  33.779  12.442
 5472W        W77001  16.626  16.550   1.690
 5473W        W77002  27.728   0.420  14.749
 5474W        W77003  31.563  23.589  10.207
 5475W        W77004  34.418   2.206   3.638
 5476W        W77005  21.758  43.454  13.478
 5477W        W77006   6.184  14.513   2.857
 5478W        W77007  34.303  11.447  12.364
 5479W        W77008  28.095  37.028   0.016
 5480W        W77009  34.249  21.729   3.965
 5481W        W77010  10.714  23.240   3.891
 5482W        W77011  37.110  16.798   0.410
 5483W        W77012  20.779  18.560   3.124
 5484W        W77013   3.484  40.055  14.402
 5485W        W77014  17.751  16.607   3.576
 5486W        W77015  12.099  31.424   3.363
 5487W        W77016  15.021  31.894   3.229
 5488W        W77017  13.870   1.868   2.276
 5489W        W77018  18.293  18.183  14.238
 5490W        W77019   4.465   9.372  10.498
 5491W        W77020  28.946  37.810   1.254
 5492W        W77021  38.323  17.225  13.548
 5493W        W77022  39.573  24.646  11.938
 5494W        W77023  29.459  25.608   1.329
 5495W        W77024  14.243  23.552   0.965
 5496W        W77025  11.839   7.561  11.691
 5497W        W77026  44.001  38.617  12.125
 5498W        W77027  17.402  17.093   0.204
 5499W        W77028  42.944  22.666  11.121
 5500W        W77029  31.976  25.431   3.429
 5501W        W77030  17.126   5.353   4.862
 5502W        W77031  21.416  32.258  14.793
 5503W        W77032  40.769   1.833  11.211
 5504W        W77033  14.692   7.509  11.559
 5505W        W77034  37.861  21.260   3.075
 5506W        W77035  29.510  23.976  13.396
 5507W        W77036  12.689  15.165  10.731
 5508W        W77037  18.588  21.683  13.946
 5509W        W77038  23.623  34.722   4.977
 5510W        W77039   4.435  31.963   2.837
 5511W        W77040   2.882  42.291  14.836
 5512W        W77041  38.333  23.973   2.853
 5513W        W77042  38.780  18.673  12.475
 5514W        W77043   8.625  27.616  13.774
 5515W        W77044   8.648  41.352   3.889
 5516W        W77045  41.060  17.785  10.694
 5517W        W77046  28.377  28.926  13.772
 5518W        W77047   6.336  24.222   4.582
 5519W        W77048  14.153  20.624  14.022
 5520W        W77049  38.731  38.039  12.983
 5521W        W77050  19.627  15.089   0.741
 5522W        W77051  31.663  39.986  10.478
 5523W        W77052  11.311  22.990  13.773
 5524W        W77053   4.963  22.203   1.417
 5525W        W77054  19.865  29.142  14.445
 5526W        W77055   0.883  13.321   4.559
 5527W        W77056   3.716   1.341   0.305
 5528W        W77057  26.887   3.916  10.692
 5529W        W77058  13.823  34.594  14.229
 5530W        W77059  16.072  35.821   0.894
 5531W        W77060  36.935  43.055  12.868
 5532W        W77061  30.829  18.610  12.560
 5533W        W77062  13.748  43.164  12.947
 5534W        W77063  42.237   0.376   0.246
 5535W        W77064  24.457  12.810   3.208
 5536W        W77065  11.707   9.611   3.171
 5537W        W77066  40.507  26.406   3.132
 5538W        W77067  31.184  33.129  14.304
 5539W        W77068  34.298  41.371   1.301
 5540W        W77069  38.404   8.329  14.892
 5541W        W77070   0.725   9.285   2.130
 5542W        W77071  42.846  39.580   1.787
 5543W        W77072  23.456  11.464   3.306
 5544W        W77073  14.646  25.653  14.578
 5545W        W77074   3.507  37.607  12.843
 5546W        W77075  30.657  21.683   0.501
 5547W        W77076  41.832   6.664   3.645
 5548W        W77077   1.296  23.199  14.327
 5549W        W77078  42.135  40.520  11.099
 5550W        W77079   2.537   6.277  12.951
 5551W        W77080  17.251   3.416  11.184
 5552W        W77081  25.221  37.994   0.818
 5553W        W77082  15.707   8.780   0.870
 5554W        W77083  14.331   2.199  13.813
 5555W        W77084  32.937  33.620   2.718
 5556W        W77085  31.628  34.167   4.252
 5557W        W77086  12.297  43.853   4.991
 5558W        W77087  29.904  34.598  13.062
 5559W        W77088  43.093  30.991   2.218
 5560W        W77089   5.610   6.312   4.981
 5561W        W77090  30.142  27.664  14.115
 5562W        W77091  13.307   5.996  11.093
 5563W        W77092  33.402  18.512   3.385
 5564W        W77093  12.130  11.902   0.014
 5565W        W77094  16.963  37.617   3.678
 5566W        W77095  26.701  27.662   0.784
 5567W        W77096  14.652  34.368   0.215
 5568W        W77097  38.126  13.759   1.393
 5569W        W77098  32.470  34.012  12.585
 5570W        W77099  29.457  21.985  12.726
 5571W        W77100  35.067  32.887  12.826
 5572W        W77101  37.743  43.549   1.380
 5573W        W77102  34.587   2.317   0.197
 5574W        W77103  33.410  36.466  10.455
 5575W        W77104  34.798   5.620   0.645
 5576W        W77105  25.084  33.656  11.224
 5577W        W77106  38.417  12.723  11.484
 5578W        W77107  10.260  32.269   0.915
 5579W        W77108   2.381  37.393  14.032
 5580W        W77109  24.134  43.419   0.950
 5581W        W77110  14.018  21.754  12.521
 5582W        W77111   1.266   4.880  14.540
 5583W        W77112  41.844   8.074   1.493
 5584W        W77113  10.230   2.751   1.886
 5585W        W77114  39.302  14.318  12.092
 5586W        W77115  26.272   8.405   4.189
 5587W        W77116  18.065  39.029  11.077
 5588W        W77117  44.274   3.648   0.634
 5589W        W77118   9.082   2.879   0.273
 5590W        W77119  12.446   1.922   3.594
 5591W        W77120  31.185  16.630  11.477
 5592W        W77121  22.953  30.453   2.937
 5593W        W77122  36.640  37.729   3.670
 5594W        W77123  32.582  41.735  14.959
 5595W        W77124  38.401   7.454  14.285
 5596W        W77125  21.806  44.061   3.692
 5597W        W77126  42.956  10.954   3.668
 5598W        W77127  13.642  22.415   4.679
 5599W        W77128  44.853  41.743   4.758
 5600W        W77129  11.870  28.556   3.062
 5601W        W77130  37.061  31.941  14.489
 5602W        W77131  12.856  13.763  10.737
 5603W        W77132   2.172  17.258   0.187
 5604W        W77133   1.516   1.425  12.025
 5605W        W77134  13.116  22.268  12.830
 5606W        W77135  20.241   8.190   4.275
 5607W        W77136   9.618  24.964   4.350
 5608W        W77137  21.301  15.351  14.014
 5609W        W77138  33.131  24.419   3.110
 5610W        W77139  18.757  20.890   3.143
 5611W        W77140  28.415   3.273   0.813
 5612W        W77141  11.579  21.003   2.899
 5613W        W77142  39.072  19.738  10.680
 5614W        W77143   1.352  27.090  10.857
 5615W        W77144  25.525  24.963  13.457
 5616W        W77145  24.570  38.292   1.301
 5617W        W77146  19.743   8.209  11.887
 5618W        W77147  30.555  38.585  11.215
 5619W        W77148  42.369  31.376   4.499
 5620W        W77149  10.219  32.674   4.102
 5621W        W77150   3.343   6.952  12.757
 5622W        W77151  24.477  14.739   0.713
 5623W        W77152  37.578  38.889   3.317
 5624W        W77153   1.491   1.976   2.341
 5625W        W77154  30.937  42.939   4.652
 5626W        W77155  32.026   3.212   3.668
 5627W        W77156  19.606  25.203  11.686
 5628W        W77157  43.161  29.847   2.862
 5629W        W77158   0.256   8.922  11.152
 5630W        W77159  41.894  25.809   3.792
 5631W        W77160  42.549  36.375   0.478
 5632W        W77161  25.490   0.879  13.880
 5633W        W77162  23.311  37.375  11.157
 5634W        W77163  42.142  16.548   2.219
 5635W        W77164   0.692  35.099   5.685
 5636W        W77165  34.588   3.307  13.781
 5637W        W77166  32.611  17.875   1.793
 5638W        W77167  28.881   9.761   3.633
 5639W        W77168  40.592  25.118   2.015
 5640W        W77169  31.531  14.266  14.987
 5641W        W77170  20.220   8.423   0.322
 5642W        W77171  27.149  17.229   2.182
 5643W        W77172   1.990  30.476   0.204
 5644W        W77173  16.562  25.265   2.635
 5645W        W77174  30.578   2.204   4.464
 5646W        W77175  12.803  31.971   2.796
 5647W        W77176  13.165   2.159   4.678
 5648W        W77177  33.973  41.787  14.274
 5649W        W77178   4.813   8.491   2.231
 5650W        W77179   2.285  42.742   1.345
 5651W        W77180   4.262  30.934  10.836
 5652W        W77181   5.846  32.448   3.342
 5653W        W77182   6.419  19.853   4.726
 5654W        W77183  21.167  44.245   2.866
 5655W        W77184  17.230  36.058   4.704
 5656W        W77185  39.777  39.266  14.283
 5657W        W77186  21.092  33.058   1.960
 5658W        W77187  17.732  20.045   0.924
 5659W        W77188   7.236  39.802   0.403
 5660W        W77189  30.981  42.073  13.483
 5661W        W77190  43.880  43.195  14.011
 5662W        W77191  29.144   8.200  13.826
 5663W        W77192  16.621  20.324  13.508
 5664W        W77193  34.389  14.730  14.503
 5665W        W77194   7.855   7.124   3.646
 5666W        W77195  32.733  41.830   0.833
 5667W        W77196   7.669  43.974   2.341
 5668W        W77197  36.309  18.768   3.028
 5669W        W77198  40.331  39.939   4.137
 5670W        W77199  19.806  19.867   5.050
 5671W        W77200   0.224  27.078   0.517
 5672W        W77201  21.221   5.180  13.011
 5673W        W77202   3.842  13.175   4.718
 5674W        W77203  19.669   1.572  12.924
 5675W        W77204   7.433  20.568   1.794
 5676W        W77205  24.477  40.324  12.956
 5677W        W77206  40.516  28.083  14.583
 5678W        W77207  14.612   7.075   1.860
 5679W        W77208  20.467  37.587   5.386
 5680W        W77209  32.454  29.978  14.290
 5681W        W77210  37.953   4.224  10.688
 5682W        W77211  16.343   3.711   2.217
 5683W        W77212  15.365  17.213   4.679
 5684W        W77213  33.922  30.428  10.589
 5685W        W77214   2.971  19.251   2.875
 5686W        W77215   8.961  37.477   4.941
 5687W        W77216  44.562  36.364  10.764
 5688W        W77217  36.979  30.972   2.402
 5689W        W77218  25.101  35.963  12.412
 5690W        W77219  44.735  44.342   0.240
 5691W        W77220  44.575  16.133  11.229
 5692W        W77221  39.085  22.095  10.665
 5693W        W77222  20.930  30.924   4.990
 5694W        W77223  11.676  12.664  14.714
 5695W        W77224   3.939  30.684  12.479
 5696W        W77225  42.523  21.516   0.476
 5697W        W77226  18.586  22.579   0.874
 5698W        W77227   6.407  18.104   1.720
 5699W        W77228   0.819  20.689   1.335
 5700W        W77229   4.819   2.993   0.941
 5701W        W77230  28.769  44.457   1.279
 5702W        W77231  13.103   0.531  10.649
 5703W        W77232   2.899   0.504   3.104
 5704W        W77233  14.406  13.765   0.776
 5705W        W77234  18.693   9.249   2.057
 5706W        W77235  11.738   5.750   3.682
 5707W        W77236  38.638   5.938   4.269
 5708W        W77237   7.831  38.153   0.694
 5709W        W77238  19.518  21.694  14.869
 5710W        W77239  25.730  35.295  10.830
 5711W        W77240  13.612  26.451  14.895
 5712W        W77241  35.146  32.401  14.826
 5713W        W77242  15.000  38.122  13.013
 5714W        W77243   0.369  13.858  12.020
 5715W        W77244  41.802  16.571   3.765
 5716W        W77245  37.987  29.331  14.299
 5717W        W77246  24.503  43.039   1.025
 5718W        W77247  38.885  41.528  10.652
 5719W        W77248  37.996   0.226   4.085
 5720W        W77249  23.620  43.101  10.658
 5721W        W77250  37.280  25.340   4.393
 5722W        W77251  39.246  11.146  12.018
 5723W        W77252   3.275  21.363   0.756
 5724W        W77253   0.955  32.987   2.357
 5725W        W77254  25.219   2.227   2.101
 5726W        W77255  25.248  37.785   4.177
 5727W        W77256  29.005  32.089  10.494
 5728W        W77257  22.894  16.265   4.582
 5729W        W77258  37.690   6.309   4.308
 5730W        W77259  25.324   4.447  14.309
 5731W        W77260   7.007  24.740   4.856
 5732W        W77261  41.407  26.457  12.547
 5733W        W77262  37.474  28.343  13.200
 5734W        W77263  18.563  41.753   3.427
 5735W        W77264  22.743   3.207   2.639
 5736W        W77265  33.361  19.208  12.100
 5737W        W77266   2.415  26.861  14.517
 5738W        W77267   5.846   8.156   0.920
 5739W        W77268  17.265  11.284   4.665
 5740W        W77269  14.263  19.192   4.453
 5741W        W77270  29.817  30.340   5.009
 5742W        W77271  35.668   6.927   2.403
 5743W        W77272  44.100  12.844  12.599
 5744W        W77273  10.729  12.584   0.273
 5745W        W77274   3.922   8.871  13.458
 5746W        W77275  32.013  20.512   0.324
 5747W        W77276   3.932  35.548   3.712
 5748W        W77277  31.977  39.248   1.307
 5749W        W77278  12.794  24.649   3.663
 5750W        W77279  37.035   6.160  12.946
 5751W        W77280   9.272   9.550   4.550
 5752W        W77281   9.803  38.531   5.064
 5753W        W77282  35.866  34.453  13.332
 5754W        W77283  43.985  24.421  14.862
 5755W        W77284  13.382  13.657   0.719
 5756W        W77285  33.517   3.395   1.320
 5757W        W77286  41.786  31.437   0.283
 5758W        W77287   2.265  36.880   2.456
 5759W        W77288  40.580  17.224  11.778
 5760W        W77289   4.395  24.417   2.861
 5761W        W77290  23.560  35.970   1.101
 5762W        W77291  44.083  24.732  14.374
 5763W        W77292  19.766   2.269   3.314
 5764W        W77293  43.262  18.029   0.724
 5765W        W77294   8.373  19.256  14.803
 5766W        W77295   1.794  12.784   4.338
 5767W        W77296  17.072  24.968  13.312
 5768W        W77297  15.867  41.310   2.255
 5769W        W77298   8.124  36.383  14.474
 5770W        W77299  24.598   7.298   2.862
 5771W        W77300   6.693   4.919  13.413
 5772W        W77301  13.079  24.015   4.703
 5773W        W77302  38.665  25.700  12.492
 5774W        W77303  36.488  41.100  12.416
 5775W        W77304  26.492  34.949  14.391
 5776W        W77305  14.647   0.356  12.073
 5777W        W77306  35.885  41.796   2.728
 5778W        W77307  43.511  11.482  12.622
 5779W        W77308  15.570  11.449   4.102
 5780W        W77309  20.288  43.879  11.620
 5781W        W77310   2.388  25.772   2.832
 5782W        W77311  26.819  10.288   1.998
 5783W        W77312  38.113  10.880   1.833
 5784W        W77313  11.844  32.584   4.082
 5785W        W77314  32.087  26.508  14.960
 5786W        W77315  14.292  15.340   4.930
 5787W        W77316  32.976  38.399  11.598
 5788W        W77317  28.081  42.565  11.167
 5789W        W77318  40.342  41.672  12.298
 5790W        W77319  18.211  27.412   4.944
 5791W        W77320  14.897  35.706  14.847
 5792W        W77321  14.704   5.319  12.510
 5793W        W77322  43.252  13.845   0.075
 5794W        W77323  20.502  41.051  13.855
 5795W        W77324  23.090  39.271  13.946
 5796W        W77325   9.374   5.645  11.184
 5797W        W77326  24.712  27.462  11.142
 5798W        W77327  17.127   0.065   0.348
 5799W        W77328  11.627  27.391   0.832
 5800W        W77329  44.061  43.048  14.792
 5801W        W77330   3.712  29.653   2.652
 5802W        W77331  38.769   3.253  13.870
 5803W        W77332   1.009  19.642  12.495
 5804W        W77333  21.739  43.366   1.942
 5805W        W77334  14.886  37.589  11.550
 5806W        W77335  37.250  26.718  11.363
 5807W        W77336  11.338  36.856   2.210
 5808W        W77337  13.803  20.161  11.620
 5809W        W77338  25.142  31.172   2.317
 5810W        W77339  39.882  38.901   2.320
 5811W        W77340  35.461  21.578   0.783
 5812W        W77341  26.204  22.139   1.343
 5813W        W77342  19.261  17.535   4.424
 5814W        W77343  23.729   0.079   1.704
 5815W        W77344  11.688   7.248  10.759
 5816W        W77345  30.176   0.092   3.668
 5817W        W77346  15.096  29.237   0.420
 5818W        W77347  33.847  38.590  12.102
 5819W        W77348  12.050   1.379  10.293
 5820W        W77349  32.395  25.477   1.742
 5821W        W77350  28.750  36.781   3.669
 5822W        W77351  31.814   5.383  10.957
 5823W        W77352  23.963  30.755  13.487
 5824W        W77353   4.969  34.567  14.345
 5825W        W77354  17.183  23.319  14.877
 5826W        W77355  23.674   8.808   3.150
 5827W        W77356  40.056  23.100  14.810
 5828W        W77357   1.950  19.323  11.958
 5829W        W77358  27.635   4.543   0.430
 5830W        W77359   8.978  11.157  12.071
 5831W        W77360   0.163  23.656   2.354
 5832W        W77361  40.564  15.143  12.116
 5833W        W77362  10.324  18.498  11.998
 5834W        W77363  21.151  13.708   1.420
 5835W        W77364  12.782  26.709  10.713
 5836W        W77365  12.259  35.277  11.851
 5837W        W77366  39.439  42.010  11.478
 5838W        W77367   1.390   3.118   0.873
 5839W        W77368  10.692  17.252  14.005
 5840W        W77369  40.496  17.691   2.986
 5841W        W77370  42.381  24.260  11.189
 5842W        W77371  26.663   6.883  14.131
 5843W        W77372   6.734  35.304  13.487
 5844W        W77373  15.642  16.237   0.367
 5845W        W77374  31.610  17.783   0.281
 5846W        W77375  15.946  43.523   1.841
 5847W        W77376  37.035  36.341   0.765
 5848W        W77377  44.304  42.254   2.324
 5849W        W77378   4.782   9.117   0.328
 5850W        W77379  10.664   8.313   4.567
 5851W        W77380  29.081  16.308   0.701
 5852W        W77381  44.364  10.625   1.886
 5853W        W77382  37.611  33.520   4.053
 5854W        W77383  41.487  17.191   0.804
 5855W        W77384   7.202  32.896  13.518
 5856W        W77385  31.320   7.140   0.272
 5857W        W77386  23.437  19.548   0.118
 5858W        W77387  13.726  33.913   0.943
 5859W        W77388  11.899  14.410  12.578
 5860W        W77389  32.617  13.284   3.546
 5861W        W77390  18.364   0.315  13.101
 5862W        W77391  13.558  35.063  13.382
 5863W        W77392   6.713  43.504  12.969
 5864W        W77393   9.637  18.695   2.395
 5865W        W77394  28.504  19.951   0.014
 5866W        W77395  14.380   7.631   4.059
 5867W        W77396  14.621  37.092   0.916
 5868W        W77397  14.161  11.847  11.601
 5869W        W77398  27.631  21.208   3.149
 5870W        W77399  40.054   9.941  11.185
 5871W        W77400  21.481  27.489   4.135
 5872W        W77401  40.578   4.354  14.090
 5873W        W77402   2.702  20.868  13.924
 5874W        W77403  14.626  21.700  14.842
 5875W        W77404  19.213   4.635  13.887
 5876W        W77405   0.856  38.525   1.754
 5877W        W77406  43.551  43.387   2.814
 5878W        W77407  39.524  19.255  14.405
 5879W        W77408  30.999   1.192  14.908
 5880W        W77409  34.542  31.253  10.839
 5881W        W77410  20.583  17.547   3.713
 5882W        W77411  18.884  36.310  11.033
 5883W        W77412  26.676  36.311  13.792
 5884W        W77413  32.512  33.572   4.069
 5885W        W77414  10.232   2.486   3.147
 5886W        W77415  44.856   3.862  11.118
 5887W        W77416   1.735  42.047   4.111
 5888W        W77417  43.958  40.793  13.631
 5889W        W77418  40.628  12.084  13.747
 5890W        W77419  35.014   7.741   4.078
 5891W        W77420  29.950  18.693   3.541
 5892W        W77421  23.010   5.302   0.526
 5893W        W77422   2.976   0.287  13.979
 5894W        W77423   8.278  25.704   0.334
 5895W        W77424  33.601  19.713  12.870
 5896W        W77425  41.372  34.018   2.444
 5897W        W77426  11.896   4.281  13.064
 5898W        W77427   3.814  41.875  11.561
 5899W        W77428  19.479  25.632   1.095
 5900W        W77429   6.242  29.927  12.050
 5901W        W77430  23.575   7.581   3.690
 5902W        W77431  25.227  16.161   4.374
 5903W        W77432  24.646   2.154  12.990
 5904W        W77433  16.254   0.672   2.248
 5905W        W77434  20.014  27.262   3.737
 5906W        W77435  32.786  31.029  14.815
 5907W        W77436  38.877   7.234   1.423
 5908W        W77437  42.537  12.151   2.835
 5909W        W77438  34.525  19.284  11.222
 5910W        W77439  13.764   8.441  14.930
 5911W        W77440  25.603  30.662   0.815
 5912W        W77441  17.582  30.460  11.054
 5913W        W77442  24.123  40.956  13.093
 5914W        W77443  25.158  16.961  12.455
 5915W        W77444  41.493  11.033   2.390
 5916W        W77445  10.627  13.361  14.534
 5917W        W77446  15.613  12.980   0.035
 5918W        W77447  33.458  18.398   1.366
 5919W        W77448  25.985   0.898   3.737
 5920W        W77449  23.560  25.108   1.743
 5921W        W77450  10.158  24.573   2.334
 5922W        W77451  24.815  28.004  12.807
 5923W        W77452  39.370  22.115  13.034
 5924W        W77453  27.620  33.152  13.024
 5925W        W77454  11.675  12.840  13.529
 5926W        W77455   3.483  44.621   1.250
 5927W        W77456  32.705  12.353  10.820
 5928W        W77457   2.729   0.715   0.906
 5929W        W77458   4.752   7.606   1.016
 5930W        W77459  26.115   7.763  14.903
 5931W        W77460  15.819   5.109  13.962
 5932W        W77461  15.015  41.506   1.587
 5933W        W77462   6.446  38.983   3.619
 5934W        W77463  32.594   5.833  13.474
 5935W        W77464   7.662   6.438   2.625
 5936W        W77465  10.333  43.367  11.923
 5937W        W77466  41.374  20.772  12.333
 5938W        W77467  11.383  25.435  11.520
 5939W        W77468  20.623   6.469   3.336
 5940W        W77469  19.096   1.345   2.734
 5941W        W77470  44.533  37.461   0.966
 5942W        W77471  32.149  29.175   3.733
 5943W        W77472  28.938  42.055  12.463
 5944W        W77473  17.257  41.431  11.860
 5945W        W77474  37.768  20.230   4.667
 5946W        W77475  11.110  37.472   3.067
 5947W        W77476  24.838   8.268   1.236
 5948W        W77477  43.525  18.499   4.533
 5949W        W77478  41.805  40.108  14.126
 5950W        W77479  34.329  13.878   2.723
 5951W        W77480  28.020  40.163   2.235
 5952W        W77481   1.807   7.145   3.298
 5953W        W77482  33.582  38.863   3.196
 5954W        W77483  14.034  36.646   0.157
 5955W        W77484  28.987   9.599  11.054
 5956W        W77485  36.311   2.433  11.058
 5957W        W77486  21.128   2.026   0.302
 5958W        W77487  18.889   4.297  10.505
 5959W        W77488  27.590  21.177  11.483
 5960W        W77489  23.614  36.897   2.161
 5961W        W77490   2.463  36.486   4.558
 5962W        W77491   6.391  32.188   1.662
 5963W        W77492  35.898  15.510   4.258
 5964W        W77493   3.726  18.007   0.273
 5965W        W77494  34.787  25.108   0.792
 5966W        W77495   1.889  36.180  13.653
 5967W        W77496  12.712  28.470   0.822
 5968W        W77497  20.004  21.796  10.544
 5969W        W77498   7.307  23.988   3.208
 5970W        W77499  43.374  20.610  14.479
 5971W        W77500   5.686  27.578   0.982
 5972W        W77501  19.813  15.108  14.184
 5973W        W77502  13.785  21.270   0.845
 5974W        W77503  36.939  18.757  12.940
 5975W        W77504   5.163   6.578   2.697
 5976W        W77505  10.289  38.684   3.538
 5977W        W77506  42.304  20.657   3.295
 5978W        W77507  18.281   5.970   3.598
 5979W        W77508  41.665  27.087   3.821
 5980W        W77509   6.733  12.272  14.988
 5981W        W77510  24.014   7.822  13.935
 5982W        W77511  39.635  29.154  14.387
 5983W        W77512  16.105   3.955  14.812
 5984W        W77513   7.352   8.426  11.638
 5985W        W77514   9.349  16.695   2.359
 5986W        W77515   3.317  13.559   3.812
 5987W        W77516  24.480  21.118   4.715
 5988W        W77517  20.636  33.053   1.151
 5989W        W77518  39.374  23.690   2.326
 5990W        W77519  30.562  11.122   0.887
 5991W        W77520   7.208  13.329  14.941
 5992W        W77521  11.342   2.282  14.973
 5993W        W77522  21.659  13.700   1.506
 5994W        W77523  22.051   9.633   4.282
 5995W        W77524  43.889  19.079   3.761
 5996W        W77525  18.618  23.275   3.837
 5997W        W77526   0.532  10.753  13.825
 5998W        W77527  17.607  39.113   4.338
 5999W        W77528   9.289  10.834   0.709
 6000W        W77529  25.493  22.145  10.748
 6001W        W77530  12.799  10.861   3.699
 6002W        W77531  43.717   9.791  12.979
 6003W        W77532  19.003  43.329  14.444
 6004W        W77533   1.606  11.944  14.457
 6005W        W77534  39.051  44.004   0.404
 6006W        W77535  34.145  14.919   0.720
 6007W        W77536  20.160  14.275  12.540
 6008W        W77537  43.344  23.940  13.917
 6009W        W77538  32.006  26.993   4.582
 6010W        W77539  18.360  36.083  14.545
 6011W        W77540  27.249   4.831  11.579
 6012W        W77541  12.623  28.634  13.540
 6013W        W77542   5.949   7.682   1.914
 6014W        W77543  37.549  37.913  11.419
 6015W        W77544  13.111  37.862  12.051
 6016W        W77545  23.557  36.434   4.241
 6017W        W77546  33.459   2.468   4.008
 6018W        W77547  11.902   9.599   1.364
 6019W        W77548  43.278  24.538  11.749
 6020W        W77549  35.933  10.289  12.957
 6021W        W77550  44.997  15.035  12.667
 6022W        W77551  26.830  36.942  10.721
 6023W        W77552  35.065  22.349  13.719
 6024W        W77553  37.114  15.676   0.005
 6025W        W77554  30.947  39.273  13.030
 6026W        W77555   9.170  14.673  11.552
 6027W        W77556  41.937  41.584   3.546
 6028W        W77557  34.911  36.947  11.414
 6029W        W77558  16.412  39.203   1.794
 6030W        W77559  13.348  27.027   3.903
 6031W        W77560  17.786  31.002   2.242
 6032W        W77561  30.555   9.338   0.454
 6033W        W77562  44.183  44.682   3.426
 6034W        W77563  27.734  37.948  10.636
 6035W        W77564  44.322   5.875  14.721
 6036W        W77565   5.884  40.126  13.306
 6037W        W77566  43.009  19.072  14.038
 6038W        W77567   3.001  27.488   3.008
 6039W        W77568  20.175  27.006  12.886
 6040W        W77569  41.431  11.743   0.431
 6041W        W77570  12.861  23.840   3.250
 6042W        W77571  28.916   4.840  14.394
 6043W        W77572  31.359  37.439  13.266
 6044W        W77573  12.633  15.153  13.576
 6045W        W77574  34.158  12.951  13.555
 6046W        W77575  34.037   0.145   3.431
 6047W        W77576  23.701  22.216  10.730
 6048W        W77577  33.174  33.026   1.954
 6049W        W77578  37.604  34.128   0.706
 6050W        W77579  41.373  28.004   4.981
 6051W        W77580  14.485  26.700  14.813
 6052W        W77581   1.497  41.603   4.215
 6053W        W77582  17.402  40.305  12.017
 6054W        W77583   3.392  11.983  14.898
 6055W        W77584  25.015  23.277   2.623
 6056W        W77585  28.409  36.927  11.949
 6057W        W77586  13.867  15.687  10.988
 6058W        W77587   9.236   4.962   3.673
 6059W        W77588  24.849  20.615   2.754
 6060W        W77589  43.686  42.932  14.450
 6061W        W77590  35.234   2.844  14.919
 6062W        W77591  36.032  41.507  14.385
 6063W        W77592  37.379  24.897  10.649
 6064W        W77593   9.072  26.076   2.956
 6065W        W77594  23.686  22.203   0.891
 6066W        W77595  38.558  26.242   0.455
 6067W        W77596  32.203   2.231  12.894
 6068W        W77597  42.356   0.811  11.096
 6069W        W77598  13.671  11.000  11.266
 6070W        W77599  13.065  39.351   4.753
 6071W        W77600  22.725  36.034  11.053
 6072W        W77601  30.849  42.902   2.317
 6073W        W77602  27.252  34.588  13.314
 6074W        W77603  35.990  18.807   2.464
 6075W        W77604  38.241  22.089   0.254
 6076W        W77605  14.731  35.163  10.788
 6077W        W77606   9.272  42.235   2.742
 6078W        W77607  37.763  15.027   0.250
 6079W        W77608  26.853  43.035   3.765
 6080W        W77609  28.416   2.899   2.310
 6081W        W77610  30.814  13.103   4.524
 6082W        W77611   4.350  10.240   4.638
 6083W        W77612  32.583  12.849   2.389
 6084W        W77613  33.360  29.290   5.050
 6085W        W77614  28.910  22.581   3.532
 6086W        W77615  22.497  16.591   4.556
 6087W        W77616  16.621  27.458   0.374
 6088W        W77617  24.187   0.491   2.325
 6089W        W77618  17.211  25.232  14.881
 6090W        W77619  29.828  43.631   0.771
 6091W        W77620  27.214  39.544   1.843
 6092W        W77621  23.221  15.816  14.813
 6093W        W77622   4.250  31.020   0.891
 6094W        W77623  24.415  35.880   0.635
 6095W        W77624  11.682  35.970   2.180
 6096W        W77625   7.232  37.871   4.285
 6097W        W77626  36.011  41.047  12.880
 6098W        W77627   3.312  37.914   2.335
 6099W        W77628   5.325  10.957   4.590
 6100W        W77629  22.544  40.037  13.924
 6101W        W77630   2.686  15.048  12.500
 6102W        W77631  32.994  10.899   0.754
 6103W        W77632  35.802  11.359   1.962
 6104W        W77633   1.108  25.032  11.809
 6105W        W77634  17.284   8.284  12.979
 6106W        W77635  30.373  24.187   1.019
 6107W        W77636   9.173  42.037   2.254
 6108W        W77637   4.751  14.699   3.042
 6109W        W77638   8.370  16.693  14.283
 6110W        W77639  19.583   3.914   1.384
 6111W        W77640  29.610  16.391  10.585
 6112W        W77641  36.629  30.069  11.233
 6113W        W77642  11.368  27.019   2.163
 6114W        W77643  31.666  36.551   4.676
 6115W        W77644  14.862  35.803   4.671
 6116W        W77645  39.948   9.070  14.373
 6117W        W77646  11.134   1.469  11.165
 6118W        W77647  10.542  27.539  14.747
 6119W        W77648  13.710  28.463   3.358
 6120W        W77649  17.827  21.105   3.248
 6121W        W77650   9.193   3.419   4.533
 6122W        W77651  16.541  40.576   2.362
 6123W        W77652  32.278  33.506   2.885
 6124W        W77653   0.872   5.903  11.408
 6125W        W77654  10.057  17.674  13.557
 6126W        W77655   9.047  17.178   2.219
 6127W        W77656  31.689   4.100   4.133
 6128W        W77657  20.807  31.928   3.786
 6129W        W77658  26.546  32.454  10.331
 6130W        W77659   4.477  38.863  12.541
 6131W        W77660  42.915  44.489   3.769
 6132W        W77661   1.498  33.801  13.446
 6133W        W77662  11.367   0.715  14.930
 6134W        W77663  22.094   9.474  14.824
 6135W        W77664  22.528  36.922  11.138
 6136W        W77665  24.136  31.160  11.701
 6137W        W77666  23.587  20.944  14.038
 6138W        W77667   8.146  16.977  13.108
 6139W        W77668   2.664  27.786  14.529
 6140W        W77669  24.574  22.701  13.102
 6141W        W77670  20.598  22.045  11.687
 6142W        W77671   7.139  35.782   1.305
 6143W        W77672  36.672  44.162   3.417
 6144W        W77673  39.372   9.795  13.489
 6145W        W77674  43.365  41.100   2.569
 6146W        W77675   8.936  25.622   2.342
 6147W        W77676  13.599  41.873  14.403
 6148W        W77677  37.427  13.719  14.588
 6149W        W77678   4.711   7.248  11.735
 6150W        W77679  17.639  32.976   1.147
 6151W        W77680  14.199   2.278   0.713
 6152W        W77681  22.581  33.249   2.872
 6153W        W77682  40.292  22.574  11.580
 6154W        W77683   3.922  26.869   4.891
 6155W        W77684  36.677   6.879  11.583
 6156W        W77685  43.709  34.533  12.119
 6157W        W77686  26.003  13.743  13.145
 6158W        W77687  17.897  41.764  14.455
 6159W        W77688  12.788  37.207   0.473
 6160W        W77689  20.574  13.599   0.784
 6161W        W77690   8.388  40.908  11.000
 6162W        W77691   1.030  32.430  12.089
 6163W        W77692  15.858  26.060  11.646
 6164W        W77693  21.428  39.126   4.560
 6165W        W77694  36.605   5.032   0.958
 6166W        W77695  41.436  42.122   1.870
 6167W        W77696  21.723  35.999   3.493
 6168W        W77697  24.735   2.308   2.325
 6169W        W77698  25.518  12.830  14.897
 6170W        W77699   0.870  44.060   5.195
 6171W        W77700   6.130  18.822   2.273
 6172W        W77701  23.965  16.742  11.233
 6173W        W77702   4.125   5.886   1.512
 6174W        W77703  36.561   3.378   2.688
 6175W        W77704  24.219  27.712  14.421
 6176W        W77705  13.356  17.383  10.492
 6177W        W77706  23.710  23.250   4.896
 6178W        W77707  17.231  40.976   4.741
 6179W        W77708   6.624  37.386  14.330
 6180W        W77709  38.209   9.290  14.453
 6181W        W77710   7.428  26.412  11.442
 6182W        W77711  27.186  44.254  12.868
 6183W        W77712  13.333  39.469   1.374
 6184W        W77713  22.676  34.439  10.717
 6185W        W77714  32.906  20.245   0.814
 6186W        W77715  20.111   9.858  12.934
 6187W        W77716  14.438   7.570  10.284
 6188W        W77717  24.051   5.373  11.020
 6189W        W77718  25.112  27.963  13.989
 6190W        W77719   9.341  21.284  12.108
 6191W        W77720   0.257  26.591  11.981
 6192W        W77721   4.791   7.387  12.214
 6193W        W77722  17.532  28.058  12.678
 6194W        W77723  37.583  12.829   1.249
 6195W        W77724  40.398   2.145  12.927
 6196W        W77725  17.658  37.834  13.788
 6197W        W77726   8.213   8.625  13.536
 6198W        W77727  20.637  10.405   3.049
 6199W        W77728  21.249  24.110   0.068
 6200W        W77729   3.709  12.813  10.621
 6201W        W77730  27.544   7.140  10.648
 6202W        W77731   2.942  42.411   1.292
 6203W        W77732  30.614  24.687   4.080
 6204W        W77733  17.282   1.288   3.157
 6205W        W77734  32.524  21.165   3.231
 6206W        W77735  14.124  17.283  11.077
 6207W        W77736   4.719  22.246  13.768
 6208W        W77737   5.316  34.065   2.402
 6209W        W77738  29.247  21.095   0.836
 6210W        W77739  11.334  27.458   0.403
 6211W        W77740  19.779  29.142   2.386
 6212W        W77741  29.490  12.587   0.403
 6213W        W77742  35.348  17.009  10.915
 6214W        W77743  40.593  40.621   3.841
 6215W        W77744   6.712  17.085  14.745
 6216W        W77745  31.140  16.386  14.443
 6217W        W77746  22.789  17.404  10.695
 6218W        W77747   2.268  26.919  10.258
 6219W        W77748  24.127  16.174  13.828
 6220W        W77749  38.568  10.968   1.490
 6221W        W77750  36.450  17.287   2.173
 6222W        W77751  27.581   3.403  14.203
 6223W        W77752  39.654  13.426   0.835
 6224W        W77753  22.967  23.139   4.336
 6225W        W77754  33.824   8.449   2.816
 6226W        W77755  44.802  33.179   4.110
 6227W        W77756  42.207  29.543   1.711
 6228W        W77757  14.844  31.825   0.967
 6229W        W77758  34.886  11.260  11.511
 6230W        W77759   4.960   3.839   2.420
 6231W        W77760  12.343  26.486   0.186
 6232W        W77761  39.046  20.782  11.518
 6233W        W77762  26.500   4.338  13.707
 6234W        W77763  34.429  43.503   2.865
 6235W        W77764  29.067   6.259   3.637
 6236W        W77765  17.822  40.466  14.894
 6237W        W77766  32.371   9.781   4.612
 6238W        W77767  29.850  19.948   1.388
 6239W        W77768  25.034   5.196  13.427
 6240W        W77769   5.775  11.643   4.318
 6241W        W77770  15.747  44.744   0.499
 6242W        W77771  10.724  27.907  14.358
 6243W        W77772  13.068  18.295   1.990
 6244W        W77773  36.094   1.476   1.732
 6245W        W77774  15.073  21.597   3.280
 6246W        W77775  16.671  24.626   3.754
 6247W        W77776  39.914  11.339  13.038
 6248W        W77777  17.577  23.284   0.278
 6249W        W77778  32.721  33.173   2.890
 6250W        W77779  32.902  36.806  12.816
 6251W        W77780  15.222  32.072   0.288
 6252W        W77781  41.755  31.864  11.111
 6253W        W77782   8.181   0.107  14.031
 6254W        W77783  25.472  36.744  10.825
 6255W        W77784   7.388  13.818   0.369
 6256W        W77785  38.550  23.218   4.517
 6257W        W77786  36.031  22.072  10.485
 6258W        W77787  10.113  26.504   0.856
 6259W        W77788  36.534   6.386  10.419
 6260W        W77789  12.164  28.096   1.933
 6261W        W77790   3.223  37.720   1.844
 6262W        W77791  34.172  12.091   0.572
 6263W        W77792   2.505   3.715   3.906
 6264W        W77793  33.531  24.149   4.527
 6265W        W77794  18.785  17.539   2.315
 6266W        W77795   9.232  17.166  14.073
 6267W        W77796  25.639   9.674  11.855
 6268W        W77797  20.125  16.713   0.337
 6269W        W77798  35.809   6.365   2.598
 6270W        W77799  23.240   6.785  13.789
 6271W        W77800  15.932  25.500  12.503
 6272W        W77801  22.180  25.764  11.656
 6273W        W77802  17.151  29.520   0.900
 6274W        W77803  38.884  13.143  10.457
 6275W        W77804  41.700  15.583   5.067
 6276W        W77805  34.222   3.791   0.435
 6277W        W77806   6.331   1.666  14.481
 6278W        W77807  17.208  43.918   0.736
 6279W        W77808   5.002  26.451   1.339
 6280W        W77809  16.795  23.039   3.365
 6281W        W77810  27.121  27.256  12.606
 6282W        W77811  35.070  12.489  12.657
 6283W        W77812  15.333  15.987  14.386
 6284W        W77813  25.110   5.141   3.624
 6285W        W77814  24.026  37.489   4.204
 6286W        W77815  24.313  36.866   1.414
 6287W        W77816   5.395  30.483  11.608
 6288W        W77817  34.371  22.057  13.961
 6289W        W77818   4.792  21.980   2.342
 6290W        W77819  18.552  32.615   0.349
 6291W        W77820  28.417   6.509  14.115
 6292W        W77821  18.749   6.069   0.228
 6293W        W77822  29.989  12.191   3.827
 6294W        W77823   1.476   7.773  13.903
 6295W        W77824  29.703   2.540  14.861
 6296W        W77825  14.548  44.378   3.337
 6297W        W77826  31.996  11.130  13.490
 6298W        W77827  18.562  26.680   4.588
 6299W        W77828   1.119  40.526   2.642
 6300W        W77829  32.441  29.216  10.537
 6301W        W77830  11.398  22.211   4.227
 6302W        W77831  39.972  36.777   3.631
 6303W        W77832  14.973  12.630   4.946
 6304W        W77833  20.580  31.183  11.166
 6305W        W77834  19.260  17.306  11.012
 6306W        W77835  33.611  42.267   1.723
 6307W        W77836   7.762   4.769  10.130
 6308W        W77837  37.986  37.199  14.396
 6309W        W77838  17.531  31.938   0.426
 6310W        W77839  35.924   3.685  12.427
 6311W        W77840  43.842  36.950   2.874
 6312W        W77841  17.792  24.061   3.348
 6313W        W77842  11.025  29.682   2.034
 6314W        W77843  29.580   9.144   0.244
 6315W        W77844  29.995  13.754  11.143
 6316W        W77845  15.594  33.293  11.135
 6317W        W77846  29.159  18.709   0.264
 6318W        W77847   7.933  14.538  10.685
 6319W        W77848  33.951  18.310  13.576
 6320W        W77849  27.467  43.522  11.815
 6321W        W77850   7.643  21.259   4.668
 6322W        W77851  27.974  31.484   2.320
 6323W        W77852   3.681  40.276  10.648
 6324W        W77853  43.070  25.855  10.954
 6325W        W77854  25.801  28.867   1.051
 6326W        W77855  32.038  21.923  11.626
 6327W        W77856   8.877  37.518  10.393
 6328W        W77857   1.833  16.317   4.244
 6329W        W77858  15.527  42.080  12.547
 6330W        W77859  26.432  38.461  12.944
 6331W        W77860   2.071  31.485   4.644
 6332W        W77861  33.335  39.176  14.905
 6333W        W77862  18.488  23.713  12.519
 6334W        W77863   0.833  17.595   3.693
 6335W        W77864  11.307  42.882   2.797
 6336W        W77865  29.166   8.821  13.368
 6337W        W77866   3.299   8.009   4.183
 6338W        W77867  31.078   3.542   0.779
 6339W        W77868  15.577  32.533   2.788
 6340W        W77869  17.580   5.359   2.284
 6341W        W77870  42.397   4.292  14.441
 6342W        W77871   5.731  29.070   3.105
 6343W        W77872  21.732  21.303   2.265
 6344W        W77873   3.299   9.779  12.542
 6345W        W77874  14.792  11.865   0.878
 6346W        W77875  15.598  38.538   3.251
 6347W        W77876  24.264  29.890   0.472
 6348W        W77877  43.684  35.689  10.154
 6349W        W77878   9.566  13.689  11.365
 6350W        W77879   3.617  35.597  12.295
 6351W        W77880   7.767  26.132   0.962
 6352W        W77881   2.395  39.294  14.324
 6353W        W77882  33.826  19.811   2.287
 6354W        W77883  18.843  11.160   1.841
 6355W        W77884   9.947  16.765  13.095
 6356W        W77885  20.732  29.682  14.248
 6357W        W77886  10.400  30.408  11.608
 6358W        W77887   3.149  27.612  14.348
 6359W        W77888  28.146   7.279   1.185
 6360W        W77889   3.843  31.666  12.572
 6361W        W77890  20.712   4.155   0.733
 6362W        W77891  38.567   9.636   1.444
 6363W        W77892  38.324  15.621  11.131
 6364W        W77893  35.074   4.723  13.863
 6365W        W77894  19.064  20.013   1.914
 6366W        W77895  27.244  37.429  12.626
 6367W        W77896  20.207  34.166  12.860
 6368W        W77897   0.932  22.183   4.199
 6369W        W77898  29.153  12.281  11.720
 6370W        W77899  25.528  40.296   2.843
 6371W        W77900  27.091  21.658   3.694
 6372W        W77901  21.628  35.616   0.986
 6373W        W77902  18.204  19.856   4.522
 6374W        W77903   9.277  44.712  11.465
 6375W        W77904  16.177   0.520   1.708
 6376W        W77905   7.260  40.541   4.086
 6377W        W77906  28.228  43.794  14.867
 6378W        W77907  34.383  19.593  12.462
 6379W        W77908  12.291  27.506   0.346
 6380W        W77909  23.600  43.974  10.992
 6381W        W77910  11.448   7.954  11.279
 6382W        W77911  20.133  29.399   2.692
 6383W        W77912  26.074  42.469   4.179
 6384W        W77913  12.639  22.500  13.001
 6385W        W77914  29.694  15.706   2.770
 6386W        W77915   3.778  23.043  10.643
 6387W        W77916  42.809  37.999  14.953
 6388W        W77917  30.884  28.386   4.552
 6389W        W77918   1.277  27.041   0.462
 6390W        W77919  16.610   1.210   1.034
 6391W        W77920  10.409  43.048  14.014
 6392W        W77921  19.611  29.977  14.065
 6393W        W77922  36.056  42.760   2.729
 6394W        W77923  24.966  38.341  12.926
 6395W        W77924   9.521  25.074   3.339
 6396W        W77925   9.589  24.991  11.350
 6397W        W77926   2.029  16.680  12.979
 6398W        W77927  23.125  41.848   2.522
 6399W        W77928   4.244  40.787   2.115
 6400W        W77929  20.141   6.054  14.274
 6401W        W77930   7.679  28.082  14.408
 6402W        W77931  19.743  33.621  10.699
 6403W        W77932   5.640  30.975  10.739
 6404W        W77933  22.787  23.503   2.133
 6405W        W77934  29.121  13.691  14.925
 6406W        W77935  19.216  30.724  11.720
 6407W        W77936  19.202  19.363   1.226
 6408W        W77937   6.387  10.089  14.859
 6409W        W77938   9.255  42.955  13.142
 6410W        W77939  30.094  42.009  13.557
 6411W        W77940  14.101  18.301   0.327
 6412W        W77941  20.588  14.318  14.321
 6413W        W77942  30.061  29.105   2.891
 6414W        W77943  40.930   8.902  12.540
 6415W        W77944   6.789  26.635  11.931
 6416W        W77945  22.170  32.868  14.755
 6417W        W77946   4.280  33.208   3.067
 6418W        W77947   6.929  16.154   2.160
 6419W        W77948   9.271  31.583   4.366
 6420W        W77949  30.594  37.622  12.203
 6421W        W77950   8.300   6.127   2.933
 6422W        W77951  21.343  35.317  13.194
 6423W        W77952  27.589  38.138  13.379
 6424W        W77953  18.838  36.173  14.186
 6425W        W77954  34.537   6.619  11.134
 6426W        W77955  18.559  31.480   3.581
 6427W        W77956  32.840  31.054  11.243
 6428W        W77957  41.513  25.962  11.906
 6429W        W77958   6.173  14.271   2.410
 6430W        W77959  40.032   2.597  11.155
 6431W        W77960  21.443  32.369  11.225
 6432W        W77961  41.798  36.367  11.325
 6433W        W77962   6.949  41.317   3.902
 6434W        W77963  41.321  40.423   4.174
 6435W        W77964   0.828  15.064   1.129
 6436W        W77965  33.099   0.776   0.401
 6437W        W77966  13.236   2.326  11.852
 6438W        W77967  27.421  10.886  14.061
 6439W        W77968   9.407   9.833   2.763
 6440W        W77969  40.952   5.510   1.487
 6441W        W77970  13.258  28.896   4.040
 6442W        W77971   6.369  13.224   4.571
 6443W        W77972  11.512  20.232   1.395
 6444W        W77973  44.019   4.018  12.367
 6445W        W77974  38.995  30.320  10.803
 6446W        W77975  29.211  21.042   3.636
 6447W        W77976  25.266  34.481  12.441
 6448W        W77977  42.333  10.265   3.722
 6449W        W77978  22.660  27.239  12.728
 6450W        W77979   0.521  32.446  12.001
 6451W        W77980  28.823  17.028   3.102
 6452W        W77981  12.632   5.874   1.848
 6453W        W77982   4.313  13.990   4.132
 6454W        W77983  21.462  15.132   0.219
 6455W        W77984  19.504   6.742  14.266
 6456W        W77985   4.241  17.576   5.063
 6457W        W77986   7.275  11.651  13.257
 6458W        W77987  18.166  44.007  11.559
 6459W        W77988  23.959   8.295  12.085
 6460W        W77989  26.730  28.502  11.509
 6461W        W77990   7.065   5.923   3.201
 6462W        W77991  44.068  38.488  10.598
 6463W        W77992  33.558   6.783   2.678
 6464W        W77993   2.007   6.458   4.039
 6465W        W77994   8.959  16.716  12.861
 6466W        W77995  40.913  44.276   1.444
 6467W        W77996  32.754  12.939  14.412
 6468W        W77997  16.842  10.638   0.848
 6469W        W77998  44.020  44.713   1.497
 6470W        W77999  21.789  21.154   4.275
 6471W        W78000  13.534  44.036  12.570
 6472W        W78001   9.673  33.594  11.573
 6473W        W78002   2.417  26.186  11.462
 6474W        W78003  27.553  36.381   4.157
 6475W        W78004  11.622  13.064   4.390
 6476W        W78005  17.329  31.861  13.893
 6477W        W78006  36.964   2.397  13.504
 6478W        W78007  42.251  10.306  14.277
 6479W        W78008  15.351   6.733   5.024
 6480W        W78009  42.961  33.088   0.220
 6481W        W78010  23.046  38.227   1.499
 6482W        W78011  34.603  41.345  14.010
 6483W        W78012   5.722   5.338  14.589
 6484W        W78013  20.627  27.568  13.403
 6485W        W78014   9.333  29.747   2.712
 6486W        W78015  37.314  41.903  14.998
 6487W        W78016  34.403  35.305  11.244
 6488W        W78017  13.109   4.846   0.537
 6489W        W78018  34.114  30.732   2.860
 6490W        W78019  40.561   4.167   0.523
 6491W        W78020   1.531   8.264   0.924
 6492W        W78021  34.617  17.041  13.568
 6493W        W78022  42.365  16.884   5.011
 6494W        W78023   1.242   4.878   2.890
 6495W        W78024  16.448  33.303   4.171
 6496W        W78025  32.182  43.228   2.679
 6497W        W78026  28.019  19.693  11.856
 6498W        W78027   9.480   3.805   0.379
 6499W        W78028  13.437  33.501  14.480
 6500W        W78029   2.945  40.470  12.224
 6501W        W78030  12.290  15.588   1.110
 6502W        W78031  11.290  10.892  13.973
 6503W        W78032  19.096   6.419  14.408
 6504W        W78033  40.489  20.224   3.768
 6505W        W78034  38.046   8.922  12.672
 6506W        W78035  36.421  15.203   1.399
 6507W        W78036  16.666  42.785  14.434
 6508W        W78037   7.217  38.904  10.409
 6509W        W78038  12.358  13.869   1.572
 6510W        W78039  23.291  42.387   4.874
 6511W        W78040  25.440   1.448  14.222
 6512W        W78041   1.427  17.212  14.805
 6513W        W78042  18.231  29.064  14.922
 6514W        W78043  35.963  34.362  14.196
 6515W        W78044  35.976   9.286   3.212
 6516W        W78045  15.630  22.669  10.809
 6517W        W78046   2.662  40.259  11.482
 6518W        W78047  27.125  19.938   2.691
 6519W        W78048  35.343  43.782  12.557
 6520W        W78049   8.263   1.755  11.519
 6521W        W78050  36.029  27.159  10.383
 6522W        W78051   1.565   4.223   4.592
 6523W        W78052   8.393   0.869   4.958
 6524W        W78053  16.411  33.896   1.637
 6525W        W78054  28.621   1.036  13.560
 6526W        W78055  13.074  22.963  13.979
 6527W        W78056  23.689  25.168   0.767
 6528W        W78057   4.978   4.778   1.292
 6529W        W78058  39.287  27.583  13.811
 6530W        W78059   3.307  44.964   0.872
 6531W        W78060  33.357  41.419   4.584
 6532W        W78061  15.037  37.525   2.085
 6533W        W78062   5.263  27.484   1.275
 6534W        W78063  44.930  37.299  14.551
 6535W        W78064   5.631  15.705  11.191
 6536W        W78065  16.230  14.681   4.127
 6537W        W78066  31.897  40.266  11.362
 6538W        W78067  41.729  40.435  12.793
 6539W        W78068  30.925  42.323  12.626
 6540W        W78069  27.534  15.323   1.755
 6541W        W78070  28.347  35.066   2.933
 6542W        W78071  34.000  10.117   4.629
 6543W        W78072  31.543   5.651  11.646
 6544W        W78073  32.711  39.845  12.757
 6545W        W78074   0.636  13.221   4.136
 6546W        W78075  18.048  41.842  12.007
 6547W        W78076   3.465   3.840   3.352
 6548W        W78077  29.101   4.819  13.877
 6549W        W78078  27.789   1.270  13.067
 6550W        W78079  23.039  19.380   4.852
 6551W        W78080   7.550  11.623  14.237
 6552W        W78081  36.521  33.165  13.840
 6553W        W78082  37.759  21.629   4.626
 6554W        W78083   0.431  38.317  11.862
 6555W        W78084  44.471   1.933   4.101
 6556W        W78085   5.224  17.116  11.610
 6557W        W78086  11.872  41.773   3.201
 6558W        W78087  35.772  44.983   4.489
 6559W        W78088  43.485  36.060   3.170
 6560W        W78089   7.687  40.565  12.314
 6561W        W78090  15.578  18.026   2.439
 6562W        W78091  39.110  13.247   3.718
 6563W        W78092   5.865  24.479   4.647
 6564W        W78093   2.435  23.471   0.275
 6565W        W78094   7.937   6.337  13.416
 6566W        W78095  36.483  25.542  10.812
 6567W        W78096   7.922  28.737   4.185
 6568W        W78097  40.655   6.805  13.118
 6569W        W78098   7.873  39.575   0.480
 6570W        W78099  24.047  23.054  14.556
 6571W        W78100  19.942  34.864  14.354
 6572W        W78101  29.941  35.442   4.482
 6573W        W78102  26.962  19.819  14.435
 6574W        W78103  41.396  33.042   1.489
 6575W        W78104  14.569  38.047   0.328
 6576W        W78105  39.909   4.952  13.028
 6577W        W78106   6.710  20.948  13.809
 6578W        W78107  28.363  24.069   1.395
 6579W        W78108  35.060  41.103  12.003
 6580W        W78109  24.562  17.617   1.968
 6581W        W78110  30.501  43.209   2.650
 6582W        W78111  20.791  31.533  10.796
 6583W        W78112  32.545  10.911  10.803
 6584W        W78113   9.213  21.193  10.737
 6585W        W78114   8.620  30.628  12.544
 6586W        W78115  10.380  25.582   1.268
 6587W        W78116  22.466  37.692  12.647
 6588W        W78117  11.409   5.088   0.276
 6589W        W78118  32.563  25.101  14.581
 6590W        W78119  30.864  35.249   3.226
 6591W        W78120  44.506  29.894   2.849
 6592W        W78121  33.290   7.446  13.934
 6593W        W78122   4.210  25.117   0.093
 6594W        W78123  25.775  21.327   0.645
 6595W        W78124  18.265   2.741   3.982
 6596W        W78125  34.061  37.782  12.423
 6597W        W78126   5.785  38.886  13.002
 6598W        W78127  32.613  32.128   2.866
 6599W        W78128  40.452  42.652  12.522
 6600W        W78129  32.022  29.911   0.676
 6601W        W78130  28.879  36.134   2.352
 6602W        W78131  20.246   3.933   3.898
 6603W        W78132   5.642  18.062   1.929
 6604W        W78133  30.606  28.186  10.667
 6605W        W78134  19.638  42.237   2.300
 6606W        W78135  34.976  43.566  12.824
 6607W        W78136  10.908  41.448  12.095
 6608W        W78137  36.023  32.677   3.351
 6609W        W78138  12.081  12.040   0.628
 6610W        W78139   2.767  18.662  14.151
 6611W        W78140  39.022  20.971   4.909
 6612W        W78141  14.656  18.418  10.117
 6613W        W78142  41.778   0.961   4.250
 6614W        W78143  22.404   5.246   9.878
 6615W        W78144  41.792   9.160   3.162
 6616W        W78145  25.989  19.130   3.130
 6617W        W78146  18.369   0.740  14.360
 6618W        W78147  10.485  21.753  13.272
 6619W        W78148  41.854  27.189   0.329
 6620W        W78149  10.920  34.492   0.377
 6621W        W78150  25.350  37.058  11.223
 6622W        W78151  38.076  33.897   0.783
 6623W        W78152  42.934   2.462  12.129
 6624W        W78153  22.017  10.258  13.915
 6625W        W78154  10.438  37.088  11.144
 6626W        W78155   2.303  17.191  11.704
 6627W        W78156   3.744  43.890  10.490
 6628W        W78157   7.138   4.930   3.805
 6629W        W78158  40.254  11.811   3.314
 6630W        W78159  44.797  27.451   3.189
 6631W        W78160  41.334  11.925  12.386
 6632W        W78161  23.216  10.094   0.641
 6633W        W78162  19.204   4.232  12.550
 6634W        W78163  21.760  32.794   0.695
 6635W        W78164   5.829  42.964   2.183
 6636W        W78165  41.336  26.685   3.738
 6637W        W78166  23.549  12.582  12.515
 6638W        W78167   5.297  32.019   3.896
 6639W        W78168  14.552  24.558   1.148
 6640W        W78169  44.305  16.669   1.761
 6641W        W78170   6.403  42.048   4.184
 6642W        W78171  40.952   7.384  12.471
 6643W        W78172   3.034  44.785   0.426
 6644W        W78173  21.678  30.201   2.291
 6645W        W78174  23.087  17.617  14.054
 6646W        W78175  16.144  39.003   3.691
 6647W        W78176  35.690  21.073   3.225
 6648W        W78177   4.479  27.775  13.222
 6649W        W78178   5.309  43.554   0.973
 6650W        W78179  16.011  28.147   1.803
 6651W        W78180   6.351   1.253  14.819
 6652W        W78181  25.694  42.792   2.383
 6653W        W78182  16.127  40.273   2.228
 6654W        W78183  39.077   5.055   2.267
 6655W        W78184  18.718  37.558  10.997
 6656W        W78185  36.315   1.174   4.137
 6657W        W78186  26.940  27.092   2.660
 6658W        W78187   5.914   8.650   4.656
 6659W        W78188  17.085   2.981  13.747
 6660W        W78189   6.158  37.256  11.471
 6661W        W78190  40.599  21.118  12.547
 6662W        W78191  30.399  38.132   0.883
 6663W        W78192  36.059  31.385   2.351
 6664W        W78193  19.884   7.238   1.364
 6665W        W78194  10.244   1.431  11.071
 6666W        W78195  27.771  10.101  11.449
 6667W        W78196  30.991  24.542  14.576
 6668W        W78197  25.224  35.394   0.456
 6669W        W78198   9.177  16.163   4.099
 6670W        W78199  35.060  16.752  14.819
 6671W        W78200   0.981  41.097   4.957
 6672W        W78201  24.193  38.434  13.375
 6673W        W78202  17.588  34.367  13.227
 6674W        W78203  42.941  10.349  10.943
 6675W        W78204  42.699  22.774   3.636
 6676W        W78205  33.567  12.680   0.292
 6677W        W78206   5.748  39.868   2.376
 6678W        W78207  30.303  17.123  13.791
 6679W        W78208  39.867  23.600   2.437
 6680W        W78209  13.112   8.755   1.903
 6681W        W78210   8.094   4.900  14.399
 6682W        W78211   5.787   9.593   1.220
 6683W        W78212  39.664   9.248  10.649
 6684W        W78213  21.949  15.701   0.779
 6685W        W78214  41.975  27.341  13.728
 6686W        W78215  16.694  30.033   9.944
 6687W        W78216  16.258  29.060  14.606
 6688W        W78217  30.053  12.279  13.763
 6689W        W78218  18.630   8.577   3.837
 6690W        W78219   3.179  24.690   3.077
 6691W        W78220  19.777  28.303   0.535
 6692W        W78221  23.151  17.862   4.596
 6693W        W78222  31.977  24.517  13.997
 6694W        W78223  36.546  24.028   0.875
 6695W        W78224  22.538  43.590  13.771
 6696W        W78225   1.769   3.963   0.893
 6697W        W78226  40.261  38.332  14.419
 6698W        W78227  25.995   9.899  13.845
 6699W        W78228  42.966  42.303   1.296
 6700W        W78229  23.099  23.768  13.529
 6701W        W78230  41.770  10.800  11.231
 6702W        W78231   8.927  23.725  11.174
 6703W        W78232  29.518  27.474  11.074
 6704W        W78233  38.072  10.667  13.853
 6705W        W78234  19.556  31.566  14.005
 6706W        W78235  42.985  24.239  13.379
 6707W        W78236  36.053  24.585  11.568
 6708W        W78237  33.183  34.863   2.234
 6709W        W78238  17.610  29.658  11.499
 6710W        W78239  26.653  10.459   5.295
 6711W        W78240  21.543  27.013   0.904
 6712W        W78241  30.231  11.805   0.205
 6713W        W78242  39.552  25.353  13.045
 6714W        W78243  25.651  31.749   4.841
 6715W        W78244  11.244  19.148  10.755
 6716W        W78245  25.593  12.366   4.123
 6717W        W78246  13.545  35.810   3.571
 6718W        W78247  40.564   0.580   2.258
 6719W        W78248   2.111   6.895   0.471
 6720W        W78249   2.235  22.006   3.760
 6721W        W78250  31.048  25.702   1.364
 6722W        W78251  38.935  17.234   0.765
 6723W        W78252   3.706  42.807   2.216
 6724W        W78253   7.229  30.627  11.263
 6725W        W78254  37.673  10.835   1.287
 6726W        W78255  34.620  43.275   1.866
 6727W        W78256   1.825  12.319   0.761
 6728W        W78257  30.960  37.017  14.865
 6729W        W78258   8.651  14.201  11.048
 6730W        W78259  30.952   6.365  11.580
 6731W        W78260  33.461  23.644   1.253
 6732W        W78261  28.367  30.233   3.752
 6733W        W78262  27.508  33.986  13.476
 6734W        W78263  38.582  22.211   3.593
 6735W        W78264   3.185  33.389  13.912
 6736W        W78265  31.024  19.077   1.504
 6737W        W78266  28.416   9.871   0.285
 6738W        W78267  19.718  37.409  13.415
 6739W        W78268  38.202  11.090  12.431
 6740W        W78269   1.731  40.248  10.442
 6741W        W78270  29.648  18.170  11.146
 6742W        W78271   0.744   4.938  14.460
 6743W        W78272  32.596  26.137  12.030
 6744W        W78273  17.171  43.611   0.320
 6745W        W78274  16.916  18.396  11.737
 6746W        W78275   1.754   1.934  13.020
 6747W        W78276  39.995  32.324  14.976
 6748W        W78277  23.564  25.135   2.353
 6749W        W78278  40.813  36.780   0.119
 6750W        W78279  42.016  12.133  14.976
 6751W        W78280   3.238  17.530   3.774
 6752W        W78281  42.177  21.558  13.717
 6753W        W78282   1.895  35.799  12.370
 6754W        W78283   2.504  10.283  10.356
 6755W        W78284  23.294  16.732   2.874
 6756W        W78285  14.811  44.826  12.371
 6757W        W78286  27.687  16.580  12.091
 6758W        W78287  10.909  29.623   1.532
 6759W        W78288  31.751  23.739   3.868
 6760W        W78289   9.792  41.066  12.371
 6761W        W78290  44.770  34.842  12.401
 6762W        W78291  41.849   3.450   2.183
 6763W        W78292  36.047  11.157   4.131
 6764W        W78293  24.576   8.781  11.288
 6765W        W78294  29.391  33.776  13.100
 6766W        W78295   1.938  44.104  11.091
 6767W        W78296   8.413  23.094  11.019
 6768W        W78297   7.778  21.281   2.857
 6769W        W78298  12.686  38.013   4.540
 6770W        W78299  36.674  14.522  11.494
 6771W        W78300  27.002  15.694   0.247
 6772W        W78301   8.316  14.711  11.445
 6773W        W78302   5.873  33.279   4.620
 6774W        W78303  19.580   0.201  14.766
 6775W        W78304  40.167  14.054  12.640
 6776W        W78305  36.524   2.124   3.135
 6777W        W78306   9.318  21.278   3.264
 6778W        W78307   5.232  18.895   0.925
 6779W        W78308  19.223   5.922   0.373
 6780W        W78309  25.002  39.585  13.524
 6781W        W78310  42.060  40.408  14.454
 6782W        W78311  44.250  22.301   3.290
 6783W        W78312  35.596  41.157   3.244
 6784W        W78313  24.723  22.017   2.609
 6785W        W78314  27.096  15.234  14.930
 6786W        W78315  24.231  19.745   2.336
 6787W        W78316  40.431  11.291   3.232
 6788W        W78317  35.648  32.899  13.508
 6789W        W78318  20.361   3.937   4.949
 6790W        W78319   4.592  17.239   2.639
 6791W        W78320  33.696  40.430   2.661
 6792W        W78321  11.270  12.265   4.101
 6793W        W78322   3.481  11.786  13.572
 6794W        W78323  39.854  41.229  10.838
 6795W        W78324  25.588   2.220  10.710
 6796W        W78325  13.636  22.264   1.001
 6797W        W78326  36.265  33.575  13.613
 6798W        W78327   0.370  10.404   0.813
 6799W        W78328  31.145   9.848  14.952
 6800W        W78329   7.388   6.278  10.688
 6801W        W78330  11.854  15.129  10.935
 6802W        W78331  32.537  19.265   1.528
 6803W        W78332   4.408  25.595  10.660
 6804W        W78333   5.939  35.568   1.790
 6805W        W78334   3.716  37.496  12.387
 6806W        W78335  14.278  31.362   0.317
 6807W        W78336  43.566  44.182   1.420
 6808W        W78337  35.104  16.836   4.314
 6809W        W78338  37.029  33.118  14.973
 6810W        W78339   0.168  32.917  11.158
 6811W        W78340  40.585  29.124   4.164
 6812W        W78341  43.684  30.896   3.545
 6813W        W78342  11.955  43.881  11.643
 6814W        W78343  21.727  10.061   2.705
 6815W        W78344  40.889  30.758  13.319
 6816W        W78345  35.116   9.749  10.680
 6817W        W78346   0.090  12.682  12.349
 6818W        W78347  28.218  30.598  11.898
 6819W        W78348  43.674  18.140   2.377
 6820W        W78349  35.005   6.898   3.729
 6821W        W78350  22.574  11.408   2.329
 6822W        W78351  44.399  38.011  12.956
 6823W        W78352  16.276  31.246   2.133
 6824W        W78353  29.700  15.851  14.788
 6825W        W78354  37.544  25.052   0.320
 6826W        W78355   6.426   2.583  10.570
 6827W        W78356  20.529  37.137   1.196
 6828W        W78357   2.444  38.561   0.665
 6829W        W78358  24.916   9.625   4.148
 6830W        W78359   7.692  23.021  12.980
 6831W        W78360  42.338  44.771   0.801
 6832W        W78361  39.267  40.254   0.519
 6833W        W78362  17.208  39.073   3.728
 6834W        W78363  22.171  33.095  11.956
 6835W        W78364   6.525  43.401   1.726
 6836W        W78365  33.344  19.880   1.460
 6837W        W78366  16.157   3.889  13.848
 6838W        W78367  23.520  11.970   0.443
 6839W        W78368  11.575  20.533  14.802
 6840W        W78369  40.975  31.939  12.308
 6841W        W78370  44.313  35.702   2.658
 6842W        W78371  25.991   6.745   3.177
 6843W        W78372   6.474   8.376  11.667
 6844W        W78373  17.757  43.760   0.160
 6845W        W78374  37.263  18.798   0.759
 6846W        W78375   4.609  22.667  12.508
 6847W        W78376   9.367   1.725  11.515
 6848W        W78377  21.252   2.207  11.273
 6849W        W78378  21.015  41.134  13.889
 6850W        W78379   5.733   8.387   2.295
 6851W        W78380  34.494   4.467   4.476
 6852W        W78381   0.279   8.113   0.424
 6853W        W78382  42.485   0.065   2.193
 6854W        W78383  26.016  24.500  11.129
 6855W        W78384  10.389  10.742   0.397
 6856W        W78385  31.603   5.930  14.027
 6857W        W78386  21.745  19.814   2.300
 6858W        W78387   5.158  35.074  12.012
 6859W        W78388  36.528  35.980  12.152
 6860W        W78389  42.320   3.721  13.146
 6861W        W78390  40.891   6.260  11.690
 6862W        W78391   0.339  13.263   1.379
 6863W        W78392   6.943  21.290  11.654
 6864W        W78393  23.635  40.995   2.783
 6865W        W78394  31.223  20.510   3.707
 6866W        W78395   8.528  12.463   2.837
 6867W        W78396  40.564  37.585  14.915
 6868W        W78397  33.054  21.909  10.634
 6869W        W78398  30.462  28.517  11.081
 6870W        W78399  15.108  19.295  14.106
 6871W        W78400   1.041   6.343  13.462
 6872W        W78401   5.420   7.449   2.786
 6873W        W78402  43.225  30.494   2.329
 6874W        W78403  23.507   5.851  12.446
 6875W        W78404   7.023  22.517  10.947
 6876W        W78405  20.461  31.179   4.742
 6877W        W78406   6.817  19.480   4.500
 6878W        W78407  20.845  28.185  14.761
 6879W        W78408  35.555   7.610  11.725
 6880W        W78409  26.636  39.412   1.357
 6881W        W78410   6.803  33.124   1.438
 6882W        W78411   1.986  28.639   4.069
 6883W        W78412   9.743  19.500  13.544
 6884W        W78413  17.591  43.817  14.160
 6885W        W78414  13.270  31.081   0.759
 6886W        W78415  28.941  28.000  14.089
 6887W        W78416   9.554  40.221  12.298
 6888W        W78417  38.062  39.974   9.922
 6889W        W78418  13.744   3.907   2.536
 6890W        W78419  18.583  36.701   1.149
 6891W        W78420   8.067   8.448  14.869
 6892W        W78421  33.332  21.795   0.238
 6893W        W78422  40.347   0.356   1.254
 6894W        W78423   4.944  24.370  13.693
 6895W        W78424   9.931   6.927  14.124
 6896W        W78425  25.140  37.008  14.298
 6897W        W78426  23.084  24.607  14.769
 6898W        W78427  44.747  18.202   4.061
 6899W        W78428  36.432  11.749  12.459
 6900W        W78429  15.822  20.967  13.517
 6901W        W78430  24.687  25.786   1.216
 6902W        W78431  36.902  32.093  14.974
 6903W        W78432  44.664  41.795  12.498
 6904W        W78433  27.448  31.474  14.645
 6905W        W78434  42.909  17.840   1.520
 6906W        W78435   5.398  10.323  14.762
 6907W        W78436   5.210   5.920  13.388
 6908W        W78437  24.971   0.488   1.758
 6909W        W78438  14.225  24.109   2.651
 6910W        W78439  15.321  14.104  11.571
 6911W        W78440  26.685  42.509  12.336
 6912W        W78441  41.798   7.889   1.987
 6913W        W78442  43.341   9.226  10.918
 6914W        W78443   0.319   8.674   3.754
 6915W        W78444  37.913   5.879   4.128
 6916W        W78445  31.041  13.805   2.135
 6917W        W78446  23.036   4.961   4.245
 6918W        W78447  16.542  27.734   2.668
 6919W        W78448  26.478   6.294  14.898
 6920W        W78449  42.238  21.374  11.458
 6921W        W78450  19.884  31.223  12.348
 6922W        W78451   5.543  21.806  14.027
 6923W        W78452  18.504   9.835   5.494
 6924W        W78453  10.324   7.035   0.275
 6925W        W78454  30.795  41.463  14.714
 6926W        W78455  41.318   1.760   4.235
 6927W        W78456  44.864  19.240  13.904
 6928W        W78457   7.670  12.265  14.404
 6929W        W78458  34.522   6.925   3.519
 6930W        W78459  29.274  22.995   1.694
 6931W        W78460   0.780  16.213  10.356
 6932W        W78461  23.223  20.003   1.438
 6933W        W78462  19.743  12.300  14.967
 6934W        W78463   7.115   4.922   4.820
 6935W        W78464  37.510  28.983   3.602
 6936W        W78465  42.921  14.076   2.352
 6937W        W78466  14.124  22.077  13.791
 6938W        W78467  12.319  16.700   4.226
 6939W        W78468  33.360   5.481   1.278
 6940W        W78469  22.911  21.283  13.395
 6941W        W78470  34.557  33.115   4.307
 6942W        W78471  22.255  15.571  14.945
 6943W        W78472   2.431  29.925  11.531
 6944W        W78473   6.142  41.778  12.550
 6945W        W78474  36.936  18.206   3.786
 6946W        W78475  43.913  42.706   4.777
 6947W        W78476  27.526  24.978  13.278
 6948W        W78477  26.814  27.106   4.138
 6949W        W78478  22.558  11.188   3.644
 6950W        W78479  23.114  25.888   0.799
 6951W        W78480  28.340  27.406  11.971
 6952W        W78481  34.653  27.926   2.201
 6953W        W78482  11.127  18.041  13.293
 6954W        W78483   0.005  10.808  14.743
 6955W        W78484   4.888  31.405   4.392
 6956W        W78485   1.409  19.146  10.762
 6957W        W78486  42.159  39.097   1.382
 6958W        W78487  38.439  29.098  13.519
 6959W        W78488  39.064  27.138  12.862
 6960W        W78489  17.103  10.158   2.138
 6961W        W78490  13.206   0.280  12.577
 6962W        W78491  24.501  40.776   2.889
 6963W        W78492  12.353  13.086  12.497
 6964W        W78493  33.547  31.431   0.681
 6965W        W78494  18.796  16.590  13.081
 6966W        W78495  28.864   5.350   3.637
 6967W        W78496  31.450  12.672   0.783
 6968W        W78497  28.413  39.394  14.835
 6969W        W78498   0.868  12.575  13.876
 6970W        W78499  14.749  23.317  12.151
 6971W        W78500  12.021  10.164   4.621
 6972W        W78501  21.051  25.021   3.716
 6973W        W78502  18.941  41.019   2.208
 6974W        W78503  30.075  36.462  11.489
 6975W        W78504  25.932  19.408  11.592
 6976W        W78505   9.434  21.609  12.991
 6977W        W78506  33.741  35.120  12.948
 6978W        W78507  20.110  12.645  13.841
 6979W        W78508  16.167  35.011  14.260
 6980W        W78509   5.415  38.360  14.996
 6981W        W78510  20.795  42.895   4.104
 6982W        W78511  32.434   4.170   1.913
 6983W        W78512  21.789  41.315  14.758
 6984W        W78513   7.045  39.289  12.078
 6985W        W78514  28.450  12.207   2.384
 6986W        W78515  44.205  21.818  11.133
 6987W        W78516   9.986  37.058   0.920
 6988W        W78517   1.529  31.020  12.303
 6989W        W78518   4.002  33.764   2.451
 6990W        W78519  43.956   1.236  13.256
 6991W        W78520  31.491   8.201  14.385
 6992W        W78521  11.776  13.871  13.333
 6993W        W78522  36.454  35.409  14.913
 6994W        W78523  20.238  16.766   4.253
 6995W        W78524  39.418   5.717  11.127
 6996W        W78525   1.025   0.308  10.675
 6997W        W78526   0.034  35.231   0.854
 6998W        W78527   8.757  30.027   3.294
 6999W        W78528  14.633  27.193   1.014
 7000W        W78529   6.930   6.130  12.542
 7001W        W78530  32.501  35.885  13.318
 7002W        W78531  35.406  12.877   4.360
 7003W        W78532  41.996  31.488   1.120
 7004W        W78533  34.855  38.085   4.112
 7005W        W78534  24.304   9.511  10.807
 7006W        W78535  28.102   8.285  13.937
 7007W        W78536  25.193  41.851   0.487
 7008W        W78537   3.257  41.091   1.336
 7009W        W78538  16.599  31.578  11.455
 7010W        W78539   6.861  15.704  10.543
 7011W        W78540  11.324  30.610   0.694
 7012W        W78541  23.730  12.548   2.014
 7013W        W78542   7.668  17.608   0.806
 7014W        W78543  36.056   0.709   0.983
 7015W        W78544   0.777  36.822   4.178
 7016W        W78545   1.864  12.711   2.830
 7017W        W78546  38.135   4.915  10.236
 7018W        W78547   0.568  29.235   1.222
 7019W        W78548  23.773  30.001  10.698
 7020W        W78549  25.618  27.428  12.024
 7021W        W78550  32.851   1.918  13.908
 7022W        W78551  11.652  36.813   0.440
 7023W        W78552  43.253   9.225   2.261
 7024W        W78553  44.659  33.846   0.585
 7025W        W78554  12.167  26.421   1.543
 7026W        W78555   5.815  40.736   1.824
 7027W        W78556  43.793  43.342  11.503
 7028W        W78557  34.087  35.295  10.831
 7029W        W78558  11.644  25.120   5.093
 7030W        W78559  38.892  37.333   4.107
 7031W        W78560  16.480   4.259   2.954
 7032W        W78561  30.062  21.284  13.306
 7033W        W78562  29.592  22.130   1.109
 7034W        W78563  23.949   0.020   0.367
 7035W        W78564   0.047  30.703   1.373
 7036W        W78565   2.309  38.846  10.982
 7037W        W78566  38.298   4.499  11.182
 7038W        W78567  31.999  17.557  10.596
 7039W        W78568  14.098   3.931   2.905
 7040W        W78569   9.327  24.291   2.383
 7041W        W78570  10.677  43.462   4.619
 7042W        W78571  17.688  37.723  12.489
 7043W        W78572   7.697  39.930   0.853
 7044W        W78573  42.066  35.837  14.008
 7045W        W78574  20.106  37.409   4.553
 7046W        W78575  28.456  36.424   2.419
 7047W        W78576  17.715  44.368   3.925
 7048W        W78577  31.481  10.229   4.937
 7049W        W78578   1.610  16.683   4.551
 7050W        W78579  29.886  29.840  12.065
 7051W        W78580   6.490  30.629   0.690
 7052W        W78581  22.884   3.727  12.471
 7053W        W78582  32.895  30.916   3.767
 7054W        W78583  39.176  15.690   0.798
 7055W        W78584   6.816  37.068   1.526
 7056W        W78585  21.168   3.931   3.362
 7057W        W78586  42.849  19.507  14.266
 7058W        W78587  13.624  10.474  10.465
 7059W        W78588   7.040  26.309  11.065
 7060W        W78589  17.478   5.191  13.409
 7061W        W78590   8.945  33.034   2.307
 7062W        W78591  40.334  18.527  13.805
 7063W        W78592  37.331   9.427   3.773
 7064W        W78593  24.107  23.512  11.260
 7065W        W78594  14.276   0.274  13.065
 7066W        W78595   1.279  40.030   3.394
 7067W        W78596  34.762   1.952  11.605
 7068W        W78597  18.125  42.032  12.825
 7069W        W78598  25.971  36.486  13.369
 7070W        W78599  21.533  17.050   2.570
 7071W        W78600  11.029  42.991   1.198
 7072W        W78601   6.172  36.493  12.473
 7073W        W78602  30.425   9.306   2.393
 7074W        W78603  30.877  27.645   4.116
 7075W        W78604  43.360  41.236   3.577
 7076W        W78605  44.160  17.270  12.138
 7077W        W78606   3.381  13.425  12.613
 7078W        W78607  44.901  44.279  10.580
 7079W        W78608  19.291  21.157  11.434
 7080W        W78609  17.173  24.221  11.953
 7081W        W78610   5.289  43.544  13.251
 7082W        W78611  15.584   6.795  12.609
 7083W        W78612  21.723  32.920   1.206
 7084W        W78613  29.054   8.895   3.605
 7085W        W78614  34.286  26.641   5.078
 7086W        W78615   9.358  40.399  14.080
 7087W        W78616   8.744  32.460  11.238
 7088W        W78617  10.600  29.939  13.653
 7089W        W78618  36.459  16.596  14.364
 7090W        W78619   9.096   3.505   0.877
 7091W        W78620   1.061  15.682  11.621
 7092W        W78621  42.554  22.240  11.967
 7093W        W78622  29.161  20.948  14.464
 7094W        W78623  40.018   0.092   1.772
 7095W        W78624  13.847  28.841   0.905
 7096W        W78625  32.593  40.926   4.895
 7097W        W78626  13.863  44.217   3.616
 7098W        W78627  34.340   2.971   2.982
 7099W        W78628  13.412  35.030   1.843
 7100W        W78629   6.667  11.365  14.909
 7101W        W78630   4.842  39.476   3.051
 7102W        W78631  37.067  26.542   2.306
 7103W        W78632  29.160  23.000   3.716
 7104W        W78633  10.855  24.220   3.247
 7105W        W78634  15.783  27.940  10.257
 7106W        W78635  14.611  27.258   2.412
 7107W        W78636   7.104   5.019   0.319
 7108W        W78637  29.383   8.957  13.866
 7109W        W78638  43.188   8.978   2.732
 7110W        W78639  37.374  11.883  11.176
 7111W        W78640  41.319  36.387   1.974
 7112W        W78641   7.680   2.387  13.551
 7113W        W78642  15.173   9.756  13.446
 7114W        W78643  29.042   9.926  12.020
 7115W        W78644   6.785  34.418   0.177
 7116W        W78645  20.603  29.101   0.752
 7117W        W78646  11.052  19.698   4.109
 7118W        W78647   8.737  33.660   3.163
 7119W        W78648  43.987   8.739   0.906
 7120W        W78649  19.750  21.024   1.268
 7121W        W78650   0.787  26.058   1.956
 7122W        W78651  12.863  28.667  11.763
 7123W        W78652  43.528  40.038  14.188
 7124W        W78653  44.725  41.531  12.957
 7125W        W78654  35.179  41.614  11.216
 7126W        W78655  28.602  35.717  12.536
 7127W        W78656  39.021  44.453  14.951
 7128W        W78657  32.961  33.703   4.306
 7129W        W78658  15.060  36.729  14.981
 7130W        W78659  38.564  22.275   4.530
 7131W        W78660  37.001   1.862   3.213
 7132W        W78661   6.758  15.690   2.309
 7133W        W78662  43.510   4.829  11.946
 7134W        W78663  11.801   1.537   3.780
 7135W        W78664  28.940  15.659   2.338
 7136W        W78665  19.035   2.974   4.789
 7137W        W78666  11.157  43.354  14.530
 7138W        W78667  24.217  14.849   4.167
 7139W        W78668  41.507  37.089  12.020
 7140W        W78669  11.129  29.724   0.820
 7141W        W78670  25.218  15.009   1.764
 7142W        W78671  18.797   1.287  11.552
 7143W        W78672   9.959  43.021  11.852
 7144W        W78673  34.465  30.203  12.927
 7145W        W78674  35.319  27.207  12.189
 7146W        W78675  17.660   0.958   0.338
 7147W        W78676   4.652  19.733   2.728
 7148W        W78677  34.373  11.320  14.193
 7149W        W78678  33.138   5.945  13.389
 7150W        W78679  30.981  27.855   4.572
 7151W        W78680  21.735  19.043   4.501
 7152W        W78681  18.968  42.911   3.667
 7153W        W78682   7.545  34.678  11.653
 7154W        W78683  20.196  24.142  10.524
 7155W        W78684   9.393   3.903  12.280
 7156W        W78685  11.327  26.718  12.354
 7157W        W78686  37.431   0.517   0.734
 7158W        W78687  18.306  44.119  13.850
 7159W        W78688  22.727  16.668  14.029
 7160W        W78689  17.308  28.772   2.246
 7161W        W78690   1.747  41.655  11.628
 7162W        W78691  15.709  36.258  13.931
 7163W        W78692   9.872  27.199   2.463
 7164W        W78693  15.241   7.437  13.832
 7165W        W78694  43.812  30.590   1.079
 7166W        W78695   6.221  26.594   1.967
 7167W        W78696  11.135  29.861  12.221
 7168W        W78697  34.918   5.947   1.855
 7169W        W78698  26.076  31.040  11.321
 7170W        W78699  20.540  27.666  10.343
 7171W        W78700  44.676   4.780  12.702
 7172W        W78701  21.230  43.410   3.287
 7173W        W78702  13.202  26.989  12.944
 7174W        W78703  17.610  25.228   1.798
 7175W        W78704  10.459   9.389   2.238
 7176W        W78705   8.133  33.910  13.231
 7177W        W78706   9.407   9.925  14.010
 7178W        W78707   7.184  14.172   3.598
 7179W        W78708   8.796  14.163  14.565
 7180W        W78709  12.835  18.441   4.203
 7181W        W78710  37.503  35.523   3.308
 7182W        W78711   2.866  31.115  12.466
 7183W        W78712  27.631  27.576  11.499
 7184W        W78713  43.838   1.781   1.417
 7185W        W78714  40.806  22.453  14.896
 7186W        W78715  13.527  14.058  12.681
 7187W        W78716  11.776   0.793  13.909
 7188W        W78717  19.183   5.282  11.178
 7189W        W78718   1.348  41.353  10.713
 7190W        W78719  35.056  23.215   3.703
 7191W        W78720  14.442  23.666   1.836
 7192W        W78721  14.023  29.099  14.937
 7193W        W78722   1.046  22.935   4.843
 7194W        W78723  24.059  24.558   4.680
 7195W        W78724  44.787  41.346   0.848
 7196W        W78725   1.312  27.426  14.859
 7197W        W78726  10.565  27.958  12.286
 7198W        W78727   7.270  36.213   3.225
 7199W        W78728  39.765  33.579   3.865
 7200W        W78729  23.750  44.793  13.367
 7201W        W78730  42.328  28.637  10.767
 7202W        W78731  10.222  11.661  12.170
 7203W        W78732  21.664  30.826   0.804
 7204W        W78733  13.186  31.170  11.059
 7205W        W78734  25.245  12.350  14.888
 7206W        W78735   0.816  25.085   0.395
 7207W        W78736  20.534   3.459  12.602
 7208W        W78737   0.388   4.942  14.863
 7209W        W78738  24.220  36.959  12.384
 7210W        W78739   7.335  21.123   3.135
 7211W        W78740   6.903  24.993   3.905
 7212W        W78741  10.070   9.715   0.987
 7213W        W78742  40.664  12.658   0.327
 7214W        W78743   6.507  13.776   4.858
 7215W        W78744  13.822  19.625  10.989
 7216W        W78745  44.777  13.122   4.606
 7217W        W78746   8.692  41.766   4.213
 7218W        W78747  19.102  16.106  12.375
 7219W        W78748   7.116  41.363  11.475
 7220W        W78749   3.271   1.510  10.854
 7221W        W78750  28.633  43.983   4.084
 7222W        W78751  25.565  41.224  10.679
 7223W        W78752   0.249  13.675   0.361
 7224W        W78753  41.542   6.627  10.613
 7225W        W78754  43.733  29.680   0.830
 7226W        W78755  29.631  39.966  13.726
 7227W        W78756  10.361  11.647   2.723
 7228W        W78757  39.656  26.524  11.077
 7229W        W78758  40.745   5.006   0.270
 7230W        W78759  41.238   2.228  13.340
 7231W        W78760  15.325  22.500  13.042
 7232W        W78761  21.444  19.714   0.889
 7233W        W78762  36.459   8.547   4.485
 7234W        W78763  36.681  34.265  14.770
 7235W        W78764  27.641   3.858  12.613
 7236W        W78765  26.190  31.251   4.156
 7237W        W78766  43.908   3.964   2.134
 7238W        W78767  12.863  36.437   0.774
 7239W        W78768  44.805  37.815  12.018
 7240W        W78769  40.332  14.221   4.580
 7241W        W78770  36.355  32.703   0.400
 7242W        W78771  42.964   8.617   3.138
 7243W        W78772  17.413   3.677   1.637
 7244W        W78773  13.285  16.413   3.230
 7245W        W78774  21.871  20.007   1.322
 7246W        W78775  24.086  37.068   2.903
 7247W        W78776  24.588  43.255  13.101
 7248W        W78777  11.747  22.453  11.438
 7249W        W78778   5.280  20.576   3.931
 7250W        W78779   7.341  21.545  14.050
 7251W        W78780   9.626  27.120  14.546
 7252W        W78781  15.825  34.357  10.121
 7253W        W78782  34.105  21.697   4.476
 7254W        W78783  13.448  44.002  14.431
 7255W        W78784  41.691   7.074   2.390
 7256W        W78785  27.549  16.226   1.224
 7257W        W78786  30.819  14.716   1.915
 7258W        W78787  27.059  20.025  12.306
 7259W        W78788  20.081  15.539   1.549
 7260W        W78789  23.253  40.620  10.830
 7261W        W78790  22.973  29.968   3.599
 7262W        W78791  44.686  41.645  13.951
 7263W        W78792  35.406  40.545   4.139
 7264W        W78793  12.640  14.679   0.367
 7265W        W78794  22.246  44.461  10.762
 7266W        W78795  35.950  44.002  11.200
 7267W        W78796  42.487  15.749   4.640
 7268W        W78797  10.075  19.639   1.431
 7269W        W78798  23.815  14.812   3.752
 7270W        W78799  26.164  17.542  11.995
 7271W        W78800  22.573   7.312  10.781
 7272W        W78801   3.612  42.012   3.695
 7273W        W78802  40.569  36.558  14.064
 7274W        W78803   5.878  21.252   1.416
 7275W        W78804  28.478  24.616  12.843
 7276W        W78805  37.012  14.688   2.780
 7277W        W78806  38.721  16.319   4.343
 7278W        W78807   9.062   4.841   1.626
 7279W        W78808  40.633  28.473   0.898
 7280W        W78809  14.746  43.363   1.314
 7281W        W78810  27.443  10.989   1.454
 7282W        W78811  38.416  30.597  10.867
 7283W        W78812  18.079  29.581  13.925
 7284W        W78813   8.637  36.059  10.731
 7285W        W78814  40.790  11.626   4.094
 7286W        W78815  32.597  33.919  13.996
 7287W        W78816  26.753  26.992   5.195
 7288W        W78817  29.522  41.267  14.947
 7289W        W78818  39.110  25.017   5.044
 7290W        W78819   8.156  38.275   3.750
 7291W        W78820   0.062  28.692   1.859
 7292W        W78821  12.948   2.504  13.150
 7293W        W78822  21.071  27.213   0.793
 7294W        W78823  21.957  14.248  12.500
 7295W        W78824  19.635  18.311  14.004
 7296W        W78825  16.130  12.733   3.635
 7297W        W78826   0.516   5.292  12.857
 7298W        W78827  36.808  20.286  12.954
 7299W        W78828  43.453  37.537  11.872
 7300W        W78829  42.454  41.807   0.983
 7301W        W78830  27.632  16.022   0.766
 7302W        W78831  44.572  32.057   3.584
 7303W        W78832  26.884  16.328   4.838
 7304W        W78833   7.380  16.706   2.668
 7305W        W78834  28.665  25.412  13.851
 7306W        W78835  25.669  43.777  11.905
 7307W        W78836  18.044  28.020  12.762
 7308W        W78837  15.555  36.398   3.579
 7309W        W78838  30.676   7.228  12.432
 7310W        W78839  22.710  27.551   2.551
 7311W        W78840  26.503  13.750  14.067
 7312W        W78841  19.213  37.444  13.205
 7313W        W78842  15.624  19.997  11.118
 7314W        W78843  34.581  17.043  14.918
 7315W        W78844  15.315   2.065   1.368
 7316W        W78845  35.788  38.084  13.090
 7317W        W78846  10.499  17.083  14.823
 7318W        W78847  39.396  17.559  14.497
 7319W        W78848  30.979  12.305  12.180
 7320W        W78849  32.191   1.375  11.135
 7321W        W78850  29.661  23.681  13.839
 7322W        W78851  38.460  30.056  14.390
 7323W        W78852  14.247  24.174  12.217
 7324W        W78853  11.354  11.421  14.005
 7325W        W78854  20.099  27.535   4.153
 7326W        W78855  31.016  11.309  11.082
 7327W        W78856  30.369  36.824  13.839
 7328W        W78857  21.754   4.381   4.529
 7329W        W78858  23.660   0.712  14.835
 7330W        W78859  40.986  36.894   4.637
 7331W        W78860  18.288  34.071  11.992
 7332W        W78861  19.958  44.328   2.661
 7333W        W78862  36.160  22.621  14.484
 7334W        W78863   8.914  26.758  13.540
 7335W        W78864  27.142  33.709  14.987
 7336W        W78865  28.068  11.581   1.821
 7337W        W78866  20.317  35.814  11.847
 7338W        W78867   8.989  30.864   1.781
 7339W        W78868  10.474  37.370  10.561
 7340W        W78869  39.577  33.072   1.799
 7341W        W78870  31.247  13.647  11.356
 7342W        W78871  10.075   3.235   1.970
 7343W        W78872  39.519  36.071  12.122
 7344W        W78873  25.132  14.389   3.946
 7345W        W78874  15.204   1.303   2.940
 7346W        W78875  12.160  25.100   0.329
 7347W        W78876  26.966  34.627  10.020
 7348W        W78877  36.307  15.184  11.682
 7349W        W78878  17.162  22.796  14.830
 7350W        W78879  24.940  10.064  11.122
 7351W        W78880  14.286  23.625   2.844
 7352W        W78881  15.804   3.821   4.539
 7353W        W78882  14.262  33.856  14.469
 7354W        W78883   7.754  33.185  11.690
 7355W        W78884  28.161  27.912   4.036
 7356W        W78885  10.134   2.928   1.135
 7357W        W78886  40.253  15.859   1.906
 7358W        W78887  29.935  32.135   4.186
 7359W        W78888  16.565   9.065   4.113
 7360W        W78889  27.684   6.964  13.811
 7361W        W78890   1.968  42.266   1.802
 7362W        W78891  28.246  29.404  14.983
 7363W        W78892  30.935  12.803   0.996
 7364W        W78893  28.384  10.271   0.795
 7365W        W78894  41.626  31.530  11.479
 7366W        W78895  17.091  34.311   3.717
 7367W        W78896  13.866  20.538   2.190
 7368W        W78897  18.239   0.699   1.338
 7369W        W78898  37.981   3.731   1.426
 7370W        W78899  39.320  30.841  13.912
 7371W        W78900  16.810  14.156  12.354
 7372W        W78901   7.378  25.098   4.100
 7373W        W78902   2.688  28.863  12.292
 7374W        W78903   0.960  13.307   0.157
 7375W        W78904  30.663  19.614   1.266
 7376W        W78905  26.499   8.749  11.237
 7377W        W78906  19.711  31.374   4.413
 7378W        W78907   6.719  25.148   3.140
 7379W        W78908  13.769  32.030  10.608
 7380W        W78909  17.115  32.656   0.911
 7381W        W78910  13.632   2.144   1.849
 7382W        W78911  32.705  29.730   1.773
 7383W        W78912  11.383  39.079  10.618
 7384W        W78913   4.241   1.340   0.078
 7385W        W78914  12.498  11.912  12.953
 7386W        W78915  24.124  34.409  11.600
 7387W        W78916   0.803  26.181  13.115
 7388W        W78917   4.723  36.434   1.366
 7389W        W78918   5.645  22.190  12.837
 7390W        W78919  36.132  10.853  13.948
 7391W        W78920  19.489  41.851   3.145
 7392W        W78921  40.183  40.831  10.791
 7393W        W78922  41.963  29.981  11.085
 7394W        W78923  35.101  21.145   0.056
 7395W        W78924  37.626  32.640  14.471
 7396W        W78925  30.116  21.761  11.654
 7397W        W78926  44.374  33.563  14.882
 7398W        W78927  22.733  31.834   5.083
 7399W        W78928   7.726   9.713  14.385
 7400W        W78929   2.304  24.466  10.939
 7401W        W78930  17.893  21.725  14.316
 7402W        W78931  44.825  21.720   3.857
 7403W        W78932   3.822  37.519   2.835
 7404W        W78933  24.108  29.404  13.394
 7405W        W78934  36.103  34.077   2.681
 7406W        W78935  40.814   4.391  10.694
 7407W        W78936  13.310  39.346  11.201
 7408W        W78937   7.293   0.365   2.847
 7409W        W78938   4.326   8.766   4.733
 7410W        W78939  14.207  28.282   1.451
 7411W        W78940  42.342  19.193  10.723
 7412W        W78941  34.372   9.296   2.301
 7413W        W78942  17.094  17.236  14.797
 7414W        W78943   9.014  12.390  13.914
 7415W        W78944  42.164  25.187   0.774
 7416W        W78945   8.664   6.187   4.319
 7417W        W78946  13.752   1.045  12.999
 7418W        W78947   9.642  35.638   4.391
 7419W        W78948  16.293  38.942   2.278
 7420W        W78949  15.209   4.435   4.822
 7421W        W78950   2.302  20.368   1.438
 7422W        W78951  31.099  42.409   4.285
 7423W        W78952  10.195   0.849   2.369
 7424W        W78953  26.769   0.948  13.633
 7425W        W78954  23.196   2.817   4.471
 7426W        W78955  26.189   1.330   3.975
 7427W        W78956  15.639  29.214   4.957
 7428W        W78957  29.722  19.770   2.794
 7429W        W78958  31.204  34.384   1.943
 7430W        W78959   4.462   3.695   2.434
 7431W        W78960  13.605  14.166  13.540
 7432W        W78961  24.472  36.998   0.540
 7433W        W78962  40.569  35.466  13.891
 7434W        W78963   6.099  26.657   2.469
 7435W        W78964  27.851  30.166  11.155
 7436W        W78965  14.435  44.219  14.548
 7437W        W78966  13.131  24.771   3.289
 7438W        W78967  29.390  30.446   0.223
 7439W        W78968   6.631  36.682  10.513
 7440W        W78969  20.489   7.904   1.471
 7441W        W78970  37.241  11.433  11.896
 7442W        W78971  24.956  13.332   0.024
 7443W        W78972  36.357  34.093  10.875
 7444W        W78973  21.790   1.398   4.178
 7445W        W78974  30.365  21.027   2.150
 7446W        W78975  27.888  10.703   1.463
 7447W        W78976  16.086  39.988  11.959
 7448W        W78977  41.863  41.410   1.811
 7449W        W78978   2.639  13.736   0.881
 7450W        W78979  25.899   1.957  11.052
 7451W        W78980  20.783  42.220   0.615
 7452W        W78981  41.425   3.346   1.518
 7453W        W78982   2.808  25.552   0.735
 7454W        W78983   3.596  13.723  14.416
 7455W        W78984  37.225   9.673  12.386
 7456W        W78985  31.366   4.278  14.393
 7457W        W78986  40.963  26.652   3.322
 7458W        W78987  43.237   3.185  11.553
 7459W        W78988  13.401  21.069   3.781
 7460W        W78989  43.441  14.709   4.856
 7461W        W78990  25.641  41.054   4.519
 7462W        W78991  10.635   6.638  10.967
 7463W        W78992   0.207  24.763   1.099
 7464W        W78993  33.898  26.423  10.971
 7465W        W78994  23.395  15.525   1.444
 7466W        W78995  13.979  26.781  14.754
 7467W        W78996  30.142  12.335  13.273
 7468W        W78997   5.867  13.124   3.671
 7469W        W78998   2.623  36.568  11.893
 7470W        W78999   9.883  19.567   4.765
 7471W        W79000  25.975  18.574   3.737
 7472W        W79001   0.643   4.191   0.805
 7473W        W79002  35.480  17.098   3.389
 7474W        W79003  37.379   5.352   4.612
 7475W        W79004   8.910  15.568   0.177
 7476W        W79005   8.645  19.534   1.340
 7477W        W79006  11.729  33.100  12.417
 7478W        W79007  38.818   6.893   2.292
 7479W        W79008  15.040  36.546  14.462
 7480W        W79009   7.633  13.892  14.426
 7481W        W79010  39.529   2.310   0.739
 7482W        W79011  21.234   0.788   4.611
 7483W        W79012  36.157  32.401  11.996
 7484W        W79013  11.579  35.053  10.250
 7485W        W79014  14.437   9.339  13.839
 7486W        W79015  42.454   9.876  12.141
 7487W        W79016  20.074   2.303   2.834
 7488W        W79017  28.670  11.649   1.139
 7489W        W79018  14.467   0.386  11.158
 7490W        W79019   3.684   8.692  14.817
 7491W        W79020  15.504   7.217   5.015
 7492W        W79021  26.988  43.501   1.731
 7493W        W79022  34.905  12.071   0.380
 7494W        W79023  15.918   5.347  12.531
 7495W        W79024  38.376   3.293   0.291
 7496W        W79025  22.132  37.842   0.769
 7497W        W79026  20.559  39.563   1.340
 7498W        W79027  28.577  19.736  11.183
 7499W        W79028   2.166  30.576   3.322
 7500W        W79029  30.120  36.806   3.738
 7501W        W79030  12.640   0.089   3.319
 7502W        W79031  34.600  14.620  12.198
 7503W        W79032  19.620  33.367   3.764
 7504W        W79033  27.247  29.664   2.745
 7505W        W79034   8.687  23.505  10.772
 7506W        W79035  22.779  12.896  10.326
 7507W        W79036  34.054  14.582  13.770
 7508W        W79037  12.647  20.138  11.966
 7509W        W79038   6.476  12.331  11.531
 7510W        W79039   8.154  29.706   0.376
 7511W        W79040  44.496   5.815  12.347
 7512W        W79041  26.089  35.356   2.688
 7513W        W79042  28.560  11.649   1.679
 7514W        W79043   5.795  10.687   4.728
 7515W        W79044  17.235   7.952  12.034
 7516W        W79045  15.344  37.258   2.997
 7517W        W79046  21.279  38.502   3.103
 7518W        W79047  44.828  31.182   1.369
 7519W        W79048  36.169   2.420  14.849
 7520W        W79049  24.028   3.077  14.337
 7521W        W79050  11.263  31.533   4.666
 7522W        W79051   7.143   2.981  10.681
 7523W        W79052  42.356  23.977   4.864
 7524W        W79053   5.304  34.237   3.434
 7525W        W79054  29.161  34.269   0.292
 7526W        W79055   6.468   3.986  11.191
 7527W        W79056  36.352  39.562   0.472
 7528W        W79057  29.235  11.794  11.553
 7529W        W79058  11.171  38.974  14.028
 7530W        W79059  10.897  13.127  10.689
 7531W        W79060  27.500  24.933   2.430
 7532W        W79061  38.041  44.576  10.738
 7533W        W79062   9.108  14.788  13.859
 7534W        W79063  30.051  25.586  12.423
 7535W        W79064  20.009   8.901   3.795
 7536W        W79065  41.858   1.264  13.873
 7537W        W79066  31.797   3.083  12.692
 7538W        W79067  37.669  21.256  10.288
 7539W        W79068   3.503   3.831   2.326
 7540W        W79069  32.667   1.436  12.065
 7541W        W79070  12.287  44.219  12.380
 7542W        W79071  43.741  15.184  10.659
 7543W        W79072  34.415   5.359   4.922
 7544W        W79073   8.842   6.141  14.545
 7545W        W79074  31.066  35.506   2.817
 7546W        W79075  11.556  16.245   2.710
 7547W        W79076  25.520  29.748  13.101
 7548W        W79077   3.381  10.472  12.840
 7549W        W79078  26.060  13.639  10.723
 7550W        W79079  23.316  40.299  14.902
 7551W        W79080   8.753   5.689   4.276
 7552W        W79081  16.197   1.052  11.019
 7553W        W79082  15.384   9.229  14.952
 7554W        W79083  35.227  19.268  12.518
 7555W        W79084   3.287  18.068   4.992
 7556W        W79085  43.586   1.222  11.120
 7557W        W79086  35.470  40.492   1.846
 7558W        W79087  23.764   9.715   3.261
 7559W        W79088  32.017  18.130   2.608
 7560W        W79089  28.118  34.964   3.904
 7561W        W79090  44.177  11.292   1.595
 7562W        W79091  44.713  31.710   2.000
 7563W        W79092  21.632  36.602  12.037
 7564W        W79093   9.395  15.483  12.506
 7565W        W79094   1.488  41.913   3.657
 7566W        W79095  26.691  32.694   1.634
 7567W        W79096  44.721   0.709  12.126
 7568W        W79097   7.892  23.759  12.033
 7569W        W79098  15.379  20.763  14.042
 7570W        W79099  23.012  25.652   0.337
 7571W        W79100  21.186  40.449   4.126
 7572W        W79101  38.475  33.920  12.786
 7573W        W79102  35.534  20.083  13.993
 7574W        W79103  43.996  40.130   0.884
 7575W        W79104  26.199  27.655   0.531
 7576W        W79105  34.477  44.152  12.115
 7577W        W79106  39.852  24.710   4.187
 7578W        W79107   1.818  22.899   1.043
 7579W        W79108  37.053   1.805   0.790
 7580W        W79109   6.217   3.220  14.366
 7581W        W79110  26.005  18.881   0.885
 7582W        W79111  35.873  15.349   3.266
 7583W        W79112   7.667  38.748  12.896
 7584W        W79113   1.787  21.640   0.477
 7585W        W79114   4.631  27.451  13.588
 7586W        W79115  22.048  43.431  12.898
 7587W        W79116  28.725  22.281  11.951
 7588W        W79117   1.425  22.531   2.213
 7589W        W79118  39.741   8.750   4.129
 7590W        W79119  11.307  35.630  10.534
 7591W        W79120  22.251  14.799   4.259
 7592W        W79121  29.607  31.056  11.434
 7593W        W79122  29.666  35.021   0.824
 7594W        W79123   4.508  38.305   3.366
 7595W        W79124  38.007  35.589  11.549
 7596W        W79125  30.980  14.067  11.450
 7597W        W79126   0.313  42.021  13.110
 7598W        W79127   9.170  38.387   2.660
 7599W        W79128  42.328  36.906   0.362
 7600W        W79129   9.131  35.297   3.736
 7601W        W79130  43.320  19.520   4.624
 7602W        W79131  19.293  42.458  12.979
 7603W        W79132  27.736  39.819   3.578
 7604W        W79133  31.135  39.664  11.655
 7605W        W79134  11.655  22.195  11.961
 7606W        W79135  25.249  22.083  14.924
 7607W        W79136  31.434  13.862   1.759
 7608W        W79137  35.090   0.300  11.668
 7609W        W79138  33.938   3.268  12.907
 7610W        W79139  26.297  14.561   2.721
 7611W        W79140  36.471  15.720   1.280
 7612W        W79141  10.590  22.365   2.074
 7613W        W79142  13.564  30.833  10.979
 7614W        W79143  33.115  39.185   1.464
 7615W        W79144  40.293  43.562   0.411
 7616W        W79145  32.481  15.184  13.074
 7617W        W79146  25.247  22.485   4.006
 7618W        W79147  38.764  42.719  10.246
 7619W        W79148  28.686  14.770  14.265
 7620W        W79149  38.592  22.115   2.280
 7621W        W79150   1.792   0.221   0.074
 7622W        W79151  18.626  39.049   4.132
 7623W        W79152  23.710  31.956  10.551
 7624W        W79153  27.453  11.029  11.633
 7625W        W79154  24.474   3.480   4.885
 7626W        W79155  24.672  35.623  11.755
 7627W        W79156  26.698  11.187   1.044
 7628W        W79157  43.869  33.497  11.025
 7629W        W79158  19.706  12.368  14.046
 7630W        W79159  32.406  30.020   1.008
 7631W        W79160  12.817  26.179  14.458
 7632W        W79161   4.385  21.613  12.434
 7633W        W79162  18.549  16.978  11.466
 7634W        W79163   8.290  30.537   4.560
 7635W        W79164  41.496  34.944  14.797
 7636W        W79165  38.611  24.800   2.224
 7637W        W79166  22.475  36.245   2.866
 7638W        W79167  11.267  16.669  10.920
 7639W        W79168  15.576  19.956   2.804
 7640W        W79169  38.461  11.271   2.789
 7641W        W79170  33.498  30.712  10.726
 7642W        W79171  17.453  32.039  11.244
 7643W        W79172   6.400  40.056   4.141
 7644W        W79173  37.617  39.812   2.647
 7645W        W79174   2.233  30.633   4.801
 7646W        W79175  10.651  35.840   2.356
 7647W        W79176  43.365  41.159   3.073
 7648W        W79177  28.531  36.884  12.970
 7649W        W79178   1.765  25.150  12.004
 7650W        W79179  23.487  19.631   5.030
 7651W        W79180   3.906  24.575  14.379
 7652W        W79181  19.619  24.687   0.330
 7653W        W79182   4.811  14.684   0.438
 7654W        W79183   7.266  11.554  11.020
 7655W        W79184   6.342   3.825   0.499
 7656W        W79185  13.597   7.465  14.831
 7657W        W79186  29.034  29.451  12.997
 7658W        W79187   5.157  27.481  11.917
 7659W        W79188  26.657  29.412   4.218
 7660W        W79189  31.003  39.068   0.073
 7661W        W79190  13.756  21.962   4.508
 7662W        W79191  29.359   2.363  12.749
 7663W        W79192  21.988  21.354  14.222
 7664W        W79193  34.372  12.868   1.631
 7665W        W79194  17.653  10.943  13.793
 7666W        W79195  35.950  40.780   3.251
 7667W        W79196  43.372  38.786  13.874
 7668W        W79197  38.092  43.699   4.359
 7669W        W79198  40.433  28.727  11.529
 7670W        W79199   8.506   3.806   1.673
 7671W        W79200  21.613  29.718  14.484
 7672W        W79201  32.574  34.540  13.756
 7673W        W79202   8.834  42.383   3.638
 7674W        W79203  15.557  13.416   3.587
 7675W        W79204  20.032   6.130  10.782
 7676W        W79205  14.061  40.138   4.654
 7677W        W79206  41.551   0.390   1.233
 7678W        W79207  25.088   8.790  11.034
 7679W        W79208  25.872  30.947   3.851
 7680W        W79209  38.298  34.187   2.553
 7681W        W79210   6.746   9.624  14.507
 7682W        W79211  25.058  17.855  13.448
 7683W        W79212  30.980   9.854   3.897
 7684W        W79213  34.250  43.369  10.587
 7685W        W79214  10.654  42.977   2.669
 7686W        W79215   9.134  12.842   4.223
 7687W        W79216  17.538   3.152  13.561
 7688W        W79217  40.520   1.108  14.573
 7689W        W79218   8.900  16.662   1.413
 7690W        W79219  27.695  25.560   0.391
 7691W        W79220  40.969  33.117  14.807
 7692W        W79221  36.183  14.819  13.816
 7693W        W79222   9.514  32.891   3.937
 7694W        W79223  44.894  44.426   3.206
 7695W        W79224  19.738  30.602   2.714
 7696W        W79225  34.619  26.558  12.534
 7697W        W79226  35.742  33.340  11.196
 7698W        W79227  14.969   7.862  14.515
 7699W        W79228  15.037  25.720  13.804
 7700W        W79229  10.126  12.672   4.721
 7701W        W79230  37.533   9.575   1.463
 7702W        W79231  29.060   4.254  13.790
 7703W        W79232  30.292  13.576  10.744
 7704W        W79233   9.333  43.993   1.689
 7705W        W79234  41.387  10.287   4.820
 7706W        W79235   5.973  10.683  14.023
 7707W        W79236  11.065  19.729  14.311
 7708W        W79237  25.967  39.312   1.860
 7709W        W79238  32.597  29.339  13.725
 7710W        W79239  13.847  32.537  10.654
 7711W        W79240  23.136  16.453  10.519
 7712W        W79241  32.458  24.563  13.791
 7713W        W79242  15.275  29.888   1.659
 7714W        W79243   1.377   4.864   2.357
 7715W        W79244  18.220  24.846   5.038
 7716W        W79245   8.010  34.553  12.875
 7717W        W79246  37.961  11.292  10.687
 7718W        W79247  40.061   4.597  13.411
 7719W        W79248  26.654   9.187  12.477
 7720W        W79249  25.682  18.455   0.845
 7721W        W79250  10.107  11.051   0.722
 7722W        W79251  38.828  41.438   3.654
 7723W        W79252  33.829  39.884   1.144
 7724W        W79253  43.292  35.127   2.791
 7725W        W79254  23.655  11.991   3.342
 7726W        W79255  17.559  33.551  14.405
 7727W        W79256  10.555  22.552  10.064
 7728W        W79257  32.401  44.871  10.543
 7729W        W79258  10.945  21.144   3.125
 7730W        W79259  41.168  24.213   0.048
 7731W        W79260   4.843  35.487  11.876
 7732W        W79261  42.034  18.156   4.061
 7733W        W79262  41.381  38.364  12.625
 7734W        W79263   5.332   8.950   1.872
 7735W        W79264  19.459  41.103  11.935
 7736W        W79265   0.517  11.915  12.077
 7737W        W79266   8.645  13.309  14.065
 7738W        W79267  33.814  34.643   1.303
 7739W        W79268  16.603  30.317  11.935
 7740W        W79269  44.974  29.928   2.320
 7741W        W79270   4.566   0.430   3.588
 7742W        W79271   9.099   8.162  11.199
 7743W        W79272  25.572  36.994   4.714
 7744W        W79273   0.237  31.779   5.101
 7745W        W79274  19.308  42.881  12.035
 7746W        W79275  40.023  34.540  10.795
 7747W        W79276  36.600   4.516   0.792
 7748W        W79277  32.864  13.254   2.712
 7749W        W79278  15.298  28.074  10.450
 7750W        W79279  16.110  34.385  10.590
 7751W        W79280  42.016  10.053  12.848
 7752W        W79281  22.691   0.741  14.701
 7753W        W79282  42.757  17.233  14.336
 7754W        W79283  43.989  42.000   3.536
 7755W        W79284  21.149  21.271  12.280
 7756W        W79285  15.897   3.672   3.053
 7757W        W79286   9.274  37.360  12.903
 7758W        W79287  26.628  10.688  13.431
 7759W        W79288   7.418  28.505  14.546
 7760W        W79289  24.125  14.135   2.871
 7761W        W79290  19.994  31.908   1.399
 7762W        W79291   8.220  17.302  11.520
 7763W        W79292  31.447  37.998  11.112
 7764W        W79293  39.881   9.083   0.781
 7765W        W79294  10.622  17.562   3.922
 7766W        W79295  23.675   7.472  13.793
 7767W        W79296  39.531  35.186   9.875
 7768W        W79297  30.008   1.261  14.526
 7769W        W79298  25.153  43.680   2.672
 7770W        W79299  26.731  38.038  12.938
 7771W        W79300  16.277   6.918   3.574
 7772W        W79301  43.775  30.490   4.328
 7773W        W79302   0.477  10.620   1.282
 7774W        W79303  29.027   3.898  12.377
 7775W        W79304  30.110  44.838   2.256
 7776W        W79305   5.760  41.287  10.793
 7777W        W79306  19.625  36.834  12.557
 7778W        W79307  29.424  16.354  11.598
 7779W        W79308  27.182  17.058  10.613
 7780W        W79309  36.837  36.646  13.923
 7781W        W79310  41.047  10.203   3.473
 7782W        W79311  31.620   6.740   0.386
 7783W        W79312  35.638  38.338   2.269
 7784W        W79313  40.452  19.869   4.189
 7785W        W79314  24.030  24.247   1.415
 7786W        W79315   8.726   8.477  13.520
 7787W        W79316  43.761  11.200  11.908
 7788W        W79317   7.118  36.607   2.899
 7789W        W79318   6.303  36.195  12.066
 7790W        W79319  23.788   5.829   2.233
 7791W        W79320  24.358   0.782   5.147
 7792W        W79321   7.660  30.617   1.337
 7793W        W79322  16.662  11.793   1.335
 7794W        W79323  23.307  41.043  13.446
 7795W        W79324  36.916  18.830   2.014
 7796W        W79325  34.335  33.563  10.916
 7797W        W79326  42.311  41.691   1.479
 7798W        W79327  35.147  32.165  13.554
 7799W        W79328   2.448  25.690   3.618
 7800W        W79329   3.388  15.795   2.476
 7801W        W79330  25.573   3.247   0.800
 7802W        W79331  44.484  30.773  11.141
 7803W        W79332   4.299  13.494  12.137
 7804W        W79333  10.843  11.193  10.721
 7805W        W79334  23.798   1.951  12.465
 7806W        W79335   0.978  27.105  14.003
 7807W        W79336  15.704  30.241   3.737
 7808W        W79337  35.708   9.841   2.368
 7809W        W79338  37.475  13.058  13.910
 7810W        W79339  35.233  10.511   1.991
 7811W        W79340   4.310  27.167   4.701
 7812W        W79341  30.762  19.496  11.453
 7813W        W79342   6.964  18.254   3.824
 7814W        W79343  43.080   1.303  14.888
 7815W        W79344  15.702  29.953   0.373
 7816W        W79345  22.035  36.987   2.228
 7817W        W79346  15.328  23.120   2.134
 7818W        W79347  22.782   0.086   3.691
 7819W        W79348  35.418  30.426   3.655
 7820W        W79349  24.282  25.342  13.991
 7821W        W79350  36.007  12.309  12.118
 7822W        W79351   2.316   3.183  10.545
 7823W        W79352  21.193   8.217   3.514
 7824W        W79353  12.867   4.707   2.837
 7825W        W79354  44.048  39.004  14.805
 7826W        W79355  23.426  29.545  11.541
 7827W        W79356   5.644   3.931   1.343
 7828W        W79357  25.615  29.869   1.340
 7829W        W79358  16.729   8.258   1.530
 7830W        W79359  31.281  37.838   0.698
 7831W        W79360  17.373  27.490   1.715
 7832W        W79361   5.500  27.668  12.787
 7833W        W79362   3.137  37.933  10.677
 7834W        W79363  27.451  30.122  13.470
 7835W        W79364   3.840   4.210   4.550
 7836W        W79365   2.378  10.908   4.610
 7837W        W79366  36.507  10.812  10.372
 7838W        W79367  16.663  42.821   4.589
 7839W        W79368  22.483   5.509   1.119
 7840W        W79369  43.283   4.787   2.274
 7841W        W79370   0.024  38.122  13.799
 7842W        W79371  23.916   1.838  11.052
 7843W        W79372  40.775  33.400  11.499
 7844W        W79373   8.327  37.369  12.112
 7845W        W79374   8.987   4.262   3.722
 7846W        W79375  20.275   6.178  13.349
 7847W        W79376  20.974  20.661   0.835
 7848W        W79377   8.603  20.601   3.897
 7849W        W79378  34.665  14.251  14.493
 7850W        W79379   0.018  22.672  13.574
 7851W        W79380  14.248  42.224  11.092
 7852W        W79381  18.580  20.011   0.855
 7853W        W79382  19.249  40.561   1.319
 7854W        W79383  37.341   7.365  14.793
 7855W        W79384  21.695   4.199   1.891
 7856W        W79385  15.795  21.462  13.708
 7857W        W79386   0.757  38.534   4.749
 7858W        W79387   1.752  18.309  13.368
 7859W        W79388  10.607  10.255   5.115
 7860W        W79389  12.016  40.289  14.031
 7861W        W79390  40.903   1.758   4.591
 7862W        W79391   4.756   5.159  14.910
 7863W        W79392  20.284  13.730  10.751
 7864W        W79393   6.172  35.845   4.844
 7865W        W79394  25.292  35.622  14.444
 7866W        W79395  12.934   1.408   5.072
 7867W        W79396  21.614   8.434   4.287
 7868W        W79397  39.502  42.980  11.452
 7869W        W79398  19.687  39.602   1.539
 7870W        W79399  35.601  40.432  11.768
 7871W        W79400  10.674   2.989  11.550
 7872W        W79401  20.604  17.392   0.779
 7873W        W79402  38.739  11.334   4.697
 7874W        W79403   8.168  35.365   4.183
 7875W        W79404  21.593  10.714   3.839
 7876W        W79405  42.564   9.837   4.517
 7877W        W79406  12.929  18.731   1.747
 7878W        W79407  19.019  18.048  14.880
 7879W        W79408  29.874  37.081  10.695
 7880W        W79409  16.855  26.533   1.280
 7881W        W79410  12.590  22.581   4.507
 7882W        W79411  38.364  40.519   4.102
 7883W        W79412  21.891   4.930  11.073
 7884W        W79413  11.281   8.299  14.913
 7885W        W79414  32.034  38.886  11.402
 7886W        W79415  37.350  16.045   2.761
 7887W        W79416  27.507  13.221  13.453
 7888W        W79417  16.698  44.463  13.906
 7889W        W79418  22.892  39.718   0.389
 7890W        W79419  38.513  23.173   4.001
 7891W        W79420  10.652  40.524  11.168
 7892W        W79421  36.920   7.384   2.817
 7893W        W79422   8.616  20.995   1.802
 7894W        W79423  39.832   3.399  11.688
 7895W        W79424  19.660  26.636   3.328
 7896W        W79425  10.668  39.746  10.701
 7897W        W79426   0.121   0.948  11.498
 7898W        W79427   9.153  13.428  11.959
 7899W        W79428  17.478  23.083   2.245
 7900W        W79429   8.859  36.598  12.841
 7901W        W79430  19.126  28.185  14.778
 7902W        W79431  41.434   2.216   2.433
 7903W        W79432  13.103   8.407   2.334
 7904W        W79433  31.431  17.860  12.304
 7905W        W79434  25.580  15.198  13.670
 7906W        W79435   3.297  13.917  12.716
 7907W        W79436  25.532  24.996   1.169
 7908W        W79437  13.271  26.901  10.711
 7909W        W79438   3.120  32.444  11.118
 7910W        W79439   8.883  39.725   3.274
 7911W        W79440   2.233  31.185   2.736
 7912W        W79441  38.395  23.964  10.881
 7913W        W79442   9.650  17.136   0.423
 7914W        W79443  38.270  34.348  12.572
 7915W        W79444  37.082  22.539  11.471
 7916W        W79445  43.310   8.243  12.537
 7917W        W79446  15.046   8.283  13.960
 7918W        W79447  14.993  23.619  14.947
 7919W        W79448  19.967  31.196  11.816
 7920W        W79449  14.574  21.491   3.179
 7921W        W79450  41.466   1.016   2.627
 7922W        W79451  16.810  23.467   4.284
 7923W        W79452  34.286  27.294   2.367
 7924W        W79453   9.037  34.979  11.325
 7925W        W79454   3.867  31.440  13.073
 7926W        W79455  44.480   2.215  11.507
 7927W        W79456  11.299  27.702   4.668
 7928W        W79457  40.192   0.532   0.381
 7929W        W79458   5.413  42.383  11.643
 7930W        W79459  33.952  38.906   1.663
 7931W        W79460  44.588  36.222   4.826
 7932W        W79461   1.295  10.678  14.472
 7933W        W79462  35.112   6.229  10.672
 7934W        W79463  21.532  10.035  13.818
 7935W        W79464  23.618  21.056  13.026
 7936W        W79465  11.876   2.379   0.484
 7937W        W79466  13.640  40.520  14.993
 7938W        W79467  40.516   0.136  11.111
 7939W        W79468  38.625  10.714  12.517
 7940W        W79469  17.739  11.013  11.683
 7941W        W79470  28.882   6.775  11.959
 7942W        W79471  41.807  21.028   2.246
 7943W        W79472  22.886   8.807  14.511
 7944W        W79473  29.082  42.290   4.905
 7945W        W79474  21.511  39.519   0.890
 7946W        W79475   9.819  20.531   3.270
 7947W        W79476  33.930  20.347  10.727
 7948W        W79477  15.035  41.027   1.241
 7949W        W79478  36.016  33.317   1.850
 7950W        W79479  24.285   1.656  10.069
 7951W        W79480  17.963  20.769  12.542
 7952W        W79481  27.757  28.610  13.067
 7953W        W79482  41.371   0.794   0.899
 7954W        W79483  38.552  12.085  13.120
 7955W        W79484  17.046  42.834   4.934
 7956W        W79485  44.095   8.145   2.887
 7957W        W79486  30.927  36.182   0.996
 7958W        W79487  37.573  41.058  10.970
 7959W        W79488   4.286  27.944   3.718
 7960W        W79489  36.961  13.334   3.369
 7961W        W79490   9.190   4.595  11.157
 7962W        W79491  24.326  41.584  14.817
 7963W        W79492   8.794   8.174  13.099
 7964W        W79493  40.991  32.979  13.875
 7965W        W79494  28.505   1.902  12.303
 7966W        W79495  40.234   5.694  11.273
 7967W        W79496  34.432  42.547   1.285
 7968W        W79497  22.396  21.630   1.443
 7969W        W79498  44.125   3.867  13.217
 7970W        W79499   8.413  14.846   4.782
 7971W        W79500   1.088  27.498  12.512
 7972W        W79501  38.583  11.794   2.724
 7973W        W79502  31.004   1.374  13.533
 7974W        W79503   7.587  41.263   2.881
 7975W        W79504  28.566   3.214  14.442
 7976W        W79505  35.673   9.793  12.891
 7977W        W79506  30.693  32.249  13.520
 7978W        W79507  15.271   1.007  14.381
 7979W        W79508  22.777  20.686  13.492
 7980W        W79509   8.184   4.856   5.029
 7981W        W79510  38.014  14.717  10.627
 7982W        W79511  29.904   7.354  14.347
 7983W        W79512  36.829   8.922  10.536
 7984W        W79513  25.215  13.330  12.955
 7985W        W79514  27.425  20.820  14.833
 7986W        W79515  34.314   3.688  13.553
 7987W        W79516  22.014  41.380   4.285
 7988W        W79517  19.237  21.636   5.639
 7989W        W79518  21.749   4.621  11.888
 7990W        W79519  23.973  16.719   2.344
 7991W        W79520   5.891  16.246   0.735
 7992W        W79521   7.813  26.333   1.928
 7993W        W79522   4.689  12.586  11.317
 7994W        W79523  28.100  19.409   3.330
 7995W        W79524  23.588  42.036   2.754
 7996W        W79525  42.833  41.464   3.572
 7997W        W79526  37.331  39.315  14.857
 7998W        W79527  14.057  30.385   0.308
 7999W        W79528  32.840  33.328   9.878
 8000W        W79529  33.627   2.889   4.744
 8001W        W79530   0.170  34.777   1.620
 8002W        W79531   7.145  10.799  13.398
 8003W        W79532  25.156  25.098   3.348
 8004W        W79533  43.018   1.011   2.261
 8005W        W79534  12.897  14.764  12.465
 8006W        W79535  41.762  13.114  13.040
 8007W        W79536  34.070  25.406  10.750
 8008W        W79537  16.247  31.897  11.660
 8009W        W79538  16.336  10.940  14.541
 8010W        W79539  43.588  29.002  14.980
 8011W        W79540   4.487  34.137  10.418
 8012W        W79541  13.841  21.777  13.046
 8013W        W79542  25.219   4.612   3.511
 8014W        W79543  39.829  38.205  13.512
 8015W        W79544  17.636  30.512   4.668
 8016W        W79545  17.357  13.647   0.892
 8017W        W79546   4.336  13.932   2.372
 8018W        W79547   0.858  26.621  12.458
 8019W        W79548  37.254  27.376  13.098
 8020W        W79549  10.397  27.451  11.286
 8021W        W79550  17.644  29.232  13.877
 8022W        W79551  27.772  18.915  12.958
 8023W        W79552   1.440  41.773  13.347
 8024W        W79553  38.170   9.473   0.858
 8025W        W79554  29.471  15.300   0.308
 8026W        W79555  34.850  40.390  12.927
 8027W        W79556  14.266   8.059  10.319
 8028W        W79557  26.544  34.613   4.125
 8029W        W79558  37.540  29.063   1.199
 8030W        W79559   0.850  21.034  12.289
 8031W        W79560  32.012   6.457  12.382
 8032W        W79561  34.651  26.096   1.952
 8033W        W79562  43.829   9.334  13.513
 8034W        W79563   7.576   2.300  11.376
 8035W        W79564  42.802   8.147  12.446
 8036W        W79565  10.401   1.739   0.873
 8037W        W79566  29.193   4.309  10.665
 8038W        W79567   8.066  10.207   1.958
 8039W        W79568  40.727  40.381   1.926
 8040W        W79569  32.661  42.556  13.047
 8041W        W79570  10.860   4.845   1.263
 8042W        W79571  41.489  35.585  10.671
 8043W        W79572  19.128  30.752  10.280
 8044W        W79573  30.446  37.670  11.702
 8045W        W79574  10.804  36.076  14.367
 8046W        W79575  19.711   2.327   4.824
 8047W        W79576  40.999  41.509   2.170
 8048W        W79577  13.518  23.048  11.406
 8049W        W79578  33.286   1.425   1.690
 8050W        W79579  39.903  36.895  10.563
 8051W        W79580  20.065  12.058  10.292
 8052W        W79581  42.459  26.606   3.944
 8053W        W79582  10.939  16.574   1.359
 8054W        W79583  17.292  30.624  11.699
 8055W        W79584   9.454   6.708  12.918
 8056W        W79585  42.423  41.978   2.902
 8057W        W79586   2.344   5.361  14.564
 8058W        W79587  29.223  41.979  13.216
 8059W        W79588  35.752  11.019  11.083
 8060W        W79589  40.786   9.167  13.935
 8061W        W79590  43.334  17.536   1.385
 8062W        W79591   5.348   2.807  11.000
 8063W        W79592  33.164  36.810   4.778
 8064W        W79593  39.924  17.099  10.661
 8065W        W79594  22.031   5.761  11.633
 8066W        W79595  37.791   6.603   2.398
 8067W        W79596  27.697  38.826  10.713
 8068W        W79597  43.832  10.577   0.525
 8069W        W79598  33.385  32.762   1.413
 8070W        W79599  33.003  40.619   1.473
 8071W        W79600  37.561  21.030  12.487
 8072W        W79601  44.279   0.554  11.903
 8073W        W79602  22.410  32.573   0.686
 8074W        W79603  10.756  14.911   2.587
 8075W        W79604  33.023  24.042  11.498
 8076W        W79605   5.897  32.110   4.721
 8077W        W79606  29.912   0.282   3.176
 8078W        W79607  36.486   8.438  12.353
 8079W        W79608  34.469  27.644   3.564
 8080W        W79609  17.530   4.495   0.459
 8081W        W79610  39.797  35.636  12.020
 8082W        W79611  18.541  29.005  12.221
 8083W        W79612  12.750  39.077  14.018
 8084W        W79613  40.511   1.958  14.266
 8085W        W79614   3.906  31.946   2.803
 8086W        W79615   0.525  28.512   1.764
 8087W        W79616  17.728   6.922  10.466
 8088W        W79617  32.892  19.190  13.723
 8089W        W79618  12.399  12.105   4.529
 8090W        W79619  41.855  30.933   3.816
 8091W        W79620  40.136  22.385  14.060
 8092W        W79621  42.325  15.143  12.512
 8093W        W79622   7.912  19.427  10.282
 8094W        W79623  33.925   5.377   4.743
 8095W        W79624  34.336   8.913  12.424
 8096W        W79625  44.927   0.275  13.411
 8097W        W79626  16.233   0.460   4.135
 8098W        W79627  35.001  28.858  12.975
 8099W        W79628   9.001  23.945  10.724
 8100W        W79629   2.625  39.682   4.994
 8101W        W79630  34.965  44.292  12.012
 8102W        W79631  25.646  42.021   0.715
 8103W        W79632  39.144  10.770  12.632
 8104W        W79633  29.380  21.650   0.991
 8105W        W79634  30.422  23.640   2.639
 8106W        W79635   4.676   7.326   2.186
 8107W        W79636  21.092   1.900  13.099
 8108W        W79637  41.536   6.207  11.800
 8109W        W79638   7.625  10.256  14.460
 8110W        W79639  21.212  26.901  13.449
 8111W        W79640   7.657  35.449   3.332
 8112W        W79641  38.853   1.388   1.279
 8113W        W79642  42.064  16.112   3.907
 8114W        W79643  12.038  21.705  13.772
 8115W        W79644  44.954   0.399   4.131
 8116W        W79645   3.119  18.628  14.532
 8117W        W79646   9.391  23.934   3.192
 8118W        W79647  19.115  24.694  10.575
 8119W        W79648  12.829  22.760  12.586
 8120W        W79649  44.268  30.157  14.441
 8121W        W79650  26.180  44.124   1.333
 8122W        W79651  25.949  34.857  14.465
 8123W        W79652  28.086  28.403   4.187
 8124W        W79653  31.645  22.636   2.787
 8125W        W79654   9.758  40.547   1.160
 8126W        W79655  30.166  34.462   0.063
 8127W        W79656   6.010  43.390   1.622
 8128W        W79657  36.362  26.846   4.204
 8129W        W79658   2.429  40.268  14.464
 8130W        W79659  44.173  33.097  14.173
 8131W        W79660  39.889  17.411  14.522
 8132W        W79661  25.464  10.409  13.487
 8133W        W79662   5.413   4.933  11.217
 8134W        W79663  26.626  28.629   2.617
 8135W        W79664   6.051  42.764   4.959
 8136W        W79665   7.326  28.174   2.723
 8137W        W79666   4.528   7.107  12.564
 8138W        W79667  40.102   5.629  10.662
 8139W        W79668  36.133  35.954  11.181
 8140W        W79669   1.964   6.107  13.573
 8141W        W79670   2.671  32.943   4.515
 8142W        W79671  10.704  40.733  13.850
 8143W        W79672  44.305  25.696  14.395
 8144W        W79673  32.983  16.854  14.402
 8145W        W79674  32.131  29.652  10.775
 8146W        W79675  24.149  22.453   0.898
 8147W        W79676   5.854  42.003  14.911
 8148W        W79677  23.085   0.821   2.109
 8149W        W79678  24.132  38.304   0.153
 8150W        W79679  41.779  17.667  12.051
 8151W        W79680  30.239  18.589   5.023
 8152W        W79681   8.423  19.096   1.626
 8153W        W79682  39.353   3.176   4.203
 8154W        W79683  19.158  44.874  11.495
 8155W        W79684  42.388   0.483   2.693
 8156W        W79685  15.115   1.169   4.333
 8157W        W79686  13.669  31.460  14.488
 8158W        W79687  20.159  12.588  10.364
 8159W        W79688  28.153  25.278   3.128
 8160W        W79689  42.816  42.317   4.104
 8161W        W79690  25.722  14.217  11.305
 8162W        W79691  11.294   1.496   0.289
 8163W        W79692  33.593  20.297  13.463
 8164W        W79693  40.529   2.703  11.144
 8165W        W79694  44.259  25.100  13.079
 8166W        W79695  42.599  11.198   3.242
 8167W        W79696  38.921  31.204  13.957
 8168W        W79697  24.758  29.706   0.436
 8169W        W79698  41.260  10.321   1.836
 8170W        W79699  14.113  17.257   3.567
 8171W        W79700  40.335  17.755  13.646
 8172W        W79701   1.328  17.010   2.446
 8173W        W79702  26.568   0.007   0.922
 8174W        W79703  38.397  26.419   3.256
 8175W        W79704  31.542  10.987  14.775
 8176W        W79705  38.455  19.100  12.529
 8177W        W79706  23.741  36.593   1.247
 8178W        W79707   8.872  34.353  11.992
 8179W        W79708  25.031  12.246  13.736
 8180W        W79709  19.077  18.380   1.242
 8181W        W79710   1.253  38.326  13.744
 8182W        W79711  43.517  17.662  11.642
 8183W        W79712   9.125   2.368  11.895
 8184W        W79713  26.286  26.444   4.546
 8185W        W79714  31.952  32.979   0.082
 8186W        W79715  13.267   2.919   4.192
 8187W        W79716  37.295  31.062   2.813
 8188W        W79717  18.078  37.935   0.402
 8189W        W79718  37.317  34.080  14.337
 8190W        W79719  31.139  37.747  12.912
 8191W        W79720  36.987  10.116  14.809
 8192W        W79721  30.580  20.002   4.536
 8193W        W79722  12.153  33.245   0.692
 8194W        W79723   1.175   7.490   3.712
 8195W        W79724  16.850  18.157   4.595
 8196W        W79725   0.712   1.546   3.445
 8197W        W79726  22.213  44.066   4.145
 8198W        W79727  13.985  11.244  12.178
 8199W        W79728  28.585  29.835   3.990
 8200W        W79729  27.111   0.022  12.423
 8201W        W79730  20.121   2.817   1.451
 8202W        W79731   1.481  40.306  11.397
 8203W        W79732  27.714  17.503  12.048
 8204W        W79733  41.673  31.433   3.884
 8205W        W79734   3.539  43.375   2.229
 8206W        W79735  16.315  41.310  13.928
 8207W        W79736  23.697  18.308   4.230
 8208W        W79737  41.736  29.785  14.899
 8209W        W79738  27.927  15.783   2.165
 8210W        W79739  31.045  43.320   2.013
 8211W        W79740  20.570  41.120   1.269
 8212W        W79741   5.633  40.831  14.272
 8213W        W79742  15.948  24.884  11.814
 8214W        W79743  22.755  27.945  14.865
 8215W        W79744  24.460  24.741  14.874
 8216W        W79745  15.691  33.981  14.708
 8217W        W79746  35.409  22.757   2.138
 8218W        W79747   5.910  41.476   1.396
 8219W        W79748   1.706  20.323  11.960
 8220W        W79749  10.934  32.469   3.692
 8221W        W79750  33.472  17.551   0.492
 8222W        W79751  29.160   7.220  13.947
 8223W        W79752  15.835  17.783  11.120
 8224W        W79753  40.872  31.510  11.948
 8225W        W79754  21.108  42.353   2.407
 8226W        W79755  15.198  14.809  13.056
 8227W        W79756  38.387  42.780   4.645
 8228W        W79757  26.370  36.641   2.689
 8229W        W79758  42.728  37.464  13.908
 8230W        W79759  38.501  37.935  13.432
 8231W        W79760   7.699  13.228   1.824
 8232W        W79761  40.393  12.884   2.332
 8233W        W79762   1.861  28.544   1.414
 8234W        W79763  11.318   0.302  11.553
 8235W        W79764  24.657  35.384   4.134
 8236W        W79765  16.028  37.837   0.720
 8237W        W79766   8.729  11.891   4.299
 8238W        W79767  39.161  20.342  12.570
 8239W        W79768  25.497   7.278   4.890
 8240W        W79769  11.557  20.212  13.555
 8241W        W79770  44.966   2.757   0.995
 8242W        W79771  21.286  38.609   4.571
 8243W        W79772  27.125  18.669   0.880
 8244W        W79773  41.972  34.105  12.008
 8245W        W79774  20.476  44.578  11.557
 8246W        W79775  38.321   3.811  11.548
 8247W        W79776  15.624  17.600   4.427
 8248W        W79777  23.511  25.055  14.783
 8249W        W79778  44.808  16.151   3.776
 8250W        W79779   7.835   1.233   1.414
 8251W        W79780  31.611  18.136  12.886
 8252W        W79781   9.332  11.731  11.267
 8253W        W79782  11.284  23.147   1.847
 8254W        W79783  22.706  34.114  13.585
 8255W        W79784  30.836  32.941   0.314
 8256W        W79785  24.579  27.130  11.903
 8257W        W79786  43.268  28.553  13.447
 8258W        W79787   1.907  11.891   1.534
 8259W        W79788   1.467  43.910   1.736
 8260W        W79789  14.357  17.227  14.413
 8261W        W79790  21.064  18.616   0.805
 8262W        W79791  19.943  24.069   1.637
 8263W        W79792  10.138  37.430  13.032
 8264W        W79793  13.796  35.210   2.259
 8265W        W79794  15.430  28.665   1.835
 8266W        W79795   8.223  18.554  12.248
 8267W        W79796  18.064  16.950   2.327
 8268W        W79797  29.713  32.440  13.533
 8269W        W79798  19.315  16.216   2.596
 8270W        W79799  24.913  38.754   1.278
 8271W        W79800  18.367  27.276   0.401
 8272W        W79801  32.411  13.618  13.749
 8273W        W79802  34.504  41.436  13.105
 8274W        W79803  32.454  24.516  14.309
 8275W        W79804  42.875  38.387   1.428
 8276W        W79805  32.515  16.811  13.530
 8277W        W79806  23.262   2.748   0.454
 8278W        W79807  33.025  10.292   2.692
 8279W        W79808  24.535   9.694  13.985
 8280W        W79809  26.925  28.590  11.053
 8281W        W79810  39.063  24.501  11.985
 8282W        W79811  18.008  39.107  13.622
 8283W        W79812   6.436  33.422  11.111
 8284W        W79813  17.713   8.668   0.907
 8285W        W79814  30.136  10.625  14.427
 8286W        W79815  10.137  18.838   0.083
 8287W        W79816  43.252  43.087  12.623
 8288W        W79817  23.377  27.454  12.376
 8289W        W79818  12.544   2.715  13.777
 8290W        W79819  19.433  38.904   4.479
 8291W        W79820  31.508  15.030  11.141
 8292W        W79821  20.755   2.408   4.200
 8293W        W79822   8.110  23.428   3.190
 8294W        W79823  21.956   2.847   2.838
 8295W        W79824  36.287  14.281  13.474
 8296W        W79825   0.864   7.216   2.321
 8297W        W79826  25.978  18.219  13.013
 8298W        W79827  29.019  14.115  11.906
 8299W        W79828  36.991  40.917  12.473
 8300W        W79829  22.119   2.871   0.876
 8301W        W79830  24.308  42.502  13.432
 8302W        W79831  31.082  17.242   3.068
 8303W        W79832  32.942   1.320  11.636
 8304W        W79833   1.838  15.108   0.681
 8305W        W79834  38.504   0.709   1.775
 8306W        W79835  44.876  23.005   3.256
 8307W        W79836  34.940   6.672  13.879
 8308W        W79837  26.004   8.789  11.134
 8309W        W79838   3.854  12.743  12.059
 8310W        W79839   6.729  36.409  10.934
 8311W        W79840  20.547  24.641  13.960
 8312W        W79841  29.216  10.434   2.177
 8313W        W79842   5.460  35.381  14.798
 8314W        W79843   3.272   9.457  13.714
 8315W        W79844   0.199  17.829   4.171
 8316W        W79845   7.300   9.063  10.715
 8317W        W79846  30.489   3.416  12.944
 8318W        W79847  43.379   5.489   3.274
 8319W        W79848  10.266  15.713  13.282
 8320W        W79849  27.957   8.430  14.968
 8321W        W79850   3.096  36.987   4.342
 8322W        W79851  28.396  22.047  11.654
 8323W        W79852   7.356   6.491   3.744
 8324W        W79853  30.995  26.655  13.246
 8325W        W79854   3.922  36.558  11.528
 8326W        W79855  15.151  32.519  11.070
 8327W        W79856  31.051   9.375  14.696
 8328W        W79857  18.591  33.104  11.957
 8329W        W79858  21.190  25.532  13.848
 8330W        W79859  38.071  34.495  13.985
 8331W        W79860  12.592  13.121   3.345
 8332W        W79861   5.584  31.608   2.258
 8333W        W79862  42.718  44.262   1.855
 8334W        W79863  19.134  42.227  12.464
 8335W        W79864  20.536  13.189   1.722
 8336W        W79865  12.024  25.110   2.306
 8337W        W79866  26.529  31.581   4.636
 8338W        W79867  27.619  15.821  10.924
 8339W        W79868   5.942  38.298   0.015
 8340W        W79869  28.224   7.775  13.987
 8341W        W79870  32.487   6.285   2.561
 8342W        W79871   5.655   3.850  13.264
 8343W        W79872  20.739  20.641   1.723
 8344W        W79873  29.063   5.352  14.282
 8345W        W79874  27.743  33.829  13.931
 8346W        W79875   7.520  42.758   2.632
 8347W        W79876   7.442  17.466  14.952
 8348W        W79877   7.190  37.290   2.278
 8349W        W79878  26.335  18.000   2.551
 8350W        W79879   2.227  43.537  14.493
 8351W        W79880  42.537  22.567   0.265
 8352W        W79881  13.099  27.954  12.145
 8353W        W79882  10.716  21.679   2.761
 8354W        W79883   0.551  32.469  11.183
 8355W        W79884  32.923  36.009   3.712
 8356W        W79885  44.837  42.044  12.914
 8357W        W79886  44.950   3.292   1.192
 8358W        W79887   8.629  16.768  11.025
 8359W        W79888  43.962   1.700   0.547
 8360W        W79889  27.161   9.898   4.570
 8361W        W79890  34.931  25.528   4.607
 8362W        W79891  39.556  38.970   1.923
 8363W        W79892  39.321  30.436  14.878
 8364W        W79893  39.672  11.242   0.650
 8365W        W79894   1.400   7.845   3.395
 8366W        W79895  36.608  12.306  11.264
 8367W        W79896   6.297  25.533   1.166
 8368W        W79897  37.520  16.219  12.070
 8369W        W79898  44.858  18.681   4.176
 8370W        W79899  31.953  21.151   1.458
 8371W        W79900  10.079  13.096   4.186
 8372W        W79901  13.658  29.528   2.266
 8373W        W79902  29.462   4.675   3.559
 8374W        W79903  26.741  19.357  14.371
 8375W        W79904  18.452  44.515   1.818
 8376W        W79905  42.894  36.387   5.058
 8377W        W79906  22.957  30.010   1.693
 8378W        W79907  37.383   8.824   3.083
 8379W        W79908  19.328  22.300   2.778
 8380W        W79909  10.933  30.162  14.862
 8381W        W79910   3.798  40.748  14.970
 8382W        W79911   1.446   9.496  11.062
 8383W        W79912   8.083  11.136   0.535
 8384W        W79913   5.139   2.525  10.594
 8385W        W79914  22.525  41.232  11.592
 8386W        W79915  11.168  25.209   4.843
 8387W        W79916  36.387  28.061  11.244
 8388W        W79917  24.073  39.077  14.751
 8389W        W79918   8.191   6.378  12.928
 8390W        W79919  11.419  34.821   3.236
 8391W        W79920   4.868  19.343   0.925
 8392W        W79921  41.055  43.882  12.547
 8393W        W79922  31.838  14.106  13.278
 8394W        W79923  30.875  32.237   4.176
 8395W        W79924   0.798  19.703  14.150
 8396W        W79925  40.357   6.681  11.115
 8397W        W79926  21.203   4.043   0.029
 8398W        W79927   5.322  26.256  13.000
 8399W        W79928  18.718  15.873  10.087
 8400W        W79929  20.990  23.514   1.344
 8401W        W79930  12.801  42.275   3.309
 8402W        W79931   8.389   4.227   1.958
 8403W        W79932   7.739  24.679   4.098
 8404W        W79933  33.464  35.007   1.814
 8405W        W79934  24.324  38.285   0.754
 8406W        W79935  32.083  36.559   4.983
 8407W        W79936  24.190  19.071  12.955
 8408W        W79937  12.765  14.745   1.900
 8409W        W79938  20.177  40.341   2.003
 8410W        W79939   6.678  10.676  14.452
 8411W        W79940  24.927  35.636  11.305
 8412W        W79941   6.759   2.718   4.535
 8413W        W79942   6.405  16.342   1.339
 8414W        W79943  41.611   8.679   3.169
 8415W        W79944  18.332  28.092   0.980
 8416W        W79945  28.451  24.538  12.340
 8417W        W79946  17.293  40.992  12.614
 8418W        W79947  25.576  28.071  12.079
 8419W        W79948   7.896  16.047  10.678
 8420W        W79949  20.473   9.179  11.901
 8421W        W79950   5.412  15.272  14.386
 8422W        W79951  21.040   1.221  11.696
 8423W        W79952   0.228   5.379  12.408
 8424W        W79953  29.191  32.933   4.134
 8425W        W79954  42.977  39.004   4.619
 8426W        W79955  14.242  19.747  10.238
 8427W        W79956  25.060  17.618   2.326
 8428W        W79957   3.247  13.904  14.973
 8429W        W79958  40.476  30.009   2.413
 8430W        W79959   8.681   8.450  12.105
 8431W        W79960  36.059   8.677  12.517
 8432W        W79961  43.973   6.710  12.557
 8433W        W79962  33.094  35.659  11.655
 8434W        W79963  17.549  31.927   2.418
 8435W        W79964  20.841   1.820   2.676
 8436W        W79965  40.235  14.068  13.529
 8437W        W79966  25.038  15.194   3.850
 8438W        W79967   4.416  12.574   3.674
 8439W        W79968  18.132  30.332  12.058
 8440W        W79969  25.175  29.559   1.363
 8441W        W79970  37.234  21.355   3.134
 8442W        W79971  31.177  40.697   0.718
 8443W        W79972  40.130  30.577   1.507
 8444W        W79973  14.802  40.552   1.765
 8445W        W79974  33.000  42.040  10.870
 8446W        W79975  28.123  43.054  12.488
 8447W        W79976  11.668  43.849  13.813
 8448W        W79977   2.189   0.433  12.713
 8449W        W79978  33.484  39.048  11.493
 8450W        W79979  15.021   1.342  11.673
 8451W        W79980  41.525  29.245   4.598
 8452W        W79981  40.425  25.040   1.521
 8453W        W79982   7.386  24.494   3.257
 8454W        W79983   2.012  42.425   0.029
 8455W        W79984  32.616  44.552   3.677
 8456W        W79985  11.665  33.938   3.904
 8457W        W79986  31.613  13.655  10.407
 8458W        W79987   7.154  31.866  13.558
 8459W        W79988  17.545  25.472  10.955
 8460W        W79989  24.922  30.704   4.684
 8461W        W79990  18.591  22.177  12.905
 8462W        W79991  36.345   0.233   3.451
 8463W        W79992  15.846  30.006   3.078
 8464W        W79993  13.703  18.972  11.686
 8465W        W79994   0.421  15.206  12.424
 8466W        W79995   2.417  22.228   2.243
 8467W        W79996  33.954  21.099  13.266
 8468W        W79997   0.963  37.295   0.408
 8469W        W79998   1.222  43.396  12.498
 8470W        W79999  33.190   3.850  13.121
 8471W        W80000  18.992  15.609   2.435
 8472W        W80001   5.729   5.250   2.700
 8473W        W80002  32.673  31.524  11.129
 8474W        W80003  13.760  23.676   2.598
 8475W        W80004  25.047  32.838  11.560
 8476W        W80005  26.223  31.682   1.974
 8477W        W80006   1.664  32.157   4.164
 8478W        W80007  18.540  24.507  13.591
 8479W        W80008  33.399  39.916   0.867
 8480W        W80009  23.989  39.860   0.320
 8481W        W80010  10.671   5.695   2.820
 8482W        W80011  24.107  13.294  12.424
 8483W        W80012  23.990  39.133  13.847
 8484W        W80013   6.395  30.236   1.643
 8485W        W80014  39.193  19.286   3.072
 8486W        W80015  20.300   1.896  11.554
 8487W        W80016  11.866  39.033   1.653
 8488W        W80017  19.529   3.162  13.940
 8489W        W80018  13.871  44.006   0.896
 8490W        W80019  34.807  10.420   0.867
 8491W        W80020  41.355  10.496  11.229
 8492W        W80021  27.683  10.936   3.737
 8493W        W80022  31.023  17.730   3.184
 8494W        W80023  37.914  32.492   1.807
 8495W        W80024   3.207  26.081  12.019
 8496W        W80025  38.373  39.364  14.859
 8497W        W80026   9.945  30.451   2.584
 8498W        W80027  18.717   5.705  12.172
 8499W        W80028  27.701  19.862  11.140
 8500W        W80029  19.260   7.416  13.880
 8501W        W80030  32.506  14.570  10.565
 8502W        W80031   1.464  24.013  12.008
 8503W        W80032  20.489  20.272   1.403
 8504W        W80033  27.594  34.507   2.165
 8505W        W80034  14.795   4.523  14.799
 8506W        W80035  42.441  14.277   4.606
 8507W        W80036  22.456  30.439  12.416
 8508W        W80037  43.539  16.635   1.083
 8509W        W80038  43.193  31.969  14.339
 8510W        W80039  18.329  17.354  14.232
 8511W        W80040   5.320  23.384  13.444
 8512W        W80041  16.153  36.235   1.740
 8513W        W80042   6.341  30.672   1.924
 8514W        W80043  24.601  41.025  12.469
 8515W        W80044  39.807  16.269  11.645
 8516W        W80045  27.592  29.726  11.145
 8517W        W80046  30.463  20.137  11.572
 8518W        W80047  36.602  10.238   4.709
 8519W        W80048  29.501   5.338  10.560
 8520W        W80049  43.870  13.697   2.708
 8521W        W80050  32.147  35.520  14.019
 8522W        W80051   4.060   7.340   4.312
 8523W        W80052  36.503  21.598   0.968
 8524W        W80053   4.010  30.521   2.799
 8525W        W80054  29.135   2.013   4.713
 8526W        W80055  28.221  24.196   3.965
 8527W        W80056   2.862  31.936  13.033
 8528W        W80057  42.780  28.208   1.431
 8529W        W80058  32.051   3.888   3.597
 8530W        W80059   7.991  39.041   5.344
 8531W        W80060  31.593   8.150   1.149
 8532W        W80061   2.304  30.426   4.307
 8533W        W80062  22.720  33.972   1.495
 8534W        W80063  14.010  38.829  13.447
 8535W        W80064  27.452  24.294  14.782
 8536W        W80065  18.182  44.199   4.122
 8537W        W80066  13.792  44.587  11.287
 8538W        W80067  31.198  20.583  10.766
 8539W        W80068  31.500   8.309   2.586
 8540W        W80069  35.199  44.719  14.343
 8541W        W80070  17.179  34.481  14.027
 8542W        W80071  23.600  22.779   4.607
 8543W        W80072  40.207  13.179  13.090
 8544W        W80073  31.508  31.934   2.165
 8545W        W80074  31.811  35.359   0.451
 8546W        W80075   1.015  31.131   4.366
 8547W        W80076  26.107  16.388   1.679
 8548W        W80077  34.024   8.303   1.390
 8549W        W80078  41.740  33.522   0.078
 8550W        W80079  28.034  30.377  13.270
 8551W        W80080  19.155  34.981  14.139
 8552W        W80081   8.810  36.906   4.207
 8553W        W80082   5.163  36.454   4.042
 8554W        W80083  20.606  40.767  12.967
 8555W        W80084  19.577   4.841   0.005
 8556W        W80085  19.752  36.399   4.624
 8557W        W80086   6.558   9.824   2.124
 8558W        W80087  30.592  12.462   4.930
 8559W        W80088  28.652  28.024  14.892
 8560W        W80089  35.931  15.704   9.963
 8561W        W80090   9.309  41.744   1.795
 8562W        W80091  17.719  19.441  12.310
 8563W        W80092   0.964  17.163   3.375
 8564W        W80093   5.395  27.124  12.479
 8565W        W80094   0.651  32.051   4.088
 8566W        W80095  43.115   5.814   0.583
 8567W        W80096  37.049  44.456   2.926
 8568W        W80097   4.377   0.391   2.738
 8569W        W80098  18.258  25.125  12.503
 8570W        W80099  38.575   7.965   4.090
 8571W        W80100  26.657  32.670  12.020
 8572W        W80101  16.489   8.676   3.189
 8573W        W80102  34.645  13.841   1.825
 8574W        W80103   8.723  44.936  11.628
 8575W        W80104   8.704  10.619   1.775
 8576W        W80105  41.828   0.548   0.798
 8577W        W80106  32.712   5.119  13.989
 8578W        W80107  25.625  31.976  11.497
 8579W        W80108  19.475  20.336   1.910
 8580W        W80109  21.072  27.260  11.422
 8581W        W80110  27.949  22.044  14.469
 8582W        W80111   0.771   1.253  13.952
 8583W        W80112  35.232  34.363  11.230
 8584W        W80113  37.304   1.101  13.459
 8585W        W80114  18.819  19.021  13.379
 8586W        W80115  39.428  27.080   4.066
 8587W        W80116  34.920  20.590   4.512
 8588W        W80117  38.716  33.759  11.687
 8589W        W80118  23.697  39.864  11.194
 8590W        W80119  34.128  25.764  11.644
 8591W        W80120  13.233  41.545  14.242
 8592W        W80121  23.816  16.285  12.078
 8593W        W80122  34.912  43.074   3.669
 8594W        W80123  26.026  23.696  11.584
 8595W        W80124  39.379  34.036   0.427
 8596W        W80125   7.825   2.978   3.220
 8597W        W80126  21.828  35.942   1.763
 8598W        W80127   1.972  41.339   3.698
 8599W        W80128   5.910  14.219  13.659
 8600W        W80129  37.421  39.374  13.085
 8601W        W80130  16.159  23.731  13.151
 8602W        W80131  35.844   6.822   1.897
 8603W        W80132  40.768  16.245   1.441
 8604W        W80133  38.003   7.586   3.117
 8605W        W80134  21.292  14.685   2.329
 8606W        W80135  37.595  20.855  11.490
 8607W        W80136  39.064  20.220  13.418
 8608W        W80137  29.660   1.989  11.595
 8609W        W80138  35.583  26.385   4.623
 8610W        W80139  20.569   9.206  13.218
 8611W        W80140  20.287  19.213  14.503
 8612W        W80141  28.357  32.524   0.471
 8613W        W80142  39.855  39.050  14.882
 8614W        W80143  16.439  24.878   0.941
 8615W        W80144  15.206  19.916  10.038
 8616W        W80145  29.418  27.770   3.261
 8617W        W80146  10.723   2.296  11.007
 8618W        W80147  38.454  26.945  13.820
 8619W        W80148   7.726  35.560  12.190
 8620W        W80149  36.613  15.100   3.772
 8621W        W80150   7.951  41.304  14.778
 8622W        W80151  39.358  39.319   2.407
 8623W        W80152  16.720  42.151   1.204
 8624W        W80153  42.053  18.046  12.656
 8625W        W80154  18.487  17.990   2.334
 8626W        W80155  36.770   5.859   4.995
 8627W        W80156  40.049  41.262  13.567
 8628W        W80157   9.265  25.195  10.470
 8629W        W80158  21.507  28.462   1.773
 8630W        W80159   1.638  42.528  11.985
 8631W        W80160  22.009   0.528   1.442
 8632W        W80161   4.285  40.865  13.864
 8633W        W80162  24.262  20.523   2.818
 8634W        W80163  35.378  10.667  10.997
 8635W        W80164  31.625  16.258   2.872
 8636W        W80165  35.167  32.934  14.832
 8637W        W80166  32.851  39.005   0.017
 8638W        W80167  31.455   9.935   3.638
 8639W        W80168  33.929  43.976   1.863
 8640W        W80169  31.841  34.402  10.828
 8641W        W80170   3.219  29.542  11.731
 8642W        W80171  41.291   7.982  11.986
 8643W        W80172  34.048   8.181  10.645
 8644W        W80173  27.988  42.854  14.773
 8645W        W80174  22.084   7.706   3.872
 8646W        W80175  23.840   6.380  13.106
 8647W        W80176   2.899   2.901  10.660
 8648W        W80177  26.218  20.692  13.442
 8649W        W80178   3.162  39.168   0.849
 8650W        W80179   2.713  10.230  12.103
 8651W        W80180  44.843  37.762  14.328
 8652W        W80181  34.533  25.048  14.799
 8653W        W80182  23.594  35.234  12.537
 8654W        W80183  40.939  43.036   0.050
 8655W        W80184   6.360   0.740   1.966
 8656W        W80185  25.186   0.494  10.779
 8657W        W80186  12.891  29.667  13.375
 8658W        W80187  23.152  15.295  14.107
 8659W        W80188  21.999  20.578  13.951
 8660W        W80189  31.629  30.749   4.449
 8661W        W80190  11.073  34.907  12.546
 8662W        W80191  13.838  15.647  13.433
 8663W        W80192   0.442  29.119   2.055
 8664W        W80193  19.839  19.329  12.529
 8665W        W80194  18.134  12.866  12.558
 8666W        W80195  19.175  17.536   1.622
 8667W        W80196   4.208  42.560  12.440
 8668W        W80197  40.495  21.463  11.143
 8669W        W80198  17.303   3.249   4.997
 8670W        W80199  10.267  22.187   0.860
 8671W        W80200  43.738   4.321  10.652
 8672W        W80201  30.929  19.555  10.602
 8673W        W80202  18.495   4.467  11.393
 8674W        W80203  15.719  32.040   5.127
 8675W        W80204  44.866  27.026   2.377
 8676W        W80205  10.179  17.820  12.310
 8677W        W80206  30.573  38.987  14.809
 8678W        W80207   4.620  19.510  11.157
 8679W        W80208   9.125  16.478  11.537
 8680W        W80209   8.467  34.976  10.755
 8681W        W80210   0.423  11.314   2.733
 8682W        W80211  26.011  41.873   4.441
 8683W        W80212  44.384   2.463  11.955
 8684W        W80213  42.004  24.175   4.032
 8685W        W80214  35.052   6.767   2.886
 8686W        W80215  32.415   7.255   2.623
 8687W        W80216  11.807  27.434  12.895
 8688W        W80217   7.469  14.346   3.177
 8689W        W80218  19.021  20.573   2.807
 8690W        W80219  14.319  36.841  10.691
 8691W        W80220  15.594  29.865  13.517
 8692W        W80221  40.468   1.647   4.295
 8693W        W80222  34.602  31.023   4.517
 8694W        W80223   3.493  34.138   1.195
 8695W        W80224  20.261  15.181   2.831
 8696W        W80225  18.093  36.857  14.389
 8697W        W80226   1.915  17.412   0.998
 8698W        W80227  19.489   1.350   3.916
 8699W        W80228  24.033  44.753  11.003
 8700W        W80229  39.062  43.805  12.427
 8701W        W80230  12.343  43.713  12.541
 8702W        W80231  14.313  15.702   2.086
 8703W        W80232   5.282   4.942   4.285
 8704W        W80233  20.070   4.609   1.230
 8705W        W80234   9.602  17.210  12.503
 8706W        W80235  39.615  41.881  12.995
 8707W        W80236  33.826  22.523   1.785
 8708W        W80237  40.959  13.076  12.189
 8709W        W80238  42.580  25.471  12.558
 8710W        W80239  37.071  30.453   2.272
 8711W        W80240  12.238   4.998   0.894
 8712W        W80241  17.571   3.765  14.840
 8713W        W80242  39.507  14.517   3.329
 8714W        W80243  38.726  20.125   2.318
 8715W        W80244   3.440   0.541  13.833
 8716W        W80245  11.282   1.959   4.600
 8717W        W80246   3.832  44.703   0.878
 8718W        W80247  12.770  18.828   2.217
 8719W        W80248  38.097  11.334  12.890
 8720W        W80249  21.260  14.090   4.787
 8721W        W80250  32.183   0.842   1.896
 8722W        W80251  37.416  18.671  13.153
 8723W        W80252   4.201   6.353   4.681
 8724W        W80253  14.905  28.393   1.672
 8725W        W80254  19.598  23.241  12.030
 8726W        W80255   8.672  35.430   3.996
 8727W        W80256  19.581  43.843   1.975
 8728W        W80257  36.014  35.946   2.735
 8729W        W80258  12.193   0.313   0.048
 8730W        W80259   2.416  14.082   4.069
 8731W        W80260  37.083  22.716  12.019
 8732W        W80261  20.642  43.614  13.973
 8733W        W80262   0.986  12.284   3.132
 8734W        W80263  36.944  18.466  10.686
 8735W        W80264  18.714  22.266  14.779
 8736W        W80265  14.419  13.762   3.544
 8737W        W80266  29.650   2.017   1.613
 8738W        W80267  22.095   2.335  13.747
 8739W        W80268  18.383  44.987   2.024
 8740W        W80269  37.067  30.168   0.831
 8741W        W80270   9.900  12.629   0.037
 8742W        W80271   4.834   3.447  11.968
 8743W        W80272  10.318  22.574   1.688
 8744W        W80273  16.874   7.192  11.619
 8745W        W80274   9.328  28.537  14.644
 8746W        W80275  10.487  10.037  10.997
 8747W        W80276  14.476  41.967  14.776
 8748W        W80277  16.779   1.438   1.971
 8749W        W80278  25.332   4.206   3.878
 8750W        W80279  26.532  40.393   1.811
 8751W        W80280  44.313  27.765   4.275
 8752W        W80281  39.536   3.009   3.734
 8753W        W80282   8.237  22.300   0.079
 8754W        W80283  38.870  19.724  13.293
 8755W        W80284  18.904  42.988  13.592
 8756W        W80285   4.962  23.662  10.647
 8757W        W80286  12.132  34.098   0.996
 8758W        W80287  36.076  28.994   4.585
 8759W        W80288   3.498   0.910   1.656
 8760W        W80289   1.434   2.882  14.748
 8761W        W80290  26.511  23.074  12.050
 8762W        W80291  27.120  29.868   1.876
 8763W        W80292  31.592  11.035   2.157
 8764W        W80293  28.075  43.220  10.365
 8765W        W80294  37.595  26.387   3.695
 8766W        W80295   5.182   6.281  12.999
 8767W        W80296   5.459  34.968   4.180
 8768W        W80297   9.875  40.314  14.850
 8769W        W80298   8.820  35.782  13.131
 8770W        W80299  31.997   6.971  12.466
 8771W        W80300   8.417   8.873  13.941
 8772W        W80301  43.441  39.510   0.371
 8773W        W80302  39.420  44.251   3.720
 8774W        W80303  13.294  10.246   3.639
 8775W        W80304  37.387  28.600  10.684
 8776W        W80305  13.750   4.288  13.887
 8777W        W80306  41.853  29.625  14.424
 8778W        W80307   4.995  33.109   0.849
 8779W        W80308  21.049  31.613  12.396
 8780W        W80309  42.919   7.745   1.414
 8781W        W80310  27.725  40.842  14.817
 8782W        W80311  44.999  11.029   2.681
 8783W        W80312   0.553  13.595  13.099
 8784W        W80313  21.643  15.344  13.598
 8785W        W80314  12.225  21.757   1.143
 8786W        W80315  43.967   8.439   3.722
 8787W        W80316  25.177  29.986   1.677
 8788W        W80317  42.803  12.597  13.024
 8789W        W80318  33.570  32.734  10.996
 8790W        W80319   7.119  43.721   1.937
 8791W        W80320  43.954  17.716   3.324
 8792W        W80321  25.413  13.339  14.785
 8793W        W80322  25.032  42.489  12.967
 8794W        W80323  41.685  21.891   4.062
 8795W        W80324  20.609  27.765   9.839
 8796W        W80325   7.654  21.031   1.897
 8797W        W80326  14.555  20.151  10.235
 8798W        W80327  37.282   5.606   0.252
 8799W        W80328   1.811  21.419   2.257
 8800W        W80329  19.437  24.961  13.525
 8801W        W80330  17.079  30.412  12.107
 8802W        W80331   6.068  15.371   1.659
 8803W        W80332  44.004  33.627  13.119
 8804W        W80333  38.588   1.302  14.800
 8805W        W80334  41.023  25.762   1.325
 8806W        W80335  16.825  27.730   3.144
 8807W        W80336  21.769  39.589   1.820
 8808W        W80337   1.896  40.277  13.526
 8809W        W80338  18.729  17.690   3.664
 8810W        W80339  21.129  28.067  10.733
 8811W        W80340  20.979  22.269  14.027
 8812W        W80341  38.514  14.074   4.106
 8813W        W80342  36.500  44.410  14.204
 8814W        W80343  22.446  38.215   4.224
 8815W        W80344  40.318  16.030   4.812
 8816W        W80345  15.187  39.244  11.436
 8817W        W80346   9.086  13.657  13.511
 8818W        W80347  17.093  17.911  11.799
 8819W        W80348  13.321  25.121   0.456
 8820W        W80349  42.344  21.673  14.984
 8821W        W80350  41.871   9.474  12.759
 8822W        W80351  27.449  32.841  11.591
 8823W        W80352  39.184  31.432  12.508
 8824W        W80353   6.729   1.179  14.059
 8825W        W80354  12.244  12.333  14.737
 8826W        W80355   8.926  41.585   1.471
 8827W        W80356  39.285  10.248  14.816
 8828W        W80357  16.196  17.268   4.251
 8829W        W80358  13.165  15.762  14.453
 8830W        W80359  21.464  26.585   1.862
 8831W        W80360   4.705  10.480   1.522
 8832W        W80361  35.338  13.650  10.591
 8833W        W80362   0.891  19.948  10.972
 8834W        W80363  19.803  13.530  13.374
 8835W        W80364  35.528  43.485   1.787
 8836W        W80365  23.446  43.509   1.229
 8837W        W80366  24.634  35.609   4.612
 8838W        W80367   5.657  23.539   4.306
 8839W        W80368  36.332  15.066   4.198
 8840W        W80369   6.962  28.403  14.338
 8841W        W80370  10.651   5.172  11.123
 8842W        W80371  42.938  38.054   1.857
 8843W        W80372  31.686   1.201  11.124
 8844W        W80373  31.069  25.817  11.151
 8845W        W80374  10.855  26.685  12.011
 8846W        W80375  33.562  24.604   1.817
 8847W        W80376  41.560   5.675   4.250
 8848W        W80377  38.533  41.515  11.433
 8849W        W80378  29.141  20.199  13.789
 8850W        W80379   3.759  34.409   0.821
 8851W        W80380   1.316  19.367   4.089
 8852W        W80381  22.272  30.931  12.563
 8853W        W80382  37.572   9.721  11.061
 8854W        W80383   4.917   2.009  14.804
 8855W        W80384   2.097  25.041  13.057
 8856W        W80385  11.161  30.448  10.741
 8857W        W80386  37.420  33.380   1.706
 8858W        W80387   0.089  26.509   2.281
 8859W        W80388  33.615   9.715   0.815
 8860W        W80389   7.785  27.741   1.649
 8861W        W80390  17.309  11.287  12.854
 8862W        W80391  36.903  31.436   1.274
 8863W        W80392   7.362  10.600  12.964
 8864W        W80393  13.090   1.502   4.048
 8865W        W80394   8.839   6.414  13.493
 8866W        W80395  28.679   2.208   1.611
 8867W        W80396  37.887  18.264   2.903
 8868W        W80397  36.574  40.990  14.846
 8869W        W80398  19.126  19.093  11.995
 8870W        W80399  25.659  12.138   4.588
 8871W        W80400  26.530  34.828   3.162
 8872W        W80401  30.089  35.330   0.859
 8873W        W80402  16.695  18.737  12.096
 8874W        W80403  17.705  16.003   2.411
 8875W        W80404  29.959  37.490   1.874
 8876W        W80405   5.980   4.896   1.196
 8877W        W80406  38.562  14.843   4.772
 8878W        W80407  37.125  12.856   3.253
 8879W        W80408  20.149  18.677  13.306
 8880W        W80409  21.512  27.892  11.033
 8881W        W80410  32.427   3.660  14.323
 8882W        W80411   7.765  18.546   3.306
 8883W        W80412  16.172  38.910  14.475
 8884W        W80413  22.462  42.323   4.465
 8885W        W80414  30.646   8.310   2.747
 8886W        W80415  10.405   0.150  14.170
 8887W        W80416  14.273  17.276  12.403
 8888W        W80417  17.684  10.115   4.075
 8889W        W80418   5.648  34.123   1.748
 8890W        W80419   5.671  35.935  11.719
 8891W        W80420  22.293  16.637   3.655
 8892W        W80421  43.195  17.592   0.438
 8893W        W80422   3.332  38.224  14.524
 8894W        W80423  36.723   8.717  14.423
 8895W        W80424  31.998  32.941   4.592
 8896W        W80425  32.017   7.238  12.919
 8897W        W80426  30.076  16.603   3.228
 8898W        W80427  14.063  21.671   1.799
 8899W        W80428  22.188  42.429   3.223
 8900W        W80429  19.046  40.661  12.732
 8901W        W80430  29.409  10.788  13.813
 8902W        W80431   2.095   6.783  11.813
 8903W        W80432  14.712  35.682  14.367
 8904W        W80433  32.897  22.375   0.826
 8905W        W80434  44.261  33.577   0.397
 8906W        W80435  43.172   3.581   4.607
 8907W        W80436   1.755  10.738  11.871
 8908W        W80437  29.539  17.838   2.331
 8909W        W80438  23.517  10.032  11.704
 8910W        W80439  38.308  34.833   4.889
 8911W        W80440   8.374   5.331   4.969
 8912W        W80441  18.711  43.724   0.539
 8913W        W80442  35.346  26.948   0.340
 8914W        W80443  23.548   2.890  14.318
 8915W        W80444  25.424   7.540   3.208
 8916W        W80445  10.521  11.009  11.119
 8917W        W80446  13.146  31.377   2.378
 8918W        W80447   6.392  40.595   0.234
 8919W        W80448  41.525  39.334  12.594
 8920W        W80449  26.134  16.195   2.175
 8921W        W80450  20.050  40.265   2.485
 8922W        W80451   2.116  10.635   2.204
 8923W        W80452  27.004  15.927   2.229
 8924W        W80453   3.402  36.056  14.067
 8925W        W80454  21.498  40.054   3.625
 8926W        W80455   8.670   2.186  12.063
 8927W        W80456  31.863  15.079   3.157
 8928W        W80457  20.715  43.730  11.893
 8929W        W80458   9.420   1.433  10.568
 8930W        W80459  23.611  20.110  12.807
 8931W        W80460   6.730  38.499   0.418
 8932W        W80461  28.461  36.360  14.716
 8933W        W80462  16.821  34.420  12.411
 8934W        W80463  28.434   6.912  14.436
 8935W        W80464  42.838  40.580   4.085
 8936W        W80465  25.006  34.925  12.555
 8937W        W80466  13.312  13.354   2.707
 8938W        W80467  14.582  29.602  10.609
 8939W        W80468  14.619   0.256   0.351
 8940W        W80469   1.108   2.758  11.747
 8941W        W80470   8.639  33.864   3.637
 8942W        W80471   1.006  12.696  10.652
 8943W        W80472  13.185  31.541   1.030
 8944W        W80473  42.223  32.407  14.184
 8945W        W80474  18.622  31.858  12.129
 8946W        W80475  21.337   7.137  13.869
 8947W        W80476   2.273  12.791  12.700
 8948W        W80477  43.350  42.933   2.654
 8949W        W80478  16.737  39.135  14.296
 8950W        W80479   7.885  26.057  13.505
 8951W        W80480  26.443  30.369  14.311
 8952W        W80481  11.551  35.874  13.452
 8953W        W80482  17.837  38.725  11.401
 8954W        W80483  11.058  44.704   1.357
 8955W        W80484  13.764  34.532  14.735
 8956W        W80485  19.631  29.542  13.259
 8957W        W80486   8.871  22.509   4.156
 8958W        W80487  32.604   0.489  10.196
 8959W        W80488  18.585  40.576   3.346
 8960W        W80489  14.592  39.016   0.246
 8961W        W80490   5.332   1.456   1.939
 8962W        W80491  40.274  36.649  11.126
 8963W        W80492  37.823  22.781  12.575
 8964W        W80493  21.196  41.441  14.566
 8965W        W80494  17.228   9.864  10.563
 8966W        W80495  40.512  24.280  14.949
 8967W        W80496  27.765  21.674   4.365
 8968W        W80497  42.988  15.260  11.165
 8969W        W80498  36.160  43.974   2.667
 8970W        W80499  24.313  30.537   1.739
 8971W        W80500  13.130   6.362   2.237
 8972W        W80501   0.458  23.272   1.269
 8973W        W80502  18.081  19.589  14.123
 8974W        W80503   0.907  25.674  10.401
 8975W        W80504   4.392  38.061   2.560
 8976W        W80505  21.225  26.204  11.210
 8977W        W80506   6.432  39.136  10.883
 8978W        W80507  30.150  17.610  11.173
 8979W        W80508  44.365  41.662   4.963
 8980W        W80509  44.302  36.952   0.866
 8981W        W80510  35.599  12.991  13.444
 8982W        W80511  33.502  17.528   3.271
 8983W        W80512  43.115  19.736  10.778
 8984W        W80513  42.758   4.518   4.548
 8985W        W80514  42.797  11.123  12.388
 8986W        W80515  42.908  29.630  12.441
 8987W        W80516  27.509  38.151   1.715
 8988W        W80517  42.876  42.084   0.817
 8989W        W80518  27.618  28.650  14.393
 8990W        W80519  40.140  42.988   4.354
 8991W        W80520  23.117  14.093  13.044
 8992W        W80521   2.305  33.413  12.582
 8993W        W80522  28.987  17.873  14.968
 8994W        W80523  16.224  33.072   1.695
 8995W        W80524   4.211  32.916  14.497
 8996W        W80525   2.974  41.473   1.563
 8997W        W80526   2.473  13.838   3.584
 8998W        W80527   4.154  44.166  13.182
 8999W        W80528  34.945   8.840  10.712
 9000W        W80529   8.358  16.640  14.788
 9001W        W80530  22.250  43.806   3.698
 9002W        W80531  29.032   7.474  11.611
 9003W        W80532   5.248  15.772  14.356
 9004W        W80533  41.340  31.392  13.096
 9005W        W80534  32.969  16.073  13.483
 9006W        W80535  22.660  43.752   1.956
 9007W        W80536   0.898   0.748  14.830
 9008W        W80537  42.015  31.418  11.170
 9009W        W80538   3.859   8.810   5.022
 9010W        W80539   8.925  14.562   2.541
 9011W        W80540  41.366  26.919  13.017
 9012W        W80541  34.143   4.303  10.315
 9013W        W80542   9.930   4.552  13.846
 9014W        W80543  37.897  41.892  14.370
 9015W        W80544  39.982  26.429  14.201
 9016W        W80545  38.509  41.336   3.219
 9017W        W80546  18.003  42.869   4.393
 9018W        W80547  10.845  40.607   4.628
 9019W        W80548  14.176  16.565   1.676
 9020W        W80549  17.839  10.391   4.496
 9021W        W80550  12.359  35.413   0.326
 9022W        W80551   9.130  39.565   0.882
 9023W        W80552  29.430  32.453  11.577
 9024W        W80553  40.551  11.780  13.325
 9025W        W80554  41.861  19.727  14.382
 9026W        W80555  38.333  43.016  10.282
 9027W        W80556   5.268  21.265   5.170
 9028W        W80557  21.082  20.492  11.898
 9029W        W80558  16.658  36.054   2.709
 9030W        W80559  35.550  27.086  10.631
 9031W        W80560  34.307  25.735  13.522
 9032W        W80561   6.635  32.888  14.347
 9033W        W80562   4.702  14.661   2.549
 9034W        W80563  12.916   5.635  10.341
 9035W        W80564  31.585  39.013  10.691
 9036W        W80565  26.778  12.258  14.792
 9037W        W80566  14.395  34.922   1.916
 9038W        W80567  22.989   0.828   3.320
 9039W        W80568  17.735  29.995  12.323
 9040W        W80569   6.957   9.698  12.161
 9041W        W80570  26.577  10.759   1.984
 9042W        W80571  22.011  19.850   4.796
 9043W        W80572   7.497  42.307  14.005
 9044W        W80573   8.708  29.479   1.583
 9045W        W80574  22.157  44.315   3.392
 9046W        W80575  32.655   9.419  10.694
 9047W        W80576  20.312  35.965   1.834
 9048W        W80577  36.459  39.776  14.756
 9049W        W80578  16.508   6.134   3.625
 9050W        W80579  14.757  20.187   0.739
 9051W        W80580   8.722  22.372  11.478
 9052W        W80581   0.925   9.995  10.250
 9053W        W80582  28.231   6.268  10.096
 9054W        W80583  26.037  32.454   2.786
 9055W        W80584  14.683   4.373  10.393
 9056W        W80585  15.820  24.197   0.274
 9057W        W80586  13.704  16.568  10.681
 9058W        W80587  40.842  30.248  13.482
 9059W        W80588  10.711  24.563   3.634
 9060W        W80589  38.889  20.666  10.236
 9061W        W80590  29.223   1.518  10.914
 9062W        W80591  23.266   8.263  11.539
 9063W        W80592  23.691  35.417   3.874
 9064W        W80593  20.967   1.880   1.590
 9065W        W80594  41.056  43.073  11.068
 9066W        W80595  42.056  14.917  14.287
 9067W        W80596  33.931  39.762   2.258
 9068W        W80597  10.559  23.018   3.421
 9069W        W80598  36.392  16.653   4.856
 9070W        W80599  31.246  37.980  14.362
 9071W        W80600   1.352  36.015  13.857
 9072W        W80601  30.761  19.191  11.863
 9073W        W80602  18.610  18.276   2.798
 9074W        W80603   7.684  11.109   3.804
 9075W        W80604   6.602  31.614   0.374
 9076W        W80605   8.106   8.554   3.141
 9077W        W80606  39.573  34.473   2.292
 9078W        W80607  15.823  10.841  10.501
 9079W        W80608  10.433  33.145   4.181
 9080W        W80609  35.785  12.193  14.000
 9081W        W80610  10.490  37.497   0.829
 9082W        W80611  14.292   3.784   4.215
 9083W        W80612  31.193  30.098  13.611
 9084W        W80613  30.961   5.257  14.041
 9085W        W80614  26.129  25.930  14.731
 9086W        W80615  28.489   6.791   1.452
 9087W        W80616  36.380  40.247   2.784
 9088W        W80617  41.503  16.513  14.635
 9089W        W80618  16.807  43.230  12.411
 9090W        W80619  17.674  40.775   1.868
 9091W        W80620   2.798   2.066   1.827
 9092W        W80621  16.687   7.593  10.385
 9093W        W80622  27.560  33.169  11.213
 9094W        W80623  29.509  22.945  14.323
 9095W        W80624   3.831  27.669  11.672
 9096W        W80625  39.122  25.935  12.507
 9097W        W80626  37.256  29.653  13.891
 9098W        W80627  29.663  33.576  11.103
 9099W        W80628  17.256  14.825  11.640
 9100W        W80629  36.653  28.507  13.484
 9101W        W80630  34.026  13.489  11.822
 9102W        W80631   2.005  18.044  12.911
 9103W        W80632   6.535   0.301  12.973
 9104W        W80633  26.107  14.559   1.266
 9105W        W80634  38.403  41.500  10.439
 9106W        W80635  11.370   8.787  12.980
 9107W        W80636  34.865  22.549  10.679
 9108W        W80637  26.206  15.068   1.316
 9109W        W80638  26.454  25.477  11.519
 9110W        W80639  41.074   9.269   1.464
 9111W        W80640  29.610  12.825  14.893
 9112W        W80641   2.465  14.353   3.626
 9113W        W80642  27.111  37.341   1.347
 9114W        W80643  19.904  17.752  11.525
 9115W        W80644  17.890  37.273  11.634
 9116W        W80645   9.162  30.546  10.882
 9117W        W80646  41.265  10.667   4.217
 9118W        W80647  41.473  39.413  13.475
 9119W        W80648  40.418   6.193  14.772
 9120W        W80649  43.799   2.430   4.591
 9121W        W80650  20.194   4.870   3.807
 9122W        W80651  31.162  42.491   2.174
 9123W        W80652   0.904  12.627  12.479
 9124W        W80653  18.227  31.061  11.182
 9125W        W80654  23.550  30.237  11.104
 9126W        W80655  28.701   7.228   2.959
 9127W        W80656  21.519  22.104  13.986
 9128W        W80657   7.956  28.641  14.543
 9129W        W80658  42.287  36.441  11.248
 9130W        W80659  34.822  33.364  11.086
 9131W        W80660   7.278  30.189   1.857
 9132W        W80661  42.970  34.737  13.037
 9133W        W80662   5.549   3.894   3.281
 9134W        W80663  38.980  21.171   0.792
 9135W        W80664  21.902   9.416   2.406
 9136W        W80665   9.470  30.150  14.625
 9137W        W80666  29.871  17.115   1.101
 9138W        W80667  41.121  10.724   2.163
 9139W        W80668  14.609   1.216   4.204
 9140W        W80669   7.506  43.367   1.991
 9141W        W80670  26.162  28.677   1.349
 9142W        W80671  39.615   5.885   0.292
 9143W        W80672   8.344  19.150   2.148
 9144W        W80673  25.734  22.534   4.543
 9145W        W80674   3.879  15.622  13.944
 9146W        W80675  26.276  15.510  14.156
 9147W        W80676  35.850   9.632  12.415
 9148W        W80677   7.809  37.211  12.962
 9149W        W80678  21.622  36.546  14.917
 9150W        W80679  13.639  29.197  13.758
 9151W        W80680   3.430  16.611  11.994
 9152W        W80681   7.887  25.691   2.207
 9153W        W80682   2.817  19.690   1.819
 9154W        W80683  17.636  34.112   0.068
 9155W        W80684  27.637  36.317   3.329
 9156W        W80685  27.563  22.427  13.587
 9157W        W80686  40.358  26.390  10.686
 9158W        W80687  37.958  13.606   3.739
 9159W        W80688  35.101  23.762   1.841
 9160W        W80689  37.410  28.796  14.019
 9161W        W80690  22.691  42.297  14.479
 9162W        W80691   9.516  34.351  13.223
 9163W        W80692   4.638   8.845   2.622
 9164W        W80693  35.331  19.302  11.093
 9165W        W80694  28.718   5.871  10.853
 9166W        W80695  13.311  36.627  11.592
 9167W        W80696  23.994  11.919  10.331
 9168W        W80697  26.736   5.737   0.805
 9169W        W80698  44.747   1.563   1.612
 9170W        W80699   2.445  38.750  13.434
 9171W        W80700   1.965  11.910  12.084
 9172W        W80701   8.320  20.760   4.918
 9173W        W80702  32.451  12.213  12.709
 9174W        W80703  37.106  42.981   0.732
 9175W        W80704  11.184  17.289   0.364
 9176W        W80705   7.357   2.898   3.713
 9177W        W80706  14.600   9.901  14.702
 9178W        W80707  42.370  18.494   0.969
 9179W        W80708  35.833  36.489  11.231
 9180W        W80709   4.450  34.556  10.754
 9181W        W80710  36.130  22.951   3.656
 9182W        W80711  41.542   9.856  12.079
 9183W        W80712  19.771   4.409   0.760
 9184W        W80713   8.862   2.019   1.420
 9185W        W80714  44.265  22.803   3.163
 9186W        W80715  21.711  17.602  11.741
 9187W        W80716  26.707  17.684  11.128
 9188W        W80717   8.894  41.812  13.024
 9189W        W80718  33.743  32.968  12.403
 9190W        W80719   2.664  36.362   0.717
 9191W        W80720  28.991   1.111   3.636
 9192W        W80721  21.211  38.336   3.587
 9193W        W80722  32.130   5.894  13.257
 9194W        W80723  16.454   9.736   1.131
 9195W        W80724   5.892  19.318   1.250
 9196W        W80725  10.722  32.888  12.883
 9197W        W80726  42.448   1.677  10.627
 9198W        W80727  35.387  42.844   3.647
 9199W        W80728  27.466  20.295  14.875
 9200W        W80729  13.185   3.091   2.626
 9201W        W80730   8.945   2.065   3.893
 9202W        W80731  33.469  29.917  11.209
 9203W        W80732  31.854  37.587  11.783
 9204W        W80733  11.061  22.029   3.810
 9205W        W80734   1.376  24.274   0.420
 9206W        W80735  31.229  27.170  14.334
 9207W        W80736  35.572  41.006  12.054
 9208W        W80737  13.313   3.904  14.465
 9209W        W80738  27.181  37.062   3.843
 9210W        W80739  29.988  13.116  12.030
 9211W        W80740  22.406  21.525   3.251
 9212W        W80741   1.298   1.543   2.535
 9213W        W80742   2.003   8.874   3.075
 9214W        W80743  19.761   3.427  11.156
 9215W        W80744   7.666  30.149   2.233
 9216W        W80745  31.523  37.222   0.054
 9217W        W80746  23.766  38.885   1.382
 9218W        W80747  29.399  28.522   3.632
 9219W        W80748   8.222  33.079   3.801
 9220W        W80749  22.397  21.562  13.375
 9221W        W80750   9.237  29.578   4.952
 9222W        W80751  13.084   7.634  12.117
 9223W        W80752  25.574  11.862  11.575
 9224W        W80753  17.680  40.372  11.521
 9225W        W80754   0.225  40.498   4.731
 9226W        W80755  15.789  22.498   2.624
 9227W        W80756   2.964  15.071  11.745
 9228W        W80757  35.847  35.296  13.617
 9229W        W80758   6.807  44.825   1.684
 9230W        W80759   6.226  24.700   1.597
 9231W        W80760  23.106  41.785  12.126
 9232W        W80761   0.258   1.132  13.559
 9233W        W80762   6.976  19.402   3.632
 9234W        W80763   1.935   0.273  14.566
 9235W        W80764  13.673  23.177   1.850
 9236W        W80765  26.732  38.660  13.311
 9237W        W80766  34.527  36.434   3.221
 9238W        W80767  12.561  35.069   0.837
 9239W        W80768   7.644  41.516  13.567
 9240W        W80769  16.255  35.390  13.468
 9241W        W80770  41.011  38.001  13.360
 9242W        W80771  15.975  14.168  14.499
 9243W        W80772  29.069  15.710   3.639
 9244W        W80773  39.073  35.901   3.743
 9245W        W80774  36.814  24.072  11.593
 9246W        W80775  27.107  31.665   0.862
 9247W        W80776   7.820  36.177   1.661
 9248W        W80777  17.777  10.021  14.974
 9249W        W80778  22.459   4.869  13.886
 9250W        W80779  20.587  24.269  11.986
 9251W        W80780  29.308   1.910  14.996
 9252W        W80781  15.231   6.008   2.568
 9253W        W80782  29.948  32.548   0.496
 9254W        W80783  32.578  43.008  12.824
 9255W        W80784  44.297  13.235  14.401
 9256W        W80785  17.086  44.093   2.899
 9257W        W80786  29.264  20.698  14.009
 9258W        W80787  38.428  32.617   1.673
 9259W        W80788  35.282  38.507   0.718
 9260W        W80789  16.657  37.141   2.704
 9261W        W80790  22.998  42.274   1.230
 9262W        W80791  18.661  27.457   5.258
 9263W        W80792   1.516  42.372  14.987
 9264W        W80793  18.537   3.211   5.018
 9265W        W80794  30.498   6.698   0.243
 9266W        W80795  22.533  40.922  14.968
 9267W        W80796   4.813   0.225  14.428
 9268W        W80797  43.298  42.953  12.099
 9269W        W80798   1.743  18.073  12.457
 9270W        W80799  18.960   5.826  11.236
 9271W        W80800   3.723  25.534  11.701
 9272W        W80801   7.481  22.323   4.535
 9273W        W80802  31.906   3.903  10.768
 9274W        W80803  30.977  22.088  12.853
 9275W        W80804  16.818  18.064  10.403
 9276W        W80805  10.776  16.742  13.846
 9277W        W80806  32.973  10.848   3.135
 9278W        W80807  30.749  24.562  10.903
 9279W        W80808  18.790  32.522  12.304
 9280W        W80809  42.883  23.262   2.442
 9281W        W80810  31.091  32.597   2.761
 9282W        W80811  21.590  44.443   0.904
 9283W        W80812  26.425  43.830  11.620
 9284W        W80813   8.384  36.495   3.702
 9285W        W80814  41.140  11.702  14.988
 9286W        W80815   1.343  12.877  12.594
 9287W        W80816  20.274   7.224  11.307
 9288W        W80817  12.377   7.186  14.943
 9289W        W80818  16.775  41.548  10.621
 9290W        W80819  25.718  13.226   1.896
 9291W        W80820  12.761  44.707   1.181
 9292W        W80821   4.236  15.577  14.447
 9293W        W80822  32.944  15.538  13.538
 9294W        W80823   7.810  32.794   1.478
 9295W        W80824   8.704  39.000   4.591
 9296W        W80825  10.233  31.178   4.132
 9297W        W80826  24.093   0.381  11.904
 9298W        W80827   4.648   9.685  13.664
 9299W        W80828  33.255   2.658   1.835
 9300W        W80829  33.792  33.400   4.737
 9301W        W80830  22.716   6.261   3.691
 9302W        W80831  27.586  13.301  12.545
 9303W        W80832  35.113  33.652  12.498
 9304W        W80833  31.449  22.902  14.411
 9305W        W80834  26.571   3.542  10.477
 9306W        W80835  14.688  26.465   2.764
 9307W        W80836   8.736   7.237  11.625
 9308W        W80837  35.388  40.035  12.464
 9309W        W80838  43.520   1.193   2.170
 9310W        W80839   5.198  32.166   0.785
 9311W        W80840  35.983   8.240   1.128
 9312W        W80841  30.102   1.817   1.357
 9313W        W80842  35.544  33.956   1.414
 9314W        W80843  32.056   7.985  12.375
 9315W        W80844  14.376  29.511   2.813
 9316W        W80845  28.762  17.152   4.467
 9317W        W80846  27.824  32.679   4.093
 9318W        W80847  35.400  39.477   0.052
 9319W        W80848  10.842   8.005   3.109
 9320W        W80849  27.024   4.022   4.203
 9321W        W80850   1.693  35.767  10.862
 9322W        W80851   4.595  35.032  11.832
 9323W        W80852  33.985  10.491   9.983
 9324W        W80853  16.558  16.851  12.443
 9325W        W80854  20.979  27.772  11.602
 9326W        W80855  43.399   8.838   0.904
 9327W        W80856  28.558  19.605  13.040
 9328W        W80857  40.108  13.620  14.307
 9329W        W80858  44.979  36.781  14.525
 9330W        W80859   5.684   6.051  13.283
 9331W        W80860  15.444  17.177   0.928
 9332W        W80861  31.057  24.663  14.039
 9333W        W80862  35.785  37.010  12.132
 9334W        W80863  22.579  29.085  13.529
 9335W        W80864   5.438  34.423  12.899
 9336W        W80865  43.365   2.688   2.754
 9337W        W80866  16.612  16.190  13.013
 9338W        W80867  17.626  25.719   1.657
 9339W        W80868  43.320  27.662  12.471
 9340W        W80869  27.695  11.430   1.310
 9341W        W80870  15.894  44.914   4.567
 9342W        W80871  39.084  11.588   0.583
 9343W        W80872   0.723  25.288  11.562
 9344W        W80873  29.896  23.602  13.387
 9345W        W80874  19.811  28.451   4.275
 9346W        W80875   1.544  31.583   1.893
 9347W        W80876  21.909  38.371   2.366
 9348W        W80877   2.234  25.927  13.033
 9349W        W80878  42.936  28.539   0.190
 9350W        W80879  27.454  10.323   4.719
 9351W        W80880  36.528  39.218   4.731
 9352W        W80881  37.178  37.000   2.854
 9353W        W80882  44.350  19.842  10.736
 9354W        W80883   1.627  11.349   3.854
 9355W        W80884  42.476  23.977  14.045
 9356W        W80885  35.406   9.643   2.738
 9357W        W80886  40.790  44.489   0.562
 9358W        W80887  30.395  32.357   4.285
 9359W        W80888  38.060  20.015  12.226
 9360W        W80889  18.106   3.785   2.600
 9361W        W80890  15.030  23.087   4.131
 9362W        W80891  17.273  29.910   3.679
 9363W        W80892  23.303  42.382  13.388
 9364W        W80893  43.344  16.660   0.160
 9365W        W80894  11.782  39.408   0.330
 9366W        W80895   5.672  18.832   1.205
 9367W        W80896  24.342  40.573  12.512
 9368W        W80897  28.033   1.991  10.443
 9369W        W80898  43.897  30.004   1.685
 9370W        W80899  37.329  24.819  11.469
 9371W        W80900  40.500  10.776  13.586
 9372W        W80901  43.103  39.541  14.957
 9373W        W80902  43.363  29.874   1.526
 9374W        W80903  38.526  23.240  13.520
 9375W        W80904  18.448  28.116  13.520
 9376W        W80905  32.891  37.148   0.878
 9377W        W80906  27.289  39.091   0.921
 9378W        W80907  31.445  40.015   0.261
 9379W        W80908  15.063   3.143   5.048
 9380W        W80909  20.490  23.503  14.055
 9381W        W80910  31.373  28.761   1.837
 9382W        W80911  35.090  40.976   2.253
 9383W        W80912  24.191  31.150  11.163
 9384W        W80913   8.622  24.578  12.384
 9385W        W80914  40.813  40.717   3.274
 9386W        W80915  40.341  36.782   2.761
 9387W        W80916  40.477  20.087  13.023
 9388W        W80917   5.806  32.256   0.092
 9389W        W80918  11.374  15.706  13.864
 9390W        W80919  37.516   9.219   1.848
 9391W        W80920  33.976   6.193   4.317
 9392W        W80921  23.119  10.702  14.268
 9393W        W80922  44.351   4.986   4.906
 9394W        W80923  28.411  37.756  11.082
 9395W        W80924   2.908  24.596   0.309
 9396W        W80925  40.544  26.402   0.867
 9397W        W80926   9.763   6.200  13.499
 9398W        W80927  26.539   2.647  12.569
 9399W        W80928  38.879   0.720   1.419
 9400W        W80929   4.236  22.115  12.477
 9401W        W80930  41.061  33.080   3.796
 9402W        W80931   9.842  29.573   2.163
 9403W        W80932  33.403   8.896  10.721
 9404W        W80933  23.185  35.427   3.724
 9405W        W80934  26.053  42.173   2.745
 9406W        W80935  18.986  23.649   0.701
 9407W        W80936  26.905  20.926   1.277
 9408W        W80937  42.884  24.259   0.336
 9409W        W80938  16.950  11.814  13.504
 9410W        W80939  28.253  12.761   4.055
 9411W        W80940   0.990  20.057   1.391
 9412W        W80941  12.813  30.596  12.623
 9413W        W80942   6.945  20.674   0.525
 9414W        W80943   2.293  25.153   4.710
 9415W        W80944  38.293  34.598   1.765
 9416W        W80945   3.088  25.558  14.788
 9417W        W80946  24.570  41.014  13.383
 9418W        W80947  17.228   0.984   1.371
 9419W        W80948  14.151   3.788  14.839
 9420W        W80949  37.075  25.200  12.437
 9421W        W80950  36.488  41.188   2.900
 9422W        W80951  21.266  24.908  13.475
 9423W        W80952   7.965   2.169   1.240
 9424W        W80953   3.560  18.645   4.281
 9425W        W80954  13.173  23.272  11.116
 9426W        W80955  36.756  13.573  14.150
 9427W        W80956   7.442  36.058   0.977
 9428W        W80957  20.381  11.811   1.704
 9429W        W80958   4.622  12.739   3.190
 9430W        W80959  14.309  15.542  12.251
 9431W        W80960   8.318   6.668  11.064
 9432W        W80961  41.649  23.969   0.060
 9433W        W80962  14.325  38.131  12.562
 9434W        W80963  26.593   8.406   3.689
 9435W        W80964  16.270  41.607  12.725
 9436W        W80965   5.017  41.385  14.002
 9437W        W80966  33.688  41.325   1.627
 9438W        W80967  20.997  30.577   1.691
 9439W        W80968  29.008  38.328   2.225
 9440W        W80969  30.589  16.338  13.471
 9441W        W80970   6.476  42.295  12.189
 9442W        W80971  22.682  28.357  13.621
 9443W        W80972  21.139  29.070   4.304
 9444W        W80973   1.901  40.756   5.004
 9445W        W80974  26.204  40.465   2.275
 9446W        W80975   8.354   9.325   3.994
 9447W        W80976  25.251  34.109   4.320
 9448W        W80977  37.245  13.440  14.166
 9449W        W80978  31.170  18.229  11.575
 9450W        W80979  40.300  34.193  11.562
 9451W        W80980  22.993  16.909  10.737
 9452W        W80981   4.259  38.797  14.413
 9453W        W80982  21.233  44.809   0.806
 9454W        W80983  34.962  36.120  10.996
 9455W        W80984  17.514  23.140   1.357
 9456W        W80985  29.906  23.572   1.837
 9457W        W80986  32.750  23.445   0.907
 9458W        W80987   7.126   8.359  13.985
 9459W        W80988  27.312  33.183   3.687
 9460W        W80989  40.883  17.527   4.205
 9461W        W80990  32.005  42.757   2.725
 9462W        W80991  30.570  18.737  12.977
 9463W        W80992  43.246  33.550  14.045
 9464W        W80993  28.526  29.343   1.311
 9465W        W80994  14.367  37.616  12.391
 9466W        W80995  16.747  28.015  10.427
 9467W        W80996  39.530  42.500  14.125
 9468W        W80997   6.390  20.581   3.190
 9469W        W80998  43.489  18.865  12.688
 9470W        W80999  30.099  34.863   1.703
 9471W        W81000  20.178  20.254   3.460
 9472W        W81001  10.766  21.571  14.301
 9473W        W81002  35.524   8.602  11.746
 9474W        W81003   2.458  12.973  14.097
 9475W        W81004  16.879  16.715   4.576
 9476W        W81005  39.263   7.092   0.249
 9477W        W81006  43.627  29.027   2.325
 9478W        W81007  19.677   9.051   3.026
 9479W        W81008   2.795  29.083   2.131
 9480W        W81009  28.628  42.170   1.691
 9481W        W81010  24.531  40.752  13.828
 9482W        W81011   0.846  18.400  14.365
 9483W        W81012  44.800  12.620   2.800
 9484W        W81013  24.234  33.087  14.421
 9485W        W81014  41.297  12.148  11.068
 9486W        W81015  36.764  40.011  11.032
 9487W        W81016   8.981  27.658  13.381
 9488W        W81017  27.142  21.055   3.939
 9489W        W81018  31.906   4.217  12.760
 9490W        W81019  15.243  27.457  14.888
 9491W        W81020  23.070   1.921  10.571
 9492W        W81021  35.471  43.852   4.785
 9493W        W81022  20.630  16.598   4.871
 9494W        W81023   0.354   6.368  12.731
 9495W        W81024   9.440  18.594   1.625
 9496W        W81025  35.958  16.764   4.578
 9497W        W81026  42.374  24.734   0.997
 9498W        W81027  16.357  12.700   2.193
 9499W        W81028  35.287   6.815  11.159
 9500W        W81029  21.503  40.971  13.872
 9501W        W81030   4.511  25.692   1.708
 9502W        W81031  26.597   5.768  14.856
 9503W        W81032  15.211  25.612   3.257
 9504W        W81033  18.107  42.496  12.551
 9505W        W81034   8.754   8.614   1.994
 9506W        W81035  41.255  10.274  12.253
 9507W        W81036  20.476  23.565   1.381
 9508W        W81037  11.678  29.539  11.529
 9509W        W81038  10.824  40.566   4.093
 9510W        W81039  24.170  14.531  12.041
 9511W        W81040  15.062  24.046   0.882
 9512W        W81041  32.916  35.507   4.265
 9513W        W81042  39.818  19.653   3.585
 9514W        W81043   8.524  31.298   0.400
 9515W        W81044  31.343  33.896   3.317
 9516W        W81045  31.957  22.973  14.423
 9517W        W81046  16.207   4.186  11.254
 9518W        W81047  40.590  18.719  14.700
 9519W        W81048  21.165   8.637   4.211
 9520W        W81049  40.345  28.807   1.235
 9521W        W81050  34.499   7.400  13.932
 9522W        W81051  11.573   7.231   3.568
 9523W        W81052  24.296  26.508  11.592
 9524W        W81053  20.535   6.307   0.929
 9525W        W81054  14.244  41.479  14.060
 9526W        W81055  10.734   3.372  10.103
 9527W        W81056  37.479  42.206  11.496
 9528W        W81057   5.444   0.096   1.694
 9529W        W81058   3.515  37.410   2.424
 9530W        W81059   8.814  21.190  12.078
 9531W        W81060   9.871  29.046   4.683
 9532W        W81061  11.388  37.702   2.674
 9533W        W81062  13.619   7.915  12.365
 9534W        W81063  35.054  25.169  11.186
 9535W        W81064  15.683   0.020   0.934
 9536W        W81065  19.699   5.943   3.103
 9537W        W81066   0.921  41.539  10.455
 9538W        W81067   1.520  32.354   3.032
 9539W        W81068  36.029  25.541   3.718
 9540W        W81069  39.802  11.678  12.658
 9541W        W81070  44.075  34.897  11.994
 9542W        W81071  30.445   8.727   1.196
 9543W        W81072  12.337   1.442  12.576
 9544W        W81073  24.129  36.988  14.370
 9545W        W81074  31.482  36.339  14.386
 9546W        W81075   4.899   0.302   2.619
 9547W        W81076   2.257  27.102   3.664
 9548W        W81077  41.481   7.649  10.739
 9549W        W81078  12.612  37.433  13.887
 9550W        W81079  20.600  32.391   1.883
 9551W        W81080  44.296  33.363   4.197
 9552W        W81081  32.557  10.953   1.679
 9553W        W81082   2.775   9.691  14.880
 9554W        W81083  12.218   0.644   2.362
 9555W        W81084  13.783   3.279   0.404
 9556W        W81085  34.824  26.140   1.120
 9557W        W81086   2.682  42.253  13.909
 9558W        W81087  13.279  10.943  14.975
 9559W        W81088  36.533  22.004  12.414
 9560W        W81089  41.579  22.072   1.472
 9561W        W81090  30.544  23.401  13.731
 9562W        W81091   5.861   4.735  12.732
 9563W        W81092  19.630  21.560   0.901
 9564W        W81093  36.645  42.081   1.405
 9565W        W81094  38.952  30.353  13.511
 9566W        W81095  43.508  32.391   0.759
 9567W        W81096   3.684  19.253   1.880
 9568W        W81097  10.861  13.585   1.927
 9569W        W81098  15.070   6.345  12.065
 9570W        W81099  37.345  34.430  11.450
 9571W        W81100  33.358   8.908   0.435
 9572W        W81101   6.981  44.532  14.055
 9573W        W81102  29.960  29.558  11.566
 9574W        W81103  16.726  39.381  13.832
 9575W        W81104  30.575  42.471   1.223
 9576W        W81105  35.123  32.013   1.861
 9577W        W81106  34.880  41.999  10.454
 9578W        W81107  44.995   6.796  11.928
 9579W        W81108  34.874  19.188   2.788
 9580W        W81109  44.536  37.503   0.424
 9581W        W81110  24.301  36.174  13.909
 9582W        W81111  38.411  32.488  10.713
 9583W        W81112  44.930  26.716   1.797
 9584W        W81113  44.107  10.830  12.070
 9585W        W81114   3.243  36.293  11.057
 9586W        W81115  19.694  23.646   1.870
 9587W        W81116  44.675   3.251   4.292
 9588W        W81117   3.768   2.627  10.861
 9589W        W81118  11.939  24.337   3.117
 9590W        W81119  15.759  19.942  12.451
 9591W        W81120  22.928  13.676   3.288
 9592W        W81121   7.867   7.147  14.596
 9593W        W81122   0.315  36.098   1.981
 9594W        W81123  38.897  12.078   1.420
 9595W        W81124  40.806  23.217   0.969
 9596W        W81125  30.956  15.616   1.092
 9597W        W81126  39.223  16.634   2.298
 9598W        W81127  43.817  42.467   3.341
 9599W        W81128  37.100   1.075  14.608
 9600W        W81129   7.178  23.360   3.182
 9601W        W81130  38.471  25.283   2.411
 9602W        W81131   0.705  30.957   0.544
 9603W        W81132  15.012  40.394   3.207
 9604W        W81133  38.386  29.556  12.504
 9605W        W81134  41.022  11.176   1.414
 9606W        W81135  35.529  16.170   4.796
 9607W        W81136  33.973  34.806   1.760
 9608W        W81137  16.428  19.967   4.255
 9609W        W81138  16.772  41.469  14.878
 9610W        W81139   1.532  37.611   2.477
 9611W        W81140  30.600   2.956  14.708
 9612W        W81141  24.503  27.363  14.765
 9613W        W81142   0.758   9.817   3.755
 9614W        W81143  23.698  11.807   2.439
 9615W        W81144  24.592   9.471   2.423
 9616W        W81145   2.340   4.837   0.651
 9617W        W81146  15.342   7.895  14.142
 9618W        W81147   7.453   5.325  14.360
 9619W        W81148  21.258  20.502  14.511
 9620W        W81149   3.061  18.345  14.961
 9621W        W81150  26.306  26.457   3.241
 9622W        W81151  15.446   0.671  12.018
 9623W        W81152  10.062   6.227  14.796
 9624W        W81153  30.411  29.102  14.028
 9625W        W81154  22.776  35.294  13.351
 9626W        W81155  23.916  20.144   3.243
 9627W        W81156  17.950   6.156  12.088
 9628W        W81157  10.180  21.555  11.372
 9629W        W81158  38.825  37.851   2.038
 9630W        W81159  32.202  28.575   0.666
 9631W        W81160  41.807   9.492   1.827
 9632W        W81161  26.741  26.276  13.877
 9633W        W81162  30.456  10.887  10.992
 9634W        W81163  43.558   0.755   4.522
 9635W        W81164  25.050  22.103   3.358
 9636W        W81165   2.941   0.342  12.016
 9637W        W81166  39.325  13.382  10.617
 9638W        W81167  31.024  32.055  12.154
 9639W        W81168  17.269  39.037  11.494
 9640W        W81169  32.567   5.769  14.475
 9641W        W81170  34.058  19.014   2.056
 9642W        W81171  39.938  25.207  11.208
 9643W        W81172  37.061  16.188  11.148
 9644W        W81173  35.917  16.390   3.330
 9645W        W81174   3.509  34.700   4.517
 9646W        W81175  29.545   9.411   1.783
 9647W        W81176  17.284  21.357   0.860
 9648W        W81177   9.904  36.128  12.530
 9649W        W81178  16.687  15.750   3.759
 9650W        W81179  17.029   2.026   1.007
 9651W        W81180   1.797  40.338   3.218
 9652W        W81181  27.659  39.880   3.055
 9653W        W81182  36.463  26.523   4.605
 9654W        W81183  13.748  37.901  11.615
 9655W        W81184  44.787  35.978   3.351
 9656W        W81185   5.272  38.600   2.741
 9657W        W81186  23.337  33.417  11.241
 9658W        W81187   1.443  30.105  14.932
 9659W        W81188  31.002  21.249   3.260
 9660W        W81189  15.150  12.761  12.313
 9661W        W81190  16.022  26.611  11.630
 9662W        W81191  19.835   2.386   1.402
 9663W        W81192   2.398  30.521  13.773
 9664W        W81193  14.744  24.163   0.399
 9665W        W81194  15.284  34.242   2.537
 9666W        W81195  32.037  10.893   4.096
 9667W        W81196   7.374  44.624  11.627
 9668W        W81197  28.264   2.873  10.903
 9669W        W81198  26.566   6.881  11.252
 9670W        W81199   0.431  40.909   1.304
 9671W        W81200  21.524   3.975  10.680
 9672W        W81201   2.662  31.476   1.220
 9673W        W81202  43.344  26.654  14.750
 9674W        W81203  37.506   8.715   0.859
 9675W        W81204  10.122   7.790  14.752
 9676W        W81205   4.245   5.257  10.723
 9677W        W81206  35.842  41.205  14.787
 9678W        W81207  28.112  29.937  14.482
 9679W        W81208  23.508  28.979  10.635
 9680W        W81209  41.367   1.408  12.076
 9681W        W81210  34.859  24.208   1.975
 9682W        W81211   5.774   9.635   4.667
 9683W        W81212  14.556  14.250  13.503
 9684W        W81213   6.669  31.396  13.318
 9685W        W81214   5.924  23.941  14.351
 9686W        W81215   5.263  29.122  13.871
 9687W        W81216  35.908   8.245   1.641
 9688W        W81217   0.359   8.596  14.569
 9689W        W81218   9.810  35.940   1.734
 9690W        W81219  15.338  10.064  14.287
 9691W        W81220  42.241   4.648   4.449
 9692W        W81221   3.415  37.497  10.665
 9693W        W81222  19.090  20.816   0.933
 9694W        W81223  43.364  37.153  11.504
 9695W        W81224  17.687  18.078  13.834
 9696W        W81225  36.441  10.400  13.873
 9697W        W81226  34.402  11.195  14.987
 9698W        W81227  40.767  16.624  11.619
 9699W        W81228  29.372  37.078  10.701
 9700W        W81229  22.394  35.428   3.120
 9701W        W81230   7.475  21.804   4.609
 9702W        W81231  30.515  12.321   2.587
 9703W        W81232  10.925  32.128  13.359
 9704W        W81233  35.601  24.668   2.138
 9705W        W81234  36.439   3.711  13.398
 9706W        W81235  25.028   7.441  12.937
 9707W        W81236   6.198  36.377  12.964
 9708W        W81237  31.736  20.752   2.612
 9709W        W81238  28.405  13.557   1.393
 9710W        W81239   8.705   7.262   2.252
 9711W        W81240  39.348  27.739   3.621
 9712W        W81241  26.593  12.698  14.994
 9713W        W81242  17.675   8.706  11.249
 9714W        W81243  29.490  16.413  12.980
 9715W        W81244  27.622  22.480   4.736
 9716W        W81245  36.705  40.272  12.131
 9717W        W81246  38.305   9.813  14.547
 9718W        W81247  34.428  22.699   4.147
 9719W        W81248  15.209   1.909   4.615
 9720W        W81249  15.794  18.338   2.054
 9721W        W81250  31.366   6.162  13.377
 9722W        W81251  41.459  40.061   3.647
 9723W        W81252  31.424  15.308  11.588
 9724W        W81253  16.774  26.484  13.354
 9725W        W81254  18.507  13.793  10.596
 9726W        W81255  33.169  35.792  13.826
 9727W        W81256   1.938  32.056   3.216
 9728W        W81257  17.163  34.038  13.769
 9729W        W81258   3.774  35.232   2.415
 9730W        W81259  44.561  43.067  11.645
 9731W        W81260  16.690  38.847  13.842
 9732W        W81261   7.886  29.810   3.382
 9733W        W81262  20.083   3.708  11.406
 9734W        W81263  36.427   3.353  10.812
 9735W        W81264  33.638  25.864  13.347
 9736W        W81265  14.234  31.210  14.260
 9737W        W81266  38.895  40.105   3.432
 9738W        W81267  13.558   5.167  14.454
 9739W        W81268   8.785  30.659   4.462
 9740W        W81269  21.156   0.382   3.663
 9741W        W81270   0.252   9.231  11.589
 9742W        W81271  35.522  14.829   0.645
 9743W        W81272   6.232   9.351  14.373
 9744W        W81273  14.703   6.557   0.862
 9745W        W81274  20.062   1.249   0.785
 9746W        W81275  38.219  12.495  13.929
 9747W        W81276   2.832   8.235   1.407
 9748W        W81277  38.845  32.184  13.903
 9749W        W81278   5.894  36.011  10.730
 9750W        W81279   8.271   6.354  13.808
 9751W        W81280  20.295   0.717   3.845
 9752W        W81281   6.269   9.792  12.930
 9753W        W81282  14.216  27.610   2.312
 9754W        W81283  42.051  40.824   2.537
 9755W        W81284  33.568  13.435   2.330
 9756W        W81285  15.531  35.348   0.671
 9757W        W81286  32.393  26.695   0.762
 9758W        W81287  38.142  30.516  13.303
 9759W        W81288  35.145  10.662  12.833
 9760W        W81289  38.369  15.105  11.443
 9761W        W81290  39.873  11.725  11.747
 9762W        W81291  36.433  28.913  11.609
 9763W        W81292  38.118  31.441  13.886
 9764W        W81293  32.566  41.182  10.648
 9765W        W81294  22.285  42.625  10.076
 9766W        W81295  37.906  11.661   2.199
 9767W        W81296  27.551  13.256  14.732
 9768W        W81297  43.792   9.805   1.673
 9769W        W81298  20.690   2.438  12.503
 9770W        W81299  13.367  33.619  13.501
 9771W        W81300   3.784  15.082  14.886
 9772W        W81301  18.108   2.408  12.425
 9773W        W81302  36.447  38.478  13.164
 9774W        W81303  24.947  34.537   3.165
 9775W        W81304  41.533  25.928  11.407
 9776W        W81305  27.059  41.226  13.854
 9777W        W81306  21.316   6.894  14.910
 9778W        W81307  22.187  24.977  12.688
 9779W        W81308  18.752  11.418  11.970
 9780W        W81309  35.452   1.380  13.248
 9781W        W81310  18.467  34.037   1.339
 9782W        W81311   3.450  18.993   2.300
 9783W        W81312   6.621  20.777   1.466
 9784W        W81313  22.989  35.089  14.776
 9785W        W81314  28.248  38.890   3.850
 9786W        W81315  27.784  14.585  10.640
 9787W        W81316  20.210  28.357  12.923
 9788W        W81317  36.946  10.729  12.632
 9789W        W81318   6.481   7.404   0.850
 9790W        W81319  22.105  13.819   1.251
 9791W        W81320  25.530   3.252  13.389
 9792W        W81321  17.176  37.639  10.648
 9793W        W81322  39.032  20.595  12.059
 9794W        W81323  41.084  39.301  11.525
 9795W        W81324  36.134  34.980  14.828
 9796W        W81325  15.801  17.144  13.329
 9797W        W81326  40.415   5.460  12.490
 9798W        W81327  20.883  11.861   1.879
 9799W        W81328  12.951  20.933  12.056
 9800W        W81329   4.887  25.207   0.852
 9801W        W81330  30.978   4.909  12.142
 9802W        W81331  41.987  21.040  14.997
 9803W        W81332  16.545  20.602  11.942
 9804W        W81333  26.644   8.296  11.026
 9805W        W81334  19.858  13.262   2.914
 9806W        W81335  29.334  43.091  11.080
 9807W        W81336   9.926  14.314   3.192
 9808W        W81337  43.987   9.724   1.128
 9809W        W81338  15.234   6.882   3.634
 9810W        W81339  42.688  25.891   3.672
 9811W        W81340  13.744  28.434   4.338
 9812W        W81341  41.286  33.550   4.619
 9813W        W81342  40.595  36.635   1.428
 9814W        W81343   9.522  25.907   2.751
 9815W        W81344  18.968  13.282   3.568
 9816W        W81345  16.017  43.790   0.256
 9817W        W81346  18.030   8.670   1.760
 9818W        W81347  44.491  32.008  13.937
 9819W        W81348  39.957  17.891  11.917
 9820W        W81349  39.352  39.858  11.674
 9821W        W81350  23.693  26.989  14.353
 9822W        W81351   5.276  10.311   1.158
 9823W        W81352  25.132  15.146   3.327
 9824W        W81353  33.648  40.902   3.865
 9825W        W81354  39.859  42.261  11.303
 9826W        W81355  31.125   8.497  10.190
 9827W        W81356  23.648  17.831  12.816
 9828W        W81357  35.457  25.190  14.412
 9829W        W81358  39.454  29.738   3.050
 9830W        W81359  28.111  41.326   5.155
 9831W        W81360   7.926  26.433  11.354
 9832W        W81361  26.190  35.573  11.042
 9833W        W81362   6.444   5.054   1.413
 9834W        W81363  41.402  27.164   4.644
 9835W        W81364  44.697  34.453  12.722
 9836W        W81365   0.277  22.329   1.803
 9837W        W81366  10.655  38.345   4.128
 9838W        W81367   9.772  35.446   1.434
 9839W        W81368  31.072  13.889   0.879
 9840W        W81369  32.531  11.729   0.934
 9841W        W81370  18.637  27.539  14.342
 9842W        W81371  21.530  11.536   3.099
 9843W        W81372  14.532   8.588   0.599
 9844W        W81373  19.355   0.156  14.039
 9845W        W81374  16.124  29.905  14.825
 9846W        W81375  44.389  43.566  11.650
 9847W        W81376  17.390  39.587  13.991
 9848W        W81377  38.461   9.789   3.256
 9849W        W81378  16.774  38.373  10.618
 9850W        W81379   4.871  22.080  10.889
 9851W        W81380  10.458   0.809  13.446
 9852W        W81381   8.727  29.377  12.071
 9853W        W81382   7.224  32.069  13.064
 9854W        W81383  10.906  39.364   4.239
 9855W        W81384  30.693   6.638   4.123
 9856W        W81385  28.704  40.766   4.622
 9857W        W81386   3.496  24.649   2.117
 9858W        W81387   0.744  39.769   4.272
 9859W        W81388  36.586  35.895   2.335
 9860W        W81389  23.972   8.607  13.508
 9861W        W81390  33.045   1.767   3.895
 9862W        W81391  28.593  38.578   2.434
 9863W        W81392  35.211  18.266  12.838
 9864W        W81393  14.037  37.949  13.993
 9865W        W81394  37.251  30.448  10.346
 9866W        W81395  36.824  14.056  12.242
 9867W        W81396  15.658   9.579   3.694
 9868W        W81397  11.966   6.906  11.033
 9869W        W81398  20.563  33.198   3.344
 9870W        W81399  37.886   1.037  13.101
 9871W        W81400  38.158  24.202  12.120
 9872W        W81401  27.903   9.007   0.965
 9873W        W81402  14.367  21.282   1.387
 9874W        W81403  26.407  35.130   1.853
 9875W        W81404   6.227  15.217  13.894
 9876W        W81405  25.568  33.265   4.599
 9877W        W81406  22.950   6.367  11.181
 9878W        W81407   3.707  38.475   2.818
 9879W        W81408  44.646  24.346  12.501
 9880W        W81409  11.373   1.899  13.242
 9881W        W81410   0.400   0.737   4.141
 9882W        W81411  31.912  27.773   3.351
 9883W        W81412  18.564   2.348   4.172
 9884W        W81413   6.289  24.782  14.027
 9885W        W81414  14.926  39.454   2.654
 9886W        W81415  37.170  29.329  12.266
 9887W        W81416   1.028   5.443   0.790
 9888W        W81417  37.338   1.822  14.790
 9889W        W81418  38.080  38.764  10.667
 9890W        W81419  38.789  44.937  13.058
 9891W        W81420  28.071  12.595   4.520
 9892W        W81421  33.493  40.887   2.890
 9893W        W81422  16.524  20.247  14.761
 9894W        W81423  40.012  28.171   1.755
 9895W        W81424  13.099  30.611  11.018
 9896W        W81425  14.625   7.817  11.980
 9897W        W81426  12.145  16.416   3.838
 9898W        W81427  33.385  11.162   2.404
 9899W        W81428  21.744  21.714   0.820
 9900W        W81429  11.986   6.292   4.974
 9901W        W81430  25.415  13.514   4.206
 9902W        W81431  22.309  16.824  14.340
 9903W        W81432  29.625  26.960  11.066
 9904W        W81433   4.062  28.235   2.654
 9905W        W81434  34.776  38.911   3.710
 9906W        W81435  22.929  17.123  13.836
 9907W        W81436  39.881  11.470   0.234
 9908W        W81437  17.974  40.363  10.932
 9909W        W81438  29.440  20.283  11.147
 9910W        W81439  25.418  39.575   2.377
 9911W        W81440  13.142  36.135  12.524
 9912W        W81441  41.829  18.060   3.169
 9913W        W81442  19.810  20.947  10.664
 9914W        W81443  44.516  38.765  14.779
 9915W        W81444  26.504  44.502   0.236
 9916W        W81445  32.462   7.187  12.650
 9917W        W81446   7.595  38.964  14.407
 9918W        W81447  28.075   8.721   1.354
 9919W        W81448  22.751  24.956   4.325
 9920W        W81449  15.305  29.494  13.870
 9921W        W81450  34.882  41.514   3.656
 9922W        W81451  30.061  24.650   0.122
 9923W        W81452  28.632  33.313   1.663
 9924W        W81453   7.447  17.000   3.611
 9925W        W81454  13.178  34.957  10.581
 9926W        W81455   8.474  16.028  11.080
 9927W        W81456  18.743  15.338  12.718
 9928W        W81457   3.903   3.656   4.591
 9929W        W81458   7.671  14.583  13.828
 9930W        W81459  28.026  15.596  10.645
 9931W        W81460  38.645  25.191  14.399
 9932W        W81461  36.049  21.071   4.655
 9933W        W81462  34.876   1.995   3.785
 9934W        W81463  18.312   9.983  13.500
 9935W        W81464  30.249  17.124   0.206
 9936W        W81465  26.105  39.475  14.546
 9937W        W81466  42.064   1.919  14.511
 9938W        W81467  37.523  34.848  11.175
 9939W        W81468   9.434  16.644  14.337
 9940W        W81469  17.276  40.233   0.897
 9941W        W81470  12.741   4.590  11.443
 9942W        W81471  11.774  10.353  14.469
 9943W        W81472  21.524  18.569  11.668
 9944W        W81473  26.607  17.323   0.439
 9945W        W81474  21.470  22.007   1.520
 9946W        W81475  36.126   6.487   3.551
 9947W        W81476  35.761  32.493   3.812
 9948W        W81477   5.671  33.585   2.917
 9949W        W81478  33.053  14.294   2.530
 9950W        W81479  36.559  19.190   3.809
 9951W        W81480   0.952  39.562  13.398
 9952W        W81481   1.208   2.907  12.687
 9953W        W81482   0.264  38.596  12.335
 9954W        W81483  40.492  36.829   0.542
 9955W        W81484  26.306  35.629  11.852
 9956W        W81485   2.726  35.637  12.431
 9957W        W81486  17.508  13.455  12.727
 9958W        W81487  40.233   3.515  11.357
 9959W        W81488   7.741  11.423   3.398
 9960W        W81489  12.691  37.171  12.385
 9961W        W81490  39.355   5.586   0.696
 9962W        W81491  21.671  26.133   1.678
 9963W        W81492  27.895   9.541   3.707
 9964W        W81493  26.256   0.943  14.396
 9965W        W81494  29.648  39.464   2.555
 9966W        W81495  44.215  38.353   4.382
 9967W        W81496  28.756  39.055   1.739
 9968W        W81497  44.207   3.163   0.829
 9969W        W81498  37.143  20.047   2.706
 9970W        W81499   4.219  25.148   2.357
 9971W        W81500  17.593   9.459  13.115
 9972W        W81501  12.692  26.989   1.876
 9973W        W81502  24.901  22.054   1.607
 9974W        W81503   8.668  38.800  10.723
 9975W        W81504  10.071   5.784  10.558
 9976W        W81505   8.340  27.280  14.237
 9977W        W81506  42.285  16.086  12.225
 9978W        W81507  16.351   9.963  12.606
 9979W        W81508  17.530  10.872  11.130
 9980W        W81509  21.671   3.901  13.234
 9981W        W81510   6.233  23.062  14.418
 9982W        W81511  40.751  30.039  14.789
 9983W        W81512  14.654  22.446  12.593
 9984W        W81513  39.871  10.769   3.897
 9985W        W81514   0.169   2.841  11.909
 9986W        W81515   4.257  30.067  14.735
 9987W        W81516  17.507  10.639   4.127
 9988W        W81517  43.681  17.561   2.905
 9989W        W81518  22.406  16.062   4.498
 9990W        W81519  42.098  23.077  11.941
 9991W        W81520  19.726  29.653   0.538
 9992W        W81521  31.709  25.073   3.691
 9993W        W81522  29.709  35.994  12.954
 9994W        W81523  38.035  33.908   2.884
 9995W        W81524  13.332  18.686   1.146
 9996W        W81525   6.384  44.535   0.476
 9997W        W81526  20.310   4.874  12.010
 9998W        W81527  27.622  20.507   2.827
 9999W        W81528  43.933  10.329   4.105
10000W        W81529  41.330  34.342  13.976
10001W        W81530  42.248  38.574  11.671
10002W        W81531   8.681  33.050  13.418
10003W        W81532  28.510  18.779  13.490
10004W        W81533   0.973  38.254   0.828
10005W        W81534   7.888   6.909  11.074
10006W        W81535  12.554  11.870  14.702
10007W        W81536  12.533  28.406   2.187
10008W        W81537  10.317   5.161   1.766
10009W        W81538  37.611  29.121  10.628
10010W        W81539  41.014  10.284  10.491
10011W        W81540  34.015  12.253  14.576
10012W        W81541  13.099  15.750  11.793
10013W        W81542  20.137   6.688  12.533
10014W        W81543  31.545  31.388  12.232
10015W        W81544  36.232   4.250  12.137
10016W        W81545  36.076  41.726  12.532
10017W        W81546  30.675  29.994   2.745
10018W        W81547  17.290   2.154  12.094
10019W        W81548  42.920  26.209   1.803
10020W        W81549  30.838   0.883  12.016
10021W        W81550   1.911   3.425   1.758
10022W        W81551  28.162  33.443   1.808
10023W        W81552  43.825  36.300  11.992
10024W        W81553  23.008   5.139   3.040
10025W        W81554   9.355  42.775   5.020
10026W        W81555  14.680  37.769   3.762
10027W        W81556  32.423  42.513  12.594
10028W        W81557  14.410  17.671   3.744
10029W        W81558  35.672  44.793  14.159
10030W        W81559  37.280  23.626  11.921
10031W        W81560  39.332  33.440  11.049
10032W        W81561  17.152   3.241   4.105
10033W        W81562  38.666   2.242   1.433
10034W        W81563  11.128  24.913  10.769
10035W        W81564  30.471  28.579  14.889
10036W        W81565  37.431  38.804  13.966
10037W        W81566  10.079  32.912   9.954
10038W        W81567  13.203  33.471  13.991
10039W        W81568  28.145  20.753   0.278
10040W        W81569  18.726  41.703   2.265
10041W        W81570  43.852   0.627   1.348
10042W        W81571  29.212   2.539  12.289
10043W        W81572  15.056  30.901   3.596
10044W        W81573  42.945   2.858   3.427
10045W        W81574   4.659  18.665   0.960
10046W        W81575  12.754  44.374  12.190
10047W        W81576  25.747  12.857   4.967
10048W        W81577   7.917  14.027  10.729
10049W        W81578  15.185  10.674   0.876
10050W        W81579  24.441  24.401  14.451
10051W        W81580  24.738  27.524  12.166
10052W        W81581  23.976  24.580  14.711
10053W        W81582  24.042  18.681  10.349
10054W        W81583   4.657  19.625  14.896
10055W        W81584   2.803   2.524  13.428
10056W        W81585   5.246  22.801  14.313
10057W        W81586   7.120  41.109  14.284
10058W        W81587  36.813  42.549   1.297
10059W        W81588   5.635  12.743  11.662
10060W        W81589  33.487  44.455  13.374
10061W        W81590  35.413   9.838  14.790
10062W        W81591   4.756  10.278   2.787
10063W        W81592  42.450  28.429   0.668
10064W        W81593   7.783  35.958  11.134
10065W        W81594  37.639  19.141  11.885
10066W        W81595  33.129   6.855   1.756
10067W        W81596  34.314  33.425   1.419
10068W        W81597   3.615  32.485  14.090
10069W        W81598  37.796   0.419   4.529
10070W        W81599  30.082  24.971   1.132
10071W        W81600  10.711  23.755   3.899
10072W        W81601   2.041   7.229  14.238
10073W        W81602   5.731  16.502  13.728
10074W        W81603  44.845  42.073   1.187
10075W        W81604   7.826  44.829   3.625
10076W        W81605  10.948  22.562   2.909
10077W        W81606  43.061  30.545  10.733
10078W        W81607   8.400   3.668   2.178
10079W        W81608   2.746  21.945  10.895
10080W        W81609  17.735  22.641  14.086
10081W        W81610  41.957  16.017   4.414
10082W        W81611  43.411  26.969   1.866
10083W        W81612  28.860  32.852   3.762
10084W        W81613  12.803   7.340   4.833
10085W        W81614  43.280  21.197  13.307
10086W        W81615  19.798   0.696   3.689
10087W        W81616   7.824  31.434  12.051
10088W        W81617  40.824  12.871  14.864
10089W        W81618  16.830  39.036  10.591
10090W        W81619  30.480  31.824  12.013
10091W        W81620  34.132  10.623  14.369
10092W        W81621  21.512  20.047  14.356
10093W        W81622  33.031  14.028   1.003
10094W        W81623  43.911  19.551   3.991
10095W        W81624  23.931   3.994  12.423
10096W        W81625  32.954   4.502  14.686
10097W        W81626  37.382   6.827  12.965
10098W        W81627  23.544  36.675  13.544
10099W        W81628   5.350  30.357  13.642
10100W        W81629  24.471  39.073  12.982
10101W        W81630  37.121  42.809  13.796
10102W        W81631   9.147  25.336   3.129
10103W        W81632  44.514  33.059  11.654
10104W        W81633  25.726   0.549   2.192
10105W        W81634  35.539  40.884  12.551
10106W        W81635  16.273   7.702   2.816
10107W        W81636  36.352  28.853   4.116
10108W        W81637  34.727  15.177   2.578
10109W        W81638  18.541   2.808   2.908
10110W        W81639  42.444  37.132  14.909
10111W        W81640  41.037  14.620   3.942
10112W        W81641   5.965   6.566   4.715
10113W        W81642   9.809   6.758   4.655
10114W        W81643   3.268  26.547   4.862
10115W        W81644  11.664  38.948   4.717
10116W        W81645  40.356   5.293  10.960
10117W        W81646  41.897  18.967  12.696
10118W        W81647  33.719   5.314  13.891
10119W        W81648  38.450  35.913   2.880
10120W        W81649  19.755   1.010  14.582
10121W        W81650  12.734  28.978   3.396
10122W        W81651  17.158  34.990  10.643
10123W        W81652  29.037   3.297  13.834
10124W        W81653  19.517  26.568   1.553
10125W        W81654  15.700  38.313  13.322
10126W        W81655  21.113  25.956   0.594
10127W        W81656  10.251  29.566   5.055
10128W        W81657   3.417  33.465  10.683
10129W        W81658  19.646  36.285  11.580
10130W        W81659  35.785  28.708   1.751
10131W        W81660  19.825  34.776   2.602
10132W        W81661   5.105  41.034   1.387
10133W        W81662  38.515  20.991   4.693
10134W        W81663  42.594  19.426   2.625
10135W        W81664  37.647  31.964  13.396
10136W        W81665  32.444  23.066   0.719
10137W        W81666   6.262  37.997   0.781
10138W        W81667   0.199  28.607   2.720
10139W        W81668  38.737  30.322  12.152
10140W        W81669  13.807  11.762   2.231
10141W        W81670  35.982  14.058  11.117
10142W        W81671  31.098   1.700  10.322
10143W        W81672   6.655  18.840  13.157
10144W        W81673  11.863   8.225   0.777
10145W        W81674  22.257  33.504   4.143
10146W        W81675  33.552   3.245  11.191
10147W        W81676  42.992  34.379  11.211
10148W        W81677  21.914  44.035   0.897
10149W        W81678  33.900  30.932   4.229
10150W        W81679   0.978  43.163   2.818
10151W        W81680  34.337  30.497  13.811
10152W        W81681  20.551   4.947   1.165
10153W        W81682   6.644  14.840   3.338
10154W        W81683  36.607  20.035  13.885
10155W        W81684  30.151  21.819   2.334
10156W        W81685  34.865   7.969  11.236
10157W        W81686  44.026  21.026   3.268
10158W        W81687  43.299  17.744   1.878
10159W        W81688  29.431  29.903   1.361
10160W        W81689   4.751  16.674   4.855
10161W        W81690   2.643   6.628  14.811
10162W        W81691  19.302  22.118   3.256
10163W        W81692  17.379  18.814  13.459
10164W        W81693  20.255  36.470  14.686
10165W        W81694  32.136  17.101   0.268
10166W        W81695  16.575  25.548  14.334
10167W        W81696  26.758   7.594   9.903
10168W        W81697  42.402  11.914  10.191
10169W        W81698  37.881  36.783   0.608
10170W        W81699  22.038   6.402  10.549
10171W        W81700  43.489  20.037  11.155
10172W        W81701  25.747   0.944   3.270
10173W        W81702  32.198  11.661  11.107
10174W        W81703  36.801  13.733   0.850
10175W        W81704   4.378   8.174   4.425
10176W        W81705  22.753  42.927   4.624
10177W        W81706  12.960   7.646  14.008
10178W        W81707  19.222  35.890  13.930
10179W        W81708  22.001   6.241  11.837
10180W        W81709  31.120  20.598  11.942
10181W        W81710  29.179  18.334  14.842
10182W        W81711  13.978  25.415  11.665
10183W        W81712  18.980  24.099  14.457
10184W        W81713  21.734  18.200   1.781
10185W        W81714  42.583  43.832  10.751
10186W        W81715  36.029  43.401   1.870
10187W        W81716  27.285  41.424  12.208
10188W        W81717  21.214  41.812   2.212
10189W        W81718   6.305  24.696   2.092
10190W        W81719  23.677  14.431   0.252
10191W        W81720   1.449  24.522   2.709
10192W        W81721   9.085  33.566   4.986
10193W        W81722  28.470  10.159   2.724
10194W        W81723  24.220   5.665   1.144
10195W        W81724  23.058  17.557   3.850
10196W        W81725  27.605   3.954  11.078
10197W        W81726  38.001  27.986  12.820
10198W        W81727  41.518  31.191  12.648
10199W        W81728   2.253   6.868  13.918
10200W        W81729   6.137   8.694   3.201
10201W        W81730  27.954  37.540  11.387
10202W        W81731   3.275  32.465  13.693
10203W        W81732  26.516  11.866  13.893
10204W        W81733  14.591  26.369  10.631
10205W        W81734  10.730  36.421  13.408
10206W        W81735   0.975   3.790   3.710
10207W        W81736   3.891  36.469   2.681
10208W        W81737   6.055  40.992   0.046
10209W        W81738  22.174   5.111   0.433
10210W        W81739  15.077   6.898   1.605
10211W        W81740   6.748  38.806  12.969
10212W        W81741  28.071  33.143   3.305
10213W        W81742  26.838   9.644  12.684
10214W        W81743  32.601  11.293  12.896
10215W        W81744  42.488  34.373  13.786
10216W        W81745  20.743   4.980  12.980
10217W        W81746  20.763  42.500   1.116
10218W        W81747   9.140  43.265   0.268
10219W        W81748  21.299  28.314  13.385
10220W        W81749  12.568  39.929  14.113
10221W        W81750  30.541  43.299   2.161
10222W        W81751  13.072  35.654  11.322
10223W        W81752  35.320  35.438   0.852
10224W        W81753  39.966  20.512  12.204
10225W        W81754   9.487   1.940   2.529
10226W        W81755  38.563  10.340  12.104
10227W        W81756  16.596  26.524  14.838
10228W        W81757  19.774   3.280   3.159
10229W        W81758   4.371   1.795  11.639
10230W        W81759  26.201  28.190  11.539
10231W        W81760  30.392   9.044   1.960
10232W        W81761   5.531  43.678  11.136
10233W        W81762   4.425  15.362   1.424
10234W        W81763  27.220   9.269   0.303
10235W        W81764  41.302  39.526   0.527
10236W        W81765  31.057   8.710   1.982
10237W        W81766   0.700  25.594   2.368
10238W        W81767  21.891  28.398   1.418
10239W        W81768  18.002  19.515   0.064
10240W        W81769   8.107  18.505   0.304
10241W        W81770  43.094  39.426  10.447
10242W        W81771  28.889   7.780   3.529
10243W        W81772  17.807  30.923   1.718
10244W        W81773  35.379  29.488  12.280
10245W        W81774   5.249  23.899  13.399
10246W        W81775  11.834   1.883   3.394
10247W        W81776  11.135  10.784  14.849
10248W        W81777   4.026  17.571   0.308
10249W        W81778  18.161  20.898   0.625
10250W        W81779   7.018  43.218   1.841
10251W        W81780  25.934   7.832  13.501
10252W        W81781  15.302   6.520   1.887
10253W        W81782  34.058  41.553   2.247
10254W        W81783  43.064  15.164   3.150
10255W        W81784  16.656  18.554  10.503
10256W        W81785  23.461  41.430  12.007
10257W        W81786  24.013  10.666   3.173
10258W        W81787   6.707  14.779  14.433
10259W        W81788  32.119  34.853  12.476
10260W        W81789  21.014  38.433  10.686
10261W        W81790  23.463  14.128   1.576
10262W        W81791   0.278  36.501  13.278
10263W        W81792   9.952  21.755   0.913
10264W        W81793  39.072  22.974   1.764
10265W        W81794  41.003   7.027  12.128
10266W        W81795  24.987  12.707  12.356
10267W        W81796  32.824  43.233   4.367
10268W        W81797  17.555  30.187   0.267
10269W        W81798  15.310  14.779  10.681
10270W        W81799  28.689  10.727   1.872
10271W        W81800   8.747   0.510   4.819
10272W        W81801  27.982  21.949   1.691
10273W        W81802   3.252  36.865   1.221
10274W        W81803  40.257  40.565   0.942
10275W        W81804  30.268  34.731  12.468
10276W        W81805  17.888  39.509   0.567
10277W        W81806  29.263  11.403   4.728
10278W        W81807   0.525  30.997  10.262
10279W        W81808  41.550  26.915   3.327
10280W        W81809   3.442  34.371  11.033
10281W        W81810  30.513  17.884   2.136
10282W        W81811   9.273  39.389   1.714
10283W        W81812  28.185   3.853   1.896
10284W        W81813   6.334  23.638  14.153
10285W        W81814  38.079  30.066  11.694
10286W        W81815  37.684  43.388   4.498
10287W        W81816  12.382  12.579  14.269
10288W        W81817  35.143  24.261  13.620
10289W        W81818  15.562  10.386  14.839
10290W        W81819  26.439   9.231   3.259
10291W        W81820  26.702   7.468   2.256
10292W        W81821  14.341  28.214  12.099
10293W        W81822  18.605  12.907  10.370
10294W        W81823  28.998  15.668  14.534
10295W        W81824  36.392  13.775   1.230
10296W        W81825  32.413  30.210  14.781
10297W        W81826   3.384   8.284   3.307
10298W        W81827   2.257  16.401   3.473
10299W        W81828   5.278  24.855  13.561
10300W        W81829  36.866  27.090   3.615
10301W        W81830  23.511  32.843  14.954
10302W        W81831  39.510  33.133  14.888
10303W        W81832  32.239  29.511   0.972
10304W        W81833  31.479  39.007   2.233
10305W        W81834  17.763  35.673   0.780
10306W        W81835  25.916  33.554  10.777
10307W        W81836  36.362  29.627  12.082
10308W        W81837   5.224   0.504  12.443
10309W        W81838  14.705   6.727  14.876
10310W        W81839  25.633  21.613   1.705
10311W        W81840  27.527  39.910  12.784
10312W        W81841  32.589  32.511   1.600
10313W        W81842  44.968  32.933   3.683
10314W        W81843  17.376   0.895   3.847
10315W        W81844  33.427  29.465   2.457
10316W        W81845  32.886  29.604   4.902
10317W        W81846  33.583  16.445  12.820
10318W        W81847   7.357  14.265  11.563
10319W        W81848  20.003  41.248  12.026
10320W        W81849  27.765  37.374  12.681
10321W        W81850  23.976  38.188  11.208
10322W        W81851  28.976  30.135   2.725
10323W        W81852  26.721   4.738  14.372
10324W        W81853  40.956   0.245   2.384
10325W        W81854  38.371   5.035  11.254
10326W        W81855  28.958  13.827  14.022
10327W        W81856  32.864   1.392  13.909
10328W        W81857  21.715  43.808   1.688
10329W        W81858   6.219   4.436  12.974
10330W        W81859  23.148  11.354   4.371
10331W        W81860  13.565  24.888  13.768
10332W        W81861  31.830  22.037   1.949
10333W        W81862  30.581  25.997  14.549
10334W        W81863  13.382  44.093   0.775
10335W        W81864  18.755  25.240  13.323
10336W        W81865  10.919  25.252  14.987
10337W        W81866   2.901   5.357   0.303
10338W        W81867   7.985  33.147   4.252
10339W        W81868  27.457  42.058  14.350
10340W        W81869   5.705  33.675   0.788
10341W        W81870  20.568  38.613  12.889
10342W        W81871  25.089  33.423   4.722
10343W        W81872  23.748  39.810   1.627
10344W        W81873  17.192  23.329  13.993
10345W        W81874   6.939  10.925  12.895
10346W        W81875  31.955  34.353   2.084
10347W        W81876  35.084  20.605   2.234
10348W        W81877  18.762  31.332  13.671
10349W        W81878  35.386   5.844   2.030
10350W        W81879   3.806  29.847   0.378
10351W        W81880  41.878  32.030   3.053
10352W        W81881  21.690   5.258  13.872
10353W        W81882  26.649   6.757  13.621
10354W        W81883  43.409  17.778  10.752
10355W        W81884  32.077  18.238   3.610
10356W        W81885  29.363  14.109  12.559
10357W        W81886  41.753   6.426  14.834
10358W        W81887  43.068  32.899   4.460
10359W        W81888  44.181   5.920  10.235
10360W        W81889  38.564  19.707   2.638
10361W        W81890  18.938  29.379   3.099
10362W        W81891  33.094   0.421   2.265
10363W        W81892  36.923  27.346   1.718
10364W        W81893  13.847   0.829  12.012
10365W        W81894  32.924  38.026  13.422
10366W        W81895  33.466  10.468  12.068
10367W        W81896  22.608  33.784  11.503
10368W        W81897   5.181   6.252   4.663
10369W        W81898  16.556  21.253   0.481
10370W        W81899  13.912  29.103  12.370
10371W        W81900   1.240  35.457   1.398
10372W        W81901   0.177  41.329   2.260
10373W        W81902  38.416  20.489  13.867
10374W        W81903  24.544   7.262   4.723
10375W        W81904  44.742  17.559   1.898
10376W        W81905  18.586  40.449   2.734
10377W        W81906  32.563   1.786   2.866
10378W        W81907  14.823  11.381  12.788
10379W        W81908  35.808   9.827   3.262
10380W        W81909  43.336  32.989  12.820
10381W        W81910   0.284  16.060   3.592
10382W        W81911  17.128  43.929  10.707
10383W        W81912  17.784  28.865  12.527
10384W        W81913  14.189  16.622   1.144
10385W        W81914  21.241  34.106  12.376
10386W        W81915   5.187  23.963  11.538
10387W        W81916  14.266   0.229   2.694
10388W        W81917   3.068  30.053   4.563
10389W        W81918  17.890   2.391   5.036
10390W        W81919  11.387   2.815   3.748
10391W        W81920   9.933  21.064   2.188
10392W        W81921  18.064  39.373   3.837
10393W        W81922  20.544  30.871   2.244
10394W        W81923  10.688  20.743   0.726
10395W        W81924  17.492  41.147  11.081
10396W        W81925   9.438   1.325   0.912
10397W        W81926  33.337  33.318   5.065
10398W        W81927   9.286  31.529  14.482
10399W        W81928  35.179  15.410  11.240
10400W        W81929  44.878  38.477   1.924
10401W        W81930  21.508   8.623   3.779
10402W        W81931  32.029   4.863   2.204
10403W        W81932  37.009  18.407  11.246
10404W        W81933  12.846  20.619  10.723
10405W        W81934  26.236  24.576  13.089
10406W        W81935   4.593   4.161   0.714
10407W        W81936   5.793  25.492  12.059
10408W        W81937  20.886  18.340  13.518
10409W        W81938  36.871  16.175   4.221
10410W        W81939   6.613  16.671   3.347
10411W        W81940  18.002  12.931   4.253
10412W        W81941  26.721   9.196   2.824
10413W        W81942  32.585  43.527   1.294
10414W        W81943  18.098  12.866   0.298
10415W        W81944   5.424  41.318  13.056
10416W        W81945  15.596  12.211  11.601
10417W        W81946  11.641  11.819  13.336
10418W        W81947  22.549   3.327   0.236
10419W        W81948  35.508   4.204   4.720
10420W        W81949   9.044  36.200   2.586
10421W        W81950  43.448  16.532   3.778
10422W        W81951  31.932   6.489   0.057
10423W        W81952   1.805   9.801  13.989
10424W        W81953   1.201   1.515  10.964
10425W        W81954   1.416  23.020   3.075
10426W        W81955  35.599  42.626   4.055
10427W        W81956  18.837  31.965  13.565
10428W        W81957   6.747   7.290  13.928
10429W        W81958  24.111  37.758  13.002
10430W        W81959  19.216  26.376  14.185
10431W        W81960  31.446  16.714   1.293
10432W        W81961  39.391  36.250   0.916
10433W        W81962   9.261  44.404  11.959
10434W        W81963  40.822   6.452   5.094
10435W        W81964  13.378  40.780  11.463
10436W        W81965  25.924  14.070  12.215
10437W        W81966  40.315  20.618  11.469
10438W        W81967  38.501  43.957   4.118
10439W        W81968   5.928  20.032  11.097
10440W        W81969  39.795  30.909  14.080
10441W        W81970   9.250   6.746  13.388
10442W        W81971  14.808  39.888  10.558
10443W        W81972   3.748  44.195  12.855
10444W        W81973  39.720   3.719   0.794
10445W        W81974  29.034   4.748   4.324
10446W        W81975  23.767  17.799   4.046
10447W        W81976  23.210  21.586   0.492
10448W        W81977  42.494  40.406  14.936
10449W        W81978  35.072  41.631  11.969
10450W        W81979  25.935  38.860  13.826
10451W        W81980  14.042   6.377  11.188
10452W        W81981  18.435  31.651   0.440
10453W        W81982  39.731   1.690  12.463
10454W        W81983   3.846  40.334  14.666
10455W        W81984   0.962   9.792   3.247
10456W        W81985  18.671  34.483  10.077
10457W        W81986   9.151   5.412   3.399
10458W        W81987  35.465  12.665   0.651
10459W        W81988   6.915   3.443  10.572
10460W        W81989  28.362  23.133   1.897
10461W        W81990  37.974  27.782  10.767
10462W        W81991  41.565  22.905  12.858
10463W        W81992  44.245  14.199   0.392
10464W        W81993  44.275  32.570  10.931
10465W        W81994  26.934   8.734  12.527
10466W        W81995  25.156  24.172  12.067
10467W        W81996  38.326  21.134   3.376
10468W        W81997  29.006  39.377  12.752
10469W        W81998  35.391   9.377  13.046
10470W        W81999  19.973  32.728   0.147
10471W        W82000  17.805  43.404   2.892
10472W        W82001  15.773  35.966   3.817
10473W        W82002  34.128  22.464  13.782
10474W        W82003  42.278  21.865   4.212
10475W        W82004  39.406   9.571   0.388
10476W        W82005  37.502  29.095   4.171
10477W        W82006  12.427   3.228   1.586
10478W        W82007  38.971   4.880  11.945
10479W        W82008  22.268  19.413  10.445
10480W        W82009  36.133  15.203  14.403
10481W        W82010  26.547  22.798   4.510
10482W        W82011  17.702  13.623   2.286
10483W        W82012   8.386  31.093  12.976
10484W        W82013  36.481  33.445   2.006
10485W        W82014   1.918   3.696  14.335
10486W        W82015   9.097  32.643  13.503
10487W        W82016   4.803   9.003  13.756
10488W        W82017  16.367  44.441  10.761
10489W        W82018   3.230  29.917   2.252
10490W        W82019  17.601  19.726  13.307
10491W        W82020  17.110  36.901   1.838
10492W        W82021  41.899  41.778  12.857
10493W        W82022  20.866   2.753   0.652
10494W        W82023  20.242  39.365   2.271
10495W        W82024  19.172  43.517   4.437
10496W        W82025   9.391  11.314   2.773
10497W        W82026  41.525  21.497  11.650
10498W        W82027  39.295  13.329  14.218
10499W        W82028  19.110  11.094   1.402
10500W        W82029   4.048   0.935   0.359
10501W        W82030  27.880  40.480  14.420
10502W        W82031   5.391  20.969  14.959
10503W        W82032  31.586   8.545  14.756
10504W        W82033  15.383  39.476  14.820
10505W        W82034  23.094  10.623   3.281
10506W        W82035  17.237  25.576   2.636
10507W        W82036  44.807  12.170  11.631
10508W        W82037  35.824  17.899  11.123
10509W        W82038  25.014  34.713  14.301
10510W        W82039   8.787  22.953  12.607
10511W        W82040  15.555   7.419   3.656
10512W        W82041  40.858  37.891  11.954
10513W        W82042   7.186  21.259   4.096
10514W        W82043   4.820  43.246   0.838
10515W        W82044  16.627  23.180  11.611
10516W        W82045  28.047  39.468  14.469
10517W        W82046  38.236  14.136   4.556
10518W        W82047   2.888   8.989   1.774
10519W        W82048  36.828   5.236  12.896
10520W        W82049  35.078  29.633   3.319
10521W        W82050  32.423   9.426   0.363
10522W        W82051  34.307  40.880  11.714
10523W        W82052  18.490  26.287   3.395
10524W        W82053   6.777  40.128  13.367
10525W        W82054  42.316   2.775  11.664
10526W        W82055  10.394  13.844  14.494
10527W        W82056  38.578  43.815   3.636
10528W        W82057  36.292  38.947  12.965
10529W        W82058   6.359  32.843   0.765
10530W        W82059  13.643   2.487  12.451
10531W        W82060  37.341  19.003   4.123
10532W        W82061   3.820  31.980  12.138
10533W        W82062  28.683   3.956   3.634
10534W        W82063  11.353   9.280   2.305
10535W        W82064  31.395  29.832   3.464
10536W        W82065  42.906  17.148   2.158
10537W        W82066  28.504  34.042  14.571
10538W        W82067  36.869  21.982  11.214
10539W        W82068  16.243  37.452   2.594
10540W        W82069  31.048  17.602   2.668
10541W        W82070  43.760  20.587  13.094
10542W        W82071  37.421   2.105  13.477
10543W        W82072  39.372  41.927   1.897
10544W        W82073  12.053  40.839  10.974
10545W        W82074  43.700  16.839  13.415
10546W        W82075  34.584  32.894   2.280
10547W        W82076   1.019  17.485   2.417
10548W        W82077  37.586  13.130  12.050
10549W        W82078  17.097  27.906  12.928
10550W        W82079  43.043  25.474   2.686
10551W        W82080  14.148  35.487  12.973
10552W        W82081  37.164   0.757  10.724
10553W        W82082  27.632  28.626   3.438
10554W        W82083  30.366  30.450  14.922
10555W        W82084  35.776   2.045   2.699
10556W        W82085  32.949  42.808  14.209
10557W        W82086   5.277  43.312   4.616
10558W        W82087  21.588  19.802   3.074
10559W        W82088   4.387  30.461   0.796
10560W        W82089  16.494   2.432   2.795
10561W        W82090  30.692  14.279  14.748
10562W        W82091  11.142  10.872  12.270
10563W        W82092  19.678  42.019  13.848
10564W        W82093  24.812  20.375  12.616
10565W        W82094  30.148  35.168  11.066
10566W        W82095  35.463  13.331  13.048
10567W        W82096  36.340  24.689   4.635
10568W        W82097  17.973   4.720  12.984
10569W        W82098  19.273   1.465  10.846
10570W        W82099  40.883  38.415   3.462
10571W        W82100  17.841  15.731   1.036
10572W        W82101  36.667  15.599   0.258
10573W        W82102  19.136   0.720   1.697
10574W        W82103   9.098  13.864  12.635
10575W        W82104   0.425  21.212  12.083
10576W        W82105  36.620  20.051   1.798
10577W        W82106  39.917  44.515  13.087
10578W        W82107   9.884  13.441  12.361
10579W        W82108   5.031  14.199   0.368
10580W        W82109  27.160   5.250  10.955
10581W        W82110  22.814  12.397   1.871
10582W        W82111  16.811  15.774   2.343
10583W        W82112  26.654  28.502   1.594
10584W        W82113  44.780   5.886  13.792
10585W        W82114   7.491  43.393  11.836
10586W        W82115  20.157   7.341   4.583
10587W        W82116  28.211  17.069  11.576
10588W        W82117  13.111  43.001  14.270
10589W        W82118  21.846   1.833  14.513
10590W        W82119  32.325  36.901  14.231
10591W        W82120  23.010  15.838  12.917
10592W        W82121  25.522  35.967   1.812
10593W        W82122  18.755  39.353   0.012
10594W        W82123   2.213  26.920  10.777
10595W        W82124  21.682  24.999   4.125
10596W        W82125  12.370   3.688   1.284
10597W        W82126  20.686  36.532  13.878
10598W        W82127   3.135  35.477   4.088
10599W        W82128   6.110  12.795  12.131
10600W        W82129  33.571   1.020   3.710
10601W        W82130   5.314  15.705   0.437
10602W        W82131   3.964   9.845  14.376
10603W        W82132  13.736  39.488  13.941
10604W        W82133  26.957  17.708   2.308
10605W        W82134  39.458  37.354   4.147
10606W        W82135  41.813  26.945   0.792
10607W        W82136  43.891  43.704   3.783
10608W        W82137  27.489  36.841   2.205
10609W        W82138   6.452  41.774  12.100
10610W        W82139  22.782  25.255  11.930
10611W        W82140   5.793  35.486  11.437
10612W        W82141   5.900  24.695   3.253
10613W        W82142  23.397  11.748  13.476
10614W        W82143  19.674  26.899   1.914
10615W        W82144  35.663  28.675   4.635
10616W        W82145  28.571  34.867   3.359
10617W        W82146  39.860   3.714  12.913
10618W        W82147  22.644  25.158  14.328
10619W        W82148  22.145   5.018  14.904
10620W        W82149  36.841   4.493  14.880
10621W        W82150  20.575  18.441  14.002
10622W        W82151  37.406   7.366  12.910
10623W        W82152   1.960  18.841   4.131
10624W        W82153  17.549  34.880   4.255
10625W        W82154  43.017  15.501  14.397
10626W        W82155  14.067  22.185  13.291
10627W        W82156  25.588  37.792   4.625
10628W        W82157   1.442  17.167   0.868
10629W        W82158   2.958  26.040   2.328
10630W        W82159  15.468  31.694  14.698
10631W        W82160   5.639  37.927  14.039
10632W        W82161  43.164  18.239   3.202
10633W        W82162  30.825  42.882  12.000
10634W        W82163  35.305   7.706   2.117
10635W        W82164  39.335  44.026  10.659
10636W        W82165  18.407  30.844   5.008
10637W        W82166  12.809  24.176   4.107
10638W        W82167  27.664  44.401   2.353
10639W        W82168  20.730  20.076  11.050
10640W        W82169  30.090  12.717  10.276
10641W        W82170  23.141  36.106   4.433
10642W        W82171  17.502  40.548  12.472
10643W        W82172  32.100  15.793   1.841
10644W        W82173  26.406  19.744  14.467
10645W        W82174  16.462  29.178   1.238
10646W        W82175  36.479  30.573  14.356
10647W        W82176  23.162  39.022  13.458
10648W        W82177  25.413   1.384   0.300
10649W        W82178  12.648  21.975   0.278
10650W        W82179  28.009  25.132  13.412
10651W        W82180   9.693   8.683   1.026
10652W        W82181   6.090  36.102   9.744
10653W        W82182   3.694   4.033  14.984
10654W        W82183   3.720  31.140  14.882
10655W        W82184  13.932  21.590  11.680
10656W        W82185  33.159  37.617   0.772
10657W        W82186  33.374  38.538   1.782
10658W        W82187  39.893  29.385   2.315
10659W        W82188   6.633  17.735  13.419
10660W        W82189  17.739  24.734   2.963
10661W        W82190   8.666  30.902   0.012
10662W        W82191   9.864   3.235  11.843
10663W        W82192  18.205  21.769   0.851
10664W        W82193  27.704  43.486   2.253
10665W        W82194  30.746   9.325   4.593
10666W        W82195  21.109   7.171   3.957
10667W        W82196  24.870  28.469  13.052
10668W        W82197  28.996   6.700   0.570
10669W        W82198  43.306   8.747  14.997
10670W        W82199  30.477   6.289  10.560
10671W        W82200  21.716  27.060  13.487
10672W        W82201  25.706  38.189   0.849
10673W        W82202  16.640   4.994  13.500
10674W        W82203   2.418  29.364   4.345
10675W        W82204   9.823  19.700   1.893
10676W        W82205  24.329  25.441   1.426
10677W        W82206  32.458  21.649  11.518
10678W        W82207  38.495  19.110  13.968
10679W        W82208  24.457  42.136  12.087
10680W        W82209  18.759  20.202   2.274
10681W        W82210  30.965  30.481   3.044
10682W        W82211  39.001  32.036  12.038
10683W        W82212  27.642   2.945  12.069
10684W        W82213   5.784  12.443   0.964
10685W        W82214  31.399   4.326  12.023
10686W        W82215   4.820  36.577   1.864
10687W        W82216  10.179   0.451  11.994
10688W        W82217  13.292   7.918  11.147
10689W        W82218  25.623   5.633   2.721
10690W        W82219   9.105  39.341   2.263
10691W        W82220   5.910  10.681  13.030
10692W        W82221  18.676  21.810   4.858
10693W        W82222  26.287  31.994   2.764
10694W        W82223  18.357  27.877   5.119
10695W        W82224   3.896  12.869   2.879
10696W        W82225  14.648  43.955  14.994
10697W        W82226  20.971  21.243  11.782
10698W        W82227  28.402  14.752   0.882
10699W        W82228   9.997  38.902  13.800
10700W        W82229  23.439   6.222   2.222
10701W        W82230   2.710   0.751   4.823
10702W        W82231  10.365   8.622  13.231
10703W        W82232  29.519  32.909   0.790
10704W        W82233  30.571  31.910  13.114
10705W        W82234  19.938  18.258  10.649
10706W        W82235  15.600  23.506  10.208
10707W        W82236  26.169  32.546  11.079
10708W        W82237  32.146  11.110   1.416
10709W        W82238  33.137  15.746   4.496
10710W        W82239  19.051  37.439   2.193
10711W        W82240  44.501   5.287  11.140
10712W        W82241  23.133  39.397  12.134
10713W        W82242  18.142  29.207   4.064
10714W        W82243  15.720  13.515  10.445
10715W        W82244   4.783  22.591   1.127
10716W        W82245   4.514  39.590   0.780
10717W        W82246  23.410  28.801   4.481
10718W        W82247   4.804  25.137   4.655
10719W        W82248  43.796  41.783  12.551
10720W        W82249  36.764  31.633  14.782
10721W        W82250   7.782  19.729   3.014
10722W        W82251  26.428  17.777  14.386
10723W        W82252  17.507   5.779   2.601
10724W        W82253  14.225  19.213   1.362
10725W        W82254  12.055  41.736  12.327
10726W        W82255  19.153  21.333   3.716
10727W        W82256  24.921   4.220  14.569
10728W        W82257   6.537  28.503   9.957
10729W        W82258  30.546  40.586   1.806
10730W        W82259  10.293  43.702  11.480
10731W        W82260  39.504  23.105   4.877
10732W        W82261  18.642  33.095   1.617
10733W        W82262  44.300  30.736   1.837
10734W        W82263   3.515  25.899   4.995
10735W        W82264  32.029  30.351   0.418
10736W        W82265  19.637  23.630  14.055
10737W        W82266  43.394  20.084   1.783
10738W        W82267  26.450  19.072  10.804
10739W        W82268  22.964  28.002  10.738
10740W        W82269  38.602  28.618  13.736
10741W        W82270  13.697   0.832   1.378
10742W        W82271  26.644  36.928   0.216
10743W        W82272  26.606   6.737   5.053
10744W        W82273  20.008  25.629  11.507
10745W        W82274  28.020  34.973  13.101
10746W        W82275   1.942  26.546  10.473
10747W        W82276  36.460  32.993   1.680
10748W        W82277  18.313   2.816  11.573
10749W        W82278  28.118  11.125   1.301
10750W        W82279   0.020  40.497  11.517
10751W        W82280  29.416  42.069   3.206
10752W        W82281   5.416  22.568  11.143
10753W        W82282  44.333  18.537   4.096
10754W        W82283  17.433  33.903  12.010
10755W        W82284  13.674  33.868  12.548
10756W        W82285  23.052   2.548  13.350
10757W        W82286  12.043  39.513  12.865
10758W        W82287  18.987  42.529  11.135
10759W        W82288  23.322  30.588  12.011
10760W        W82289  12.351   8.433  13.601
10761W        W82290  21.533  25.968   0.892
10762W        W82291  33.619  40.426  11.719
10763W        W82292  41.469  25.912   4.125
10764W        W82293  16.222   6.580  14.896
10765W        W82294  33.015   3.770   3.366
10766W        W82295  41.489  43.975  12.295
10767W        W82296  30.040  37.578  10.971
10768W        W82297  18.302  33.017  13.449
10769W        W82298  10.709   7.987  12.003
10770W        W82299  19.592  37.309   4.553
10771W        W82300   9.870  19.514  11.985
10772W        W82301  12.334  34.188  12.557
10773W        W82302  19.733  17.981  13.336
10774W        W82303   9.192  36.920  14.280
10775W        W82304  11.193  16.115   1.478
10776W        W82305  23.070  41.830   5.607
10777W        W82306   5.344  10.393  14.259
10778W        W82307  18.666  42.085  14.780
10779W        W82308  39.001  29.413  13.091
10780W        W82309  19.216   8.334   2.370
10781W        W82310  16.501  35.042  13.843
10782W        W82311   4.658   8.727   3.121
10783W        W82312   0.915  21.713   2.937
10784W        W82313   4.324  36.582  14.784
10785W        W82314  40.777  30.557  10.978
10786W        W82315  25.985  40.611   0.828
10787W        W82316  44.976   0.823   3.300
10788W        W82317  20.750  12.225   0.039
10789W        W82318  43.970   6.428   4.220
10790W        W82319   0.715  22.104   0.880
10791W        W82320   0.967  43.258  13.904
10792W        W82321   9.115  27.470  11.955
10793W        W82322  13.751  24.180  12.062
10794W        W82323  40.566  31.357   4.924
10795W        W82324  15.275  30.205   0.134
10796W        W82325  31.451  32.505  13.568
10797W        W82326  14.114  26.720   4.157
10798W        W82327  44.516  18.295  10.228
10799W        W82328   2.450  40.565  11.109
10800W        W82329  21.679  17.110  12.543
10801W        W82330  15.330   5.326  13.906
10802W        W82331  32.138  41.431  10.822
10803W        W82332  28.550   5.125   2.149
10804W        W82333  26.503  20.276   3.107
10805W        W82334  12.706  30.646  10.654
10806W        W82335  17.081  21.143   1.872
10807W        W82336  42.049   7.774  13.393
10808W        W82337  13.699  10.201  14.790
10809W        W82338  33.298  38.409  10.296
10810W        W82339  15.737  32.487   1.903
10811W        W82340  14.252   3.220   1.411
10812W        W82341  39.481  18.330  14.047
10813W        W82342  41.090  40.277  12.062
10814W        W82343  42.422  39.266   1.818
10815W        W82344  33.072  18.143  12.940
10816W        W82345   3.307   5.042  12.174
10817W        W82346  41.320  30.846  14.999
10818W        W82347   9.763   5.286  11.107
10819W        W82348  28.429  15.600   2.280
10820W        W82349  14.685  38.579   3.250
10821W        W82350  38.892  12.055  13.866
10822W        W82351  17.719  39.548   1.143
10823W        W82352  29.837  29.431   2.556
10824W        W82353  13.137   1.260  14.810
10825W        W82354  11.825  35.977  12.157
10826W        W82355  35.952  41.519   0.250
10827W        W82356  21.570  34.119   4.069
10828W        W82357  42.547   8.023  13.361
10829W        W82358   4.699  13.254   0.193
10830W        W82359  17.099  37.654   2.241
10831W        W82360   8.933  29.569   3.088
10832W        W82361  19.312  21.325  14.436
10833W        W82362  14.036  44.499  12.498
10834W        W82363  31.216  34.022  11.038
10835W        W82364  42.246  33.305  11.497
10836W        W82365  18.214  31.422  14.203
10837W        W82366  21.662  31.527  12.203
10838W        W82367  23.737   0.982  11.107
10839W        W82368  32.943   0.294   4.701
10840W        W82369  27.669  19.077  14.125
10841W        W82370  44.547  32.523   4.941
10842W        W82371   6.368  15.907  10.604
10843W        W82372  26.588  30.838   2.283
10844W        W82373  38.678   3.720  14.154
10845W        W82374  34.442  31.463   0.385
10846W        W82375  10.878  32.689   0.910
10847W        W82376  11.756  22.716  13.292
10848W        W82377   7.961  25.689  14.805
10849W        W82378  15.944  37.012   5.069
10850W        W82379  19.460  34.712  14.467
10851W        W82380  31.811   2.915   0.708
10852W        W82381  28.991  10.193   2.687
10853W        W82382  23.068  13.516   4.630
10854W        W82383  18.796  22.890  11.506
10855W        W82384  27.754  24.132   0.475
10856W        W82385  24.904   4.741   2.202
10857W        W82386  33.069  16.281   4.355
10858W        W82387  43.457   4.773  10.604
10859W        W82388  12.199  44.836  11.015
10860W        W82389   1.895  28.652   4.584
10861W        W82390  20.676  43.395   2.753
10862W        W82391  42.192   6.269   1.485
10863W        W82392  22.523  24.730   0.807
10864W        W82393  32.220  33.011   2.765
10865W        W82394  19.234  42.984  10.247
10866W        W82395  15.184  16.104   3.422
10867W        W82396  35.051  17.326   3.583
10868W        W82397  34.042  33.803   1.639
10869W        W82398  32.380  16.210   1.687
10870W        W82399  38.342   6.000   3.862
10871W        W82400  40.314  26.818  10.320
10872W        W82401  43.951  29.821  13.772
10873W        W82402  15.621  37.825   4.536
10874W        W82403  17.711  36.523   4.104
10875W        W82404  11.062  32.553   0.354
10876W        W82405  28.056  38.090   1.828
10877W        W82406  25.152  30.146   2.527
10878W        W82407  26.718  29.914   2.237
10879W        W82408  21.082  39.393   2.784
10880W        W82409   7.463  29.578  10.783
10881W        W82410   3.131  16.789   4.926
10882W        W82411  19.687  21.065  10.160
10883W        W82412  23.935  36.013   2.755
10884W        W82413  37.535   0.502  14.333
10885W        W82414   8.696  10.774  11.072
10886W        W82415  28.950  29.527  11.550
10887W        W82416  22.763  10.255   1.900
10888W        W82417  41.226   8.670   4.261
10889W        W82418  20.324  25.580  14.868
10890W        W82419  29.401  44.062   3.819
10891W        W82420  27.167  19.098  14.243
10892W        W82421  29.726  27.487  12.003
10893W        W82422  20.633  21.883  11.188
10894W        W82423  36.944  38.519  14.037
10895W        W82424   1.843  13.058  12.880
10896W        W82425  20.039  25.272   3.667
10897W        W82426  12.280  44.933   3.654
10898W        W82427  42.813  26.572   0.804
10899W        W82428  11.634  36.308  11.089
10900W        W82429  42.772  41.363  10.751
10901W        W82430  44.171  29.550   4.526
10902W        W82431   6.300  41.622   3.136
10903W        W82432  39.978  12.591  13.548
10904W        W82433  10.315   2.335   0.496
10905W        W82434  18.955  34.636  11.644
10906W        W82435  26.334  37.501  14.893
10907W        W82436  28.432   2.792  13.365
10908W        W82437   4.190  36.259   3.864
10909W        W82438  11.847   9.167   4.080
10910W        W82439  37.017  37.671  13.666
10911W        W82440  15.107  10.167  12.018
10912W        W82441  40.106   3.366   1.475
10913W        W82442  13.141   5.097   4.602
10914W        W82443  20.270   4.402   3.563
10915W        W82444   0.746  21.174  11.336
10916W        W82445  17.197   8.202   0.742
10917W        W82446  35.806  39.454  11.568
10918W        W82447  27.875   4.845  10.135
10919W        W82448  19.627  19.210   4.399
10920W        W82449  19.766  10.639   4.601
10921W        W82450  17.019  31.976   0.395
10922W        W82451  19.993   2.677   4.489
10923W        W82452  37.037  11.475   2.768
10924W        W82453   1.166  15.122   1.907
10925W        W82454  13.271   7.664  11.605
10926W        W82455   5.226  28.515   4.276
10927W        W82456  41.068   5.708   4.134
10928W        W82457   3.602  20.648   0.227
10929W        W82458  32.069  13.573   3.712
10930W        W82459  11.257  10.388  13.761
10931W        W82460  17.162  36.515   2.176
10932W        W82461  11.543  11.150   3.949
10933W        W82462  24.463  14.858   4.662
10934W        W82463  23.916  17.544   0.797
10935W        W82464  36.289   1.938   0.016
10936W        W82465   7.502   3.160  10.319
10937W        W82466  37.925  27.652   1.707
10938W        W82467  39.865  19.595   4.169
10939W        W82468  40.815  34.901   0.482
10940W        W82469  34.180  15.617   1.261
10941W        W82470   1.693  22.794  11.077
10942W        W82471  41.779   4.826   2.181
10943W        W82472  37.547   2.556   5.165
10944W        W82473  36.567  11.813  13.855
10945W        W82474  38.060  29.543   2.639
10946W        W82475  40.767  34.884   2.276
10947W        W82476   6.696  28.454  13.902
10948W        W82477   4.402  36.878  14.363
10949W        W82478   3.200  23.189   1.899
10950W        W82479  41.033   3.230   1.185
10951W        W82480  16.174  24.667   3.599
10952W        W82481  29.505  21.477   0.515
10953W        W82482  26.845  31.585   5.068
10954W        W82483  33.047  42.545   1.160
10955W        W82484  21.955  33.471  11.556
10956W        W82485   6.234  34.516   0.968
10957W        W82486   1.262  31.724  12.515
10958W        W82487  23.383   0.863   0.259
10959W        W82488   9.145  28.131   0.440
10960W        W82489  16.266   5.739   4.057
10961W        W82490  23.471  25.951  14.346
10962W        W82491   1.506  17.438   2.192
10963W        W82492  17.285  27.136  12.846
10964W        W82493  37.599   8.110  13.348
10965W        W82494  33.148  11.529  11.205
10966W        W82495  40.484  41.538   0.321
10967W        W82496  18.800  16.536  14.825
10968W        W82497  11.340  29.037   4.781
10969W        W82498  24.716  35.898   2.374
10970W        W82499   1.529  32.413  11.177
10971W        W82500  25.441  40.498  14.537
10972W        W82501  10.657  33.445  10.714
10973W        W82502  11.574   5.780   4.687
10974W        W82503  37.091  28.535  11.111
10975W        W82504  42.390  30.069  10.530
10976W        W82505  11.752  38.342  14.316
10977W        W82506  12.279  31.550  13.508
10978W        W82507   5.898  29.051  11.341
10979W        W82508   3.210  18.709   1.229
10980W        W82509   2.437   7.735  10.922
10981W        W82510  21.981   8.827  12.596
10982W        W82511  21.292  30.080  11.470
10983W        W82512  25.722  28.450  10.583
10984W        W82513  19.506  19.932  10.541
10985W        W82514  40.897  24.699  11.396
10986W        W82515   4.771  35.889   3.271
10987W        W82516   1.196  13.067  13.500
10988W        W82517  21.753  27.232  12.450
10989W        W82518  11.672  39.113  13.988
10990W        W82519  16.335  41.374   4.389
10991W        W82520   5.444   6.455   1.758
10992W        W82521  14.801  11.402  11.121
10993W        W82522  13.762  12.795   1.126
10994W        W82523  40.870  23.687   1.180
10995W        W82524  11.073  35.583   0.903
10996W        W82525  22.196  34.703   4.612
10997W        W82526  15.843  10.666  12.036
10998W        W82527  16.083  17.629  12.540
10999W        W82528  23.110  20.407   3.498
11000W        W82529  29.925  42.760  10.442
11001W        W82530  13.373  25.191   4.205
11002W        W82531   1.214  42.503   0.383
11003W        W82532   8.137  10.245  14.440
11004W        W82533  10.298  26.102  11.469
11005W        W82534  27.009  15.393   2.257
11006W        W82535  26.882  25.916   4.149
11007W        W82536  26.238  10.642  11.144
11008W        W82537  19.190  41.863   4.124
11009W        W82538  18.307  34.086   2.712
11010W        W82539   2.938   5.377  12.345
11011W        W82540  29.139  44.327  10.447
11012W        W82541  38.542  38.062  10.506
11013W        W82542   6.264  28.082  11.093
11014W        W82543  23.573  27.887   3.299
11015W        W82544  36.487  19.050   4.690
11016W        W82545  27.444  35.835   3.331
11017W        W82546  17.717  15.720   4.391
11018W        W82547  21.170   1.219  14.933
11019W        W82548  37.270  27.375  14.911
11020W        W82549  29.847  36.247  12.518
11021W        W82550   5.505  10.741   1.819
11022W        W82551  10.692  16.440   3.710
11023W        W82552  10.298   3.857  14.771
11024W        W82553  34.449  41.294   3.831
11025W        W82554  14.825  39.706  12.827
11026W        W82555  35.575  15.167  12.125
11027W        W82556  33.407  27.497   2.252
11028W        W82557  41.547  25.568  13.933
11029W        W82558   3.810   5.567   0.938
11030W        W82559  39.915  41.273  11.344
11031W        W82560   3.725  28.862   4.205
11032W        W82561  41.083   7.683   4.081
11033W        W82562   0.424  44.520  14.849
11034W        W82563   5.297  36.846  12.805
11035W        W82564  14.457  13.816  11.274
11036W        W82565  10.386  37.640  13.439
11037W        W82566   3.986   1.942  11.997
11038W        W82567  31.358  12.888   1.804
11039W        W82568  42.949   5.737   3.095
11040W        W82569   7.674  12.638   0.269
11041W        W82570   8.198  23.133  13.403
11042W        W82571   7.947  10.443   1.512
11043W        W82572  15.386   4.745   0.952
11044W        W82573  29.884  31.982  13.333
11045W        W82574  29.152  37.281   0.316
11046W        W82575  29.014   1.327   2.216
11047W        W82576  36.449   2.288   4.109
11048W        W82577  36.763  29.213  14.900
11049W        W82578   5.374   5.038  13.434
11050W        W82579  41.225  36.628  14.765
11051W        W82580   9.349  24.574   3.379
11052W        W82581  36.779  41.994   0.097
11053W        W82582   9.713  11.124   2.406
11054W        W82583   3.785  13.131  13.414
11055W        W82584  18.373  38.824   0.927
11056W        W82585   1.348  36.638   2.740
11057W        W82586  19.081   1.288   4.577
11058W        W82587  42.814  14.887   1.767
11059W        W82588  21.696  33.080  14.791
11060W        W82589  25.523   9.636  14.706
11061W        W82590  33.454   8.857   2.953
11062W        W82591  14.644   2.908   3.201
11063W        W82592   9.972   9.906  12.260
11064W        W82593  10.208  43.025  12.302
11065W        W82594  22.116   6.349   3.759
11066W        W82595  41.948  16.655  13.868
11067W        W82596  37.976  13.340   3.301
11068W        W82597  10.239  36.597  12.434
11069W        W82598  42.380  25.423  14.911
11070W        W82599  38.145  32.679  14.620
11071W        W82600  31.181   0.824  12.943
11072W        W82601  10.698  32.284   1.174
11073W        W82602  19.987  31.629  13.737
11074W        W82603  39.808  32.581  12.182
11075W        W82604  20.023   7.672  13.589
11076W        W82605  38.085   0.242   2.418
11077W        W82606  14.536  25.721   0.569
11078W        W82607  16.161  23.415   1.258
11079W        W82608  14.047  42.145   2.606
11080W        W82609  19.777  30.104  11.647
11081W        W82610   0.863  25.105   2.183
11082W        W82611  37.878  13.100   4.638
11083W        W82612  12.826  28.817  11.291
11084W        W82613  32.682  16.575   3.481
11085W        W82614   2.427  28.132   1.282
11086W        W82615  12.725  26.747   2.343
11087W        W82616  39.801  18.218  12.866
11088W        W82617  30.929  28.285   1.874
11089W        W82618  19.247   4.722  10.446
11090W        W82619   1.979  19.719   0.459
11091W        W82620   5.680  42.927  11.107
11092W        W82621  34.529  16.750   3.213
11093W        W82622  14.280   1.577   3.288
11094W        W82623  44.333  13.150   0.306
11095W        W82624  20.543  22.598   3.164
11096W        W82625  29.601  27.462  12.496
11097W        W82626  24.251  11.390  14.543
11098W        W82627  16.206  29.963  13.879
11099W        W82628  36.600  26.505  10.720
11100W        W82629  10.097   1.580   5.049
11101W        W82630  33.372   1.647   9.897
11102W        W82631  21.743  27.907   3.235
11103W        W82632  12.892   6.299  13.865
11104W        W82633   0.996  38.169   2.107
11105W        W82634   1.268  24.986  14.853
11106W        W82635  34.982  11.795  12.051
11107W        W82636  26.955   7.636   4.583
11108W        W82637   0.959   3.785   4.734
11109W        W82638   1.295  13.122   3.720
11110W        W82639  13.852  13.849   3.638
11111W        W82640   4.281   7.125   1.959
11112W        W82641  17.814   5.936   1.148
11113W        W82642   5.579  11.215   0.843
11114W        W82643  12.276  35.841   3.391
11115W        W82644  33.266   9.598  10.141
11116W        W82645  42.912  20.355   3.716
11117W        W82646  40.481  36.844   4.522
11118W        W82647  35.542  19.857   0.267
11119W        W82648  24.667   0.177   2.851
11120W        W82649  20.790  32.977   0.640
11121W        W82650  28.855  11.259   0.791
11122W        W82651   8.852  13.133   3.724
11123W        W82652  37.238  38.433   1.309
11124W        W82653  26.645  16.014  14.941
11125W        W82654  41.317  24.739   2.890
11126W        W82655  20.259  16.824  11.163
11127W        W82656  29.929  38.511   2.327
11128W        W82657  25.693  14.329  14.179
11129W        W82658  25.155   2.833  11.466
11130W        W82659  10.655  29.978   1.237
11131W        W82660   6.678   8.189   1.781
11132W        W82661  29.564   5.878  10.705
11133W        W82662  10.345  36.499  10.690
11134W        W82663  34.164  21.559  11.083
11135W        W82664  43.090  14.263  12.429
11136W        W82665  21.086  39.263  10.347
11137W        W82666  17.157  12.656   0.017
11138W        W82667  31.367  32.977   1.990
11139W        W82668  15.206  26.572   0.415
11140W        W82669  29.113  25.780  11.994
11141W        W82670  40.605  27.891   2.241
11142W        W82671  30.659  16.652   4.261
11143W        W82672   3.439   4.951  11.205
11144W        W82673   5.948  39.319   1.834
11145W        W82674  11.602  30.533   1.139
11146W        W82675  31.104   5.844  14.738
11147W        W82676  16.700  41.913  12.917
11148W        W82677  14.202   8.359   5.039
11149W        W82678  38.878  30.921   2.881
11150W        W82679  34.283  20.253   3.211
11151W        W82680  18.211  13.000   4.743
11152W        W82681  37.594  24.725   3.843
11153W        W82682  34.901  14.060  13.563
11154W        W82683  18.340  33.515   4.608
11155W        W82684  29.933  10.538   4.084
11156W        W82685  14.821   7.579  12.405
11157W        W82686  28.474  27.815  12.977
11158W        W82687  24.056   4.735  14.892
11159W        W82688   9.373  29.023   0.450
11160W        W82689  25.855  41.415  11.949
11161W        W82690  44.734  22.997  11.504
11162W        W82691   5.053   9.419  12.376
11163W        W82692  20.096  38.453   2.162
11164W        W82693  27.717  16.656   4.029
11165W        W82694  40.132  27.287   1.660
11166W        W82695  30.400  12.758  11.636
11167W        W82696  23.032  33.433   2.678
11168W        W82697  35.005  26.764   5.101
11169W        W82698  32.171   8.932  12.687
11170W        W82699   7.168  15.036  13.073
11171W        W82700  44.342   5.742   1.440
11172W        W82701  16.788   9.809  14.887
11173W        W82702  24.820   4.618  12.810
11174W        W82703   6.707  38.800  12.104
11175W        W82704  18.749  18.602  10.731
11176W        W82705   2.563  36.462  14.387
11177W        W82706  25.660  14.600   1.528
11178W        W82707  30.013  13.388  12.470
11179W        W82708  32.618  43.951  13.510
11180W        W82709   8.884  22.049  10.839
11181W        W82710  13.411  40.577  13.032
11182W        W82711  20.056  22.655   4.642
11183W        W82712  38.197  12.324   3.839
11184W        W82713  19.569  10.561  13.031
11185W        W82714  16.154  28.030   4.473
11186W        W82715   1.954   1.958   1.410
11187W        W82716  12.788  42.776   4.199
11188W        W82717  27.487  42.487  13.494
11189W        W82718  41.711   7.600   2.438
11190W        W82719  41.131  22.639  12.857
11191W        W82720  23.237  38.025  13.349
11192W        W82721  28.079  25.454  14.999
11193W        W82722  27.528  35.990  14.906
11194W        W82723  43.948  19.969   3.257
11195W        W82724  14.619  17.438   1.155
11196W        W82725  25.273  18.827   2.929
11197W        W82726  39.466   2.810   2.875
11198W        W82727  22.797   9.754  11.995
11199W        W82728  11.085  12.229  12.801
11200W        W82729  13.373   9.869   0.808
11201W        W82730   8.232  36.413  11.603
11202W        W82731  27.589  12.513  10.647
11203W        W82732  44.785  41.411   0.328
11204W        W82733  10.213  23.258   2.969
11205W        W82734  14.862  28.221   4.578
11206W        W82735  23.031   2.238  12.903
11207W        W82736   6.377  18.715  14.823
11208W        W82737  44.399  25.464   2.871
11209W        W82738   7.134   6.855   3.308
11210W        W82739  44.751  17.530   2.833
11211W        W82740  34.541  28.018  13.948
11212W        W82741  20.035  20.726   2.974
11213W        W82742  15.365  24.199  13.039
11214W        W82743  11.678  39.970   0.416
11215W        W82744  44.993   4.297   1.433
11216W        W82745  38.587  20.226  14.375
11217W        W82746  15.939  42.967   4.822
11218W        W82747  24.942  17.575  13.041
11219W        W82748  30.966   8.701   0.187
11220W        W82749  35.648   8.883  13.079
11221W        W82750  10.290   9.100   2.709
11222W        W82751   1.920  44.569   9.933
11223W        W82752   8.966   2.327  10.334
11224W        W82753  15.556   8.729  14.506
11225W        W82754   6.687  23.059   1.305
11226W        W82755  27.909  43.273  11.723
11227W        W82756   4.449  40.883  14.351
11228W        W82757  14.965   7.847   2.404
11229W        W82758  44.006   1.395   2.225
11230W        W82759  14.109  36.098  11.855
11231W        W82760  19.815  23.198  13.341
11232W        W82761  23.525   7.333  12.863
11233W        W82762  32.931  39.699  13.200
11234W        W82763  21.466  24.728  13.032
11235W        W82764  36.412  44.174  11.066
11236W        W82765  44.253  40.193   2.199
11237W        W82766   9.410  27.402   2.520
11238W        W82767  26.027   7.318  13.578
11239W        W82768  28.636  32.960   0.675
11240W        W82769  27.530  35.193   0.740
11241W        W82770  30.879   6.859  11.791
11242W        W82771  20.587  23.864  11.634
11243W        W82772   8.731  12.249   1.431
11244W        W82773   0.691  34.892   3.112
11245W        W82774  19.750   1.327  13.373
11246W        W82775  11.843  35.124   3.166
11247W        W82776  13.641   6.786  14.044
11248W        W82777  23.214  21.144  11.470
11249W        W82778  14.305  41.928  12.976
11250W        W82779  13.208  27.757   1.147
11251W        W82780  17.145   5.063   4.441
11252W        W82781   3.314   2.490   1.035
11253W        W82782  15.591   3.449   4.199
11254W        W82783  12.772  28.453   0.042
11255W        W82784  26.188  19.632   4.278
11256W        W82785   0.763   6.815   0.220
11257W        W82786  43.471  12.763  14.286
11258W        W82787  37.109  16.211   1.944
11259W        W82788  23.694  10.414   4.084
11260W        W82789  10.081  15.218   1.337
11261W        W82790  28.064   9.629   3.216
11262W        W82791  24.330  21.709   2.730
11263W        W82792  12.511   3.237   4.536
11264W        W82793  12.100   5.366  11.947
11265W        W82794   3.450  21.489   1.889
11266W        W82795  32.076   1.943  11.554
11267W        W82796  12.859  15.340  12.000
11268W        W82797   6.480  11.800   0.932
11269W        W82798   1.501   0.568  10.713
11270W        W82799   9.807  12.198  13.464
11271W        W82800  13.723  16.707   3.730
11272W        W82801  38.520  34.173   0.865
11273W        W82802  31.405  36.820  14.213
11274W        W82803  13.138  41.541  14.754
11275W        W82804   9.932   2.262   3.977
11276W        W82805  24.278  34.025   2.313
11277W        W82806  11.060  33.344  14.291
11278W        W82807  26.023  10.676  12.140
11279W        W82808  42.384  38.578   4.441
11280W        W82809  41.111   4.164   2.165
11281W        W82810  28.375  42.496  11.612
11282W        W82811  26.768  34.457  13.353
11283W        W82812  14.601  11.890   4.282
11284W        W82813   8.731  38.086  13.958
11285W        W82814  33.491  43.907  12.669
11286W        W82815  32.877  37.141  14.284
11287W        W82816  13.768  19.723  12.816
11288W        W82817  11.616   5.523  11.979
11289W        W82818  31.012  22.853  10.203
11290W        W82819  28.007  18.315   1.615
11291W        W82820  37.741  16.761   2.878
11292W        W82821  18.741  32.629   1.871
11293W        W82822  28.180  34.597   1.256
11294W        W82823  19.775  26.072   0.357
11295W        W82824  12.201  42.270   1.108
11296W        W82825   5.873  38.896   4.604
11297W        W82826   2.005  11.242  12.624
11298W        W82827   6.393  44.923   0.963
11299W        W82828  26.343   2.078  14.727
11300W        W82829  28.577  20.285  14.384
11301W        W82830  30.783  33.883  14.437
11302W        W82831  21.206  19.784  13.427
11303W        W82832   1.480  20.578   2.372
11304W        W82833  17.603   3.154   2.237
11305W        W82834  43.214  16.645   3.310
11306W        W82835  15.854  28.727  12.584
11307W        W82836  26.288  12.655  11.880
11308W        W82837  23.226   6.128   1.237
11309W        W82838  14.290  37.856   4.102
11310W        W82839  16.815   2.235   3.278
11311W        W82840   7.676  13.339  14.438
11312W        W82841  37.088  28.041  12.458
11313W        W82842  38.090  25.700   4.532
11314W        W82843  42.740  24.936  14.048
11315W        W82844   9.666   6.407   2.921
11316W        W82845  39.524  16.837  14.035
11317W        W82846  26.453   1.082   1.385
11318W        W82847   7.455  39.390  11.143
11319W        W82848   4.962  37.328   4.035
11320W        W82849  29.774  38.550  14.701
11321W        W82850  23.530  29.475   0.777
11322W        W82851  43.076   0.842  13.053
11323W        W82852  22.197  38.831  14.826
11324W        W82853  38.827   8.179   0.509
11325W        W82854  33.410   4.918  11.027
11326W        W82855   8.731  34.846  12.277
11327W        W82856  20.833   8.288  12.980
11328W        W82857  37.823  18.358   0.216
11329W        W82858   0.959  25.365   0.832
11330W        W82859  39.543  11.287  10.626
11331W        W82860  13.731  12.205  11.888
11332W        W82861   9.321  14.686  12.060
11333W        W82862  12.526   9.093   1.860
11334W        W82863  42.272  16.369  13.574
11335W        W82864   8.787  18.037  11.469
11336W        W82865  38.898   8.202  14.470
11337W        W82866   9.553   7.635  11.947
11338W        W82867  43.721  26.808   0.585
11339W        W82868  34.583  37.880   0.352
11340W        W82869  36.139  38.981   3.689
11341W        W82870  29.295  31.894   0.281
11342W        W82871   7.585   8.214  10.802
11343W        W82872   7.724   4.376   3.665
11344W        W82873  36.371  14.747   1.675
11345W        W82874   2.647  41.200  14.972
11346W        W82875  38.010  39.928  13.540
11347W        W82876  16.729  20.918  13.760
11348W        W82877  28.393   0.910   1.342
11349W        W82878  36.371  10.849   3.622
11350W        W82879  33.329   7.224  12.176
11351W        W82880  16.704  12.272   3.398
11352W        W82881   1.777  21.801   2.601
11353W        W82882  31.870  26.442   0.456
11354W        W82883  13.098  42.763   2.618
11355W        W82884  32.903   9.844   4.541
11356W        W82885  34.437  13.823   1.314
11357W        W82886  43.436  44.734  14.365
11358W        W82887  31.743  39.209  12.041
11359W        W82888  21.791  14.115  10.642
11360W        W82889  43.295  37.042  11.999
11361W        W82890  27.502   1.307   1.242
11362W        W82891  39.593  26.450  10.192
11363W        W82892  16.274  33.973   2.149
11364W        W82893  29.473  32.232  10.725
11365W        W82894  15.766  25.481  11.572
11366W        W82895  10.402  15.111  12.560
11367W        W82896   9.221  34.594   0.448
11368W        W82897  23.768   1.126  14.509
11369W        W82898  28.746  37.960  10.592
11370W        W82899  38.593   1.370   0.686
11371W        W82900  19.797  34.449   2.165
11372W        W82901  40.795  21.617  10.741
11373W        W82902   8.154  11.748  11.238
11374W        W82903  19.607  10.374  11.613
11375W        W82904  14.288  39.775  11.063
11376W        W82905  32.330  23.471   0.041
11377W        W82906  35.633  12.562   1.110
11378W        W82907  39.403  14.373  13.229
11379W        W82908  30.674  16.579   1.942
11380W        W82909   0.146  40.436  11.010
11381W        W82910  23.719   2.553   0.417
11382W        W82911   7.204  37.957  14.966
11383W        W82912   8.386  24.915  14.043
11384W        W82913   5.529  43.337  11.516
11385W        W82914  21.186  28.640   3.998
11386W        W82915  35.413  39.328  11.229
11387W        W82916  42.156  17.062  11.192
11388W        W82917  14.845  16.745   2.815
11389W        W82918  13.754  12.412   4.226
11390W        W82919  29.602   5.720  12.637
11391W        W82920   8.688  10.215   3.371
11392W        W82921  31.657   3.355  12.285
11393W        W82922   9.090  15.331  11.178
11394W        W82923  44.179  11.564  12.629
11395W        W82924  16.734   7.419  13.294
11396W        W82925  35.299   4.922  10.715
11397W        W82926  13.783  16.804   1.420
11398W        W82927  14.193  22.117   4.331
11399W        W82928  10.161  40.093   1.431
11400W        W82929   6.423  11.819   0.027
11401W        W82930  39.865  14.033   2.625
11402W        W82931   4.619  34.443   0.773
11403W        W82932  11.048  20.167   4.495
11404W        W82933  13.078  32.193   1.855
11405W        W82934  23.118  14.115  14.097
11406W        W82935  31.935  24.580   3.715
11407W        W82936  43.754  15.790   3.335
11408W        W82937  19.087   2.320   2.622
11409W        W82938  39.870   3.870   2.109
11410W        W82939  15.256  19.447   2.295
11411W        W82940  14.652   8.970  13.553
11412W        W82941  26.563   3.076  10.778
11413W        W82942   8.361  11.456   1.853
11414W        W82943  22.818   8.621  10.267
11415W        W82944  25.296  32.059  13.340
11416W        W82945  28.654  25.160   5.136
11417W        W82946  42.736  19.056   1.694
11418W        W82947   1.860  12.419  13.742
11419W        W82948  43.861  13.728   1.808
11420W        W82949  11.117  35.045   4.073
11421W        W82950  12.199  32.662  11.107
11422W        W82951  40.918   9.472  14.320
11423W        W82952  29.880   8.749  11.402
11424W        W82953  42.459  11.226  11.622
11425W        W82954  23.488  39.251   4.165
11426W        W82955  12.319  24.536   0.950
11427W        W82956  13.851   7.150  11.722
11428W        W82957  44.840  39.339   2.345
11429W        W82958  37.379  42.717  11.348
11430W        W82959  11.768  19.309  13.340
11431W        W82960  30.837  37.982  12.519
11432W        W82961  16.230   6.353  10.603
11433W        W82962   6.410  21.139   3.163
11434W        W82963  25.458  26.669   4.141
11435W        W82964  25.067  17.232  14.005
11436W        W82965  32.048   3.226   2.808
11437W        W82966   8.604   4.332   3.379
11438W        W82967  35.413  16.142   3.373
11439W        W82968  36.566  26.683   2.315
11440W        W82969  31.412  36.085  10.629
11441W        W82970  29.465  34.955   4.195
11442W        W82971   9.274   8.155  13.300
11443W        W82972  25.723   6.109   2.482
11444W        W82973  12.606  18.670  12.941
11445W        W82974  37.828   6.447   1.444
11446W        W82975  18.338  14.765   0.300
11447W        W82976  35.357   9.755  12.476
11448W        W82977   7.082  36.479  14.594
11449W        W82978  31.612  25.690  14.837
11450W        W82979   6.613  39.830   3.093
11451W        W82980  30.111  29.062   1.443
11452W        W82981  38.845  30.665  14.909
11453W        W82982   6.496  38.367   1.873
11454W        W82983  35.523  30.438  14.491
11455W        W82984  24.621  22.499   2.282
11456W        W82985   5.239  28.338   1.317
11457W        W82986  12.573   5.253  12.073
11458W        W82987  41.817  21.091  12.171
11459W        W82988  26.057  43.324  14.677
11460W        W82989  33.604  36.995  11.559
11461W        W82990  37.805   3.352  11.982
11462W        W82991   0.416   5.448   4.392
11463W        W82992  28.455  42.933  10.561
11464W        W82993   5.418  30.020  14.071
11465W        W82994   3.921  41.899  14.862
11466W        W82995   5.458  21.497   4.483
11467W        W82996  42.306   7.281  12.684
11468W        W82997  17.291   4.786   2.834
11469W        W82998  41.452  39.749   0.971
11470W        W82999  31.630  30.620   0.274
11471W        W83000  39.901  29.098   1.903
11472W        W83001   0.832   7.846  12.834
11473W        W83002  37.870  11.729  13.578
11474W        W83003  37.419  27.648  12.612
11475W        W83004  44.961  27.501   0.271
11476W        W83005  26.468  22.655   3.826
11477W        W83006  36.478  28.132   4.607
11478W        W83007  32.078  34.388   4.524
11479W        W83008  35.413  10.247  13.017
11480W        W83009  43.247  44.280  12.995
11481W        W83010  42.580  37.453  14.480
11482W        W83011  12.873  39.791  10.622
11483W        W83012  37.210  41.538   9.409
11484W        W83013   5.261   5.700   2.321
11485W        W83014   2.062  29.541  12.033
11486W        W83015  16.102  42.764  13.730
11487W        W83016  32.435   0.433  14.591
11488W        W83017  38.988  17.996  13.374
11489W        W83018  42.258  15.207  14.694
11490W        W83019  29.062  26.571  13.203
11491W        W83020   4.786   3.954  10.584
11492W        W83021   5.068   8.856   0.916
11493W        W83022  34.965   8.174  14.786
11494W        W83023  32.255  43.727   2.618
11495W        W83024  10.969   5.428  10.700
11496W        W83025  17.687  26.682   0.217
11497W        W83026  35.390  42.278  12.949
11498W        W83027  10.652  39.608   3.833
11499W        W83028  13.428  11.178   4.574
11500W        W83029  32.587  42.491   4.248
11501W        W83030  34.022  30.023  13.827
11502W        W83031  17.810   2.330  14.273
11503W        W83032  17.413  34.541  11.687
11504W        W83033   2.402   6.516   5.032
11505W        W83034  17.748   9.180  11.034
11506W        W83035  41.972   0.186   1.961
11507W        W83036  13.311  22.279   1.426
11508W        W83037  43.365  34.090  13.981
11509W        W83038  15.444  35.833  14.057
11510W        W83039   8.358   4.350  13.923
11511W        W83040  16.915  14.132  10.853
11512W        W83041  22.059  27.960   3.673
11513W        W83042  25.683  27.435  14.554
11514W        W83043  23.877  37.651   1.226
11515W        W83044  43.127  40.558  10.956
11516W        W83045  35.912  17.017   2.540
11517W        W83046  40.083  24.976  14.415
11518W        W83047  39.358   8.249   1.295
11519W        W83048  44.765  36.818  10.629
11520W        W83049  25.357  27.314  12.721
11521W        W83050  25.178  20.249   2.348
11522W        W83051  40.687  15.436   4.948
11523W        W83052   8.020  19.195   5.054
11524W        W83053   9.125   3.396   1.690
11525W        W83054   8.389  23.989  14.455
11526W        W83055   8.541   6.695   0.448
11527W        W83056   7.806  15.419   4.016
11528W        W83057  21.214  33.599   2.280
11529W        W83058  39.047  15.311   2.371
11530W        W83059  38.224  19.270   1.990
11531W        W83060  41.797  20.022  12.565
11532W        W83061  17.781   9.608   3.935
11533W        W83062   1.243  12.559  13.502
11534W        W83063  18.316  35.041   4.274
11535W        W83064  41.973  24.406  10.420
11536W        W83065   5.495   0.390  12.016
11537W        W83066   6.266  27.702  13.447
11538W        W83067   5.857  35.201  13.424
11539W        W83068  17.407  39.969   3.605
11540W        W83069  11.734  40.991   4.349
11541W        W83070  15.556  12.318   2.456
11542W        W83071  17.141  15.266  10.710
11543W        W83072  16.564  26.220  12.356
11544W        W83073  24.969  37.537   3.159
11545W        W83074  26.177  28.737   3.801
11546W        W83075  20.399  16.263  12.349
11547W        W83076  39.907  35.435   1.971
11548W        W83077  34.837  37.363  13.964
11549W        W83078  28.162  13.827  11.539
11550W        W83079  40.884   0.181  10.464
11551W        W83080  11.533  32.417   1.259
11552W        W83081  37.782  14.803   1.173
11553W        W83082  38.235   0.519  11.499
11554W        W83083   1.294  19.496  11.259
11555W        W83084   0.746  13.124  14.570
11556W        W83085  23.237  39.002   3.081
11557W        W83086  39.453  27.249   2.287
11558W        W83087  33.860   2.899   0.433
11559W        W83088  22.802  31.439  12.113
11560W        W83089  31.431  30.303  11.576
11561W        W83090  23.727   4.759  14.486
11562W        W83091  32.726   4.151   1.016
11563W        W83092  14.749   9.840  11.599
11564W        W83093  20.389  19.513  13.784
11565W        W83094  13.191  14.349  12.968
11566W        W83095  36.805  25.651  12.438
11567W        W83096  37.878  41.539   2.118
11568W        W83097  24.732  20.052  13.855
11569W        W83098  12.202  10.617   0.784
11570W        W83099  34.281  33.468  10.424
11571W        W83100   6.457  20.139  11.053
11572W        W83101   3.388  29.663   5.051
11573W        W83102  28.547   7.919  14.354
11574W        W83103   4.354  36.608   3.507
11575W        W83104   2.379   6.569   4.506
11576W        W83105  21.482  25.074   2.362
11577W        W83106  30.133  21.247  12.439
11578W        W83107  30.168  17.683   3.902
11579W        W83108  20.103  20.144  14.546
11580W        W83109  42.364   8.196  14.277
11581W        W83110  38.091  12.814   1.372
11582W        W83111  13.152  33.808  12.810
11583W        W83112  10.411  16.713   2.377
11584W        W83113  38.128  17.560  12.354
11585W        W83114   2.215  40.366   4.819
11586W        W83115  22.544   3.813   4.866
11587W        W83116  37.390  44.310  14.216
11588W        W83117  26.627   0.269   3.701
11589W        W83118  28.281  31.641  10.291
11590W        W83119  17.091  30.602   3.670
11591W        W83120  11.869  38.447   2.707
11592W        W83121  25.589  14.221   4.658
11593W        W83122   5.572  27.654   2.691
11594W        W83123  20.467  15.750  10.798
11595W        W83124  25.477  29.130   1.897
11596W        W83125   2.023  41.453   2.729
11597W        W83126  17.373  18.313  14.182
11598W        W83127  12.708  36.593  14.066
11599W        W83128  37.486   4.350   0.702
11600W        W83129   6.941  33.567   1.241
11601W        W83130  38.509  29.583   0.481
11602W        W83131   1.865  42.787  14.008
11603W        W83132  22.874  32.935  10.673
11604W        W83133  37.530   8.317  14.822
11605W        W83134  17.345  32.319   2.152
11606W        W83135  20.735   8.084  10.951
11607W        W83136  10.217   9.781  12.739
11608W        W83137  37.290  14.654   1.174
11609W        W83138  15.515  41.005  14.774
11610W        W83139  23.683  37.858   4.324
11611W        W83140  40.010  38.428  12.481
11612W        W83141  12.838  14.275   4.792
11613W        W83142  15.214   6.413  13.167
11614W        W83143  23.001  40.677   9.961
11615W        W83144   6.883  42.214  13.310
11616W        W83145  29.046  19.502  11.153
11617W        W83146   7.323  13.593   0.832
11618W        W83147  40.443  33.934  11.970
11619W        W83148  43.956   1.493  14.710
11620W        W83149  14.572  28.344  12.532
11621W        W83150  18.673  25.608   4.859
11622W        W83151  32.345   8.285   2.735
11623W        W83152  34.741  37.148  12.398
11624W        W83153  40.925  27.679   1.594
11625W        W83154  40.573   3.164   1.412
11626W        W83155  19.081  37.791  14.006
11627W        W83156  43.995  22.014   1.531
11628W        W83157  25.008  25.951   2.263
11629W        W83158  37.457  38.429   2.420
11630W        W83159  29.479  44.864  10.595
11631W        W83160  39.368  17.993   5.045
11632W        W83161   2.202   0.483   3.648
11633W        W83162  10.749   7.450  11.160
11634W        W83163   3.228  41.911   2.310
11635W        W83164  44.814  14.140  12.030
11636W        W83165  15.691   5.269   4.967
11637W        W83166  19.122  25.143  11.880
11638W        W83167   5.309  42.771  13.601
11639W        W83168  41.970  30.906   3.312
11640W        W83169  16.650  40.492   0.552
11641W        W83170  24.986  31.969  12.949
11642W        W83171   6.195  12.205   1.679
11643W        W83172  41.311  28.436   2.338
11644W        W83173   6.576  39.004  14.271
11645W        W83174  43.928   9.418   4.166
11646W        W83175  33.974  24.805   5.027
11647W        W83176  20.553  36.467   3.831
11648W        W83177  21.632   2.153   0.422
11649W        W83178  21.187  11.876  10.928
11650W        W83179  12.737  10.749   2.130
11651W        W83180   6.281  15.121  12.971
11652W        W83181  25.786  37.145  14.414
11653W        W83182  37.249  40.082  10.829
11654W        W83183  12.659  29.197  13.598
11655W        W83184  23.618  24.974   3.375
11656W        W83185  17.277  33.575   3.297
11657W        W83186   7.206  23.325  13.352
11658W        W83187  27.009  43.695   1.225
11659W        W83188  31.528  22.180   0.558
11660W        W83189  26.380   5.963   0.295
11661W        W83190  31.912  11.661  12.121
11662W        W83191   5.733  35.836   1.412
11663W        W83192  35.840  32.555   2.847
11664W        W83193  35.040  19.655   0.313
11665W        W83194  27.575  16.406   1.727
11666W        W83195  22.261   7.989   0.291
11667W        W83196  34.561  12.641   2.076
11668W        W83197   5.384  32.841  12.969
11669W        W83198  11.156  43.188  12.769
11670W        W83199  30.908  38.288   4.459
11671W        W83200  10.634  16.246  11.534
11672W        W83201  12.723  42.432  12.073
11673W        W83202   0.834  30.401  11.499
11674W        W83203  23.091   9.291  14.395
11675W        W83204  31.567  13.699   2.244
11676W        W83205  16.932  13.724  14.498
11677W        W83206  19.585  37.852  12.444
11678W        W83207   7.065  27.661  14.106
11679W        W83208   2.997   1.241  12.130
11680W        W83209  23.527  29.237  11.950
11681W        W83210  42.399   7.187   2.486
11682W        W83211   3.840  24.113   5.148
11683W        W83212  28.988  32.821   4.587
11684W        W83213  28.042  18.993  13.462
11685W        W83214  39.268  19.206  12.087
11686W        W83215   8.723   7.880   2.776
11687W        W83216   4.228   0.436   1.346
11688W        W83217   2.945   9.293   1.356
11689W        W83218  19.873  17.116  14.425
11690W        W83219   5.172  28.129  14.583
11691W        W83220  27.062   4.109  14.337
11692W        W83221  36.983  33.123  10.609
11693W        W83222  26.112   2.903   2.792
11694W        W83223  23.645  19.263   4.247
11695W        W83224   7.892   6.787   2.907
11696W        W83225  42.814  42.910   4.513
11697W        W83226  44.470  23.060   4.379
11698W        W83227  12.363  22.294  14.872
11699W        W83228  38.590  23.055   2.498
11700W        W83229  33.357   2.855  14.453
11701W        W83230  27.899   2.938  11.594
11702W        W83231   2.739  26.638   4.118
11703W        W83232   6.078   4.277  14.791
11704W        W83233  35.488  16.744  10.471
11705W        W83234   4.741  12.959   3.663
11706W        W83235  13.370  19.516   5.081
11707W        W83236   3.886   2.801   4.628
11708W        W83237  10.069  25.210  13.351
11709W        W83238  13.139  37.302  14.312
11710W        W83239  32.610   8.118   1.799
11711W        W83240  21.540  34.464  12.100
11712W        W83241  12.573  14.732  14.338
11713W        W83242  32.726  38.003   2.356
11714W        W83243  17.161  23.111   5.001
11715W        W83244   8.269  35.965   2.424
11716W        W83245  28.230  27.094   4.222
11717W        W83246  36.390  19.104   2.628
11718W        W83247   4.505  27.219   0.755
11719W        W83248  26.516  32.056   0.263
11720W        W83249  40.989  28.745  12.459
11721W        W83250   8.738  34.310   0.400
11722W        W83251  30.296  22.028   1.859
11723W        W83252  16.411  23.233  10.667
11724W        W83253   9.130  28.570  10.714
11725W        W83254  26.839  37.224  11.166
11726W        W83255  32.538  31.526   0.392
11727W        W83256  42.453  21.664  12.122
11728W        W83257  15.746  20.128   2.318
11729W        W83258   4.374  30.902  12.203
11730W        W83259  13.047  41.912  10.712
11731W        W83260  21.025  28.663  14.918
11732W        W83261   7.322  20.158  10.286
11733W        W83262  24.162   1.563  14.296
11734W        W83263  27.179  24.466  12.638
11735W        W83264  23.204  41.433  11.008
11736W        W83265   0.443   0.027  14.783
11737W        W83266  22.263  25.493  11.238
11738W        W83267   3.801  18.835   2.659
11739W        W83268  27.948  36.496  12.538
11740W        W83269  21.941  19.738   0.808
11741W        W83270  21.017  19.250   2.681
11742W        W83271  33.362  44.728   1.391
11743W        W83272  15.210  37.864   1.721
11744W        W83273   9.706   6.266  12.026
11745W        W83274  19.608   2.193   3.794
11746W        W83275  32.510  39.812  11.934
11747W        W83276   6.292  33.545  12.111
11748W        W83277  25.146  33.999   2.340
11749W        W83278  16.589   3.691  11.994
11750W        W83279  33.714  32.606  10.428
11751W        W83280   3.186   6.360   2.460
11752W        W83281   2.968  41.097   0.853
11753W        W83282  29.993  20.254  12.498
11754W        W83283  18.611  36.397  13.336
11755W        W83284  16.212  21.075   1.296
11756W        W83285   7.931  42.559  11.972
11757W        W83286  23.931  29.446  14.997
11758W        W83287  43.281   7.262  11.285
11759W        W83288   4.158  13.554   1.836
11760W        W83289  42.328  30.810  14.235
11761W        W83290  34.810  12.061  13.850
11762W        W83291  27.652   0.436   0.280
11763W        W83292  14.292  14.375  14.905
11764W        W83293  19.465  19.591  11.983
11765W        W83294  20.673  25.677   0.579
11766W        W83295   8.125  34.711   1.993
11767W        W83296  22.753  21.955  11.825
11768W        W83297  16.808  15.555   3.211
11769W        W83298  33.587   5.992  13.640
11770W        W83299   2.218   8.066   4.088
11771W        W83300  41.819  28.484   2.260
11772W        W83301  26.439   5.861   1.706
11773W        W83302  40.922  39.666  14.349
11774W        W83303  33.463  13.630   0.916
11775W        W83304   0.911  36.409   1.005
11776W        W83305  14.155  12.721  12.341
11777W        W83306  12.572   2.362  11.672
11778W        W83307  20.015  36.397   0.930
11779W        W83308   1.670  17.870   1.915
11780W        W83309  32.964  41.552  10.615
11781W        W83310  27.201  20.133   4.532
11782W        W83311  43.249   5.152  11.523
11783W        W83312   4.277  11.914  11.975
11784W        W83313  28.694  31.696  14.989
11785W        W83314  41.712  32.501  14.257
11786W        W83315   1.069  40.446  13.639
11787W        W83316  17.442  38.081  11.233
11788W        W83317   5.837  32.633   3.839
11789W        W83318  36.167  20.047   2.906
11790W        W83319  16.846  22.957   0.746
11791W        W83320   2.151  34.399  13.149
11792W        W83321  26.634  28.098  11.793
11793W        W83322  33.982  10.632   1.713
11794W        W83323   5.779   2.199   1.970
11795W        W83324   6.168  21.701   1.391
11796W        W83325  14.846  25.969   1.687
11797W        W83326  14.779  20.211  13.832
11798W        W83327  17.578  21.619  13.872
11799W        W83328  39.439  22.450   1.286
11800W        W83329  29.429  36.957  12.123
11801W        W83330  29.738   0.694   5.149
11802W        W83331   3.362  10.549   1.042
11803W        W83332  13.724  30.685   3.651
11804W        W83333  33.766   2.378   2.766
11805W        W83334  24.293  20.660  14.478
11806W        W83335  43.790   8.038  12.445
11807W        W83336  26.925  11.136   4.924
11808W        W83337  13.575  22.021  12.668
11809W        W83338  35.013   7.136   0.706
11810W        W83339  21.094  39.702   0.320
11811W        W83340   3.436  26.961   4.088
11812W        W83341  11.811  37.267   9.901
11813W        W83342  33.434  29.184   0.429
11814W        W83343   6.106  34.445  11.587
11815W        W83344  40.480  37.646  12.952
11816W        W83345  33.070  29.452  12.874
11817W        W83346  22.605  24.698  14.540
11818W        W83347  41.829  23.954  13.534
11819W        W83348  34.032   0.309   1.322
11820W        W83349  39.065  28.130   0.936
11821W        W83350  35.216  26.294   4.986
11822W        W83351  15.965  20.016  14.417
11823W        W83352   3.540  29.943  12.394
11824W        W83353  20.598  25.099  14.208
11825W        W83354  13.221  21.281   4.213
11826W        W83355  38.863  37.499   3.246
11827W        W83356   8.550   5.883  11.623
11828W        W83357   8.118  43.214  13.334
11829W        W83358  33.837  40.435   3.657
11830W        W83359  23.461  19.127   0.487
11831W        W83360  28.021  26.197   2.213
11832W        W83361  32.589   0.066  13.831
11833W        W83362  32.716  29.576   1.265
11834W        W83363  12.291  33.346  14.009
11835W        W83364  20.565  40.532   3.258
11836W        W83365  17.783  10.364   3.638
11837W        W83366  10.184  36.771  14.409
11838W        W83367  20.150  20.186   0.579
11839W        W83368  21.689  10.701  10.801
11840W        W83369   6.185  30.388  10.376
11841W        W83370  27.472   1.259  10.604
11842W        W83371  32.437  23.780  10.581
11843W        W83372   8.515  11.710   1.300
11844W        W83373  35.522  36.965  10.793
11845W        W83374   4.159  22.441  14.822
11846W        W83375  20.856  30.275  11.645
11847W        W83376  39.598  36.085  10.631
11848W        W83377  30.215  34.077  12.889
11849W        W83378   5.326   4.883  12.053
11850W        W83379  32.740  10.615   0.394
11851W        W83380  43.374  36.412  13.049
11852W        W83381  33.315  40.875  11.595
11853W        W83382  16.682  28.042  11.862
11854W        W83383  28.097  21.281  13.870
11855W        W83384  27.674  28.239   3.880
11856W        W83385  37.095  41.462  12.151
11857W        W83386  35.590  11.106  11.613
11858W        W83387  26.071  32.465  10.583
11859W        W83388  25.946  10.255   2.965
11860W        W83389  22.769  12.646   2.320
11861W        W83390  25.003  19.390   4.595
11862W        W83391  22.733   5.591   2.932
11863W        W83392  28.176  19.278  10.008
11864W        W83393  26.229  32.943   2.339
11865W        W83394  15.825   3.002   4.112
11866W        W83395  13.326  27.409  11.735
11867W        W83396  20.626  44.754   3.760
11868W        W83397  34.923   0.357   4.064
11869W        W83398  24.183   5.245   1.689
11870W        W83399  23.763  15.385   2.089
11871W        W83400   1.730  23.979  11.413
11872W        W83401  30.597  34.659  14.834
11873W        W83402  13.753  15.617  11.472
11874W        W83403  36.421  37.103  14.256
11875W        W83404  44.265   2.785   1.719
11876W        W83405  30.413  29.454  14.751
11877W        W83406  24.247   7.141  10.078
11878W        W83407  32.882  34.430  10.888
11879W        W83408  22.658  24.553  11.180
11880W        W83409  32.923  24.625  14.018
11881W        W83410  39.536  35.603  11.490
11882W        W83411  37.658  27.849   2.147
11883W        W83412  31.028  16.094  12.099
11884W        W83413   1.722   6.312  10.575
11885W        W83414  30.095  23.848   0.764
11886W        W83415  10.148  18.614   4.597
11887W        W83416  10.099  30.231   4.503
11888W        W83417   4.142  13.824  13.623
11889W        W83418  10.110  32.019   3.699
11890W        W83419  21.124  24.387   1.154
11891W        W83420  36.786  37.880  11.918
11892W        W83421  39.392   5.403   4.631
11893W        W83422  33.683   5.350   2.175
11894W        W83423  26.729   6.281   1.670
11895W        W83424  29.069  17.192  11.345
11896W        W83425   5.981  29.701  14.888
11897W        W83426  33.157  14.731  11.087
11898W        W83427  40.300  11.150  13.913
11899W        W83428  18.251  44.510  12.158
11900W        W83429   5.824   8.738  13.370
11901W        W83430  28.417  39.287  11.991
11902W        W83431  28.516  29.468   3.638
11903W        W83432  18.212   2.680   0.297
11904W        W83433  43.501  44.903   0.288
11905W        W83434  40.378  11.101  13.011
11906W        W83435  27.533  19.218  12.571
11907W        W83436  18.167  36.048   1.719
11908W        W83437  11.174  26.159  12.510
11909W        W83438  35.572  43.334   2.268
11910W        W83439   4.303  42.506   0.828
11911W        W83440   1.199  18.658  10.575
11912W        W83441  39.169  17.468  11.131
11913W        W83442  40.240  41.087   4.072
11914W        W83443   4.959  38.528  11.546
11915W        W83444  33.634  23.108   4.905
11916W        W83445  32.554  41.243  14.768
11917W        W83446   6.810  41.972   1.313
11918W        W83447  35.475  20.505  11.437
11919W        W83448   4.763   8.185  10.584
11920W        W83449  11.596  23.118   1.420
11921W        W83450  43.782  39.071  12.135
11922W        W83451  38.981  36.982  14.273
11923W        W83452  24.013   3.877   3.982
11924W        W83453   8.121  20.852   2.734
11925W        W83454  27.683   1.990  12.590
11926W        W83455  36.069  26.221  12.545
11927W        W83456  40.125  27.393   3.384
11928W        W83457  32.817  28.948   3.101
11929W        W83458  35.048  12.017   2.974
11930W        W83459   2.042   0.241  12.245
11931W        W83460  12.547  15.430  11.168
11932W        W83461  21.762   4.333  13.976
11933W        W83462  44.887   1.393   4.187
11934W        W83463  27.999   4.932   0.450
11935W        W83464   2.923   9.905   1.889
11936W        W83465  36.033  15.397  13.023
11937W        W83466  32.620  36.045  12.868
11938W        W83467   2.974  26.637   2.723
11939W        W83468  40.453  25.576  12.994
11940W        W83469  41.436  35.357   0.391
11941W        W83470  20.075  21.430   1.158
11942W        W83471  21.110  34.133   4.311
11943W        W83472   7.548  32.623   0.495
11944W        W83473  35.239  35.067  12.924
11945W        W83474  41.310  44.721  14.858
11946W        W83475  31.851  23.852   1.849
11947W        W83476   1.497  29.987   3.348
11948W        W83477  37.928  28.910   3.928
11949W        W83478  29.792  25.917  13.476
11950W        W83479  11.278  15.055  13.123
11951W        W83480   1.472  34.277   2.315
11952W        W83481  20.190  20.216  11.916
11953W        W83482  33.146   1.666  11.961
11954W        W83483  19.968  18.705  12.067
11955W        W83484  28.791  36.447   1.482
11956W        W83485  37.909  42.926  14.451
11957W        W83486  37.626   6.860   1.711
11958W        W83487  13.376  16.135  11.047
11959W        W83488   8.913   1.561  12.363
11960W        W83489   5.424  28.162   4.625
11961W        W83490  28.594  35.510  11.357
11962W        W83491  44.406  11.311   3.174
11963W        W83492  15.684  28.582   3.540
11964W        W83493  28.193   3.520  12.452
11965W        W83494  18.279  28.419  14.526
11966W        W83495   5.434  20.986   3.182
11967W        W83496   2.947   5.918  10.706
11968W        W83497  23.054  18.062   1.334
11969W        W83498  26.885  33.047   5.006
11970W        W83499  37.507  35.261  14.847
11971W        W83500  32.318   6.170   0.914
11972W        W83501  34.345   1.794   2.219
11973W        W83502  14.158  28.410   2.724
11974W        W83503   6.249  28.958  10.926
11975W        W83504  29.653  44.084  13.973
11976W        W83505  35.855  38.330  14.875
11977W        W83506   0.588   3.712   2.692
11978W        W83507  29.988  32.150   0.824
11979W        W83508  23.283  20.979   4.609
11980W        W83509  40.488   9.615  12.402
11981W        W83510  32.163  22.943  10.264
11982W        W83511  22.776  32.862   4.233
11983W        W83512  27.261   5.931   1.321
11984W        W83513  30.862  25.525  14.366
11985W        W83514  19.260  26.071  11.454
11986W        W83515  23.865  20.554  11.120
11987W        W83516  44.213  21.104   1.910
11988W        W83517  14.303   2.668   2.296
11989W        W83518  15.257  20.789   3.640
11990W        W83519  39.858  17.731   2.679
11991W        W83520  34.646  41.074  14.536
11992W        W83521  28.116  31.155  14.506
11993W        W83522  42.830  40.752  11.574
11994W        W83523  26.160   6.724  14.905
11995W        W83524  34.012  44.734  13.498
11996W        W83525  14.585  23.354   4.195
11997W        W83526  12.189  22.133  13.536
11998W        W83527   4.750  21.113   0.742
11999W        W83528   2.739  43.994  11.989
12000W        W83529  33.338   5.378   3.191
12001W        W83530   3.347  41.574  13.510
12002W        W83531  14.363  38.942  10.456
12003W        W83532  40.001  15.533   4.368
12004W        W83533  11.848   5.766   1.258
12005W        W83534  25.086  44.788   4.091
12006W        W83535  35.167   8.218   4.208
12007W        W83536  27.132   1.736  14.366
12008W        W83537  27.523   8.853   3.872
12009W        W83538  15.655  39.143   3.172
12010W        W83539  32.543  41.782  10.797
12011W        W83540  39.524  20.141   2.642
12012W        W83541  28.128  10.696   0.989
12013W        W83542  20.236  20.312   2.373
12014W        W83543   2.298  37.050  14.794
12015W        W83544  42.213  37.863   2.318
12016W        W83545  36.924  27.942   0.885
12017W        W83546  28.927   3.433   4.505
12018W        W83547   2.990  10.600   3.281
12019W        W83548   8.808  14.236   4.692
12020W        W83549  20.628  35.872   1.402
12021W        W83550  37.540  40.429   3.677
12022W        W83551  40.586  15.334  13.798
12023W        W83552   4.670  21.432   3.061
12024W        W83553  31.904   4.362  13.820
12025W        W83554   8.370  43.346  11.400
12026W        W83555  15.479   2.494   0.760
12027W        W83556  28.901  39.062   2.651
12028W        W83557  17.210   1.452   1.648
12029W        W83558  22.404  16.834   4.111
12030W        W83559  20.706  18.841   2.687
12031W        W83560  22.501  19.711   4.798
12032W        W83561   5.999   0.243  14.607
12033W        W83562  16.312   7.276   3.191
12034W        W83563   1.723  44.391   4.245
12035W        W83564  41.504   4.017   4.712
12036W        W83565   0.206  31.922  11.234
12037W        W83566  31.692  17.751   3.978
12038W        W83567  18.281  20.126   5.503
12039W        W83568  15.356  18.527  11.944
12040W        W83569  44.205  17.615  14.745
12041W        W83570  27.017  23.623  11.229
12042W        W83571  20.422  44.924  12.534
12043W        W83572  41.626  42.344   1.416
12044W        W83573  14.672  24.576  14.876
12045W        W83574  44.985  37.912   4.002
12046W        W83575  17.117  28.637   0.332
12047W        W83576   0.823  13.207  11.272
12048W        W83577  18.059  28.800  12.103
12049W        W83578   8.650  21.139   0.851
12050W        W83579  24.183  12.899  13.558
12051W        W83580  40.431  24.534   3.352
12052W        W83581  32.053   8.865   3.184
12053W        W83582  35.806  26.181  14.760
12054W        W83583  35.869  35.112   4.168
12055W        W83584  37.037  24.062   3.778
12056W        W83585  26.322   9.130   1.505
12057W        W83586  35.332   2.302   2.681
12058W        W83587  16.422  43.855  12.951
12059W        W83588  24.211  14.711   0.261
12060W        W83589  17.952  18.115  10.741
12061W        W83590  33.479  34.534  12.638
12062W        W83591  17.123  14.741  10.519
12063W        W83592  18.659   7.408   1.144
12064W        W83593  20.559  27.925   1.174
12065W        W83594  24.760  43.978  14.924
12066W        W83595  44.055  44.118   0.753
12067W        W83596   0.426   1.229   3.884
12068W        W83597   1.670  14.789   2.754
12069W        W83598  29.571   1.469  11.657
12070W        W83599  16.562  32.967  11.231
12071W        W83600  27.733   8.992  11.102
12072W        W83601   3.194  11.291   3.721
12073W        W83602   9.060   9.688   0.682
12074W        W83603   1.413  36.496  11.161
12075W        W83604  44.982  30.721   3.638
12076W        W83605  20.858  41.958   3.165
12077W        W83606  11.244  44.561   1.880
12078W        W83607  33.026  23.660  14.471
12079W        W83608  22.923   9.323   2.069
12080W        W83609   2.886  34.672   2.736
12081W        W83610  35.324  40.377   3.672
12082W        W83611  13.220  39.864   4.181
12083W        W83612  20.025  12.663   2.174
12084W        W83613  30.010  35.018  13.374
12085W        W83614   9.331  26.811   4.496
12086W        W83615  31.547  42.003   3.812
12087W        W83616  23.960  24.231   2.586
12088W        W83617  33.877  24.542  13.350
12089W        W83618  25.053   1.746  12.468
12090W        W83619  12.303  43.684  14.932
12091W        W83620  21.931  19.325  11.202
12092W        W83621  11.648  30.202   2.900
12093W        W83622  18.623  24.744  14.045
12094W        W83623  25.053  32.649   1.288
12095W        W83624  36.672  18.049  11.352
12096W        W83625   9.418  33.458  11.996
12097W        W83626  37.486  30.715   1.340
12098W        W83627  31.843   0.838   2.291
12099W        W83628  17.331   8.308   2.368
12100W        W83629   2.222  30.371  10.696
12101W        W83630  21.335  20.753  13.691
12102W        W83631  38.180   1.033   0.838
12103W        W83632   2.200  34.520   0.528
12104W        W83633  30.811  33.165  13.445
12105W        W83634  11.199  21.249  14.270
12106W        W83635   9.534   9.967   3.626
12107W        W83636  31.064  37.762   5.231
12108W        W83637   3.469   6.927   4.715
12109W        W83638  36.490  16.269   2.473
12110W        W83639  43.366  37.617   1.405
12111W        W83640   1.557  30.094   3.863
12112W        W83641  34.392  12.385   1.421
12113W        W83642   8.677  41.057  11.452
12114W        W83643  41.546   4.179  13.627
12115W        W83644  42.097  19.753  13.368
12116W        W83645  24.165  19.484   5.297
12117W        W83646   0.479  36.691   2.872
12118W        W83647  37.883  17.832   0.262
12119W        W83648   7.876  32.880  13.895
12120W        W83649   1.149  23.432  12.968
12121W        W83650   1.030  37.868  13.908
12122W        W83651   2.940  25.072   3.307
12123W        W83652  23.123  41.509  13.449
12124W        W83653  37.169   6.766  11.631
12125W        W83654  18.434   5.812  11.199
12126W        W83655  43.376   8.706  10.814
12127W        W83656  38.391  41.030  12.669
12128W        W83657   1.815  38.937   4.538
12129W        W83658   8.394  28.964  14.766
12130W        W83659  21.144  28.924   3.362
12131W        W83660  38.694  16.021  12.205
12132W        W83661  25.161  27.954   3.896
12133W        W83662  11.207  34.110   3.701
12134W        W83663  25.767  16.629  13.516
12135W        W83664  27.216  35.500  12.033
12136W        W83665  20.168  18.305   3.645
12137W        W83666   3.802   0.261  10.925
12138W        W83667  31.000  35.268   1.947
12139W        W83668  24.644  34.696  11.570
12140W        W83669  26.004  26.418  11.325
12141W        W83670  36.171   0.232   2.369
12142W        W83671   0.450  31.471  12.902
12143W        W83672   0.767  22.630   4.059
12144W        W83673   5.943  32.895  11.138
12145W        W83674  13.140  43.810   0.279
12146W        W83675  34.460   5.457   0.994
12147W        W83676  14.061  11.885   3.361
12148W        W83677  34.442  11.591  14.617
12149W        W83678  28.904  23.197  13.923
12150W        W83679  41.429   8.704  10.692
12151W        W83680  19.546  25.766   4.890
12152W        W83681  16.774  19.184   4.644
12153W        W83682  34.549  44.783   1.839
12154W        W83683   0.911  25.850   0.995
12155W        W83684  14.602  20.841   2.647
12156W        W83685   1.850  36.679  10.734
12157W        W83686   5.434  13.634   2.714
12158W        W83687  37.806  19.627  13.453
12159W        W83688   0.946   0.309   1.932
12160W        W83689   8.244  35.384  10.527
12161W        W83690   5.346   6.463  14.023
12162W        W83691  35.954  36.889  14.362
12163W        W83692  23.181  10.404  10.813
12164W        W83693   2.224  44.719   4.078
12165W        W83694  40.590   5.181  14.806
12166W        W83695  25.734  22.301  11.745
12167W        W83696  15.312   3.298  14.055
12168W        W83697  42.915   8.700   4.543
12169W        W83698  24.736   3.664  12.881
12170W        W83699  26.455  41.609   4.393
12171W        W83700  32.051  27.924  10.212
12172W        W83701  43.266  38.442   3.282
12173W        W83702  37.807   1.733  11.222
12174W        W83703  21.954  15.981   4.742
12175W        W83704  39.454  30.595   0.425
12176W        W83705  22.229   4.407   2.830
12177W        W83706  13.786  38.377   2.042
12178W        W83707   0.810  18.636   2.352
12179W        W83708   7.291  15.646   2.232
12180W        W83709   1.436  22.651   1.310
12181W        W83710  36.535   8.172  10.935
12182W        W83711  22.799   0.084   4.590
12183W        W83712  30.044  31.276   2.886
12184W        W83713  14.463   0.408  12.562
12185W        W83714   9.365   0.708  11.497
12186W        W83715  38.921  23.479  12.926
12187W        W83716  16.233  39.410   4.263
12188W        W83717  37.596  19.234   3.700
12189W        W83718  23.600  43.528  13.059
12190W        W83719   6.402   1.526   4.369
12191W        W83720   6.560  22.465   4.518
12192W        W83721  30.965  37.405  13.619
12193W        W83722  20.299   8.314   1.728
12194W        W83723   7.088   2.137   0.857
12195W        W83724   0.062   7.672   0.176
12196W        W83725  27.171   4.768   0.830
12197W        W83726   5.208  11.577  11.621
12198W        W83727  31.760  27.556  12.998
12199W        W83728  12.657  20.074   2.627
12200W        W83729  22.794   8.135  12.785
12201W        W83730  16.738  32.489   3.658
12202W        W83731  25.872  27.108   4.118
12203W        W83732  32.638  30.748  10.717
12204W        W83733  29.870  40.899   3.067
12205W        W83734   1.648  30.574  14.286
12206W        W83735   9.257   0.877   2.756
12207W        W83736  13.625  39.345   4.886
12208W        W83737   7.512   3.971  12.903
12209W        W83738   6.723  23.222   2.850
12210W        W83739  30.435  39.374  13.052
12211W        W83740  30.224  32.364  13.347
12212W        W83741  22.545  44.496   0.274
12213W        W83742   6.171  31.363  13.473
12214W        W83743  25.736  16.716   0.852
12215W        W83744   7.557   0.733   4.511
12216W        W83745  14.656  38.557  10.692
12217W        W83746  39.243  42.129   0.224
12218W        W83747  12.863  30.130  12.393
12219W        W83748   5.219  32.463   1.234
12220W        W83749  12.530   4.492   4.047
12221W        W83750  38.819  14.606  12.992
12222W        W83751  39.466   6.238  10.872
12223W        W83752  13.789  32.895  13.835
12224W        W83753  35.351  16.603   3.693
12225W        W83754  43.727  44.418   1.853
12226W        W83755   3.256  22.309   2.842
12227W        W83756   1.263  26.150   0.792
12228W        W83757  30.841  35.768   1.919
12229W        W83758  41.436  41.024  11.348
12230W        W83759  43.467  12.650  11.506
12231W        W83760  39.742  12.197  12.575
12232W        W83761   2.536  33.131   0.730
12233W        W83762  43.386  20.326   2.682
12234W        W83763  43.161  19.525   0.807
12235W        W83764  18.352  11.821  12.447
12236W        W83765   4.949  42.974   2.169
12237W        W83766  40.137  18.028  10.646
12238W        W83767  32.854  19.498  11.539
12239W        W83768   6.425  29.027  11.440
12240W        W83769   0.280  18.153   3.202
12241W        W83770  19.872  37.453  14.327
12242W        W83771  22.734  16.259  14.961
12243W        W83772  20.633  28.010  11.188
12244W        W83773   5.932  29.189  14.838
12245W        W83774  37.015  28.939   3.395
12246W        W83775  19.616  33.974  11.052
12247W        W83776  25.964  14.621  10.615
12248W        W83777  26.794  23.705  10.661
12249W        W83778   3.658  22.629  14.794
12250W        W83779   4.763   3.443   1.178
12251W        W83780  22.752   9.781   2.349
12252W        W83781  11.944  16.683   4.616
12253W        W83782  38.472   2.847  13.001
12254W        W83783  22.108  12.212  12.500
12255W        W83784  25.236  32.630  12.007
12256W        W83785   0.766  13.350   1.657
12257W        W83786   9.701   7.656  10.617
12258W        W83787   7.751  31.417   1.757
12259W        W83788  43.036  43.564  11.805
12260W        W83789  22.520  33.686   4.602
12261W        W83790  33.000  17.621   3.251
12262W        W83791  42.380   6.455  11.866
12263W        W83792  43.427  32.663   2.567
12264W        W83793  39.552  26.538   2.748
12265W        W83794  24.699  30.087   2.766
12266W        W83795  13.681  16.038  10.629
12267W        W83796   1.596  36.423   3.267
12268W        W83797   6.151  33.900  14.979
12269W        W83798   0.993  19.320  13.350
12270W        W83799   6.139  20.295  11.470
12271W        W83800  28.006   2.472   3.988
12272W        W83801  32.981   5.463  14.314
12273W        W83802  18.615  41.093   1.545
12274W        W83803  30.429  32.834   4.483
12275W        W83804  25.557  24.823  12.751
12276W        W83805  15.097   8.680  14.267
12277W        W83806  26.096   3.938   0.798
12278W        W83807   2.907   1.722   3.793
12279W        W83808   2.776  34.610  13.885
12280W        W83809  32.596   4.901  11.476
12281W        W83810  21.711  29.037  14.184
12282W        W83811  14.731   7.035   3.359
12283W        W83812   4.092  37.498   1.350
12284W        W83813  44.726  12.808   1.427
12285W        W83814  15.324  37.516   1.290
12286W        W83815  40.544   5.273   2.412
12287W        W83816  35.287  13.123  10.553
12288W        W83817  42.418  42.972  12.135
12289W        W83818   7.150  17.283  14.119
12290W        W83819  13.579  31.662   4.024
12291W        W83820  32.478  39.378   1.253
12292W        W83821   8.381  28.705   1.893
12293W        W83822  11.756  22.453   3.450
12294W        W83823  40.469   3.398   2.409
12295W        W83824  44.604  42.922   1.183
12296W        W83825  30.568   4.178  12.041
12297W        W83826  17.310   8.800   2.185
12298W        W83827   2.875   6.242   0.330
12299W        W83828  23.987  13.309  14.472
12300W        W83829  18.673  32.501   4.275
12301W        W83830  37.624  15.385   4.687
12302W        W83831  10.690  13.754  12.529
12303W        W83832  18.626  42.451   3.757
12304W        W83833  44.751   8.923  11.178
12305W        W83834  29.944  30.368  10.439
12306W        W83835  34.387   9.377   4.712
12307W        W83836  16.061  32.169   1.203
12308W        W83837  15.331   1.273  14.832
12309W        W83838  23.746  38.098  14.739
12310W        W83839   7.152  21.570   3.352
12311W        W83840   7.842  39.480  13.783
12312W        W83841  33.446   2.496  12.401
12313W        W83842  27.357   6.812  12.833
12314W        W83843  39.027  21.890  13.522
12315W        W83844  43.716  30.107  12.499
12316W        W83845   9.710  44.294   4.341
12317W        W83846  44.997  41.492  14.409
12318W        W83847  24.832  12.645   3.623
12319W        W83848  15.831   2.839  14.996
12320W        W83849  11.603  31.472  13.256
12321W        W83850  30.374  22.361  10.833
12322W        W83851  17.063   3.717  12.912
12323W        W83852  36.044  40.418   0.253
12324W        W83853  44.986   4.609   4.261
12325W        W83854  27.490  11.423  13.156
12326W        W83855  43.876  33.632   4.050
12327W        W83856  14.562   5.723   4.021
12328W        W83857  14.401  17.770  12.316
12329W        W83858  13.625  29.183   2.790
12330W        W83859  20.802   1.087   2.178
12331W        W83860  36.449   3.624   3.828
12332W        W83861   1.856  24.166  10.843
12333W        W83862  44.263   2.261  14.602
12334W        W83863   6.651  20.691  12.104
12335W        W83864   3.414   7.360   5.131
12336W        W83865  33.961  32.426  13.925
12337W        W83866  37.103   3.720   2.376
12338W        W83867  21.733  24.690   2.609
12339W        W83868   1.493  39.831   4.749
12340W        W83869  31.099   7.980   2.698
12341W        W83870  23.279  29.336  13.490
12342W        W83871  41.314  13.620   3.676
12343W        W83872  24.282   5.950   2.345
12344W        W83873  26.972  20.236  13.518
12345W        W83874  39.592  41.761   0.417
12346W        W83875  38.949  24.086   3.647
12347W        W83876  17.074  24.480  10.509
12348W        W83877   3.622  43.108  13.527
12349W        W83878  22.427  21.012  12.071
12350W        W83879   5.098  38.939  14.448
12351W        W83880  21.755  41.619   1.173
12352W        W83881  40.356  26.006   4.101
12353W        W83882  19.103   7.786  13.488
12354W        W83883  38.766  13.354   2.267
12355W        W83884  29.665  12.947   2.222
12356W        W83885  44.645  37.491   4.812
12357W        W83886  19.100  13.050  13.858
12358W        W83887  35.873  36.095   3.210
12359W        W83888  27.978  42.435   4.547
12360W        W83889  31.432  16.272   0.212
12361W        W83890  27.840  29.111  11.931
12362W        W83891  18.683  44.337  10.909
12363W        W83892  25.725  26.922  14.722
12364W        W83893  11.251  42.187   3.820
12365W        W83894   8.576  34.993  13.458
12366W        W83895  16.749  14.198  12.855
12367W        W83896  38.932  27.449  14.317
12368W        W83897   0.339  39.306  12.888
12369W        W83898  23.500  19.174   4.744
12370W        W83899  39.102  42.814  14.008
12371W        W83900  21.865  20.288  11.261
12372W        W83901  24.236   0.948   4.174
12373W        W83902   4.172  20.119  12.907
12374W        W83903  11.664  16.684  12.194
12375W        W83904  27.667  10.796  12.479
12376W        W83905  21.145   3.916   0.522
12377W        W83906  37.081   2.235  10.648
12378W        W83907  31.499  13.155  10.564
12379W        W83908   5.553  29.975  13.189
12380W        W83909  18.572  32.159   3.283
12381W        W83910  24.618  17.791   4.161
12382W        W83911   8.351  18.884   4.728
12383W        W83912  18.789  38.833  12.676
12384W        W83913  17.769   6.088  11.167
12385W        W83914  39.810   8.872  11.657
12386W        W83915  29.132  29.630   4.617
12387W        W83916   8.950  44.850  14.832
12388W        W83917   3.596  28.220   1.876
12389W        W83918   8.640  16.805  13.868
12390W        W83919   7.645  33.447  12.113
12391W        W83920   6.426   6.951  14.375
12392W        W83921  13.443  27.988   0.760
12393W        W83922  39.399  19.089   2.661
12394W        W83923  39.000  24.113   4.562
12395W        W83924  17.282  35.425   0.510
12396W        W83925  33.362  36.508  13.348
12397W        W83926   6.758  14.046   1.337
12398W        W83927  22.034  13.253  13.468
12399W        W83928  35.602  40.631  14.467
12400W        W83929  12.288   9.288  13.556
12401W        W83930  28.316  16.163  14.910
12402W        W83931  29.454  20.122  13.384
12403W        W83932  10.255  19.586  11.203
12404W        W83933  20.069  41.484  11.529
12405W        W83934  37.057  11.122  11.491
12406W        W83935   8.807  42.859  12.849
12407W        W83936  24.051  25.433  14.440
12408W        W83937  35.907   7.716  14.908
12409W        W83938   9.892  17.068   0.890
12410W        W83939   0.244  39.470  13.913
12411W        W83940  33.421  37.821  12.448
12412W        W83941   0.908  36.832  12.439
12413W        W83942  44.480  18.721  12.411
12414W        W83943  44.779  25.484   2.214
12415W        W83944  12.570  12.519   3.595
12416W        W83945  36.886  30.581  10.694
12417W        W83946  41.980  25.736  11.638
12418W        W83947  18.432   0.676  11.137
12419W        W83948  23.544  44.944   2.565
12420W        W83949  12.974  42.617  11.617
12421W        W83950  15.892  14.307   3.205
12422W        W83951   9.862   5.949  13.956
12423W        W83952  24.171  36.776   0.929
12424W        W83953  43.930  12.437  13.401
12425W        W83954   8.876  32.807  12.118
12426W        W83955  13.290  19.730  12.081
12427W        W83956   0.961  36.805   0.298
12428W        W83957  30.496  36.136   3.253
12429W        W83958  13.605  17.156   1.771
12430W        W83959  10.807  24.694  13.822
12431W        W83960  14.704  38.042   0.885
12432W        W83961  42.615  23.098   0.868
12433W        W83962  24.650  23.156   3.550
12434W        W83963  28.103  27.001   2.604
12435W        W83964  23.908  19.787   3.663
12436W        W83965  14.236   9.396   0.460
12437W        W83966  44.966   4.668   2.385
12438W        W83967  18.067  12.627  14.789
12439W        W83968  25.373  23.358   1.685
12440W        W83969   9.292  41.033   3.243
12441W        W83970  40.570  35.650  11.629
12442W        W83971   7.860  17.528  10.369
12443W        W83972  18.612  33.873   0.876
12444W        W83973  27.042  30.708   4.871
12445W        W83974  16.301  25.125   1.378
12446W        W83975  12.352   1.090   9.967
12447W        W83976  29.981   0.369   4.168
12448W        W83977  44.413  27.097   4.628
12449W        W83978  10.009   5.712  12.969
12450W        W83979  11.287   7.477  11.175
12451W        W83980  37.605  13.625   4.157
12452W        W83981  16.710  11.855   1.873
12453W        W83982  25.428  36.594  12.560
12454W        W83983  13.538  35.921  10.621
12455W        W83984   3.909  20.227   2.384
12456W        W83985   7.433  15.313  10.704
12457W        W83986  18.479  38.448  14.759
12458W        W83987  12.374  27.124   2.255
12459W        W83988  32.035  16.684   4.550
12460W        W83989  37.013  19.138   4.670
12461W        W83990  37.073  22.049   4.530
12462W        W83991   2.854  32.674  11.508
12463W        W83992  26.848   0.595   5.011
12464W        W83993   0.819  28.255  11.985
12465W        W83994  14.368  21.837  12.972
12466W        W83995  17.252  29.751   0.407
12467W        W83996  18.282  28.231   1.822
12468W        W83997  32.543  13.706  14.789
12469W        W83998  38.533  27.131  10.714
12470W        W83999  37.867  37.414  12.530
12471W        W84000  43.906   4.823   4.684
12472W        W84001  24.051  24.006   0.949
12473W        W84002   8.382  16.676   1.407
12474W        W84003   0.306   5.934   2.332
12475W        W84004   5.771   7.751  13.773
12476W        W84005  28.482  40.460  14.905
12477W        W84006   8.571   1.366   5.083
12478W        W84007  38.759  44.171  11.498
12479W        W84008   1.328   4.120  14.168
12480W        W84009   7.834  27.889   4.839
12481W        W84010   7.585   0.279   3.720
12482W        W84011   1.645  17.295  10.430
12483W        W84012  40.335  34.617   1.845
12484W        W84013  18.374  12.842  14.391
12485W        W84014  26.298  22.281  14.935
12486W        W84015   6.667  15.367   0.846
12487W        W84016  37.017  25.125   3.773
12488W        W84017  41.671  27.728  13.506
12489W        W84018   5.436   3.142   2.239
12490W        W84019  17.020  42.009   2.739
12491W        W84020  14.345  21.792   1.356
12492W        W84021  28.117  19.697  10.363
12493W        W84022  18.351  36.003  12.386
12494W        W84023  12.091  16.178  13.961
12495W        W84024  19.201   5.486   1.718
12496W        W84025  42.787  30.101   1.261
12497W        W84026  40.507  37.083  14.755
12498W        W84027   5.946  40.397  12.849
12499W        W84028  33.047  13.577   1.299
12500W        W84029   5.794  11.388  11.023
12501W        W84030  38.420   5.083  13.106
12502W        W84031  16.990  12.795  10.756
12503W        W84032   3.332   0.493   0.778
12504W        W84033  38.556  20.091  13.496
12505W        W84034  39.338   5.937  13.915
12506W        W84035  18.880  43.975   0.956
12507W        W84036  22.925  31.216   2.150
12508W        W84037  24.722  44.361  11.672
12509W        W84038  20.284  14.346  10.835
12510W        W84039  18.525  33.146   0.307
12511W        W84040  18.227  21.741  10.246
12512W        W84041   7.208  42.765  13.936
12513W        W84042  25.390  29.062  11.714
12514W        W84043  11.822  38.653  13.847
12515W        W84044  26.611  17.047  14.969
12516W        W84045  16.162  27.978   1.312
12517W        W84046   1.876   5.021   2.348
12518W        W84047   2.335  30.122   4.828
12519W        W84048  11.590  19.611   0.161
12520W        W84049  16.390  10.094  13.521
12521W        W84050  30.048  32.270   2.712
12522W        W84051  43.790  15.581   9.793
12523W        W84052  28.778   3.431  12.541
12524W        W84053  22.543   9.667   1.379
12525W        W84054  11.645  36.559   2.855
12526W        W84055  22.983  12.260   3.372
12527W        W84056  34.393  14.352  14.909
12528W        W84057   7.317  40.533  10.717
12529W        W84058  42.586  18.356  10.388
12530W        W84059   4.988  37.070  10.206
12531W        W84060   5.360   0.982  14.762
12532W        W84061  27.720  20.655  13.379
12533W        W84062  11.991   1.534   2.403
12534W        W84063   5.645   4.302   0.850
12535W        W84064   1.968  15.759  11.584
12536W        W84065  38.465  17.422  10.960
12537W        W84066   5.114  17.620  14.264
12538W        W84067  35.538  24.443  11.578
12539W        W84068  16.646   5.497  11.980
12540W        W84069  18.057   5.887  13.314
12541W        W84070  16.715  32.444   3.148
12542W        W84071  11.943  31.847   2.077
12543W        W84072  30.481  37.447  11.236
12544W        W84073  10.991   4.975  14.987
12545W        W84074  26.271  23.670  12.910
12546W        W84075  18.202   3.786   1.571
12547W        W84076   7.376  24.555  13.768
12548W        W84077  41.654  36.128   0.872
12549W        W84078   6.802  42.287   2.721
12550W        W84079  18.205  22.483  13.966
12551W        W84080  39.111   1.695   0.855
12552W        W84081  39.363  25.775  14.548
12553W        W84082  10.190  31.212   3.625
12554W        W84083  18.066  31.551  11.428
12555W        W84084   6.830  33.036  11.510
12556W        W84085  29.016  23.909   3.659
12557W        W84086  43.553  14.885  11.984
12558W        W84087  11.562  41.822   0.881
12559W        W84088   4.957   5.290  11.344
12560W        W84089   0.403   7.303   0.008
12561W        W84090  11.784   7.775  10.504
12562W        W84091  38.836  32.639   4.216
12563W        W84092  13.317  41.128   2.782
12564W        W84093  13.533  24.961   1.381
12565W        W84094  24.590  31.313   4.125
12566W        W84095   4.366  26.668   4.584
12567W        W84096  44.266  32.085   1.976
12568W        W84097   3.073  10.011  14.596
12569W        W84098  16.119  15.267  10.681
12570W        W84099  32.932  11.098  10.493
12571W        W84100  11.200  34.067  13.092
12572W        W84101   3.483  36.115  10.564
12573W        W84102  31.843  15.764   3.609
12574W        W84103  25.747  32.648   4.109
12575W        W84104   2.680   0.770  11.942
12576W        W84105  18.199  22.502  12.032
12577W        W84106  27.434  25.508  14.552
12578W        W84107  24.429  40.278   2.852
12579W        W84108  27.053  15.430   3.114
12580W        W84109   4.701  25.939   0.425
12581W        W84110  42.014  12.761  11.717
12582W        W84111  19.487  13.802  11.682
12583W        W84112   5.565  21.397   2.221
12584W        W84113  44.993  40.001   3.684
12585W        W84114  25.887  42.483  14.256
12586W        W84115  15.220  38.117   2.732
12587W        W84116  44.272  11.156   0.257
12588W        W84117  10.284   5.440  13.394
12589W        W84118  34.835  19.157   3.849
12590W        W84119  14.013  28.514   2.245
12591W        W84120   5.241  12.361  12.015
12592W        W84121  40.787   1.008  13.483
12593W        W84122  29.226  26.734  10.812
12594W        W84123  19.822  42.083   0.542
12595W        W84124  43.248  44.552   0.023
12596W        W84125   1.354  25.148  13.786
12597W        W84126  25.972  24.524  12.088
12598W        W84127  30.480  40.930  10.728
12599W        W84128  25.563  27.545   4.787
12600W        W84129  36.638   0.808  10.788
12601W        W84130  27.252  24.933  11.444
12602W        W84131  11.383  20.558  10.609
12603W        W84132  20.602  28.468  13.396
12604W        W84133  36.925   3.386   3.815
12605W        W84134   9.417   9.330   0.806
12606W        W84135  33.873  14.798   2.471
12607W        W84136  10.412  11.959   3.637
12608W        W84137  23.261  29.553   3.736
12609W        W84138  41.317  14.246   0.273
12610W        W84139  26.257   7.567   3.430
12611W        W84140  20.713  13.859   0.321
12612W        W84141  35.013   3.745   4.768
12613W        W84142  16.053  13.990   1.299
12614W        W84143  43.368  38.990  11.394
12615W        W84144  39.028  44.956   4.578
12616W        W84145   4.895   2.312   2.972
12617W        W84146  27.890   8.788  11.590
12618W        W84147   1.803  44.394  11.785
12619W        W84148   4.608  16.381  14.248
12620W        W84149  38.364  33.467  12.569
12621W        W84150  13.287  18.730   2.171
12622W        W84151  17.193  18.346  13.676
12623W        W84152  10.556  43.029   1.795
12624W        W84153   3.421   2.252  11.597
12625W        W84154   1.272   4.232  12.623
12626W        W84155  23.468   8.235   0.106
12627W        W84156  42.380   0.419   1.669
12628W        W84157   0.171  13.674  13.425
12629W        W84158   0.850  22.452  13.755
12630W        W84159  32.352  37.638   2.388
12631W        W84160  31.988  12.117   3.181
12632W        W84161  36.849   7.232  14.040
12633W        W84162  18.948  20.735   0.032
12634W        W84163  33.937  16.021  14.906
12635W        W84164  40.077  44.732  10.620
12636W        W84165  35.537  29.651   1.933
12637W        W84166  14.276  33.641  13.548
12638W        W84167  21.213  23.862   2.158
12639W        W84168  44.522  28.740   4.267
12640W        W84169  25.538  14.881   2.365
12641W        W84170   5.933  16.866   4.913
12642W        W84171  14.976  11.835   5.094
12643W        W84172   7.307   9.056   2.324
12644W        W84173  15.301  19.754  14.999
12645W        W84174  24.835  33.872   4.163
12646W        W84175   5.003  13.665   2.316
12647W        W84176  10.870  42.942   2.207
12648W        W84177  14.399  14.696   0.772
12649W        W84178   9.906  41.848   4.099
12650W        W84179  12.226  43.085  11.215
12651W        W84180  40.345  20.086  10.768
12652W        W84181  13.380  42.407   1.722
12653W        W84182   3.662   5.297  13.061
12654W        W84183   2.707  33.821   1.859
12655W        W84184   9.375  15.859  13.288
12656W        W84185  41.022  44.304  12.241
12657W        W84186  39.075   0.180   0.766
12658W        W84187  10.801  34.458  13.834
12659W        W84188  27.496   8.148   1.724
12660W        W84189  16.569  44.852  10.521
12661W        W84190  20.690   5.611   1.813
12662W        W84191  22.107  17.870   4.609
12663W        W84192  10.765   0.777   2.182
12664W        W84193   0.900  34.364   0.270
12665W        W84194   1.168   4.906   1.870
12666W        W84195  19.880  29.187  12.008
12667W        W84196   0.412   8.863   0.008
12668W        W84197  17.140  22.244   5.089
12669W        W84198  11.169   3.153  12.747
12670W        W84199  33.383  22.654   3.097
12671W        W84200   1.790  13.343   3.141
12672W        W84201  29.433   8.331   2.839
12673W        W84202  23.928   4.855   3.218
12674W        W84203   5.879  16.867  14.690
12675W        W84204  12.612  16.285  11.575
12676W        W84205  11.586  25.532  11.066
12677W        W84206  21.743  10.661   3.344
12678W        W84207   3.298  25.443   3.272
12679W        W84208  23.667  41.106   1.253
12680W        W84209  40.524  44.963   1.860
12681W        W84210  15.675  26.198   3.651
12682W        W84211   7.308  39.498   2.704
12683W        W84212  32.753  21.156   1.662
12684W        W84213  22.123  37.478   4.743
12685W        W84214  13.755  22.479  12.483
12686W        W84215  23.188  34.334  10.694
12687W        W84216  12.233  19.587   1.929
12688W        W84217  26.614  26.457   3.770
12689W        W84218  39.597  14.276  14.161
12690W        W84219  10.781  34.798   3.685
12691W        W84220  32.435  16.526  10.630
12692W        W84221   9.363  31.516  13.536
12693W        W84222   9.645   4.717   2.291
12694W        W84223   4.418  16.310   3.308
12695W        W84224   9.158  22.179  14.895
12696W        W84225  35.436   2.154  12.521
12697W        W84226  33.852   0.307  10.384
12698W        W84227  34.622  18.619   4.673
12699W        W84228  32.039  13.834   2.698
12700W        W84229  16.388   3.264  10.923
12701W        W84230  27.931  44.463  14.407
12702W        W84231  29.013  19.818  11.573
12703W        W84232  30.498  35.096  10.697
12704W        W84233  15.733  34.572  13.233
12705W        W84234  34.579  35.782  11.127
12706W        W84235   5.142  32.473  12.669
12707W        W84236  34.192   9.844   3.215
12708W        W84237  27.174  43.335  11.058
12709W        W84238  43.823  10.833   4.212
12710W        W84239   2.403  19.175   3.728
12711W        W84240  30.408  24.573   1.837
12712W        W84241  41.068  17.033  11.715
12713W        W84242   9.799  27.722   2.538
12714W        W84243  42.106  22.823   1.761
12715W        W84244  21.777  29.574   0.354
12716W        W84245  43.123  32.084  11.539
12717W        W84246  38.973  10.323  13.999
12718W        W84247  32.455  35.798   1.282
12719W        W84248  21.064  17.738   3.567
12720W        W84249  13.139  33.629   0.768
12721W        W84250  41.292  32.214  12.685
12722W        W84251  18.243   0.884   4.447
12723W        W84252  38.360  31.945  10.725
12724W        W84253   0.897  34.507   4.245
12725W        W84254  33.064  16.813   4.288
12726W        W84255  14.005  25.682  11.240
12727W        W84256   7.286   4.214   3.149
12728W        W84257  30.982  32.984   4.453
12729W        W84258   0.675   7.010  12.853
12730W        W84259  10.292  14.909  13.889
12731W        W84260  39.107   2.941  12.058
12732W        W84261   6.766   1.370  13.593
12733W        W84262  23.822  30.195   4.751
12734W        W84263  12.718   3.199  10.942
12735W        W84264  13.766  23.531  12.589
12736W        W84265  18.274  18.716  14.971
12737W        W84266  12.852  42.783  12.915
12738W        W84267  19.574  16.168   1.755
12739W        W84268  21.920  34.328  12.968
12740W        W84269  12.713  29.471  14.811
12741W        W84270  32.842  32.132  12.497
12742W        W84271   6.966  24.167   1.311
12743W        W84272  13.705  37.313   4.037
12744W        W84273  36.760  34.866   4.073
12745W        W84274  15.051  20.538  12.892
12746W        W84275  12.162  35.658   3.862
12747W        W84276  19.965  15.796   9.703
12748W        W84277   5.026   0.753  11.113
12749W        W84278  32.051   2.014  14.766
12750W        W84279  33.826   1.360   0.964
12751W        W84280   6.015  36.118   4.205
12752W        W84281  14.405  15.100  11.568
12753W        W84282  26.776  26.609  10.862
12754W        W84283  38.047   1.834   3.095
12755W        W84284  33.546  16.086   3.891
12756W        W84285  30.778  20.243   0.010
12757W        W84286  10.608   2.240  13.464
12758W        W84287  30.198  30.672   1.391
12759W        W84288  41.452  41.583   3.842
12760W        W84289  29.916  19.481  11.133
12761W        W84290   8.853  23.846   3.157
12762W        W84291  38.395  40.007  11.669
12763W        W84292  35.041  30.917   4.802
12764W        W84293  36.444  20.187  11.070
12765W        W84294  35.717  35.654  11.097
12766W        W84295  33.223  14.222   0.406
12767W        W84296  23.688  14.338   2.025
12768W        W84297   5.143  44.251   2.858
12769W        W84298  42.467  41.294   0.659
12770W        W84299  22.676  38.504  12.636
12771W        W84300  18.486  12.197   3.660
12772W        W84301  16.228  21.915  14.362
12773W        W84302  14.299  37.747   1.047
12774W        W84303  44.361  17.814  10.393
12775W        W84304  37.512  40.530   0.291
12776W        W84305   5.766  29.168  10.854
12777W        W84306  11.333  40.039  12.876
12778W        W84307  32.926  31.597  12.423
12779W        W84308  32.742  42.845  12.364
12780W        W84309  32.051  16.614  13.441
12781W        W84310  33.854  10.237   2.307
12782W        W84311   6.269  25.151   1.853
12783W        W84312  18.073  32.141  10.647
12784W        W84313  28.202  11.857   2.686
12785W        W84314   8.393  44.195  14.787
12786W        W84315  40.853  36.057  13.428
12787W        W84316  18.318  14.227  10.366
12788W        W84317  38.316  14.096  11.064
12789W        W84318   3.928  12.520   0.963
12790W        W84319  20.316  31.105   3.859
12791W        W84320  25.338  39.783  11.513
12792W        W84321  38.118  17.574  11.840
12793W        W84322   8.355  24.422   2.399
12794W        W84323   2.721  37.585   2.666
12795W        W84324  20.294   0.881  14.937
12796W        W84325  30.153  31.238  14.376
12797W        W84326   2.912  17.765  12.879
12798W        W84327  31.611  30.243   4.719
12799W        W84328  24.076  18.175  12.326
12800W        W84329  44.271  20.545  13.111
12801W        W84330  43.961  27.832   2.780
12802W        W84331  22.258  11.196   1.966
12803W        W84332  22.546   1.530  13.825
12804W        W84333  29.553  12.986  13.464
12805W        W84334  18.878   9.713   1.901
12806W        W84335   3.740  10.339   1.731
12807W        W84336  29.034  12.902   4.224
12808W        W84337  26.532  15.002   3.599
12809W        W84338  28.253   4.619   4.143
12810W        W84339  41.067  20.485   0.122
12811W        W84340  19.510   5.333  14.532
12812W        W84341  20.342  42.890  11.099
12813W        W84342  44.627  30.919   3.166
12814W        W84343   1.581  13.733   0.868
12815W        W84344  43.937  30.188  10.704
12816W        W84345  31.511  39.973  11.493
12817W        W84346  41.259  17.172   4.272
12818W        W84347  43.600  24.672   2.519
12819W        W84348  27.006  35.162  13.907
12820W        W84349   2.841  23.943   4.888
12821W        W84350  28.672  15.346   3.640
12822W        W84351  26.186   7.468  14.487
12823W        W84352  19.822   7.468   1.824
12824W        W84353  35.812  42.322   1.230
12825W        W84354  18.278  15.317   1.920
12826W        W84355  36.914  26.588   4.300
12827W        W84356   3.689  16.663  11.551
12828W        W84357   2.303   5.420  12.553
12829W        W84358  20.186  36.401   4.303
12830W        W84359  41.311  36.323  13.428
12831W        W84360  12.207  10.117   3.703
12832W        W84361   4.800  44.100   4.780
12833W        W84362  37.340  40.275   5.012
12834W        W84363   9.345   9.143  13.475
12835W        W84364  27.061  16.654  14.259
12836W        W84365  30.452  18.795  14.888
12837W        W84366  21.749  11.509  12.471
12838W        W84367  20.632  31.492   3.965
12839W        W84368  26.619  12.815  13.878
12840W        W84369  42.263  14.837  10.933
12841W        W84370  22.449  23.302  11.824
12842W        W84371  32.369   6.149  11.244
12843W        W84372  34.125  38.736  14.442
12844W        W84373  34.213  18.637  14.357
12845W        W84374  27.567   7.911   3.161
12846W        W84375   6.907  26.421  14.317
12847W        W84376  42.848  25.407   4.595
12848W        W84377  18.704  13.759   1.458
12849W        W84378   2.227  32.563   0.837
12850W        W84379   6.739  26.558  13.835
12851W        W84380  17.132  29.915  14.019
12852W        W84381  10.712  12.737   0.764
12853W        W84382  29.053  29.850  14.479
12854W        W84383  21.802  16.197  14.512
12855W        W84384  14.796  16.075  13.322
12856W        W84385  38.476  29.680   2.338
12857W        W84386  26.896   6.913   3.273
12858W        W84387   0.895  30.754  11.864
12859W        W84388  25.104  38.217   2.377
12860W        W84389  31.437   5.086  10.730
12861W        W84390  44.922   0.534   2.082
12862W        W84391  13.851  11.367   0.873
12863W        W84392  22.079  15.550  13.433
12864W        W84393  22.375  31.653   1.188
12865W        W84394   7.338   3.387  12.090
12866W        W84395   1.352  44.865  12.401
12867W        W84396  22.626  41.972  12.212
12868W        W84397  24.542  21.036  13.961
12869W        W84398  15.736  30.287  11.582
12870W        W84399  20.231   8.197  14.859
12871W        W84400  32.844  16.792   2.380
12872W        W84401  44.506  40.366  12.468
12873W        W84402  20.257  27.432   3.303
12874W        W84403  10.114  19.280   2.219
12875W        W84404  42.941  23.514   0.740
12876W        W84405  41.943  28.014   4.663
12877W        W84406  10.204  42.331  10.582
12878W        W84407  24.750   9.993  12.224
12879W        W84408   2.380  39.793   2.442
12880W        W84409  33.538  43.067  12.981
12881W        W84410  29.891   4.307  11.410
12882W        W84411  31.407  41.969   1.286
12883W        W84412  44.523   4.322   2.091
12884W        W84413  37.267  13.729   3.179
12885W        W84414  24.616  17.956   2.363
12886W        W84415  29.056  19.740   1.708
12887W        W84416  26.939  18.665   2.233
12888W        W84417  26.078  43.559   3.583
12889W        W84418  29.070   3.894   2.456
12890W        W84419   1.858  34.120  14.353
12891W        W84420  36.334  12.692  12.097
12892W        W84421  15.707  22.819   3.594
12893W        W84422   9.863  34.590  12.918
12894W        W84423   2.304  31.939  14.497
12895W        W84424  39.587  27.187  11.621
12896W        W84425  33.472  23.115   2.783
12897W        W84426  15.756  13.189   2.768
12898W        W84427  10.109  27.343   4.620
12899W        W84428  27.724  11.618  12.155
12900W        W84429  11.897  24.919  13.222
12901W        W84430   4.879  11.928   0.757
12902W        W84431   5.116  13.879  12.664
12903W        W84432   0.726  22.078   1.797
12904W        W84433  25.242   8.416  12.977
12905W        W84434  42.480  42.030  12.949
12906W        W84435  44.370  23.954   4.094
12907W        W84436   0.297   8.253  11.636
12908W        W84437  16.345  20.553  11.020
12909W        W84438  39.218  34.418  12.882
12910W        W84439  32.821   6.200   1.280
12911W        W84440  37.619  42.918  10.921
12912W        W84441  39.289  37.156  12.494
12913W        W84442  40.828   6.548  11.250
12914W        W84443  37.470  18.214  11.994
12915W        W84444  16.183   1.834  10.516
12916W        W84445   1.097  22.561   4.494
12917W        W84446  23.904  21.024   3.580
12918W        W84447  29.419   0.456   3.229
12919W        W84448   7.535  12.489  11.189
12920W        W84449   1.406  24.112  12.889
12921W        W84450  15.627  26.934   3.278
12922W        W84451  26.571   2.310  10.659
12923W        W84452   5.794  27.452   1.481
12924W        W84453   1.485  17.638   0.626
12925W        W84454  31.449   9.692  12.613
12926W        W84455  20.150  39.285   0.421
12927W        W84456   5.728  24.416  14.596
12928W        W84457  34.363  10.864   3.306
12929W        W84458  38.828  30.254  10.258
12930W        W84459  44.693  38.050   1.659
12931W        W84460   5.828  11.921   0.872
12932W        W84461   9.363  36.858  10.884
12933W        W84462  15.578   0.813  10.919
12934W        W84463   6.995  38.397   4.073
12935W        W84464  11.868  13.563   0.548
12936W        W84465  27.055  24.537   1.180
12937W        W84466  19.691  26.985   0.735
12938W        W84467   9.692  28.917   2.840
12939W        W84468  15.052  39.624   0.615
12940W        W84469  35.589  38.852  11.416
12941W        W84470  12.718  14.784   4.665
12942W        W84471  42.511  19.640  14.762
12943W        W84472   2.217   6.677   1.337
12944W        W84473   1.698  24.922   0.364
12945W        W84474   1.028  26.253   3.233
12946W        W84475  22.709  23.640   2.619
12947W        W84476  10.700  36.110   0.244
12948W        W84477  12.601  36.048  13.427
12949W        W84478  32.093   4.603   1.768
12950W        W84479   1.590  39.121  12.330
12951W        W84480  20.052  34.609  10.606
12952W        W84481  32.947  31.453  13.442
12953W        W84482  13.564  15.115  10.730
12954W        W84483  38.560  33.118   1.740
12955W        W84484  25.488  36.527   4.483
12956W        W84485  35.520  13.654  14.947
12957W        W84486  43.524   8.163   3.705
12958W        W84487  16.291  26.992  12.400
12959W        W84488   5.244   1.892  12.786
12960W        W84489  30.605  39.377   2.699
12961W        W84490  15.763   0.424   3.890
12962W        W84491   9.122  34.511  13.469
12963W        W84492  21.089  37.349  10.544
12964W        W84493  36.343   6.777  12.382
12965W        W84494  10.787   2.075   2.689
12966W        W84495  42.968  21.929   1.807
12967W        W84496  13.464  14.120   2.753
12968W        W84497  26.618  18.787  13.516
12969W        W84498  28.928   6.225  12.950
12970W        W84499  25.501  35.113  12.600
12971W        W84500  30.615  21.467  12.356
12972W        W84501  33.667  12.845  11.537
12973W        W84502  13.518  18.541  14.457
12974W        W84503  13.604  42.809   3.337
12975W        W84504  29.536  41.332  12.105
12976W        W84505  38.810   2.528  10.868
12977W        W84506  44.384  44.118  11.621
12978W        W84507  44.543  28.712  10.708
12979W        W84508   9.478  11.014  13.899
12980W        W84509   5.433   5.438  11.190
12981W        W84510  26.713   3.494  12.219
12982W        W84511  32.461  35.975  12.375
12983W        W84512  30.652  41.826   2.409
12984W        W84513   8.628  21.642  13.458
12985W        W84514  34.638  26.494  13.941
12986W        W84515  35.077   2.296  12.918
12987W        W84516   3.688  18.100   4.488
12988W        W84517  39.374  44.984   1.155
12989W        W84518  10.266  26.040  12.474
12990W        W84519   0.002  27.200  14.460
12991W        W84520  23.188  13.281  12.382
12992W        W84521  40.402  34.766   2.652
12993W        W84522  41.096   4.851  10.683
12994W        W84523  31.512  17.797   1.707
12995W        W84524  43.985   1.905   2.299
12996W        W84525  28.643   9.183  11.654
12997W        W84526  23.140  35.421   0.155
12998W        W84527  18.182  33.442   1.099
12999W        W84528  15.898  41.367  12.118
13000W        W84529   2.741  26.286  11.878
13001W        W84530  18.596   9.351  11.033
13002W        W84531  19.564   2.956  11.066
13003W        W84532   6.292  31.644   3.213
13004W        W84533  10.719  28.758   0.257
13005W        W84534  30.667  31.943   0.452
13006W        W84535  19.199   1.824  12.900
13007W        W84536  22.126  16.755  11.291
13008W        W84537   3.730  26.212  11.941
13009W        W84538   2.018  19.199   0.403
13010W        W84539  31.979  13.517  12.424
13011W        W84540   4.919  30.497  10.402
13012W        W84541  10.119  13.396  14.461
13013W        W84542  30.690   9.636   1.392
13014W        W84543  44.309  37.132  11.998
13015W        W84544  19.248  21.053   3.182
13016W        W84545   6.267  27.924  12.979
13017W        W84546  44.728  40.009  10.745
13018W        W84547   3.890  32.927   1.468
13019W        W84548  27.712  14.131   0.781
13020W        W84549  14.218  41.074  14.425
13021W        W84550  43.801   2.125  14.108
13022W        W84551  38.879  18.690  14.765
13023W        W84552  18.712   5.050   0.244
13024W        W84553  28.099  42.403   2.575
13025W        W84554  42.172  27.027   3.980
13026W        W84555  40.965  41.256   1.168
13027W        W84556  33.028  42.403   4.968
13028W        W84557  40.351  19.673  14.307
13029W        W84558   5.309  36.324   4.529
13030W        W84559   4.261   7.808   1.200
13031W        W84560  24.154  19.085  11.488
13032W        W84561  39.725  32.465  11.711
13033W        W84562  18.593   1.377  10.703
13034W        W84563  38.746  41.948   0.235
13035W        W84564  28.379  36.193  12.519
13036W        W84565  31.621  15.648  12.921
13037W        W84566   9.372  17.220   1.774
13038W        W84567  42.736   3.801   3.460
13039W        W84568  27.732  40.935  10.566
13040W        W84569  12.645  19.278  10.883
13041W        W84570  34.033   9.307   1.360
13042W        W84571  16.625  30.610  10.524
13043W        W84572  23.493  21.178   0.901
13044W        W84573  44.323  37.506  10.306
13045W        W84574  35.850  33.176   1.008
13046W        W84575  31.985  44.936   1.699
13047W        W84576  31.964  31.265  14.447
13048W        W84577  26.119  32.026  14.936
13049W        W84578  30.682  41.269   1.294
13050W        W84579  19.581   2.978  12.731
13051W        W84580  29.618  12.095   2.619
13052W        W84581  34.466  36.659  14.411
13053W        W84582  16.358   7.019   4.072
13054W        W84583  37.563   0.467   1.229
13055W        W84584   6.388  41.663  12.989
13056W        W84585  10.769   9.441   0.391
13057W        W84586   2.869   2.713   0.059
13058W        W84587   0.363   4.763  11.993
13059W        W84588   2.309  30.651  11.937
13060W        W84589  26.690   0.410  14.886
13061W        W84590  27.534  12.698   3.619
13062W        W84591  10.917  15.046  14.467
13063W        W84592  40.534  38.335   0.990
13064W        W84593  38.988  24.941   3.252
13065W        W84594  14.952  37.003  13.273
13066W        W84595  30.994   2.459   4.211
13067W        W84596   5.575  30.644  14.935
13068W        W84597  15.060   2.425  12.497
13069W        W84598   7.734  43.536   2.644
13070W        W84599  24.267   5.206  13.069
13071W        W84600  15.419  24.449   0.942
13072W        W84601  21.459  24.750  10.783
13073W        W84602  32.114  25.044  12.364
13074W        W84603  39.307  29.473  10.424
13075W        W84604  18.762  20.728   2.364
13076W        W84605  25.985  19.195  14.792
13077W        W84606  37.594   0.477   1.737
13078W        W84607  17.041  26.201  10.734
13079W        W84608  37.344  17.503   4.174
13080W        W84609  43.749  35.582   1.983
13081W        W84610   0.340  18.751   1.692
13082W        W84611  42.224  15.709  11.253
13083W        W84612  41.340  13.885  12.921
13084W        W84613  27.591  26.221  11.963
13085W        W84614  12.902   3.112  13.802
13086W        W84615  26.096   0.407   3.595
13087W        W84616  36.307  40.523  13.887
13088W        W84617  36.833  26.303   0.461
13089W        W84618   6.601  30.550  14.790
13090W        W84619  23.549  25.041   2.863
13091W        W84620   9.432  39.741   2.977
13092W        W84621  28.867   2.852  14.720
13093W        W84622  40.290  37.375  13.518
13094W        W84623   3.386   9.839   2.165
13095W        W84624   5.227   4.873   1.785
13096W        W84625  41.924  27.575   0.001
13097W        W84626   6.612  37.905  14.347
13098W        W84627  19.810  12.563   1.692
13099W        W84628  22.305  32.010  11.161
13100W        W84629  39.484  22.972   1.400
13101W        W84630  31.174  21.040   3.695
13102W        W84631  29.899   8.296  13.488
13103W        W84632  13.822  33.609   3.794
13104W        W84633  33.159  28.886  12.013
13105W        W84634   1.354  36.901  13.575
13106W        W84635   8.517  14.561  14.425
13107W        W84636  28.567  16.961   4.030
13108W        W84637  24.625  26.998  11.419
13109W        W84638  19.328  19.865   1.303
13110W        W84639  17.185  19.275   0.963
13111W        W84640   9.692  25.466   3.007
13112W        W84641   3.615  11.761   0.296
13113W        W84642  35.248  43.357   2.655
13114W        W84643  32.988  33.494   0.252
13115W        W84644   5.689  10.220   3.260
13116W        W84645  17.702  41.452  12.102
13117W        W84646   5.816  44.815  13.946
13118W        W84647  22.426  29.464  11.615
13119W        W84648   9.986   6.463   5.059
13120W        W84649  22.637  38.052  11.974
13121W        W84650  40.647   2.661  12.080
13122W        W84651   6.453  44.125  12.034
13123W        W84652  17.618  23.925  14.390
13124W        W84653  20.296  40.701   2.395
13125W        W84654  15.159  19.082   4.011
13126W        W84655   8.619   7.267   4.630
13127W        W84656  28.505  14.097  12.059
13128W        W84657  22.754  36.860   2.014
13129W        W84658   6.213  43.297   2.131
13130W        W84659  44.660  18.542  11.927
13131W        W84660  21.730  14.859   2.025
13132W        W84661  27.232  30.039   2.351
13133W        W84662   6.279  36.728   1.061
13134W        W84663  32.527  20.772  13.015
13135W        W84664  36.243  28.104  10.729
13136W        W84665   6.857   7.700  13.448
13137W        W84666  29.221  41.330   1.952
13138W        W84667   9.902  33.099   4.226
13139W        W84668  33.833  44.440   2.120
13140W        W84669   2.917   4.684  12.054
13141W        W84670  31.148  41.280   3.266
13142W        W84671  19.835  42.305   1.002
13143W        W84672  16.693   4.379   2.422
13144W        W84673   1.932  19.115   4.566
13145W        W84674   4.719   2.521  13.945
13146W        W84675  19.066  31.678  13.905
13147W        W84676   7.187  44.043  13.983
13148W        W84677   0.513  14.635  10.723
13149W        W84678  10.757  13.454   4.699
13150W        W84679  29.427  23.481   1.656
13151W        W84680   2.333  30.927   4.011
13152W        W84681   5.431  44.528  14.409
13153W        W84682  11.662   4.679   4.186
13154W        W84683  38.528  28.039  11.651
13155W        W84684  12.209  36.356   3.338
13156W        W84685   5.709   2.921   4.307
13157W        W84686  14.770  43.831   4.831
13158W        W84687  16.625  34.966  10.746
13159W        W84688  42.912  28.506  14.416
13160W        W84689  12.259  14.339  12.030
13161W        W84690  15.570  31.977  13.022
13162W        W84691   6.672  14.293   2.224
13163W        W84692   8.089  35.288  12.990
13164W        W84693   1.962  20.980  12.657
13165W        W84694  26.172  20.247  11.957
13166W        W84695  38.531  17.532  12.661
13167W        W84696  18.085  40.918  14.816
13168W        W84697   2.506   9.827   2.214
13169W        W84698  19.589  44.911   0.553
13170W        W84699  33.628  33.895  13.399
13171W        W84700  38.575   0.503   4.078
13172W        W84701  21.299   2.253  11.768
13173W        W84702  39.743  36.615  14.564
13174W        W84703   7.242  26.323   1.729
13175W        W84704   3.352  22.111  13.612
13176W        W84705   9.418  40.390   4.598
13177W        W84706   5.356  31.393  12.106
13178W        W84707   7.930  11.707   4.660
13179W        W84708   5.471  22.956   3.577
13180W        W84709  16.857  35.436  10.720
13181W        W84710  22.314  23.663  11.235
13182W        W84711  37.605   4.778  14.805
13183W        W84712  21.920  21.634  11.657
13184W        W84713   7.662   5.433   0.905
13185W        W84714   2.184  41.520  12.905
13186W        W84715  14.088  10.143   2.214
13187W        W84716  17.200  13.399   0.422
13188W        W84717   0.326   9.810  11.934
13189W        W84718   0.708   0.364   4.741
13190W        W84719   2.027  19.140   1.225
13191W        W84720  20.405  43.023  12.552
13192W        W84721  15.125  36.368  11.699
13193W        W84722  15.798  44.343  12.991
13194W        W84723  40.551  42.052   0.305
13195W        W84724  40.526  17.064   4.999
13196W        W84725  18.781  34.447  11.176
13197W        W84726  22.184  11.274   2.918
13198W        W84727  33.046  42.933  10.966
13199W        W84728  41.331  12.732  13.939
13200W        W84729  14.697   3.943  10.757
13201W        W84730  36.068  27.354   4.070
13202W        W84731  44.591   9.241   2.818
13203W        W84732   5.753  15.743   0.744
13204W        W84733  35.615  23.760   1.774
13205W        W84734  26.581  42.087  12.012
13206W        W84735  24.575  24.878   3.109
13207W        W84736  40.050   8.276  11.865
13208W        W84737  27.020  26.138   2.776
13209W        W84738  12.873  11.889   3.667
13210W        W84739  27.561  44.653   1.919
13211W        W84740  20.505  16.540  11.957
13212W        W84741  17.770   6.880   0.397
13213W        W84742  29.044  29.920   2.218
13214W        W84743  31.211  16.009  12.568
13215W        W84744  15.223  24.775   3.681
13216W        W84745   3.614   0.730  11.044
13217W        W84746   3.285   8.787  14.455
13218W        W84747  44.909  22.992   2.291
13219W        W84748  31.541  42.360  11.098
13220W        W84749  16.508   7.226  12.860
13221W        W84750  31.994  24.258  13.086
13222W        W84751  27.474  39.111   1.716
13223W        W84752   2.671  20.752   0.689
13224W        W84753  30.905  32.911   1.440
13225W        W84754  15.017   0.697  12.406
13226W        W84755   6.312  11.940  10.871
13227W        W84756   0.608  35.014  10.789
13228W        W84757  14.820  32.815  10.759
13229W        W84758  14.709  12.680  11.555
13230W        W84759   5.456  16.849   1.395
13231W        W84760  38.864  10.958   0.016
13232W        W84761   1.421  29.437  11.108
13233W        W84762  43.884  34.702   0.488
13234W        W84763  27.012  30.077  11.565
13235W        W84764  31.109  24.804  11.987
13236W        W84765  12.164  16.507   1.696
13237W        W84766   1.937  16.482   0.695
13238W        W84767  38.141   8.098   2.381
13239W        W84768  26.221  44.019   2.296
13240W        W84769   5.917   1.826   3.653
13241W        W84770  16.383  35.897  11.525
13242W        W84771  36.112  19.903  13.593
13243W        W84772  44.056  39.408  10.753
13244W        W84773  12.789  32.179  10.635
13245W        W84774  27.495   3.244  13.283
13246W        W84775   4.037   1.877  13.355
13247W        W84776  18.839  31.214   4.667
13248W        W84777  38.861  23.408   3.216
13249W        W84778  23.677  11.373   1.102
13250W        W84779   6.889  32.189  11.312
13251W        W84780  43.569   5.188   3.847
13252W        W84781  35.087  30.082  14.385
13253W        W84782   3.556  25.063   2.960
13254W        W84783  44.225   3.348  13.318
13255W        W84784  17.422  35.805  13.079
13256W        W84785  43.083   8.411   3.598
13257W        W84786  40.977  36.408  14.359
13258W        W84787  25.542   1.990  13.047
13259W        W84788  12.587  30.733  14.604
13260W        W84789  43.078   8.456  12.109
13261W        W84790  42.686  36.279   4.100
13262W        W84791  17.573  40.978  14.882
13263W        W84792  35.836  43.071  11.974
13264W        W84793   5.303  44.618   4.149
13265W        W84794  42.073  11.352  13.317
13266W        W84795  30.956  28.248  11.059
13267W        W84796  23.082  25.089  12.297
13268W        W84797  25.628  22.319  11.238
13269W        W84798   9.847  27.268  10.524
13270W        W84799   0.632  27.528   2.251
13271W        W84800  40.070   9.908   2.349
13272W        W84801  32.429  31.653   2.693
13273W        W84802   6.848   8.416   4.418
13274W        W84803  39.948   2.817  10.681
13275W        W84804  42.891  41.274   2.681
13276W        W84805  25.613   3.929  11.388
13277W        W84806   8.846   7.284  12.529
13278W        W84807  26.021   7.205   3.779
13279W        W84808  29.467  12.110   1.742
13280W        W84809   9.765  40.854  14.792
13281W        W84810  18.303  17.839  11.969
13282W        W84811   4.790  37.788   2.775
13283W        W84812  41.283  20.729   2.321
13284W        W84813  32.132   3.784  11.661
13285W        W84814  11.662  30.265  10.943
13286W        W84815   6.457  41.139   3.266
13287W        W84816   6.120  32.671  10.712
13288W        W84817  15.597  24.222   2.770
13289W        W84818  44.251  24.683  11.864
13290W        W84819  13.262   4.805   1.538
13291W        W84820  33.146  17.262  10.364
13292W        W84821   1.023  22.045   3.317
13293W        W84822   2.914  43.260   0.857
13294W        W84823   7.712  14.141   3.584
13295W        W84824  21.940  12.242  13.893
13296W        W84825  28.630  19.290  10.947
13297W        W84826  43.273   0.370   0.203
13298W        W84827  22.453  16.704   0.065
13299W        W84828  20.679  19.742   0.178
13300W        W84829   0.459  32.647   4.554
13301W        W84830  26.153  39.196  10.769
13302W        W84831  21.592  44.873   2.353
13303W        W84832  29.663   6.803   4.118
13304W        W84833  44.859  36.826   3.670
13305W        W84834  28.161  24.985   2.695
13306W        W84835  19.076   8.620   4.079
13307W        W84836  25.431  18.698  12.033
13308W        W84837  19.599  17.783   1.513
13309W        W84838  39.288  43.491  10.676
13310W        W84839   3.864   1.902   4.626
13311W        W84840  18.239  42.955   2.293
13312W        W84841   2.075  30.859   0.564
13313W        W84842  42.807   0.735  12.615
13314W        W84843  27.329  37.003  10.565
13315W        W84844   8.295  26.892  12.517
13316W        W84845   2.485  32.688  13.217
13317W        W84846   9.795  33.964   4.063
13318W        W84847  13.041  43.025  13.341
13319W        W84848  34.706   9.028   4.512
13320W        W84849  17.494  37.821  11.660
13321W        W84850  10.683   3.464  14.919
13322W        W84851   0.092  38.269   2.399
13323W        W84852  18.064  17.290   4.181
13324W        W84853  19.545  32.307   4.179
13325W        W84854   9.408  32.512   4.811
13326W        W84855  17.328  20.113  13.968
13327W        W84856  35.953   5.187  12.783
13328W        W84857  30.964   1.109   0.696
13329W        W84858   8.700  12.360  14.335
13330W        W84859  19.097  37.104  11.917
13331W        W84860  34.468  11.792   0.188
13332W        W84861  16.163  36.437  13.446
13333W        W84862  10.796  38.850   0.825
13334W        W84863  32.663  20.781   2.008
13335W        W84864  34.062  39.273   0.422
13336W        W84865  27.924  42.060  12.672
13337W        W84866  42.949   6.280  13.419
13338W        W84867  44.935  21.166  11.976
13339W        W84868   1.409  41.913   3.117
13340W        W84869  40.597  41.485   4.405
13341W        W84870  24.744  26.890   3.267
13342W        W84871  22.036  13.695   0.378
13343W        W84872   7.387  34.110  12.519
13344W        W84873  33.932  14.377  11.972
13345W        W84874   9.795  20.899   1.232
13346W        W84875   0.226  40.041  11.550
13347W        W84876  20.437  38.208   9.765
13348W        W84877   0.959   6.764  13.785
13349W        W84878  27.035   8.795   1.011
13350W        W84879  30.888   5.343   2.874
13351W        W84880   6.628   3.869  10.684
13352W        W84881  39.452  31.764   1.160
13353W        W84882   3.903  13.679   2.272
13354W        W84883  14.432  35.256  12.088
13355W        W84884  32.785   7.111  14.965
13356W        W84885  32.935  45.000  10.598
13357W        W84886   7.697  42.102   3.173
13358W        W84887  36.939  41.315   0.309
13359W        W84888  23.150  39.270  12.979
13360W        W84889   0.581  35.528  13.365
13361W        W84890  34.614  36.259   2.745
13362W        W84891  25.121  41.185  14.371
13363W        W84892  21.450  42.554   3.663
13364W        W84893  10.393  14.312  10.677
13365W        W84894  17.209  43.307  13.554
13366W        W84895  29.228  36.908  12.598
13367W        W84896  20.455  41.435  13.497
13368W        W84897  25.050  19.149  14.746
13369W        W84898   1.481  44.209   4.736
13370W        W84899  14.217  10.909   1.912
13371W        W84900  41.437  10.029   0.367
13372W        W84901  36.613  38.772   3.775
13373W        W84902   4.864  19.206  13.944
13374W        W84903  11.842  26.164  10.967
13375W        W84904  34.898  21.568  10.531
13376W        W84905   3.328   5.266  12.661
13377W        W84906   4.038  29.276  11.474
13378W        W84907  34.932  12.170   3.800
13379W        W84908  33.967  27.984  13.796
13380W        W84909  44.922  37.235   2.275
13381W        W84910  34.047   6.911  10.922
13382W        W84911  18.115  31.113  11.675
13383W        W84912  23.133  19.330  12.910
13384W        W84913   9.695  41.257  11.058
13385W        W84914   3.447   6.771   3.347
13386W        W84915  18.775  37.480  12.424
13387W        W84916  33.730   4.530  11.996
13388W        W84917  33.429  30.169   1.244
13389W        W84918  41.394  31.085   3.590
13390W        W84919  36.948  12.966  11.615
13391W        W84920  27.961  37.405   2.703
13392W        W84921  40.985  41.984  12.913
13393W        W84922  24.440  36.601   0.213
13394W        W84923  32.713  23.538  12.151
13395W        W84924  35.967   4.364   0.932
13396W        W84925  14.278  28.152   0.940
13397W        W84926  15.100  16.596  10.739
13398W        W84927  19.798   4.634  11.589
13399W        W84928  14.974  27.635  12.690
13400W        W84929  19.168  29.652  13.464
13401W        W84930  21.740  14.353   3.081
13402W        W84931   5.700  11.594   1.262
13403W        W84932   3.897  41.982   4.150
13404W        W84933  33.441   6.936   1.314
13405W        W84934  13.444  39.510  14.860
13406W        W84935   8.131   2.772  10.318
13407W        W84936  11.833  40.560   4.066
13408W        W84937  30.376  30.173   1.327
13409W        W84938  39.087  42.470  12.084
13410W        W84939  19.974   8.973  13.783
13411W        W84940  40.760  42.777   0.487
13412W        W84941   4.696  21.993   2.896
13413W        W84942  27.041  26.418  14.699
13414W        W84943  15.831  33.565  11.512
13415W        W84944   7.714   0.942  10.663
13416W        W84945   3.216  24.167   2.748
13417W        W84946  26.894  30.502  10.613
13418W        W84947   0.944   9.909  12.638
13419W        W84948   5.293   6.712  11.528
13420W        W84949   9.407  22.842   4.081
13421W        W84950  39.107  40.560   3.624
13422W        W84951  33.897  39.788  13.123
13423W        W84952  44.142   8.212   1.179
13424W        W84953  14.218  41.550  14.597
13425W        W84954  44.118   8.968  13.306
13426W        W84955  35.868  22.226  14.078
13427W        W84956  20.985  17.036   0.782
13428W        W84957   5.859  33.504   3.380
13429W        W84958  32.150  30.607  12.223
13430W        W84959  14.021  20.186  13.248
13431W        W84960   0.749  25.245  13.085
13432W        W84961   4.454  28.224  14.975
13433W        W84962  17.993  37.473  12.954
13434W        W84963  22.710  31.873   0.239
13435W        W84964   7.009  43.496  12.006
13436W        W84965  40.381   3.769  14.710
13437W        W84966  23.109  44.837   4.262
13438W        W84967  11.126   2.407   1.836
13439W        W84968   6.678   6.430   0.171
13440W        W84969   4.809  41.807  14.229
13441W        W84970  29.804  34.667   2.451
13442W        W84971  33.184  11.845   0.373
13443W        W84972   1.317  44.553   0.854
13444W        W84973  33.585   7.583   3.168
13445W        W84974  15.285  31.207  14.779
13446W        W84975  22.114  17.712   0.373
13447W        W84976  38.439   5.330   1.625
13448W        W84977  13.141   7.593   1.127
13449W        W84978  10.352  17.106  13.330
13450W        W84979  11.874  26.929   0.848
13451W        W84980  29.163  16.206  12.452
13452W        W84981  36.168  10.035  12.430
13453W        W84982  43.424   7.677  12.523
13454W        W84983   8.312   1.231  10.073
13455W        W84984  22.200  13.307  14.582
13456W        W84985  10.943  41.760  13.788
13457W        W84986  19.773  12.334  10.632
13458W        W84987   6.383   9.112   0.719
13459W        W84988   0.632  33.310  10.641
13460W        W84989   2.774  20.561   4.614
13461W        W84990  11.867  42.274   3.213
13462W        W84991  30.302  16.173   1.904
13463W        W84992  11.453  30.828   3.250
13464W        W84993  26.966  44.230   0.384
13465W        W84994  12.723   7.856  14.421
13466W        W84995  10.742  19.752   0.488
13467W        W84996  15.259  31.524  11.546
13468W        W84997  35.352  20.230  11.858
13469W        W84998  39.852  29.466  13.141
13470W        W84999  10.221  19.195   1.704
13471W        W85000  13.357  31.375  11.503
13472W        W85001  31.174  34.404  12.629
13473W        W85002  26.971   9.402   0.981
13474W        W85003   8.234   9.170   1.363
13475W        W85004   5.428  34.942  10.542
13476W        W85005  27.152   1.910  14.869
13477W        W85006  27.049  15.211   0.471
13478W        W85007  22.076  11.633   0.266
13479W        W85008  21.614  11.776   2.226
13480W        W85009  30.083  15.405  11.976
13481W        W85010  28.045  20.339   4.566
13482W        W85011  25.463  14.150   0.043
13483W        W85012  23.073   0.682  13.002
13484W        W85013  37.628  42.338  14.866
13485W        W85014   8.751  11.382  14.431
13486W        W85015  37.907  37.509  11.544
13487W        W85016   1.383  23.046   3.599
13488W        W85017  25.645   7.352  10.106
13489W        W85018  11.798  29.208  11.159
13490W        W85019  28.976  31.980  12.430
13491W        W85020  32.709   5.719  11.252
13492W        W85021  36.568  21.338   1.462
13493W        W85022   9.965   9.679   3.594
13494W        W85023   9.572  10.315   1.799
13495W        W85024  39.844  34.158  13.954
13496W        W85025  14.612  26.190  14.743
13497W        W85026  17.541  28.508   2.667
13498W        W85027  34.845   2.198   4.532
13499W        W85028   7.084  24.734  12.601
13500W        W85029  12.789  30.912   3.715
13501W        W85030  42.345  42.021   1.891
13502W        W85031  29.009  34.892   3.614
13503W        W85032  11.184   6.097  11.278
13504W        W85033  41.111   7.483   4.566
13505W        W85034   0.493   3.419   4.187
13506W        W85035   6.897  35.080  12.471
13507W        W85036   7.642  28.025   0.789
13508W        W85037  29.176  25.878  12.540
13509W        W85038  39.634  12.675   2.742
13510W        W85039  30.075  18.843  11.943
13511W        W85040  21.580  26.105  12.840
13512W        W85041  32.476  19.819   1.633
13513W        W85042   8.875  14.757  13.007
13514W        W85043  15.701   6.210  10.631
13515W        W85044  18.052   8.771   4.745
13516W        W85045   3.418   4.161  10.821
13517W        W85046   4.463  39.034   3.670
13518W        W85047  21.087  17.597  10.636
13519W        W85048  21.534  12.726   0.702
13520W        W85049  41.174  19.725  11.856
13521W        W85050  11.236  28.604  13.923
13522W        W85051  23.480   9.929  12.617
13523W        W85052  10.241  14.872  10.663
13524W        W85053   5.648  29.243  12.065
13525W        W85054  14.573  20.023  11.147
13526W        W85055  31.863   8.396  11.061
13527W        W85056  42.273  24.654   1.965
13528W        W85057   6.617  20.582  10.780
13529W        W85058  27.015  21.819   0.511
13530W        W85059   1.499  43.055  12.065
13531W        W85060   6.763   2.520  14.330
13532W        W85061  30.407  39.894   4.576
13533W        W85062  14.301  32.906   3.787
13534W        W85063   3.957  37.047  14.057
13535W        W85064   6.685   4.730   1.858
13536W        W85065  13.565   9.414   3.405
13537W        W85066  25.582   8.770  10.810
13538W        W85067   5.470  25.502  14.018
13539W        W85068   2.386  30.498  13.250
13540W        W85069   6.810  35.984  11.230
13541W        W85070  43.498   2.433   3.182
13542W        W85071  14.065  32.174   4.561
13543W        W85072  27.686   8.129   0.818
13544W        W85073  28.439  33.972   0.063
13545W        W85074  36.474  23.658   2.206
13546W        W85075   4.736  31.158  12.516
13547W        W85076  21.636   0.803  12.109
13548W        W85077  25.387  22.058   1.839
13549W        W85078  34.886   9.253  12.146
13550W        W85079  33.652   8.085   3.205
13551W        W85080  14.030   4.251   4.182
13552W        W85081  29.536  25.056   0.186
13553W        W85082  40.862  38.957   2.746
13554W        W85083  10.694  43.057  12.508
13555W        W85084   0.349   7.806  12.631
13556W        W85085  25.677  36.431   4.001
13557W        W85086  17.054   6.688  13.747
13558W        W85087  39.022   0.572   5.064
13559W        W85088  23.411  39.936  14.482
13560W        W85089  27.603  28.855   2.599
13561W        W85090   7.171   6.337  12.946
13562W        W85091  21.527  11.758  10.547
13563W        W85092  44.063   3.558  11.086
13564W        W85093  12.339  10.438   1.649
13565W        W85094  26.090   2.919  12.514
13566W        W85095  39.332  26.984  12.013
13567W        W85096   1.976  10.330  11.094
13568W        W85097  29.409   8.237   4.321
13569W        W85098  29.793  23.674  12.519
13570W        W85099  40.924  20.440  13.760
13571W        W85100  29.020  33.671   1.687
13572W        W85101   8.756  32.197   0.579
13573W        W85102  13.165  20.116   3.417
13574W        W85103  17.178  38.826  11.951
13575W        W85104  20.213  19.285   3.156
13576W        W85105  19.067  14.365  11.986
13577W        W85106  20.463  41.323   4.476
13578W        W85107  42.244  10.339  10.351
13579W        W85108  32.950   6.014   2.834
13580W        W85109  39.696   5.314   3.793
13581W        W85110   2.515   1.858  11.444
13582W        W85111  11.685  21.435   2.568
13583W        W85112  14.859  43.478  10.764
13584W        W85113  19.607  10.757   2.129
13585W        W85114  34.067  43.060   3.313
13586W        W85115  14.174  41.176  13.405
13587W        W85116  21.292  44.133   3.760
13588W        W85117  28.056  11.243  12.343
13589W        W85118   7.308  33.773   4.844
13590W        W85119  36.628   2.118   2.360
13591W        W85120  20.082  44.351  10.344
13592W        W85121  39.091   7.234  12.561
13593W        W85122  26.651   8.392   4.562
13594W        W85123  26.043  37.982   3.730
13595W        W85124  23.589   3.916  14.232
13596W        W85125  41.088  43.077  12.018
13597W        W85126  11.380  20.537  11.510
13598W        W85127  43.756  10.323   2.690
13599W        W85128  27.526  44.802  11.156
13600W        W85129  27.894  10.142   4.532
13601W        W85130   2.682   5.789  12.564
13602W        W85131  28.576   0.856  14.033
13603W        W85132   4.748  29.395  14.453
13604W        W85133   1.939   1.955   0.864
13605W        W85134  44.735  38.999  10.198
13606W        W85135   6.833  22.811  12.233
13607W        W85136   1.902   9.391   2.993
13608W        W85137  21.686  19.825   4.050
13609W        W85138  29.169  22.048   0.646
13610W        W85139  42.433  24.514  10.679
13611W        W85140   9.645  37.334   1.194
13612W        W85141  22.541   1.718   3.105
13613W        W85142  31.604   1.667   1.281
13614W        W85143  21.289  42.535  11.080
13615W        W85144  28.471  12.933   1.375
13616W        W85145  40.737  31.861  10.271
13617W        W85146   3.309   8.361   0.355
13618W        W85147   4.641  32.505   4.235
13619W        W85148   8.855  38.930  12.508
13620W        W85149   7.546  24.660  12.351
13621W        W85150  21.212  27.113  12.471
13622W        W85151  26.711  29.122   3.661
13623W        W85152   2.205  12.810  11.104
13624W        W85153  20.169  22.099   4.708
13625W        W85154   2.790  38.106   2.603
13626W        W85155  34.964  28.826   1.035
13627W        W85156  41.537   3.969  11.551
13628W        W85157  34.425  17.102  14.038
13629W        W85158  32.240  41.251   1.977
13630W        W85159  20.193   2.830  14.448
13631W        W85160   6.672  38.618   2.303
13632W        W85161  44.339  32.466  10.430
13633W        W85162   3.416  14.400  13.842
13634W        W85163   0.610   4.980   9.801
13635W        W85164   9.182  18.827  14.912
13636W        W85165  18.038   8.759   3.224
13637W        W85166  37.916   1.340  12.178
13638W        W85167   7.746   2.303   4.537
13639W        W85168  39.056  35.935  12.968
13640W        W85169  12.808   6.747   2.438
13641W        W85170   6.433  32.489  12.095
13642W        W85171   4.482   9.348  14.018
13643W        W85172   4.325  31.367  13.349
13644W        W85173  10.250   9.982   4.843
13645W        W85174  37.374  41.179  14.534
13646W        W85175  33.363  19.003  13.956
13647W        W85176  22.080  43.771   2.750
13648W        W85177  27.660  12.139   0.212
13649W        W85178  14.187  28.924  10.671
13650W        W85179  25.111  20.713  14.751
13651W        W85180  41.516  19.685  13.496
13652W        W85181  44.008  41.950  14.414
13653W        W85182  35.800  31.558   1.919
13654W        W85183  14.190  41.650  12.492
13655W        W85184   7.699  27.877   2.545
13656W        W85185   4.646  42.803  12.559
13657W        W85186  32.158   8.668   4.954
13658W        W85187  22.865  34.462   1.302
13659W        W85188  26.559  34.643   1.749
13660W        W85189   4.797  17.720   2.738
13661W        W85190  25.650   5.240   1.874
13662W        W85191  42.297  44.020  13.408
13663W        W85192   7.664  28.204   9.720
13664W        W85193  23.177   5.399   4.504
13665W        W85194  37.577   4.692   1.276
13666W        W85195  43.270  35.525   0.838
13667W        W85196   0.587  24.586   4.109
13668W        W85197  30.213   4.658  10.812
13669W        W85198  38.468   5.961   0.821
13670W        W85199  44.329  39.038  12.147
13671W        W85200  11.603  40.211  10.680
13672W        W85201  38.406  11.562   2.308
13673W        W85202  15.555  23.112   4.126
13674W        W85203  29.427  36.820   0.277
13675W        W85204  42.359  20.685   0.210
13676W        W85205  12.122  37.194  11.688
13677W        W85206  11.828  10.131   1.359
13678W        W85207  20.145  26.054   0.004
13679W        W85208   7.427  43.360  12.327
13680W        W85209  43.508  37.542  12.949
13681W        W85210  38.357  43.290   2.146
13682W        W85211  27.877  30.415   1.752
13683W        W85212   0.532   8.384   2.686
13684W        W85213  25.393  28.366   2.233
13685W        W85214  14.372  36.926   2.324
13686W        W85215  18.767  13.470   5.032
13687W        W85216  15.145  33.722  14.830
13688W        W85217  17.028  32.242  12.101
13689W        W85218  31.117  36.255   3.371
13690W        W85219  14.224  22.139   3.825
13691W        W85220  12.279  11.709  10.468
13692W        W85221  37.915  32.606  11.896
13693W        W85222   5.886  25.748  11.622
13694W        W85223  44.443  42.071   0.383
13695W        W85224  13.254  36.343  12.043
13696W        W85225  35.039  35.538  11.858
13697W        W85226  34.435  38.334  10.733
13698W        W85227  30.550  20.252  12.602
13699W        W85228  40.822   2.935  11.581
13700W        W85229  43.306   6.743   3.179
13701W        W85230  35.977   7.377  12.961
13702W        W85231   9.719  24.259  14.285
13703W        W85232   3.822  10.650   1.287
13704W        W85233  42.237  18.202   3.461
13705W        W85234  24.031  42.433  14.517
13706W        W85235   8.860  44.196  12.323
13707W        W85236  33.410   4.949  11.946
13708W        W85237  16.632  10.110   1.840
13709W        W85238   3.977  17.043  12.724
13710W        W85239   6.235  14.103  11.357
13711W        W85240  26.177  41.349   4.750
13712W        W85241   7.966  38.429   1.945
13713W        W85242  38.556  21.329  14.879
13714W        W85243  24.143  42.440  11.538
13715W        W85244  17.223  34.181   1.839
13716W        W85245  22.182  44.264  14.971
13717W        W85246  40.253  39.998   1.641
13718W        W85247  22.538   8.796  12.571
13719W        W85248  35.108  32.638  13.305
13720W        W85249  36.037   7.420  11.978
13721W        W85250  36.395  21.500  12.989
13722W        W85251  41.102  12.776   3.794
13723W        W85252  27.886  39.159   4.144
13724W        W85253  39.807  22.798  13.956
13725W        W85254  37.634   1.268   2.296
13726W        W85255   0.186  31.284   4.944
13727W        W85256  36.480  23.362  13.358
13728W        W85257  38.579   2.445   0.237
13729W        W85258   2.457   1.212   3.181
13730W        W85259  23.415   5.127  13.566
13731W        W85260  24.620   3.881   3.343
13732W        W85261  19.631   9.677  14.242
13733W        W85262  35.006  33.404  12.944
13734W        W85263  28.961   0.127   4.111
13735W        W85264  35.958  20.983   2.738
13736W        W85265  43.962  20.703   4.262
13737W        W85266  34.510  43.704  14.096
13738W        W85267  34.990   9.184   1.425
13739W        W85268  29.498   8.789   0.607
13740W        W85269  16.791   3.742   0.302
13741W        W85270  33.478  35.958  10.621
13742W        W85271   5.451   3.398   3.071
13743W        W85272  20.866   0.283   2.795
13744W        W85273  11.144  43.216   4.682
13745W        W85274   4.427   6.275  13.534
13746W        W85275  31.139  15.180   1.304
13747W        W85276  24.762   9.901   3.746
13748W        W85277   2.712  40.856  11.981
13749W        W85278  41.289  23.362   1.180
13750W        W85279  15.708  18.503   0.255
13751W        W85280  18.716  29.904   1.759
13752W        W85281  38.596   3.012   1.725
13753W        W85282  13.412  23.081  11.902
13754W        W85283  43.786   4.821   2.191
13755W        W85284  15.173  43.782   4.492
13756W        W85285  30.448  28.013  11.973
13757W        W85286   8.342  32.004   3.457
13758W        W85287   8.631  25.315   0.364
13759W        W85288  25.053   4.160   2.214
13760W        W85289  30.519  32.336   3.752
13761W        W85290  21.045  43.388  12.925
13762W        W85291  20.695  20.277  12.671
13763W        W85292   4.314  44.259   1.220
13764W        W85293  17.877   9.743   4.402
13765W        W85294  19.520  22.139  13.931
13766W        W85295   3.394  24.407  13.009
13767W        W85296  43.654   8.573   5.071
13768W        W85297  19.225  14.322   2.735
13769W        W85298  24.761  30.826   4.173
13770W        W85299  16.998  33.655  12.232
13771W        W85300  19.771  22.698   2.127
13772W        W85301  39.409  33.979  11.444
13773W        W85302   9.122   3.973   4.504
13774W        W85303  36.407   6.766  14.170
13775W        W85304  28.079  10.271  13.271
13776W        W85305  26.417  12.292   3.858
13777W        W85306  13.348   1.921   0.072
13778W        W85307   6.665   8.653  13.464
13779W        W85308   7.559  25.636  13.490
13780W        W85309  19.101  35.021   1.850
13781W        W85310  36.919  19.257   1.733
13782W        W85311  28.683  44.535   2.291
13783W        W85312   6.107  11.286   1.242
13784W        W85313  29.079  29.361   0.465
13785W        W85314  22.655  26.593  13.801
13786W        W85315  10.251  31.574  13.562
13787W        W85316  25.145  14.754  14.805
13788W        W85317  31.047  36.534   3.810
13789W        W85318  28.127  17.328   1.355
13790W        W85319  23.654  36.132  14.391
13791W        W85320  11.200  32.730   2.740
13792W        W85321  44.607  32.947   4.545
13793W        W85322  41.918  39.013   1.842
13794W        W85323  22.627  13.398   4.943
13795W        W85324  39.839  21.664  12.446
13796W        W85325  23.159  22.152   4.179
13797W        W85326  43.815   1.011  14.126
13798W        W85327  33.360  20.136   2.337
13799W        W85328  30.038  38.492  11.446
13800W        W85329  33.169  21.372  12.007
13801W        W85330  17.824  27.963   0.923
13802W        W85331  17.285  34.877   1.422
13803W        W85332   1.293  27.283   3.767
13804W        W85333   4.697   5.855  13.367
13805W        W85334  26.869   9.709   0.356
13806W        W85335  28.889  24.942   0.691
13807W        W85336  16.233  41.741   3.409
13808W        W85337  13.630   3.904  13.095
13809W        W85338   3.765   1.252  10.891
13810W        W85339  13.351  23.114   3.650
13811W        W85340   9.255  20.107  13.095
13812W        W85341   3.697  42.441   4.318
13813W        W85342  35.506   6.527  10.773
13814W        W85343  26.771  39.669  13.305
13815W        W85344  25.749  24.647   0.842
13816W        W85345  28.086  19.591  11.364
13817W        W85346  30.714   7.849   4.600
13818W        W85347  37.859  21.628   1.412
13819W        W85348  44.225  20.654   2.270
13820W        W85349  26.849  29.710  12.669
13821W        W85350  23.024  29.232  14.549
13822W        W85351  32.973  15.850  12.486
13823W        W85352  21.622  32.139  14.313
13824W        W85353  18.181  12.910  13.877
13825W        W85354  17.595  19.038  11.904
13826W        W85355   3.619  15.520  11.212
13827W        W85356  29.546  34.245  12.892
13828W        W85357  22.230   3.569   3.216
13829W        W85358  15.436  11.370   1.937
13830W        W85359  10.599   1.811   4.248
13831W        W85360  40.811  40.326  11.634
13832W        W85361  44.509   1.031   4.027
13833W        W85362  16.233  18.290   4.088
13834W        W85363  20.609  42.085   1.363
13835W        W85364  36.065   4.527   3.514
13836W        W85365  38.619  17.995   4.549
13837W        W85366   0.243   3.897  11.973
13838W        W85367  19.994  40.643   3.953
13839W        W85368  11.983  40.512   1.806
13840W        W85369   8.750  43.353   2.450
13841W        W85370  24.093  21.446  10.557
13842W        W85371  19.206  31.093   2.351
13843W        W85372  35.067  15.288  12.176
13844W        W85373  32.948   6.203  12.077
13845W        W85374  12.693  40.836   1.358
13846W        W85375  18.585  24.856  10.659
13847W        W85376  41.780  37.526   3.824
13848W        W85377  17.383  30.949   2.782
13849W        W85378  29.290  41.423   0.405
13850W        W85379  43.746  22.067  11.144
13851W        W85380  26.749  17.227   4.383
13852W        W85381  30.748  21.481  10.580
13853W        W85382  18.229  39.599  11.614
13854W        W85383  19.438  42.831  13.345
13855W        W85384   8.660  31.798   2.466
13856W        W85385  29.321  42.822   2.650
13857W        W85386   9.277  24.371  11.618
13858W        W85387  18.025  28.055   2.256
13859W        W85388  44.833  11.635  14.880
13860W        W85389  12.427  20.534   0.313
13861W        W85390  25.384   8.621   3.420
13862W        W85391  26.769   8.200  12.455
13863W        W85392  10.080  35.681  11.133
13864W        W85393  16.057  25.130   3.769
13865W        W85394  34.059   9.832  12.938
13866W        W85395  17.103  27.817  12.068
13867W        W85396  43.986  25.492   3.617
13868W        W85397  33.434  22.743  10.445
13869W        W85398  37.583  34.744  14.765
13870W        W85399  38.890  37.884   2.556
13871W        W85400  43.112   6.410   4.670
13872W        W85401   0.008  39.662  13.072
13873W        W85402  15.917  36.939   4.207
13874W        W85403  19.230  22.762   2.622
13875W        W85404  44.931  33.880   1.875
13876W        W85405  44.299  26.729   3.358
13877W        W85406  44.901   8.833   2.320
13878W        W85407  40.123   1.887  11.622
13879W        W85408  14.290  29.665  12.008
13880W        W85409  39.395  43.917   4.909
13881W        W85410  13.281  18.192   2.426
13882W        W85411  12.667  37.082  14.290
13883W        W85412   2.415  40.562  12.965
13884W        W85413  43.858  26.130   4.577
13885W        W85414  12.314  36.447  14.406
13886W        W85415  26.063  17.841  12.386
13887W        W85416  28.930  31.058   3.659
13888W        W85417   5.263  25.896  13.375
13889W        W85418  14.143  43.493  12.925
13890W        W85419   4.441  39.706   4.764
13891W        W85420  40.448  24.943  14.929
13892W        W85421   5.602  27.732   0.479
13893W        W85422   0.583  34.869   2.401
13894W        W85423  15.118  31.160   2.236
13895W        W85424   5.429   2.711  14.490
13896W        W85425   7.394  42.357   1.881
13897W        W85426  19.123   7.412  12.408
13898W        W85427  32.784  10.706  11.245
13899W        W85428  39.883   8.729   3.620
13900W        W85429  41.549  32.613  12.921
13901W        W85430  23.724  34.397  12.466
13902W        W85431  16.783  16.451  11.263
13903W        W85432  12.285  28.878   2.239
13904W        W85433  25.945  38.486  11.122
13905W        W85434  14.258  44.352   4.273
13906W        W85435  32.121   2.180   0.236
13907W        W85436   8.361   2.864  12.313
13908W        W85437  21.751   9.670  12.002
13909W        W85438  22.716  43.435  14.250
13910W        W85439   7.341   9.785   0.320
13911W        W85440  35.592   2.418  12.949
13912W        W85441  35.546  36.514  11.667
13913W        W85442   6.264  25.210  11.112
13914W        W85443  16.344  16.941  14.481
13915W        W85444   8.221  39.752  13.498
13916W        W85445  24.263   8.392   0.685
13917W        W85446  16.732  23.718  14.481
13918W        W85447   0.707   8.123   3.993
13919W        W85448  18.230  11.541   4.032
13920W        W85449   7.303  36.605  13.214
13921W        W85450  26.070  10.134  14.310
13922W        W85451   4.701   8.005   2.443
13923W        W85452  15.971   6.657   4.190
13924W        W85453  17.082  34.723   0.975
13925W        W85454   6.132  39.528   2.267
13926W        W85455  20.147  21.866  11.924
13927W        W85456  33.522   1.571  14.589
13928W        W85457   2.398  39.728   1.941
13929W        W85458  31.573  26.058   3.560
13930W        W85459  23.002  13.059   4.849
13931W        W85460  44.274  29.642   2.431
13932W        W85461  40.328  18.710   0.145
13933W        W85462   2.282   2.557  13.575
13934W        W85463  43.478  13.665   4.514
13935W        W85464  43.930  35.666   3.792
13936W        W85465   7.797  39.460   4.726
13937W        W85466  29.632  25.822  13.981
13938W        W85467   9.594  38.077  13.598
13939W        W85468   4.862   8.383   2.763
13940W        W85469  26.892  31.924   1.262
13941W        W85470  24.813  36.562   4.601
13942W        W85471  14.128  34.822   2.362
13943W        W85472  37.509   9.847   4.892
13944W        W85473  14.782  22.053  10.785
13945W        W85474   0.392   5.695   3.305
13946W        W85475  33.648  12.679   0.921
13947W        W85476  15.884  39.969  14.053
13948W        W85477   1.717  13.571  11.164
13949W        W85478  25.989  18.734   4.311
13950W        W85479  42.868   1.323   2.654
13951W        W85480  21.289  24.987   0.501
13952W        W85481   9.291  16.344  13.026
13953W        W85482  22.232   6.474   1.343
13954W        W85483  28.569  11.310  12.270
13955W        W85484  16.322   1.387   1.762
13956W        W85485  22.670  41.681   3.286
13957W        W85486  20.782  22.399  12.043
13958W        W85487  38.481  15.050   1.523
13959W        W85488  29.983   5.045  13.796
13960W        W85489  21.013  36.057  10.751
13961W        W85490  30.011  30.569  11.541
13962W        W85491  41.841  23.100  14.411
13963W        W85492  10.162  23.743   5.099
13964W        W85493  23.070   1.980   0.004
13965W        W85494  26.672  37.652  13.520
13966W        W85495  36.883  22.662   3.847
13967W        W85496  44.488  42.592  12.457
13968W        W85497  35.158  42.880   2.344
13969W        W85498  24.627  10.892   1.306
13970W        W85499  19.722   4.733  13.956
13971W        W85500  20.854  23.124  13.237
13972W        W85501   2.716  20.308   4.139
13973W        W85502  24.350  22.616  12.649
13974W        W85503  26.638  32.672  13.888
13975W        W85504   7.418   0.937   1.426
13976W        W85505  29.631  21.074  10.712
13977W        W85506  34.728   2.834  12.670
13978W        W85507  32.002   4.345   3.373
13979W        W85508  23.952   1.014   4.696
13980W        W85509  24.710   0.795  12.257
13981W        W85510  28.859  26.575   2.367
13982W        W85511   9.784   1.258   3.128
13983W        W85512  27.159   8.887  14.305
13984W        W85513  12.304  42.529   3.247
13985W        W85514  36.103   5.287  11.333
13986W        W85515   3.969  40.310  11.501
13987W        W85516  28.452   0.037  13.626
13988W        W85517  23.161   9.856   4.316
13989W        W85518  19.032  13.862  12.058
13990W        W85519  15.661  27.969   4.345
13991W        W85520  42.642  20.284   0.402
13992W        W85521  12.365  29.962  13.082
13993W        W85522  29.078  33.069   0.989
13994W        W85523  38.792  25.097   3.703
13995W        W85524   9.450  10.275   4.032
13996W        W85525  35.994   6.299   1.225
13997W        W85526  39.470   3.679   3.351
13998W        W85527  15.393  35.220  13.031
13999W        W85528   5.767  22.737   1.015
14000W        W85529  21.822  35.331   1.839
14001W        W85530  10.275  43.989   1.569
14002W        W85531  34.197   5.694   1.385
14003W        W85532  22.736  40.711   4.511
14004W        W85533  24.087   3.232  12.114
14005W        W85534  42.018  21.389  12.869
14006W        W85535  35.058  44.210  10.668
14007W        W85536  26.959  20.016   3.181
14008W        W85537  36.904  16.617   1.722
14009W        W85538  16.316  14.504  12.916
14010W        W85539  42.889  23.946   5.004
14011W        W85540  33.355  19.602  12.432
14012W        W85541  20.122  24.365  13.124
14013W        W85542  29.175  18.165   4.190
14014W        W85543  44.828   0.928  12.575
14015W        W85544  18.847  19.252  11.581
14016W        W85545  20.968  12.915  13.325
14017W        W85546  11.842  35.362   0.359
14018W        W85547  16.868   2.202  14.000
14019W        W85548  39.965  36.257   3.613
14020W        W85549  22.880  32.098   2.222
14021W        W85550  44.734   2.982  12.135
14022W        W85551  19.748  18.977  13.434
14023W        W85552  24.013   1.876   3.931
14024W        W85553   9.153  31.118  14.979
14025W        W85554  36.132   8.241  13.898
14026W        W85555  34.072   5.529  11.930
14027W        W85556  21.022  26.577  14.996
14028W        W85557  29.447  40.947  13.898
14029W        W85558   4.888  25.763  10.708
14030W        W85559   7.144  28.028  13.159
14031W        W85560   4.899  16.552   2.206
14032W        W85561  20.126  27.497  11.124
14033W        W85562  34.543  20.723   0.844
14034W        W85563  16.596  20.146   2.713
14035W        W85564  39.558  33.378   2.224
14036W        W85565   6.281  33.962  13.326
14037W        W85566  42.587  19.677  13.857
14038W        W85567  16.537  39.708  11.084
14039W        W85568  16.780  15.736   4.319
14040W        W85569   5.123  24.769  12.689
14041W        W85570  17.778  19.328  14.610
14042W        W85571   8.483   1.965  12.508
14043W        W85572  21.239  24.890   2.837
14044W        W85573   2.188  21.190  10.785
14045W        W85574  44.825  32.343   3.250
14046W        W85575   6.381  22.483  10.997
14047W        W85576  41.591  22.778   0.305
14048W        W85577   9.686   3.150   3.868
14049W        W85578  36.364  27.038   3.728
14050W        W85579  27.469   2.391   3.704
14051W        W85580  37.529  22.140  10.589
14052W        W85581  26.618   3.363  11.741
14053W        W85582  19.153  33.807  12.674
14054W        W85583  23.602   4.421   0.428
14055W        W85584  15.928  44.514   3.635
14056W        W85585   4.774  18.292  14.493
14057W        W85586  12.139   6.858   1.688
14058W        W85587   5.856  11.086  13.706
14059W        W85588  38.238   9.177   3.857
14060W        W85589   2.248  17.230   3.763
14061W        W85590  31.069   4.491   0.806
14062W        W85591  22.122  39.328  13.891
14063W        W85592  22.080  16.389   0.264
14064W        W85593   2.222  26.462  13.000
14065W        W85594  28.426  18.257  13.973
14066W        W85595  23.380  14.149   2.428
14067W        W85596  10.480  20.557   4.193
14068W        W85597  11.629  11.633   2.351
14069W        W85598  37.097  37.479  14.180
14070W        W85599  30.636  44.240   1.732
14071W        W85600   2.397  28.221  12.881
14072W        W85601  13.253   4.734  11.523
14073W        W85602  33.598  40.414   2.146
14074W        W85603  27.418   9.700  14.488
14075W        W85604  21.266  44.382  14.542
14076W        W85605  34.210  28.357   5.302
14077W        W85606  25.957  33.540   3.493
14078W        W85607  20.731   0.325  11.985
14079W        W85608  33.088  44.670   3.384
14080W        W85609  22.373  33.920   0.550
14081W        W85610  27.954  19.637  14.263
14082W        W85611  42.177  31.525   4.043
14083W        W85612  10.169  44.263  13.590
14084W        W85613  31.974  18.620   5.049
14085W        W85614   5.505  19.655  11.590
14086W        W85615   6.295  22.139  12.047
14087W        W85616  25.630  14.541   4.143
14088W        W85617   5.809  11.146  14.240
14089W        W85618  20.535  16.351   4.392
14090W        W85619   3.319  15.324   2.705
14091W        W85620  38.590  31.388   1.678
14092W        W85621  27.063  27.778  12.600
14093W        W85622   2.974   3.473   1.831
14094W        W85623  24.085  11.691   1.271
14095W        W85624  24.222  42.915   2.293
14096W        W85625  19.631  11.266   1.402
14097W        W85626  15.898  24.225   3.647
14098W        W85627  34.793  28.718   1.860
14099W        W85628  42.369  13.534  14.764
14100W        W85629  21.779   9.957   1.756
14101W        W85630  20.803  24.061  12.640
14102W        W85631  43.556  15.810  12.255
14103W        W85632  34.802   2.200  13.371
14104W        W85633  41.404   7.813  13.868
14105W        W85634  30.082  30.080  13.009
14106W        W85635   8.822  31.975  12.552
14107W        W85636  43.822  37.442   2.685
14108W        W85637  16.797  14.098  11.340
14109W        W85638  40.770  13.751  11.026
14110W        W85639   6.402  26.530   1.475
14111W        W85640   6.772  28.682  14.726
14112W        W85641  22.636   0.433   3.316
14113W        W85642  44.742   5.660   1.779
14114W        W85643  32.585   7.892   4.892
14115W        W85644  36.962   2.009   2.723
14116W        W85645  25.861  28.946   0.523
14117W        W85646  11.386  36.124   1.722
14118W        W85647  17.726  16.778  11.217
14119W        W85648  12.029  35.908  13.907
14120W        W85649   6.290  40.940   1.762
14121W        W85650  12.123  27.219  11.098
14122W        W85651  38.258  20.256   3.392
14123W        W85652  22.369  21.836   3.678
14124W        W85653  37.144  12.172  13.567
14125W        W85654   0.963   7.742   1.386
14126W        W85655  24.478  16.625   0.405
14127W        W85656  19.232  31.667   2.740
14128W        W85657  11.737  41.136   0.236
14129W        W85658  42.864  37.448  14.931
14130W        W85659  43.792  43.384   2.353
14131W        W85660  43.903   2.214   0.499
14132W        W85661  24.126  17.695  11.614
14133W        W85662  14.604  18.227   2.128
14134W        W85663  35.871  31.201  13.942
14135W        W85664  23.519  16.218   0.671
14136W        W85665  34.072   6.908   0.975
14137W        W85666  36.556  39.405  12.512
14138W        W85667  21.637  20.242  10.800
14139W        W85668  20.456   8.698   2.844
14140W        W85669  17.463  10.781   3.615
14141W        W85670  24.875  15.627   3.634
14142W        W85671  13.785  24.907   0.928
14143W        W85672  38.994  10.778  11.228
14144W        W85673  13.155  38.461   2.377
14145W        W85674  26.428  40.902   2.103
14146W        W85675   6.203  17.970   3.541
14147W        W85676  30.604   4.267  13.650
14148W        W85677  16.868  36.409   4.825
14149W        W85678  23.627  39.752  13.383
14150W        W85679  33.242  34.407   3.830
14151W        W85680   1.562   7.863  10.752
14152W        W85681  39.863  19.085  12.538
14153W        W85682  42.756  29.180   0.919
14154W        W85683  19.813  40.752   2.292
14155W        W85684  17.521  20.696   2.562
14156W        W85685   8.485  11.189   1.353
14157W        W85686  35.037  33.459  13.929
14158W        W85687  22.149   8.695   1.962
14159W        W85688  29.965  15.783  11.126
14160W        W85689  18.209   7.651  11.942
14161W        W85690  17.205   1.463   4.741
14162W        W85691   4.199  32.739   4.423
14163W        W85692  22.811   1.474  14.259
14164W        W85693   9.894  42.543  14.752
14165W        W85694  17.332  19.670  10.280
14166W        W85695  39.029  23.049   4.601
14167W        W85696   6.888  20.187  12.124
14168W        W85697  12.207  41.184   3.544
14169W        W85698  39.550   1.467  12.924
14170W        W85699  18.638   0.050   2.841
14171W        W85700  25.702  37.341   1.789
14172W        W85701  15.647  30.693   4.621
14173W        W85702  32.432  31.350   1.717
14174W        W85703  26.696  27.021  13.376
14175W        W85704   7.985  14.350   3.153
14176W        W85705  42.259  37.317  13.738
14177W        W85706   0.793  13.978   5.112
14178W        W85707  38.670  30.202  13.935
14179W        W85708  43.381  36.227   0.832
14180W        W85709  14.586  39.370  13.994
14181W        W85710  40.074   3.019   3.720
14182W        W85711  25.962   3.201   1.657
14183W        W85712  13.630  43.288   3.770
14184W        W85713  30.469  11.704   4.426
14185W        W85714  28.882  29.913   3.207
14186W        W85715  34.767  17.843  10.954
14187W        W85716  39.867   7.673   3.601
14188W        W85717  20.075  27.354  12.106
14189W        W85718  15.274  18.006  10.656
14190W        W85719  11.948  22.753   1.373
14191W        W85720  30.915   1.865  13.077
14192W        W85721  31.856  22.170   2.909
14193W        W85722  23.384  16.618   4.648
14194W        W85723  32.217  11.428   4.125
14195W        W85724  25.574  11.851   1.656
14196W        W85725   9.154  26.271   0.902
14197W        W85726  43.974  12.658   2.714
14198W        W85727  33.511  36.984   2.861
14199W        W85728  11.421  10.814   0.309
14200W        W85729  33.042  28.556   2.678
14201W        W85730  23.240   1.335   3.569
14202W        W85731  17.375  13.738   2.684
14203W        W85732   1.367  13.950   1.787
14204W        W85733  28.135   2.890  14.495
14205W        W85734  15.398  14.243  12.056
14206W        W85735  43.567  43.880  12.886
14207W        W85736   4.274  29.026  11.882
14208W        W85737  11.355  30.410   2.353
14209W        W85738  39.327   1.183   4.926
14210W        W85739   4.259   0.688   3.257
14211W        W85740  24.996  34.543   4.145
14212W        W85741  14.620  35.592   1.171
14213W        W85742  34.497  11.682  11.950
14214W        W85743   9.764  40.435   1.648
14215W        W85744  39.790  33.477  10.063
14216W        W85745  23.613  23.868  12.402
14217W        W85746   4.363  30.276   1.524
14218W        W85747  29.611  36.026   3.046
14219W        W85748  12.027  16.800  14.310
14220W        W85749  31.379  15.071  14.412
14221W        W85750  37.547   5.100   4.199
14222W        W85751  14.541  30.619   1.726
14223W        W85752  12.058  28.041   3.287
14224W        W85753  41.007  11.049   0.910
14225W        W85754  32.394  33.539  10.590
14226W        W85755   1.415  28.739  11.644
14227W        W85756  15.787  27.428   3.187
14228W        W85757  25.045  38.553  12.421
14229W        W85758  35.530  24.070   4.863
14230W        W85759   0.535   7.792  10.681
14231W        W85760  43.200  31.967   5.364
14232W        W85761  21.648  32.588   2.471
14233W        W85762   3.870   1.881   2.627
14234W        W85763   1.660  19.795   4.291
14235W        W85764   3.355  38.832   4.763
14236W        W85765   9.271  10.653   2.146
14237W        W85766  37.272  38.987  12.380
14238W        W85767  10.392  22.605   4.165
14239W        W85768  14.952   0.237  12.623
14240W        W85769  21.250  15.321  11.275
14241W        W85770  26.246   3.650  12.043
14242W        W85771  37.037  37.414  11.894
14243W        W85772  29.618  41.304  13.546
14244W        W85773   7.951  33.421  12.992
14245W        W85774  30.990   8.364   2.372
14246W        W85775  32.424  41.074  11.674
14247W        W85776  40.959  27.174   1.486
14248W        W85777   5.441  22.104   0.323
14249W        W85778  34.490  32.536   1.438
14250W        W85779  17.581  39.003  13.256
14251W        W85780  43.354  16.370   4.250
14252W        W85781  35.111  40.900  12.949
14253W        W85782  18.024  37.551   0.030
14254W        W85783  31.270  43.374  13.549
14255W        W85784   5.883  25.636   0.439
14256W        W85785  26.861  39.782   3.372
14257W        W85786  36.584   2.934  12.026
14258W        W85787  25.527  30.651  10.573
14259W        W85788  42.512   9.362   2.821
14260W        W85789  41.889  13.068  12.538
14261W        W85790  33.572  23.895   2.203
14262W        W85791  22.914  21.680   2.349
14263W        W85792  30.479   0.246   4.086
14264W        W85793  34.748  30.153  13.487
14265W        W85794  11.874  32.614   2.222
14266W        W85795  11.344   7.804   1.355
14267W        W85796  17.180  19.676   3.575
14268W        W85797  38.821  36.478   1.993
14269W        W85798  44.975  10.325  14.064
14270W        W85799  34.606   2.787   0.799
14271W        W85800  14.383  24.020  13.032
14272W        W85801   5.025   0.564  14.769
14273W        W85802  22.267  28.089  11.463
14274W        W85803  37.030  39.071  11.378
14275W        W85804  16.734  10.494   4.308
14276W        W85805  11.820   1.019   0.748
14277W        W85806  14.566  13.361   0.444
14278W        W85807  44.947   4.861   1.300
14279W        W85808  32.874  26.111   1.255
14280W        W85809  21.915   7.585   0.352
14281W        W85810  19.273  42.902   4.153
14282W        W85811  40.907  37.745   3.433
14283W        W85812  10.610   0.872   3.308
14284W        W85813   7.327  12.673   3.131
14285W        W85814  21.659  14.243  11.750
14286W        W85815  15.262  24.155  12.117
14287W        W85816   2.385  34.856  13.368
14288W        W85817  28.499  43.917  10.624
14289W        W85818  25.043   9.815  14.027
14290W        W85819  28.156  16.748   1.747
14291W        W85820   1.794  37.695   4.243
14292W        W85821  32.997  18.105   4.594
14293W        W85822  29.363   7.264  11.200
14294W        W85823  43.686   3.432   4.579
14295W        W85824   3.647   9.692  13.981
14296W        W85825  14.406   1.333   3.727
14297W        W85826  33.580  10.970  11.963
14298W        W85827  38.785   4.771   3.715
14299W        W85828  25.670  16.019   4.117
14300W        W85829  25.629  22.185   4.164
14301W        W85830   6.995  12.717   2.736
14302W        W85831  26.718  21.445  13.866
14303W        W85832  11.097  28.668  11.648
14304W        W85833  42.977  18.753  11.612
14305W        W85834  12.282  16.572   1.200
14306W        W85835   5.519  30.313   3.732
14307W        W85836   2.200  29.656  13.070
14308W        W85837  26.957  32.592  14.640
14309W        W85838   1.965  12.317   1.263
14310W        W85839  44.224  26.655   0.166
14311W        W85840  23.748  11.896   0.918
14312W        W85841  23.495  44.893   1.299
14313W        W85842  34.324  23.816  13.875
14314W        W85843  40.418  42.226   2.675
14315W        W85844  10.133   9.104   4.193
14316W        W85845   9.804  32.183   1.190
14317W        W85846  25.730  19.063  12.303
14318W        W85847  28.046   6.205  14.408
14319W        W85848  15.726  22.995   0.379
14320W        W85849  37.110  20.796   3.991
14321W        W85850   5.275  15.033   0.850
14322W        W85851  35.038   2.972  10.545
14323W        W85852  32.157  23.560  12.865
14324W        W85853  22.701  24.768   0.043
14325W        W85854  40.885  40.624  13.370
14326W        W85855   0.759  27.814  10.743
14327W        W85856  26.132  43.560   2.056
14328W        W85857  17.736  44.904   3.813
14329W        W85858  22.979  36.988   4.546
14330W        W85859   9.425  13.597   4.783
14331W        W85860  27.540   3.502  11.824
14332W        W85861  36.433   3.007   0.864
14333W        W85862   0.942  39.475   4.695
14334W        W85863  39.532  21.272  12.401
14335W        W85864  10.411   8.493  12.700
14336W        W85865  35.016  39.459  10.620
14337W        W85866  11.316  24.191   0.423
14338W        W85867  23.920   9.874  10.723
14339W        W85868  30.157  25.754  14.942
14340W        W85869  16.475  35.288   2.979
14341W        W85870  41.532   3.772   4.237
14342W        W85871   8.801  44.437  10.159
14343W        W85872  14.753  23.588  14.154
14344W        W85873  33.969  28.476   1.899
14345W        W85874  13.176  34.382   1.491
14346W        W85875   9.310  12.141  12.526
14347W        W85876  28.923  27.081  13.857
14348W        W85877  29.476  40.532  14.394
14349W        W85878  29.719  11.851   0.006
14350W        W85879   6.378  17.478  12.081
14351W        W85880  14.032  40.443   2.246
14352W        W85881  16.261  30.637   1.295
14353W        W85882  27.541   5.268   2.364
14354W        W85883  14.114  40.454   3.291
14355W        W85884  24.647  41.602   3.204
14356W        W85885  11.577  42.989  11.529
14357W        W85886  19.147  14.281   0.142
14358W        W85887  28.380   6.875  12.077
14359W        W85888  24.202  31.155  14.485
14360W        W85889   5.289  27.990   4.151
14361W        W85890  40.762   2.242   4.799
14362W        W85891  39.995  31.343  13.263
14363W        W85892   7.234  12.720   1.240
14364W        W85893  39.698  20.253   4.205
14365W        W85894  10.970  38.609  10.125
14366W        W85895  13.776  15.136   0.005
14367W        W85896  32.923  35.380   1.827
14368W        W85897  10.764  23.426   2.622
14369W        W85898  17.287   2.936   1.216
14370W        W85899  32.154  30.089  10.501
14371W        W85900  27.823  43.614   0.138
14372W        W85901  25.055   6.178   3.672
14373W        W85902  39.257   3.314   2.742
14374W        W85903  14.225  38.629   1.963
14375W        W85904  27.880  34.983  13.658
14376W        W85905  40.724   2.290   1.406
14377W        W85906  12.116   1.025   0.320
14378W        W85907  17.720  11.529   0.367
14379W        W85908   0.833  11.672  10.809
14380W        W85909  27.048  35.971  11.005
14381W        W85910  44.787  26.972   3.335
14382W        W85911  12.723  21.023   2.971
14383W        W85912  16.320  34.101  14.027
14384W        W85913  12.075  16.377   2.714
14385W        W85914   3.901  20.569  11.489
14386W        W85915  29.931  38.880  13.433
14387W        W85916   5.736  43.144  13.513
14388W        W85917  42.699  17.223   3.647
14389W        W85918   4.999  32.152   4.284
14390W        W85919  37.641  35.840  11.189
14391W        W85920  39.409  20.601   3.950
14392W        W85921  21.712  28.090   4.589
14393W        W85922  40.066  41.750  14.313
14394W        W85923  11.570  35.800   1.321
14395W        W85924  31.703  24.319  14.781
14396W        W85925   2.420  26.417   0.302
14397W        W85926   9.552  44.198  10.978
14398W        W85927  38.726  25.444   3.316
14399W        W85928  10.897  36.926   1.936
14400W        W85929  22.311   8.912   4.912
14401W        W85930  44.316  32.984   4.975
14402W        W85931  35.125  19.167  13.651
14403W        W85932  19.686  12.840  11.544
14404W        W85933  30.053  33.535   0.435
14405W        W85934  40.759  31.574  14.305
14406W        W85935  13.555   4.444   1.792
14407W        W85936   9.093  31.057   4.575
14408W        W85937  19.113  15.089  11.612
14409W        W85938  18.984  38.762  13.499
14410W        W85939  16.762   4.687   2.828
14411W        W85940  18.089  10.684   4.976
14412W        W85941  10.406   2.792  14.740
14413W        W85942  23.188   6.692   0.361
14414W        W85943  39.297  11.075   0.298
14415W        W85944  14.680  32.994  13.990
14416W        W85945  19.486   5.928   2.220
14417W        W85946   2.799  24.398   4.642
14418W        W85947   8.461  30.455   4.085
14419W        W85948   2.931  10.069   0.895
14420W        W85949  23.611   1.883   4.252
14421W        W85950  23.453   9.253  13.936
14422W        W85951  44.786  29.501  10.613
14423W        W85952  35.878   8.612  14.815
14424W        W85953  15.823  14.223  13.013
14425W        W85954  13.525  39.949  13.416
14426W        W85955  27.134  11.930   0.957
14427W        W85956  26.483  24.198  12.852
14428W        W85957  15.669   0.675   1.772
14429W        W85958  40.447  44.823  14.262
14430W        W85959   8.916  23.515   2.764
14431W        W85960  39.466  39.900   0.161
14432W        W85961  18.101  18.133   2.710
14433W        W85962  12.663  18.056   3.572
14434W        W85963  27.518   6.376  13.066
14435W        W85964  31.154  36.701   4.663
14436W        W85965   6.843  33.254  13.523
14437W        W85966  21.188  30.452   3.665
14438W        W85967  26.020   9.425   1.211
14439W        W85968  34.525  13.907   4.262
14440W        W85969  33.015   6.899   4.640
14441W        W85970   7.694  23.201  13.490
14442W        W85971   1.307  31.977  12.045
14443W        W85972   7.155  41.325   1.631
14444W        W85973  20.823  11.245  14.440
14445W        W85974  41.399  24.099   3.680
14446W        W85975  39.968  31.812  14.946
14447W        W85976  28.222  11.848  11.685
14448W        W85977  16.152  18.770  14.845
14449W        W85978  28.205  19.568   4.229
14450W        W85979   7.798  25.912   4.623
14451W        W85980  24.956  43.227  10.782
14452W        W85981  10.263   1.431  12.510
14453W        W85982  37.961   6.312   4.747
14454W        W85983  19.260  38.825  10.616
14455W        W85984  34.903  43.993   0.553
14456W        W85985  22.079  33.470  14.032
14457W        W85986  43.950  30.701   2.754
14458W        W85987  32.554  22.466  11.087
14459W        W85988  34.470  20.813   1.832
14460W        W85989  18.944  27.705   3.264
14461W        W85990  44.392  23.456  13.017
14462W        W85991  15.863   6.818   0.311
14463W        W85992  24.066  15.550  12.082
14464W        W85993  11.134  38.461   1.315
14465W        W85994  13.800  31.177   3.844
14466W        W85995  13.053  18.998   0.820
14467W        W85996  43.218  27.020   0.602
14468W        W85997  25.110  41.229   3.205
14469W        W85998  25.158  35.642  14.972
14470W        W85999  26.000  25.574  10.558
14471W        W86000  32.541   1.042   1.235
14472W        W86001  40.596  30.430  12.053
14473W        W86002  15.145  23.354  11.525
14474W        W86003  15.495   7.859   2.256
14475W        W86004  15.210   2.828  12.807
14476W        W86005   1.357  36.330   3.712
14477W        W86006  10.862  27.645   3.142
14478W        W86007  14.390  12.382   0.505
14479W        W86008  23.110  22.804   1.370
14480W        W86009  38.331   0.253   3.679
14481W        W86010  37.328  22.225   4.117
14482W        W86011  29.975  28.272  11.101
14483W        W86012  35.697  43.717   2.655
14484W        W86013   4.643  27.923   5.116
14485W        W86014  39.505   4.931  12.603
14486W        W86015   9.941   0.197   0.846
14487W        W86016  32.492  37.010   1.801
14488W        W86017  16.403  13.989   1.787
14489W        W86018  39.030  16.422  14.899
14490W        W86019  27.014  10.665  11.506
14491W        W86020  26.490  23.901  11.575
14492W        W86021   3.291   2.544  10.618
14493W        W86022   6.586  20.852   2.770
14494W        W86023   4.417  17.130  11.163
14495W        W86024  18.833  40.019  13.289
14496W        W86025  27.522   7.866   1.241
14497W        W86026  40.928   4.296  13.166
14498W        W86027  25.494  25.516  14.561
14499W        W86028   9.134  20.769  11.962
14500W        W86029   0.983  26.502   2.685
14501W        W86030  22.085  25.368  14.306
14502W        W86031  43.450  17.102  14.731
14503W        W86032  32.339  30.963  11.313
14504W        W86033  14.657  33.089   0.541
14505W        W86034  38.813  16.809   2.046
14506W        W86035  17.329  18.570  11.152
14507W        W86036  19.238  23.040   4.795
14508W        W86037  22.922  43.951  14.402
14509W        W86038  40.124  18.919  13.489
14510W        W86039  29.587  38.370   2.700
14511W        W86040  10.705  26.443   4.550
14512W        W86041  30.588  11.800  11.183
14513W        W86042  23.588  34.951   1.124
14514W        W86043   3.882  33.454   0.494
14515W        W86044  10.146   0.276  14.649
14516W        W86045  22.343  15.825   5.133
14517W        W86046   0.827   8.184  10.906
14518W        W86047  43.529  41.248   4.061
14519W        W86048  41.481  31.657   2.904
14520W        W86049  39.443   0.788   3.589
14521W        W86050  20.587   9.532  14.802
14522W        W86051   1.417  23.937  10.689
14523W        W86052  20.855  44.807  13.454
14524W        W86053  33.367  39.050  12.771
14525W        W86054  31.893   9.000   4.186
14526W        W86055   9.134   1.031  13.405
14527W        W86056   0.795   8.425  10.443
14528W        W86057  13.005  25.174  12.049
14529W        W86058   6.815  40.439   4.314
14530W        W86059  34.128  34.935   2.241
14531W        W86060   7.825  11.777   1.747
14532W        W86061  26.892   1.889   0.655
14533W        W86062  43.151   1.020   4.726
14534W        W86063   2.850   1.022  11.526
14535W        W86064  14.147   6.712  12.810
14536W        W86065  10.767  11.788   1.765
14537W        W86066  35.104   4.096   1.515
14538W        W86067   7.647   5.225  10.760
14539W        W86068  25.296  18.258   1.751
14540W        W86069  20.039  39.070   3.205
14541W        W86070  19.639  19.113  12.101
14542W        W86071  16.201   6.437  13.885
14543W        W86072  38.957  10.738  12.128
14544W        W86073  24.076   2.303  13.885
14545W        W86074  26.443   6.037   3.387
14546W        W86075  37.473  39.290  11.571
14547W        W86076  28.110  23.739  10.223
14548W        W86077  18.307  33.694  11.094
14549W        W86078   5.050  10.339  11.230
14550W        W86079  18.461   2.018  12.423
14551W        W86080   6.016   0.476  12.028
14552W        W86081   9.760  18.615   3.330
14553W        W86082  25.821  41.230  13.861
14554W        W86083  14.100  31.887   2.264
14555W        W86084  31.941  31.477  13.661
14556W        W86085  28.892  44.519   1.799
14557W        W86086  15.561  35.931   3.363
14558W        W86087  23.550  28.071  13.512
14559W        W86088  31.615  31.074   3.046
14560W        W86089  14.200  12.880   2.891
14561W        W86090   9.315  27.077   2.098
14562W        W86091  16.495  40.546  12.432
14563W        W86092  25.943  35.474   3.156
14564W        W86093   4.670  41.082  12.129
14565W        W86094  33.481  13.377  12.026
14566W        W86095  25.193  11.066  11.722
14567W        W86096  20.589  21.244   9.849
14568W        W86097  10.619  30.890  14.036
14569W        W86098  39.714  25.631   1.856
14570W        W86099   9.914  22.605   1.362
14571W        W86100   7.266  11.863  10.607
14572W        W86101  15.577  19.451   4.334
14573W        W86102  37.336  23.920   2.653
14574W        W86103   2.050  40.421   2.327
14575W        W86104  26.972  31.201  12.007
14576W        W86105  39.557  38.396   0.693
14577W        W86106   8.829  11.143  10.268
14578W        W86107  18.171  44.743  10.393
14579W        W86108  27.431  20.241  13.280
14580W        W86109  14.775   7.222   0.008
14581W        W86110  30.722  31.434  10.640
14582W        W86111   2.353  17.737   3.663
14583W        W86112  11.168   8.777  11.554
14584W        W86113   1.711  38.205  13.491
14585W        W86114   3.471  10.366   2.394
14586W        W86115  44.831  20.409   4.099
14587W        W86116  41.515  29.032  13.852
14588W        W86117   1.299   6.130  12.453
14589W        W86118  19.553   6.276   2.724
14590W        W86119  31.959  34.515  13.936
14591W        W86120  43.321  23.208  13.225
14592W        W86121  36.925  17.223   2.379
14593W        W86122  24.873  37.853  10.687
14594W        W86123   3.825   3.285  13.357
14595W        W86124  14.602  34.956   4.938
14596W        W86125  25.895  28.261   2.192
14597W        W86126  32.441  24.542  11.055
14598W        W86127  27.091  28.767  12.421
14599W        W86128  41.789  14.748  11.171
14600W        W86129  20.794   1.917   2.153
14601W        W86130  24.428  25.417  11.782
14602W        W86131  25.965  40.714  12.503
14603W        W86132  39.892  41.808  11.591
14604W        W86133   0.002  17.356   4.126
14605W        W86134  25.979  29.853   0.897
14606W        W86135   0.735  11.296  14.928
14607W        W86136  37.264   9.843   2.470
14608W        W86137  31.389  10.708  10.921
14609W        W86138  25.035   1.009   2.786
14610W        W86139  15.230  42.897   2.841
14611W        W86140  21.876  11.916  13.431
14612W        W86141  25.358  36.626   2.825
14613W        W86142  13.263  33.562  12.342
14614W        W86143  29.651  39.236   3.039
14615W        W86144   5.756  20.561   4.221
14616W        W86145  20.409  38.459   3.707
14617W        W86146  22.559  33.552  11.036
14618W        W86147  16.352  31.185  12.981
14619W        W86148   9.824  33.158   4.746
14620W        W86149  40.479  38.323  12.186
14621W        W86150  41.478  22.506   3.007
14622W        W86151  13.819  15.664   0.005
14623W        W86152  22.215  26.000   3.428
14624W        W86153  18.567  14.729   1.358
14625W        W86154  33.574  31.687   3.710
14626W        W86155  35.980  34.968   2.702
14627W        W86156  20.592  28.522   0.849
14628W        W86157  36.195  42.863   2.239
14629W        W86158  12.769  40.899  14.951
14630W        W86159  27.900  38.127   2.370
14631W        W86160   5.328  38.783  12.102
14632W        W86161  33.943   3.943  12.394
14633W        W86162  16.346   7.099  11.570
14634W        W86163   1.798  30.324  12.634
14635W        W86164  20.238  30.331  11.622
14636W        W86165  37.569   6.925   2.777
14637W        W86166  20.520   4.452   0.284
14638W        W86167  26.986  25.341   5.273
14639W        W86168  10.636   0.719  12.125
14640W        W86169  39.541  30.094   0.251
14641W        W86170  42.498  36.803   0.850
14642W        W86171  30.048   9.834  10.758
14643W        W86172  43.289  18.645  10.717
14644W        W86173  23.659   7.774  11.112
14645W        W86174  21.760  17.823  13.585
14646W        W86175  43.088  11.794   3.094
14647W        W86176  36.025  25.640   4.717
14648W        W86177  42.303  25.187   1.289
14649W        W86178  29.568  21.301   3.357
14650W        W86179  21.999  18.865   2.756
14651W        W86180  12.208  44.558   2.335
14652W        W86181  29.544  17.652   4.641
14653W        W86182   0.455  13.710   2.206
14654W        W86183   7.461   9.770  13.938
14655W        W86184  43.354  26.524   0.870
14656W        W86185   8.360  42.714  14.974
14657W        W86186  40.827  26.670   4.339
14658W        W86187  22.737  32.035   3.791
14659W        W86188  35.191   8.285  12.509
14660W        W86189  37.372  27.628  13.987
14661W        W86190  43.284  19.337  12.815
14662W        W86191   7.665   9.694   2.826
14663W        W86192  38.377   3.155   3.802
14664W        W86193   3.483  29.635   3.668
14665W        W86194   6.508  21.851   0.453
14666W        W86195   6.916  27.866   2.842
14667W        W86196   9.821  32.635   4.471
14668W        W86197  44.921  31.578  12.669
14669W        W86198   5.170  11.584   2.793
14670W        W86199  20.012  41.664   1.774
14671W        W86200  27.503  15.496   4.331
14672W        W86201  41.525  28.244   3.667
14673W        W86202  23.991   7.782  14.843
14674W        W86203  29.066   0.893  13.834
14675W        W86204  35.605  33.628   1.828
14676W        W86205   7.931   1.410  12.549
14677W        W86206  26.482  25.494  13.459
14678W        W86207   2.263  44.011  13.638
14679W        W86208   8.212  11.506   0.926
14680W        W86209  11.144  13.893  11.110
14681W        W86210   7.156  43.997   2.392
14682W        W86211  35.356   4.048   2.730
14683W        W86212   7.501  19.701  10.451
14684W        W86213  25.831  33.787  11.701
14685W        W86214  26.213   4.848  10.695
14686W        W86215   7.698   0.476  14.895
14687W        W86216   8.626  22.856   1.412
14688W        W86217  16.139  21.617  13.342
14689W        W86218  26.232  33.431  11.602
14690W        W86219  23.735  39.465  14.763
14691W        W86220  28.165  12.342   3.772
14692W        W86221  31.243  42.270   0.076
14693W        W86222  41.140  40.036  14.735
14694W        W86223  31.609  38.632   0.196
14695W        W86224  44.873  25.231   3.630
14696W        W86225  31.815  32.947  13.515
14697W        W86226  25.193  44.590  10.378
14698W        W86227  35.156  30.978   0.529
14699W        W86228   6.852  23.588   2.511
14700W        W86229  13.393   5.500  13.785
14701W        W86230  13.140  31.348   1.513
14702W        W86231  17.616  21.207  11.077
14703W        W86232  34.559  35.916  14.993
14704W        W86233  27.280   8.835  12.931
14705W        W86234  31.105  33.660   0.897
14706W        W86235  43.167  25.119   0.973
14707W        W86236  13.325   5.634   0.027
14708W        W86237  24.447  44.611   2.010
14709W        W86238   3.820  19.235   4.936
14710W        W86239  24.445  18.111   0.269
14711W        W86240  29.462  30.221  12.148
14712W        W86241  19.216  28.397   1.232
14713W        W86242  27.517  24.146   1.751
14714W        W86243  35.357   8.441   1.538
14715W        W86244  29.230  33.447  12.403
14716W        W86245   4.192  18.805  12.488
14717W        W86246  10.428  44.926   4.524
14718W        W86247  22.163  37.909   2.256
14719W        W86248  12.202  27.572  14.486
14720W        W86249  32.355  21.249  14.334
14721W        W86250  40.466  13.565   2.992
14722W        W86251  30.520   5.918   3.385
14723W        W86252   4.738  26.324  12.014
14724W        W86253   1.461   8.734  12.021
14725W        W86254   3.988  30.012   2.924
14726W        W86255   7.129  44.235  10.738
14727W        W86256  17.833  17.231   0.516
14728W        W86257  44.400  27.410   1.662
14729W        W86258  11.113  41.695   4.606
14730W        W86259  33.991  23.032   2.730
14731W        W86260   7.689  12.153   0.471
14732W        W86261  36.414  12.675  12.614
14733W        W86262   3.486  12.658  13.745
14734W        W86263  13.872  16.788   4.709
14735W        W86264   2.173  27.661   1.245
14736W        W86265  37.850  36.265  12.143
14737W        W86266  19.519  27.996   4.129
14738W        W86267  42.813  13.333   4.250
14739W        W86268  40.770   8.144  11.207
14740W        W86269  41.843  18.992  10.713
14741W        W86270  38.864  41.855   0.748
14742W        W86271  14.789   6.375  10.734
14743W        W86272   1.336  39.232  11.900
14744W        W86273  17.323  36.892   1.350
14745W        W86274  24.908  13.754   3.320
14746W        W86275  13.773  10.586   1.865
14747W        W86276   0.833  29.172  13.938
14748W        W86277  21.331  25.134   3.287
14749W        W86278  14.650  28.237   2.758
14750W        W86279  23.172  10.735   1.181
14751W        W86280  32.904  28.360  10.661
14752W        W86281   4.452  21.519  12.942
14753W        W86282  40.580  27.461   1.937
14754W        W86283  35.845   1.707   2.261
14755W        W86284   7.000  35.554   1.804
14756W        W86285  10.446  18.427   2.779
14757W        W86286  41.826  41.833   2.150
14758W        W86287  20.641  21.906   4.834
14759W        W86288  35.410   7.382  14.239
14760W        W86289   6.820   5.151  13.914
14761W        W86290  33.120   5.660   4.161
14762W        W86291  31.682  18.175  11.488
14763W        W86292  38.307  43.862  12.143
14764W        W86293  37.655   9.460  11.575
14765W        W86294   2.328  31.442   4.128
14766W        W86295  42.725  14.222   3.640
14767W        W86296  24.492  27.556  11.587
14768W        W86297   4.635   5.626   4.996
14769W        W86298  13.113  19.490  14.357
14770W        W86299  29.896   9.004  14.541
14771W        W86300  19.041  44.753  14.044
14772W        W86301  27.171  25.465   3.377
14773W        W86302   0.779  12.840  11.656
14774W        W86303   0.012  31.435  13.157
14775W        W86304  27.196  29.892  13.039
14776W        W86305  32.618  39.792  11.059
14777W        W86306  36.385  12.838  14.301
14778W        W86307  15.199  36.315  14.006
14779W        W86308  35.808  15.804  13.949
14780W        W86309   4.252  40.544   3.800
14781W        W86310  11.763  29.895  11.908
14782W        W86311  29.723  10.814   3.677
14783W        W86312  10.558   4.824  11.494
14784W        W86313  40.549  40.983   2.228
14785W        W86314   2.752   4.336  12.888
14786W        W86315   5.873   9.086  10.707
14787W        W86316  21.288  40.855   4.536
14788W        W86317  23.180   7.960   1.794
14789W        W86318  29.462  26.510  12.855
14790W        W86319  13.924  42.459   0.441
14791W        W86320  28.889  28.003  11.235
14792W        W86321  32.410  11.406  13.364
14793W        W86322  27.721  31.821   1.660
14794W        W86323  10.181  42.850   0.887
14795W        W86324   8.708   1.872  10.255
14796W        W86325  12.887  16.244  14.440
14797W        W86326  12.559  39.740   0.647
14798W        W86327  26.931   7.189   4.314
14799W        W86328  39.966   2.402  12.536
14800W        W86329  15.359  12.231   3.590
14801W        W86330  25.109  39.522  11.144
14802W        W86331  19.289  35.000  11.513
14803W        W86332  21.509  24.807   3.684
14804W        W86333   4.242  13.624  10.737
14805W        W86334  37.027  37.427  10.315
14806W        W86335  12.397  32.047  13.431
14807W        W86336  15.285  22.862  11.636
14808W        W86337  27.416  17.501  10.736
14809W        W86338   6.201  12.156   3.668
14810W        W86339  12.325   0.787   0.716
14811W        W86340  27.117  27.219  13.626
14812W        W86341  43.002  20.632   4.663
14813W        W86342   1.900  37.574  13.986
14814W        W86343  29.444   2.899  12.655
14815W        W86344  35.433   2.780  13.398
14816W        W86345   4.736   1.270  14.326
14817W        W86346  20.601  27.064  13.192
14818W        W86347   6.808  26.824  14.676
14819W        W86348  37.421  36.379  11.892
14820W        W86349  20.853  42.787  10.923
14821W        W86350  34.536  27.828  11.207
14822W        W86351  30.654  29.986   4.523
14823W        W86352  20.321   8.292  13.112
14824W        W86353  10.249  13.210  11.041
14825W        W86354  42.147  20.130   1.257
14826W        W86355  40.156   5.683  14.299
14827W        W86356   4.403  23.803   4.540
14828W        W86357  14.843  21.214  12.363
14829W        W86358  13.684  24.518   2.607
14830W        W86359  27.110  28.649  13.861
14831W        W86360  42.313  23.959  12.795
14832W        W86361  32.539  34.104  11.668
14833W        W86362   1.308   2.485   2.930
14834W        W86363  28.603   1.940   1.147
14835W        W86364  38.818   0.876   0.513
14836W        W86365  11.151  16.197   3.007
14837W        W86366   0.532  19.062   3.677
14838W        W86367  41.055  18.943  12.651
14839W        W86368  31.852  24.285   5.063
14840W        W86369  10.433  14.607  11.088
14841W        W86370   5.430  10.186  13.399
14842W        W86371  34.209   7.844  11.003
14843W        W86372  21.696  31.949   4.196
14844W        W86373  24.425  30.504  13.460
14845W        W86374  43.825   0.278   2.566
14846W        W86375  26.777  20.030  13.990
14847W        W86376  28.527  19.784   1.838
14848W        W86377  13.141  13.333   2.207
14849W        W86378  13.512  33.986  10.745
14850W        W86379  19.645  21.965   1.274
14851W        W86380  15.697  41.988   4.537
14852W        W86381  15.350   1.194  12.046
14853W        W86382  10.356   3.241  13.962
14854W        W86383  20.327   2.421  11.559
14855W        W86384   3.785  28.077  13.417
14856W        W86385  22.761   0.955   4.550
14857W        W86386   7.587  22.280   2.721
14858W        W86387  12.846  43.645   3.341
14859W        W86388  18.436   1.198  11.187
14860W        W86389  29.292   6.534  12.739
14861W        W86390  27.916  32.619  11.470
14862W        W86391  35.121  38.390   2.342
14863W        W86392  29.188  26.912   2.165
14864W        W86393   6.170  44.763   1.395
14865W        W86394  10.168  29.173   2.787
14866W        W86395  14.413  30.129   3.285
14867W        W86396  16.078   2.792   0.447
14868W        W86397  13.850   2.877  14.923
14869W        W86398  32.114   0.469  11.458
14870W        W86399  15.238  14.769   3.117
14871W        W86400   7.331  34.324   4.667
14872W        W86401  27.012   8.635  11.147
14873W        W86402  39.548  24.471   0.039
14874W        W86403  44.267  16.584  11.286
14875W        W86404  28.560  29.688   2.188
14876W        W86405  19.061  30.840  10.781
14877W        W86406  34.552  37.866   2.698
14878W        W86407  32.391  41.815   0.452
14879W        W86408  22.622   7.152  13.006
14880W        W86409   0.315  17.565   3.738
14881W        W86410   3.562  33.727   0.183
14882W        W86411  29.833  44.660  13.065
14883W        W86412  27.984  30.923   1.842
14884W        W86413  21.517  28.047  12.166
14885W        W86414  37.023  27.466   2.558
14886W        W86415   4.482  30.645  11.226
14887W        W86416  34.196  20.660  13.430
14888W        W86417  11.663  15.576  10.228
14889W        W86418   5.257  36.397  14.672
14890W        W86419   3.716  23.350  11.069
14891W        W86420  31.568  38.760   3.959
14892W        W86421  44.015   7.513   3.378
14893W        W86422  26.401   6.446  11.031
14894W        W86423  44.269  28.902  12.909
14895W        W86424   8.375  39.446   1.394
14896W        W86425   5.147  33.423  13.690
14897W        W86426   6.279  40.662  14.718
14898W        W86427   3.286  34.500  12.133
14899W        W86428  44.329  35.263  11.710
14900W        W86429  41.865  10.274   4.557
14901W        W86430  24.290   3.661   0.558
14902W        W86431   1.790  25.202  10.668
14903W        W86432  15.733  25.939   2.239
14904W        W86433  11.764  10.838  10.931
14905W        W86434  26.204  11.268  10.467
14906W        W86435   0.324  40.411  12.860
14907W        W86436  30.561  28.082   1.291
14908W        W86437   7.889  24.762  11.041
14909W        W86438  23.411  14.120  14.900
14910W        W86439  32.031  11.730  12.629
14911W        W86440  40.366  30.658  10.694
14912W        W86441  29.613  28.018  14.743
14913W        W86442   7.231  41.094  13.032
14914W        W86443  27.370  39.142   4.091
14915W        W86444   4.810  20.447   3.177
14916W        W86445   8.564  27.484   2.276
14917W        W86446  11.370  43.043   3.293
14918W        W86447  25.452   6.349   3.265
14919W        W86448  28.143  12.820   0.468
14920W        W86449  15.728   3.686  10.621
14921W        W86450  18.519  27.470  11.365
14922W        W86451  28.147  35.552   4.924
14923W        W86452   3.251  34.467   0.814
14924W        W86453   1.134   0.384  12.484
14925W        W86454   1.775  10.777  13.795
14926W        W86455   8.549  29.671  10.745
14927W        W86456  35.377  41.759  12.967
14928W        W86457   6.113  43.539   4.294
14929W        W86458  15.648  31.511  12.842
14930W        W86459  18.094  36.496   2.695
14931W        W86460  38.050   0.408  10.775
14932W        W86461  39.947  39.834   2.835
14933W        W86462  16.797   4.545   0.825
14934W        W86463  42.727  28.488   2.732
14935W        W86464  16.301   9.776  12.120
14936W        W86465  20.979  16.639  12.103
14937W        W86466   9.436  24.486  14.846
14938W        W86467  33.405  21.519  10.629
14939W        W86468  41.437  37.849  12.583
14940W        W86469  22.048  44.652   0.317
14941W        W86470  35.841  35.641   4.175
14942W        W86471  29.787  43.367   1.380
14943W        W86472  37.758   6.165   1.862
14944W        W86473  34.144   7.589  12.375
14945W        W86474  36.393  26.186  13.928
14946W        W86475  42.986  26.106  14.492
14947W        W86476   3.758   1.491  11.367
14948W        W86477  41.955   5.990  14.942
14949W        W86478  24.679  17.072  11.227
14950W        W86479  19.841  20.566  12.017
14951W        W86480  18.589  14.917   0.724
14952W        W86481  23.718  11.328  14.225
14953W        W86482  35.368  26.043  10.589
14954W        W86483  37.506  44.252  12.854
14955W        W86484  32.541  29.421  12.863
14956W        W86485  23.140  33.559  12.393
14957W        W86486   2.211   1.013   3.625
14958W        W86487  44.376  17.167   2.640
14959W        W86488   5.954  41.504  12.145
14960W        W86489  16.346   9.527   0.632
14961W        W86490  34.357  19.049  10.799
14962W        W86491  35.171  14.310  14.516
14963W        W86492  25.700   8.733   2.182
14964W        W86493  26.146  25.580   4.872
14965W        W86494  30.378  30.319  11.274
14966W        W86495  25.628   0.352  10.481
14967W        W86496   1.753  36.977   3.221
14968W        W86497  42.016  15.588  12.018
14969W        W86498   0.855   6.676   0.697
14970W        W86499  35.271   7.198  11.534
14971W        W86500  31.330  28.502   2.678
14972W        W86501   9.815  35.102   0.743
14973W        W86502  37.892  37.063   3.277
14974W        W86503  17.267  15.916   2.164
14975W        W86504  44.843  15.880  13.844
14976W        W86505   6.414  19.510   2.792
14977W        W86506  42.700  22.029  12.963
14978W        W86507  15.307  18.143   1.389
14979W        W86508   1.293   3.818  14.588
14980W        W86509  18.357   0.713   2.256
14981W        W86510  12.885  35.687   2.301
14982W        W86511  31.377   3.124   3.446
14983W        W86512   7.301  30.697   1.700
14984W        W86513   1.336  28.346  14.962
14985W        W86514  11.886  25.194   0.949
14986W        W86515  24.907   2.321  14.291
14987W        W86516  44.872  23.160  10.622
14988W        W86517   9.308  31.938   3.101
14989W        W86518  33.062  12.822   4.963
14990W        W86519  37.532  14.886  10.629
14991W        W86520   5.051  14.626   1.756
14992W        W86521  25.457  33.222   0.023
14993W        W86522  44.864   5.525  13.413
14994W        W86523  37.064  11.842   1.838
14995W        W86524  28.653  20.611  11.719
14996W        W86525  39.961  31.680  12.882
14997W        W86526  32.177  10.676   2.721
14998W        W86527  38.387  34.388   0.403
14999W        W86528  13.650  22.687   0.707
15000W        W86529  32.921  29.687  13.513
15001W        W86530  34.004  15.864  11.204
15002W        W86531  38.554  29.117   3.758
15003W        W86532  12.585  23.113   4.462
15004W        W86533   5.427  28.823   1.224
15005W        W86534  42.112  38.497   4.018
15006W        W86535  44.758   2.413  14.627
15007W        W86536  41.493  17.485  10.726
15008W        W86537  30.286   3.138   1.039
15009W        W86538  27.970   2.597  11.224
15010W        W86539  23.101  41.947   4.062
15011W        W86540  15.411  30.040  10.187
15012W        W86541  44.802  10.367   4.338
15013W        W86542   6.711   1.199   4.619
15014W        W86543   2.807  21.841  14.349
15015W        W86544  17.796  12.028   0.256
15016W        W86545  33.387  39.590   4.740
15017W        W86546  13.074  36.451  11.187
15018W        W86547   3.653  21.673  11.898
15019W        W86548  12.593  43.524   4.674
15020W        W86549  33.586  28.163   3.638
15021W        W86550  42.603  28.634  14.803
15022W        W86551  44.114   7.420   4.142
15023W        W86552  13.891  20.016   2.254
15024W        W86553  17.972  10.134  13.872
15025W        W86554  28.935  30.615   0.945
15026W        W86555  38.813  21.569  12.030
15027W        W86556  32.108  18.976  10.740
15028W        W86557   1.941  31.349   0.267
15029W        W86558  37.018   2.540  14.801
15030W        W86559   0.240   2.341  14.506
15031W        W86560   3.565  33.241  11.553
15032W        W86561  39.558   8.714   3.196
15033W        W86562  37.939   4.373   2.877
15034W        W86563  43.305  42.936  13.166
15035W        W86564  13.426   8.483  11.630
15036W        W86565   4.814  13.225   3.201
15037W        W86566  44.984  15.807  12.928
15038W        W86567  28.168  39.589  12.441
15039W        W86568  31.670  37.141  11.584
15040W        W86569  27.224  10.145  13.797
15041W        W86570  25.045   1.866  11.507
15042W        W86571   6.912  21.370  13.588
15043W        W86572  40.098  36.965  11.496
15044W        W86573  22.946   9.723  10.759
15045W        W86574  38.780  44.975   1.845
15046W        W86575  11.261  35.883  14.551
15047W        W86576  28.436  35.134   0.441
15048W        W86577   1.840   7.825  11.952
15049W        W86578   2.218  17.375  13.518
15050W        W86579   7.690  10.252   3.699
15051W        W86580  27.719  37.894  14.976
15052W        W86581  18.766  15.135  10.833
15053W        W86582  26.972  21.205  13.464
15054W        W86583  35.549   1.506   0.514
15055W        W86584  17.721  29.383  14.417
15056W        W86585  20.675   4.886   3.973
15057W        W86586  27.120  32.930   1.866
15058W        W86587  24.214   8.107   2.727
15059W        W86588  20.510   9.102  10.295
15060W        W86589  26.615   2.471   3.208
15061W        W86590  36.388  25.928  12.279
15062W        W86591  10.296  19.218   2.703
15063W        W86592  11.109  20.479  11.077
15064W        W86593   1.646  42.393   0.903
15065W        W86594  14.190   3.337  12.012
15066W        W86595  35.974  14.567  11.148
15067W        W86596  38.475  15.606   1.618
15068W        W86597  20.683   6.976   3.254
15069W        W86598   0.778   0.906  10.668
15070W        W86599  42.828   2.885  11.717
15071W        W86600  26.502  27.524   4.585
15072W        W86601  30.950  39.855   1.705
15073W        W86602  19.123  41.029  13.100
15074W        W86603  13.368  40.524  14.192
15075W        W86604  10.484  43.307   2.295
15076W        W86605  28.730  23.534  12.170
15077W        W86606  43.522  29.484  14.764
15078W        W86607   9.186  20.870   2.385
15079W        W86608  25.923  32.439  11.511
15080W        W86609  33.343  35.250   5.325
15081W        W86610  29.964  24.294   4.493
15082W        W86611   1.733   2.355   1.099
15083W        W86612  41.321   3.144   4.964
15084W        W86613  11.658   5.179   2.946
15085W        W86614  44.780  19.903   0.122
15086W        W86615   4.086  31.648   2.013
15087W        W86616  32.076  44.251  10.675
15088W        W86617  22.944  31.008   0.827
15089W        W86618  31.988  10.163  14.703
15090W        W86619  38.971  15.445   4.193
15091W        W86620  28.207   2.264   0.001
15092W        W86621  27.076  42.334  11.415
15093W        W86622   2.251  35.044  10.177
15094W        W86623  18.948  13.159   0.199
15095W        W86624  37.103   9.339  11.575
15096W        W86625  28.090  31.322   2.789
15097W        W86626   6.476  21.639   2.298
15098W        W86627  10.075  30.693   4.271
15099W        W86628  16.759  34.727   0.266
15100W        W86629  14.108  25.616   0.289
15101W        W86630   9.295  27.171  10.482
15102W        W86631  12.315  35.047  12.652
15103W        W86632  38.114  35.334  12.394
15104W        W86633  39.112  14.334  11.180
15105W        W86634  17.270  39.719   2.312
15106W        W86635  15.950  13.946  10.222
15107W        W86636  42.392  43.527  13.496
15108W        W86637   0.922  39.061   5.015
15109W        W86638   2.872  34.930   4.951
15110W        W86639   0.840  33.408   3.699
15111W        W86640  39.706   4.469  13.028
15112W        W86641   5.981  17.041  10.268
15113W        W86642   1.865  34.739  12.185
15114W        W86643  12.180  18.687  14.842
15115W        W86644  15.552  35.901  11.924
15116W        W86645  18.405  42.872  13.475
15117W        W86646  11.558  37.077   2.961
15118W        W86647  40.823  39.071   5.078
15119W        W86648  18.232  41.580   2.421
15120W        W86649  33.832  37.573  14.096
15121W        W86650  42.930  31.925   4.311
15122W        W86651   6.472  14.007   0.202
15123W        W86652  30.620  17.266  12.001
15124W        W86653   7.797   3.196   4.547
15125W        W86654  35.922  22.668  11.220
15126W        W86655  22.636  29.410  11.156
15127W        W86656  36.298  35.967  10.650
15128W        W86657  20.603  28.059  10.665
15129W        W86658  31.760   2.129   2.298
15130W        W86659   8.690  18.488   2.329
15131W        W86660  22.195  41.034   0.872
15132W        W86661   4.892  21.745   3.815
15133W        W86662  36.875  44.459   2.438
15134W        W86663  19.764   7.437   4.266
15135W        W86664  21.949  30.231  12.151
15136W        W86665  34.482  26.231  10.227
15137W        W86666  25.639  34.829   2.190
15138W        W86667  41.321   6.616   3.228
15139W        W86668  22.269  18.219  14.332
15140W        W86669  10.324  44.441  12.562
15141W        W86670   2.379  42.763  10.998
15142W        W86671  26.814  42.974  11.956
15143W        W86672  43.704   8.920  11.189
15144W        W86673  36.906  21.086  10.751
15145W        W86674   5.711  22.154   3.940
15146W        W86675  22.543  20.346  12.947
15147W        W86676  35.840   7.733   4.489
15148W        W86677  21.861  23.015   3.117
15149W        W86678   9.089  21.040  10.245
15150W        W86679   6.200  34.870  12.110
15151W        W86680  16.579  21.761   4.452
15152W        W86681  22.489  40.560  12.625
15153W        W86682  15.759  43.273   2.300
15154W        W86683  29.898  34.630  12.113
15155W        W86684  37.260  24.734  12.583
15156W        W86685  20.593  20.511  11.766
15157W        W86686  20.964  12.444   3.843
15158W        W86687  27.225  36.971  14.476
15159W        W86688   9.311   0.684  14.754
15160W        W86689   2.724   0.771   1.952
15161W        W86690  27.534  20.687   3.320
15162W        W86691   5.000   9.344   3.358
15163W        W86692  44.309   9.699   4.824
15164W        W86693  41.803  36.631  12.028
15165W        W86694  31.471   0.924   0.779
15166W        W86695  19.741   0.181  11.517
15167W        W86696  20.168  30.638   1.200
15168W        W86697   8.743   0.254  13.392
15169W        W86698   5.779  31.210   3.695
15170W        W86699   5.286  32.965   1.259
15171W        W86700  11.850  33.050   3.840
15172W        W86701   4.702  30.461  14.352
15173W        W86702  11.090   7.834  13.971
15174W        W86703  19.728   5.329  14.986
15175W        W86704  42.419  18.395  12.438
15176W        W86705  23.635  25.315   4.826
15177W        W86706  40.351  28.992   2.821
15178W        W86707  31.311  42.971  11.428
15179W        W86708  19.023  34.019   3.184
15180W        W86709  18.313  19.633   0.464
15181W        W86710  33.399  23.322  12.869
15182W        W86711  13.586  31.560  10.655
15183W        W86712   6.769   5.227   4.545
15184W        W86713  13.108   8.363   3.256
15185W        W86714  24.997  42.324   4.628
15186W        W86715  22.058  20.930   1.226
15187W        W86716  19.158  19.069   4.511
15188W        W86717   7.672  39.863  12.889
15189W        W86718   5.685  13.040   2.661
15190W        W86719  28.054  31.089   3.265
15191W        W86720  33.308  35.994   1.522
15192W        W86721   2.055  29.571   2.706
15193W        W86722  37.304  17.246   3.678
15194W        W86723   6.161  41.497  14.276
15195W        W86724   2.238  24.526  12.939
15196W        W86725   9.138  19.400  12.589
15197W        W86726   6.215  38.427   0.459
15198W        W86727  15.572   3.264   0.877
15199W        W86728  38.822  43.339  11.948
15200W        W86729  17.841   9.148   3.770
15201W        W86730  24.755  37.607   4.993
15202W        W86731   5.662  22.652   1.900
15203W        W86732  19.481  12.107  13.606
15204W        W86733  23.074  38.745  13.885
15205W        W86734  14.729   6.659   3.697
15206W        W86735  14.494  36.297   2.693
15207W        W86736   3.838  23.732  14.006
15208W        W86737  32.133   8.348   1.782
15209W        W86738  12.654  26.181   1.725
15210W        W86739  20.861  36.049   3.814
15211W        W86740  35.363   0.006  13.792
15212W        W86741  35.132   7.386  12.032
15213W        W86742   5.602  20.813   1.333
15214W        W86743  33.146   0.904  14.354
15215W        W86744  27.113  30.524  13.581
15216W        W86745  32.485  14.716  12.330
15217W        W86746   6.485  15.451   3.659
15218W        W86747  28.168  42.326  12.071
15219W        W86748  41.294   1.685   3.297
15220W        W86749  40.776  34.951  10.774
15221W        W86750  14.348  29.083   0.888
15222W        W86751  32.672  38.530  12.466
15223W        W86752  19.375  27.356  12.585
15224W        W86753  27.364  23.473  11.625
15225W        W86754   7.434  19.289   2.292
15226W        W86755  24.098  24.018  14.535
15227W        W86756  12.731  26.186  10.690
15228W        W86757  38.702   6.249   1.176
15229W        W86758  22.629  10.090   2.765
15230W        W86759  28.267   0.367   2.895
15231W        W86760   3.162  44.279   0.353
15232W        W86761  32.248  27.612  10.623
15233W        W86762   6.743   2.182   4.569
15234W        W86763   5.956  37.107  11.027
15235W        W86764   6.914  14.878   2.883
15236W        W86765  29.354  38.443   3.156
15237W        W86766  30.445   6.886   3.733
15238W        W86767  33.768  27.363  10.652
15239W        W86768  34.893  24.677  10.288
15240W        W86769  18.108  13.246  13.434
15241W        W86770  37.915  40.214  11.700
15242W        W86771  17.838  31.135  13.834
15243W        W86772  20.581  20.669   4.180
15244W        W86773   1.327  38.129  12.627
15245W        W86774  13.954   1.759  12.203
15246W        W86775   2.175  36.559   4.112
15247W        W86776   8.275  10.724  14.220
15248W        W86777  29.616  20.547  10.731
15249W        W86778   7.628  10.583   4.102
15250W        W86779  33.889  17.661  14.828
15251W        W86780  15.823  18.653   2.503
15252W        W86781   4.146   4.136  12.279
15253W        W86782  22.663   6.657   2.180
15254W        W86783  26.584  14.620  12.821
15255W        W86784   7.733  11.694  10.796
15256W        W86785  37.857  23.304   1.315
15257W        W86786  10.486  33.369   1.362
15258W        W86787  44.441  38.507   3.917
15259W        W86788  42.367  22.152   3.407
15260W        W86789  18.550  11.860  13.308
15261W        W86790  19.668  26.928   2.865
15262W        W86791   0.799  15.512   1.976
15263W        W86792   7.399  24.261   2.344
15264W        W86793   1.816  10.777  10.825
15265W        W86794  16.515  25.457   0.325
15266W        W86795   9.067   2.783   2.912
15267W        W86796  41.306  25.036  11.504
15268W        W86797  35.877  31.146   4.270
15269W        W86798   8.888  26.889  10.614
15270W        W86799  43.366  40.818   1.091
15271W        W86800   8.481  41.827  10.564
15272W        W86801   5.603  42.338   4.519
15273W        W86802  25.640   2.750   2.639
15274W        W86803  31.498  36.840   3.886
15275W        W86804  34.235  40.230   4.990
15276W        W86805   6.279  10.329   2.126
15277W        W86806  25.465  28.858   2.342
15278W        W86807  30.229  17.982  11.850
15279W        W86808  16.570   6.296   0.460
15280W        W86809  25.074  37.901   4.687
15281W        W86810  17.782  26.024  11.168
15282W        W86811  32.898   7.115  11.905
15283W        W86812  27.020  43.462  14.310
15284W        W86813   4.826  11.330  10.412
15285W        W86814   0.379   0.751   3.643
15286W        W86815  13.033   3.054  12.302
15287W        W86816  19.354  33.120  10.664
15288W        W86817  16.054  28.431  12.149
15289W        W86818   7.777   5.753  10.674
15290W        W86819  41.564  40.998   2.440
15291W        W86820   2.482  24.255   1.256
15292W        W86821  42.205  33.038   3.113
15293W        W86822   7.150  31.540  13.171
15294W        W86823   2.968  36.582   4.623
15295W        W86824  39.679  38.148  11.531
15296W        W86825  22.129  20.279  14.982
15297W        W86826   9.928  44.196   2.358
15298W        W86827  31.396  19.624   4.593
15299W        W86828  29.548  12.327   4.058
15300W        W86829  18.138  26.549  13.071
15301W        W86830  42.937   6.599   2.855
15302W        W86831  44.831  17.013   2.824
15303W        W86832  26.708   4.801  12.435
15304W        W86833  16.280  21.443  12.874
15305W        W86834   6.634  31.005   3.351
15306W        W86835  15.679   4.665   0.049
15307W        W86836  35.644  27.974   0.430
15308W        W86837  31.073  10.176  13.024
15309W        W86838  15.358  26.046  12.008
15310W        W86839  30.204   3.506  13.760
15311W        W86840  39.207   8.330  10.681
15312W        W86841  23.783   0.291  10.726
15313W        W86842   6.251  17.123  14.987
15314W        W86843  23.996   2.421   4.643
15315W        W86844  36.434  12.427   1.770
15316W        W86845   3.977  11.714   3.784
15317W        W86846   7.353  43.100   4.207
15318W        W86847  24.063   2.764  11.213
15319W        W86848  33.576   4.035   3.324
15320W        W86849   9.787  31.212  13.354
15321W        W86850  28.151  40.524  12.507
15322W        W86851  32.089  29.977  13.095
15323W        W86852  10.670   4.672  11.022
15324W        W86853   2.497  16.133   1.415
15325W        W86854  10.842  15.775  13.870
15326W        W86855  20.053  32.413   3.771
15327W        W86856   6.470  40.958  10.981
15328W        W86857  25.698  29.134  13.533
15329W        W86858  14.728  37.526  13.002
15330W        W86859  35.067   6.918  14.393
15331W        W86860  38.499  33.572  13.492
15332W        W86861  10.489  43.466   2.813
15333W        W86862  36.798  25.192   2.233
15334W        W86863  13.445  33.961   4.142
15335W        W86864  17.097   7.586   4.502
15336W        W86865  40.517  44.380   3.057
15337W        W86866  19.676  20.036  11.032
15338W        W86867  18.810  37.010   2.372
15339W        W86868  43.394  44.906  11.705
15340W        W86869  17.405   0.821   3.312
15341W        W86870  25.445   4.208   0.304
15342W        W86871  18.866  38.361  12.516
15343W        W86872  26.715  22.239   1.328
15344W        W86873   8.566  36.090   1.182
15345W        W86874  28.301  35.435  12.199
15346W        W86875  36.831  41.408   2.298
15347W        W86876  24.738  43.954   3.353
15348W        W86877   9.600  31.975  10.733
15349W        W86878   5.987  35.795   2.709
15350W        W86879  32.374  25.291   0.970
15351W        W86880   3.178  15.081   3.632
15352W        W86881  16.796   1.278   3.381
15353W        W86882  23.661   5.704   4.067
15354W        W86883  33.479  15.631   4.095
15355W        W86884   3.856   6.427  14.741
15356W        W86885   6.350  30.055   4.154
15357W        W86886  43.417  35.701   4.152
15358W        W86887  19.493   3.309  14.910
15359W        W86888  35.105  42.161   3.225
15360W        W86889  43.754  40.832  14.625
15361W        W86890  24.945   5.723   1.905
15362W        W86891  28.061  44.801   2.076
15363W        W86892  17.276  15.362   3.197
15364W        W86893  33.985   6.654   0.531
15365W        W86894  11.098  35.888   2.078
15366W        W86895  44.025  21.994  12.837
15367W        W86896   8.582  18.174  12.336
15368W        W86897  21.553  24.557  13.882
15369W        W86898  19.727  20.815  12.940
15370W        W86899  32.157  32.088   2.520
15371W        W86900  34.049  17.558   3.894
15372W        W86901  11.023  29.226  14.918
15373W        W86902  15.728  30.468   0.340
15374W        W86903  22.306  19.771  11.821
15375W        W86904  25.322   8.008   5.046
15376W        W86905  36.957  41.930  14.621
15377W        W86906  36.162  31.395  12.684
15378W        W86907  16.783   7.288  12.436
15379W        W86908   1.161   5.340   2.233
15380W        W86909  18.618  19.212   2.179
15381W        W86910  38.550  31.621  14.158
15382W        W86911  12.693   4.766  12.221
15383W        W86912  38.497  44.917   2.796
15384W        W86913  33.672  25.518  14.077
15385W        W86914  25.257  28.636  14.520
15386W        W86915  28.588  38.300  10.970
15387W        W86916  13.706  44.991  14.810
15388W        W86917  32.034  24.746  12.950
15389W        W86918  18.342   4.535   5.106
15390W        W86919  13.590  44.541  12.785
15391W        W86920   4.357  10.859   3.339
15392W        W86921   6.343  29.285   3.683
15393W        W86922  15.614  19.102   2.385
15394W        W86923   9.052  22.512  12.963
15395W        W86924  36.467  36.109  14.596
15396W        W86925  30.430  18.872  14.339
15397W        W86926   2.443   0.360  13.763
15398W        W86927  44.999  29.010   1.145
15399W        W86928  28.904  36.839   0.325
15400W        W86929  21.558  24.025   3.196
15401W        W86930  32.183  29.571  12.031
15402W        W86931  14.553  17.570   4.829
15403W        W86932  31.864  32.985  12.983
15404W        W86933   3.733  30.609  11.980
15405W        W86934  39.245  26.145   2.859
15406W        W86935  31.078  31.633   2.111
15407W        W86936  28.759  25.916   4.545
15408W        W86937  18.512  32.727  13.862
15409W        W86938  14.308  27.703   4.085
15410W        W86939   1.228  20.977   4.596
15411W        W86940   6.713   5.481   2.372
15412W        W86941  18.280  40.320  12.112
15413W        W86942  26.691  25.007  10.603
15414W        W86943  18.215  40.029   2.068
15415W        W86944  40.714  17.232   2.760
15416W        W86945  31.234   1.008  14.431
15417W        W86946  20.166  13.134   2.058
15418W        W86947  34.932  42.463   0.519
15419W        W86948  28.529   6.248  14.576
15420W        W86949  32.839  21.789   3.774
15421W        W86950   7.182  33.650   0.789
15422W        W86951  24.383   1.848  13.884
15423W        W86952  20.670   9.966  11.570
15424W        W86953  13.230  40.126   2.831
15425W        W86954  40.121  21.635   3.091
15426W        W86955  44.859  13.685   0.858
15427W        W86956  21.377   2.270  12.361
15428W        W86957  25.084   8.685   3.865
15429W        W86958  12.815  13.384  14.878
15430W        W86959  36.537   0.997  12.639
15431W        W86960  44.372  12.114   1.193
15432W        W86961  44.523  22.569   4.622
15433W        W86962  25.136  36.898   3.901
15434W        W86963  27.650   7.488  14.795
15435W        W86964  24.534  33.036  12.410
15436W        W86965  43.337  30.670   4.130
15437W        W86966   4.063  23.110   0.390
15438W        W86967   3.356   6.336  12.525
15439W        W86968  29.947  14.115   0.282
15440W        W86969  27.910  20.692   0.768
15441W        W86970  16.967  41.219  10.968
15442W        W86971   4.234   9.650   0.217
15443W        W86972  21.674  22.074   4.437
15444W        W86973  12.380   9.725  10.996
15445W        W86974  17.051  25.575  13.920
15446W        W86975   5.903   7.877   0.325
15447W        W86976  20.094  27.064  14.830
15448W        W86977   1.808  42.803  13.476
15449W        W86978  35.090  39.945   2.329
15450W        W86979   0.264  38.681   1.121
15451W        W86980  18.106  26.430  13.581
15452W        W86981   2.747   4.177  12.068
15453W        W86982  32.122  18.463  10.710
15454W        W86983  14.750  43.871   3.343
15455W        W86984  39.555  12.191  12.075
15456W        W86985  44.854  27.778   3.596
15457W        W86986  32.109  24.045   4.658
15458W        W86987  22.006  19.538  13.255
15459W        W86988  37.880  33.171  10.487
15460W        W86989   3.516  39.489   0.598
15461W        W86990   0.875  38.802   0.448
15462W        W86991  31.016  11.839  12.487
15463W        W86992  25.915   1.436  13.448
15464W        W86993  38.435  32.917   4.065
15465W        W86994  17.796  13.610   4.196
15466W        W86995  36.509  16.256   1.248
15467W        W86996  26.117  20.238  10.677
15468W        W86997   3.658  17.487   4.382
15469W        W86998   0.276  19.844   0.267
15470W        W86999  13.072  25.461   4.561
15471W        W87000  21.723  18.798   4.033
15472W        W87001  33.724   6.223  11.475
15473W        W87002   3.764  18.524   3.072
15474W        W87003  40.640  21.816  11.972
15475W        W87004  28.968  16.628   2.322
15476W        W87005  12.468  26.237   0.659
15477W        W87006  12.194  18.075  11.723
15478W        W87007  33.007   9.170   4.522
15479W        W87008  26.722   6.366   3.688
15480W        W87009  31.570  18.358   2.797
15481W        W87010   7.223  20.285  14.611
15482W        W87011  37.082   3.382   2.769
15483W        W87012  18.743  29.942  14.541
15484W        W87013  16.004  24.415  11.613
15485W        W87014  17.866  31.602   4.253
15486W        W87015   0.184  22.816   1.882
15487W        W87016  32.526   7.924   4.185
15488W        W87017  38.785  15.666   4.641
15489W        W87018  29.392  42.764  10.294
15490W        W87019  40.562   9.875   1.473
15491W        W87020  39.442   6.380  10.372
15492W        W87021  23.430   4.979   3.289
15493W        W87022  40.851  27.851  14.238
15494W        W87023  32.878  34.423  10.366
15495W        W87024  24.992  20.236  12.150
15496W        W87025   4.810  24.570  12.235
15497W        W87026  31.637  31.918   3.103
15498W        W87027  28.192   5.000   3.170
15499W        W87028  35.923  36.073  13.916
15500W        W87029  39.150   5.064  13.563
15501W        W87030   7.428  26.277  13.404
15502W        W87031  27.594  13.522   4.138
15503W        W87032  42.353  32.305   0.749
15504W        W87033  39.760  10.770  11.702
15505W        W87034  23.075  31.244   4.014
15506W        W87035  11.384  38.416  12.430
15507W        W87036  11.421  34.131   2.358
15508W        W87037   6.487  25.740   4.552
15509W        W87038  23.180  34.579   3.707
15510W        W87039  16.488   3.238   3.217
15511W        W87040  39.722  12.506   3.549
15512W        W87041  16.186  37.466  12.873
15513W        W87042   1.073  13.784   0.972
15514W        W87043  44.579  20.016   2.469
15515W        W87044  21.243  18.364   3.292
15516W        W87045  32.013  34.278  11.558
15517W        W87046   2.816   0.191  10.680
15518W        W87047  11.168   9.227   1.761
15519W        W87048  42.287  39.421   0.971
15520W        W87049  44.546  34.083   2.419
15521W        W87050   6.526  43.206  14.950
15522W        W87051  27.194   2.754   1.452
15523W        W87052  37.941   5.817   0.746
15524W        W87053  24.253  25.758  14.809
15525W        W87054  22.838  35.620  14.777
15526W        W87055  22.334  26.418  12.845
15527W        W87056  26.143  15.250  12.442
15528W        W87057  18.568  36.579   3.568
15529W        W87058   8.823  10.321   1.370
15530W        W87059   2.564  11.573  14.332
15531W        W87060  32.610  37.052   2.321
15532W        W87061  23.713  42.676  10.945
15533W        W87062  18.685   3.704  11.655
15534W        W87063   6.564  22.000  14.532
15535W        W87064   4.939   5.414   3.143
15536W        W87065  24.082  19.581  11.559
15537W        W87066  40.970  42.791  14.051
15538W        W87067  10.613  40.336   1.181
15539W        W87068   2.926  18.175  14.044
15540W        W87069  24.763  16.887   0.739
15541W        W87070  36.472  19.606   2.752
15542W        W87071  21.456  31.952  12.416
15543W        W87072   0.782  19.526   3.779
15544W        W87073   3.786  13.344   3.738
15545W        W87074   2.068  32.462   4.184
15546W        W87075   1.812   2.425   2.205
15547W        W87076  42.699  44.715   4.201
15548W        W87077  36.000  34.116  11.619
15549W        W87078   2.331   6.307  14.358
15550W        W87079  29.105  32.847  11.623
15551W        W87080  14.267   5.803   1.775
15552W        W87081  16.576  15.833   2.805
15553W        W87082  43.047  21.161   3.164
15554W        W87083  19.142  30.098   3.423
15555W        W87084  34.509  33.573  13.934
15556W        W87085   9.142  13.404  13.961
15557W        W87086  21.073  34.650   4.570
15558W        W87087  12.074  33.183  13.571
15559W        W87088  33.626  44.278  10.598
15560W        W87089  29.624  43.020   3.544
15561W        W87090  26.180   1.597  14.786
15562W        W87091   2.749  40.518  14.157
15563W        W87092  30.442  19.679   2.204
15564W        W87093  33.836   9.661  11.143
15565W        W87094  15.753  30.463   2.288
15566W        W87095  12.334  34.589  13.406
15567W        W87096  15.308  36.357   3.105
15568W        W87097  19.068   6.447  10.715
15569W        W87098  15.848  17.260   0.612
15570W        W87099  30.335  16.635  12.642
15571W        W87100  10.580   3.517   4.494
15572W        W87101   0.903  29.766   1.386
15573W        W87102   9.100  38.074   0.446
15574W        W87103  34.410  16.713  12.347
15575W        W87104  44.851  21.241  11.369
15576W        W87105   3.379  30.162   0.333
15577W        W87106  29.415  43.215  12.045
15578W        W87107  14.518   0.948  10.562
15579W        W87108  38.403  40.290  12.862
15580W        W87109  35.919  20.894  12.017
15581W        W87110  11.446  26.021   0.734
15582W        W87111  23.669   9.246  14.422
15583W        W87112  27.151  26.911  11.092
15584W        W87113   3.348  27.731  12.475
15585W        W87114  23.689  15.762   2.831
15586W        W87115   0.013  32.437  12.096
15587W        W87116  20.657  21.456  13.988
15588W        W87117  35.110   5.045   4.191
15589W        W87118  35.299  11.162  13.888
15590W        W87119   5.349   2.293  12.451
15591W        W87120  24.911  18.325   4.661
15592W        W87121  36.397  42.031   1.842
15593W        W87122  22.598   4.901  12.381
15594W        W87123  44.276  12.067  12.466
15595W        W87124  38.955  37.572   0.994
15596W        W87125   7.193  24.948   3.110
15597W        W87126   5.057  28.410   4.901
15598W        W87127  24.202  33.418  12.380
15599W        W87128   1.480  22.059   0.489
15600W        W87129  16.809  43.022   3.064
15601W        W87130  15.514   6.526  13.577
15602W        W87131  20.476  38.919  13.283
15603W        W87132  27.732  17.083  10.670
15604W        W87133  36.612  35.497  13.964
15605W        W87134  14.143  26.895  11.196
15606W        W87135  39.089   4.287   0.352
15607W        W87136  26.308   5.844  11.861
15608W        W87137  22.053  15.253   4.072
15609W        W87138  14.598  29.316   2.027
15610W        W87139  31.070  34.987  14.831
15611W        W87140   3.700   9.361   4.540
15612W        W87141  31.845  13.069  14.526
15613W        W87142  43.992   8.701  11.586
15614W        W87143  21.165  19.548  10.301
15615W        W87144   7.171  43.479   0.473
15616W        W87145   3.872  40.027   2.701
15617W        W87146  22.594   4.368  12.559
15618W        W87147   7.876   3.112  11.478
15619W        W87148  30.658   0.723  12.512
15620W        W87149  29.596  17.702   0.410
15621W        W87150   6.185  22.248  13.868
15622W        W87151  37.589  32.055   0.183
15623W        W87152  36.915  10.445   2.891
15624W        W87153  29.957  41.541  11.049
15625W        W87154   0.522   6.305   0.879
15626W        W87155   0.789   7.381   3.371
15627W        W87156  17.607  31.427   1.740
15628W        W87157  39.982  15.156  11.023
15629W        W87158  22.007  14.642   3.403
15630W        W87159   3.348  43.617  14.944
15631W        W87160   2.454  11.289  12.332
15632W        W87161  38.621   0.953   3.108
15633W        W87162   2.387  29.352   0.993
15634W        W87163  37.392   1.544  12.641
15635W        W87164  23.203  27.290  14.362
15636W        W87165  33.623  12.122   0.315
15637W        W87166   4.918  40.380   2.463
15638W        W87167  21.403  13.111  14.070
15639W        W87168  19.026  44.881   4.578
15640W        W87169  10.806  11.325  12.326
15641W        W87170  10.089  43.992   4.089
15642W        W87171   4.433   5.968  13.985
15643W        W87172   2.080  20.200  13.844
15644W        W87173  18.075  17.156  11.497
15645W        W87174   2.676   2.480  10.417
15646W        W87175   8.448  27.389  12.507
15647W        W87176  16.871  22.281   5.559
15648W        W87177  11.272  44.731   3.681
15649W        W87178  11.340   2.434  13.909
15650W        W87179  43.368  35.037  12.855
15651W        W87180  18.682   7.948   1.778
15652W        W87181   0.793  23.515  12.263
15653W        W87182  32.875   4.845  11.923
15654W        W87183   1.307  25.261   0.340
15655W        W87184  35.972  26.171   1.878
15656W        W87185  42.574   4.838  12.192
15657W        W87186  30.588   9.406  12.828
15658W        W87187  31.869   9.901  12.415
15659W        W87188  26.483  24.888   3.399
15660W        W87189  19.693  44.773   4.143
15661W        W87190  25.223   8.388   0.905
15662W        W87191  41.481  29.986   4.126
15663W        W87192  30.867   8.822  11.915
15664W        W87193   9.307  44.357  13.842
15665W        W87194   9.828   5.388   1.949
15666W        W87195   7.173  31.319  13.631
15667W        W87196  42.805  12.819  12.085
15668W        W87197  19.866  19.766  14.816
15669W        W87198  16.293  16.222  14.935
15670W        W87199  39.623  14.556  14.998
15671W        W87200  26.639  24.762  13.819
15672W        W87201  37.887  41.449   2.632
15673W        W87202  28.966  40.606  11.051
15674W        W87203   6.411   9.799   3.613
15675W        W87204  17.658  17.592  14.585
15676W        W87205  42.927  39.990   3.374
15677W        W87206  19.312  40.475   0.298
15678W        W87207  14.583  32.963   4.241
15679W        W87208  29.434  13.183   4.056
15680W        W87209  30.711  25.007   1.879
15681W        W87210  39.810  30.151   0.708
15682W        W87211  17.775   5.549  11.646
15683W        W87212  29.603   0.971   4.738
15684W        W87213  16.283  43.119  11.900
15685W        W87214  36.330  12.693  14.774
15686W        W87215  22.215   2.679   4.177
15687W        W87216  34.935  30.548   0.326
15688W        W87217  24.222   9.283   3.707
15689W        W87218  29.172  42.469   1.809
15690W        W87219   7.008   1.341   0.316
15691W        W87220   2.495  35.455   0.270
15692W        W87221   8.238   7.407  14.831
15693W        W87222  19.132   3.923   2.284
15694W        W87223  42.858  41.092   3.204
15695W        W87224  36.051  20.128   2.423
15696W        W87225  38.251  39.510   4.174
15697W        W87226   1.422  37.514   3.890
15698W        W87227  30.948  39.055   2.425
15699W        W87228  20.481   5.306   2.164
15700W        W87229  44.160   1.277  11.164
15701W        W87230   3.449  10.092   0.795
15702W        W87231  23.712   8.864  12.047
15703W        W87232  44.030  30.053  14.915
15704W        W87233  16.364  29.851  14.358
15705W        W87234  43.687   0.842   3.796
15706W        W87235  30.364  18.493   3.193
15707W        W87236   8.816  28.382  14.412
15708W        W87237  25.122  14.216   3.454
15709W        W87238  33.488  26.593   2.746
15710W        W87239   9.626   8.274  13.966
15711W        W87240  35.463  18.077  12.424
15712W        W87241  24.315  39.272   3.778
15713W        W87242  16.193  25.630   2.757
15714W        W87243   5.228  13.692   0.404
15715W        W87244  36.929  27.144  13.996
15716W        W87245   1.304  38.813   1.909
15717W        W87246  13.273  37.107   1.174
15718W        W87247   3.755  34.513  11.883
15719W        W87248  44.980  43.650  13.858
15720W        W87249  41.389  24.638   4.418
15721W        W87250  16.602  38.191   2.837
15722W        W87251  27.482   7.523   0.822
15723W        W87252  10.754  35.834   3.666
15724W        W87253  14.676   8.753   2.782
15725W        W87254   4.898  23.283   3.561
15726W        W87255   1.049  29.472   5.157
15727W        W87256   5.008  38.086  10.757
15728W        W87257  36.449  24.960  12.889
15729W        W87258  14.927  10.161   3.627
15730W        W87259   0.816  40.527   2.220
15731W        W87260  17.172  25.137  10.758
15732W        W87261  20.914  11.940   5.071
15733W        W87262  35.546  15.294   0.450
15734W        W87263  18.010  31.290   9.929
15735W        W87264   0.263  18.464  11.519
15736W        W87265  27.133   0.886   4.183
15737W        W87266  16.384  14.193   4.161
15738W        W87267  17.469   9.549   4.673
15739W        W87268  24.032  43.916   3.678
15740W        W87269  21.096   1.345  12.676
15741W        W87270  42.855  42.994  11.859
15742W        W87271   1.208  24.758   0.321
15743W        W87272  18.160   8.530  14.958
15744W        W87273  16.219   4.965  11.757
15745W        W87274  29.662   4.949   2.111
15746W        W87275   0.364  28.016  12.115
15747W        W87276  33.579  15.732   1.219
15748W        W87277  18.746  33.901   4.571
15749W        W87278  36.935  15.592  12.049
15750W        W87279  30.150  22.088   0.792
15751W        W87280   1.975  25.491  12.813
15752W        W87281  30.120  13.843  14.864
15753W        W87282   5.665  16.068   0.312
15754W        W87283  36.614  44.950   2.229
15755W        W87284  31.455  39.541   2.278
15756W        W87285  41.441   4.192  11.980
15757W        W87286  27.230   5.290  13.654
15758W        W87287  14.844  27.091  14.946
15759W        W87288  15.993   0.175  14.687
15760W        W87289  39.616  11.850  14.965
15761W        W87290  39.032  11.578   1.359
15762W        W87291   7.691  34.379   4.301
15763W        W87292   9.847  39.881   2.275
15764W        W87293  23.072  35.682  13.928
15765W        W87294  41.818  17.153  14.065
15766W        W87295  33.037   0.426  10.955
15767W        W87296  23.224  28.863  11.032
15768W        W87297  14.149  38.399  10.722
15769W        W87298  16.393  44.033  12.020
15770W        W87299  24.767  26.631  12.575
15771W        W87300   6.272   0.542   3.210
15772W        W87301  27.086  37.073  13.960
15773W        W87302   5.247  25.055  14.937
15774W        W87303  14.058  28.109  13.030
15775W        W87304  41.818   4.420  14.518
15776W        W87305  13.654   1.380   4.099
15777W        W87306  40.434   7.752   0.095
15778W        W87307  29.565   1.716   1.197
15779W        W87308  40.005  12.710  12.685
15780W        W87309  42.806  42.063  14.002
15781W        W87310  40.960   4.254  14.929
15782W        W87311  30.798  25.610   0.742
15783W        W87312  10.178  27.927  11.124
15784W        W87313   1.943  38.588   0.825
15785W        W87314  35.976  18.004  13.604
15786W        W87315   6.956  15.381   0.390
15787W        W87316  18.779  39.533   4.128
15788W        W87317  44.782  26.235   1.847
15789W        W87318  40.146  28.619  11.111
15790W        W87319   8.767  17.129  14.286
15791W        W87320   0.652  12.170   3.516
15792W        W87321  14.771  35.538   3.739
15793W        W87322   1.439  40.451  13.305
15794W        W87323   4.820  19.042  11.215
15795W        W87324   8.214   6.036  12.034
15796W        W87325   7.359   7.143   4.205
15797W        W87326  14.854   1.373  13.447
15798W        W87327   5.435   5.299   3.253
15799W        W87328  21.211  29.040  11.052
15800W        W87329  34.591  31.398   3.077
15801W        W87330  36.445  15.862   3.599
15802W        W87331   2.695  44.206   0.941
15803W        W87332  13.244  10.657   1.326
15804W        W87333  13.633  35.026   4.555
15805W        W87334   0.784  40.821  14.076
15806W        W87335  26.061  38.126   2.342
15807W        W87336  27.911  34.501   3.709
15808W        W87337  24.909  34.153  11.223
15809W        W87338  11.577  39.871  11.060
15810W        W87339  21.861  14.790   3.920
15811W        W87340  21.132  41.463  10.274
15812W        W87341  29.583   8.052   2.345
15813W        W87342  39.498   1.229   4.444
15814W        W87343  18.298   3.327   2.758
15815W        W87344  10.454  24.680  12.862
15816W        W87345  10.019  34.984  11.601
15817W        W87346  17.289  19.823   4.480
15818W        W87347  40.472  17.756  12.619
15819W        W87348  44.310  15.247   1.957
15820W        W87349   9.912  17.860  14.040
15821W        W87350  39.352  17.503  10.659
15822W        W87351  11.099  38.406  12.862
15823W        W87352  40.592  23.698   3.153
15824W        W87353  18.676  37.142   1.429
15825W        W87354  21.808  19.502   1.297
15826W        W87355  13.370  40.548   4.224
15827W        W87356  13.070  44.368  13.065
15828W        W87357  18.828  31.466   3.131
15829W        W87358   1.512  41.062   2.053
15830W        W87359   4.773  11.399  14.844
15831W        W87360  23.546  42.800   0.554
15832W        W87361  24.379  40.141  12.119
15833W        W87362  22.439  10.187  10.683
15834W        W87363  41.473  44.313   4.580
15835W        W87364  15.649  18.602  14.310
15836W        W87365  36.144  29.063  14.291
15837W        W87366  33.502  27.988   2.395
15838W        W87367  19.249  26.462   3.045
15839W        W87368  33.414   0.828   0.843
15840W        W87369  28.012   7.787  14.498
15841W        W87370   3.405  11.449  11.563
15842W        W87371  12.725   5.911   0.452
15843W        W87372  44.269  23.843   1.199
15844W        W87373   2.721  26.539   3.183
15845W        W87374  31.375  13.365  14.542
15846W        W87375  37.075  34.916  11.992
15847W        W87376  34.844   3.427  14.663
15848W        W87377  40.046   7.139   1.211
15849W        W87378  31.768  14.650   0.788
15850W        W87379  33.387   1.791   4.877
15851W        W87380  18.322  42.994  11.201
15852W        W87381   1.843   7.666   3.185
15853W        W87382  19.301   1.683   0.404
15854W        W87383  11.538   0.562   4.048
15855W        W87384  32.105  29.405  13.917
15856W        W87385  18.519  39.902   2.871
15857W        W87386  23.416  41.496   2.792
15858W        W87387  34.322  23.575  10.703
15859W        W87388  13.594  19.486  11.720
15860W        W87389  17.110  13.757  12.552
15861W        W87390   0.240   8.220   1.382
15862W        W87391  31.953  43.474  14.815
15863W        W87392   8.115   9.898  12.984
15864W        W87393  21.592   3.551   4.914
15865W        W87394  36.593   4.002  14.792
15866W        W87395   9.652  24.688  12.621
15867W        W87396  43.093  33.049   2.609
15868W        W87397  42.676   6.118   3.284
15869W        W87398  42.508   2.690   3.680
15870W        W87399   5.131  17.815   0.186
15871W        W87400   6.769  40.399  13.839
15872W        W87401   8.589  14.706  12.590
15873W        W87402  32.902  23.716  13.958
15874W        W87403  25.438  43.784  13.947
15875W        W87404   8.877  29.181   0.589
15876W        W87405  26.215  44.809  14.309
15877W        W87406   3.510   2.301  12.899
15878W        W87407   8.646  40.834  10.542
15879W        W87408  44.272  13.667  13.143
15880W        W87409  39.780   3.460   3.839
15881W        W87410  41.592  16.357   4.650
15882W        W87411   7.267  11.281  11.804
15883W        W87412  33.245  43.558  12.996
15884W        W87413  25.621   4.623   3.149
15885W        W87414   3.419   7.209  13.977
15886W        W87415  34.468   3.461   3.702
15887W        W87416  34.725  28.674   4.523
15888W        W87417  12.770   1.059  13.118
15889W        W87418  25.990  34.472   3.308
15890W        W87419  12.043  36.444  13.946
15891W        W87420  25.698  15.301   2.637
15892W        W87421   5.936  22.183   4.404
15893W        W87422   1.376  14.449   1.680
15894W        W87423   9.403  37.341   3.151
15895W        W87424   2.765   6.310   4.724
15896W        W87425  44.938   2.880  14.416
15897W        W87426  24.168   9.006  14.377
15898W        W87427  37.538  44.492   3.140
15899W        W87428   4.277  12.385   2.321
15900W        W87429  43.958  37.308   3.708
15901W        W87430  11.452  39.597   0.695
15902W        W87431  22.048   4.932   3.634
15903W        W87432  35.848  18.269   3.657
15904W        W87433  19.497  10.042   0.650
15905W        W87434   9.421   3.816  13.151
15906W        W87435  29.410  29.480   2.855
15907W        W87436   9.053  10.321   9.854
15908W        W87437  21.402  20.610   3.557
15909W        W87438  18.672  10.156   0.441
15910W        W87439  14.127   8.236   3.933
15911W        W87440  18.016  26.098   3.358
15912W        W87441  15.564  31.651  10.512
15913W        W87442  38.385   3.339  10.657
15914W        W87443  35.406   1.975   0.391
15915W        W87444   1.273  23.227  13.832
15916W        W87445  16.725  34.644   3.842
15917W        W87446  29.129  39.881  14.309
15918W        W87447   8.014  15.585  13.039
15919W        W87448   3.390   3.719  14.470
15920W        W87449   2.951  24.589  11.567
15921W        W87450  38.770  18.007   0.283
15922W        W87451  34.723   9.736   2.333
15923W        W87452  26.713   3.807   3.293
15924W        W87453  23.217  26.323   4.939
15925W        W87454  27.015  37.708  11.144
15926W        W87455  24.467  14.145  14.519
15927W        W87456   8.217  44.911  13.468
15928W        W87457  10.149  33.335  14.692
15929W        W87458  22.251   6.948   2.813
15930W        W87459  15.392  10.565  14.371
15931W        W87460  28.672  30.433  13.955
15932W        W87461  21.551   6.746   0.901
15933W        W87462  31.687  10.007  11.917
15934W        W87463  44.347  35.043  13.766
15935W        W87464  30.715  14.291   1.600
15936W        W87465  33.593   1.801   0.758
15937W        W87466  43.980  27.282  10.616
15938W        W87467  23.739   8.107   4.649
15939W        W87468  41.306  11.360   3.642
15940W        W87469  32.872  20.461  11.365
15941W        W87470  17.045  14.908   3.284
15942W        W87471  28.380   4.329  12.788
15943W        W87472   5.105  26.981  12.035
15944W        W87473  34.642  35.205   1.150
15945W        W87474  21.651   0.054  14.081
15946W        W87475  28.440  39.818  13.297
15947W        W87476  13.941  31.426   4.289
15948W        W87477   9.188  41.606  10.351
15949W        W87478  37.491  18.244  13.424
15950W        W87479  30.204  26.267  14.853
15951W        W87480  18.551  13.714  11.518
15952W        W87481  14.135   2.235  12.420
15953W        W87482  38.420  34.405   4.606
15954W        W87483  15.298  40.064  14.729
15955W        W87484  36.120   2.017  13.440
15956W        W87485  27.524  36.850  13.793
15957W        W87486  36.398  16.579   0.851
15958W        W87487  35.742  24.156   3.119
15959W        W87488  11.253  30.364   3.298
15960W        W87489  41.908  44.192   2.825
15961W        W87490  42.967  22.278   0.819
15962W        W87491  37.061   0.297  14.422
15963W        W87492  35.128   0.365   2.153
15964W        W87493  16.301  44.982   1.749
15965W        W87494  41.093  24.993   1.833
15966W        W87495  13.310  28.713   3.136
15967W        W87496  31.411   9.861   2.616
15968W        W87497  34.953  22.484  14.946
15969W        W87498  31.609   5.180   2.315
15970W        W87499  43.405   5.219  14.460
15971W        W87500  11.164  22.704  12.751
15972W        W87501   7.807  41.240   4.183
15973W        W87502  42.693   5.229  11.206
15974W        W87503   0.819  10.068   1.898
15975W        W87504  17.060  36.681   3.559
15976W        W87505  41.842  38.918   3.245
15977W        W87506  34.157   2.198   4.326
15978W        W87507  42.614   2.985  14.341
15979W        W87508  19.646   5.979  13.871
15980W        W87509  19.582  10.316   1.070
15981W        W87510   8.815  16.847  14.916
15982W        W87511  10.227  18.944   4.200
15983W        W87512  17.303  41.578   4.212
15984W        W87513  19.075   9.582   1.431
15985W        W87514  44.041  43.900   2.165
15986W        W87515   6.675  34.454  10.650
15987W        W87516  26.378  22.923   3.387
15988W        W87517  23.442  31.973   4.671
15989W        W87518  34.264  17.790  12.036
15990W        W87519  22.588   9.234  14.756
15991W        W87520  20.946  27.251  13.765
15992W        W87521  10.912   4.144  13.499
15993W        W87522  14.175  32.887   0.368
15994W        W87523  38.046  40.786   0.779
15995W        W87524  30.901  32.905  13.903
15996W        W87525   3.497  26.076   4.101
15997W        W87526  30.653  23.137  12.513
15998W        W87527  23.848  16.435   3.722
15999W        W87528   5.634  21.967  13.325
16000W        W87529  12.812  43.502  13.504
16001W        W87530  40.937  28.740   4.146
16002W        W87531   4.367   9.181   0.000
16003W        W87532  33.279   0.480   1.794
16004W        W87533   4.246  34.880   0.061
16005W        W87534  33.493   3.329  12.635
16006W        W87535  39.581  26.141  12.421
16007W        W87536  38.343  31.158  12.477
16008W        W87537  38.755   0.361  14.810
16009W        W87538   2.013  20.429   2.269
16010W        W87539  35.722   2.655  14.903
16011W        W87540  28.123  27.075  11.642
16012W        W87541  38.655  36.092   4.350
16013W        W87542  16.329   6.713   5.168
16014W        W87543  20.690  44.117  13.881
16015W        W87544   1.957  14.359  10.628
16016W        W87545  25.659  22.966   1.398
16017W        W87546  37.141   7.665  11.679
16018W        W87547  41.021   4.880   0.761
16019W        W87548  38.553  33.584  10.793
16020W        W87549  39.860   9.300   0.253
16021W        W87550  31.971  33.679   1.178
16022W        W87551   2.932   8.311  11.218
16023W        W87552  40.469   6.160  11.256
16024W        W87553  29.150  41.008   4.535
16025W        W87554  24.597  37.660  14.651
16026W        W87555  41.603  40.008   2.267
16027W        W87556  40.326  33.639  11.581
16028W        W87557  36.464  11.345   2.261
16029W        W87558   5.372  21.071   4.182
16030W        W87559  18.086  14.230  13.449
16031W        W87560   3.263  29.600  14.492
16032W        W87561   2.684   5.257  13.329
16033W        W87562  28.412  40.961   1.260
16034W        W87563  28.264  37.074  10.947
16035W        W87564  12.824  14.751  13.857
16036W        W87565   6.898  21.988   3.155
16037W        W87566  14.141  33.240  12.795
16038W        W87567  26.094  24.569   4.487
16039W        W87568  14.326  37.187   9.940
16040W        W87569  37.502   6.276  10.784
16041W        W87570   9.052  43.530   3.219
16042W        W87571  13.798  30.465  14.310
16043W        W87572  20.703  41.219   3.609
16044W        W87573  23.327  37.807  14.769
16045W        W87574   4.371   8.921   1.602
16046W        W87575  16.310  35.100   1.286
16047W        W87576  33.396  14.002  14.059
16048W        W87577  40.731  44.463  13.299
16049W        W87578  19.076  18.174   0.754
16050W        W87579   2.464  37.503   3.683
16051W        W87580  44.492  14.113  13.340
16052W        W87581  20.027  36.453   3.811
16053W        W87582  36.116   0.805  12.407
16054W        W87583  20.832  25.774   4.724
16055W        W87584  44.975  32.411   3.743
16056W        W87585  33.590  21.337   1.916
16057W        W87586   0.456  33.073   3.662
16058W        W87587   1.918  41.938   0.786
16059W        W87588   0.604  43.543   2.822
16060W        W87589   3.824  20.129   1.417
16061W        W87590  38.034  16.711   1.382
16062W        W87591  20.983  36.446   1.652
16063W        W87592  16.656  12.774   4.419
16064W        W87593  44.495   9.579   1.923
16065W        W87594  14.562  16.263  12.357
16066W        W87595  23.547  17.202   3.206
16067W        W87596  16.738  41.843   3.672
16068W        W87597   1.516  34.663  11.002
16069W        W87598  11.783  44.840   3.666
16070W        W87599  10.207  22.049  13.957
16071W        W87600  30.055  42.461   1.239
16072W        W87601  29.832  13.297  14.859
16073W        W87602   5.470   1.756  14.291
16074W        W87603  21.347   5.116  12.512
16075W        W87604  37.807  30.456  10.437
16076W        W87605  28.993  10.104  11.137
16077W        W87606  24.764  26.933   2.406
16078W        W87607  42.041  16.236   3.388
16079W        W87608  33.270  28.196  11.526
16080W        W87609  14.572  26.405   0.213
16081W        W87610  19.627   2.883   1.297
16082W        W87611  13.584  37.030  14.284
16083W        W87612  31.453  13.582  10.893
16084W        W87613   1.878  15.108  11.128
16085W        W87614   6.502   4.380   4.098
16086W        W87615  27.231  41.515  14.256
16087W        W87616  33.203  41.714   0.680
16088W        W87617  35.002  25.274   0.039
16089W        W87618  33.089  27.908  14.931
16090W        W87619  29.680  43.819   4.183
16091W        W87620   5.965  23.642   3.373
16092W        W87621  37.761  35.483   4.663
16093W        W87622  23.607  34.153   1.731
16094W        W87623  39.353   4.628   1.681
16095W        W87624   7.805  28.895  12.011
16096W        W87625  39.743  44.774   1.465
16097W        W87626   0.393  19.623   1.235
16098W        W87627   1.868   8.833   5.036
16099W        W87628   7.062   5.182   2.727
16100W        W87629  29.910   9.285   3.168
16101W        W87630  37.577  20.516  12.399
16102W        W87631  10.791  27.955  12.732
16103W        W87632   1.010  24.157  14.106
16104W        W87633  16.228  15.839  13.011
16105W        W87634   5.181  10.772   1.353
16106W        W87635   2.025  34.502  12.660
16107W        W87636  10.559  17.831   4.715
16108W        W87637  27.374  31.729  10.926
16109W        W87638  27.416  14.232  12.981
16110W        W87639  15.199  21.610  12.410
16111W        W87640   9.788  26.235  12.581
16112W        W87641  38.638  27.081  14.705
16113W        W87642  29.445  33.890  14.475
16114W        W87643   7.116  15.340  13.905
16115W        W87644  40.375  44.708   3.859
16116W        W87645   1.971  33.869  12.531
16117W        W87646  39.822  18.419  13.355
16118W        W87647  24.501  44.390   0.634
16119W        W87648  37.098  13.914   4.510
16120W        W87649  23.317  29.756  10.729
16121W        W87650  39.059  26.795   3.457
16122W        W87651   4.313  42.157  11.579
16123W        W87652  11.250  22.136  14.004
16124W        W87653  44.371  38.529  14.324
16125W        W87654  22.542  20.191   3.583
16126W        W87655  13.412  42.670   5.235
16127W        W87656   9.839   3.130   0.724
16128W        W87657  12.389   0.933   3.618
16129W        W87658  31.057  29.107  12.970
16130W        W87659  16.472  10.886   5.010
16131W        W87660  40.652  10.882   2.326
16132W        W87661  28.932   5.767   4.031
16133W        W87662  10.575  10.411   1.842
16134W        W87663  29.616  21.752   4.309
16135W        W87664  15.196  20.280   3.667
16136W        W87665  31.503  38.094  13.298
16137W        W87666  32.571  32.776  12.020
16138W        W87667  15.687  36.418   4.503
16139W        W87668  30.313  35.481   4.102
16140W        W87669  18.585   1.731  14.711
16141W        W87670  33.318   2.273  11.957
16142W        W87671  10.451  44.971  14.966
16143W        W87672  11.727   1.943   1.220
16144W        W87673  35.025  11.590   4.945
16145W        W87674  40.293  17.754  14.523
16146W        W87675  15.157  36.872  11.701
16147W        W87676   2.327  13.760   5.070
16148W        W87677  25.842  20.609   2.934
16149W        W87678  34.536   2.450  13.970
16150W        W87679  16.843  23.652  11.557
16151W        W87680  13.843   4.328  12.903
16152W        W87681   9.220  27.577   1.655
16153W        W87682  40.262  42.104   3.181
16154W        W87683  32.664  35.439   4.703
16155W        W87684   4.990  26.299   1.891
16156W        W87685  13.585   8.487   0.805
16157W        W87686  30.968   9.826   2.887
16158W        W87687   2.937  26.690   5.234
16159W        W87688  11.859   6.768   4.311
16160W        W87689  38.520  38.480  10.832
16161W        W87690  16.057  38.783   0.933
16162W        W87691  13.389  13.044  11.656
16163W        W87692  38.987  44.926  12.124
16164W        W87693   3.704  17.795  12.405
16165W        W87694  28.224  15.664  13.856
16166W        W87695  28.225   2.137  11.366
16167W        W87696  41.833  41.015   4.774
16168W        W87697   8.565  19.740   5.051
16169W        W87698   4.917  32.447   3.346
16170W        W87699  19.674  20.226   1.423
16171W        W87700  14.227  17.605  13.788
16172W        W87701  25.073  15.091  10.638
16173W        W87702  34.383  16.741   0.871
16174W        W87703  38.116  28.843  13.835
16175W        W87704   5.117   6.270  12.066
16176W        W87705  11.223  14.087  12.867
16177W        W87706  41.466  21.643   4.468
16178W        W87707  39.435  23.653   4.764
16179W        W87708   6.549  23.444  11.618
16180W        W87709  20.697  13.650  13.976
16181W        W87710  30.805   6.942   2.273
16182W        W87711  17.178  41.502   2.864
16183W        W87712  36.099  24.385  13.733
16184W        W87713  30.142  12.613   2.250
16185W        W87714  18.841  23.681   4.118
16186W        W87715  36.926  30.448  12.447
16187W        W87716  13.707  23.611   1.075
16188W        W87717  33.328  27.354   3.150
16189W        W87718   6.907  20.749   3.167
16190W        W87719  25.410   9.451   4.205
16191W        W87720  12.721  20.847   4.309
16192W        W87721   7.942  38.204   3.279
16193W        W87722  19.343  16.277  10.676
16194W        W87723  35.330   7.537   1.385
16195W        W87724  18.692  42.594  14.883
16196W        W87725   5.654   2.543   0.447
16197W        W87726  38.949  33.079   0.227
16198W        W87727  14.010  29.572  14.305
16199W        W87728  16.563   7.293   2.725
16200W        W87729  44.951  25.526  10.800
16201W        W87730  38.204   6.310   4.247
16202W        W87731  25.365   3.972  14.082
16203W        W87732   5.671  26.928   2.639
16204W        W87733  20.060   4.271  13.511
16205W        W87734  16.755  41.410  13.072
16206W        W87735  32.667  25.469  13.920
16207W        W87736  18.136  22.796   0.791
16208W        W87737   9.250  16.324  10.658
16209W        W87738  15.476  14.148  14.404
16210W        W87739   5.132  11.857  12.034
16211W        W87740  20.035   3.902  11.888
16212W        W87741  40.340  23.102   0.714
16213W        W87742  16.008  28.950   1.333
16214W        W87743  27.018  10.949  12.077
16215W        W87744  33.003  39.003   0.516
16216W        W87745  26.912  31.844   3.620
16217W        W87746  16.955  30.899  12.189
16218W        W87747   1.183  12.819   0.365
16219W        W87748  20.081  39.839   0.398
16220W        W87749  42.611   3.205   3.650
16221W        W87750  41.995   3.825  10.893
16222W        W87751  31.279  43.511   2.923
16223W        W87752  44.962  20.603  12.069
16224W        W87753  35.797   6.377  12.909
16225W        W87754   5.582  26.621  14.738
16226W        W87755   0.437  34.421   2.610
16227W        W87756  12.527  34.618  11.101
16228W        W87757  23.118  26.324  10.297
16229W        W87758  10.814  16.126  14.562
16230W        W87759  15.389  35.816  14.892
16231W        W87760  33.516   4.242   4.839
16232W        W87761  28.900  37.531  14.311
16233W        W87762  28.560  14.138   0.482
16234W        W87763  35.161  40.550   4.833
16235W        W87764   4.657  29.854  11.476
16236W        W87765   7.252  17.505  12.080
16237W        W87766  14.563  11.561   1.263
16238W        W87767  23.960  29.009   4.091
16239W        W87768   3.052  16.719   2.797
16240W        W87769   3.751  20.113  14.570
16241W        W87770  36.013  35.018   1.228
16242W        W87771  41.069  42.995   2.654
16243W        W87772  43.866  17.162   2.637
16244W        W87773  20.081  14.464   5.034
16245W        W87774  39.083  34.378  14.998
16246W        W87775  38.392  20.033  12.615
16247W        W87776  43.167  40.582  13.373
16248W        W87777  42.912   7.806   0.345
16249W        W87778  26.971  13.797  11.533
16250W        W87779  24.945  25.138   2.828
16251W        W87780  28.169  21.214   4.739
16252W        W87781  18.940   9.735  11.464
16253W        W87782  27.631  11.289  14.989
16254W        W87783  30.327  18.845  13.409
16255W        W87784   1.559   7.162   1.928
16256W        W87785  10.094  18.055  11.879
16257W        W87786  42.863  44.861  10.807
16258W        W87787   4.250  17.299   1.928
16259W        W87788   6.073  25.154   0.433
16260W        W87789   5.053  22.583   4.729
16261W        W87790  18.647  28.021   9.774
16262W        W87791   2.444  35.358  13.443
16263W        W87792  41.448  17.495  13.482
16264W        W87793  27.383  39.417  13.957
16265W        W87794  25.145  22.133  11.163
16266W        W87795   3.797  27.392   4.216
16267W        W87796  21.415   7.507  12.615
16268W        W87797   1.856   3.361   0.296
16269W        W87798  11.940   6.690   2.889
16270W        W87799  38.953  39.859   0.355
16271W        W87800  28.461   6.580   2.420
16272W        W87801   3.023  10.207  12.535
16273W        W87802  40.235  23.125   1.737
16274W        W87803  22.976  30.593   0.388
16275W        W87804  19.098  39.283   3.642
16276W        W87805  39.811  18.471  10.768
16277W        W87806  42.727  24.545   2.337
16278W        W87807   2.321  43.747  11.135
16279W        W87808  19.792  35.326   3.861
16280W        W87809  23.446  17.811   1.642
16281W        W87810  44.455  22.232  10.937
16282W        W87811  10.878   6.061  12.285
16283W        W87812  17.195   3.931  11.337
16284W        W87813  26.982  36.128   0.487
16285W        W87814  12.311  36.399   2.114
16286W        W87815   6.696  38.303  13.034
16287W        W87816  43.258  34.324   2.004
16288W        W87817   3.776  43.876  14.862
16289W        W87818  29.809  31.447   0.802
16290W        W87819   4.173  19.868  14.777
16291W        W87820   4.285  31.893  12.413
16292W        W87821   7.422  21.533  11.128
16293W        W87822  36.140  42.402  13.851
16294W        W87823  24.224   2.941   2.846
16295W        W87824  34.351  27.767   2.600
16296W        W87825  11.167  11.733  12.389
16297W        W87826  19.371   9.821   1.791
16298W        W87827  34.845  32.712   4.085
16299W        W87828  26.822   0.419   0.370
16300W        W87829  28.785  10.870  12.106
16301W        W87830   4.266  34.395  14.869
16302W        W87831  24.650  29.572  11.580
16303W        W87832  24.538  15.613  11.194
16304W        W87833  39.607  29.107   1.319
16305W        W87834  19.730   9.608  12.017
16306W        W87835  38.380   2.302   1.003
16307W        W87836  22.064  33.009   1.822
16308W        W87837   1.194  31.837  10.417
16309W        W87838  34.401  35.774  14.153
16310W        W87839  19.704  34.489  10.968
16311W        W87840  20.391   5.687  13.407
16312W        W87841  23.778   5.312  13.948
16313W        W87842  21.578   0.569   1.698
16314W        W87843  18.050  27.725   0.478
16315W        W87844  12.364  37.596   2.584
16316W        W87845  10.225  40.610  14.015
16317W        W87846  39.489  10.160   2.291
16318W        W87847  44.497  28.801   2.326
16319W        W87848  24.510  24.964   1.407
16320W        W87849  25.605  23.703   4.422
16321W        W87850  39.783  20.421  13.923
16322W        W87851  20.789  13.535  12.633
16323W        W87852  28.292  41.597   0.448
16324W        W87853  22.549  14.715  12.308
16325W        W87854  37.612  41.563  10.924
16326W        W87855  30.067  31.626   4.175
16327W        W87856  37.952  15.094  13.684
16328W        W87857  43.491  16.185  12.600
16329W        W87858   7.241  20.375   0.934
16330W        W87859  27.233  39.113  14.511
16331W        W87860  33.638   0.899  11.661
16332W        W87861   8.287  10.672   0.761
16333W        W87862  28.554  16.862   3.524
16334W        W87863  17.614  29.729  14.040
16335W        W87864  26.011  22.104   0.862
16336W        W87865   1.572   1.199   3.346
16337W        W87866  38.603   9.628  12.855
16338W        W87867  19.732   4.635  10.289
16339W        W87868  19.122   3.713   1.214
16340W        W87869  19.190  41.826  11.346
16341W        W87870  37.043  27.473   4.466
16342W        W87871  38.857  10.313   4.572
16343W        W87872  14.740  11.679  14.072
16344W        W87873  33.701  35.147   1.382
16345W        W87874   5.883  11.558   2.293
16346W        W87875  13.123  11.667   1.384
16347W        W87876  42.581  14.761   2.479
16348W        W87877  29.509   9.365   2.314
16349W        W87878   7.759   2.756  14.482
16350W        W87879  32.550  32.690   0.257
16351W        W87880  20.956  31.286   1.036
16352W        W87881  13.697  22.160  14.587
16353W        W87882  10.799   4.312   0.468
16354W        W87883  26.967  30.173  12.076
16355W        W87884   2.910  29.588   2.933
16356W        W87885  29.863   2.444   4.057
16357W        W87886  15.567   6.408  11.983
16358W        W87887  35.370  20.022  14.511
16359W        W87888   6.348  18.479   0.374
16360W        W87889  32.881   6.869   3.123
16361W        W87890  16.340  31.926  12.563
16362W        W87891   5.283  44.353   4.600
16363W        W87892  20.295   6.423   1.818
16364W        W87893   1.981  27.175   0.744
16365W        W87894  14.798  25.620   5.056
16366W        W87895   7.021  41.453  13.899
16367W        W87896  43.288   2.387   4.592
16368W        W87897  38.944   4.712  13.237
16369W        W87898  32.454  44.091   2.295
16370W        W87899   8.263   3.183  11.124
16371W        W87900  41.977  42.804  11.919
16372W        W87901  41.954  12.809  14.224
16373W        W87902  11.311   9.851   4.057
16374W        W87903  32.696  36.402  12.544
16375W        W87904  18.772  41.441   3.105
16376W        W87905   1.378  14.382  11.122
16377W        W87906  32.961  38.732  12.868
16378W        W87907   7.208   8.173   4.119
16379W        W87908  18.367  12.542   4.054
16380W        W87909  14.939  32.569   4.345
16381W        W87910   1.507  43.042  14.313
16382W        W87911  44.171  37.899  14.785
16383W        W87912  39.408  35.672  14.858
16384W        W87913   1.813  27.474  13.566
16385W        W87914  40.398  13.292   1.955
16386W        W87915  41.336  36.349  10.637
16387W        W87916  11.336  25.474   3.203
16388W        W87917  33.271  19.821  10.215
16389W        W87918  22.765  16.776   1.041
16390W        W87919  23.185  31.078  14.729
16391W        W87920  33.233  28.425  13.660
16392W        W87921   8.215  43.608   4.071
16393W        W87922  23.593  31.966  11.982
16394W        W87923  22.668  42.280  12.608
16395W        W87924  15.330  32.024   2.836
16396W        W87925  41.944   0.888  10.754
16397W        W87926   9.083  23.081  14.967
16398W        W87927  36.506  36.110   2.816
16399W        W87928  29.197  39.126   0.787
16400W        W87929  26.900  21.254  14.361
16401W        W87930  15.191  43.100   1.455
16402W        W87931  38.899  18.281  10.781
16403W        W87932  39.974   8.267   3.404
16404W        W87933  25.700  28.455  13.856
16405W        W87934  23.513  41.746  14.043
16406W        W87935  21.213  15.595  13.123
16407W        W87936  11.691   5.515   0.560
16408W        W87937   6.347  27.665  11.637
16409W        W87938  42.976  44.994   2.383
16410W        W87939  18.163  37.061  14.900
16411W        W87940  36.802   6.222   4.648
16412W        W87941  10.471  28.350   4.491
16413W        W87942   3.745  43.504   4.658
16414W        W87943  41.792  27.506  11.216
16415W        W87944  11.622  35.526   2.732
16416W        W87945  10.192  23.655   0.474
16417W        W87946  33.064   3.287  13.388
16418W        W87947   8.641  19.121  10.726
16419W        W87948  38.489  16.851   1.205
16420W        W87949   5.309  38.993  13.610
16421W        W87950  42.023  31.574  13.954
16422W        W87951  36.117  14.315   1.862
16423W        W87952  12.952  44.970   0.765
16424W        W87953   4.405  35.646  11.627
16425W        W87954  36.448  36.400   4.311
16426W        W87955  11.143   5.716  12.034
16427W        W87956   1.402   2.369  13.461
16428W        W87957  19.475  21.091  13.319
16429W        W87958  43.364  42.894   0.807
16430W        W87959   1.362  15.145  14.929
16431W        W87960   7.069   4.437  10.711
16432W        W87961  39.936  19.100  13.943
16433W        W87962  29.779   9.792   2.486
16434W        W87963   7.895  44.030   0.851
16435W        W87964  14.340  29.695   1.827
16436W        W87965   3.728  13.869   1.735
16437W        W87966  44.090  30.169   2.694
16438W        W87967  42.751   0.276  13.822
16439W        W87968   8.442  15.541   2.289
16440W        W87969  19.637  28.900   4.079
16441W        W87970  20.781   9.033  10.737
16442W        W87971  17.355  31.862  14.914
16443W        W87972  43.974   2.523  13.770
16444W        W87973  23.056   5.745  14.752
16445W        W87974  30.407  40.847  12.030
16446W        W87975   4.457  33.046   0.823
16447W        W87976   7.438   8.482  13.589
16448W        W87977  36.879  16.792   2.666
16449W        W87978  37.697  31.107   4.992
16450W        W87979  36.492  41.610   0.323
16451W        W87980  28.849  14.277  11.448
16452W        W87981  23.588  42.579  12.967
16453W        W87982  34.799  27.986   2.703
16454W        W87983  16.782  35.142  13.404
16455W        W87984   6.168  20.257  14.013
16456W        W87985   3.350   0.404  10.717
16457W        W87986  32.015  15.214   1.800
16458W        W87987  38.030  11.397  11.525
16459W        W87988  33.763  31.681   2.861
16460W        W87989  36.542  36.368  10.429
16461W        W87990  16.321  25.727  10.812
16462W        W87991  22.636  13.181   4.438
16463W        W87992  25.746  34.239  10.649
16464W        W87993  27.102  15.890  10.242
16465W        W87994   9.596   3.251   2.893
16466W        W87995  15.778   5.807   1.918
16467W        W87996  23.069  23.205   3.822
16468W        W87997   1.168  30.553  13.431
16469W        W87998  39.434  16.097   1.225
16470W        W87999  18.057  40.921   1.154
16471W        W88000   5.666  39.761   3.384
16472W        W88001  36.365  16.538   1.667
16473W        W88002   1.202  29.652   2.333
16474W        W88003  29.670  31.470   3.640
16475W        W88004   2.400   5.124  11.586
16476W        W88005  22.140   6.979  13.063
16477W        W88006  24.263  39.987  14.079
16478W        W88007  28.899  21.071  14.015
16479W        W88008  30.520   5.668  13.389
16480W        W88009  18.544  42.248   0.255
16481W        W88010  39.653  28.473  13.903
16482W        W88011   5.356  16.617  11.537
16483W        W88012  34.541  41.619   4.233
16484W        W88013  17.094  29.244   0.441
16485W        W88014  16.566  12.922  10.417
16486W        W88015  32.570  11.403   1.349
16487W        W88016   9.789  28.209  12.063
16488W        W88017  39.000  22.531   4.462
16489W        W88018  37.553  28.596   3.176
16490W        W88019   1.941   5.650   4.526
16491W        W88020   1.187  39.929  14.402
16492W        W88021   1.214  24.561  11.561
16493W        W88022  30.965  35.763   3.259
16494W        W88023  11.666  30.774   0.325
16495W        W88024  12.416   6.401   1.756
16496W        W88025   5.214  42.927  11.940
16497W        W88026  36.991  36.566  12.123
16498W        W88027  10.480  30.444   4.058
16499W        W88028  18.201   9.849   2.278
16500W        W88029  21.979  26.136   0.733
16501W        W88030   4.457  37.370  14.269
16502W        W88031  38.294  42.534  12.392
16503W        W88032  16.966  28.058   4.179
16504W        W88033  15.306  25.014  11.104
16505W        W88034  10.948   0.859  10.977
16506W        W88035   8.589  36.918   2.304
16507W        W88036   8.265  25.896  12.589
16508W        W88037  24.146   7.162   3.965
16509W        W88038  26.391  42.298  14.223
16510W        W88039  17.710  32.149  13.136
16511W        W88040  31.933  17.666   2.871
16512W        W88041  37.598   5.006  11.977
16513W        W88042  23.425   5.854   2.625
16514W        W88043  42.515   4.919  10.596
16515W        W88044  26.697  20.924  13.127
16516W        W88045  31.579  10.639   1.798
16517W        W88046  37.835  22.640  13.873
16518W        W88047  29.657  41.756   0.089
16519W        W88048  27.230  17.709  12.507
16520W        W88049  27.127  11.427   1.289
16521W        W88050  21.837  11.595   2.690
16522W        W88051   8.542  27.935  13.346
16523W        W88052   4.677  41.357  14.500
16524W        W88053  43.734  35.808  11.977
16525W        W88054  30.430  28.567  13.467
16526W        W88055  22.038   3.879   1.654
16527W        W88056  39.541   6.634  11.199
16528W        W88057  10.147  29.089  14.998
16529W        W88058   4.160   5.855  11.565
16530W        W88059  35.325   1.977  13.844
16531W        W88060  43.349   6.429  12.017
16532W        W88061  24.813   7.723  14.535
16533W        W88062  38.840   8.304  13.538
16534W        W88063  36.175  38.795  13.879
16535W        W88064   6.292  15.271   1.196
16536W        W88065  31.878  35.953   3.728
16537W        W88066  18.178  33.611  11.575
16538W        W88067  21.535  20.680  11.138
16539W        W88068  12.200  36.083   2.911
16540W        W88069   4.914  34.160   1.275
16541W        W88070  42.442   2.249   2.274
16542W        W88071   4.562  17.260  10.247
16543W        W88072  41.314  40.990  14.877
16544W        W88073  27.658  22.707   1.217
16545W        W88074  12.819  33.615   2.110
16546W        W88075  17.318   7.146   4.292
16547W        W88076  19.979  25.180  14.895
16548W        W88077  42.519  34.792  10.955
16549W        W88078  26.271  13.238  13.886
16550W        W88079  31.488  44.958   4.784
16551W        W88080   8.902   1.992  11.581
16552W        W88081  12.041   8.840  13.773
16553W        W88082   2.907   3.750  11.698
16554W        W88083   5.712  41.328   2.415
16555W        W88084  36.965   7.128  13.015
16556W        W88085  27.233  13.623   1.566
16557W        W88086  41.860  41.409   4.433
16558W        W88087  43.837  37.606   1.671
16559W        W88088   8.888  42.547  13.262
16560W        W88089  30.058  42.358  12.770
16561W        W88090   6.291  24.956  11.605
16562W        W88091  30.568  16.699  14.347
16563W        W88092  37.342  40.354  14.822
16564W        W88093  36.004  21.775  14.281
16565W        W88094  22.964  23.221   2.775
16566W        W88095   4.127  11.861  14.485
16567W        W88096  39.980  10.627   3.404
16568W        W88097  35.599   5.786  14.716
16569W        W88098  39.997  17.523   0.022
16570W        W88099  40.857  44.763  11.934
16571W        W88100  22.535  15.309   2.280
16572W        W88101  32.890  19.379   4.151
16573W        W88102  27.050  19.455  12.994
16574W        W88103  31.635  23.947   3.139
16575W        W88104  15.154  31.320  14.286
16576W        W88105   0.248   5.735   0.465
16577W        W88106  38.882  33.724   3.303
16578W        W88107  35.970  26.145  13.442
16579W        W88108  14.227  27.069  13.013
16580W        W88109   6.332  21.297  13.886
16581W        W88110  21.236   7.245  13.040
16582W        W88111  27.638  18.446   2.003
16583W        W88112   7.377  34.972   2.225
16584W        W88113   9.754  13.705   3.302
16585W        W88114  29.051  15.388  11.835
16586W        W88115  15.516  24.914   1.262
16587W        W88116   7.013  43.887   0.213
16588W        W88117  22.937  23.035   2.294
16589W        W88118  22.830  19.630   4.432
16590W        W88119  20.479  38.111  12.771
16591W        W88120  42.499  39.346   3.848
16592W        W88121  36.939   8.465   1.997
16593W        W88122  34.388  27.551   4.085
16594W        W88123  44.857  28.033   2.662
16595W        W88124  31.976  18.679  11.205
16596W        W88125  19.227  41.058   4.822
16597W        W88126  12.744  35.363  12.655
16598W        W88127  29.707  23.107   4.575
16599W        W88128  15.562   4.493  10.134
16600W        W88129  34.297  22.759   1.802
16601W        W88130   3.752  33.397   0.998
16602W        W88131  30.439  22.111   0.307
16603W        W88132  13.751  44.099   2.298
16604W        W88133  37.401  31.224   1.198
16605W        W88134  10.846  13.656  10.740
16606W        W88135  10.564   9.232   4.507
16607W        W88136  10.186  19.805  10.356
16608W        W88137  39.785  37.833   0.025
16609W        W88138  11.617  21.715   4.925
16610W        W88139   8.178   0.454  11.252
16611W        W88140  19.770  37.612   2.763
16612W        W88141  22.428  10.937   4.108
16613W        W88142  16.693  10.156   0.834
16614W        W88143  32.047  13.675   4.687
16615W        W88144  42.121  40.948   4.340
16616W        W88145  31.439  20.806   2.198
16617W        W88146  40.553   3.434  12.478
16618W        W88147   8.410  14.179  11.531
16619W        W88148  42.314  13.084  11.454
16620W        W88149  22.510  18.558  11.529
16621W        W88150  23.981  31.533   0.460
16622W        W88151  40.561  32.663   1.452
16623W        W88152  10.725  20.300  12.557
16624W        W88153   6.959  19.087  13.552
16625W        W88154  34.022   8.680  14.316
16626W        W88155  43.135  19.536  13.787
16627W        W88156  24.995  29.904  14.763
16628W        W88157  44.741  12.877  13.221
16629W        W88158  44.788  18.315   4.543
16630W        W88159  33.321  11.089  12.630
16631W        W88160   6.993  28.508   3.737
16632W        W88161  37.481   0.703  13.230
16633W        W88162  18.192  15.355  11.389
16634W        W88163  15.344   4.712  12.765
16635W        W88164  38.127  11.888  12.823
16636W        W88165  32.890  31.712   3.211
16637W        W88166  16.258  12.630  12.442
16638W        W88167  28.254  21.523   4.298
16639W        W88168   5.407  14.123  13.034
16640W        W88169  10.881  20.639  13.791
16641W        W88170   4.646  22.948   3.214
16642W        W88171  36.577   0.831   0.818
16643W        W88172  36.800  24.510   0.871
16644W        W88173   5.980  13.683   1.468
16645W        W88174  38.820  27.953   4.053
16646W        W88175   4.375  38.470   4.178
16647W        W88176  37.001   4.293   0.475
16648W        W88177  25.386  21.204   5.253
16649W        W88178  15.856  12.161  11.138
16650W        W88179  10.059  19.989  10.974
16651W        W88180  10.746  38.503  14.576
16652W        W88181   2.317  21.712   1.351
16653W        W88182  20.063  30.015  13.821
16654W        W88183  42.310  19.220  13.845
16655W        W88184  39.969  39.001  12.510
16656W        W88185  43.336  17.249  12.478
16657W        W88186  11.083  27.905  11.264
16658W        W88187  35.570  41.846  12.503
16659W        W88188  36.073  43.393   2.375
16660W        W88189  14.375  11.919  13.320
16661W        W88190  13.620  28.512  11.082
16662W        W88191   5.562   5.625   1.316
16663W        W88192  12.278   5.835  14.855
16664W        W88193  17.544   8.718   2.645
16665W        W88194   6.361  17.893   1.248
16666W        W88195   1.360   2.884  13.201
16667W        W88196  23.050  30.728   4.757
16668W        W88197  39.973   0.313  14.240
16669W        W88198   4.383   5.708   0.778
16670W        W88199  19.781  39.339   1.977
16671W        W88200  31.129  19.996   1.735
16672W        W88201  21.762  10.470   1.893
16673W        W88202  43.477   4.039  12.431
16674W        W88203  36.785  39.862  12.437
16675W        W88204   7.349  29.063  13.041
16676W        W88205   0.398  24.459  10.707
16677W        W88206  29.253  38.056  12.786
16678W        W88207  18.647  28.761   2.360
16679W        W88208  35.999  34.660  11.619
16680W        W88209  25.562  29.631  13.591
16681W        W88210  31.268  19.704   2.732
16682W        W88211  20.740  26.311  13.362
16683W        W88212  39.612  11.113   1.145
16684W        W88213  26.403   5.201  11.495
16685W        W88214  15.208  14.722   2.087
16686W        W88215  28.236  39.495   2.820
16687W        W88216  35.782  26.639  11.090
16688W        W88217  12.293   1.856   0.756
16689W        W88218   5.441  15.202   0.376
16690W        W88219  17.550  18.566   4.177
16691W        W88220  32.209  20.610   1.803
16692W        W88221   7.679  15.175  13.047
16693W        W88222  31.582  11.671  14.295
16694W        W88223  39.559   0.919  10.811
16695W        W88224  19.306  35.991  11.170
16696W        W88225  33.660   0.689  10.683
16697W        W88226  17.195  29.040  14.985
16698W        W88227  28.239   6.815  14.899
16699W        W88228  23.994  25.044  12.072
16700W        W88229  15.908  37.080  13.568
16701W        W88230  12.034  18.818   2.740
16702W        W88231   3.561   8.283  12.493
16703W        W88232  12.297   5.413  10.430
16704W        W88233  25.492  23.151  11.956
16705W        W88234   0.047  10.855   1.125
16706W        W88235   0.040  30.177   1.851
16707W        W88236  32.516  19.742   4.508
16708W        W88237  31.334  40.484   4.495
16709W        W88238  39.051  14.754  10.507
16710W        W88239  23.734   3.230   4.235
16711W        W88240  29.867  37.517  13.450
16712W        W88241  29.382  29.542  12.530
16713W        W88242  24.256  29.210  14.670
16714W        W88243  11.295  38.621  14.979
16715W        W88244  12.226  28.696   3.631
16716W        W88245  34.487  18.584  13.910
16717W        W88246  24.105   3.011   1.498
16718W        W88247   3.948  44.355   1.935
16719W        W88248  20.996  35.534  10.674
16720W        W88249  38.327  44.344   0.674
16721W        W88250   9.380  18.925  12.648
16722W        W88251  32.479   7.572  13.886
16723W        W88252  35.743  33.576  13.769
16724W        W88253  20.634   3.188   4.789
16725W        W88254   4.302  27.664  11.866
16726W        W88255  31.105  26.507   4.290
16727W        W88256  31.594  26.842  10.344
16728W        W88257  20.427  41.311   1.785
16729W        W88258  19.241  42.845   0.313
16730W        W88259  19.611  44.664  11.494
16731W        W88260  11.940   3.629  10.750
16732W        W88261   9.611  39.149  11.133
16733W        W88262   7.227   7.073   0.393
16734W        W88263   4.928   5.839  12.905
16735W        W88264  39.203  16.900  12.193
16736W        W88265  15.094   4.852  13.767
16737W        W88266  16.297  15.804  11.701
16738W        W88267  32.627  24.262   4.720
16739W        W88268  11.276  42.576   3.474
16740W        W88269  14.740  22.004   3.817
16741W        W88270  37.939  12.041  14.022
16742W        W88271  15.680   0.409  10.161
16743W        W88272  19.789   8.021   5.012
16744W        W88273  33.417  25.627  12.143
16745W        W88274  27.624  38.050  11.567
16746W        W88275  23.631  17.721   3.199
16747W        W88276  14.742  24.974   0.883
16748W        W88277  38.826  24.676  10.753
16749W        W88278   9.573  44.816   2.677
16750W        W88279  27.589  17.336  12.556
16751W        W88280  14.501  11.282   2.844
16752W        W88281   4.861  11.120   4.809
16753W        W88282  33.913  23.551  14.082
16754W        W88283   5.908  41.504   0.017
16755W        W88284  14.820  27.075  14.414
16756W        W88285   4.945  16.182   1.562
16757W        W88286  14.070  13.354  12.923
16758W        W88287   9.516  33.326   0.561
16759W        W88288  41.866  35.494   1.876
16760W        W88289   9.750  33.842  12.084
16761W        W88290  43.481  23.628  14.537
16762W        W88291   7.593  21.612   1.226
16763W        W88292  28.253  42.580   1.577
16764W        W88293  25.656   1.853  14.474
16765W        W88294  34.167  18.032   1.816
16766W        W88295  38.433  42.299   1.378
16767W        W88296  15.181  10.121   4.100
16768W        W88297  17.493  13.071  14.454
16769W        W88298  25.095   1.284   2.054
16770W        W88299   4.806  42.796  11.272
16771W        W88300  17.734  28.489   2.175
16772W        W88301  16.253   3.464   2.683
16773W        W88302  35.355  31.292  13.988
16774W        W88303  16.845  27.769   0.869
16775W        W88304  22.431  36.045   2.383
16776W        W88305  32.173   5.721   4.205
16777W        W88306   0.959   6.679  14.280
16778W        W88307   7.424   0.229   2.140
16779W        W88308  33.368   6.329  11.133
16780W        W88309  16.566  15.355   2.610
16781W        W88310   0.131   6.213   3.274
16782W        W88311  36.928  37.008  14.312
16783W        W88312  14.896  19.200  13.408
16784W        W88313   6.246  16.439   3.719
16785W        W88314  35.640  14.029  11.493
16786W        W88315  34.074  24.848   3.180
16787W        W88316  12.136  13.072   3.617
16788W        W88317  44.967  43.116  14.770
16789W        W88318   0.727  24.666   1.930
16790W        W88319  44.747  16.639  11.138
16791W        W88320  38.068  13.372  14.074
16792W        W88321  40.388  43.432  12.550
16793W        W88322  40.835  31.658  13.794
16794W        W88323  27.979  36.230   1.274
16795W        W88324   6.347  10.351   3.070
16796W        W88325   5.780  29.010  13.811
16797W        W88326  32.193  13.574   5.178
16798W        W88327   0.242  41.440   0.051
16799W        W88328  44.432  38.449   2.891
16800W        W88329  21.304   6.685   3.831
16801W        W88330   1.934  29.960   1.288
16802W        W88331  40.085  35.776   3.746
16803W        W88332  42.394   9.366   4.301
16804W        W88333  25.734  32.215  14.120
16805W        W88334  17.040  31.501   1.692
16806W        W88335  36.635  33.536   4.276
16807W        W88336  39.502  20.605   1.192
16808W        W88337  10.923  20.309   0.491
16809W        W88338  13.000  11.571   4.092
16810W        W88339  39.612   0.155  14.771
16811W        W88340  23.536  36.907  13.094
16812W        W88341  41.361  20.344   3.796
16813W        W88342  15.401   2.892  12.345
16814W        W88343  10.538  28.784  14.320
16815W        W88344  28.348  16.096   4.168
16816W        W88345  40.163  30.668  11.553
16817W        W88346  37.615  22.683   4.629
16818W        W88347  10.386  15.361  11.369
16819W        W88348  23.007  35.351  12.048
16820W        W88349   9.939  30.993   0.966
16821W        W88350  27.894   1.385  12.017
16822W        W88351  14.141   3.264  12.539
16823W        W88352  33.517  18.149  12.655
16824W        W88353   7.291  40.676  13.971
16825W        W88354  15.228  11.139   0.666
16826W        W88355  40.242  42.498  10.440
16827W        W88356   6.327  11.864  13.831
16828W        W88357  13.159  14.569   0.361
16829W        W88358  19.167  13.521  10.749
16830W        W88359  21.569   7.213   0.249
16831W        W88360   8.408   5.733   0.760
16832W        W88361  15.794  26.878   0.172
16833W        W88362  44.858  38.806  14.365
16834W        W88363  35.473  40.277  10.756
16835W        W88364   3.200  14.685  11.959
16836W        W88365   8.164   1.383  14.323
16837W        W88366   9.944  37.834   2.677
16838W        W88367   1.488  44.298  10.027
16839W        W88368  20.944   2.448  10.944
16840W        W88369  31.146  35.315  12.930
16841W        W88370  17.794  38.143  13.375
16842W        W88371  14.698   7.751  10.705
16843W        W88372  10.821  34.821  10.545
16844W        W88373  22.590  37.462  14.805
16845W        W88374  16.775  25.350   4.740
16846W        W88375  30.739  25.141   3.868
16847W        W88376   1.481  19.093   1.202
16848W        W88377  22.241   2.928   0.370
16849W        W88378  20.650  38.089   2.742
16850W        W88379  13.265  42.074   1.322
16851W        W88380  37.358  36.781  13.858
16852W        W88381  39.805  37.493   2.261
16853W        W88382  39.591  25.568   0.804
16854W        W88383  15.447   5.548   3.557
16855W        W88384  16.307  17.167   0.882
16856W        W88385  22.188  41.027   0.349
16857W        W88386  17.629  42.118   3.320
16858W        W88387  13.800   0.910   2.262
16859W        W88388  30.323  31.094  12.437
16860W        W88389  20.925  24.015  13.509
16861W        W88390  33.441  35.596   3.305
16862W        W88391  13.636  40.349   3.461
16863W        W88392  29.172  36.905  11.695
16864W        W88393  37.000  19.670   1.426
16865W        W88394  14.319  44.972   3.156
16866W        W88395  36.982  17.131   4.330
16867W        W88396  23.971   5.200   0.739
16868W        W88397  39.323  32.375  13.836
16869W        W88398  44.580  18.072  12.156
16870W        W88399   4.456   2.688  14.399
16871W        W88400  44.498  21.780  10.680
16872W        W88401  36.661   8.767  13.088
16873W        W88402  34.952   1.961  12.484
16874W        W88403   4.198  32.488   3.986
16875W        W88404  44.803  32.571   2.536
16876W        W88405   2.894  12.755  10.740
16877W        W88406  20.999  17.824  14.484
16878W        W88407  13.553   6.991  12.464
16879W        W88408  19.579  39.996  13.789
16880W        W88409  18.312  24.240   0.707
16881W        W88410  31.078  10.904  12.062
16882W        W88411  36.863  23.116   3.169
16883W        W88412  20.752   2.364   0.964
16884W        W88413   2.712   9.875   2.708
16885W        W88414  35.452   4.471   1.721
16886W        W88415   0.772  43.355   2.379
16887W        W88416  15.736   8.752  12.443
16888W        W88417  10.289  27.692   3.125
16889W        W88418  35.088  24.087   1.022
16890W        W88419  12.548   8.741   4.598
16891W        W88420  43.000  13.400   0.204
16892W        W88421  23.094  22.042  12.426
16893W        W88422   9.074  37.939   2.332
16894W        W88423  38.048   3.409   1.012
16895W        W88424  11.739  13.380  13.481
16896W        W88425  14.356  22.768   3.251
16897W        W88426   9.712  36.858  13.603
16898W        W88427   1.857  13.187  11.877
16899W        W88428  13.352  14.072   4.603
16900W        W88429  40.823  36.878   4.114
16901W        W88430  23.782  26.708  14.792
16902W        W88431  27.443   2.212  11.819
16903W        W88432  14.600  36.377  12.571
16904W        W88433  10.589  43.724   1.235
16905W        W88434  39.677   2.945  14.867
16906W        W88435  30.089  28.536   3.891
16907W        W88436   5.966   5.816   3.606
16908W        W88437   4.664  24.729   0.713
16909W        W88438  25.058  14.009   0.330
16910W        W88439  10.660  39.443  13.499
16911W        W88440   4.027   9.996  10.676
16912W        W88441  19.090  15.777   0.784
16913W        W88442   5.696  23.937   1.776
16914W        W88443   6.569  43.741   4.145
16915W        W88444  38.565  17.703   4.057
16916W        W88445  40.946   9.094   4.142
16917W        W88446  16.908   9.935   2.588
16918W        W88447  41.924  28.684  11.554
16919W        W88448  41.465  19.098  11.925
16920W        W88449  35.858   6.858   4.231
16921W        W88450  35.563   0.476   0.349
16922W        W88451  23.076   6.818   4.776
16923W        W88452  37.004  10.648   1.877
16924W        W88453   5.208  22.515  13.337
16925W        W88454  25.748  13.600   2.279
16926W        W88455   3.480  34.212  14.474
16927W        W88456  44.046  12.147  12.965
16928W        W88457   3.501  29.484   2.213
16929W        W88458  40.936   9.398  12.609
16930W        W88459  40.943  33.232  12.852
16931W        W88460   0.004  40.177  13.199
16932W        W88461  23.642   4.248  14.606
16933W        W88462   7.349  36.260  14.193
16934W        W88463   5.747  22.112   1.671
16935W        W88464  27.530  21.468  12.091
16936W        W88465  12.626  25.174   4.681
16937W        W88466   3.629  38.123   1.757
16938W        W88467  41.309  24.647   2.390
16939W        W88468  13.613  38.452  13.484
16940W        W88469   8.306  39.749   2.166
16941W        W88470  32.818  12.128  13.754
16942W        W88471  12.606   2.271   2.697
16943W        W88472   5.782   4.946   3.118
16944W        W88473  43.543  22.994   3.741
16945W        W88474   4.400  44.459   1.711
16946W        W88475  44.182  40.478  11.960
16947W        W88476  26.613  15.202  12.675
16948W        W88477   0.651  14.013  14.690
16949W        W88478  29.993  39.561   0.342
16950W        W88479  36.802  10.647   2.401
16951W        W88480  43.344   5.645   1.339
16952W        W88481  32.136  32.512   2.851
16953W        W88482   3.244  37.745   4.504
16954W        W88483   1.292  10.884  11.983
16955W        W88484  43.820  38.396   2.220
16956W        W88485   4.549  29.344  11.544
16957W        W88486  25.202  37.877  12.840
16958W        W88487   9.344  37.311  14.579
16959W        W88488  28.084  28.092   1.681
16960W        W88489  16.843  40.820  13.813
16961W        W88490   1.239  22.130   1.903
16962W        W88491  21.617  19.658  12.066
16963W        W88492   5.521  23.445   3.736
16964W        W88493  39.378  29.579  12.307
16965W        W88494  31.593  23.117   2.255
16966W        W88495  13.432   4.057  11.112
16967W        W88496  30.415  13.898   3.807
16968W        W88497  30.102  23.359  10.814
16969W        W88498  18.653  19.024  11.143
16970W        W88499  18.367   5.180  13.975
16971W        W88500  44.491   2.732   3.130
16972W        W88501  24.023   2.225  10.702
16973W        W88502   7.100  25.538  10.611
16974W        W88503  41.054  39.891   0.224
16975W        W88504  40.391   8.341   2.263
16976W        W88505  17.178  36.668  13.353
16977W        W88506  24.501   0.910   2.338
16978W        W88507  15.191  10.608  13.887
16979W        W88508  22.287  37.001  11.593
16980W        W88509  28.484  36.898   3.214
16981W        W88510  30.450  17.578  11.626
16982W        W88511  44.442  19.053   0.217
16983W        W88512  23.031  29.089  13.121
16984W        W88513  27.700  23.803   2.808
16985W        W88514  10.819  36.370  14.800
16986W        W88515  25.368  41.982   5.069
16987W        W88516  17.595  12.895  12.025
16988W        W88517  37.386  36.873   0.886
16989W        W88518   6.280  26.683  14.044
16990W        W88519   3.422  34.433   2.172
16991W        W88520   7.479  18.309  14.587
16992W        W88521  13.588  27.426   0.493
16993W        W88522  16.080   4.391  12.542
16994W        W88523  13.355  37.920  10.814
16995W        W88524  39.004  11.843  13.033
16996W        W88525  26.876  22.681   1.497
16997W        W88526  40.141  27.606   4.004
16998W        W88527  38.049   4.716  12.962
16999W        W88528   8.834  30.936  14.024
17000W        W88529  26.579  42.339  12.818
17001W        W88530  39.290  31.420   0.182
17002W        W88531  37.532  34.995  12.188
17003W        W88532  29.430  15.791  12.287
17004W        W88533  12.062  31.565  14.842
17005W        W88534  44.843  25.240   2.680
17006W        W88535  32.545  29.892   4.608
17007W        W88536  38.995  26.009   5.079
17008W        W88537  28.241  37.940  10.628
17009W        W88538  44.547  24.359  11.065
17010W        W88539   5.230  22.654   1.451
17011W        W88540   5.273  29.845  13.609
17012W        W88541  40.467  24.985  12.082
17013W        W88542  35.512  43.091  13.312
17014W        W88543  26.191  22.061  11.664
17015W        W88544  40.423  24.782  11.612
17016W        W88545  19.273   3.014   2.432
17017W        W88546  26.594   6.290   4.791
17018W        W88547  27.939  37.530   0.904
17019W        W88548   7.778  41.803  12.237
17020W        W88549  14.707   0.913   3.317
17021W        W88550  32.676  20.368  14.832
17022W        W88551   3.951  23.870  12.511
17023W        W88552  44.869  40.892   0.392
17024W        W88553  27.071  36.809  14.937
17025W        W88554  28.210  23.564  10.732
17026W        W88555   7.435  44.779  12.944
17027W        W88556  36.949  36.356   4.489
17028W        W88557  29.467  14.398  13.039
17029W        W88558  10.352  43.986  12.934
17030W        W88559  43.191  14.523  11.934
17031W        W88560  20.967  34.583   9.895
17032W        W88561   0.714  20.625   3.782
17033W        W88562  36.034  27.573  10.705
17034W        W88563  39.951  19.631  12.561
17035W        W88564   8.232  31.957   2.234
17036W        W88565  14.093  19.176   2.256
17037W        W88566   0.027  40.372  12.435
17038W        W88567   4.894  38.516   3.090
17039W        W88568  34.523  11.897   4.643
17040W        W88569   0.822  39.656   0.126
17041W        W88570  21.222  18.537   1.868
17042W        W88571   3.997  31.037   2.050
17043W        W88572  31.513  34.113  10.557
17044W        W88573  15.731   0.979  14.965
17045W        W88574   9.540  35.092   3.299
17046W        W88575  17.769  41.905   3.763
17047W        W88576   2.444  37.011  12.041
17048W        W88577  40.570   6.744   2.683
17049W        W88578  14.267  12.913   1.925
17050W        W88579  21.653  42.051   3.745
17051W        W88580   6.314  13.191  13.173
17052W        W88581  32.262   0.376   1.653
17053W        W88582   2.945  21.582  11.218
17054W        W88583  26.053  43.661   1.544
17055W        W88584   7.973  37.448  11.196
17056W        W88585  20.472  44.417  12.425
17057W        W88586  15.626  42.800   1.373
17058W        W88587  24.785  31.645   0.878
17059W        W88588   0.766  44.889   4.546
17060W        W88589  39.951   5.867  14.754
17061W        W88590  29.063   5.109   2.085
17062W        W88591   0.147  29.459   3.254
17063W        W88592   9.952   2.943  11.125
17064W        W88593  30.769  35.837   5.060
17065W        W88594  27.070   8.792  13.410
17066W        W88595  28.056   4.218   1.108
17067W        W88596  12.258  43.573  11.357
17068W        W88597  35.566  22.274  11.196
17069W        W88598   1.282  33.884  12.095
17070W        W88599  28.107  38.462  10.075
17071W        W88600  31.635  19.052   2.229
17072W        W88601  10.566  21.224  13.082
17073W        W88602   2.580  39.785   2.904
17074W        W88603  25.069  33.033   3.638
17075W        W88604  17.042  26.866  11.101
17076W        W88605  32.848  17.806   2.805
17077W        W88606  14.337  44.237   2.463
17078W        W88607  18.491  12.444  11.942
17079W        W88608   5.984  44.359   5.074
17080W        W88609  35.463  39.256   4.737
17081W        W88610  12.986  44.055  11.366
17082W        W88611   1.814   4.417   0.125
17083W        W88612  28.059  15.706  12.023
17084W        W88613  22.624  12.166   0.230
17085W        W88614  38.352  32.156  12.465
17086W        W88615  12.706  43.378  11.196
17087W        W88616  14.730  34.645  10.758
17088W        W88617   7.195  41.185   4.761
17089W        W88618  26.499  31.305  11.182
17090W        W88619   5.309   7.305  10.666
17091W        W88620  20.549  25.963   1.006
17092W        W88621  18.260   9.921   1.220
17093W        W88622  39.277  32.920   4.128
17094W        W88623  26.629  16.549   1.739
17095W        W88624   8.668  12.915   0.356
17096W        W88625  27.673  20.729  10.716
17097W        W88626  23.132  19.478  13.458
17098W        W88627  38.555   4.483  13.921
17099W        W88628   7.979  41.795  13.872
17100W        W88629  32.124  30.170  13.567
17101W        W88630  44.866  27.223   1.865
17102W        W88631  27.396  32.006   3.652
17103W        W88632  41.483  41.042   1.923
17104W        W88633  21.100  18.695  14.524
17105W        W88634  38.908   3.092  10.686
17106W        W88635  31.171  37.522   3.375
17107W        W88636   8.743  35.580  10.566
17108W        W88637   6.870  35.471  10.556
17109W        W88638  14.279  20.998  14.781
17110W        W88639   2.721  38.479   0.216
17111W        W88640  19.752  37.423   0.280
17112W        W88641  11.231  31.475  11.508
17113W        W88642   3.814  39.717   2.282
17114W        W88643  21.908   5.443   3.241
17115W        W88644   6.462  14.347   3.244
17116W        W88645  10.627   5.832  10.630
17117W        W88646  22.066   1.675   2.334
17118W        W88647  36.871  32.311   1.771
17119W        W88648  23.922   4.943   3.972
17120W        W88649  44.235  31.311   4.139
17121W        W88650  43.031  25.511   3.755
17122W        W88651  32.141  24.684  10.645
17123W        W88652  44.231  15.761   4.231
17124W        W88653  23.230   1.008  14.772
17125W        W88654  13.446  17.561  11.562
17126W        W88655  41.038  18.788   3.067
17127W        W88656  34.986   4.304  14.960
17128W        W88657   9.119   6.311   2.244
17129W        W88658  36.068   5.338   1.813
17130W        W88659  12.219  25.817   3.562
17131W        W88660   2.917  19.320   0.233
17132W        W88661  29.759  18.558   3.049
17133W        W88662  18.544  23.526  11.566
17134W        W88663  41.711  43.227  14.526
17135W        W88664  18.816  26.691   3.223
17136W        W88665  16.658  10.733  14.905
17137W        W88666  39.985  16.904  14.363
17138W        W88667  41.473  22.797   2.577
17139W        W88668  19.573  21.369   1.982
17140W        W88669  19.022  12.200  11.568
17141W        W88670  26.279  27.056   1.931
17142W        W88671  33.031  28.645  11.586
17143W        W88672  43.281   7.797  12.027
17144W        W88673  25.877  30.994  10.351
17145W        W88674  33.567  40.720  13.544
17146W        W88675  38.033  32.526   2.391
17147W        W88676  15.889  10.231  13.486
17148W        W88677  25.643  27.953  13.814
17149W        W88678   2.997  20.586   2.260
17150W        W88679   2.205  24.062  11.711
17151W        W88680  41.519  17.266   1.936
17152W        W88681   3.822  24.088   0.682
17153W        W88682  25.429   6.261   0.459
17154W        W88683  37.797  19.220  13.150
17155W        W88684   2.849  10.446  11.116
17156W        W88685  42.305  39.097   3.411
17157W        W88686  25.313  10.242   3.598
17158W        W88687  40.503  27.594   3.125
17159W        W88688  16.305  27.949   4.968
17160W        W88689  31.191  28.421  12.187
17161W        W88690  37.950  42.863   2.792
17162W        W88691  42.769  22.037   4.133
17163W        W88692  31.031  36.590  14.560
17164W        W88693  25.539  41.938  12.536
17165W        W88694   3.214   4.949  14.904
17166W        W88695  26.188  17.281  14.818
17167W        W88696  21.514  29.151  11.477
17168W        W88697  34.118  34.813   3.497
17169W        W88698   6.612   6.639  10.850
17170W        W88699  14.075  22.511   2.902
17171W        W88700  33.145  38.507   4.046
17172W        W88701  28.569  20.034   0.510
17173W        W88702  11.345  40.854   2.304
17174W        W88703  41.342   5.312   2.812
17175W        W88704  23.111  39.419   1.156
17176W        W88705  12.725  38.071   2.690
17177W        W88706  29.119  36.594   2.368
17178W        W88707  20.167   5.591   1.431
17179W        W88708   9.305  28.859   1.673
17180W        W88709  27.983  33.505  11.212
17181W        W88710  24.248   0.893  11.138
17182W        W88711  41.224  15.139  13.495
17183W        W88712  27.706  27.608   4.662
17184W        W88713  21.091  33.117  13.508
17185W        W88714   1.950  30.963   2.339
17186W        W88715  38.002  15.701   3.336
17187W        W88716   7.516  19.384   0.546
17188W        W88717  16.629  16.578  14.738
17189W        W88718   1.377  15.404  11.274
17190W        W88719  30.540  19.611  10.915
17191W        W88720   4.378  25.225  14.597
17192W        W88721  23.963  31.196   2.259
17193W        W88722  38.840   7.335  13.021
17194W        W88723   9.204  12.562   2.306
17195W        W88724  36.946   9.640  14.024
17196W        W88725   1.702  32.944  12.093
17197W        W88726  18.317  16.210  11.645
17198W        W88727  12.462  17.769  10.693
17199W        W88728   9.592   3.791   4.433
17200W        W88729  37.100  39.097   2.713
17201W        W88730  42.402  39.411  13.504
17202W        W88731  41.719  21.172   3.548
17203W        W88732  43.747  43.681  13.845
17204W        W88733  12.215  41.710   3.602
17205W        W88734  15.039  38.462   0.903
17206W        W88735   3.838  30.947   3.549
17207W        W88736  34.841  31.574   1.755
17208W        W88737   7.802  17.828  14.804
17209W        W88738  16.287  44.383   3.999
17210W        W88739  43.982  23.525  10.314
17211W        W88740  34.963  30.549   3.394
17212W        W88741  15.246  22.785   0.341
17213W        W88742  21.739  35.327  13.780
17214W        W88743  27.580  13.050  10.579
17215W        W88744  40.425  30.518   2.561
17216W        W88745  22.004  15.619  11.896
17217W        W88746   2.809  16.644   2.338
17218W        W88747  21.507  31.403  13.884
17219W        W88748  36.471  35.580  12.454
17220W        W88749  29.453  10.411  14.827
17221W        W88750   3.705  43.858  14.038
17222W        W88751   9.368  27.671  10.462
17223W        W88752  33.149  17.397   3.701
17224W        W88753  36.181  14.703  11.589
17225W        W88754   9.794  32.392  10.466
17226W        W88755  13.836   4.730   0.187
17227W        W88756  27.888  22.144  11.662
17228W        W88757  12.210  25.548   0.629
17229W        W88758  18.244  26.170  11.364
17230W        W88759  33.309  14.287  10.695
17231W        W88760  36.821  17.042   3.795
17232W        W88761  18.664  12.388  14.325
17233W        W88762  12.162  38.385   4.174
17234W        W88763   8.719  43.103  12.396
17235W        W88764  11.292  36.543   0.796
17236W        W88765   1.437  13.815  12.483
17237W        W88766   4.432  30.685  12.663
17238W        W88767  41.355  11.279   2.844
17239W        W88768  41.975   3.368   3.633
17240W        W88769  27.316  42.901   5.027
17241W        W88770  40.787  15.037   4.163
17242W        W88771  38.359  41.615   3.734
17243W        W88772  11.700  16.181   0.467
17244W        W88773   6.633   6.414   2.237
17245W        W88774  40.977   5.932   3.668
17246W        W88775  22.479  29.914   4.664
17247W        W88776   3.747  19.544  13.753
17248W        W88777   8.321  32.655  13.865
17249W        W88778  10.457   9.736  12.258
17250W        W88779  27.534  17.020   3.703
17251W        W88780  25.270  40.258  10.670
17252W        W88781  37.810  39.601  13.962
17253W        W88782   4.807  16.134  11.254
17254W        W88783  13.605  39.901   1.340
17255W        W88784   4.992  21.390  12.563
17256W        W88785  39.614  37.798   3.213
17257W        W88786  29.145  34.814   5.466
17258W        W88787  31.871  31.549  12.737
17259W        W88788  13.918   8.712   2.337
17260W        W88789  41.042  27.571   4.874
17261W        W88790   5.142  25.643   4.619
17262W        W88791  19.747   6.455   1.358
17263W        W88792  18.627  10.646   1.765
17264W        W88793  18.353  36.558  11.105
17265W        W88794  38.847  18.835  10.750
17266W        W88795  12.390  20.835   3.728
17267W        W88796  13.213  29.843   2.240
17268W        W88797  41.885  15.458   2.791
17269W        W88798  35.601  44.820  11.135
17270W        W88799  15.213  42.427   0.886
17271W        W88800  20.271  30.779   5.007
17272W        W88801   8.763  34.109  14.718
17273W        W88802  22.662   3.290  11.962
17274W        W88803  25.687  25.519   2.584
17275W        W88804  26.196  39.955  14.299
17276W        W88805  36.370  30.663   0.385
17277W        W88806  17.549  27.454  10.204
17278W        W88807  13.212   8.939  11.856
17279W        W88808  29.620  22.101  14.281
17280W        W88809   1.076  26.124  11.127
17281W        W88810   2.496   3.233  11.036
17282W        W88811  13.694  34.626   1.302
17283W        W88812  19.159  10.632   4.178
17284W        W88813  12.889  43.817   4.363
17285W        W88814  44.982  25.208   0.520
17286W        W88815  23.616  36.004   1.623
17287W        W88816  37.059  44.045  13.005
17288W        W88817   2.797  34.958  10.159
17289W        W88818  37.402  19.541   3.241
17290W        W88819  29.664  38.816   3.313
17291W        W88820  42.817   6.279  10.642
17292W        W88821  18.305   4.611   2.777
17293W        W88822  39.914  26.266   4.067
17294W        W88823  44.476  15.801  14.207
17295W        W88824  35.896  17.520  13.695
17296W        W88825  35.645   0.518   1.391
17297W        W88826  43.065   2.739   1.354
17298W        W88827  17.001  26.169   0.766
17299W        W88828  21.562  43.298   4.101
17300W        W88829  15.617  12.870   1.045
17301W        W88830  19.469  41.705   0.671
17302W        W88831  16.267  30.417   2.234
17303W        W88832  17.230  20.678   3.544
17304W        W88833   4.266   4.614  10.797
17305W        W88834   3.354  42.892  13.936
17306W        W88835  44.806   9.761   4.084
17307W        W88836  25.859   8.241   2.339
17308W        W88837   2.972  18.871  14.983
17309W        W88838  39.285  26.943  11.104
17310W        W88839   8.686  43.994   9.888
17311W        W88840   0.239  41.679   3.346
17312W        W88841  15.231  15.460  12.354
17313W        W88842  39.080  37.468   2.778
17314W        W88843   8.699  18.195  13.830
17315W        W88844  14.576   8.082   0.727
17316W        W88845  34.499  28.619  14.297
17317W        W88846  32.420   5.943   0.464
17318W        W88847   8.897   8.675  13.984
17319W        W88848  39.076  33.067   1.697
17320W        W88849  32.532  26.239  14.380
17321W        W88850  35.896  21.599   3.099
17322W        W88851  27.932  14.729  14.962
17323W        W88852  16.228   9.345   1.609
17324W        W88853  15.021   1.475  14.365
17325W        W88854  37.445  21.319   1.314
17326W        W88855  38.915  26.018  12.021
17327W        W88856  30.334  40.394   4.493
17328W        W88857  21.095  17.624  14.940
17329W        W88858  28.413  22.588  14.753
17330W        W88859  23.035  24.519   0.970
17331W        W88860  23.104   1.195   1.060
17332W        W88861  37.092  30.413   1.325
17333W        W88862  14.765  28.507   0.298
17334W        W88863  25.650   0.392   4.930
17335W        W88864  11.669  17.311   1.403
17336W        W88865  40.776  42.305   3.209
17337W        W88866  31.598   7.019  10.668
17338W        W88867  35.663  31.530  14.313
17339W        W88868  39.033  34.964   0.830
17340W        W88869  30.018  33.429  11.946
17341W        W88870   0.388  19.796  13.443
17342W        W88871  26.503  35.077   2.709
17343W        W88872  44.356  20.440   2.753
17344W        W88873  30.665   6.945   3.245
17345W        W88874  16.174  19.907   3.675
17346W        W88875  15.483  22.915   2.605
17347W        W88876  33.122  44.315   1.640
17348W        W88877   1.182  17.545  10.405
17349W        W88878  29.535  41.831   0.628
17350W        W88879  28.873  31.045   4.574
17351W        W88880   9.695   5.534   4.138
17352W        W88881   1.625  22.531  10.627
17353W        W88882  38.722  12.297   2.668
17354W        W88883  29.190   0.122  14.252
17355W        W88884  28.619   8.871   0.462
17356W        W88885  33.647  37.001   0.507
17357W        W88886  11.404  32.698  14.921
17358W        W88887  14.130  22.980   1.337
17359W        W88888  15.783  23.678   1.541
17360W        W88889  24.360  35.384  14.350
17361W        W88890   6.431  35.871   4.400
17362W        W88891  27.316  11.096   0.950
17363W        W88892  19.719  11.704  11.947
17364W        W88893   6.928  34.880   3.123
17365W        W88894  27.228  16.709  10.972
17366W        W88895  35.776   8.689   1.391
17367W        W88896  23.786  17.450   3.637
17368W        W88897  39.230  31.370   4.506
17369W        W88898  25.076  10.957   1.012
17370W        W88899   6.670   0.903   2.341
17371W        W88900  34.550  34.825  11.400
17372W        W88901  42.776  13.211   3.349
17373W        W88902  29.487   5.259  13.953
17374W        W88903  35.116  36.551   1.374
17375W        W88904  44.172   3.506  12.837
17376W        W88905   7.623   5.893   0.670
17377W        W88906  18.490  22.200   0.358
17378W        W88907  15.165   1.746  14.766
17379W        W88908  15.019  39.922   2.934
17380W        W88909  33.146   4.932  11.496
17381W        W88910  14.127  14.684   1.205
17382W        W88911  29.667   7.008   9.812
17383W        W88912   6.907  38.899   2.708
17384W        W88913  31.989  41.591   4.921
17385W        W88914  27.942  16.632  13.028
17386W        W88915   4.376  38.450   2.886
17387W        W88916  36.634   3.819  10.714
17388W        W88917  19.673  25.452  10.004
17389W        W88918  10.365  16.774  12.313
17390W        W88919  41.793   3.324  11.183
17391W        W88920  40.329  27.135  11.217
17392W        W88921  38.145   4.502  12.497
17393W        W88922  40.034  12.757   4.512
17394W        W88923   0.571  24.505  14.032
17395W        W88924   6.873  39.389   0.450
17396W        W88925  12.063  38.916   2.877
17397W        W88926  23.175  22.065  11.479
17398W        W88927  29.537  42.253  10.995
17399W        W88928  16.718  27.601  11.196
17400W        W88929  29.148  44.405  11.707
17401W        W88930  33.104  24.467   4.519
17402W        W88931   4.521   7.798   2.012
17403W        W88932  39.100  20.294   1.356
17404W        W88933  33.721  36.928  13.434
17405W        W88934  29.026  34.479   2.692
17406W        W88935  40.921  20.704   1.420
17407W        W88936  14.615  21.396  10.911
17408W        W88937  34.743  34.091   2.930
17409W        W88938  16.594  39.512  10.608
17410W        W88939  25.947   6.261  14.987
17411W        W88940  24.648   3.197   2.146
17412W        W88941  20.113  31.022   4.361
17413W        W88942  40.504  23.223   3.310
17414W        W88943  40.833  43.442   4.742
17415W        W88944  41.961  12.495   3.562
17416W        W88945   3.814  20.643   3.752
17417W        W88946  22.282  28.036   1.774
17418W        W88947  11.320  32.027   4.508
17419W        W88948  12.237   1.324   0.805
17420W        W88949  16.214  43.279   0.157
17421W        W88950  39.847  22.202  14.497
17422W        W88951  11.306  35.462  11.434
17423W        W88952  35.622  39.698   2.429
17424W        W88953  36.082  23.108  11.433
17425W        W88954  27.059  28.390   4.660
17426W        W88955   2.533  18.232   3.765
17427W        W88956  36.800  17.104  11.481
17428W        W88957  16.175  35.592   1.382
17429W        W88958  15.561  26.522   4.064
17430W        W88959  23.468  12.418  13.894
17431W        W88960  15.618  21.784  14.866
17432W        W88961   7.857  11.177   2.899
17433W        W88962  31.431  26.536  11.235
17434W        W88963  28.700   5.881  12.570
17435W        W88964   3.913  31.609  13.572
17436W        W88965  27.110   2.404  13.996
17437W        W88966  44.915  21.660   4.810
17438W        W88967  12.450   1.087  11.683
17439W        W88968  29.149  28.138   1.745
17440W        W88969  42.353  44.327   3.569
17441W        W88970  17.343   0.416   1.268
17442W        W88971  31.573  32.241  11.312
17443W        W88972  33.497   9.854   3.835
17444W        W88973   8.278  16.872   0.531
17445W        W88974  28.982  13.858   0.402
17446W        W88975  13.812  27.640   3.854
17447W        W88976   9.820   5.415   2.761
17448W        W88977  27.055  17.186   0.723
17449W        W88978  22.682  33.347   3.357
17450W        W88979  30.436  19.553  10.385
17451W        W88980  36.302  31.341  10.821
17452W        W88981  33.337  20.794   0.244
17453W        W88982  24.723   7.975   1.812
17454W        W88983  37.969  32.292  14.316
17455W        W88984  34.038  12.321  10.850
17456W        W88985  21.715  36.027   0.670
17457W        W88986   3.656  37.018  12.564
17458W        W88987  13.833  14.572   0.795
17459W        W88988  33.103  18.750  12.929
17460W        W88989  33.437  15.977  12.705
17461W        W88990  20.664  36.221  14.866
17462W        W88991  28.042   3.257  12.035
17463W        W88992  16.906  42.914  12.019
17464W        W88993  24.120  13.226  13.964
17465W        W88994  20.842  29.136  12.969
17466W        W88995  30.990  42.863   3.204
17467W        W88996  19.478  36.779  14.412
17468W        W88997  40.784  27.418  13.956
17469W        W88998  43.820  44.850  12.679
17470W        W88999  37.886  24.125  10.768
17471W        W89000  23.409  13.077   1.488
17472W        W89001   3.829   9.774  12.562
17473W        W89002   2.721  19.057  12.509
17474W        W89003  17.802   5.190   4.187
17475W        W89004  40.745  31.082  14.468
17476W        W89005  13.276  37.319  12.977
17477W        W89006  26.077  36.906  12.083
17478W        W89007  34.128  36.130   3.004
17479W        W89008   3.394  43.526   0.904
17480W        W89009  41.929  15.575   1.803
17481W        W89010  40.711  22.863   4.124
17482W        W89011  10.781  25.796  12.531
17483W        W89012  33.468  35.888   4.604
17484W        W89013  43.736  24.525  11.473
17485W        W89014  25.001  34.310   0.174
17486W        W89015  13.962  14.152  12.400
17487W        W89016  22.728  39.705   3.296
17488W        W89017  22.388   0.913  12.338
17489W        W89018  35.030  13.113  11.296
17490W        W89019   8.327   7.487   4.203
17491W        W89020   6.707   7.789  14.705
17492W        W89021  16.336  35.948  14.700
17493W        W89022  34.479  33.096  10.780
17494W        W89023   0.573  19.140   2.391
17495W        W89024  23.131  26.081  12.075
17496W        W89025  26.109  42.446   3.203
17497W        W89026  11.426  38.902  13.569
17498W        W89027  29.728   0.779  14.365
17499W        W89028  38.501  30.553  14.545
17500W        W89029  37.087  27.657  13.528
17501W        W89030  27.070   4.756  14.879
17502W        W89031   8.743  25.639  14.144
17503W        W89032  24.170   6.805  13.884
17504W        W89033  13.341   2.016   3.342
17505W        W89034   7.167  29.011   1.022
17506W        W89035  43.730  20.960   1.783
17507W        W89036  12.137  43.518  12.958
17508W        W89037  18.029  12.377  13.961
17509W        W89038   9.636  33.445   3.897
17510W        W89039  31.557  13.297  11.550
17511W        W89040  34.234   2.793  12.573
17512W        W89041   0.580  15.610  14.887
17513W        W89042  30.701  28.013   2.246
17514W        W89043  25.031  17.784  11.107
17515W        W89044  19.292  41.900   4.633
17516W        W89045  42.840   4.793   1.126
17517W        W89046  35.425  29.473  14.506
17518W        W89047  42.901  30.812   1.750
17519W        W89048   3.886  14.887   0.353
17520W        W89049  27.287  18.182  11.479
17521W        W89050  35.547  24.455   0.128
17522W        W89051  42.289  13.928  13.049
17523W        W89052  40.739  28.986   0.931
17524W        W89053  41.976  32.146  14.805
17525W        W89054  38.250  40.262  13.870
17526W        W89055  33.585   3.314  14.138
17527W        W89056  40.855  30.197   3.089
17528W        W89057  18.633  39.259  11.631
17529W        W89058   1.255  36.015  13.065
17530W        W89059  37.016  11.240   0.516
17531W        W89060   1.797  39.013  13.975
17532W        W89061   1.141  26.940   1.372
17533W        W89062  16.704  29.149  13.816
17534W        W89063  40.904  33.610  14.488
17535W        W89064   3.868  42.905  11.308
17536W        W89065  33.930  34.301  12.513
17537W        W89066  12.834  34.634   0.690
17538W        W89067   9.656  15.722   3.373
17539W        W89068  11.826   4.167  10.659
17540W        W89069   2.176  13.674   3.178
17541W        W89070  28.944  26.614  14.064
17542W        W89071   8.450  23.948   0.819
17543W        W89072   5.934   2.841   1.314
17544W        W89073  33.659   1.656  12.010
17545W        W89074  28.910   8.202   1.925
17546W        W89075  28.673  10.627   2.739
17547W        W89076   4.656  43.513  11.698
17548W        W89077  31.000   0.947  11.512
17549W        W89078  12.848  31.658   0.273
17550W        W89079  29.559  43.256   0.330
17551W        W89080   2.831  42.832  10.553
17552W        W89081   4.466  16.297   2.237
17553W        W89082  35.371  44.824  11.602
17554W        W89083   7.644   0.052   3.170
17555W        W89084  34.091  18.741  12.112
17556W        W89085  43.275  38.019  13.607
17557W        W89086  28.529  37.744  13.359
17558W        W89087  35.146   3.709  12.941
17559W        W89088  36.728  26.671  12.129
17560W        W89089   2.922   6.125   1.807
17561W        W89090  11.810  34.460  10.561
17562W        W89091  33.442  34.485   0.034
17563W        W89092  19.998  32.595   4.253
17564W        W89093   1.975  31.674  14.835
17565W        W89094   0.495  25.666   0.072
17566W        W89095  43.879  18.710  14.368
17567W        W89096  37.480  35.888  12.062
17568W        W89097  39.188  27.667   3.148
17569W        W89098  16.864  10.393   0.349
17570W        W89099  44.457  22.741  13.639
17571W        W89100   4.677  15.614   1.797
17572W        W89101  41.550  32.149   2.213
17573W        W89102   5.887  40.474   0.194
17574W        W89103  38.990  15.371  14.781
17575W        W89104  41.982   8.290   0.484
17576W        W89105   0.869   2.280   2.654
17577W        W89106  41.657   2.469   2.854
17578W        W89107  42.785  36.585  12.413
17579W        W89108  26.903   3.679   1.274
17580W        W89109  41.968  15.789   1.292
17581W        W89110  19.227  26.864  14.365
17582W        W89111   4.256   8.947  10.731
17583W        W89112  41.959   5.037  12.776
17584W        W89113  18.038  24.532   1.287
17585W        W89114  36.083  31.796   3.702
17586W        W89115   6.693  27.750  10.357
17587W        W89116  32.414  24.673  14.818
17588W        W89117  10.445  12.128  11.993
17589W        W89118  29.110   9.090  11.008
17590W        W89119  14.302   7.608  12.592
17591W        W89120  34.417  37.002  12.798
17592W        W89121  39.818   0.879  14.906
17593W        W89122  29.548  32.951  11.865
17594W        W89123  17.313  44.421  10.664
17595W        W89124  28.919  13.085  10.625
17596W        W89125  43.012  27.711   1.474
17597W        W89126  29.100   5.671  10.574
17598W        W89127  26.517   2.284  13.165
17599W        W89128  44.329   1.046  12.052
17600W        W89129  26.568  20.585  10.677
17601W        W89130   8.469  21.570  12.093
17602W        W89131  30.902   5.193   3.882
17603W        W89132  34.540  41.014   1.002
17604W        W89133  27.215  41.521  13.000
17605W        W89134  15.683  40.574   0.715
17606W        W89135  16.202   1.512   4.529
17607W        W89136  31.087  26.580   1.310
17608W        W89137  38.231   4.979   0.648
17609W        W89138   8.004  42.313  13.845
17610W        W89139  34.239  35.498   4.632
17611W        W89140  38.870   8.624   0.758
17612W        W89141  39.496   5.848   1.108
17613W        W89142  34.455   2.364  13.006
17614W        W89143  18.543  19.606  11.864
17615W        W89144  22.431  21.052  13.363
17616W        W89145   3.361  39.806  12.404
17617W        W89146  31.424  27.080  14.802
17618W        W89147  30.856  30.572  13.484
17619W        W89148  27.628  31.535   3.754
17620W        W89149  10.429  44.733  14.494
17621W        W89150  22.188  20.027  12.630
17622W        W89151  18.733  30.727   9.923
17623W        W89152  38.788  35.259   5.245
17624W        W89153  32.932  15.029  13.458
17625W        W89154  39.862  28.685   3.764
17626W        W89155   7.969  30.859  13.806
17627W        W89156   3.634   9.856  13.466
17628W        W89157  25.778  25.702   0.485
17629W        W89158  23.604  43.297   1.873
17630W        W89159   4.380  36.022  11.187
17631W        W89160   2.253  24.005   3.589
17632W        W89161  35.844  41.425   3.689
17633W        W89162  44.684  26.727  11.043
17634W        W89163  41.079   6.544  13.016
17635W        W89164  20.708  25.940  14.833
17636W        W89165  13.139   5.947  13.038
17637W        W89166   7.177  35.383  12.852
17638W        W89167  18.254   9.587   0.765
17639W        W89168  40.281  13.008   0.411
17640W        W89169  19.744  17.540  11.082
17641W        W89170   6.921  28.939   2.885
17642W        W89171  38.102  21.167   1.721
17643W        W89172   4.302  10.617  14.945
17644W        W89173  26.072   4.819   4.461
17645W        W89174  15.166  33.197  14.739
17646W        W89175  35.558   0.250  14.359
17647W        W89176  44.842  30.693  14.264
17648W        W89177  32.439  21.652   3.441
17649W        W89178   7.825  36.138   2.176
17650W        W89179   3.671  23.672   0.916
17651W        W89180  13.817   9.626  13.173
17652W        W89181  10.998   0.518   1.797
17653W        W89182  40.228  21.177   3.668
17654W        W89183   1.219  34.776   0.360
17655W        W89184   4.209  11.219  12.116
17656W        W89185  17.281   4.684  10.298
17657W        W89186   4.496  44.504  13.956
17658W        W89187  26.128  44.015  12.572
17659W        W89188  33.860  35.499  14.269
17660W        W89189   8.804  26.707   3.270
17661W        W89190   0.724  30.333  13.326
17662W        W89191  11.371  43.524   3.113
17663W        W89192  12.286  13.848  14.309
17664W        W89193  28.973  15.411   4.075
17665W        W89194  35.429  31.198   4.028
17666W        W89195  42.408  38.856  13.471
17667W        W89196  38.890  17.720  14.413
17668W        W89197  28.096  32.902  12.011
17669W        W89198  28.526  12.674  12.060
17670W        W89199  39.992  26.456  13.657
17671W        W89200   0.770  19.157  13.811
17672W        W89201   1.839   4.825   3.268
17673W        W89202  10.196  16.474  10.416
17674W        W89203  12.496  40.520  13.968
17675W        W89204  17.525   4.315  11.191
17676W        W89205  30.045  22.172  12.798
17677W        W89206  23.160  10.301  14.771
17678W        W89207  33.774  24.638  11.889
17679W        W89208  18.723   2.855  11.907
17680W        W89209  44.397  13.905   0.811
17681W        W89210  10.327  12.902   0.171
17682W        W89211  38.258   7.429  12.199
17683W        W89212  43.376  32.593  10.873
17684W        W89213  15.554  15.908   1.639
17685W        W89214  43.588  19.132   1.285
17686W        W89215   8.799  33.980   2.187
17687W        W89216  12.076  35.362  13.007
17688W        W89217  44.794  42.513   3.740
17689W        W89218  15.174  33.120  13.868
17690W        W89219  27.321  18.852   1.920
17691W        W89220   5.768   7.645   3.277
17692W        W89221   4.378   1.369   1.903
17693W        W89222  43.185  42.740   0.348
17694W        W89223   5.246  12.293  14.776
17695W        W89224  26.896  17.036  11.970
17696W        W89225  12.846  19.492  14.815
17697W        W89226  41.476  17.570   1.480
17698W        W89227  36.045  39.299  11.988
17699W        W89228  21.193  15.102   1.968
17700W        W89229  25.099  13.900   3.851
17701W        W89230  20.979  17.474   1.869
17702W        W89231  15.737  42.451   3.605
17703W        W89232  11.172  42.226   2.054
17704W        W89233  24.100  11.289   4.423
17705W        W89234  40.894  11.898  14.565
17706W        W89235  27.761  29.474   0.859
17707W        W89236  40.715  38.828  12.119
17708W        W89237  35.494  33.148  13.938
17709W        W89238  28.147  33.127   1.395
17710W        W89239  40.758  33.021  11.091
17711W        W89240  43.783   5.443  11.125
17712W        W89241  10.181  27.873   5.157
17713W        W89242   0.866  15.263   3.793
17714W        W89243   1.966   6.232   2.715
17715W        W89244   8.914   9.021   2.872
17716W        W89245  39.878  36.466  10.883
17717W        W89246  40.061  39.495  14.694
17718W        W89247  26.095  24.359  14.966
17719W        W89248   0.881  37.351  12.585
17720W        W89249  43.342  17.269  13.328
17721W        W89250  27.043  29.554   0.037
17722W        W89251  22.210  40.271  11.587
17723W        W89252  38.470  38.888   0.783
17724W        W89253  28.987   3.964   1.958
17725W        W89254  34.568   1.927   1.757
17726W        W89255   5.928  20.580  12.804
17727W        W89256  29.699  24.658   0.473
17728W        W89257  35.277  19.638  13.811
17729W        W89258  16.520  33.167   5.004
17730W        W89259  30.191   9.305  14.261
17731W        W89260  22.035  28.589  14.015
17732W        W89261  27.088  35.786   0.079
17733W        W89262  27.271   1.009  13.670
17734W        W89263  27.483  26.269  14.972
17735W        W89264  30.333  12.269  11.049
17736W        W89265  18.550  35.587  12.922
17737W        W89266  35.914  38.248   3.992
17738W        W89267  44.882  24.633  14.717
17739W        W89268  12.331  13.091  10.521
17740W        W89269  29.677  17.629  14.434
17741W        W89270   1.676   4.472  12.850
17742W        W89271  16.282  19.049   1.893
17743W        W89272  12.300  21.696   3.669
17744W        W89273  42.268   0.937   4.425
17745W        W89274  26.723  43.691   4.670
17746W        W89275  13.846  41.487  10.515
17747W        W89276  25.090  14.075  12.190
17748W        W89277  42.642   8.366  13.732
17749W        W89278  28.699  39.755   4.945
17750W        W89279  35.431  42.320   3.649
17751W        W89280  22.159  18.703  13.550
17752W        W89281  19.412  30.562  13.536
17753W        W89282  23.160  43.782  10.844
17754W        W89283   9.885  43.289   0.716
17755W        W89284  18.808  31.155  10.468
17756W        W89285  32.157  29.114  11.599
17757W        W89286  30.129  13.735   4.233
17758W        W89287  14.671  11.189   1.964
17759W        W89288  37.757  22.267   0.267
17760W        W89289   4.485  17.437   4.626
17761W        W89290  34.760  28.562   3.699
17762W        W89291  12.858  32.892   3.666
17763W        W89292  39.532  19.613   2.657
17764W        W89293  15.477  40.711   1.184
17765W        W89294  10.692   3.897  13.989
17766W        W89295   3.188  28.037   0.675
17767W        W89296  37.287   4.289   2.217
17768W        W89297  38.967  33.880   2.824
17769W        W89298  32.126   0.288   0.535
17770W        W89299  41.278  23.211   0.247
17771W        W89300  27.357  14.118  11.603
17772W        W89301  19.465  37.555   4.122
17773W        W89302  13.577  25.612  10.946
17774W        W89303  37.629  39.202   2.798
17775W        W89304  35.164  24.504   2.349
17776W        W89305  11.371  22.728   2.178
17777W        W89306  31.594   8.021  14.863
17778W        W89307  25.735  39.861   3.576
17779W        W89308  27.688  44.044  11.934
17780W        W89309  14.244  32.385   4.052
17781W        W89310  38.898  21.681  12.646
17782W        W89311  17.311  20.770  14.833
17783W        W89312  24.397  12.894  13.070
17784W        W89313  32.023   3.141   1.884
17785W        W89314  29.552  21.540   4.769
17786W        W89315  15.148  41.930   3.459
17787W        W89316  36.605   4.192   1.218
17788W        W89317  23.790  28.565   1.010
17789W        W89318  26.577  25.218  11.064
17790W        W89319  14.698  20.887  10.829
17791W        W89320  41.512  24.597  12.133
17792W        W89321  20.526  28.761  14.000
17793W        W89322  26.038   5.178   3.217
17794W        W89323  29.833  32.389  10.396
17795W        W89324  30.017  35.919   3.330
17796W        W89325  37.305  34.405   0.361
17797W        W89326   1.438  11.967  12.170
17798W        W89327  30.364  34.414  12.064
17799W        W89328   3.703   1.734  13.785
17800W        W89329  44.078  28.853  13.696
17801W        W89330  26.249  41.763   1.844
17802W        W89331  28.476  26.394  14.028
17803W        W89332  16.870  37.959  13.091
17804W        W89333  44.309   7.213  12.626
17805W        W89334  19.515  23.540   0.059
17806W        W89335  32.408  35.895   4.612
17807W        W89336  34.324  35.354  14.442
17808W        W89337  39.111  16.491  12.551
17809W        W89338  29.924  29.626  14.706
17810W        W89339  36.882  18.043  14.737
17811W        W89340  35.477  25.770  11.045
17812W        W89341  14.517  27.130  13.544
17813W        W89342  43.493  41.222  10.463
17814W        W89343  21.681  38.872  12.394
17815W        W89344  40.894   8.133   3.075
17816W        W89345  35.647  27.525  10.355
17817W        W89346   7.175  36.473  12.254
17818W        W89347  39.883  33.537   1.825
17819W        W89348  30.115  33.178  14.270
17820W        W89349  17.771  11.264  14.499
17821W        W89350   7.278  31.149   1.930
17822W        W89351  13.690  44.450  14.772
17823W        W89352  13.014  11.057   4.150
17824W        W89353  11.905  24.242  13.770
17825W        W89354  38.276   6.934   0.851
17826W        W89355  37.941  26.244  12.899
17827W        W89356  23.877  43.748   0.653
17828W        W89357  32.386   5.340   3.663
17829W        W89358  42.876  36.952   3.715
17830W        W89359  40.289  12.872  12.241
17831W        W89360  32.181  25.055   2.780
17832W        W89361   0.971  12.158  12.274
17833W        W89362  27.719  10.386  10.057
17834W        W89363  29.009  40.733  13.723
17835W        W89364  17.077   0.849  14.010
17836W        W89365  35.981   0.708   4.092
17837W        W89366  27.456  18.482  12.985
17838W        W89367   9.891   5.077   0.428
17839W        W89368  27.424  44.339  14.468
17840W        W89369  24.985  22.129  12.619
17841W        W89370   0.978  39.459   2.794
17842W        W89371  42.294   8.318   1.365
17843W        W89372   6.312  44.363   4.665
17844W        W89373  20.585  36.055  14.205
17845W        W89374  43.074  18.486  10.278
17846W        W89375  25.992  24.879  14.005
17847W        W89376  21.658  32.355   0.960
17848W        W89377  25.342  35.016   5.172
17849W        W89378   3.709  10.562  14.848
17850W        W89379  44.806  35.288  13.784
17851W        W89380  10.649  17.861  12.160
17852W        W89381   2.214  19.690  11.594
17853W        W89382  30.636  21.084   3.604
17854W        W89383  11.069  33.038  11.539
17855W        W89384  41.568  33.549  12.791
17856W        W89385   0.038  24.186   4.900
17857W        W89386  22.083   0.852   4.306
17858W        W89387  44.996  35.668   1.601
17859W        W89388  40.778  42.348  13.251
17860W        W89389  11.642  18.675  14.704
17861W        W89390  37.095   1.743  14.307
17862W        W89391  33.408  30.999  11.197
17863W        W89392   3.804  26.927  10.665
17864W        W89393  32.871  17.154  13.779
17865W        W89394  38.183   9.346  10.825
17866W        W89395  27.904  31.096   3.769
17867W        W89396  33.817  36.322   4.449
17868W        W89397  12.291   3.040   3.884
17869W        W89398   8.401  16.629   3.786
17870W        W89399  21.205  29.473  12.911
17871W        W89400  15.079  23.255   1.243
17872W        W89401  18.559  37.977  10.659
17873W        W89402  42.490  38.267   2.183
17874W        W89403   2.206  28.479  13.396
17875W        W89404  18.164  33.648   0.637
17876W        W89405   8.076  14.595   0.576
17877W        W89406   6.407  23.777   0.093
17878W        W89407  33.439  17.023   0.371
17879W        W89408  25.093  27.702  12.501
17880W        W89409  42.224  30.493  13.813
17881W        W89410  39.819   1.667   4.630
17882W        W89411  29.464  31.164  10.462
17883W        W89412  11.817   4.862   1.210
17884W        W89413  19.076  28.399   3.127
17885W        W89414  38.490   3.934   1.397
17886W        W89415  41.471  24.360   1.338
17887W        W89416  22.773  34.782  11.581
17888W        W89417  16.592  18.427   5.043
17889W        W89418  11.216  27.064  13.144
17890W        W89419   6.755  21.579  10.395
17891W        W89420  26.049  21.076   2.865
17892W        W89421   8.122  38.134   2.806
17893W        W89422  10.905  12.721   3.269
17894W        W89423  41.512  20.616  13.541
17895W        W89424  14.560   0.285  14.485
17896W        W89425  42.880  23.686  12.810
17897W        W89426  24.151  20.016  12.676
17898W        W89427  10.369  26.543  10.296
17899W        W89428   9.159  44.384  12.844
17900W        W89429  20.199  12.663  14.339
17901W        W89430  38.398   4.016  13.834
17902W        W89431  36.918  26.989   4.650
17903W        W89432  12.191  39.365   2.615
17904W        W89433  22.523  11.455  13.502
17905W        W89434  15.625   4.828  11.134
17906W        W89435  23.602   0.495  13.982
17907W        W89436  29.426  26.557  12.331
17908W        W89437  32.476  44.985   2.760
17909W        W89438   3.920  21.076   2.693
17910W        W89439  11.442  25.744  14.383
17911W        W89440  31.438  23.570   0.329
17912W        W89441  43.097   3.661  14.812
17913W        W89442  43.517  13.059  10.824
17914W        W89443  15.277  26.138   2.392
17915W        W89444  11.807  19.629   4.589
17916W        W89445  10.853   6.681   3.408
17917W        W89446  20.419   2.032   0.754
17918W        W89447  16.969   6.394   3.714
17919W        W89448  37.952  18.306   3.819
17920W        W89449  39.878  24.704  13.016
17921W        W89450  18.755   2.362   1.329
17922W        W89451  29.814  26.769   4.065
17923W        W89452  24.246  16.127   3.548
17924W        W89453   8.919  18.871   9.814
17925W        W89454  27.076  28.114  13.985
17926W        W89455  41.463   6.134   0.325
17927W        W89456   0.469  44.204  11.099
17928W        W89457  12.135   5.309   4.814
17929W        W89458  22.087  38.219   3.626
17930W        W89459  32.143  14.815  10.915
17931W        W89460  32.155  40.441  12.420
17932W        W89461   2.421   0.502  10.474
17933W        W89462  26.387   9.198  13.345
17934W        W89463  33.642   9.603  13.465
17935W        W89464  37.162   1.200   1.911
17936W        W89465   6.866  15.988  13.928
17937W        W89466   2.902  33.175   1.341
17938W        W89467  30.436  12.873  13.041
17939W        W89468  33.016  26.525  12.190
17940W        W89469  27.052  15.679   2.671
17941W        W89470   2.223   0.753   4.089
17942W        W89471  42.300  29.131  12.884
17943W        W89472  36.074  25.469   1.079
17944W        W89473   9.586  22.149  10.955
17945W        W89474   6.316   6.830   2.962
17946W        W89475  20.207   5.822  12.908
17947W        W89476  15.570  36.421  12.648
17948W        W89477  34.349  37.352   3.309
17949W        W89478  26.206   3.344   4.719
17950W        W89479  18.647  36.121   3.774
17951W        W89480  44.751  20.432  13.266
17952W        W89481  26.585  16.268   4.100
17953W        W89482   5.467   5.390   4.505
17954W        W89483  38.401  34.350  14.581
17955W        W89484  15.743  27.400  11.139
17956W        W89485  41.514  16.173  13.285
17957W        W89486  23.006   6.431   0.845
17958W        W89487  11.302  17.007   2.007
17959W        W89488  42.568  38.359  13.786
17960W        W89489  39.777  29.950  10.986
17961W        W89490  29.410   1.362   3.391
17962W        W89491  14.181  24.445  14.939
17963W        W89492  26.589  40.701  11.926
17964W        W89493  24.743  22.770   2.739
17965W        W89494  30.032  30.393  14.078
17966W        W89495  26.787  26.981   1.845
17967W        W89496  29.675  27.987   0.800
17968W        W89497   3.116  32.509  14.890
17969W        W89498  17.040   5.849   0.779
17970W        W89499  26.187  24.253  13.522
17971W        W89500   5.450  34.433   0.263
17972W        W89501  21.735   3.162  12.084
17973W        W89502  31.981  41.824  12.915
17974W        W89503  37.988  16.283   1.665
17975W        W89504  20.187  11.409   3.476
17976W        W89505  16.315  25.516  13.344
17977W        W89506   1.250   2.458  14.362
17978W        W89507  10.952   1.209   5.524
17979W        W89508  39.585  31.678   2.742
17980W        W89509  11.727  12.317   3.894
17981W        W89510  31.082  20.546  14.210
17982W        W89511  34.180  21.626  11.982
17983W        W89512  22.579  12.231  12.877
17984W        W89513  30.639  11.735   3.392
17985W        W89514  40.365  35.203  11.532
17986W        W89515  18.016  11.772   1.078
17987W        W89516  41.724   3.616  14.817
17988W        W89517  22.913  20.687  11.554
17989W        W89518  28.506  44.004   2.344
17990W        W89519  35.116  31.648  13.525
17991W        W89520   3.308  26.471   2.352
17992W        W89521   0.075   8.724   4.194
17993W        W89522  32.948   5.986  12.566
17994W        W89523  19.049   4.250   2.835
17995W        W89524  27.880  22.742  10.416
17996W        W89525  31.407  41.546   3.967
17997W        W89526  20.246  22.029   3.224
17998W        W89527  20.603  14.527  11.188
17999W        W89528  27.461   2.979  12.575
18000W        W89529  40.320  19.586   3.355
18001W        W89530  26.237  42.266  13.283
18002W        W89531  26.871  25.967   0.406
18003W        W89532  24.688  30.423  12.133
18004W        W89533  29.563  10.335   3.672
18005W        W89534  21.374  15.621   0.014
18006W        W89535  27.089   6.904   0.377
18007W        W89536   5.908  31.275   4.554
18008W        W89537  32.506  18.822  14.838
18009W        W89538  25.504  19.733   2.828
18010W        W89539  17.471  28.932  14.406
18011W        W89540  31.644  26.665   2.755
18012W        W89541   9.761  39.213   0.935
18013W        W89542  14.478  36.273   3.587
18014W        W89543  12.328  21.208   4.133
18015W        W89544  21.150  42.359   3.309
18016W        W89545  14.680   4.826  14.196
18017W        W89546   9.417  40.896   1.346
18018W        W89547  17.714  22.228   1.481
18019W        W89548  28.956  32.641  13.942
18020W        W89549   0.827  28.512   4.499
18021W        W89550  33.920  37.879  11.509
18022W        W89551  42.638  37.897   3.740
18023W        W89552  22.137  32.550   3.171
18024W        W89553  44.480   6.170   4.318
18025W        W89554  21.068  15.214   0.582
18026W        W89555  36.787  22.597   2.920
18027W        W89556  35.136  31.636  14.320
18028W        W89557  15.593  16.818   1.886
18029W        W89558  28.912  26.012   3.918
18030W        W89559  36.441  35.580   4.999
18031W        W89560  11.775   1.597  10.692
18032W        W89561   3.314  40.802   0.169
18033W        W89562  21.567  28.419   4.225
18034W        W89563  41.156  26.127  14.822
18035W        W89564  29.490  13.530  13.344
18036W        W89565  31.843  28.685  11.609
18037W        W89566  32.666  29.556   3.137
18038W        W89567   4.634  10.777   2.656
18039W        W89568  23.456  44.549   4.019
18040W        W89569  15.853  15.432  10.229
18041W        W89570  32.911  43.244   3.845
18042W        W89571   6.681  10.202   3.809
18043W        W89572  41.217  17.019  13.434
18044W        W89573  25.539  29.924   0.373
18045W        W89574   5.753  28.204   4.225
18046W        W89575   1.936  14.197   0.477
18047W        W89576  18.655  27.496   9.717
18048W        W89577  20.231  39.821  12.996
18049W        W89578  12.065  25.250  11.990
18050W        W89579  22.224  39.391   2.214
18051W        W89580  15.344  41.303  13.881
18052W        W89581  27.686  21.619   3.466
18053W        W89582  20.847   2.479  11.499
18054W        W89583  28.810  23.417   3.656
18055W        W89584  30.467  28.658   3.235
18056W        W89585  42.279  37.865  13.461
18057W        W89586   8.867  36.905  11.049
18058W        W89587  19.638  25.567   3.426
18059W        W89588  30.407  28.019  10.210
18060W        W89589  24.647  23.184  13.343
18061W        W89590  29.912  18.752   0.018
18062W        W89591  38.913  40.626  10.712
18063W        W89592   6.374  36.699  12.018
18064W        W89593  39.779  36.018  12.563
18065W        W89594  36.761  42.059  10.935
18066W        W89595   1.702  36.424   0.294
18067W        W89596   9.815   4.811   3.621
18068W        W89597  35.883  17.217   1.222
18069W        W89598  41.260   2.841   0.887
18070W        W89599  37.516   8.873  12.110
18071W        W89600  43.529  37.767  10.696
18072W        W89601  34.381  35.412  14.950
18073W        W89602  41.011  22.551  13.340
18074W        W89603  25.823  26.851  11.597
18075W        W89604   9.297  26.330   4.666
18076W        W89605  33.155  25.318   0.731
18077W        W89606   6.152  22.031  13.331
18078W        W89607   7.804  33.057   0.269
18079W        W89608  25.937   1.873  12.430
18080W        W89609  37.709  11.800  11.558
18081W        W89610  33.301   8.841  14.907
18082W        W89611  44.400  21.048   3.610
18083W        W89612   1.057  22.503  14.231
18084W        W89613  43.058  33.942   4.637
18085W        W89614  40.995  19.329   1.323
18086W        W89615   3.468   3.862   1.304
18087W        W89616  12.860  24.431   1.819
18088W        W89617  33.509  21.068  11.756
18089W        W89618  23.078  41.918   4.692
18090W        W89619  35.523  17.135   0.857
18091W        W89620  40.466  33.327   5.144
18092W        W89621  18.572  31.389  11.503
18093W        W89622  37.652  11.045  11.046
18094W        W89623  38.365  29.595   4.647
18095W        W89624  22.568  13.295  10.051
18096W        W89625  34.823  36.160  12.456
18097W        W89626  31.548  12.021  12.016
18098W        W89627  26.533  18.388   0.255
18099W        W89628   6.806   7.134   1.816
18100W        W89629  38.767  35.125   0.181
18101W        W89630  34.678  23.188   2.623
18102W        W89631  42.243   4.682  14.057
18103W        W89632   4.427  40.325   2.322
18104W        W89633   9.458  40.642  12.567
18105W        W89634  44.393  42.877  12.871
18106W        W89635  30.227  23.722   1.237
18107W        W89636  28.904  43.363  11.959
18108W        W89637  21.178  31.188   3.273
18109W        W89638  12.512  10.677  14.425
18110W        W89639  11.198  21.215   2.642
18111W        W89640  18.616  19.990  10.447
18112W        W89641   7.375   2.889   1.440
18113W        W89642  15.039  36.146   4.319
18114W        W89643  32.844  42.901   2.178
18115W        W89644  23.019   5.653  12.471
18116W        W89645  40.843  23.571  12.598
18117W        W89646  18.619  35.142  12.412
18118W        W89647  15.669  22.231  11.985
18119W        W89648   0.536  33.245  12.861
18120W        W89649  25.279  20.947   1.108
18121W        W89650  10.967  33.833  11.604
18122W        W89651  34.860  44.986   4.964
18123W        W89652   5.251   8.875  14.561
18124W        W89653  12.135   2.783   0.318
18125W        W89654  16.573  33.370  10.906
18126W        W89655  26.609  39.884  11.270
18127W        W89656   0.643   5.195   3.558
18128W        W89657  32.550  38.623   3.928
18129W        W89658  39.401  27.909  11.973
18130W        W89659  42.678   9.139   0.490
18131W        W89660  34.059   8.656  13.772
18132W        W89661  19.528  36.912  11.229
18133W        W89662  13.826  11.959   0.862
18134W        W89663  28.429   1.666  10.507
18135W        W89664  11.462  34.655   4.236
18136W        W89665  32.392  17.811  14.759
18137W        W89666  38.048  38.856   1.865
18138W        W89667  27.081  21.210  12.267
18139W        W89668  42.002  13.331   0.068
18140W        W89669  44.033  14.270  11.496
18141W        W89670  31.906  15.283  11.783
18142W        W89671   5.997  40.464  14.311
18143W        W89672  41.223  38.772   0.276
18144W        W89673  23.717  35.994   2.151
18145W        W89674  37.569  25.122  11.106
18146W        W89675  43.396  21.679  14.983
18147W        W89676  13.406   8.627   1.443
18148W        W89677  27.555  25.232  13.713
18149W        W89678  31.325   0.979   5.054
18150W        W89679  42.946  36.593  13.298
18151W        W89680   1.862  11.839   4.708
18152W        W89681  26.723  19.621   4.248
18153W        W89682  10.278  23.586   4.132
18154W        W89683   6.853  35.911   4.100
18155W        W89684  26.686   4.383  10.989
18156W        W89685  42.884  36.615   3.140
18157W        W89686  37.464  10.324  14.838
18158W        W89687  11.828  43.769  10.762
18159W        W89688  43.156  15.706   2.265
18160W        W89689   5.641   1.273   2.339
18161W        W89690  32.054  43.055  13.464
18162W        W89691  15.636  37.062  13.137
18163W        W89692  13.096  36.447  12.933
18164W        W89693  15.230   1.435   4.836
18165W        W89694   7.230  38.337   0.459
18166W        W89695  33.003  35.725  12.973
18167W        W89696   3.197  26.663   0.808
18168W        W89697   7.366   1.632   3.334
18169W        W89698   9.564   4.743   1.492
18170W        W89699   7.396  34.610  10.816
18171W        W89700  29.924  11.939   3.103
18172W        W89701   4.506  24.998  12.097
18173W        W89702  32.527  31.351   2.244
18174W        W89703  39.483  44.316   4.605
18175W        W89704  10.026  31.432  11.883
18176W        W89705   5.444  43.228   2.440
18177W        W89706   4.794  18.942   2.330
18178W        W89707  28.465  31.675   2.673
18179W        W89708  22.431  22.116   1.938
18180W        W89709  41.562  26.258   2.695
18181W        W89710  31.002  37.110   0.637
18182W        W89711  11.579   4.046  14.819
18183W        W89712  27.027  14.152   1.843
18184W        W89713  24.993   6.807   1.478
18185W        W89714  36.395  30.759  10.695
18186W        W89715  25.226   9.335  11.786
18187W        W89716  33.925  12.602   1.452
18188W        W89717   9.810   9.906   1.570
18189W        W89718  16.242  36.044   2.344
18190W        W89719   1.793  41.042   1.278
18191W        W89720   2.910  44.894   2.476
18192W        W89721  31.270  32.325   3.180
18193W        W89722  17.196   3.514   4.545
18194W        W89723  27.665  35.174  12.764
18195W        W89724  34.548  26.027  11.218
18196W        W89725  11.961  26.084   0.717
18197W        W89726  31.260  11.171   4.662
18198W        W89727  11.807  20.174  10.528
18199W        W89728   5.739   1.029   1.020
18200W        W89729  14.565  25.188  13.580
18201W        W89730  36.565  21.204   4.535
18202W        W89731  17.488  35.968  11.109
18203W        W89732  34.967  29.568  11.562
18204W        W89733  33.811  20.033   3.168
18205W        W89734  37.473  38.940   0.686
18206W        W89735  31.220  24.129  14.820
18207W        W89736  26.121  14.991  14.304
18208W        W89737  26.813   0.473  13.093
18209W        W89738  20.189  16.540  14.825
18210W        W89739  38.399  11.144   4.325
18211W        W89740  18.582  43.146   4.911
18212W        W89741  17.495   7.622   1.282
18213W        W89742  18.140   8.098   2.818
18214W        W89743  12.926  14.595  14.872
18215W        W89744  35.954  37.381   4.040
18216W        W89745  19.982   7.784   1.446
18217W        W89746  24.595  16.737   4.121
18218W        W89747  43.379  26.460   1.896
18219W        W89748  13.127  27.517   0.684
18220W        W89749  36.976  29.139   1.009
18221W        W89750  11.765  34.370   1.675
18222W        W89751   1.405   6.751  13.515
18223W        W89752  14.258   3.766   1.417
18224W        W89753  27.514  44.235  12.450
18225W        W89754   5.664  29.159   0.739
18226W        W89755  17.611  36.837  11.515
18227W        W89756  11.910   2.828   2.675
18228W        W89757  16.754  22.523  13.900
18229W        W89758  16.287  40.796   4.377
18230W        W89759  21.750  40.959   2.032
18231W        W89760   8.462   5.236  14.535
18232W        W89761  38.042  19.317   4.601
18233W        W89762  10.189   7.405   3.491
18234W        W89763  37.967  10.774  13.349
18235W        W89764  15.047  22.309  10.421
18236W        W89765  39.785  26.057   1.251
18237W        W89766  28.164  38.461  12.160
18238W        W89767  22.062  35.338   0.980
18239W        W89768  13.101   7.843   3.218
18240W        W89769  36.159  20.643   1.039
18241W        W89770   0.830  10.418  14.443
18242W        W89771   8.882  31.151  13.152
18243W        W89772  22.805  40.818   3.573
18244W        W89773   6.037  32.100  11.593
18245W        W89774   1.281   1.046  10.761
18246W        W89775  39.300  20.191  10.882
18247W        W89776  27.379  14.259  10.701
18248W        W89777  14.316  10.299  12.390
18249W        W89778  25.177  11.367   0.731
18250W        W89779  29.104  43.904  14.981
18251W        W89780   0.530   8.346   0.047
18252W        W89781   2.653  10.158   3.776
18253W        W89782  36.608   7.009   0.386
18254W        W89783   0.357   7.196  13.288
18255W        W89784  18.705  18.011   3.249
18256W        W89785  25.457  41.874   2.119
18257W        W89786  29.059   7.201   2.142
18258W        W89787   3.963   9.006   2.309
18259W        W89788  28.132  30.655   1.367
18260W        W89789  22.655  39.016  14.973
18261W        W89790  41.997  20.233  13.898
18262W        W89791   5.626  33.120   3.102
18263W        W89792   8.300  37.351  11.602
18264W        W89793  18.162  12.245  13.173
18265W        W89794  22.000   3.144  13.370
18266W        W89795  14.549  30.996  11.971
18267W        W89796   5.201  16.688  12.395
18268W        W89797   4.064  43.340   2.160
18269W        W89798  14.287  18.977  10.621
18270W        W89799  40.135   8.246  12.381
18271W        W89800   9.232  31.402   1.492
18272W        W89801  38.342  20.992  13.046
18273W        W89802   6.087  17.950  11.520
18274W        W89803  44.409  24.215  13.537
18275W        W89804  11.209   5.403  14.790
18276W        W89805  28.164  30.476   2.179
18277W        W89806  29.695   7.885   3.062
18278W        W89807  29.213  37.499   4.044
18279W        W89808   9.868   6.647   2.497
18280W        W89809  27.209  12.403   0.695
18281W        W89810  21.007  12.399   0.481
18282W        W89811  35.260   6.338   1.113
18283W        W89812  11.628   3.943  11.076
18284W        W89813   8.966  35.122   1.158
18285W        W89814  17.309   8.876  13.167
18286W        W89815  20.211   0.295   3.075
18287W        W89816  14.297  31.069  14.807
18288W        W89817  25.727  26.563   0.104
18289W        W89818  23.998  41.886  12.372
18290W        W89819  41.765  34.522   2.976
18291W        W89820  40.692  38.170   2.301
18292W        W89821   6.359  18.110   0.768
18293W        W89822  44.759  44.516  11.528
18294W        W89823   4.461  35.607   0.726
18295W        W89824  10.143  24.735   0.348
18296W        W89825   0.724  12.881   1.395
18297W        W89826  16.322   2.009   4.633
18298W        W89827  40.003  36.468   4.081
18299W        W89828  42.957  12.370  14.370
18300W        W89829  37.004  14.829   4.852
18301W        W89830  10.279  13.799  12.154
18302W        W89831  23.154  27.480   2.804
18303W        W89832  29.190   2.957  11.977
18304W        W89833  16.058  33.665  13.903
18305W        W89834   4.241  12.738  11.613
18306W        W89835  40.473  36.705   3.253
18307W        W89836   6.275  40.325   2.768
18308W        W89837   7.520  30.551   0.846
18309W        W89838   3.265  13.102  13.612
18310W        W89839  17.476  11.746   2.483
18311W        W89840  19.767   0.882   1.226
18312W        W89841  13.580  18.262   0.268
18313W        W89842   0.675   5.774   0.177
18314W        W89843  21.982  44.956  10.606
18315W        W89844  10.710   4.178  10.937
18316W        W89845  30.739  16.317   5.005
18317W        W89846   5.491   4.821   1.334
18318W        W89847  30.029  32.836  13.455
18319W        W89848  18.674  25.609  14.968
18320W        W89849  16.070  33.667  14.923
18321W        W89850   9.485  13.986   0.264
18322W        W89851   2.213  14.759  11.402
18323W        W89852  29.336  41.906  10.653
18324W        W89853  24.055   9.904  11.625
18325W        W89854  19.429  36.158  12.025
18326W        W89855  18.263  26.176   0.236
18327W        W89856  38.802   4.286   2.657
18328W        W89857   3.927  23.678  12.977
18329W        W89858   8.988   7.525   1.844
18330W        W89859  13.412   5.496  11.171
18331W        W89860  27.155   4.261   4.636
18332W        W89861  17.572   7.304  12.953
18333W        W89862  26.133  11.829   0.006
18334W        W89863   7.282  35.811   2.749
18335W        W89864  17.294  11.151  11.499
18336W        W89865  24.711   6.851   4.431
18337W        W89866  25.216  32.775   2.795
18338W        W89867  40.930  43.270  14.285
18339W        W89868   7.389  42.428  14.889
18340W        W89869  25.189  40.716   3.193
18341W        W89870  20.701  33.100  13.181
18342W        W89871   0.477  26.591  11.525
18343W        W89872  42.973  21.426   1.754
18344W        W89873  43.765  22.062   0.495
18345W        W89874  36.193  11.462  10.264
18346W        W89875  38.601  16.538  14.350
18347W        W89876   5.948   8.002   3.657
18348W        W89877   8.839  20.632  13.520
18349W        W89878  12.802  41.759   3.297
18350W        W89879  24.709  18.013  12.103
18351W        W89880  14.190   0.290  14.094
18352W        W89881  14.787  42.246   2.191
18353W        W89882  33.127  31.934  14.866
18354W        W89883  29.587  33.695  12.102
18355W        W89884  26.700  42.504  13.294
18356W        W89885   4.296  21.174   4.886
18357W        W89886  32.774  18.815  13.365
18358W        W89887  24.989  16.074   3.383
18359W        W89888  39.279  43.775   1.436
18360W        W89889  15.473  39.887   0.796
18361W        W89890  20.102   2.774   1.954
18362W        W89891  33.036  41.124  10.343
18363W        W89892  13.915   8.154  10.693
18364W        W89893  37.703   5.888   4.607
18365W        W89894  23.998  41.978  14.746
18366W        W89895  37.089   9.387  12.823
18367W        W89896   7.851  26.600   4.569
18368W        W89897  21.249  39.445   1.881
18369W        W89898  29.947   1.043   2.730
18370W        W89899  32.437  42.875  14.397
18371W        W89900  12.897  17.505  10.256
18372W        W89901   0.289  38.309   3.213
18373W        W89902   0.766  36.872   0.777
18374W        W89903  12.482  41.342  10.656
18375W        W89904  18.091  18.173  12.878
18376W        W89905  38.800  44.773   3.200
18377W        W89906  40.022  13.329  11.087
18378W        W89907  33.620  32.082  14.874
18379W        W89908  28.931  40.863   3.709
18380W        W89909  35.308  29.269  13.090
18381W        W89910  23.606  18.102  14.648
18382W        W89911   1.348  38.744  11.808
18383W        W89912  14.339  38.241   2.966
18384W        W89913  37.937  33.568   1.415
18385W        W89914   2.601  11.621  11.532
18386W        W89915  19.637  41.344  14.361
18387W        W89916  36.504  22.563   1.903
18388W        W89917  17.297  44.597  11.444
18389W        W89918  43.449  10.245   4.442
18390W        W89919  11.615  33.200  12.891
18391W        W89920  13.816  16.176  13.423
18392W        W89921  44.893   4.684  14.947
18393W        W89922  17.274  18.481   4.647
18394W        W89923  35.347  23.550  11.556
18395W        W89924  34.199  15.637  13.040
18396W        W89925  36.379   6.692  12.886
18397W        W89926  14.935  19.758  14.007
18398W        W89927   6.738  39.714  11.015
18399W        W89928  21.186  28.434   2.568
18400W        W89929   2.844   2.150   0.822
18401W        W89930  43.262  12.677  10.505
18402W        W89931  17.260  29.072  12.554
18403W        W89932  44.721  29.968   0.961
18404W        W89933  23.210  21.350  14.747
18405W        W89934  18.953  33.129   1.156
18406W        W89935   5.817  34.595  10.382
18407W        W89936  28.054  18.064   0.795
18408W        W89937  23.637   7.396  14.866
18409W        W89938  36.067  35.363   4.607
18410W        W89939  16.081   4.938  10.826
18411W        W89940  23.028  11.337  13.465
18412W        W89941   7.207   1.110  13.833
18413W        W89942  33.141  16.302   0.882
18414W        W89943  37.450  21.249   3.914
18415W        W89944  38.848  23.482  11.938
18416W        W89945  23.132  22.278   1.423
18417W        W89946  43.720  26.040  14.000
18418W        W89947  25.001  13.767  11.522
18419W        W89948  24.417  14.241   0.023
18420W        W89949   9.042  26.229   3.456
18421W        W89950   0.236   0.191   2.307
18422W        W89951  24.936  35.899   2.871
18423W        W89952  25.560  30.970  11.536
18424W        W89953  24.468  29.035   4.101
18425W        W89954  17.430  24.574   4.125
18426W        W89955  32.403  20.151   0.786
18427W        W89956  35.531  10.757   3.598
18428W        W89957   1.874  44.311  14.906
18429W        W89958  21.704  30.454   1.789
18430W        W89959   4.513  27.017   1.226
18431W        W89960  41.886   6.764   0.679
18432W        W89961  27.832   7.387  10.085
18433W        W89962  28.926   3.991   1.441
18434W        W89963  34.770  17.200  12.991
18435W        W89964  38.859  26.670  11.547
18436W        W89965   0.373  10.813   3.884
18437W        W89966  24.006  25.961   0.756
18438W        W89967   2.538  38.309   2.171
18439W        W89968  44.983  19.674  11.343
18440W        W89969  13.411   8.828   2.365
18441W        W89970   3.360  17.504  11.971
18442W        W89971  26.013  13.078  14.333
18443W        W89972  37.615  37.341   3.624
18444W        W89973  17.260   4.257   0.848
18445W        W89974   2.206  26.413   1.829
18446W        W89975   0.209  31.015   0.480
18447W        W89976  17.084  30.097  13.466
18448W        W89977  32.108  28.861  14.769
18449W        W89978  31.773  13.052   3.802
18450W        W89979  16.294   4.855  12.666
18451W        W89980   9.202   7.409  11.531
18452W        W89981  36.254   9.114   3.626
18453W        W89982  20.597   0.281   3.722
18454W        W89983   9.747  21.062  14.053
18455W        W89984  38.857  31.113   1.338
18456W        W89985  42.463  36.059  13.096
18457W        W89986  23.449  26.951   1.798
18458W        W89987  35.963  27.320   3.581
18459W        W89988  35.904  24.873  13.764
18460W        W89989  28.259  40.457  11.496
18461W        W89990  41.817  10.957  11.725
18462W        W89991  41.452  44.342   2.618
18463W        W89992  18.143  34.887  12.509
18464W        W89993  37.830  43.767  12.493
18465W        W89994  43.359  23.624  12.162
18466W        W89995  21.610  38.428   3.904
18467W        W89996  12.232  14.110  13.353
18468W        W89997   6.380  38.958  14.755
18469W        W89998  31.691  40.000   2.302
18470W        W89999  17.665   0.332   1.695
18471W        W90000  30.048  22.278  10.433
18472W        W90001  25.553  29.324  14.014
18473W        W90002  24.135  17.570   3.256
18474W        W90003   6.014  34.986   3.335
18475W        W90004  38.796  31.860   3.769
18476W        W90005  18.350  35.018   2.924
18477W        W90006  42.272  41.938  14.902
18478W        W90007  20.718  35.165  13.894
18479W        W90008  23.774  44.208  11.569
18480W        W90009  32.522  42.303  10.922
18481W        W90010  25.645  41.768  14.762
18482W        W90011  28.788  34.978   2.663
18483W        W90012  10.277  30.818  12.928
18484W        W90013  36.131  30.170  14.470
18485W        W90014   6.759  39.754  14.697
18486W        W90015  27.975  32.259  13.150
18487W        W90016  17.263  18.175   1.711
18488W        W90017  17.607  35.562   1.255
18489W        W90018  17.121  36.942  11.328
18490W        W90019   3.152  12.580   4.957
18491W        W90020   5.692  10.261   1.710
18492W        W90021  17.591   6.599  12.147
18493W        W90022  33.340  35.571  14.280
18494W        W90023  44.046  15.751   1.214
18495W        W90024  10.166  44.713  11.562
18496W        W90025  40.209   7.117  13.216
18497W        W90026  21.490  29.646   3.186
18498W        W90027   1.926  41.076  13.866
18499W        W90028  12.763  18.966  10.488
18500W        W90029  23.487  38.137  11.614
18501W        W90030  39.477  20.511  11.670
18502W        W90031  37.092   5.467   2.797
18503W        W90032  32.568  24.332  10.590
18504W        W90033  37.209  11.624  14.396
18505W        W90034   8.475  40.588   2.817
18506W        W90035  27.054  29.095   4.045
18507W        W90036  17.186  27.592   4.000
18508W        W90037   6.898  16.230  14.879
18509W        W90038  17.200  29.511  11.172
18510W        W90039  12.568   2.474   3.146
18511W        W90040   6.446  42.770   0.527
18512W        W90041  30.449   7.780   1.837
18513W        W90042  27.573  41.263  13.923
18514W        W90043  31.258  15.928   4.532
18515W        W90044  43.774   3.535   0.861
18516W        W90045  11.096  14.050   1.847
18517W        W90046   0.346  41.757   2.467
18518W        W90047  28.729   8.156   1.424
18519W        W90048  37.011  33.422   0.417
18520W        W90049  13.497  13.555   3.273
18521W        W90050  34.919  39.418   3.720
18522W        W90051  19.567  33.963   2.175
18523W        W90052  42.881   7.742   4.150
18524W        W90053  37.999  12.240   0.409
18525W        W90054   1.807  42.802   4.546
18526W        W90055  12.691  13.096  11.369
18527W        W90056   2.234  23.951   0.350
18528W        W90057  30.753  22.731  14.457
18529W        W90058  43.297   5.762   2.406
18530W        W90059  41.726  36.921  14.403
18531W        W90060  15.501   2.345   4.648
18532W        W90061   1.776  38.427   4.664
18533W        W90062  12.431   4.211   1.258
18534W        W90063  16.773  27.153  11.469
18535W        W90064   8.714  10.864  14.435
18536W        W90065  10.600  22.605   0.728
18537W        W90066   7.670  25.588  11.116
18538W        W90067  39.421  26.000   3.801
18539W        W90068  40.956  12.895   1.750
18540W        W90069  30.127   2.695  10.677
18541W        W90070  32.118  12.565  12.561
18542W        W90071  13.218  38.356  14.412
18543W        W90072  25.733  29.546   2.839
18544W        W90073  32.219  12.829   2.794
18545W        W90074  19.030   5.945  13.935
18546W        W90075  37.546  28.589   4.067
18547W        W90076  35.447  11.647  12.197
18548W        W90077  35.663   3.655   2.878
18549W        W90078  14.760  32.065  14.040
18550W        W90079  18.256  42.300   1.170
18551W        W90080   9.171  19.715  14.854
18552W        W90081  42.950  40.382   2.164
18553W        W90082  35.401  11.396  11.230
18554W        W90083   5.792  23.304  12.720
18555W        W90084  14.580  42.004  12.564
18556W        W90085  36.467  14.558  11.977
18557W        W90086  17.164  27.999  13.850
18558W        W90087  10.244  17.669  11.003
18559W        W90088   9.853  15.232  12.590
18560W        W90089  34.373  30.055  11.218
18561W        W90090  41.463  42.668  11.994
18562W        W90091   1.941  37.861   4.720
18563W        W90092  34.812  20.228  10.952
18564W        W90093  35.834  12.184   2.549
18565W        W90094   1.952  30.809  12.495
18566W        W90095  10.556   2.786  13.814
18567W        W90096  15.663  32.174   3.745
18568W        W90097  28.597  29.649  11.116
18569W        W90098   1.425  30.635  14.790
18570W        W90099  25.593  31.945  12.390
18571W        W90100  18.244  21.265   0.991
18572W        W90101  19.546  22.201  12.534
18573W        W90102  32.386  27.696   5.549
18574W        W90103  26.577  11.070  14.308
18575W        W90104  24.710  12.801  11.584
18576W        W90105  25.978  17.276  11.598
18577W        W90106  28.709  26.781   5.054
18578W        W90107  35.031  16.551   0.318
18579W        W90108   3.188  23.100  13.914
18580W        W90109  12.489  43.979  11.572
18581W        W90110  22.177  19.537   2.245
18582W        W90111  44.504  33.152   3.659
18583W        W90112  31.838   1.009  11.896
18584W        W90113  32.649  17.531  13.498
18585W        W90114  42.615  27.619   5.026
18586W        W90115  34.307   6.191   1.487
18587W        W90116  21.303  24.037   0.778
18588W        W90117   1.326   2.457   2.421
18589W        W90118  19.604  41.090   3.999
18590W        W90119  21.127  38.371   4.115
18591W        W90120   3.492  31.751  11.488
18592W        W90121  40.237  12.337   1.798
18593W        W90122   9.140  14.311  12.912
18594W        W90123  10.309  12.707  11.245
18595W        W90124  10.764   1.747  14.556
18596W        W90125  31.114  34.855   2.256
18597W        W90126  36.268  38.993  12.403
18598W        W90127  23.795  24.963  14.362
18599W        W90128  14.125  13.075   2.407
18600W        W90129  24.234  16.959   0.744
18601W        W90130  43.563  20.993   4.064
18602W        W90131   0.346  17.184  14.214
18603W        W90132  40.542  25.496   3.165
18604W        W90133  36.237   9.097  11.341
18605W        W90134   6.227   9.988  12.429
18606W        W90135   8.326  27.612   1.349
18607W        W90136  24.709   7.266  11.958
18608W        W90137  37.426  39.151   4.269
18609W        W90138   2.141  26.640  14.918
18610W        W90139  38.073  11.149   2.302
18611W        W90140   1.332  21.476   2.703
18612W        W90141  10.794  24.778  12.484
18613W        W90142  40.020  43.479  13.908
18614W        W90143  12.223   4.285  13.994
18615W        W90144  41.820  14.331   0.022
18616W        W90145  13.144  11.897   2.265
18617W        W90146  41.552   1.279   3.082
18618W        W90147   4.730  12.368  12.881
18619W        W90148  33.265  26.262  14.944
18620W        W90149  25.221  12.141  11.042
18621W        W90150  16.752  18.453   0.977
18622W        W90151  38.319   0.805  12.866
18623W        W90152  36.364  17.320   3.646
18624W        W90153  20.523  29.558   4.580
18625W        W90154  31.157  27.973  11.479
18626W        W90155  15.336   2.304  12.929
18627W        W90156  29.099  19.971  14.246
18628W        W90157  32.577   1.476  14.341
18629W        W90158  33.419  22.414   0.838
18630W        W90159  34.816  43.054  11.885
18631W        W90160  44.536  10.103   1.834
18632W        W90161  22.319   8.910   2.386
18633W        W90162  37.463  14.560   4.980
18634W        W90163  20.123  18.202   0.750
18635W        W90164   1.317   7.609   1.787
18636W        W90165  34.824  15.717   0.826
18637W        W90166  16.452  33.639   2.897
18638W        W90167   8.841   3.657  14.555
18639W        W90168  21.452  30.409   5.071
18640W        W90169  45.000  24.631   4.113
18641W        W90170   3.371   2.789   4.741
18642W        W90171  33.626  36.508  11.417
18643W        W90172   1.227  20.237   3.517
18644W        W90173  24.135  34.144  14.132
18645W        W90174  42.882  25.671  10.507
18646W        W90175   7.914  41.576  11.658
18647W        W90176  10.096  17.585   4.770
18648W        W90177   3.938   1.518  14.296
18649W        W90178  10.022   6.229   2.241
18650W        W90179   7.612  42.100  11.069
18651W        W90180  18.222  27.395  14.672
18652W        W90181  32.316  43.822  14.873
18653W        W90182   6.487  26.156   3.778
18654W        W90183   8.112  18.816  14.859
18655W        W90184  34.976   3.649   2.296
18656W        W90185  38.020  21.769   2.889
18657W        W90186   3.108  42.016  11.097
18658W        W90187   6.786  40.093   1.150
18659W        W90188   0.791   9.415  12.594
18660W        W90189  43.478  22.077  14.039
18661W        W90190  28.630  15.500  14.980
18662W        W90191   7.268   8.871   4.977
18663W        W90192  19.622  24.387   1.335
18664W        W90193  24.204  37.057  10.903
18665W        W90194  23.987  36.664  11.176
18666W        W90195   7.374  10.678   3.660
18667W        W90196  16.692  10.073  14.448
18668W        W90197  13.189   8.429  11.152
18669W        W90198  36.431  22.525  12.360
18670W        W90199  14.847   2.982   4.541
18671W        W90200  32.881  44.192   0.284
18672W        W90201  18.711  34.368  12.020
18673W        W90202   7.649  10.377  12.560
18674W        W90203  43.036  30.676  11.622
18675W        W90204  28.117  19.844   4.656
18676W        W90205   8.520  26.541   0.380
18677W        W90206  44.235  15.245  11.561
18678W        W90207  23.472  20.019   0.279
18679W        W90208  19.230  39.302  14.752
18680W        W90209   5.364   4.506   4.545
18681W        W90210  25.879  33.582  13.423
18682W        W90211   0.535  25.985   3.700
18683W        W90212   5.337  41.922   4.801
18684W        W90213  32.027  19.975   4.655
18685W        W90214  16.809  18.604   2.831
18686W        W90215   9.759  33.063  11.566
18687W        W90216  18.089  24.690   0.285
18688W        W90217  27.912  32.572   9.907
18689W        W90218  30.484  43.841   3.014
18690W        W90219  35.220  34.419   4.114
18691W        W90220   2.171  15.744  12.453
18692W        W90221  36.518  25.810   3.936
18693W        W90222  16.817  27.729   4.936
18694W        W90223  17.101  12.756   2.634
18695W        W90224   1.944  22.756  11.937
18696W        W90225   5.835  31.310  13.038
18697W        W90226  18.593  41.815  11.992
18698W        W90227   9.603  35.665  10.929
18699W        W90228  25.470   8.738   0.248
18700W        W90229  40.577  17.147   1.276
18701W        W90230  32.018  33.086  14.002
18702W        W90231  44.328  32.840   0.592
18703W        W90232  22.755  33.941  14.597
18704W        W90233  15.553  18.943   4.337
18705W        W90234  32.671   9.373   3.618
18706W        W90235   4.933  41.523  12.123
18707W        W90236  22.796  36.355   2.131
18708W        W90237  12.866   7.249  14.789
18709W        W90238  17.843   4.804  14.304
18710W        W90239  21.631   1.360  13.666
18711W        W90240  11.622  22.613   4.932
18712W        W90241   3.739  17.299  10.542
18713W        W90242  16.628  21.943  14.712
18714W        W90243   4.263   8.669  14.294
18715W        W90244  32.134  19.592  11.000
18716W        W90245  10.900  12.196  13.673
18717W        W90246   4.985  30.202   1.929
18718W        W90247  31.035  30.465   5.126
18719W        W90248  39.785  28.279   1.301
18720W        W90249  37.777  27.189   1.234
18721W        W90250  23.643   7.896   4.171
18722W        W90251   0.887  19.804  11.472
18723W        W90252  22.558  11.867  14.357
18724W        W90253   3.468  32.692   0.242
18725W        W90254  27.699  19.268   3.642
18726W        W90255  20.389  33.141   2.686
18727W        W90256  22.595   9.193  13.260
18728W        W90257  13.684  21.572  12.162
18729W        W90258  37.781  27.251  14.910
18730W        W90259  23.145  25.399  11.452
18731W        W90260   3.870  44.706  14.056
18732W        W90261  43.528   8.704   3.712
18733W        W90262  39.828   4.851  13.924
18734W        W90263   7.430  29.708   0.922
18735W        W90264  29.766   4.365   4.203
18736W        W90265  44.262   3.768  13.718
18737W        W90266  39.473   3.949   3.801
18738W        W90267  37.314  11.647   3.175
18739W        W90268  17.032  10.792  11.144
18740W        W90269  12.275  38.899   4.319
18741W        W90270  35.066  17.791  13.539
18742W        W90271  31.090  18.229   0.950
18743W        W90272  13.651   7.468   4.677
18744W        W90273  23.944   6.343   2.249
18745W        W90274  29.231  31.977  11.462
18746W        W90275  10.423  30.485   3.386
18747W        W90276  21.908  25.287  14.800
18748W        W90277   9.938  42.493  13.377
18749W        W90278   7.353   3.180   3.243
18750W        W90279   6.078   7.999  11.663
18751W        W90280  10.804   1.923  10.636
18752W        W90281  16.582  16.715  11.647
18753W        W90282  21.119   4.824  14.002
18754W        W90283  30.909  10.587  11.655
18755W        W90284  17.817  26.820   4.188
18756W        W90285  12.222  31.713   0.830
18757W        W90286  30.637  34.818  14.116
18758W        W90287  18.328  13.282   2.374
18759W        W90288  35.449   6.958  12.384
18760W        W90289  31.471  41.523  13.479
18761W        W90290  23.076  32.040  12.703
18762W        W90291  16.749   1.425  11.637
18763W        W90292  20.388  19.730  14.716
18764W        W90293  32.667  40.325   0.474
18765W        W90294  32.948  19.816   3.244
18766W        W90295   9.221   6.563   2.697
18767W        W90296  23.877  28.707   3.679
18768W        W90297   6.107   3.843  14.503
18769W        W90298   1.721   7.360  11.585
18770W        W90299  28.026  31.574   1.319
18771W        W90300  30.476  35.367   1.198
18772W        W90301  20.979   3.075  10.230
18773W        W90302  15.650  25.929   3.152
18774W        W90303   0.679  14.842  13.348
18775W        W90304  14.065   0.708   0.366
18776W        W90305  21.441  38.717  10.743
18777W        W90306  28.558  38.814  12.114
18778W        W90307  43.982  23.749  12.858
18779W        W90308  12.237  20.042   3.377
18780W        W90309  19.480  41.624  10.992
18781W        W90310   7.852  37.590  13.989
18782W        W90311  38.809  11.411  14.795
18783W        W90312  39.516   3.426  14.263
18784W        W90313  38.071  21.857  12.394
18785W        W90314  31.365  12.377  13.375
18786W        W90315  10.238  24.675   2.840
18787W        W90316  26.092  37.819  12.331
18788W        W90317  25.901  30.951   4.839
18789W        W90318  13.474  44.985  11.362
18790W        W90319  14.792   0.258   4.052
18791W        W90320   6.203  34.992   0.788
18792W        W90321  16.721  38.909  11.433
18793W        W90322  34.432  31.440  11.674
18794W        W90323  20.029  18.440  11.605
18795W        W90324  33.405  12.208   2.290
18796W        W90325  40.473  27.296   4.766
18797W        W90326  29.588   6.787   0.020
18798W        W90327  41.180  29.802   3.180
18799W        W90328   9.817  42.488   3.864
18800W        W90329  30.654  23.399   1.293
18801W        W90330  43.810  21.116   4.538
18802W        W90331  36.262  26.460  12.136
18803W        W90332  26.395  30.332   2.151
18804W        W90333   5.883  21.289   2.937
18805W        W90334  42.306   9.137   0.135
18806W        W90335  23.388  14.967  13.170
18807W        W90336  37.502  24.854   4.349
18808W        W90337  21.717  26.499  10.882
18809W        W90338  16.909  18.158  14.354
18810W        W90339  22.965   9.914  12.519
18811W        W90340   5.080  35.055   3.327
18812W        W90341  34.111  25.535   2.719
18813W        W90342  33.873  44.766   1.410
18814W        W90343  29.437  35.466  14.750
18815W        W90344  35.938  38.068   1.022
18816W        W90345  10.163  40.340   0.931
18817W        W90346  36.083   2.907  14.374
18818W        W90347  44.599   5.415   5.069
18819W        W90348  27.545   4.998  14.425
18820W        W90349  44.566   5.324   4.583
18821W        W90350  10.292  33.835  12.787
18822W        W90351  12.947  39.931   3.217
18823W        W90352   8.825  21.686   0.710
18824W        W90353  25.265  10.589  11.582
18825W        W90354  18.288  16.320  13.480
18826W        W90355   1.779  25.638   1.460
18827W        W90356  27.287  10.711  14.521
18828W        W90357   7.771  13.853   0.854
18829W        W90358  11.875  31.348   1.957
18830W        W90359  29.319  33.932  12.542
18831W        W90360  10.566  17.132   4.167
18832W        W90361   4.920  23.768   3.713
18833W        W90362  21.622  18.052   4.479
18834W        W90363   1.062  35.268   5.355
18835W        W90364   9.667  39.731  12.418
18836W        W90365  27.532   1.250   5.132
18837W        W90366  35.381  14.182   2.340
18838W        W90367  25.203  30.596   0.111
18839W        W90368   5.803  25.573   1.377
18840W        W90369  17.537  28.957   0.374
18841W        W90370  31.352   4.093  12.490
18842W        W90371  39.747  42.453  10.281
18843W        W90372  22.425  41.460   2.867
18844W        W90373  33.582  30.017   0.185
18845W        W90374   7.253  22.040  11.836
18846W        W90375   3.937  16.790   3.755
18847W        W90376  39.205  15.259   0.277
18848W        W90377  22.913  23.610  12.618
18849W        W90378  27.145  25.082   2.772
18850W        W90379   3.500  14.259  12.051
18851W        W90380   2.178  37.372   4.665
18852W        W90381  24.687  41.500   2.325
18853W        W90382  36.463  18.247  12.320
18854W        W90383  35.539  26.286  13.739
18855W        W90384  23.663  39.147  10.599
18856W        W90385   2.894  41.496   2.079
18857W        W90386  27.223  28.117   3.646
18858W        W90387   5.479   3.095   0.445
18859W        W90388  10.761   5.658  11.102
18860W        W90389   2.241  20.712   1.057
18861W        W90390  21.618   7.783  13.073
18862W        W90391  42.877  15.798   5.014
18863W        W90392   8.680  17.495   4.634
18864W        W90393  23.732  12.199   4.171
18865W        W90394  39.752  44.018   2.814
18866W        W90395  37.802   6.711   0.808
18867W        W90396  17.728  13.540  10.910
18868W        W90397  30.511  10.030  10.686
18869W        W90398  31.962  15.768   4.640
18870W        W90399  32.371  40.447   0.930
18871W        W90400  14.725  24.793  11.951
18872W        W90401  30.920  38.562  12.059
18873W        W90402  43.393  27.153   4.665
18874W        W90403  43.179   0.724  10.477
18875W        W90404  11.086  42.961   1.718
18876W        W90405  38.881  28.415  14.360
18877W        W90406  12.750  27.741  12.479
18878W        W90407  12.686  32.864  11.965
18879W        W90408  12.376  18.613   0.866
18880W        W90409  40.841   7.260  10.615
18881W        W90410   1.242  32.942   4.107
18882W        W90411   5.932  18.805   3.540
18883W        W90412  13.841   2.414   2.238
18884W        W90413  33.951  26.545  13.794
18885W        W90414  21.101  19.742  12.023
18886W        W90415  15.428   9.623   4.156
18887W        W90416  41.446   6.644  13.368
18888W        W90417   1.721  36.920  11.639
18889W        W90418   7.941  35.181   5.016
18890W        W90419  13.081  32.703  13.552
18891W        W90420  31.423   0.270   3.937
18892W        W90421  20.731   2.815  10.632
18893W        W90422  22.121  37.278  13.866
18894W        W90423   0.430   8.848   2.441
18895W        W90424   9.131  16.250   0.251
18896W        W90425  26.913  24.505  12.184
18897W        W90426  35.142  26.491  12.901
18898W        W90427  38.146  34.106   3.363
18899W        W90428  41.043  38.303  13.933
18900W        W90429   9.062   5.819  11.572
18901W        W90430  42.260  44.464   0.325
18902W        W90431  41.002  36.401   4.423
18903W        W90432  21.491  35.045  12.764
18904W        W90433  14.190  23.641  11.447
18905W        W90434  15.550  28.539  14.454
18906W        W90435   9.484  16.807  11.304
18907W        W90436  37.844  41.776   0.791
18908W        W90437  19.070   0.310   3.699
18909W        W90438  25.781   0.867  11.898
18910W        W90439  29.035  16.176  12.972
18911W        W90440  15.499   0.760   0.416
18912W        W90441  37.465   2.931  12.929
18913W        W90442   6.392  30.423  14.309
18914W        W90443  12.502  17.004   1.027
18915W        W90444  42.362   8.870   0.859
18916W        W90445  28.015  13.916   1.217
18917W        W90446  35.437   7.874  13.000
18918W        W90447  44.512  34.564  13.590
18919W        W90448   8.193  22.001   4.113
18920W        W90449  37.607   3.902  11.022
18921W        W90450  18.448  23.332   3.348
18922W        W90451  39.268  23.739  10.998
18923W        W90452   8.648  26.185  14.128
18924W        W90453  30.511   8.383   0.811
18925W        W90454   1.006  21.976  14.286
18926W        W90455   4.216  35.127  13.865
18927W        W90456  27.262  19.600  14.838
18928W        W90457   8.607   0.814  13.565
18929W        W90458  43.798  19.165  11.193
18930W        W90459  13.674  44.403  11.755
18931W        W90460  37.087  42.860   4.242
18932W        W90461  15.332  32.565   0.537
18933W        W90462  44.708  17.527  10.676
18934W        W90463   1.416  17.341  11.244
18935W        W90464   2.658  42.890   3.150
18936W        W90465  24.008  37.505  13.493
18937W        W90466   3.182  37.347   2.840
18938W        W90467  13.555   9.012   0.767
18939W        W90468  29.738  13.357   5.355
18940W        W90469  41.238   6.340   1.447
18941W        W90470  15.734  39.638   3.325
18942W        W90471  31.539  23.577  13.372
18943W        W90472   8.633  36.429   4.151
18944W        W90473  10.115  17.052   2.761
18945W        W90474  13.855   2.373  13.724
18946W        W90475   0.586  31.160   4.637
18947W        W90476   0.945  33.298   1.454
18948W        W90477  36.846   3.278  12.280
18949W        W90478  17.845  36.729  12.385
18950W        W90479  25.765   1.413   2.382
18951W        W90480  22.688  41.216   0.370
18952W        W90481  15.875  41.153   4.402
18953W        W90482  37.269  40.762   3.382
18954W        W90483   9.824  11.804   4.492
18955W        W90484   8.855  25.467  14.629
18956W        W90485  18.063  17.579  12.360
18957W        W90486  40.294  34.289   2.878
18958W        W90487  14.334  35.015   0.472
18959W        W90488  40.925  11.261  14.814
18960W        W90489  12.534  43.053  13.409
18961W        W90490  44.538  28.057   4.654
18962W        W90491  39.843  26.887  13.978
18963W        W90492  10.574   2.690  10.700
18964W        W90493  16.221  17.868  12.999
18965W        W90494  25.160  33.291   2.785
18966W        W90495  34.858  37.254  14.904
18967W        W90496  40.789  13.761  14.786
18968W        W90497  26.531  17.159   2.388
18969W        W90498  25.085  26.661  14.324
18970W        W90499  11.258   8.840   4.921
18971W        W90500  28.270   3.888  13.511
18972W        W90501   8.655   9.698  11.794
18973W        W90502  21.628   5.880  12.415
18974W        W90503  24.487  34.438  12.009
18975W        W90504  24.924  30.885  14.744
18976W        W90505  40.936  19.353  13.040
18977W        W90506  29.091  36.734   3.251
18978W        W90507  18.281  38.591  14.304
18979W        W90508   0.695  10.905  12.532
18980W        W90509   1.352  14.111  13.451
18981W        W90510  41.413   5.375  11.875
18982W        W90511  37.841  23.446   4.112
18983W        W90512  20.569  11.952   3.201
18984W        W90513  42.610  31.950   1.059
18985W        W90514  13.120   4.339  12.360
18986W        W90515  13.647  26.042  11.226
18987W        W90516  28.399   6.921   3.221
18988W        W90517   3.325  42.433   4.694
18989W        W90518  37.006  33.994  11.522
18990W        W90519  31.956   2.970   4.124
18991W        W90520  12.471  36.180  13.913
18992W        W90521  25.646  34.699   4.735
18993W        W90522  20.068  27.467  14.509
18994W        W90523   1.869  36.455   3.693
18995W        W90524   2.678   2.223  13.817
18996W        W90525   0.482   4.245   2.674
18997W        W90526   5.450  13.233  12.133
18998W        W90527  10.678  42.256  11.820
18999W        W90528  30.778  28.704  13.123
19000W        W90529  25.707  12.611   0.344
19001W        W90530   9.096  13.863   3.927
19002W        W90531  13.592  22.668   3.810
19003W        W90532  23.253   8.695  11.852
19004W        W90533   4.169  12.627  12.527
19005W        W90534  41.492  19.323  10.428
19006W        W90535  35.218   5.263  13.870
19007W        W90536  39.784  42.213   1.927
19008W        W90537  14.877  12.336   3.444
19009W        W90538  28.636   3.489  13.049
19010W        W90539  19.108  10.676  12.435
19011W        W90540   8.563  27.992  12.437
19012W        W90541  25.160  24.100  11.557
19013W        W90542  28.930  16.086   1.446
19014W        W90543  15.664   1.933   2.873
19015W        W90544  28.140  28.907   0.875
19016W        W90545  16.313  39.808   0.946
19017W        W90546   4.325  29.966   0.262
19018W        W90547   2.276  28.162  12.359
19019W        W90548  25.771  40.934  11.096
19020W        W90549  20.179   5.720   0.528
19021W        W90550  37.422  40.134  11.874
19022W        W90551  36.547  36.489   4.812
19023W        W90552  17.649   3.825   2.797
19024W        W90553  30.636   3.991   4.047
19025W        W90554  17.362  38.568  11.334
19026W        W90555   8.993   2.548  14.858
19027W        W90556   5.611  42.993  14.881
19028W        W90557  12.558  39.476   4.575
19029W        W90558  16.864   2.298  14.516
19030W        W90559   7.303   9.790  11.770
19031W        W90560  30.053  11.829   4.711
19032W        W90561  31.448  26.602   3.480
19033W        W90562  17.531  35.095   3.780
19034W        W90563  35.842  25.032   2.497
19035W        W90564  15.604  28.161   3.836
19036W        W90565  25.188  15.604  10.759
19037W        W90566  44.260  11.568  11.399
19038W        W90567  39.049  23.734   2.769
19039W        W90568  19.645  40.052   1.214
19040W        W90569  15.740  43.588   0.966
19041W        W90570   4.918  21.969   0.414
19042W        W90571  20.733  33.827   2.427
19043W        W90572  18.321  39.401   0.312
19044W        W90573   9.164  22.027  12.956
19045W        W90574  40.865  26.633  13.348
19046W        W90575   9.873  22.469   2.425
19047W        W90576  29.161   1.295  11.390
19048W        W90577  20.160  34.079  11.860
19049W        W90578  41.910  18.877  13.770
19050W        W90579  33.677  36.092  10.148
19051W        W90580  41.608  34.942  11.616
19052W        W90581  44.628  15.015  14.005
19053W        W90582  13.256  15.065  12.154
19054W        W90583  19.174  22.002  11.756
19055W        W90584  30.376  21.264  12.885
19056W        W90585  21.950  10.455   4.100
19057W        W90586  24.102  23.458   1.905
19058W        W90587   4.314  39.312  12.928
19059W        W90588  16.111   6.248   0.847
19060W        W90589  11.319   3.061  11.981
19061W        W90590  10.224   0.041   4.055
19062W        W90591   0.505  40.938   2.333
19063W        W90592  13.802   7.411   0.747
19064W        W90593   8.844   4.347   0.728
19065W        W90594   3.035  23.438  12.810
19066W        W90595   8.005   3.943  13.036
19067W        W90596  28.445  14.758  13.804
19068W        W90597  19.006  22.699  12.489
19069W        W90598  16.677  28.915   0.266
19070W        W90599  44.411   6.428   0.704
19071W        W90600   8.255  10.607   0.250
19072W        W90601  22.627  10.714  11.832
19073W        W90602  42.820   6.442  12.132
19074W        W90603  41.604  12.729   3.908
19075W        W90604  19.293   7.751   3.669
19076W        W90605  25.010   7.892   3.180
19077W        W90606  29.116  22.339  10.368
19078W        W90607  31.516  34.593   1.373
19079W        W90608  11.384  18.089  12.855
19080W        W90609  30.739  17.209  14.217
19081W        W90610  10.662   3.475  11.661
19082W        W90611   1.425   0.280  13.300
19083W        W90612  41.782  33.098   1.835
19084W        W90613  26.763  20.033   1.267
19085W        W90614  28.611  24.023   1.913
19086W        W90615  43.824  40.891   2.481
19087W        W90616  14.605  11.224  14.304
19088W        W90617  12.680  34.857   2.650
19089W        W90618  14.053  43.357   3.465
19090W        W90619  23.623  25.210  11.595
19091W        W90620   9.340  42.256  12.030
19092W        W90621  13.617  38.005  12.081
19093W        W90622  12.053  41.897   0.764
19094W        W90623  17.167  19.058   0.232
19095W        W90624  32.660  19.960  11.418
19096W        W90625  16.873  19.170  14.790
19097W        W90626  20.317  44.814  13.451
19098W        W90627  44.442  39.881   3.636
19099W        W90628   1.914  20.807  11.137
19100W        W90629  42.818  34.930   4.553
19101W        W90630  43.203  31.203  13.149
19102W        W90631   1.941  20.312   4.646
19103W        W90632  40.075  37.866  10.630
19104W        W90633  33.213  23.204   3.924
19105W        W90634  32.043  16.846  12.988
19106W        W90635  22.265  20.385   2.692
19107W        W90636  29.991  44.553  13.691
19108W        W90637  15.856  24.159   2.274
19109W        W90638  17.466  13.834   3.851
19110W        W90639   8.070  14.195  10.239
19111W        W90640  40.925  11.625  12.518
19112W        W90641   8.669  17.571  10.629
19113W        W90642  28.151  35.496   4.417
19114W        W90643   2.899  39.015  13.515
19115W        W90644   0.412  43.964  13.988
19116W        W90645  41.487   3.185   3.383
19117W        W90646  15.344  42.406   0.040
19118W        W90647  39.995  10.790  12.150
19119W        W90648  36.813  31.574  10.118
19120W        W90649  40.558  35.552   3.315
19121W        W90650  21.535  11.100  11.095
19122W        W90651   6.998  34.649   3.686
19123W        W90652  40.073   4.875   4.168
19124W        W90653  30.534  29.227   2.759
19125W        W90654  10.239  34.615  12.538
19126W        W90655  40.848  31.697  13.258
19127W        W90656  38.046  14.775   1.642
19128W        W90657  41.923  43.342  13.307
19129W        W90658   6.558   7.895   2.637
19130W        W90659   9.855   9.351  13.474
19131W        W90660  12.521  10.903  10.710
19132W        W90661   8.854  25.902  13.688
19133W        W90662  33.208   1.278  11.183
19134W        W90663  18.651  16.402   4.005
19135W        W90664  13.463  20.543   5.054
19136W        W90665  21.812  15.347  14.103
19137W        W90666  43.832  37.293  12.069
19138W        W90667  24.980  33.384  14.814
19139W        W90668  15.897  14.879   1.037
19140W        W90669   8.899  18.643  10.634
19141W        W90670  33.281   9.324   0.734
19142W        W90671  32.654  28.243   1.424
19143W        W90672  31.193  26.545  11.680
19144W        W90673  18.963   5.699   3.321
19145W        W90674  35.959  35.885   1.732
19146W        W90675  18.779  43.757   2.363
19147W        W90676  24.709  23.253  14.818
19148W        W90677  22.511  35.933   3.283
19149W        W90678  21.477   2.156  14.328
19150W        W90679  11.771  40.987   3.808
19151W        W90680  30.565  36.082   4.129
19152W        W90681  17.302   4.312  10.721
19153W        W90682  39.463  14.679  10.223
19154W        W90683  14.231   0.590   2.273
19155W        W90684   0.448   2.304  11.242
19156W        W90685  37.909  34.460  14.479
19157W        W90686  16.260  30.926  11.645
19158W        W90687  31.004   2.106   1.069
19159W        W90688  37.021  21.748  14.740
19160W        W90689  28.066  23.587  13.975
19161W        W90690  19.323  10.420   3.719
19162W        W90691  14.143  42.362  14.751
19163W        W90692  34.770   3.718  12.074
19164W        W90693  27.745  10.350  10.980
19165W        W90694  30.713  20.598  12.268
19166W        W90695  21.306   8.960  13.502
19167W        W90696  34.370  25.238  12.409
19168W        W90697  16.841   5.046   1.024
19169W        W90698  37.426   3.414   1.818
19170W        W90699   0.231  36.843   9.455
19171W        W90700  17.665   1.991  13.879
19172W        W90701  37.441   7.704   0.681
19173W        W90702  31.619  39.663  13.393
19174W        W90703  25.500  44.853   1.336
19175W        W90704  22.042  35.290   0.043
19176W        W90705  30.706  34.093   4.066
19177W        W90706   3.492   9.625  12.101
19178W        W90707  34.677   6.879  11.970
19179W        W90708  25.138  32.129  12.024
19180W        W90709  19.974   2.800  11.766
19181W        W90710  20.726  15.321   3.991
19182W        W90711  23.029  13.601  14.371
19183W        W90712  43.781  36.629  11.129
19184W        W90713  20.636  13.334   0.351
19185W        W90714  18.378   1.844  11.075
19186W        W90715  34.398   7.324   2.857
19187W        W90716  44.445   6.969   4.122
19188W        W90717   2.504  33.372   4.280
19189W        W90718  10.191  29.076  13.311
19190W        W90719  35.563  13.968  14.535
19191W        W90720  14.595  41.439   5.079
19192W        W90721   3.818  30.182  14.979
19193W        W90722  35.851  11.732  11.008
19194W        W90723   0.233  25.969  13.892
19195W        W90724  29.621  10.333  13.934
19196W        W90725  30.680  11.733   0.462
19197W        W90726  36.792  24.239   0.398
19198W        W90727  21.114  24.528   3.830
19199W        W90728   4.335   2.294   0.422
19200W        W90729   4.940  34.756  10.663
19201W        W90730  18.631  40.046   2.388
19202W        W90731  31.341  27.815  10.214
19203W        W90732  29.675  30.798   4.263
19204W        W90733  44.073  29.860  11.932
19205W        W90734  14.236  35.330  10.860
19206W        W90735  32.867  38.121  14.994
19207W        W90736  22.139  33.530  10.647
19208W        W90737   0.278  19.216   1.946
19209W        W90738  24.587  10.836   0.376
19210W        W90739  23.475   2.453   4.948
19211W        W90740   8.703   4.689  12.644
19212W        W90741  34.667  27.178  10.558
19213W        W90742  21.947  26.585   1.640
19214W        W90743  38.799   2.723   1.232
19215W        W90744  38.061  22.981   3.859
19216W        W90745  41.096  43.350   4.243
19217W        W90746  30.976  23.801  10.597
19218W        W90747  31.347  35.946   3.756
19219W        W90748  32.588  26.696   4.122
19220W        W90749  14.289  13.414   4.840
19221W        W90750  44.221  44.630   0.721
19222W        W90751  22.655   0.484   0.165
19223W        W90752   6.834  42.069  11.901
19224W        W90753  26.081  32.155   1.782
19225W        W90754   4.448  12.032   1.751
19226W        W90755  44.745  32.169   2.215
19227W        W90756  35.264  12.061   4.288
19228W        W90757  43.136  29.344   3.705
19229W        W90758  26.117  23.051   1.672
19230W        W90759   4.015   2.712   0.355
19231W        W90760  41.784   2.519   3.968
19232W        W90761   6.371   9.456  11.597
19233W        W90762  30.589  43.806   1.440
19234W        W90763  24.342  30.122   4.814
19235W        W90764  36.078  18.591  12.796
19236W        W90765  12.797   6.753   3.442
19237W        W90766  41.249   1.392   4.695
19238W        W90767  36.580  10.188   2.208
19239W        W90768  14.422  38.351   4.149
19240W        W90769  24.624  33.485   4.946
19241W        W90770   0.269  31.418  14.912
19242W        W90771  44.588  39.909   9.956
19243W        W90772  44.995   0.231  14.864
19244W        W90773  24.278  27.642  10.896
19245W        W90774  12.656  15.674  14.399
19246W        W90775   8.867  15.696  13.860
19247W        W90776  26.096   4.924   1.834
19248W        W90777  18.592   7.910  14.393
19249W        W90778   8.577   0.913   4.475
19250W        W90779  11.583  12.692  14.128
19251W        W90780  41.940   6.803  13.343
19252W        W90781  19.219  34.948  13.603
19253W        W90782   0.470  23.999   0.796
19254W        W90783   2.194  12.244  12.858
19255W        W90784   3.761  28.644   2.756
19256W        W90785  16.029  11.192   2.795
19257W        W90786  15.110  31.901  13.404
19258W        W90787  32.512   9.968  11.595
19259W        W90788  42.784  17.325   4.900
19260W        W90789   9.020   4.494   2.338
19261W        W90790  36.293  33.390  11.134
19262W        W90791  15.345  19.670   3.188
19263W        W90792  26.607   4.417   1.316
19264W        W90793  24.038  42.332  10.640
19265W        W90794   3.300   5.481  14.994
19266W        W90795  37.062   5.452  12.478
19267W        W90796  38.698  27.955   1.463
19268W        W90797  17.566  25.846  14.399
19269W        W90798  43.965   0.392  10.691
19270W        W90799  31.488   3.208   0.264
19271W        W90800  19.291  34.034   1.719
19272W        W90801  22.489  15.248   4.344
19273W        W90802  10.620  34.421  14.953
19274W        W90803   4.177   0.950   3.708
19275W        W90804  40.454  40.739  13.093
19276W        W90805  39.117   5.717   0.256
19277W        W90806  19.094  40.077   2.155
19278W        W90807  25.195  13.175   1.881
19279W        W90808   3.124  32.992  11.052
19280W        W90809   1.625  23.623  12.895
19281W        W90810  44.013  37.856   4.274
19282W        W90811   0.292  39.994   0.410
19283W        W90812   3.815   5.327  11.117
19284W        W90813  34.939  13.883   2.349
19285W        W90814  27.990  36.972  13.017
19286W        W90815   5.904  18.204   0.494
19287W        W90816   3.687  25.224   3.793
19288W        W90817  35.601  29.174  13.835
19289W        W90818   7.400   6.236  14.358
19290W        W90819  30.632  11.960   2.215
19291W        W90820  16.976  31.842   1.285
19292W        W90821  39.011  15.515   2.868
19293W        W90822  40.022  38.530  13.963
19294W        W90823  34.757  34.186  11.457
19295W        W90824  26.186  37.459  13.432
19296W        W90825  18.204  33.183  14.368
19297W        W90826  42.531  36.741   1.870
19298W        W90827  20.293  13.629   1.612
19299W        W90828  38.125  11.877   3.590
19300W        W90829   1.263  20.246  13.500
19301W        W90830  24.303   0.977   3.290
19302W        W90831  16.600   7.444   0.357
19303W        W90832  44.921  16.160  14.891
19304W        W90833  27.535  36.092  10.500
19305W        W90834  12.393  30.557   3.760
19306W        W90835  33.149  30.905   0.186
19307W        W90836  35.358  14.807  14.307
19308W        W90837  34.065   3.370  13.882
19309W        W90838   2.581  31.535   4.588
19310W        W90839  15.569  19.714  12.894
19311W        W90840  11.652  33.388   4.682
19312W        W90841  31.302   3.832   3.905
19313W        W90842   8.656   8.208  13.994
19314W        W90843   0.679  32.957  11.127
19315W        W90844  18.782  10.263  12.604
19316W        W90845  28.609  37.347  14.734
19317W        W90846   0.349  24.584   3.665
19318W        W90847  17.694  44.724  12.516
19319W        W90848  12.553  44.804  13.352
19320W        W90849   4.850  18.767  14.243
19321W        W90850  25.443  13.646   1.791
19322W        W90851  29.494  17.850  14.882
19323W        W90852  42.972  19.052   2.779
19324W        W90853  28.971  40.932   2.748
19325W        W90854   2.853   0.267   1.152
19326W        W90855  16.788  23.363   3.784
19327W        W90856  15.638  33.372  14.007
19328W        W90857  27.102  20.446   1.149
19329W        W90858  25.747  26.704  13.335
19330W        W90859  24.148  26.193   2.793
19331W        W90860  35.863   5.702   2.140
19332W        W90861  34.082  37.313  13.321
19333W        W90862   9.913   1.747  12.288
19334W        W90863   6.233  21.331   4.152
19335W        W90864  44.867  43.089   4.431
19336W        W90865  41.233  17.187  12.432
19337W        W90866  41.038   1.758   0.137
19338W        W90867   1.181  36.189  11.524
19339W        W90868  26.136  35.055  14.011
19340W        W90869  40.388  35.353  10.747
19341W        W90870  31.134  41.606  11.890
19342W        W90871  20.160  41.481   3.035
19343W        W90872  29.677  32.204   2.317
19344W        W90873  23.654  44.181  14.973
19345W        W90874  10.971  28.715   1.690
19346W        W90875  24.946  41.543   0.823
19347W        W90876  27.011   4.103   1.585
19348W        W90877  26.554   5.416   1.156
19349W        W90878  24.555   1.332  11.056
19350W        W90879  12.862  10.315   0.331
19351W        W90880  42.043  30.870  11.069
19352W        W90881   9.774  38.075   4.619
19353W        W90882  22.962  27.973  13.032
19354W        W90883   4.418  21.324   1.533
19355W        W90884  28.450  40.958   2.624
19356W        W90885  28.875  37.089   4.118
19357W        W90886   8.051  22.649  12.876
19358W        W90887  34.034   3.186  13.410
19359W        W90888   1.451   4.067  11.453
19360W        W90889  20.582   1.956   1.243
19361W        W90890  22.020   6.673  11.539
19362W        W90891  30.062  26.706   1.892
19363W        W90892   6.386  19.165   3.184
19364W        W90893  21.050   8.882   0.390
19365W        W90894  10.562  17.465  14.476
19366W        W90895  23.705   9.177   3.699
19367W        W90896  34.904  40.214  13.552
19368W        W90897  31.779  25.690  11.700
19369W        W90898   6.826  24.587   2.961
19370W        W90899  42.267  32.198  12.939
19371W        W90900  34.023  27.867   3.732
19372W        W90901  36.258  34.393  12.003
19373W        W90902   9.447   4.386   2.615
19374W        W90903   6.818  17.782  12.071
19375W        W90904  11.098  29.549   2.628
19376W        W90905  37.833   7.647   2.313
19377W        W90906  17.863  15.253  14.450
19378W        W90907  31.086   6.736  13.056
19379W        W90908  41.788  20.220  11.224
19380W        W90909  24.946   8.887   3.413
19381W        W90910  27.038   0.978  12.663
19382W        W90911   5.944  43.045  13.053
19383W        W90912   8.919  15.069   1.846
19384W        W90913  15.644  36.097   0.903
19385W        W90914   7.087  36.497  12.766
19386W        W90915   3.542  41.214   4.040
19387W        W90916  44.744  12.589   4.795
19388W        W90917  39.688  16.370   2.335
19389W        W90918   0.315  16.778  12.512
19390W        W90919  26.219   8.313  11.323
19391W        W90920  29.564  44.525  12.614
19392W        W90921   3.214  14.114   1.334
19393W        W90922   2.135  10.999  14.827
19394W        W90923  37.525  30.577   3.327
19395W        W90924  18.613  37.018   2.849
19396W        W90925  38.843  22.049   0.832
19397W        W90926  37.866  12.392  10.715
19398W        W90927  20.178  28.825  12.240
19399W        W90928  17.622  37.947  12.945
19400W        W90929  28.453  18.806   0.803
19401W        W90930  22.764  19.836   1.191
19402W        W90931  42.326  35.367  14.894
19403W        W90932  35.334   1.902   3.601
19404W        W90933   4.430  31.358  10.578
19405W        W90934   4.101  33.412  14.433
19406W        W90935  17.328  38.890  10.586
19407W        W90936  29.141  26.905   4.238
19408W        W90937  29.986  21.330   2.337
19409W        W90938   0.551   9.644   0.456
19410W        W90939  35.384  13.688   0.848
19411W        W90940  42.784  18.719  10.699
19412W        W90941  25.103  28.131  14.491
19413W        W90942   3.566   6.772  12.347
19414W        W90943  22.194  12.755  10.720
19415W        W90944  40.503  17.726  13.145
19416W        W90945   1.945  14.886  10.662
19417W        W90946  41.737  39.495  10.455
19418W        W90947  21.976  13.928  11.493
19419W        W90948  36.961  36.523  11.592
19420W        W90949  35.160  40.366  14.471
19421W        W90950   1.462  27.093   1.963
19422W        W90951  15.061  30.959  12.141
19423W        W90952   2.407  38.400   4.610
19424W        W90953   9.110  23.250   4.188
19425W        W90954  42.409  10.318   2.280
19426W        W90955  17.581  19.617  12.801
19427W        W90956  33.401   4.661  14.480
19428W        W90957   1.262   5.315  10.939
19429W        W90958  31.524  43.210  14.852
19430W        W90959  38.317  36.403   2.117
19431W        W90960  35.657  36.329   2.747
19432W        W90961  20.278   3.071  12.141
19433W        W90962  10.509  28.284   3.669
19434W        W90963   7.378  43.847  12.078
19435W        W90964  44.337  19.251  13.915
19436W        W90965  16.182  17.783   4.177
19437W        W90966  24.195   7.791  12.815
19438W        W90967  19.246   4.459   2.350
19439W        W90968  27.516  16.862   4.463
19440W        W90969  40.765  25.463   2.669
19441W        W90970  33.524  17.527   4.080
19442W        W90971   8.594  23.977   4.025
19443W        W90972  17.636  13.366   3.770
19444W        W90973  20.463   9.499  13.860
19445W        W90974  37.721  23.681  10.559
19446W        W90975  14.662  16.277  13.783
19447W        W90976  20.554  37.881  13.354
19448W        W90977  18.508   4.869  12.578
19449W        W90978   3.417   0.212   4.175
19450W        W90979  31.395  16.174  11.750
19451W        W90980  42.924  22.666   3.178
19452W        W90981  22.685  10.345   0.000
19453W        W90982  12.208   4.779  11.194
19454W        W90983  25.389  15.837   1.312
19455W        W90984  17.170   5.538  12.005
19456W        W90985  11.624   7.854  12.048
19457W        W90986  40.873  44.735  14.573
19458W        W90987  43.088  20.324  13.006
19459W        W90988   6.684  43.057  13.411
19460W        W90989   0.628  28.715  11.858
19461W        W90990  34.360  35.015   0.686
19462W        W90991  26.147  38.923  14.859
19463W        W90992  42.395  32.014   3.828
19464W        W90993  17.912   2.386   0.717
19465W        W90994  25.530  26.520   1.461
19466W        W90995  42.016  33.628  11.834
19467W        W90996  19.684  12.175   3.175
19468W        W90997  39.293  39.418  13.978
19469W        W90998  11.859  30.646  14.339
19470W        W90999  31.850  27.682  14.505
19471W        W91000  23.338  22.797   4.170
19472W        W91001  20.066  11.355  13.138
19473W        W91002  36.413  11.267  11.598
19474W        W91003   3.819   7.146   2.217
19475W        W91004  25.339  21.123   4.166
19476W        W91005  29.443  24.720  10.473
19477W        W91006   6.083  16.155  14.484
19478W        W91007  17.984  12.574   1.214
19479W        W91008  28.089   0.252   0.078
19480W        W91009  24.297  10.347  11.528
19481W        W91010  42.872   5.146  14.378
19482W        W91011   0.000  27.011   0.034
19483W        W91012   9.968   4.280   3.482
19484W        W91013   7.163  34.488  13.254
19485W        W91014  10.697   4.307   0.972
19486W        W91015  20.320  18.189  14.476
19487W        W91016  12.656   0.429  10.926
19488W        W91017  27.898  32.193   4.247
19489W        W91018   1.441  30.637   1.459
19490W        W91019  37.441   2.555  14.398
19491W        W91020  21.541  10.068   0.474
19492W        W91021  13.239  17.540   4.640
19493W        W91022   4.757  32.696  12.381
19494W        W91023  32.034  25.713   2.209
19495W        W91024   5.328  21.948  12.509
19496W        W91025   8.248  25.369  14.273
19497W        W91026  28.098   8.698   4.587
19498W        W91027  35.344  16.126   0.357
19499W        W91028  15.685  21.486   0.288
19500W        W91029  25.582   5.213   0.768
19501W        W91030   9.596   5.779   1.640
19502W        W91031  27.157  26.752  11.647
19503W        W91032   2.442  41.450   4.061
19504W        W91033  33.146  12.355   0.291
19505W        W91034   5.684  36.020   1.910
19506W        W91035   2.973  26.497  12.415
19507W        W91036  37.048  43.543  12.886
19508W        W91037  24.696  30.341   4.041
19509W        W91038  36.525  10.473   1.740
19510W        W91039  23.222   3.389   1.878
19511W        W91040   4.759   9.800  12.677
19512W        W91041  32.832  43.476  13.577
19513W        W91042  35.664   9.119   0.889
19514W        W91043   4.381  10.242   5.166
19515W        W91044  15.463  18.450   4.469
19516W        W91045  42.730  10.443   1.138
19517W        W91046   7.366  44.235   0.310
19518W        W91047  43.392  12.414   1.935
19519W        W91048   5.750  10.168   3.786
19520W        W91049  40.478  29.236  11.583
19521W        W91050  34.830  23.731  12.001
19522W        W91051  35.072  10.172  14.488
19523W        W91052  37.854  24.159   1.235
19524W        W91053  21.475  17.638  12.641
19525W        W91054   1.460  23.346  12.493
19526W        W91055  34.990  33.174  10.629
19527W        W91056  37.441  37.842   3.248
19528W        W91057  32.869  16.118   0.459
19529W        W91058  39.567   2.881   4.597
19530W        W91059  26.660  10.644  11.889
19531W        W91060  21.188   6.667   4.324
19532W        W91061   9.603  38.177  13.110
19533W        W91062  25.060  38.323   1.520
19534W        W91063  31.395  15.820  13.343
19535W        W91064  14.399  27.995   4.501
19536W        W91065  15.739   8.208   4.080
19537W        W91066   4.789  25.120  12.523
19538W        W91067  39.930  21.654   2.613
19539W        W91068  29.918  29.433   1.132
19540W        W91069  25.692   3.928   1.878
19541W        W91070  40.448  21.045   3.158
19542W        W91071  14.686   6.697  12.998
19543W        W91072  27.348  18.518   4.146
19544W        W91073  26.440  38.614  11.151
19545W        W91074   0.990  35.137  14.543
19546W        W91075  15.855   9.731  11.845
19547W        W91076   2.240  28.656  12.072
19548W        W91077   1.701  25.577  11.488
19549W        W91078  22.559  42.927  13.265
19550W        W91079  25.172   7.870   0.239
19551W        W91080  24.707  38.792  13.346
19552W        W91081   1.882  44.372  13.480
19553W        W91082  38.149  28.568  12.434
19554W        W91083   1.836  43.837  13.427
19555W        W91084  27.580  15.534  11.855
19556W        W91085   8.352  31.629   3.122
19557W        W91086  41.728  17.233   0.348
19558W        W91087  12.588   0.776  11.306
19559W        W91088   5.287  18.071  12.537
19560W        W91089   5.123  12.806   3.257
19561W        W91090   0.906  29.384   0.305
19562W        W91091  31.078  16.815  14.166
19563W        W91092   2.032  36.651  12.993
19564W        W91093  13.870  36.791   3.172
19565W        W91094   4.952  40.446   1.383
19566W        W91095  29.479  30.617   1.016
19567W        W91096   4.909  28.196   2.555
19568W        W91097   2.710   4.752  14.906
19569W        W91098  27.350   7.186   4.624
19570W        W91099   7.290  34.470  13.747
19571W        W91100  43.395  38.554   1.300
19572W        W91101  31.364   9.823  10.691
19573W        W91102  41.887  33.927   2.590
19574W        W91103  36.783   1.174   3.251
19575W        W91104  40.860  22.591   3.698
19576W        W91105  11.858  19.768   3.664
19577W        W91106   9.307  35.551   3.333
19578W        W91107  24.332  39.841   4.919
19579W        W91108  24.566  33.562   3.872
19580W        W91109  25.913   3.394  11.232
19581W        W91110  32.965   1.453   1.197
19582W        W91111  23.545   4.199   4.168
19583W        W91112  35.372  32.124   3.698
19584W        W91113  18.002  36.349  14.314
19585W        W91114  42.087  17.656  14.140
19586W        W91115   6.150  43.023  14.654
19587W        W91116  25.001  37.979   2.863
19588W        W91117   7.743  19.523   4.085
19589W        W91118  40.501  28.676   0.342
19590W        W91119  44.741   0.445   0.253
19591W        W91120  15.199  31.843   4.897
19592W        W91121   2.029   8.826  13.517
19593W        W91122  24.863  42.746  10.986
19594W        W91123  16.386   4.859   0.849
19595W        W91124  43.420   0.898   1.432
19596W        W91125  13.639  35.912   0.712
19597W        W91126  22.267   0.024   0.635
19598W        W91127  25.001  14.144   1.300
19599W        W91128  44.742  27.609  11.808
19600W        W91129  42.216  32.426   4.106
19601W        W91130  15.331  39.126   2.755
19602W        W91131  41.370   8.820  13.906
19603W        W91132   2.478   7.875   1.335
19604W        W91133  27.514  42.449  12.664
19605W        W91134  24.703  35.121  11.938
19606W        W91135  35.995  40.983   0.244
19607W        W91136  16.607  37.526  13.150
19608W        W91137  34.591  43.165   3.259
19609W        W91138  12.198  22.245  13.045
19610W        W91139  12.764  12.608   1.207
19611W        W91140  41.302  37.060   3.776
19612W        W91141  22.032  42.056   1.088
19613W        W91142  43.556  25.273  14.119
19614W        W91143  33.920  21.105   2.247
19615W        W91144   2.810  26.900  13.759
19616W        W91145  37.457   2.684   0.530
19617W        W91146  20.244  44.223  11.227
19618W        W91147  36.839  36.774   4.127
19619W        W91148  29.910  29.468   3.547
19620W        W91149  10.814  42.451   2.358
19621W        W91150  10.376  15.405   0.237
19622W        W91151  43.334   3.232  13.067
19623W        W91152  15.405  44.528   2.321
19624W        W91153   9.349   5.219  14.426
19625W        W91154   7.470  34.018  13.950
19626W        W91155  26.041  36.127   1.998
19627W        W91156  15.146  41.555  14.304
19628W        W91157  16.708  31.556  10.952
19629W        W91158  15.129  12.389   1.737
19630W        W91159   2.693   8.737   1.373
19631W        W91160  38.891  44.772   1.010
19632W        W91161  44.878  24.359  11.856
19633W        W91162  22.382  25.119  11.659
19634W        W91163  33.903  25.507   1.752
19635W        W91164  39.014  37.720   3.753
19636W        W91165  12.103  36.442   0.302
19637W        W91166  44.194  44.403   2.233
19638W        W91167  21.694  14.652  11.429
19639W        W91168  10.703  14.188  12.872
19640W        W91169   1.914  43.030  12.983
19641W        W91170  30.429   9.230  13.288
19642W        W91171  29.292   0.015  12.496
19643W        W91172   6.993  29.616   3.121
19644W        W91173  35.647  11.333   0.146
19645W        W91174   1.824   9.670  14.503
19646W        W91175  32.015  21.594   1.764
19647W        W91176   7.783   3.941   0.382
19648W        W91177  23.097  11.266  10.959
19649W        W91178   5.428  23.642   1.382
19650W        W91179  33.584  14.599  10.383
19651W        W91180  41.818  29.391  10.681
19652W        W91181  11.098  29.054  12.040
19653W        W91182  37.126   8.181   2.392
19654W        W91183  33.186  12.581  14.404
19655W        W91184  44.028  31.584   0.384
19656W        W91185  19.941   0.939  12.026
19657W        W91186  21.214  16.707   2.798
19658W        W91187   6.361   0.391  10.739
19659W        W91188  19.608  33.957  12.378
19660W        W91189  21.882   9.418   3.313
19661W        W91190   2.823   4.843   0.430
19662W        W91191   8.331  39.888  11.261
19663W        W91192  41.569  24.684  11.183
19664W        W91193   1.469  40.559   4.217
19665W        W91194   6.372  24.200  11.127
19666W        W91195  12.406  20.779  14.630
19667W        W91196  38.909  16.735  10.601
19668W        W91197  26.224  32.192  13.517
19669W        W91198  25.622  27.692  12.466
19670W        W91199   3.262  22.746   1.255
19671W        W91200   7.247   5.436   2.301
19672W        W91201  39.326  30.412  12.573
19673W        W91202  41.584  15.784   2.138
19674W        W91203  25.554  30.012   3.729
19675W        W91204  31.088  24.644  11.485
19676W        W91205  33.556   9.948  12.077
19677W        W91206  40.562  41.079   3.560
19678W        W91207  20.124  26.532   0.821
19679W        W91208  10.299  22.550  11.367
19680W        W91209   3.502   2.734   0.344
19681W        W91210  14.064  44.593  14.450
19682W        W91211  23.979  29.370   1.063
19683W        W91212  22.517  38.582  12.160
19684W        W91213  34.174  14.829   2.891
19685W        W91214   6.643  43.079  11.960
19686W        W91215  28.523  26.131   0.312
19687W        W91216  18.659   0.448   4.680
19688W        W91217  36.721  17.472  14.003
19689W        W91218  44.269  15.315   3.831
19690W        W91219  28.241  39.740   0.205
19691W        W91220  26.218  28.588  13.867
19692W        W91221  25.978  11.314   4.231
19693W        W91222  15.815  41.489   3.209
19694W        W91223  44.385  13.226  12.374
19695W        W91224   3.203  12.164   3.553
19696W        W91225  39.948  33.408  12.511
19697W        W91226  15.576  23.263  13.881
19698W        W91227  29.470  32.037  12.116
19699W        W91228  42.378  44.306  13.834
19700W        W91229  16.348   8.002  10.292
19701W        W91230  24.752  28.274  13.758
19702W        W91231   0.040  26.120  12.015
19703W        W91232   7.127  16.589  11.061
19704W        W91233  10.293  20.278  13.933
19705W        W91234  24.068   8.346   3.204
19706W        W91235  20.966  43.251  12.139
19707W        W91236  22.918   5.674  10.723
19708W        W91237  32.811  12.864  10.957
19709W        W91238  29.992  12.197   1.839
19710W        W91239  40.201  10.166   3.270
19711W        W91240  23.645  43.299   0.788
19712W        W91241  34.395  19.281   0.928
19713W        W91242  16.296  12.742  11.581
19714W        W91243  11.627  16.342  10.732
19715W        W91244  35.989  32.027   4.592
19716W        W91245  24.627  21.036  13.018
19717W        W91246   3.682  10.865  14.379
19718W        W91247   7.890  20.636  11.390
19719W        W91248  12.052  15.174  14.930
19720W        W91249   4.681  39.072  10.777
19721W        W91250  19.711  15.156  14.713
19722W        W91251  38.678  15.386   0.187
19723W        W91252  39.349  34.144   2.635
19724W        W91253  28.015   6.733  10.271
19725W        W91254  40.122   7.430  11.148
19726W        W91255  40.891  20.800   3.265
19727W        W91256  23.377  43.912  11.435
19728W        W91257  30.349  37.613  13.600
19729W        W91258   2.229  21.137   2.052
19730W        W91259  44.139  25.102  10.885
19731W        W91260  40.424  12.124   2.735
19732W        W91261  14.800  26.636   3.573
19733W        W91262  27.529   4.330  10.672
19734W        W91263  10.734  38.888   3.281
19735W        W91264  31.352   8.345   0.190
19736W        W91265  28.671  19.345   3.564
19737W        W91266  22.749   8.303   3.765
19738W        W91267  26.425  17.089  12.176
19739W        W91268  15.215  29.650  11.883
19740W        W91269   8.260  41.341  11.334
19741W        W91270  38.753  43.951  14.983
19742W        W91271  39.011  44.679   2.727
19743W        W91272  24.468  27.725  13.125
19744W        W91273  39.533  16.620  14.885
19745W        W91274  27.029  36.891   3.371
19746W        W91275  24.705  33.374   3.437
19747W        W91276  35.321   7.833   4.562
19748W        W91277  14.627  13.357   3.824
19749W        W91278  28.093   4.747  14.050
19750W        W91279  25.775  34.369   2.781
19751W        W91280  34.940  29.566  14.313
19752W        W91281  40.306  37.538   5.176
19753W        W91282  15.092   0.364   2.237
19754W        W91283   8.300  24.690   1.233
19755W        W91284  17.255  41.455  12.902
19756W        W91285   3.871  31.082  12.150
19757W        W91286   9.234  18.773  10.218
19758W        W91287   5.173  38.166  13.902
19759W        W91288   8.936  28.230   3.108
19760W        W91289  27.097  11.781  13.272
19761W        W91290  18.983  34.925  11.099
19762W        W91291  40.848  12.172   1.289
19763W        W91292   2.388  14.666  13.607
19764W        W91293  38.163   3.145   1.458
19765W        W91294  17.254  18.694   1.873
19766W        W91295  35.052   7.322  13.438
19767W        W91296  25.458   9.154   1.948
19768W        W91297  43.306  16.165   2.480
19769W        W91298   8.101  14.265   5.013
19770W        W91299  12.308  36.037   1.312
19771W        W91300  24.106  41.134   3.572
19772W        W91301  14.377  20.548   0.055
19773W        W91302  32.060   6.327   2.206
19774W        W91303  34.800   3.786  13.801
19775W        W91304   9.802  25.606   0.998
19776W        W91305   5.587   3.877  10.427
19777W        W91306  11.345   4.349  12.151
19778W        W91307  39.798  13.641  14.996
19779W        W91308  19.979  33.311   0.286
19780W        W91309  43.768  39.165   1.743
19781W        W91310  27.475  12.795   0.896
19782W        W91311  27.206  24.904  12.376
19783W        W91312  42.990  33.606   4.023
19784W        W91313  41.284  39.072  11.077
19785W        W91314  20.542   6.109   4.687
19786W        W91315  11.211  28.815  12.472
19787W        W91316  22.294  10.423  11.130
19788W        W91317  23.183   7.765   1.312
19789W        W91318   9.279  29.970   3.202
19790W        W91319  22.058  33.385  14.573
19791W        W91320  14.543  23.213  13.878
19792W        W91321   3.170  15.293   1.773
19793W        W91322   4.639   1.354   4.327
19794W        W91323  26.975  31.936   0.438
19795W        W91324  34.660  14.180  11.197
19796W        W91325  35.932  42.589   0.291
19797W        W91326   4.268  29.117  10.592
19798W        W91327  38.628  25.138  10.893
19799W        W91328  40.941  30.604  14.723
19800W        W91329  28.637  41.011  11.601
19801W        W91330  24.555  27.383   4.943
19802W        W91331  12.251  44.442  11.400
19803W        W91332  23.526  33.836  11.998
19804W        W91333  19.711  25.220  13.886
19805W        W91334  40.942  18.271   3.095
19806W        W91335  19.046  28.896   3.251
19807W        W91336  23.516  18.095  12.384
19808W        W91337  21.709  33.000  11.117
19809W        W91338  16.055  22.137   4.035
19810W        W91339   4.106   6.149  11.968
19811W        W91340   2.561  42.383  10.661
19812W        W91341   6.048  27.912   3.665
19813W        W91342   3.944  25.884  10.765
19814W        W91343  12.917  30.320   1.791
19815W        W91344  38.207  34.492  13.106
19816W        W91345  33.477  38.016   0.908
19817W        W91346  38.035   7.187  10.857
19818W        W91347  44.296  12.631   1.189
19819W        W91348  32.894  18.542   3.642
19820W        W91349  44.317  26.000   2.869
19821W        W91350  38.028  13.432  11.985
19822W        W91351  23.415  35.564  11.145
19823W        W91352   4.184  14.863   4.534
19824W        W91353  39.238  21.274  14.550
19825W        W91354  40.361  40.561  11.587
19826W        W91355  33.900   3.440   0.707
19827W        W91356  15.263  32.043  13.879
19828W        W91357   8.835  38.956   3.716
19829W        W91358   0.460   2.596  13.657
19830W        W91359  34.142  36.473   2.622
19831W        W91360  28.679  14.094   3.917
19832W        W91361   9.272  27.708   4.166
19833W        W91362   8.522  22.919  13.058
19834W        W91363  32.648   1.914   4.267
19835W        W91364  11.227  28.710   0.819
19836W        W91365  33.345  25.342  11.299
19837W        W91366  28.618  37.368   0.281
19838W        W91367   0.347   2.307   3.316
19839W        W91368   5.854  29.024   3.600
19840W        W91369  29.931  39.903  12.041
19841W        W91370   5.929   3.160   4.774
19842W        W91371  16.208  18.878  12.313
19843W        W91372  39.289  11.828  12.600
19844W        W91373  25.805  19.196   3.638
19845W        W91374  15.563   8.247  10.706
19846W        W91375  23.743  20.705   1.966
19847W        W91376  43.974  10.985   4.657
19848W        W91377  39.424  41.167  12.469
19849W        W91378  41.290  42.011   4.131
19850W        W91379  13.775   1.257  11.499
19851W        W91380  21.967  44.359  12.076
19852W        W91381  31.112  27.508  11.256
19853W        W91382  37.978  32.089  12.052
19854W        W91383   8.411  14.197  13.335
19855W        W91384   3.494  41.882   1.865
19856W        W91385  23.028   7.981  12.354
19857W        W91386   5.510  36.449  10.654
19858W        W91387  13.746  25.013   3.743
19859W        W91388  30.452  27.555   0.503
19860W        W91389   7.349   7.607   0.281
19861W        W91390  18.903  22.012   2.896
19862W        W91391   6.989  32.921   4.283
19863W        W91392  28.930  26.183  13.757
19864W        W91393  31.269  17.243  11.280
19865W        W91394   9.579  38.055  11.907
19866W        W91395  34.373  39.177   3.580
19867W        W91396  38.570  20.128   4.782
19868W        W91397   2.652   9.430   1.907
19869W        W91398  24.516   8.201  12.966
19870W        W91399   2.215   2.923  12.674
19871W        W91400   8.562  44.620   2.878
19872W        W91401   9.182  17.639   4.644
19873W        W91402   6.931  16.646   2.917
19874W        W91403   6.722  32.629   3.946
19875W        W91404  23.130  32.997   0.786
19876W        W91405  13.208  28.510  14.775
19877W        W91406  39.891   2.286  13.558
19878W        W91407   5.269  27.857  10.846
19879W        W91408   1.119  19.349   9.623
19880W        W91409  12.864  17.308  13.593
19881W        W91410  41.776   1.190   1.696
19882W        W91411  20.776  13.049   5.043
19883W        W91412   9.392  41.543  11.695
19884W        W91413  30.078  27.710   4.550
19885W        W91414   6.708  21.588  14.907
19886W        W91415  16.366   6.809   2.681
19887W        W91416  14.579   2.017   0.968
19888W        W91417  10.617  19.252  14.042
19889W        W91418  26.599  29.643   0.332
19890W        W91419  42.988  20.009  13.952
19891W        W91420  33.828  28.610   4.991
19892W        W91421  10.721  15.762  13.033
19893W        W91422  31.043  30.965   4.890
19894W        W91423  36.078  44.476  12.926
19895W        W91424  44.922   8.385  13.463
19896W        W91425  16.672  19.787   3.653
19897W        W91426   4.083  32.440   2.727
19898W        W91427  38.422  35.316   4.084
19899W        W91428   6.812  42.854  10.599
19900W        W91429  40.960  19.703   4.183
19901W        W91430  20.188  27.977  13.978
19902W        W91431  44.041   4.998  11.141
19903W        W91432  34.516  15.251   3.019
19904W        W91433  12.556  40.699   4.187
19905W        W91434  24.570  34.434  14.215
19906W        W91435  32.440  31.533  12.621
19907W        W91436  27.056  35.167  11.617
19908W        W91437  10.361  12.124   2.912
19909W        W91438  41.368  23.257   1.674
19910W        W91439  22.221  24.039   0.059
19911W        W91440  31.547  29.234  11.161
19912W        W91441  16.667  36.619   0.534
19913W        W91442  15.180  27.141   0.377
19914W        W91443  13.676   3.243   3.257
19915W        W91444  10.754  28.509   0.745
19916W        W91445  44.942  15.389  13.779
19917W        W91446  11.868  15.321  14.477
19918W        W91447  37.493  39.266   1.949
19919W        W91448  28.098  20.168   0.720
19920W        W91449   1.720  30.499  10.633
19921W        W91450  39.982   7.828   1.805
19922W        W91451  25.763   1.279  10.948
19923W        W91452  34.371  23.487   2.349
19924W        W91453  28.587   7.398  14.370
19925W        W91454  31.152  14.308  12.347
19926W        W91455  11.908  30.110   1.063
19927W        W91456   1.337  14.159   4.850
19928W        W91457  22.132   2.065  11.658
19929W        W91458  42.575  36.951  13.498
19930W        W91459  10.223  41.434   4.100
19931W        W91460  39.550  38.468   1.195
19932W        W91461  25.790  32.600  13.758
19933W        W91462  10.765   2.512   3.609
19934W        W91463  14.053  15.062  10.525
19935W        W91464  36.826  10.561   0.913
19936W        W91465  42.202  36.448   2.131
19937W        W91466  39.888  32.377  13.518
19938W        W91467  11.420  37.905  11.281
19939W        W91468   1.741   1.539  11.581
19940W        W91469  35.939  20.325   1.959
19941W        W91470   9.961  11.735  14.558
19942W        W91471  43.098  43.888  10.770
19943W        W91472  43.708  18.469   2.783
19944W        W91473   1.527  15.552  11.743
19945W        W91474   9.555  33.106   1.590
19946W        W91475  34.862  44.276  13.398
19947W        W91476  13.176  44.459  11.912
19948W        W91477  13.768  20.676  10.656
19949W        W91478  37.566   2.028  10.891
19950W        W91479  26.981  10.739   1.429
19951W        W91480   1.878  43.307  14.033
19952W        W91481  30.208  38.964  11.566
19953W        W91482  13.590  25.015   4.664
19954W        W91483  31.165  15.659  13.784
19955W        W91484  26.104   5.644  11.443
19956W        W91485  39.147  16.938  11.154
19957W        W91486  24.657   6.580   3.503
19958W        W91487  37.346  13.692   0.955
19959W        W91488  21.026  24.144   2.547
19960W        W91489  36.458  34.710   1.909
19961W        W91490  33.489  32.207   3.725
19962W        W91491  30.391  35.823  13.799
19963W        W91492   6.519   4.317  13.408
19964W        W91493  23.453  18.356   1.122
19965W        W91494  24.731  18.436   3.353
19966W        W91495  41.034   4.036   2.691
19967W        W91496  29.723  22.563  11.577
19968W        W91497  43.856  12.101   1.765
19969W        W91498  23.316  15.271  10.989
19970W        W91499  14.549  28.050  11.632
19971W        W91500  19.722   5.237  14.068
19972W        W91501  39.273   6.274   0.311
19973W        W91502   5.982  37.566   1.914
19974W        W91503  26.245  39.365  11.663
19975W        W91504  13.691  16.419   0.475
19976W        W91505  18.964  27.240   2.448
19977W        W91506  18.378  29.052  11.735
19978W        W91507  41.475  22.678  13.563
19979W        W91508   0.401  11.031   4.639
19980W        W91509  33.800  18.138  14.988
19981W        W91510  41.483  21.176  10.892
19982W        W91511  19.734   1.358   0.361
19983W        W91512   9.132  30.494  10.345
19984W        W91513  13.041  18.517  14.219
19985W        W91514  14.835  20.010   4.594
19986W        W91515  22.969  33.933   4.783
19987W        W91516  38.622  21.209   1.752
19988W        W91517  32.650  15.733   3.219
19989W        W91518  19.638  14.342   0.297
19990W        W91519  11.305   6.035   0.477
19991W        W91520  14.205  28.677  12.348
19992W        W91521  41.110  10.176  13.727
19993W        W91522   4.684  32.911   3.210
19994W        W91523  23.947   2.307   0.814
19995W        W91524   6.633   9.114   0.258
19996W        W91525  44.728  40.413  12.009
19997W        W91526   3.978  35.814   3.237
19998W        W91527  27.444  18.796   4.567
19999W        W91528  40.423   5.187   4.704
20000W        W91529  44.299  26.172  10.671
20001W        W91530   3.878   5.964  10.735
20002W        W91531  25.670  16.771  13.010
20003W        W91532  17.256  24.702   2.801
20004W        W91533   9.382   9.855  12.438
20005W        W91534   3.462  12.550   3.747
20006W        W91535   0.398  33.682   0.205
20007W        W91536  18.859   8.266   1.404
20008W        W91537  17.138  14.657   2.304
20009W        W91538  31.566  13.334   3.408
20010W        W91539  42.028  34.850  14.837
20011W        W91540   0.899  36.389   2.847
20012W        W91541  18.045  39.042  14.455
20013W        W91542  20.215  24.480   1.486
20014W        W91543  36.880  14.560  13.064
20015W        W91544   2.559  12.592   2.177
20016W        W91545   1.052   8.571  11.287
20017W        W91546  10.222  12.124  12.496
20018W        W91547  34.095  43.365  14.244
20019W        W91548  15.249  19.699   4.653
20020W        W91549  26.997  33.426   1.703
20021W        W91550  41.733  19.313   2.801
20022W        W91551  18.666  30.220   1.290
20023W        W91552  23.073  35.684   4.146
20024W        W91553  10.887   8.245   1.776
20025W        W91554   1.526  31.906   3.736
20026W        W91555   8.591  33.962  14.188
20027W        W91556   9.901  31.048   1.971
20028W        W91557  24.462  40.022  10.817
20029W        W91558  44.822  24.214  14.449
20030W        W91559  41.492  29.561   1.465
20031W        W91560  32.844   4.257  12.903
20032W        W91561  25.677  43.418   4.865
20033W        W91562  40.004  30.077   1.182
20034W        W91563  17.376  36.883  12.431
20035W        W91564  44.941  11.363  11.187
20036W        W91565   3.286  21.498   3.320
20037W        W91566  26.629   8.751  14.316
20038W        W91567  40.838  32.573   0.431
20039W        W91568  10.289  44.206  11.583
20040W        W91569   5.989   8.917   0.346
20041W        W91570  23.229   7.624   4.073
20042W        W91571  18.672   4.551   0.385
20043W        W91572  34.842  27.647  13.628
20044W        W91573  17.010  23.277   1.376
20045W        W91574  33.120  18.608  11.621
20046W        W91575   2.195  24.166  13.339
20047W        W91576   1.421  39.210  10.598
20048W        W91577  12.166   0.512  12.234
20049W        W91578   0.623  32.547   3.199
20050W        W91579  40.327   5.255   1.924
20051W        W91580   9.408   2.856  11.984
20052W        W91581  18.604  28.627   3.292
20053W        W91582   8.874  42.899   1.284
20054W        W91583  24.015  19.482   2.740
20055W        W91584  34.689   8.752  12.049
20056W        W91585  20.793   4.253   4.862
20057W        W91586  40.965  24.206   4.386
20058W        W91587  26.409  39.310   0.445
20059W        W91588  41.879  41.870  10.643
20060W        W91589  11.690  40.949  12.894
20061W        W91590   6.465  41.855   2.636
20062W        W91591  24.373  26.247   0.963
20063W        W91592  24.065  30.874   0.894
20064W        W91593  41.502  33.891  11.974
20065W        W91594  12.838  40.953   2.865
20066W        W91595  27.457  43.696   0.957
20067W        W91596  26.116  36.807  11.584
20068W        W91597  18.095  39.384  10.691
20069W        W91598  24.959  12.233   2.727
20070W        W91599  35.034  32.940  14.064
20071W        W91600   7.800  39.288   1.392
20072W        W91601  40.327  16.333  11.631
20073W        W91602  13.670   4.022   2.055
20074W        W91603  35.570  25.966   2.126
20075W        W91604   6.157  41.575   2.232
20076W        W91605  20.748  24.835   4.495
20077W        W91606  33.355  17.756  10.983
20078W        W91607   0.354  33.971   1.035
20079W        W91608  41.390  20.778  10.567
20080W        W91609  19.048   9.141  11.165
20081W        W91610   9.792   8.159   1.025
20082W        W91611  24.155  27.116   4.176
20083W        W91612  34.964  44.016   3.330
20084W        W91613   5.413   0.562   3.128
20085W        W91614   7.800   0.477  13.412
20086W        W91615  33.895   3.337   1.716
20087W        W91616  15.191   1.572   0.251
20088W        W91617  13.355  40.844  10.940
20089W        W91618  25.896  13.594   0.406
20090W        W91619  11.739  41.429   4.656
20091W        W91620  40.959  40.868   1.906
20092W        W91621   9.816  33.501   1.817
20093W        W91622  38.418  38.575   3.826
20094W        W91623  38.003  23.351  13.358
20095W        W91624  37.645  21.523  13.147
20096W        W91625  44.708  17.062   1.211
20097W        W91626   3.463  23.104   2.906
20098W        W91627   6.811   2.383   0.464
20099W        W91628  32.975  19.156   4.605
20100W        W91629   3.935   2.391  14.455
20101W        W91630   9.584  33.880  14.407
20102W        W91631  37.505  44.984  14.442
20103W        W91632  14.126  27.578  13.180
20104W        W91633  28.496   8.819  10.935
20105W        W91634   6.738  23.725   2.034
20106W        W91635   4.006  36.905   1.004
20107W        W91636  22.052  33.506   0.506
20108W        W91637  40.002  24.427   4.604
20109W        W91638  32.110   7.342  13.428
20110W        W91639   1.421  17.138   4.316
20111W        W91640   2.357  29.348   2.331
20112W        W91641   1.519  25.418   2.795
20113W        W91642  17.561  34.729   0.781
20114W        W91643  33.107  10.627  12.573
20115W        W91644   9.682  27.925  10.141
20116W        W91645   6.930   2.732  11.158
20117W        W91646  40.966   6.276  14.092
20118W        W91647  13.762   8.221   2.659
20119W        W91648   0.802  13.478   0.626
20120W        W91649  18.576  17.016   2.282
20121W        W91650  17.502  33.480  13.513
20122W        W91651  36.523  30.033   2.190
20123W        W91652  22.077  33.845   2.660
20124W        W91653  16.619  35.684  14.327
20125W        W91654  39.780  34.389  11.641
20126W        W91655   3.914  41.491   2.055
20127W        W91656   8.827  26.445  10.358
20128W        W91657  37.860  23.751   3.166
20129W        W91658  30.168  29.959   4.319
20130W        W91659  32.905  24.222   1.321
20131W        W91660  38.690   6.920  14.912
20132W        W91661  12.627  27.294  11.185
20133W        W91662  42.500  10.370  11.984
20134W        W91663  16.993  23.149  10.037
20135W        W91664  27.917  28.371  14.720
20136W        W91665  31.900  24.567  11.087
20137W        W91666   5.154  14.713  13.182
20138W        W91667  10.474  21.680  10.976
20139W        W91668   8.200  28.913  13.389
20140W        W91669  23.465  29.129   4.085
20141W        W91670   1.470  34.887  14.438
20142W        W91671  13.204  28.808   2.102
20143W        W91672  25.613  42.592   0.949
20144W        W91673  21.329  27.213   1.344
20145W        W91674  26.111   0.653  11.554
20146W        W91675  12.570  40.560   1.840
20147W        W91676   8.043  15.292   0.749
20148W        W91677  13.585  34.272  13.715
20149W        W91678   2.375  31.048   4.518
20150W        W91679  28.961   0.249   0.879
20151W        W91680   8.187  14.350   3.616
20152W        W91681  17.235  44.793   2.456
20153W        W91682  11.592  27.626   2.143
20154W        W91683  33.449  30.185  10.760
20155W        W91684  19.722  20.619  13.961
20156W        W91685  12.821  44.466   2.442
20157W        W91686   1.414  10.995  14.098
20158W        W91687  21.068  19.249  12.114
20159W        W91688  27.187  30.433   0.321
20160W        W91689  38.527  34.700   0.803
20161W        W91690   9.176  33.324   3.100
20162W        W91691  22.033   4.168   4.136
20163W        W91692  14.007  41.813   0.834
20164W        W91693  33.896   4.918   1.892
20165W        W91694  13.647  14.164  14.431
20166W        W91695  26.986  10.206   1.500
20167W        W91696   0.985   7.604  13.998
20168W        W91697  42.273   3.521  14.970
20169W        W91698   5.439  29.083   3.924
20170W        W91699  18.055  20.632  14.822
20171W        W91700   6.751  41.191   1.933
20172W        W91701  21.138  38.103  14.866
20173W        W91702   2.507  44.275   3.210
20174W        W91703  13.152  32.612  12.546
20175W        W91704  29.846  24.514   2.703
20176W        W91705   1.446  25.519   3.713
20177W        W91706  42.000  29.998   3.532
20178W        W91707   7.803  31.714  12.496
20179W        W91708  13.101  34.643   2.875
20180W        W91709  32.685  33.038   4.180
20181W        W91710  30.647  27.173   4.135
20182W        W91711  39.637  24.335  13.924
20183W        W91712   6.720   8.890   2.261
20184W        W91713   4.415   3.855  12.617
20185W        W91714  32.385   1.267  14.771
20186W        W91715  41.974  21.530  11.930
20187W        W91716   8.332   3.299  11.625
20188W        W91717  24.157  35.858  11.395
20189W        W91718  20.332  15.710   0.322
20190W        W91719  31.949  43.472   3.700
20191W        W91720   7.786   2.996   0.471
20192W        W91721  25.032  16.380  13.294
20193W        W91722   5.828  11.940  11.083
20194W        W91723  21.074  38.799   0.312
20195W        W91724  25.041   0.832  14.853
20196W        W91725  36.973   7.165   2.313
20197W        W91726  25.139   2.299  12.977
20198W        W91727  20.739  28.742   4.264
20199W        W91728  10.904   0.873  13.755
20200W        W91729  17.554  34.452   1.544
20201W        W91730  27.031   2.711   4.527
20202W        W91731   7.188  12.066  11.079
20203W        W91732  40.394  37.080   3.613
20204W        W91733  37.912   8.154   4.640
20205W        W91734  29.970  17.614  12.589
20206W        W91735  36.511   3.484   0.688
20207W        W91736  12.315  43.281  10.390
20208W        W91737  22.277  11.705   3.603
20209W        W91738  41.715  37.303   4.318
20210W        W91739  19.033  36.827   4.140
20211W        W91740  23.142  40.003  11.195
20212W        W91741  17.616  27.017   1.510
20213W        W91742   5.808  14.567  11.797
20214W        W91743  42.326   4.343   2.734
20215W        W91744  23.699   3.735  12.831
20216W        W91745   7.760   9.937   3.289
20217W        W91746  41.615   5.786  12.086
20218W        W91747  42.747  40.310  13.504
20219W        W91748   7.261  20.903   4.759
20220W        W91749  43.542  30.849   5.302
20221W        W91750  13.904  36.817   4.051
20222W        W91751  42.389  15.670   2.757
20223W        W91752  41.155   0.426   0.285
20224W        W91753  38.293  36.318  14.389
20225W        W91754  34.482  16.110  10.550
20226W        W91755  22.193  30.926  14.106
20227W        W91756  41.059  39.111   2.266
20228W        W91757  13.327  39.501  13.606
20229W        W91758  28.107  18.699   1.248
20230W        W91759  16.375  12.954   4.036
20231W        W91760  35.846  15.599  14.807
20232W        W91761  17.327  43.247  11.152
20233W        W91762  28.762  22.459  14.339
20234W        W91763  20.764  10.659  13.301
20235W        W91764  42.523  38.068   2.671
20236W        W91765  27.581  19.927  12.008
20237W        W91766  17.289   6.169   1.904
20238W        W91767   5.213  41.890  11.007
20239W        W91768   3.838  11.596  12.754
20240W        W91769  37.693  30.168   1.965
20241W        W91770  31.985  22.505   4.638
20242W        W91771  21.695  38.101  11.984
20243W        W91772   9.225   4.429  14.904
20244W        W91773  41.440  14.794  12.375
20245W        W91774   6.146  34.378  10.749
20246W        W91775  33.405  23.660  14.020
20247W        W91776  12.652   2.170   4.465
20248W        W91777   8.484   4.751  10.375
20249W        W91778  12.497  30.023   1.858
20250W        W91779   0.748   9.329   1.272
20251W        W91780  44.352  21.231  11.227
20252W        W91781  21.103  18.210   3.775
20253W        W91782   1.696   6.815   1.377
20254W        W91783  16.388  41.448   2.233
20255W        W91784  24.022  22.406  13.994
20256W        W91785  21.469  34.101  12.855
20257W        W91786  40.534  19.560   0.686
20258W        W91787  34.427   0.949  10.733
20259W        W91788  35.518  14.631   3.269
20260W        W91789   1.744  44.844  12.023
20261W        W91790   0.726  40.816   1.776
20262W        W91791  16.896  32.635  14.605
20263W        W91792   5.993  29.085   0.333
20264W        W91793  13.411  31.976   0.814
20265W        W91794  44.840  32.754   0.794
20266W        W91795   4.819  33.638   1.735
20267W        W91796   3.669  37.963  10.744
20268W        W91797  22.455  30.105   1.648
20269W        W91798  29.643  22.213   4.083
20270W        W91799  27.438  22.320   0.294
20271W        W91800  36.021  31.389   0.423
20272W        W91801  41.778  34.961  13.462
20273W        W91802  27.885   0.837   1.460
20274W        W91803  41.249  36.012  11.402
20275W        W91804   3.783  36.794   2.280
20276W        W91805  18.532   2.860   4.648
20277W        W91806  40.295  18.997   3.912
20278W        W91807  42.041   6.856  14.756
20279W        W91808  31.483  26.813   4.990
20280W        W91809   3.807   8.217   4.214
20281W        W91810  23.566  39.580  12.863
20282W        W91811  43.037  31.060   0.975
20283W        W91812   9.542   0.224   3.742
20284W        W91813  40.100   9.199  10.924
20285W        W91814   1.285   8.805  14.939
20286W        W91815  12.675  15.198  14.114
20287W        W91816   6.943   3.788  14.720
20288W        W91817   6.422  21.809  14.028
20289W        W91818  23.972  36.526  12.043
20290W        W91819  36.496  32.398  14.991
20291W        W91820  29.089  19.973   3.080
20292W        W91821  44.135   5.276   1.356
20293W        W91822  20.546   6.798  11.236
20294W        W91823  13.775  34.154  12.993
20295W        W91824  18.943  11.592   1.362
20296W        W91825   2.843   3.234  11.461
20297W        W91826  21.664  21.328  12.450
20298W        W91827  40.603  13.000  14.376
20299W        W91828  17.203  10.859  14.598
20300W        W91829  37.157  42.051   0.518
20301W        W91830  19.114  41.965  12.946
20302W        W91831  31.868  26.744   0.893
20303W        W91832  14.630  41.887  10.772
20304W        W91833  35.401   2.486   0.267
20305W        W91834  10.179   2.372  14.976
20306W        W91835  35.578  22.342  13.348
20307W        W91836  44.819  38.390   4.334
20308W        W91837   5.974  16.677   4.117
20309W        W91838   1.228  30.443   3.309
20310W        W91839  28.684   6.682   2.869
20311W        W91840  37.553  21.729  10.892
20312W        W91841   8.969  30.131  14.484
20313W        W91842   2.781   1.855   2.814
20314W        W91843  10.712  34.201   1.229
20315W        W91844   1.256  41.339  13.627
20316W        W91845  30.976  40.769  10.724
20317W        W91846  11.883  13.877   0.959
20318W        W91847  27.553  25.347   0.886
20319W        W91848  31.328  31.012   0.727
20320W        W91849   4.189  25.173   3.811
20321W        W91850  19.311   9.692   2.693
20322W        W91851  24.727  28.436  12.553
20323W        W91852  16.191  15.581   3.666
20324W        W91853   3.822  39.088   4.729
20325W        W91854  14.611  19.788   4.168
20326W        W91855  26.599  30.685   5.162
20327W        W91856  44.986  11.742  12.023
20328W        W91857   2.662   2.014  14.272
20329W        W91858  27.141  33.662   3.193
20330W        W91859  13.570  13.222   0.898
20331W        W91860   3.060  11.680  14.484
20332W        W91861   7.824  43.801  11.342
20333W        W91862  31.930  29.917  14.005
20334W        W91863  35.648  21.283  11.091
20335W        W91864  33.530  33.572   0.937
20336W        W91865  38.434   6.049  12.974
20337W        W91866  31.482  39.388   1.347
20338W        W91867  37.039   8.598  14.809
20339W        W91868  12.352  19.114  11.386
20340W        W91869   2.734  17.294  12.928
20341W        W91870  43.523  12.133  11.700
20342W        W91871  22.198  22.050  13.396
20343W        W91872  20.107  25.135  11.483
20344W        W91873  12.853  35.054  11.769
20345W        W91874  26.919  33.059   5.540
20346W        W91875  37.995  21.308  12.438
20347W        W91876   4.528  42.166  13.931
20348W        W91877  24.620  10.917   3.848
20349W        W91878  32.492  34.441   2.823
20350W        W91879  33.996  44.737   3.776
20351W        W91880  28.674  23.776   3.211
20352W        W91881   3.290  42.629  14.997
20353W        W91882  19.493   2.668   3.645
20354W        W91883  17.306  22.787   0.913
20355W        W91884  44.980  35.492  10.467
20356W        W91885   5.355   6.284   4.195
20357W        W91886  11.340  14.100  14.433
20358W        W91887   2.183  34.554   1.780
20359W        W91888  21.183  36.380  12.013
20360W        W91889   0.923  26.986   2.364
20361W        W91890  40.167   5.922   1.780
20362W        W91891   6.994   4.482   4.047
20363W        W91892  20.779  31.071  14.729
20364W        W91893   3.466  25.712   1.888
20365W        W91894   1.346  16.180   4.384
20366W        W91895   9.226  31.156   4.084
20367W        W91896   6.651  28.006  13.303
20368W        W91897  11.420  29.008  14.171
20369W        W91898  36.306  21.806   2.345
20370W        W91899  14.760  39.006  10.108
20371W        W91900  39.069  10.284  11.959
20372W        W91901   9.184   2.457   3.275
20373W        W91902  39.520   7.054  11.488
20374W        W91903  26.668  44.761  12.599
20375W        W91904  27.060   6.183   2.758
20376W        W91905   3.797   5.459  10.607
20377W        W91906  14.190  11.421   2.010
20378W        W91907   2.655  19.252   3.295
20379W        W91908  11.625  29.238   0.437
20380W        W91909  42.343  44.883   1.697
20381W        W91910  28.618  25.911   2.740
20382W        W91911   9.714  42.334   3.173
20383W        W91912  40.746  43.284  11.389
20384W        W91913   0.205  38.945   3.847
20385W        W91914  39.448  17.591   4.442
20386W        W91915  32.547  23.798   2.962
20387W        W91916  40.404  32.475   2.863
20388W        W91917  21.949  39.346   0.667
20389W        W91918  16.021  14.845  13.769
20390W        W91919   2.346  30.105   0.283
20391W        W91920  16.802  44.836   3.583
20392W        W91921  30.539  26.459  11.105
20393W        W91922   7.453  25.538   4.358
20394W        W91923  34.978  40.460  10.733
20395W        W91924   1.664  43.204   2.307
20396W        W91925   2.447  27.188  13.513
20397W        W91926  41.368  23.957  14.640
20398W        W91927  28.137  21.413  14.794
20399W        W91928  20.106  23.366  11.980
20400W        W91929  44.437  14.923  14.718
20401W        W91930  23.589  32.858  13.092
20402W        W91931  17.997  15.710   1.609
20403W        W91932  18.020   6.313   3.866
20404W        W91933   6.888  17.852  13.914
20405W        W91934  29.991  26.242   4.602
20406W        W91935   1.705   9.802  11.402
20407W        W91936  39.930   1.926   1.435
20408W        W91937  39.952  23.717   2.925
20409W        W91938   4.878  30.800   3.679
20410W        W91939  33.845  38.439   1.420
20411W        W91940  33.375  42.308   4.046
20412W        W91941  44.522   0.601   4.347
20413W        W91942  25.702  28.496  12.384
20414W        W91943  42.513  43.008   3.008
20415W        W91944  39.612   9.631  12.090
20416W        W91945   2.463  30.003  13.344
20417W        W91946  14.756  42.276  13.048
20418W        W91947  24.491  26.333   4.987
20419W        W91948  16.970  26.931  11.910
20420W        W91949  27.891  41.838  10.530
20421W        W91950   6.379  30.399   0.241
20422W        W91951   6.231  35.482   3.539
20423W        W91952   3.522   0.450   4.658
20424W        W91953  11.597  44.017   3.868
20425W        W91954  43.514   1.246  12.078
20426W        W91955  35.403   5.047  14.322
20427W        W91956  18.780  25.144  12.770
20428W        W91957  26.232  37.986  12.790
20429W        W91958  24.407  44.291   3.695
20430W        W91959  23.021   7.180   2.122
20431W        W91960   0.508  22.242   1.343
20432W        W91961  38.394  34.057  10.532
20433W        W91962  12.546  40.554  10.898
20434W        W91963  33.864  15.380  11.416
20435W        W91964  28.079  41.801  13.954
20436W        W91965  10.223  32.941  11.729
20437W        W91966  27.299   1.995   0.958
20438W        W91967  13.731   0.319   2.925
20439W        W91968  32.208  41.955  13.358
20440W        W91969  28.463   8.879  13.927
20441W        W91970   7.888  25.770   3.205
20442W        W91971  34.655  22.519   0.381
20443W        W91972  16.264  34.798   1.695
20444W        W91973   5.160  41.346   5.231
20445W        W91974  38.767  23.853   4.115
20446W        W91975  44.914  13.145   2.775
20447W        W91976   7.746  37.820   4.206
20448W        W91977   9.240   8.177  12.787
20449W        W91978  32.651   2.939  12.365
20450W        W91979  25.924  43.787   4.044
20451W        W91980   3.714  29.474  13.547
20452W        W91981  26.450  18.064  11.672
20453W        W91982  41.290  42.180  12.062
20454W        W91983  34.095   4.976  14.005
20455W        W91984   9.500   1.053  13.793
20456W        W91985  31.452  37.345   0.916
20457W        W91986  28.923  12.335  12.161
20458W        W91987  26.081  15.176  13.811
20459W        W91988  36.468   6.521   0.332
20460W        W91989  13.206  30.886  11.937
20461W        W91990  36.090   5.860  13.937
20462W        W91991  27.584  35.821  13.895
20463W        W91992  39.999  28.072   4.688
20464W        W91993  44.222  12.259  10.588
20465W        W91994  18.837  44.806  10.718
20466W        W91995  39.686  31.153   4.611
20467W        W91996  34.440  27.215   4.536
20468W        W91997   8.845  25.728  12.045
20469W        W91998  34.521  11.265   0.913
20470W        W91999  22.196  29.963   2.443
20471W        W92000   3.373  11.255   4.790
20472W        W92001  15.887  24.164  14.744
20473W        W92002  27.524   2.741  13.037
20474W        W92003   4.829   2.249  13.487
20475W        W92004  12.203  34.321  12.044
20476W        W92005  25.577  18.516   4.072
20477W        W92006  12.577   4.535  14.265
20478W        W92007  13.634  31.980  11.477
20479W        W92008  39.516  25.299  14.397
20480W        W92009  19.159  33.881  12.160
20481W        W92010  16.031  15.725  14.947
20482W        W92011   8.352   9.209   4.522
20483W        W92012   7.980   4.139   4.081
20484W        W92013  38.749   8.152   4.621
20485W        W92014   0.593   9.236   4.904
20486W        W92015  20.225  23.202   1.101
20487W        W92016  39.832  31.275  11.078
20488W        W92017  34.129  23.344   3.533
20489W        W92018  43.958  30.351  13.822
20490W        W92019  24.622  31.957   1.402
20491W        W92020  12.739  13.840  12.400
20492W        W92021  41.673  27.646  14.028
20493W        W92022  20.729   6.830   0.442
20494W        W92023  19.756  28.692  12.015
20495W        W92024  36.281  23.973  14.564
20496W        W92025  25.906  34.149   1.886
20497W        W92026  10.089  33.837  14.557
20498W        W92027  20.627  36.058   0.364
20499W        W92028  32.452  21.076  10.824
20500W        W92029  18.131  15.691   2.642
20501W        W92030  22.756  44.907   0.799
20502W        W92031  19.749  43.634   0.046
20503W        W92032  41.310  31.606   3.505
20504W        W92033  19.393  37.282  14.237
20505W        W92034  44.410  24.763   2.341
20506W        W92035  18.620  10.797  12.468
20507W        W92036  26.629  40.071   0.509
20508W        W92037  32.614   7.015   4.334
20509W        W92038  25.509  16.754  11.163
20510W        W92039   5.629  23.294   3.142
20511W        W92040  38.977  39.361  10.600
20512W        W92041   2.317  19.664  13.589
20513W        W92042  12.460  15.657   1.597
20514W        W92043   4.782  27.220  12.890
20515W        W92044   8.703  35.334  11.551
20516W        W92045  28.044  31.184  12.867
20517W        W92046  38.532   9.551   4.747
20518W        W92047   7.793  34.528   4.784
20519W        W92048   8.399  40.589   4.339
20520W        W92049  36.862  30.509  12.977
20521W        W92050   6.915  16.319   0.765
20522W        W92051  44.526   1.087   4.565
20523W        W92052  43.749  36.933   4.065
20524W        W92053  22.930  36.401  12.139
20525W        W92054   1.332  44.995   0.052
20526W        W92055  32.446  23.440   1.339
20527W        W92056  21.836  22.250  10.547
20528W        W92057  36.542  12.897   1.145
20529W        W92058  37.475   7.988   3.676
20530W        W92059  12.474  21.120   2.226
20531W        W92060   5.263   0.834   1.217
20532W        W92061  24.052  14.473   4.564
20533W        W92062  38.914  36.908  10.812
20534W        W92063   2.399  42.044  14.933
20535W        W92064  14.319  16.169   1.364
20536W        W92065  22.547  35.586  11.998
20537W        W92066  11.748  23.262  13.926
20538W        W92067  35.373   8.421  10.657
20539W        W92068  17.126   7.693   0.900
20540W        W92069  32.028  37.503   3.415
20541W        W92070  19.872  18.751   4.495
20542W        W92071  18.535  40.145  11.512
20543W        W92072  30.555  26.022   2.375
20544W        W92073  10.674  23.382  13.034
20545W        W92074   6.646  15.637  12.530
20546W        W92075  37.494  18.710  12.214
20547W        W92076  12.145   7.221   3.316
20548W        W92077  39.230  26.653  14.249
20549W        W92078  44.236   6.577   1.856
20550W        W92079  41.993  42.806   4.941
20551W        W92080  33.998  29.687   1.331
20552W        W92081  43.877  11.616  11.065
20553W        W92082  31.741  37.391   1.360
20554W        W92083   2.754  17.657  11.184
20555W        W92084  10.078   8.784  10.669
20556W        W92085  23.504   3.232  14.729
20557W        W92086   9.642  36.350   0.396
20558W        W92087  29.593  16.564  13.938
20559W        W92088   1.888  23.978   1.880
20560W        W92089  36.496  21.130  13.851
20561W        W92090  26.680   4.834  10.221
20562W        W92091   5.745  32.800   4.803
20563W        W92092  18.974  30.302   4.414
20564W        W92093  34.382   7.148  14.915
20565W        W92094   6.571  37.835  11.041
20566W        W92095   0.814  18.903  14.299
20567W        W92096  40.320  25.692   0.355
20568W        W92097  32.354  13.293   2.579
20569W        W92098   1.403  31.550  11.686
20570W        W92099  43.498   8.441  11.231
20571W        W92100  35.576  31.858  13.384
20572W        W92101  35.462  20.669   4.562
20573W        W92102   8.832  22.574  14.983
20574W        W92103  19.768  30.898  13.350
20575W        W92104  30.885   4.426  14.473
20576W        W92105  20.307  32.831   3.624
20577W        W92106  39.486  33.098  11.419
20578W        W92107  15.704  13.399   0.998
20579W        W92108  10.316  20.981   1.299
20580W        W92109  20.624  37.594   2.892
20581W        W92110  20.585  28.708  12.946
20582W        W92111  11.639  23.461  11.116
20583W        W92112   1.048  18.189   2.558
20584W        W92113  24.228  13.891   3.840
20585W        W92114  13.237   8.132   2.775
20586W        W92115   7.750  12.214  12.563
20587W        W92116  39.840  14.375   0.927
20588W        W92117   6.382   2.167  14.379
20589W        W92118  20.576   0.431  10.973
20590W        W92119  28.951   1.654   4.376
20591W        W92120  11.251  38.913   4.260
20592W        W92121  11.942  24.833   1.834
20593W        W92122  44.004   8.246   2.122
20594W        W92123  42.649  38.498  14.691
20595W        W92124  14.367  17.220   4.017
20596W        W92125  18.321  21.887  11.221
20597W        W92126  24.088  22.635   4.638
20598W        W92127  13.586  22.539  11.497
20599W        W92128  29.095  34.228   4.913
20600W        W92129   7.153   6.751  13.279
20601W        W92130  22.628   2.715  11.909
20602W        W92131   8.266  21.126  11.896
20603W        W92132  27.048   3.745  11.922
20604W        W92133  40.244  25.610  11.217
20605W        W92134  29.101  43.510   3.326
20606W        W92135  35.012   4.166   2.367
20607W        W92136  17.694  24.115   1.179
20608W        W92137  14.359  15.570   3.806
20609W        W92138   3.206  37.379  12.497
20610W        W92139   2.724  36.714  13.970
20611W        W92140   5.617   8.343   3.903
20612W        W92141  31.557  14.843  13.772
20613W        W92142  14.581  23.739  14.623
20614W        W92143  17.290  36.388   1.183
20615W        W92144  35.429  29.085   1.886
20616W        W92145  11.393   2.814   0.826
20617W        W92146  18.782   1.030  12.004
20618W        W92147  20.162  40.010  12.511
20619W        W92148   5.179  32.372  11.672
20620W        W92149  24.063   3.502  12.543
20621W        W92150  16.116  32.693  13.026
20622W        W92151  23.043  17.073   3.144
20623W        W92152  38.284  24.615   4.022
20624W        W92153  29.032  38.117   0.842
20625W        W92154  28.411  32.302   1.404
20626W        W92155   5.348  14.708   3.703
20627W        W92156  11.336  29.871   3.240
20628W        W92157  15.817  25.693  10.703
20629W        W92158  12.831  17.931   3.111
20630W        W92159   6.739  13.016   0.403
20631W        W92160  17.895   9.678  13.607
20632W        W92161  21.161  18.354  11.144
20633W        W92162  19.601   2.491   0.944
20634W        W92163  23.741  40.560   2.419
20635W        W92164  35.279  12.966   0.289
20636W        W92165  15.222  17.772  14.766
20637W        W92166  44.466  20.757   3.182
20638W        W92167  26.559  23.987  13.296
20639W        W92168   7.305  19.740   4.690
20640W        W92169  28.004  24.335   4.977
20641W        W92170  17.318  18.575   2.853
20642W        W92171  12.258   0.946   4.930
20643W        W92172  33.838  41.503  11.566
20644W        W92173  36.558  44.039  10.582
20645W        W92174   5.909  31.892  13.867
20646W        W92175  21.103  26.890   2.779
20647W        W92176  44.986  23.686  10.640
20648W        W92177  42.318  31.521   0.288
20649W        W92178  41.943   8.113   0.996
20650W        W92179  13.863  26.055   2.183
20651W        W92180  44.287   9.440   3.223
20652W        W92181   4.336   6.399   0.435
20653W        W92182  42.126   2.835  11.150
20654W        W92183  21.646   4.973   1.443
20655W        W92184   8.973  10.304  11.135
20656W        W92185   4.141  19.416  10.244
20657W        W92186  31.210  10.098   2.214
20658W        W92187  16.618  31.891   1.665
20659W        W92188  32.690  13.240  13.974
20660W        W92189  39.108  20.497   2.597
20661W        W92190   4.405  38.944  13.925
20662W        W92191  18.127   6.231   4.363
20663W        W92192  26.352   8.433   3.235
20664W        W92193   5.225  43.074  14.544
20665W        W92194  33.483  28.740  13.980
20666W        W92195  44.009  41.724  10.790
20667W        W92196  25.949  38.999   0.782
20668W        W92197  39.879  20.790   2.270
20669W        W92198  14.034  44.792  12.926
20670W        W92199  12.726  19.970  12.891
20671W        W92200  38.028  28.142  11.563
20672W        W92201  11.296  14.495  13.205
20673W        W92202  35.999   1.515  12.945
20674W        W92203   2.238  21.721   2.347
20675W        W92204  24.252   2.282  11.147
20676W        W92205   2.699  24.153   0.487
20677W        W92206  17.240  16.608  11.143
20678W        W92207  21.699  11.017  12.375
20679W        W92208  16.806  42.077  10.633
20680W        W92209   8.205  11.165   3.803
20681W        W92210  21.162  19.713   4.403
20682W        W92211  20.032   0.478  14.010
20683W        W92212  42.303  26.704   2.425
20684W        W92213  24.142   4.825  10.739
20685W        W92214  13.641  30.640  10.505
20686W        W92215  16.272  34.054   4.577
20687W        W92216  24.322   8.624   2.453
20688W        W92217  38.615   4.839   2.328
20689W        W92218  22.621  13.705   1.349
20690W        W92219  33.443  39.535   3.923
20691W        W92220  33.099  13.823   4.131
20692W        W92221  25.715  36.699  12.977
20693W        W92222  16.310  27.468  12.590
20694W        W92223  12.710  16.287   0.324
20695W        W92224  24.616  42.567  13.892
20696W        W92225  14.185  34.605   0.037
20697W        W92226  10.175  43.013   0.382
20698W        W92227  15.974  44.862   1.337
20699W        W92228  20.224  29.151   1.099
20700W        W92229   8.747  31.221   0.868
20701W        W92230  40.030  17.493  10.986
20702W        W92231  43.324   5.973   4.894
20703W        W92232  40.154   6.499  13.868
20704W        W92233   5.907  43.910  12.784
20705W        W92234  15.752  35.422  14.138
20706W        W92235  20.623  34.016   4.396
20707W        W92236  21.046  10.810  14.573
20708W        W92237  30.580  44.700   2.652
20709W        W92238  32.832  20.105  12.179
20710W        W92239  39.992  16.493  11.231
20711W        W92240   4.304  35.121  13.347
20712W        W92241  21.285  44.435   4.959
20713W        W92242  19.066   8.535  12.917
20714W        W92243   4.513  21.609   4.633
20715W        W92244  25.139  21.223  14.761
20716W        W92245  24.995  40.306  12.964
20717W        W92246  40.033   0.162  11.312
20718W        W92247   1.773   1.654  14.507
20719W        W92248  27.484  20.639  13.924
20720W        W92249  17.275  44.925  11.832
20721W        W92250  13.560  29.050   1.838
20722W        W92251  22.085  38.059   2.736
20723W        W92252  40.108  11.854   4.659
20724W        W92253  44.300  24.264  14.441
20725W        W92254  28.996  31.545   4.194
20726W        W92255  27.209  13.310   3.821
20727W        W92256  13.677  28.191   2.917
20728W        W92257  22.714  25.950   4.130
20729W        W92258  40.275  14.311   1.265
20730W        W92259  19.556  17.833  12.510
20731W        W92260  15.564  24.663   0.448
20732W        W92261   6.188  35.692  13.572
20733W        W92262  39.555  39.733  14.303
20734W        W92263  17.300  37.386  12.367
20735W        W92264   4.502  29.649  14.021
20736W        W92265  37.913  15.782   0.364
20737W        W92266  26.321   0.823   1.810
20738W        W92267  34.142  29.902   4.116
20739W        W92268  18.321  41.859   3.865
20740W        W92269   2.878   2.122  14.771
20741W        W92270  11.380  29.655  13.165
20742W        W92271   8.608   3.455  14.982
20743W        W92272  34.961  28.312   0.903
20744W        W92273  29.459  21.329   1.774
20745W        W92274  23.315  41.358  11.498
20746W        W92275  36.191  15.201   1.881
20747W        W92276  38.843  28.437  12.876
20748W        W92277  40.025   3.695  13.434
20749W        W92278  25.192  26.562   0.985
20750W        W92279  21.597  23.047  11.129
20751W        W92280  25.427  38.308   4.740
20752W        W92281  29.850   2.179  13.897
20753W        W92282  44.318  14.035  14.087
20754W        W92283  34.930  44.893   3.428
20755W        W92284  40.685  39.356  12.829
20756W        W92285   1.464  15.681  12.859
20757W        W92286  44.601  24.690  14.255
20758W        W92287   5.201  23.322  14.426
20759W        W92288  19.166  12.731  11.259
20760W        W92289   3.925  21.620   0.678
20761W        W92290  19.011   7.782   1.265
20762W        W92291  39.610  41.461   2.241
20763W        W92292   6.624   3.510   4.132
20764W        W92293  17.690  11.710   1.474
20765W        W92294  41.741  31.141   1.418
20766W        W92295   2.485  40.883   0.943
20767W        W92296  41.840  30.575   0.207
20768W        W92297   8.392  16.656  13.438
20769W        W92298  40.822  38.490  13.486
20770W        W92299  28.668  12.053  13.072
20771W        W92300  42.219  42.465  14.800
20772W        W92301  39.360  37.991   2.784
20773W        W92302   2.631  15.434  14.003
20774W        W92303   8.790   4.820   4.573
20775W        W92304  19.086   2.339  13.049
20776W        W92305  28.825   3.149   4.075
20777W        W92306  30.655  17.043   3.229
20778W        W92307  19.185  44.429  11.193
20779W        W92308   6.391  32.583  12.985
20780W        W92309  10.424  25.007   0.748
20781W        W92310  26.735  39.072   2.234
20782W        W92311  10.268   7.695  11.440
20783W        W92312   2.215   8.308   4.992
20784W        W92313  42.134   1.471  10.257
20785W        W92314  38.228  32.896   1.264
20786W        W92315  22.910  13.846   0.826
20787W        W92316  17.688  24.664  13.535
20788W        W92317  20.672  18.307   2.683
20789W        W92318   8.051  35.347   0.718
20790W        W92319  30.216  21.237   2.790
20791W        W92320   2.905  32.501   4.729
20792W        W92321  34.185  24.522   0.790
20793W        W92322  18.431   9.635  11.447
20794W        W92323  19.250  37.608   5.081
20795W        W92324   4.787  18.276  11.562
20796W        W92325  13.150  38.774  10.191
20797W        W92326   1.807  25.442   0.430
20798W        W92327  12.301  35.910  14.363
20799W        W92328   1.163  44.968  13.610
20800W        W92329   3.053  20.538   1.482
20801W        W92330   1.718  42.697   2.257
20802W        W92331   9.221  13.644  10.620
20803W        W92332  19.717  30.457   1.013
20804W        W92333  42.922  44.717   2.831
20805W        W92334   6.067   7.848  10.757
20806W        W92335  25.172   4.989   2.565
20807W        W92336   7.462  41.753  14.009
20808W        W92337   9.813   2.334   0.338
20809W        W92338  17.876   4.375   1.476
20810W        W92339   5.248  30.566  12.601
20811W        W92340  40.239  32.933  11.021
20812W        W92341  39.854  22.037   4.427
20813W        W92342  36.371  17.460  14.377
20814W        W92343   8.230  20.253  12.428
20815W        W92344  21.974  14.741   0.866
20816W        W92345  13.216  21.888  10.422
20817W        W92346  11.806  24.296   1.769
20818W        W92347  30.050  31.062  14.875
20819W        W92348  11.442  39.968   2.293
20820W        W92349  21.518  22.323  10.143
20821W        W92350   1.160   2.464  12.985
20822W        W92351  34.865  17.860   0.893
20823W        W92352  15.330  38.873  10.492
20824W        W92353   1.272  19.093  14.974
20825W        W92354  15.685   4.294  12.951
20826W        W92355   3.405   3.606  13.584
20827W        W92356   5.062  24.581  13.190
20828W        W92357  15.695  43.310   1.436
20829W        W92358  23.104  40.564   3.230
20830W        W92359  31.174   4.913   2.155
20831W        W92360  44.334  40.539   1.803
20832W        W92361  34.504  40.519   4.308
20833W        W92362  14.097  32.135   1.808
20834W        W92363  36.790  44.747   4.623
20835W        W92364  10.161  23.037   1.189
20836W        W92365  19.370  26.942  11.418
20837W        W92366  38.344  35.436  11.918
20838W        W92367  12.313   1.475   2.843
20839W        W92368  17.744  11.618   4.070
20840W        W92369  15.838  44.316   2.793
20841W        W92370  13.193  39.632  14.393
20842W        W92371  26.925  25.192  12.719
20843W        W92372   4.863  28.544   3.396
20844W        W92373  20.963  19.541  12.920
20845W        W92374   4.137  17.340   4.250
20846W        W92375  15.462  32.645   4.155
20847W        W92376  30.016   6.398  14.386
20848W        W92377  13.918  40.112   5.155
20849W        W92378  35.651   8.727  14.360
20850W        W92379  34.468  12.366  11.137
20851W        W92380  30.170  44.979   1.304
20852W        W92381  20.254  19.928   3.859
20853W        W92382  32.449   1.328   0.812
20854W        W92383  12.710  12.836   4.866
20855W        W92384  14.662  40.986   2.782
20856W        W92385  40.573  30.703   4.105
20857W        W92386  31.470  31.974  14.407
20858W        W92387  15.843   9.864  10.877
20859W        W92388  30.946  22.778   3.303
20860W        W92389  16.499  31.491  14.743
20861W        W92390  36.824   4.962  13.407
20862W        W92391  40.381  15.295   0.726
20863W        W92392  26.556  39.493  10.952
20864W        W92393  40.801  14.551  12.193
20865W        W92394  26.015  12.763   0.808
20866W        W92395  16.302   9.560  11.645
20867W        W92396  15.003  33.016  12.371
20868W        W92397  19.565  23.444   3.692
20869W        W92398  28.926  16.365  11.461
20870W        W92399  25.001   5.786   4.324
20871W        W92400  23.965  15.607   1.660
20872W        W92401  25.151   1.486   3.022
20873W        W92402  41.430  25.926   3.060
20874W        W92403   9.219  34.233   2.779
20875W        W92404  44.012  31.424  12.958
20876W        W92405   9.172  15.312   3.657
20877W        W92406  24.619   2.172   2.808
20878W        W92407   3.459   0.730   5.154
20879W        W92408  21.262   5.402   2.677
20880W        W92409  10.990  32.271   2.338
20881W        W92410  16.186  35.702  12.005
20882W        W92411  26.520  19.660   0.976
20883W        W92412   0.840  11.232   4.843
20884W        W92413  31.073  23.361  13.499
20885W        W92414  34.484  37.309   1.796
20886W        W92415  25.214  34.977   4.554
20887W        W92416  11.238  12.904  11.059
20888W        W92417  40.594   1.731  10.333
20889W        W92418  29.119  13.942  12.980
20890W        W92419  22.188  15.250  10.974
20891W        W92420  41.479  16.598  13.601
20892W        W92421  39.852  41.637   3.297
20893W        W92422   8.338   3.809  12.420
20894W        W92423  38.841  35.644   4.148
20895W        W92424  24.954  25.914   0.301
20896W        W92425  38.438  35.511   2.273
20897W        W92426  23.194  15.336   2.804
20898W        W92427   4.224  11.077   2.848
20899W        W92428  31.337  35.175   0.265
20900W        W92429   5.222  43.361   0.516
20901W        W92430  22.550  22.496   0.279
20902W        W92431   9.321  36.801   1.881
20903W        W92432  27.145  14.860  14.531
20904W        W92433  27.586   0.275  12.473
20905W        W92434  17.527  34.522   3.888
20906W        W92435  36.796  13.728  11.154
20907W        W92436  15.512   0.472  14.447
20908W        W92437  10.356   1.879  13.766
20909W        W92438  19.603  42.598   1.947
20910W        W92439   5.417  16.640   2.708
20911W        W92440  32.937  38.789   1.798
20912W        W92441  42.711  31.167  14.376
20913W        W92442   9.340  28.617   3.132
20914W        W92443  13.799  22.086   3.052
20915W        W92444  15.507  23.788   0.076
20916W        W92445  26.897  28.483  13.433
20917W        W92446   3.080  14.579  14.248
20918W        W92447  29.111  17.200   4.052
20919W        W92448   0.957   4.792   4.175
20920W        W92449  28.047  20.074   1.213
20921W        W92450  41.007  23.459   2.233
20922W        W92451  40.480  13.147   1.443
20923W        W92452  14.872  28.588  13.763
20924W        W92453  13.067  25.676   1.771
20925W        W92454  35.039  31.897  13.071
20926W        W92455  39.494   8.560   4.561
20927W        W92456  22.467  41.509  12.050
20928W        W92457  14.049  30.469  10.816
20929W        W92458   8.332  27.071   2.482
20930W        W92459   0.196   3.128  12.401
20931W        W92460  24.938   1.346   0.501
20932W        W92461  24.224  44.519  12.459
20933W        W92462  14.057  13.679   3.201
20934W        W92463  17.029   4.771  10.741
20935W        W92464  35.814  37.827   0.031
20936W        W92465   7.857   1.387  10.901
20937W        W92466  37.493  20.118  13.926
20938W        W92467  19.650   3.188   2.097
20939W        W92468  15.177  28.912  12.053
20940W        W92469  43.862  32.597  10.613
20941W        W92470  13.113  43.467  12.047
20942W        W92471   1.987  31.188  12.973
20943W        W92472   3.398   3.214   3.830
20944W        W92473   3.925  43.427  13.823
20945W        W92474   8.284  32.957  14.294
20946W        W92475   1.733  19.064  13.994
20947W        W92476  19.583  10.896  11.674
20948W        W92477  40.696   4.440  13.601
20949W        W92478  40.126  16.600  14.778
20950W        W92479  38.965  29.828   0.527
20951W        W92480   7.100  36.013   3.661
20952W        W92481  32.244   0.788  13.249
20953W        W92482  43.286  22.028   2.700
20954W        W92483  27.969  20.311   3.184
20955W        W92484  18.546  21.408   1.813
20956W        W92485  22.067  18.355   2.758
20957W        W92486   4.734  36.969   4.707
20958W        W92487  13.614  20.237  12.113
20959W        W92488   1.768  23.093  11.538
20960W        W92489  39.553  10.690   2.374
20961W        W92490   1.770  14.199  11.971
20962W        W92491  15.592  15.153   3.091
20963W        W92492  10.456  37.868   2.826
20964W        W92493   5.452  14.388  13.482
20965W        W92494  22.596   5.027   0.755
20966W        W92495   5.787  29.714  11.964
20967W        W92496  23.780  35.660   4.880
20968W        W92497  34.049   6.971   2.743
20969W        W92498  20.179  20.796  11.049
20970W        W92499  13.228   7.525  10.258
20971W        W92500  12.495  42.675   1.274
20972W        W92501   9.758  37.233   3.504
20973W        W92502  42.327  22.584   1.333
20974W        W92503  43.862  24.542  13.491
20975W        W92504  20.042  19.226   0.839
20976W        W92505  41.666  16.954  11.066
20977W        W92506  35.630  42.131   3.202
20978W        W92507  30.456   7.790  14.303
20979W        W92508  18.944  40.525   4.187
20980W        W92509   6.121   9.110   1.854
20981W        W92510  29.899  29.322  13.297
20982W        W92511   1.211   8.316   3.650
20983W        W92512  22.412  21.383  12.505
20984W        W92513  12.729  27.143   2.647
20985W        W92514  10.784   5.280   2.489
20986W        W92515  19.146  20.255   0.964
20987W        W92516   6.593   0.894  14.480
20988W        W92517   5.123   5.204  10.852
20989W        W92518  28.729  20.927   4.470
20990W        W92519  35.631  35.403  12.973
20991W        W92520   6.653  16.323   4.592
20992W        W92521  22.070  15.692  10.397
20993W        W92522  30.967  28.455  13.544
20994W        W92523  26.504   6.562   4.135
20995W        W92524  40.794  26.080  13.924
20996W        W92525   8.116  34.627   3.714
20997W        W92526   0.924  14.592  11.168
20998W        W92527   2.643  30.873   2.828
20999W        W92528  16.223   5.939  14.062
21000W        W92529   8.067  19.764  12.365
21001W        W92530  40.304  16.725  13.018
21002W        W92531   6.311  43.533  10.848
21003W        W92532  38.823  42.048   3.778
21004W        W92533  43.251  15.661   0.766
21005W        W92534  28.701  35.238   0.869
21006W        W92535  21.065   9.201  14.073
21007W        W92536   2.454  31.219   0.375
21008W        W92537  34.755  38.794  13.507
21009W        W92538  21.560   2.195   4.710
21010W        W92539  41.515  15.728   4.559
21011W        W92540  28.474  27.563   4.239
21012W        W92541  41.823  38.649  12.603
21013W        W92542  44.677  38.717   5.101
21014W        W92543   3.896  16.603   2.356
21015W        W92544   5.325  29.816   3.827
21016W        W92545  18.044  37.837  11.617
21017W        W92546  21.035  44.249  11.015
21018W        W92547   3.561  23.615   1.672
21019W        W92548  15.654  33.705   1.238
21020W        W92549  33.446  35.975   3.696
21021W        W92550  22.647   1.320   3.807
21022W        W92551   4.678   0.739  14.371
21023W        W92552  42.172  16.149   0.094
21024W        W92553  13.224  27.851  10.279
21025W        W92554  38.457  42.442   2.438
21026W        W92555  12.134  33.936   0.151
21027W        W92556   0.457  32.422   1.741
21028W        W92557  23.234   5.324  14.513
21029W        W92558  10.559  29.526   1.920
21030W        W92559   5.567  21.506  14.990
21031W        W92560  42.757  22.482  11.555
21032W        W92561   8.269   1.234   0.310
21033W        W92562  27.968  23.066  14.202
21034W        W92563  42.346  38.795  12.498
21035W        W92564  43.986  24.463   0.714
21036W        W92565   5.400  40.385   4.833
21037W        W92566   1.572   1.001  13.086
21038W        W92567  31.228  39.771  10.735
21039W        W92568  31.907  12.147  12.382
21040W        W92569   6.278  30.490   2.408
21041W        W92570  28.108  30.115   1.399
21042W        W92571  17.649   3.899   4.516
21043W        W92572  44.686  20.634  14.295
21044W        W92573  31.252  42.233   1.735
21045W        W92574  23.681   4.635  10.832
21046W        W92575  19.875  30.373  13.348
21047W        W92576  12.215  37.340   1.743
21048W        W92577  13.523   0.437   5.509
21049W        W92578  12.051  40.035   3.376
21050W        W92579  18.818  27.724  13.381
21051W        W92580  33.214  22.238   3.706
21052W        W92581  39.278   0.569   2.742
21053W        W92582  36.381  25.467  12.691
21054W        W92583  44.091   0.727   4.111
21055W        W92584  34.081  44.351  14.905
21056W        W92585  26.470  13.982   4.552
21057W        W92586   1.050   7.106   1.853
21058W        W92587  32.006  12.867  12.963
21059W        W92588  41.698  13.716  11.641
21060W        W92589   0.792   5.743  13.879
21061W        W92590   5.545  41.333  14.166
21062W        W92591  28.485  13.381  11.504
21063W        W92592  15.044  11.305   1.622
21064W        W92593  41.291  26.407   4.201
21065W        W92594  11.814  38.571   3.641
21066W        W92595   9.808  43.068   2.958
21067W        W92596  16.128  14.794   2.563
21068W        W92597  18.493  11.678   4.819
21069W        W92598  38.853   0.327  13.420
21070W        W92599   6.771  27.798   0.116
21071W        W92600  30.286  37.130  13.424
21072W        W92601  22.184  25.407   1.203
21073W        W92602  36.524  14.821   4.631
21074W        W92603  21.711  28.635   4.675
21075W        W92604   4.062  22.442   4.578
21076W        W92605  10.612  17.087   1.236
21077W        W92606  44.425  27.540   0.247
21078W        W92607  10.832  27.007   2.205
21079W        W92608   8.754  37.062  11.905
21080W        W92609  28.673  12.407  11.639
21081W        W92610  39.453   6.409   3.432
21082W        W92611   6.129  29.146   2.279
21083W        W92612  11.049  21.041   4.691
21084W        W92613  38.275   5.920   0.343
21085W        W92614  42.703  30.474  10.335
21086W        W92615  19.248   8.112  13.100
21087W        W92616  41.233   6.377  10.932
21088W        W92617  28.677  32.368   5.450
21089W        W92618  17.240   4.818   0.776
21090W        W92619  21.626   3.839   4.418
21091W        W92620  41.317  33.754   3.306
21092W        W92621  27.561  44.259   4.488
21093W        W92622  21.444  38.170  10.747
21094W        W92623  11.211   1.817   1.266
21095W        W92624  39.443  44.286  12.105
21096W        W92625  24.056  42.945  11.237
21097W        W92626  28.756  18.847  11.584
21098W        W92627  43.755  23.499  12.466
21099W        W92628  11.409  13.250  10.693
21100W        W92629  31.123   2.721   3.718
21101W        W92630   4.482  26.501   1.252
21102W        W92631  29.100  12.570  10.482
21103W        W92632  29.144  41.411  14.435
21104W        W92633  39.022   4.606   4.979
21105W        W92634   4.544  14.425  13.020
21106W        W92635  20.180  37.387   3.065
21107W        W92636  13.229  25.089   0.976
21108W        W92637  27.941  35.612   3.300
21109W        W92638  12.231  19.700   0.782
21110W        W92639  13.613  10.948   1.531
21111W        W92640   0.043   5.475   2.971
21112W        W92641  24.977   3.224  11.074
21113W        W92642  31.616  39.482  11.636
21114W        W92643  34.969   6.704  10.773
21115W        W92644  16.538   2.753  11.960
21116W        W92645  35.684  17.980   2.732
21117W        W92646  15.638  23.758   2.553
21118W        W92647  26.716  40.909  12.856
21119W        W92648  12.821   0.254  13.418
21120W        W92649  39.893  27.457  13.495
21121W        W92650  18.991  20.548   1.920
21122W        W92651   6.701   4.803  10.676
21123W        W92652   2.247  33.894  14.023
21124W        W92653  29.459  44.236  12.148
21125W        W92654  14.819  15.807   3.739
21126W        W92655  23.680  21.573  12.972
21127W        W92656  22.739  40.406  13.594
21128W        W92657  34.386   7.318  10.798
21129W        W92658  11.702  10.141   4.218
21130W        W92659  43.320  44.457   4.100
21131W        W92660   4.065  35.383   1.471
21132W        W92661   0.206   5.903   1.807
21133W        W92662  33.531  42.463   4.504
21134W        W92663  36.929  18.154   0.237
21135W        W92664  35.254  26.880  12.587
21136W        W92665  28.085  37.258  14.048
21137W        W92666  22.490  15.567   1.706
21138W        W92667  14.903   4.958  12.822
21139W        W92668  24.203  14.165  13.962
21140W        W92669  19.035  29.040   0.412
21141W        W92670  28.737  12.551   3.987
21142W        W92671   7.957  11.965  12.091
21143W        W92672  33.667  11.310  12.953
21144W        W92673  33.042  41.283   4.174
21145W        W92674  14.896  24.071  13.977
21146W        W92675   3.909   5.800   2.544
21147W        W92676  19.318  13.695  13.423
21148W        W92677  33.503  21.613  13.362
21149W        W92678  10.589  18.358   4.548
21150W        W92679  11.222   2.322   3.835
21151W        W92680  15.861   7.577  11.176
21152W        W92681  10.702  10.842   0.800
21153W        W92682  14.194  35.212  11.586
21154W        W92683  26.143  37.569   0.387
21155W        W92684  33.055  19.028   3.746
21156W        W92685  17.255  12.211  13.354
21157W        W92686  19.479  44.953  11.901
21158W        W92687  36.525  16.727  11.676
21159W        W92688   4.579  23.028   0.381
21160W        W92689  21.780  12.875   0.255
21161W        W92690  29.406  43.747   0.372
21162W        W92691   9.656   1.903  10.473
21163W        W92692  36.049  20.521   0.039
21164W        W92693  13.171   5.770   1.886
21165W        W92694   6.129   1.956   0.882
21166W        W92695  29.613   3.396  14.902
21167W        W92696  28.033  20.090  10.712
21168W        W92697  41.410   9.735  13.538
21169W        W92698   5.546   1.102   4.145
21170W        W92699  16.039   6.532   1.289
21171W        W92700  35.755  19.019   4.215
21172W        W92701  41.653  20.271   3.046
21173W        W92702  19.000  22.192   1.914
21174W        W92703  27.873   3.709   3.997
21175W        W92704  27.253  16.218  12.609
21176W        W92705  36.957  39.602  13.110
21177W        W92706   6.811  25.979   4.213
21178W        W92707  30.538  41.027  12.971
21179W        W92708  10.609  37.321  13.777
21180W        W92709   2.528  36.299   3.329
21181W        W92710  37.745   9.631  12.545
21182W        W92711  35.366   1.930   1.360
21183W        W92712   2.799  15.311   2.729
21184W        W92713  16.347  13.191   1.364
21185W        W92714  26.440  34.041  14.515
21186W        W92715   6.713  43.978  13.773
21187W        W92716  32.953   9.246  14.137
21188W        W92717  10.139  43.863  11.937
21189W        W92718  26.459  17.490  13.115
21190W        W92719   3.035  16.176   4.533
21191W        W92720  32.615   5.737   1.883
21192W        W92721  40.760  24.121   1.834
21193W        W92722  21.674   6.713  13.008
21194W        W92723   6.899  29.729   0.864
21195W        W92724  33.408  10.601  13.447
21196W        W92725  35.999  34.153  12.377
21197W        W92726  14.595  28.752   2.873
21198W        W92727  32.970  11.350   3.295
21199W        W92728   8.206  15.594  12.559
21200W        W92729  27.989  24.229   3.043
21201W        W92730  29.808  39.755   0.960
21202W        W92731  33.125   7.224   2.169
21203W        W92732  31.940  28.892  11.161
21204W        W92733  25.703  24.934  12.277
21205W        W92734  23.661   6.425   1.310
21206W        W92735   5.171  30.998   0.966
21207W        W92736  37.643  10.196   4.095
21208W        W92737  31.711   8.705  11.483
21209W        W92738   6.992   4.521  13.291
21210W        W92739   0.884  10.202  13.088
21211W        W92740  41.133   2.478   2.777
21212W        W92741  14.794  34.862   0.285
21213W        W92742  27.997  25.928  10.913
21214W        W92743   3.459  24.399   0.455
21215W        W92744   9.800  18.500  11.923
21216W        W92745   6.801  25.675   3.151
21217W        W92746  20.425  13.589   2.106
21218W        W92747  44.348  41.767  12.073
21219W        W92748  10.906  25.231  11.160
21220W        W92749  24.089   1.534   1.276
21221W        W92750   6.759  17.786   3.822
21222W        W92751   2.041   4.162  12.606
21223W        W92752   9.693   7.408  13.051
21224W        W92753   7.749   0.753  12.300
21225W        W92754   8.718  27.009   2.843
21226W        W92755  35.053  17.639  13.046
21227W        W92756  35.080   9.856  13.832
21228W        W92757  17.304  42.406   0.939
21229W        W92758  25.615  36.011   2.318
21230W        W92759  20.678  17.047  12.033
21231W        W92760  36.185   4.990   2.693
21232W        W92761   3.815  19.333   0.357
21233W        W92762   6.545  15.961  13.517
21234W        W92763   7.882  33.692  12.515
21235W        W92764  14.916  16.292  14.419
21236W        W92765  43.801  11.358   0.337
21237W        W92766  39.030  19.479   2.625
21238W        W92767  43.432   8.448  13.019
21239W        W92768   9.878  11.308  14.842
21240W        W92769  34.328   5.076  13.544
21241W        W92770  36.067  31.875  12.877
21242W        W92771  25.618  16.180   2.141
21243W        W92772   2.035  35.017   2.776
21244W        W92773  34.027  39.873  12.411
21245W        W92774  21.022  14.632   3.654
21246W        W92775  10.447  43.215   3.876
21247W        W92776   6.366   4.507  11.258
21248W        W92777   0.242  14.405  12.053
21249W        W92778   7.861   0.989  10.166
21250W        W92779   8.230  25.694   3.744
21251W        W92780  24.664  42.985   0.115
21252W        W92781  25.193  14.085   1.933
21253W        W92782   9.156  13.874  11.098
21254W        W92783  41.851  34.316   3.443
21255W        W92784   6.349  39.120   4.566
21256W        W92785  24.625  34.079  10.396
21257W        W92786   8.993  31.535  12.805
21258W        W92787  15.567  10.209  11.149
21259W        W92788  26.578   9.291  11.542
21260W        W92789  40.767  33.909  11.566
21261W        W92790   1.977  10.291  13.913
21262W        W92791  36.077  29.515  13.231
21263W        W92792  41.806  44.259  11.987
21264W        W92793  37.827  27.749  14.975
21265W        W92794   9.813  42.447  14.247
21266W        W92795  40.246   1.707  11.162
21267W        W92796  19.674  29.487  14.940
21268W        W92797  36.139  23.763   1.816
21269W        W92798   0.386  11.660   0.312
21270W        W92799   5.687  19.486  14.029
21271W        W92800  39.608  29.044  10.544
21272W        W92801  29.165  31.496   3.496
21273W        W92802  28.549  20.534  13.109
21274W        W92803  38.598  24.281  12.382
21275W        W92804  21.522  20.493  14.081
21276W        W92805  28.506  24.519  11.360
21277W        W92806  14.208  28.768   1.271
21278W        W92807   6.975  10.456   1.338
21279W        W92808  37.318  23.574   0.971
21280W        W92809  21.656  31.899   0.709
21281W        W92810  19.451  26.090  10.506
21282W        W92811  36.920   8.989   2.886
21283W        W92812   4.933   0.997  12.499
21284W        W92813  20.760  16.601  11.151
21285W        W92814  42.148  19.672   2.795
21286W        W92815  28.050   6.317  13.178
21287W        W92816  39.509  26.247  14.370
21288W        W92817  32.539  41.466   4.202
21289W        W92818  22.682   9.271  10.700
21290W        W92819  11.728  17.186   0.450
21291W        W92820  10.445  20.985  14.911
21292W        W92821   4.715  16.767   3.444
21293W        W92822  41.073   2.725   4.794
21294W        W92823  22.494  39.858   2.326
21295W        W92824  16.110  11.971  14.531
21296W        W92825   9.245  39.077   1.017
21297W        W92826  33.800  43.816   0.023
21298W        W92827  12.812  18.454   3.128
21299W        W92828  36.064  18.713  12.309
21300W        W92829   9.385  28.152   0.913
21301W        W92830   1.279  35.997  11.060
21302W        W92831  41.873  35.349  13.806
21303W        W92832   7.631  33.697  13.297
21304W        W92833  29.678  17.213  12.999
21305W        W92834  21.840  42.183   4.973
21306W        W92835  16.601  20.255   0.433
21307W        W92836  29.013   7.685   1.912
21308W        W92837   6.268  28.016   4.124
21309W        W92838  19.694  30.831  14.754
21310W        W92839  11.812  13.126  13.954
21311W        W92840   0.555  16.424  11.120
21312W        W92841   5.731  43.366   2.876
21313W        W92842  15.903  27.594  12.921
21314W        W92843  39.670  29.210  13.552
21315W        W92844  37.580  36.553  14.649
21316W        W92845  28.370   4.950   1.306
21317W        W92846  19.782  36.552  12.017
21318W        W92847  42.848  44.056   0.911
21319W        W92848  19.152  27.384  14.389
21320W        W92849  43.744  36.813  11.948
21321W        W92850  40.089   1.329  14.765
21322W        W92851  42.041   4.633  11.312
21323W        W92852  29.503  43.042  14.847
21324W        W92853  28.940  43.712   4.692
21325W        W92854  42.705  29.957  11.522
21326W        W92855  15.022  18.724   4.365
21327W        W92856  34.332  43.005   2.735
21328W        W92857  27.094  26.420  11.244
21329W        W92858  16.734  21.472  11.452
21330W        W92859   9.035  15.648  12.915
21331W        W92860   8.798   5.765   3.759
21332W        W92861  20.467  20.565   0.768
21333W        W92862   6.930  14.549  11.634
21334W        W92863  25.559  32.385   0.394
21335W        W92864  44.853   9.452   3.673
21336W        W92865  32.115  26.395   2.728
21337W        W92866  31.478  24.528  14.365
21338W        W92867  16.753  42.513   3.187
21339W        W92868  17.539  38.820   3.288
21340W        W92869  40.455   6.351  13.353
21341W        W92870  10.760  29.543   4.794
21342W        W92871  24.080  10.318   4.442
21343W        W92872   5.391  41.043   1.827
21344W        W92873  15.150  31.316  13.429
21345W        W92874  21.583  13.888  10.200
21346W        W92875  30.181  23.839   4.564
21347W        W92876  33.003  22.475  10.572
21348W        W92877  39.604  29.110   3.675
21349W        W92878  11.812  13.307   1.941
21350W        W92879  20.031  33.648   1.481
21351W        W92880   2.997  22.194  11.884
21352W        W92881  34.508  11.078  13.181
21353W        W92882  42.908  22.092  13.453
21354W        W92883  27.363  30.345   1.837
21355W        W92884  39.481  24.629   0.511
21356W        W92885  34.782  33.481   5.051
21357W        W92886  33.514  24.179  13.459
21358W        W92887  15.945  37.852  12.589
21359W        W92888  22.727   9.685  14.366
21360W        W92889  26.948  43.722  11.508
21361W        W92890  42.973  13.133  14.770
21362W        W92891  14.892   2.723   3.996
21363W        W92892   1.471  40.322  10.880
21364W        W92893  28.480   1.745   1.657
21365W        W92894  24.543  17.574  11.181
21366W        W92895  22.310  31.621  12.145
21367W        W92896  41.766  28.044  14.808
21368W        W92897   5.338  39.465  13.338
21369W        W92898  10.382  14.798   4.348
21370W        W92899   3.171  12.803   3.157
21371W        W92900  14.178  43.870   0.293
21372W        W92901   1.319  33.913  14.876
21373W        W92902  41.813  20.659  11.468
21374W        W92903  15.591  24.070  11.743
21375W        W92904  33.749  42.910  12.507
21376W        W92905  43.010  13.187   1.957
21377W        W92906  28.076  34.698   3.233
21378W        W92907   6.985  26.692  11.459
21379W        W92908  16.501   4.276  14.713
21380W        W92909  41.347  18.231  14.929
21381W        W92910  11.226  25.940  11.611
21382W        W92911  13.093  38.592   0.290
21383W        W92912   6.122  36.890  13.740
21384W        W92913  18.289  18.682   2.695
21385W        W92914  44.526  44.079  10.241
21386W        W92915  19.601   3.133  11.557
21387W        W92916  27.809  13.170  13.021
21388W        W92917  34.105  22.492  14.311
21389W        W92918  21.705  27.956   4.069
21390W        W92919  27.724  22.729  12.556
21391W        W92920  37.108  32.154   2.713
21392W        W92921   7.844  14.325  13.365
21393W        W92922  29.717  38.512   0.219
21394W        W92923  39.307  37.922   0.827
21395W        W92924  36.605  25.027  12.402
21396W        W92925   5.980  20.098  11.964
21397W        W92926  26.041  42.022   1.449
21398W        W92927   8.199  44.490   0.791
21399W        W92928  39.017  38.476  13.022
21400W        W92929  17.807  27.948  11.666
21401W        W92930  30.241  29.561  14.285
21402W        W92931  27.071   0.908  13.190
21403W        W92932  27.862  30.694  14.464
21404W        W92933   1.645   1.302  13.527
21405W        W92934  25.454   7.392   4.141
21406W        W92935  14.223  12.096  12.058
21407W        W92936  35.587  31.345   0.710
21408W        W92937  19.820  40.673   9.873
21409W        W92938  33.917  14.635  14.792
21410W        W92939  22.489  30.405   0.368
21411W        W92940  15.204   2.860  10.737
21412W        W92941  24.653   6.352   1.461
21413W        W92942  42.206  14.120   2.798
21414W        W92943  39.110  24.682   1.454
21415W        W92944  41.067  21.444   0.875
21416W        W92945   1.911  40.302  14.376
21417W        W92946  34.505  40.070  12.472
21418W        W92947  18.896  21.340   4.929
21419W        W92948  24.323  19.723  10.152
21420W        W92949  13.664   1.902   4.649
21421W        W92950  42.247  42.423  11.640
21422W        W92951  33.819  31.170   3.773
21423W        W92952  27.975  40.642   4.016
21424W        W92953  37.441   1.987  11.500
21425W        W92954   5.319   9.868  14.474
21426W        W92955  12.366  23.689   3.440
21427W        W92956  18.938   3.215   0.773
21428W        W92957  10.072  11.796   2.275
21429W        W92958   3.646  38.588   3.745
21430W        W92959  39.804  19.816  11.687
21431W        W92960   4.907   4.829  11.140
21432W        W92961  40.399  26.971   4.342
21433W        W92962  43.374  13.097  13.877
21434W        W92963  25.666  18.047  12.631
21435W        W92964  42.320  23.439   2.293
21436W        W92965  16.525  13.400   1.848
21437W        W92966   4.868   0.471  13.968
21438W        W92967  12.731   0.320  11.476
21439W        W92968  42.928  10.036   1.412
21440W        W92969  37.313   1.608  13.516
21441W        W92970  27.253  41.816   1.695
21442W        W92971   2.157   8.796  14.008
21443W        W92972  26.560  23.664   0.478
21444W        W92973  14.931  41.672  14.766
21445W        W92974  13.321  22.887  14.438
21446W        W92975  44.822   3.660   0.757
21447W        W92976  44.053  33.941  14.763
21448W        W92977  12.398  24.168   2.373
21449W        W92978   7.767  31.010   1.006
21450W        W92979   0.208  29.001  11.912
21451W        W92980  38.418  37.834  11.569
21452W        W92981  19.451   1.938  14.952
21453W        W92982  42.337  26.104  11.666
21454W        W92983   6.805  40.355  12.892
21455W        W92984   5.305  28.550   2.183
21456W        W92985  31.251  17.124  11.970
21457W        W92986   8.773  15.755   1.342
21458W        W92987  14.991  15.657   4.237
21459W        W92988   2.761   9.729  10.716
21460W        W92989  21.230  32.262  10.251
21461W        W92990   7.284  29.360  14.611
21462W        W92991  22.036  31.569   2.171
21463W        W92992  44.012   6.965   3.297
21464W        W92993  28.226  40.862  10.715
21465W        W92994  13.635  40.862   1.184
21466W        W92995  32.682  15.722  11.232
21467W        W92996  34.093  30.018   0.297
21468W        W92997  35.094  24.512  14.882
21469W        W92998   3.622  20.123  10.757
21470W        W92999  20.480  20.473  13.914
21471W        W93000  26.999  17.244  12.431
21472W        W93001  20.032   1.827  13.479
21473W        W93002  41.704  13.399   2.323
21474W        W93003  26.089  41.492  14.628
21475W        W93004  39.155   7.844  14.793
21476W        W93005  44.327  18.339   4.779
21477W        W93006  33.442  38.644  13.922
21478W        W93007   8.670  38.592  12.875
21479W        W93008  30.629  18.293   0.244
21480W        W93009   4.410  33.558  10.999
21481W        W93010  36.651  28.445  12.528
21482W        W93011  20.625  37.634   1.897
21483W        W93012  41.945  14.778  13.171
21484W        W93013  38.250   3.976   1.850
21485W        W93014   9.641  28.187   4.727
21486W        W93015  17.780   1.494  13.966
21487W        W93016  32.827  25.887   2.611
21488W        W93017  24.005  15.673  11.203
21489W        W93018   7.273   9.323  12.601
21490W        W93019  11.368  14.876   3.260
21491W        W93020   2.705   8.428   4.812
21492W        W93021  22.970   5.235  12.190
21493W        W93022  12.818  28.131   1.236
21494W        W93023  35.613   0.351  12.964
21495W        W93024   8.230  21.076  10.880
21496W        W93025  27.227  41.480   3.220
21497W        W93026  12.410  28.156  12.417
21498W        W93027  39.363  20.606  14.328
21499W        W93028   6.402  22.752   2.349
21500W        W93029  23.806   3.900  13.293
21501W        W93030  40.966  39.311   0.907
21502W        W93031   5.325  35.844   0.586
21503W        W93032   3.941  27.485  14.033
21504W        W93033  20.323  42.377   0.799
21505W        W93034  33.864  16.777   4.437
21506W        W93035   3.959   3.858  11.641
21507W        W93036  20.710  11.377   1.802
21508W        W93037  42.494  44.790   3.750
21509W        W93038   1.519   8.659  13.418
21510W        W93039  10.785  40.272  10.715
21511W        W93040  14.972  33.960   4.027
21512W        W93041  38.387  18.044  14.341
21513W        W93042   3.351  12.648  10.985
21514W        W93043  43.887  27.105  13.472
21515W        W93044   3.934  26.176  12.422
21516W        W93045   4.991  32.468  14.484
21517W        W93046  40.005   5.905   4.170
21518W        W93047  18.636  21.163   2.721
21519W        W93048  26.993   0.129  14.569
21520W        W93049  40.759  40.243   4.198
21521W        W93050  23.471  42.479   1.374
21522W        W93051  10.499  40.523  11.930
21523W        W93052  44.751  19.527  12.196
21524W        W93053  12.435  42.703   5.090
21525W        W93054  40.011   5.122  12.066
21526W        W93055   2.497  31.927  11.581
21527W        W93056  29.848   1.314   4.130
21528W        W93057  19.105  36.463  13.144
21529W        W93058  34.699  43.884   1.038
21530W        W93059  28.235  12.579  13.608
21531W        W93060  38.043  43.318  10.614
21532W        W93061  39.343   7.162   2.282
21533W        W93062  10.408  17.824   1.741
21534W        W93063  22.990  17.738  11.058
21535W        W93064  37.574  35.615  10.725
21536W        W93065  10.166  24.689  13.512
21537W        W93066  33.433  24.023   3.225
21538W        W93067  42.411  27.139  12.340
21539W        W93068  39.803  10.933   0.249
21540W        W93069  20.678  24.770   3.980
21541W        W93070  31.395   6.901   3.685
21542W        W93071   1.461   8.716  11.002
21543W        W93072  21.101  33.369   0.427
21544W        W93073  19.060  12.940  12.104
21545W        W93074  14.372  29.584   0.768
21546W        W93075  23.241  40.910   1.054
21547W        W93076  30.334   0.489   4.543
21548W        W93077  32.813  34.696  14.217
21549W        W93078  10.649  20.717  11.038
21550W        W93079  33.503  42.454   2.841
21551W        W93080  33.515  28.271  12.663
21552W        W93081  34.615  22.197  13.526
21553W        W93082  44.388  26.478   3.794
21554W        W93083  38.848   9.389  13.586
21555W        W93084   3.771  37.977  12.545
21556W        W93085  25.218  28.469   4.054
21557W        W93086  40.642  12.658   1.313
21558W        W93087  32.683  14.243  12.171
21559W        W93088  33.235  13.281  12.591
21560W        W93089  35.599  29.157   4.445
21561W        W93090  32.986  21.553   3.336
21562W        W93091  13.580  27.956   4.218
21563W        W93092  23.939  25.528  11.907
21564W        W93093  10.622  20.602   0.194
21565W        W93094  17.549  28.538   3.672
21566W        W93095  17.540  40.369  14.452
21567W        W93096   3.366   4.705  13.903
21568W        W93097  33.697  38.833  11.054
21569W        W93098   9.975  18.762   3.782
21570W        W93099  37.017  38.377  11.978
21571W        W93100   2.457  13.122   4.418
21572W        W93101  24.229   8.495  14.400
21573W        W93102  18.964  37.477  14.988
21574W        W93103  37.942   7.293   2.673
21575W        W93104   3.680  17.288  13.442
21576W        W93105   7.161  37.383  14.438
21577W        W93106  16.696  13.280   0.246
21578W        W93107   1.746  19.237  11.134
21579W        W93108   6.379  16.978  11.961
21580W        W93109   4.464  22.204   0.478
21581W        W93110  41.531   8.166  10.668
21582W        W93111  27.123  18.562   3.236
21583W        W93112  11.326  31.455   3.645
21584W        W93113  42.586  11.815  11.969
21585W        W93114  19.270   1.967  10.678
21586W        W93115  10.174  17.973   2.980
21587W        W93116   1.020  44.423  10.255
21588W        W93117  29.114  24.762   2.284
21589W        W93118  23.766  23.218  13.952
21590W        W93119  38.912  44.444  13.041
21591W        W93120  10.273   2.539   3.724
21592W        W93121  24.798  25.717  14.789
21593W        W93122  32.155  41.994   0.037
21594W        W93123  31.201   1.279   3.825
21595W        W93124  42.745   7.819   2.719
21596W        W93125  44.651  38.084   2.170
21597W        W93126  38.825  19.205  13.013
21598W        W93127  18.081   5.119   3.206
21599W        W93128  14.212   8.221   1.422
21600W        W93129  11.055  44.438   4.073
21601W        W93130  21.282  42.335  13.974
21602W        W93131  35.020  16.845   3.351
21603W        W93132   5.209  31.610  14.358
21604W        W93133   5.272  41.458  10.707
21605W        W93134   5.950   0.070   2.122
21606W        W93135  29.557  40.212  12.987
21607W        W93136  32.324  36.034   1.873
21608W        W93137   4.763  23.966   1.980
21609W        W93138   8.785  24.812   1.346
21610W        W93139   3.983  27.691   3.318
21611W        W93140  25.920  29.035   4.701
21612W        W93141   7.253   1.484  12.851
21613W        W93142   4.333  23.336  11.508
21614W        W93143  44.807  33.717  13.998
21615W        W93144   5.729  24.839  14.203
21616W        W93145  19.627  37.071  12.090
21617W        W93146  40.527  39.926   0.276
21618W        W93147   0.533  40.519  11.341
21619W        W93148   8.154  17.121   1.476
21620W        W93149  17.547  26.602   1.968
21621W        W93150   2.400  11.600   1.685
21622W        W93151  39.434  41.184  11.124
21623W        W93152  13.849   9.651   2.431
21624W        W93153  37.558   3.825   0.425
21625W        W93154  20.144  14.196  13.474
21626W        W93155  12.879  12.687  14.282
21627W        W93156  28.719  27.628  11.709
21628W        W93157  25.076  29.976  11.427
21629W        W93158  20.408  36.953   2.749
21630W        W93159  20.096  43.361  10.960
21631W        W93160   0.798  44.569  13.491
21632W        W93161  38.469  33.976   3.958
21633W        W93162  21.727  19.782  12.577
21634W        W93163   7.479   7.845  14.277
21635W        W93164  15.462  11.076  14.440
21636W        W93165  40.554  23.226   2.396
21637W        W93166  14.583  44.235  11.719
21638W        W93167  32.432   7.773   2.725
21639W        W93168  21.611  29.149   3.339
21640W        W93169  10.903  33.021  13.509
21641W        W93170  17.255  38.068   3.716
21642W        W93171  27.099  39.873   2.917
21643W        W93172  35.848  26.134  10.771
21644W        W93173  22.583  22.562   1.686
21645W        W93174  29.432  27.732   1.939
21646W        W93175   8.363  10.576   2.182
21647W        W93176  32.399  31.190  10.852
21648W        W93177  25.496  28.728   3.188
21649W        W93178   1.646  18.413   4.192
21650W        W93179   2.726  17.140   2.635
21651W        W93180  30.061  14.898  12.077
21652W        W93181   0.017   4.349  12.089
21653W        W93182   8.786  24.594   3.579
21654W        W93183  25.774  42.747   1.869
21655W        W93184  10.794  10.306   2.781
21656W        W93185  28.436  19.713  12.167
21657W        W93186  26.098  32.464  13.043
21658W        W93187  43.964  28.634   2.215
21659W        W93188  20.593   5.821  14.240
21660W        W93189   8.855   4.382  14.166
21661W        W93190  15.351   3.184   4.605
21662W        W93191  23.981  39.671   3.977
21663W        W93192  16.787  27.226   3.084
21664W        W93193  33.957  43.881  14.048
21665W        W93194  21.511  41.557   3.734
21666W        W93195   1.214  35.725   5.542
21667W        W93196  42.231   0.517  14.358
21668W        W93197  26.637  16.129   1.329
21669W        W93198  28.445  26.163  13.567
21670W        W93199  16.582  38.727  10.939
21671W        W93200   2.451   1.534   4.508
21672W        W93201  42.021  14.761   3.868
21673W        W93202  21.591   1.450   2.156
21674W        W93203  20.790  28.660  14.462
21675W        W93204  22.823  20.166   3.153
21676W        W93205   5.144  26.197   0.593
21677W        W93206  36.922  27.546  12.741
21678W        W93207  31.925  12.268   4.151
21679W        W93208  19.126  40.697  11.789
21680W        W93209  35.456  21.669   4.361
21681W        W93210  12.850  16.834   1.419
21682W        W93211  36.098  37.018   1.429
21683W        W93212  31.426   2.630  11.244
21684W        W93213  19.197  28.324  12.341
21685W        W93214  27.894  36.771   1.844
21686W        W93215  19.621  44.922  12.869
21687W        W93216   6.798  30.223   0.524
21688W        W93217  43.911  27.996   4.521
21689W        W93218  23.097  26.511  14.035
21690W        W93219   5.396  41.470   1.482
21691W        W93220  25.398   2.158  12.552
21692W        W93221   6.854   3.344   0.537
21693W        W93222   8.788  17.075  10.621
21694W        W93223   9.365  16.181   0.773
21695W        W93224  15.041   6.329  13.644
21696W        W93225  21.224  13.874  13.282
21697W        W93226   4.506   7.826  12.497
21698W        W93227   8.850  29.896  11.976
21699W        W93228   7.162   0.160   3.342
21700W        W93229  40.486  29.735  11.562
21701W        W93230  26.531  31.278  11.684
21702W        W93231  13.694  33.641  12.042
21703W        W93232  32.698  33.352   1.860
21704W        W93233  20.070  20.380   1.060
21705W        W93234  41.246  27.483  13.739
21706W        W93235  10.194  35.356   1.084
21707W        W93236  37.946  22.044  14.833
21708W        W93237  22.706  23.961   0.255
21709W        W93238  20.085  35.938   4.571
21710W        W93239  40.450  36.169   4.662
21711W        W93240  26.815   4.895   0.417
21712W        W93241   6.591  15.027  11.639
21713W        W93242  44.751  31.768   2.589
21714W        W93243  38.873  36.860  14.759
21715W        W93244  14.179  29.229  13.937
21716W        W93245   8.911  20.579  11.357
21717W        W93246   7.881  38.972   3.788
21718W        W93247  43.503  42.944  14.959
21719W        W93248  25.118  13.329   4.606
21720W        W93249   3.430  36.811   0.285
21721W        W93250  19.255   2.848  13.632
21722W        W93251  40.612  30.931  13.947
21723W        W93252  17.335  23.046  14.410
21724W        W93253   7.133  32.035  10.527
21725W        W93254  42.976  33.140  13.806
21726W        W93255  43.051   8.404  14.706
21727W        W93256  15.744  29.078   3.946
21728W        W93257   0.306  24.445  11.609
21729W        W93258  24.275  44.077  11.634
21730W        W93259  31.097   6.463  12.545
21731W        W93260  32.478  11.913   1.940
21732W        W93261  27.076   3.446   1.717
21733W        W93262  21.109  26.174  13.048
21734W        W93263  30.153  37.139  12.561
21735W        W93264   2.945  43.452   4.178
21736W        W93265  31.345  35.970   0.809
21737W        W93266  31.082  29.375   0.289
21738W        W93267  15.047  11.247  10.694
21739W        W93268  41.583   0.981  10.405
21740W        W93269   7.216  14.775  14.549
21741W        W93270  37.403   4.718  14.296
21742W        W93271  36.527   5.564   0.906
21743W        W93272  21.709  37.351  13.317
21744W        W93273  30.626  38.952  12.783
21745W        W93274  21.187  13.834  12.348
21746W        W93275  32.492  23.778  11.441
21747W        W93276   0.871  34.191  11.630
21748W        W93277  43.401   7.927  14.617
21749W        W93278  42.807  10.604  11.625
21750W        W93279   1.536  28.037   4.691
21751W        W93280   3.830  21.949  13.441
21752W        W93281  34.673  15.175  14.423
21753W        W93282   6.239  38.335   2.355
21754W        W93283  20.194  30.896  10.952
21755W        W93284  36.350  37.586  13.614
21756W        W93285  20.240  30.365  12.469
21757W        W93286   9.926  15.176  13.105
21758W        W93287  24.017  38.995   0.647
21759W        W93288  17.372  19.541   1.376
21760W        W93289   3.008  13.295   3.091
21761W        W93290  34.108   0.754  12.005
21762W        W93291  29.533  28.974  14.438
21763W        W93292   7.760  37.087   3.725
21764W        W93293  18.513  39.069   3.275
21765W        W93294  29.533   3.769   3.153
21766W        W93295   2.107  33.575   0.485
21767W        W93296  11.146  23.217  12.861
21768W        W93297   2.671  21.218   3.394
21769W        W93298  30.047  18.318   4.371
21770W        W93299  11.529  15.702  12.011
21771W        W93300  13.903   4.841   3.702
21772W        W93301  16.153  32.546  13.885
21773W        W93302  25.536   7.444  13.436
21774W        W93303  15.857  34.620   3.308
21775W        W93304  11.411  30.512  13.473
21776W        W93305  30.090   8.907   2.349
21777W        W93306  19.967  22.821  13.677
21778W        W93307  31.959  28.967   1.278
21779W        W93308  26.629  30.651   0.351
21780W        W93309  23.339  25.016  11.156
21781W        W93310  22.637  22.448  11.691
21782W        W93311  44.758  38.860   1.118
21783W        W93312  13.189  12.562  10.689
21784W        W93313   5.863   2.320  12.232
21785W        W93314   4.493  29.930   2.834
21786W        W93315  43.721   0.737   2.789
21787W        W93316  36.828   1.958  14.813
21788W        W93317  44.487  40.896  11.971
21789W        W93318  10.247  34.057   0.005
21790W        W93319  17.181  15.339  11.606
21791W        W93320  11.393  16.140  14.645
21792W        W93321  35.665  35.082  12.558
21793W        W93322  21.474  44.828  10.476
21794W        W93323  38.114  39.882   2.528
21795W        W93324  36.989  26.960   2.587
21796W        W93325  18.080  19.188   0.929
21797W        W93326  23.583  21.321   4.373
21798W        W93327  44.447  11.267  12.286
21799W        W93328  29.037  32.554  12.510
21800W        W93329  13.732  26.504  12.418
21801W        W93330  43.023  40.940   0.217
21802W        W93331  27.617  17.244   1.416
21803W        W93332  17.667  11.742   1.989
21804W        W93333   5.123  33.405  12.724
21805W        W93334  37.246  34.049  11.985
21806W        W93335  42.536  27.712   3.253
21807W        W93336  12.861   2.264   1.865
21808W        W93337  29.145  40.852  14.742
21809W        W93338  24.799  19.873   3.173
21810W        W93339   5.333  25.265  14.476
21811W        W93340  10.332  25.966  13.903
21812W        W93341  29.180  29.924   4.104
21813W        W93342  16.392  22.085  13.451
21814W        W93343  39.640  18.724  12.967
21815W        W93344   4.971  17.200   0.772
21816W        W93345  11.152  16.587  14.588
21817W        W93346  44.574  24.131  14.015
21818W        W93347  14.668  27.364   0.510
21819W        W93348  33.452  28.453   4.644
21820W        W93349  23.492  18.762   4.436
21821W        W93350  41.752  18.281   3.643
21822W        W93351  44.145  43.305   3.576
21823W        W93352   1.565  13.854  13.938
21824W        W93353  13.376  30.238  14.547
21825W        W93354  38.127  39.428  13.547
21826W        W93355  42.463  15.280  11.104
21827W        W93356  31.988  19.935   2.256
21828W        W93357  11.592  34.566  10.000
21829W        W93358  22.047  33.715   4.878
21830W        W93359  25.945  40.544  12.986
21831W        W93360  15.925  12.637   9.929
21832W        W93361  21.050  33.033   4.192
21833W        W93362  21.782  29.172  14.712
21834W        W93363  23.921  12.661   4.047
21835W        W93364   3.836  34.909   0.696
21836W        W93365   2.640  28.460   4.810
21837W        W93366  16.572  42.939  14.926
21838W        W93367  10.338  10.088   2.751
21839W        W93368  33.636  24.564   0.991
21840W        W93369  28.368  13.078   0.057
21841W        W93370  33.496  11.866  10.634
21842W        W93371  24.081  29.438  11.074
21843W        W93372  13.554  44.457  12.265
21844W        W93373  32.299  12.893  11.573
21845W        W93374   4.370  44.409  10.064
21846W        W93375  12.404   4.928  12.642
21847W        W93376  11.311  16.747   4.724
21848W        W93377  36.878  32.572  13.840
21849W        W93378  29.000  30.159   1.222
21850W        W93379  23.492  25.997   2.147
21851W        W93380  44.196  17.788   0.705
21852W        W93381  31.214  24.124   4.481
21853W        W93382  18.620  43.818  11.645
21854W        W93383   1.818  37.887   0.282
21855W        W93384   7.025  10.200  11.996
21856W        W93385   9.196  17.084   2.702
21857W        W93386  32.922  33.022  12.973
21858W        W93387  42.803  25.610  13.586
21859W        W93388  20.988   1.927   3.163
21860W        W93389  39.315  27.899  11.106
21861W        W93390  43.328  37.890   0.485
21862W        W93391  27.433  37.369   4.503
21863W        W93392  19.696  44.643   3.108
21864W        W93393  13.754  30.371   1.782
21865W        W93394   5.786  41.147  13.384
21866W        W93395  31.834   3.788   0.800
21867W        W93396  25.171  29.173  13.481
21868W        W93397  29.871  31.453  11.237
21869W        W93398  11.360   9.669   3.566
21870W        W93399  42.073   1.861  12.412
21871W        W93400  35.428  36.008   3.460
21872W        W93401  17.030  17.643   0.423
21873W        W93402  24.468   9.678   0.316
21874W        W93403  34.901  25.353  12.250
21875W        W93404  36.867   0.791   3.635
21876W        W93405   4.464  20.287  14.946
21877W        W93406  19.505  23.981   2.721
21878W        W93407  43.755  12.380  14.487
21879W        W93408  17.204  10.118  14.357
21880W        W93409  13.785  12.650  10.532
21881W        W93410  41.318   3.951   1.722
21882W        W93411  40.772  14.326   1.043
21883W        W93412  29.216  10.938  10.717
21884W        W93413  44.796  26.362  10.683
21885W        W93414  11.554  11.678   3.332
21886W        W93415  10.184  39.570  10.816
21887W        W93416  29.293   7.579   4.468
21888W        W93417   8.338   3.773   1.187
21889W        W93418  16.679   6.872   1.800
21890W        W93419  11.547  28.764  13.403
21891W        W93420   4.786  34.529   2.129
21892W        W93421  13.237  10.873   1.896
21893W        W93422  16.343  36.614  12.987
21894W        W93423  18.612  23.546   1.053
21895W        W93424  37.090  32.698   2.712
21896W        W93425  25.899  14.726  12.504
21897W        W93426  28.543   1.941   4.534
21898W        W93427  22.924  34.378   5.054
21899W        W93428  23.314  44.147   2.779
21900W        W93429   6.398  18.496  14.344
21901W        W93430  39.970   2.470   2.308
21902W        W93431  32.386  25.226   3.204
21903W        W93432  21.514  18.644  13.297
21904W        W93433  19.114  36.107   0.781
21905W        W93434  22.812  35.501   4.565
21906W        W93435   7.887  42.527   2.878
21907W        W93436   4.344  28.035   2.230
21908W        W93437  28.525  44.031   1.457
21909W        W93438  15.658  25.658   2.689
21910W        W93439  22.060  12.819   3.056
21911W        W93440   9.669   1.544   2.249
21912W        W93441  39.080  14.794   3.456
21913W        W93442  33.136  43.061   1.103
21914W        W93443  39.010  30.097  12.833
21915W        W93444   7.614  14.327   4.877
21916W        W93445  24.219  28.352  12.591
21917W        W93446  41.577  39.368  11.637
21918W        W93447  18.682  21.685   0.398
21919W        W93448  33.931  21.308   0.435
21920W        W93449  30.974  29.597  11.683
21921W        W93450  43.941  17.678   2.426
21922W        W93451  16.662  23.462  10.276
21923W        W93452   0.755  21.635   3.469
21924W        W93453  41.499  24.165   4.237
21925W        W93454   5.349   7.958  12.397
21926W        W93455  35.563   5.876   3.725
21927W        W93456  32.581  33.344   2.414
21928W        W93457  22.192  32.805   3.620
21929W        W93458  13.601   0.948  12.484
21930W        W93459   5.139  10.688   2.762
21931W        W93460   3.811  27.000   0.128
21932W        W93461  27.575  37.702   3.665
21933W        W93462   4.700   3.669  13.603
21934W        W93463   5.865  22.492  12.444
21935W        W93464  20.682   4.703   0.722
21936W        W93465  23.075  27.472  14.824
21937W        W93466   7.244  13.300   4.577
21938W        W93467  18.178  11.721   1.858
21939W        W93468  14.730  25.932   2.705
21940W        W93469  44.939   7.906  12.329
21941W        W93470  10.690  16.198   0.463
21942W        W93471  28.458  36.554  10.652
21943W        W93472   6.904  26.847   2.702
21944W        W93473  28.872  23.138   0.450
21945W        W93474   6.792   8.687   4.859
21946W        W93475   7.333  26.733  11.056
21947W        W93476  27.537  26.972  10.667
21948W        W93477  16.790  31.903  13.986
21949W        W93478   1.756   1.258  12.502
21950W        W93479  25.569  32.104   3.208
21951W        W93480  31.094  13.416   0.585
21952W        W93481   5.369  10.416   4.558
21953W        W93482  12.249   7.204  13.080
21954W        W93483  17.228  23.081   1.806
21955W        W93484  43.535   8.242  12.052
21956W        W93485  40.437  32.335   1.825
21957W        W93486  21.180   7.741   3.757
21958W        W93487   3.933  27.248   1.880
21959W        W93488   9.437  23.772   2.188
21960W        W93489  44.211  29.963   0.758
21961W        W93490   0.555  18.022  10.647
21962W        W93491  43.730  33.570  11.517
21963W        W93492  16.311  15.395  14.379
21964W        W93493  10.139  40.916  11.989
21965W        W93494  28.056  18.275  10.789
21966W        W93495   3.043  21.454  11.703
21967W        W93496  43.679  20.263  13.507
21968W        W93497   9.447  15.931  12.776
21969W        W93498  15.714   9.846  10.382
21970W        W93499  33.502  28.921   2.370
21971W        W93500  31.805  20.428   2.146
21972W        W93501  10.231  44.754  13.453
21973W        W93502  10.290  24.117   4.757
21974W        W93503  12.349  42.014   3.203
21975W        W93504  33.979  32.561   2.623
21976W        W93505   5.675  30.584   1.316
21977W        W93506  28.922  22.939   2.760
21978W        W93507  13.948  33.451  14.512
21979W        W93508  14.670  14.634  11.362
21980W        W93509   3.464  40.268   4.366
21981W        W93510  16.563  22.782   1.977
21982W        W93511  38.104  13.227   2.810
21983W        W93512  18.667  20.352   3.097
21984W        W93513  17.795   0.860   2.255
21985W        W93514  32.562  19.849  14.816
21986W        W93515   7.270   0.975  12.910
21987W        W93516   1.212  12.311   2.661
21988W        W93517  41.360   3.940   0.053
21989W        W93518  30.926  43.891  11.878
21990W        W93519  40.222  40.404  11.112
21991W        W93520  33.696  35.986   1.935
21992W        W93521  11.627  16.754   2.760
21993W        W93522  37.539  22.579  14.320
21994W        W93523  44.040   2.452   0.037
21995W        W93524   7.627  20.762   3.785
21996W        W93525  42.565  32.500  10.851
21997W        W93526   8.154  16.595   3.286
21998W        W93527   9.158  38.396  12.974
21999W        W93528  13.390   3.556   2.583
22000W        W93529  38.386  36.451   4.086
22001W        W93530  11.729  43.482   1.979
22002W        W93531  21.088  41.647  11.112
22003W        W93532  32.381  26.564  12.994
22004W        W93533  41.349   1.777   0.929
22005W        W93534  30.920  44.185   9.838
22006W        W93535  20.080  29.597   5.926
22007W        W93536  42.292  15.732   0.352
22008W        W93537  39.319   8.106   1.796
22009W        W93538   2.825  16.596  10.361
22010W        W93539  25.730  37.475  13.677
22011W        W93540  33.401  30.892   2.507
22012W        W93541  28.733  44.985   1.289
22013W        W93542  19.687  15.362   1.232
22014W        W93543   7.162  38.779   2.236
22015W        W93544  29.839   8.830  10.907
22016W        W93545  14.733  34.435   4.624
22017W        W93546  44.204  29.502  14.106
22018W        W93547  15.770   1.869  11.551
22019W        W93548  39.470  17.497   4.984
22020W        W93549  26.734  26.616   4.319
22021W        W93550  25.389   7.804  12.806
22022W        W93551  31.925   0.752  11.031
22023W        W93552  18.543  37.960  12.520
22024W        W93553  10.129  36.030  13.843
22025W        W93554  26.270  21.175   0.687
22026W        W93555  36.106  20.646   2.347
22027W        W93556  42.282  15.792   3.249
22028W        W93557  31.544  16.208   1.355
22029W        W93558  13.476  24.037   0.827
22030W        W93559  32.424  27.315  11.473
22031W        W93560   3.546  28.493  12.107
22032W        W93561   1.381   1.459  14.781
22033W        W93562  43.333  16.163   0.946
22034W        W93563   1.296  44.898   1.877
22035W        W93564  22.741  22.810   3.676
22036W        W93565   3.969  34.917  10.613
22037W        W93566   9.654  38.903   0.086
22038W        W93567   9.573  18.149   0.337
22039W        W93568  40.511   5.349  13.329
22040W        W93569  31.339  29.163   4.230
22041W        W93570  41.931  37.775  13.833
22042W        W93571   1.551  37.421  12.950
22043W        W93572  41.007  23.424  13.062
22044W        W93573   1.928  23.704  13.302
22045W        W93574  26.969  32.468   0.494
22046W        W93575  19.807  17.875   4.600
22047W        W93576  24.549  17.367   0.791
22048W        W93577  43.668  12.336  10.621
22049W        W93578  22.071  33.814   3.564
22050W        W93579  24.939  14.594   2.692
22051W        W93580  38.310  44.590  12.323
22052W        W93581  26.671  34.338   2.189
22053W        W93582   2.748  44.878  12.108
22054W        W93583  30.714  23.601  14.596
22055W        W93584  41.671   6.587   2.170
22056W        W93585  33.803  17.522  12.052
22057W        W93586  35.036   2.981  14.465
22058W        W93587  37.810   5.573   0.310
22059W        W93588   8.623  21.297   4.338
22060W        W93589   3.505   0.003  13.103
22061W        W93590  12.087   8.762   1.910
22062W        W93591  16.286  13.843   2.576
22063W        W93592  34.614  36.167  14.402
22064W        W93593  32.575  24.035  11.010
22065W        W93594   6.103  26.352   4.745
22066W        W93595  36.850  41.928  13.611
22067W        W93596  14.428  19.508  12.591
22068W        W93597  11.119  29.577  11.531
22069W        W93598  32.142  36.550   1.801
22070W        W93599  32.541  16.005  10.670
22071W        W93600   7.844   3.252  11.987
22072W        W93601  41.116  18.731  12.025
22073W        W93602  20.286  37.924   3.729
22074W        W93603  16.038  24.042   5.070
22075W        W93604  38.885  12.650  10.709
22076W        W93605   1.408   6.629  14.034
22077W        W93606  26.574  40.764  11.427
22078W        W93607  13.631  24.561  12.449
22079W        W93608   4.907   8.707  12.603
22080W        W93609  35.481  24.659   0.606
22081W        W93610  11.813  29.136  14.487
22082W        W93611  26.901  40.353   2.908
22083W        W93612  25.144   9.228  10.772
22084W        W93613   0.417  28.285  12.622
22085W        W93614  22.415  13.587  11.512
22086W        W93615  30.520  12.171   1.739
22087W        W93616  20.740  36.947  10.539
22088W        W93617   3.450  43.829  11.460
22089W        W93618   1.554  21.171   1.553
22090W        W93619  34.276  29.720  10.812
22091W        W93620  28.807  33.906   4.484
22092W        W93621  34.874  23.511   2.224
22093W        W93622  22.930  33.337  11.534
22094W        W93623  38.486  43.347   3.452
22095W        W93624  42.614   6.898  12.830
22096W        W93625  42.806  12.240   2.348
22097W        W93626  15.528  23.992   0.663
22098W        W93627  38.427   5.332   2.182
22099W        W93628  22.671  30.577   0.837
22100W        W93629   7.426   0.714   2.367
22101W        W93630  21.229  21.118   5.119
22102W        W93631  23.596  34.111  13.414
22103W        W93632  23.294  39.904   1.884
22104W        W93633   4.277  21.761   3.106
22105W        W93634  15.902   3.276   0.286
22106W        W93635  31.537  20.101  13.444
22107W        W93636   2.116  15.243  11.562
22108W        W93637   0.432   6.420   4.071
22109W        W93638  26.524  25.509  10.643
22110W        W93639  33.335   9.551   4.264
22111W        W93640  41.848  16.409  10.029
22112W        W93641  25.507  15.827   0.386
22113W        W93642  33.026  33.686   3.213
22114W        W93643  17.198   7.180  13.788
22115W        W93644  32.366  16.696  11.108
22116W        W93645   7.866   7.424  11.191
22117W        W93646  31.416   4.501  13.938
22118W        W93647  30.338  43.754  13.408
22119W        W93648   4.330  24.315   0.796
22120W        W93649  25.276  17.077   2.346
22121W        W93650  44.898  42.881   1.865
22122W        W93651   5.770  11.842   0.249
22123W        W93652  19.740  14.218   2.734
22124W        W93653  15.605  23.696   2.041
22125W        W93654  29.787  19.730  10.303
22126W        W93655  40.447  15.802  11.650
22127W        W93656  22.382  36.552   0.354
22128W        W93657  39.336  14.351   1.111
22129W        W93658  17.798  19.236   1.384
22130W        W93659   0.266   2.463  13.196
22131W        W93660  14.808   6.163   1.658
22132W        W93661  44.744  37.448   2.713
22133W        W93662  24.019  10.150   3.150
22134W        W93663  35.078  18.417   4.108
22135W        W93664  31.801  20.532   3.084
22136W        W93665   2.983   2.783  12.135
22137W        W93666   8.412  38.434   0.004
22138W        W93667  30.343  20.015   1.336
22139W        W93668  31.685   2.145  13.541
22140W        W93669  29.150   0.395  12.931
22141W        W93670  16.669  10.313   2.843
22142W        W93671  16.779  39.760   1.907
22143W        W93672  31.368   4.204  11.398
22144W        W93673  40.809  35.940  14.532
22145W        W93674  29.622  22.444  12.892
22146W        W93675  24.770  12.772   4.355
22147W        W93676  23.425  38.568   1.640
22148W        W93677  44.709  27.897  12.648
22149W        W93678  43.497  28.947   3.693
22150W        W93679  44.121  22.810  14.479
22151W        W93680  25.629  21.969   2.711
22152W        W93681  10.067  40.398   0.399
22153W        W93682  35.189  26.901  14.374
22154W        W93683  26.485  14.263   3.123
22155W        W93684  27.936  16.213  13.921
22156W        W93685  40.447  13.790  13.894
22157W        W93686   8.464  27.779  14.264
22158W        W93687  20.547  31.074  14.216
22159W        W93688   4.748  39.563  14.782
22160W        W93689  18.813  37.141  10.693
22161W        W93690  42.360  39.827   3.208
22162W        W93691   0.492  10.452  12.412
22163W        W93692  21.832  43.962  13.419
22164W        W93693  12.829  36.898   0.030
22165W        W93694  18.303  38.526   2.685
22166W        W93695  32.299  42.802   0.950
22167W        W93696   7.557  43.010   1.038
22168W        W93697  40.964  38.400  11.980
22169W        W93698  10.325   2.268   4.356
22170W        W93699  32.556  16.092   4.146
22171W        W93700  40.228  31.641   4.092
22172W        W93701  18.809  35.305   4.048
22173W        W93702   6.307  17.243  14.000
22174W        W93703  27.257   3.819   2.014
22175W        W93704  19.057  33.436  11.900
22176W        W93705  25.645  38.311   3.752
22177W        W93706  36.208  43.016   3.148
22178W        W93707  35.024  36.528   3.379
22179W        W93708  29.643  19.594   0.415
22180W        W93709  18.326  22.340   4.165
22181W        W93710  22.093  26.441   3.190
22182W        W93711  33.927   5.442   2.639
22183W        W93712  30.682   0.307  14.469
22184W        W93713  28.443  20.622   3.534
22185W        W93714  34.831   9.681  11.107
22186W        W93715  16.409  39.444   3.786
22187W        W93716  30.055  28.212  14.958
22188W        W93717  15.845  13.156   1.438
22189W        W93718  14.852  24.335   4.336
22190W        W93719  40.008  33.000  12.832
22191W        W93720  39.449  41.781   4.124
22192W        W93721  19.775  40.714  12.064
22193W        W93722  33.403   0.758  13.059
22194W        W93723  16.271  20.706  13.620
22195W        W93724  34.301  41.365  12.478
22196W        W93725  10.093  28.027  12.447
22197W        W93726   2.436  30.097   3.404
22198W        W93727   7.233  35.186   3.391
22199W        W93728  18.643   9.115  13.538
22200W        W93729  34.497  33.735  11.356
22201W        W93730   5.897  39.979  14.201
22202W        W93731  14.381  24.035  13.941
22203W        W93732  12.434  15.303   3.145
22204W        W93733  30.673  36.617   4.834
22205W        W93734  34.546  41.067   0.479
22206W        W93735  17.384  43.843  11.157
22207W        W93736  24.695  30.782   0.220
22208W        W93737  43.439  39.997  11.180
22209W        W93738   3.001  13.715  11.722
22210W        W93739  44.315  12.365   1.650
22211W        W93740   4.901   9.337  13.395
22212W        W93741  15.875   8.467  13.317
22213W        W93742   1.776   8.893   0.613
22214W        W93743   6.695  41.425   2.883
22215W        W93744  23.529  38.392  13.653
22216W        W93745   5.191  34.893  12.813
22217W        W93746  13.262  35.123  12.726
22218W        W93747  25.684  30.810  14.446
22219W        W93748  36.373  44.492   1.494
22220W        W93749  19.265  26.959   3.228
22221W        W93750  26.607   4.480  12.876
22222W        W93751   8.243  40.428   3.253
22223W        W93752  26.827   4.495   4.319
22224W        W93753  25.846  15.701   2.067
22225W        W93754  14.570   4.460   2.134
22226W        W93755  25.445  11.174   1.330
22227W        W93756  37.153  24.360  11.265
22228W        W93757  44.056  44.797  13.139
22229W        W93758  24.303  16.089  11.216
22230W        W93759  31.505   7.894  13.964
22231W        W93760  12.345  15.617  14.840
22232W        W93761   1.410  12.220  11.735
22233W        W93762  34.049   2.498  13.886
22234W        W93763  33.095  15.575  11.521
22235W        W93764  35.594   1.251   2.305
22236W        W93765  34.603  19.811   0.892
22237W        W93766  31.083  23.631  14.962
22238W        W93767  24.540  36.065   1.604
22239W        W93768   4.253  14.848  12.315
22240W        W93769   0.428  10.212  12.857
22241W        W93770  31.978   5.995   0.210
22242W        W93771  12.372  16.146  14.915
22243W        W93772  41.564  24.720  10.659
22244W        W93773  40.908   8.397   1.734
22245W        W93774  13.624   7.805  13.272
22246W        W93775  26.595   6.878   0.141
22247W        W93776   2.070  18.600   1.742
22248W        W93777   5.695  31.142   2.729
22249W        W93778  40.444  27.680  11.511
22250W        W93779  22.796  13.674  14.890
22251W        W93780  38.885  18.790  13.777
22252W        W93781   4.698   6.378   4.528
22253W        W93782  24.084  30.496  14.196
22254W        W93783  11.216  14.381   3.263
22255W        W93784  14.826  13.835  13.288
22256W        W93785  41.970  29.185  11.542
22257W        W93786  21.352   3.489   3.682
22258W        W93787   7.874  18.382  11.475
22259W        W93788  17.097  32.312  13.969
22260W        W93789  34.805   4.848   4.667
22261W        W93790  31.959  32.015  11.588
22262W        W93791   2.921  16.695  12.115
22263W        W93792  26.437  26.019  10.736
22264W        W93793   1.375  14.143   1.226
22265W        W93794   5.400  18.296   0.330
22266W        W93795  10.451  26.091  10.980
22267W        W93796  44.699  44.314  14.673
22268W        W93797   1.227  14.077   3.165
22269W        W93798  28.622  27.946  10.737
22270W        W93799  43.851  21.840   4.696
22271W        W93800  25.600  32.337  12.865
22272W        W93801  31.419  12.542  12.889
22273W        W93802  24.929  10.944  10.693
22274W        W93803  27.381  24.003  11.139
22275W        W93804  42.293  39.480   4.307
22276W        W93805  13.691  33.320  14.078
22277W        W93806  33.059   0.472  10.436
22278W        W93807  42.568   8.197  14.775
22279W        W93808   2.465  24.300   4.267
22280W        W93809  40.802  35.550  13.432
22281W        W93810  19.970   1.183   3.819
22282W        W93811  27.097  37.133   0.392
22283W        W93812   9.679   6.745  10.901
22284W        W93813  10.177  28.974   3.245
22285W        W93814   4.835  13.222   5.024
22286W        W93815   9.750   7.020  12.639
22287W        W93816  38.159  41.545  14.945
22288W        W93817  24.141  39.334   5.034
22289W        W93818  36.812  31.448  13.441
22290W        W93819  30.709  39.632  12.713
22291W        W93820   1.222  20.567   2.897
22292W        W93821  22.027   5.872   2.417
22293W        W93822  39.340  18.317  13.123
22294W        W93823  39.171  30.071   2.205
22295W        W93824  39.838  39.362   2.155
22296W        W93825  39.273  24.596  11.520
22297W        W93826  20.090   8.302  14.376
22298W        W93827  20.207  35.175  12.228
22299W        W93828   3.111  35.962   0.045
22300W        W93829   8.809  23.708  12.039
22301W        W93830   9.819  41.056   0.263
22302W        W93831  16.235  37.449   4.642
22303W        W93832  29.587  17.769   3.203
22304W        W93833   0.447  20.102  13.021
22305W        W93834  38.946  29.372  11.052
22306W        W93835  40.442  26.579  14.442
22307W        W93836  29.076  42.792   2.204
22308W        W93837  30.194  37.887   1.680
22309W        W93838  28.652  27.039  14.878
22310W        W93839   6.607  31.484   2.339
22311W        W93840  43.477  29.632  10.993
22312W        W93841  11.525  41.985  10.911
22313W        W93842  21.611  38.498   1.143
22314W        W93843  44.214  12.217  14.336
22315W        W93844  44.683  41.432   3.312
22316W        W93845  43.351  33.183  12.334
22317W        W93846  21.785   5.902   0.463
22318W        W93847   9.876   1.698   2.762
22319W        W93848  21.628  42.079   1.405
22320W        W93849  31.216  13.587   1.303
22321W        W93850  39.656  26.552  11.956
22322W        W93851  31.200  28.435  14.009
22323W        W93852  26.228   6.168   1.324
22324W        W93853  41.019  20.286  14.244
22325W        W93854   8.292  13.084   4.563
22326W        W93855  39.589  30.656  12.209
22327W        W93856  21.808  19.101  14.522
22328W        W93857  30.514   9.109   4.136
22329W        W93858   4.378  36.968   4.340
22330W        W93859  36.863  11.777  13.397
22331W        W93860   2.985  13.659   1.322
22332W        W93861  41.466  42.819  10.866
22333W        W93862   9.669  44.236  13.501
22334W        W93863  25.989  20.723  14.868
22335W        W93864   9.571  22.503  10.288
22336W        W93865  38.482   5.826   2.360
22337W        W93866  29.632   9.986   2.988
22338W        W93867  18.206  19.756   4.031
22339W        W93868  35.335   7.489   3.750
22340W        W93869  30.557  44.193   2.571
22341W        W93870   1.931  40.286  12.660
22342W        W93871  15.376  16.546  14.372
22343W        W93872  36.285  15.258  12.568
22344W        W93873  10.170   7.239  14.808
22345W        W93874  39.372  38.075   0.335
22346W        W93875   3.656  12.604   4.212
22347W        W93876  24.472  28.602  13.438
22348W        W93877  38.331  38.007  14.046
22349W        W93878  29.156  23.946  10.824
22350W        W93879  15.161  12.911   1.739
22351W        W93880  43.373  14.519  14.507
22352W        W93881  44.967   9.454   1.717
22353W        W93882  13.651  21.673  11.027
22354W        W93883  31.599   0.987   4.174
22355W        W93884  32.104  18.281   4.600
22356W        W93885  39.754   1.186  12.437
22357W        W93886  14.940  30.385   0.817
22358W        W93887  35.543   9.387  10.750
22359W        W93888  34.852   3.176   4.590
22360W        W93889  35.330   2.765   2.409
22361W        W93890  38.594  20.469   1.253
22362W        W93891  34.374  40.356  14.174
22363W        W93892  43.720  39.803  10.790
22364W        W93893  37.988  26.767  14.029
22365W        W93894  28.104  16.684  12.533
22366W        W93895  13.644  38.955  13.821
22367W        W93896  35.269   2.811   1.308
22368W        W93897  20.694  27.953   0.195
22369W        W93898  14.671  44.392  10.952
22370W        W93899  28.448  24.936   1.003
22371W        W93900  17.776   0.536  10.723
22372W        W93901  13.033  34.118  14.671
22373W        W93902  33.659   4.162   0.301
22374W        W93903  29.093  43.828   2.417
22375W        W93904  36.419   4.105  11.608
22376W        W93905  23.479  29.560  14.217
22377W        W93906  21.681   9.879  13.354
22378W        W93907  21.518  18.325   4.052
22379W        W93908  42.419  24.706  12.127
22380W        W93909  13.631   3.898  14.931
22381W        W93910  42.995   2.349   3.342
22382W        W93911  16.799  31.076  10.740
22383W        W93912  37.564  32.082  12.894
22384W        W93913  37.014  18.455   3.349
22385W        W93914  12.384  12.361  12.098
22386W        W93915  16.734  11.851  11.546
22387W        W93916  14.620  28.470   1.188
22388W        W93917  26.097  34.672  13.624
22389W        W93918  25.864  33.652   4.457
22390W        W93919  10.220  29.590   0.053
22391W        W93920   0.111  19.960   4.034
22392W        W93921  28.165  14.619   1.822
22393W        W93922  33.579  29.338   1.414
22394W        W93923  10.363  23.595   4.641
22395W        W93924  37.971  37.730   2.406
22396W        W93925  29.128  11.834  12.924
22397W        W93926  32.867  31.125  12.201
22398W        W93927  19.199  26.763  13.851
22399W        W93928  42.184   6.834   3.215
22400W        W93929  20.061  39.841  13.948
22401W        W93930  36.145   3.411   1.415
22402W        W93931  13.824  32.449   2.148
22403W        W93932  11.293   1.854   2.712
22404W        W93933  34.038  11.163  14.561
22405W        W93934  35.009   0.900   0.933
22406W        W93935   7.688  19.000   3.098
22407W        W93936  39.797   4.249  14.528
22408W        W93937  17.120  42.853   2.267
22409W        W93938  26.950  32.497   4.848
22410W        W93939  21.745  14.068   4.583
22411W        W93940  10.084  14.496   4.046
22412W        W93941  28.805  35.625   2.397
22413W        W93942   0.415  28.757  10.739
22414W        W93943  15.846  24.042  11.310
22415W        W93944   6.472   5.475  11.057
22416W        W93945  23.742  11.127  12.500
22417W        W93946  24.950   7.396   3.388
22418W        W93947  44.394  43.323   1.494
22419W        W93948  14.225  10.218  12.897
22420W        W93949  26.557  37.275   5.409
22421W        W93950  27.941  28.647  13.771
22422W        W93951  38.334  41.437   2.353
22423W        W93952  12.482  21.147  14.250
22424W        W93953  25.226  43.319   3.591
22425W        W93954  43.222   7.200  12.544
22426W        W93955  32.137  15.795   3.167
22427W        W93956  12.182  44.940  13.010
22428W        W93957   7.847  26.669  14.526
22429W        W93958   1.330  27.477  13.397
22430W        W93959  14.032  21.564  10.184
22431W        W93960  38.363  18.782   2.178
22432W        W93961   6.052   3.843  10.705
22433W        W93962  37.846  10.808  10.528
22434W        W93963  26.267  43.228  12.659
22435W        W93964  23.829  20.840   2.916
22436W        W93965  33.722  12.758   2.830
22437W        W93966  12.273  35.938   4.301
22438W        W93967  30.198  31.381  12.053
22439W        W93968  28.195  34.073   1.318
22440W        W93969  44.287  37.855  13.432
22441W        W93970   0.962  39.299   0.963
22442W        W93971  19.660  30.955   1.193
22443W        W93972   2.533  16.657  13.120
22444W        W93973   1.006  23.468  13.475
22445W        W93974  24.960  31.011  12.829
22446W        W93975  33.076  30.486   1.007
22447W        W93976  41.445  13.817   4.159
22448W        W93977  14.864  24.132  11.196
22449W        W93978  30.430  28.612  12.392
22450W        W93979   3.800  33.627  10.327
22451W        W93980  18.446   8.909  14.482
22452W        W93981   4.119  17.060   5.146
22453W        W93982  30.014   0.225  11.160
22454W        W93983  12.202  14.639  11.589
22455W        W93984  32.316  21.179  11.313
22456W        W93985  11.969   2.058   3.852
22457W        W93986   0.518  11.746   0.825
22458W        W93987  44.856  39.328  14.401
22459W        W93988   0.718  28.052   1.658
22460W        W93989  37.289  34.926  13.914
22461W        W93990  33.683  34.145   1.355
22462W        W93991   1.990   4.168   1.358
22463W        W93992  42.809   5.638   0.215
22464W        W93993  39.839  33.467  13.474
22465W        W93994   5.821   0.573   3.441
22466W        W93995  36.023   0.291  11.557
22467W        W93996   5.119  15.717  11.110
22468W        W93997  26.569  31.542   0.085
22469W        W93998  37.658  38.185   2.886
22470W        W93999  43.054  32.475  14.451
22471W        W94000   4.183  38.270   4.605
22472W        W94001  21.777  11.317  11.517
22473W        W94002  27.288  40.092   4.494
22474W        W94003  26.541  23.211  13.822
22475W        W94004  41.202  27.188   3.640
22476W        W94005  37.077  16.703  11.627
22477W        W94006  25.155  20.988  11.391
22478W        W94007  28.133   7.515   1.985
22479W        W94008   7.684  31.734   0.043
22480W        W94009  36.627  38.061  13.738
22481W        W94010  33.774  20.089  11.158
22482W        W94011  16.378   9.216  14.006
22483W        W94012  23.070  13.359   0.536
22484W        W94013  26.520   9.740  11.907
22485W        W94014  25.648  14.811  14.322
22486W        W94015  12.403  12.317  13.840
22487W        W94016  30.910   6.892  14.828
22488W        W94017  27.941  19.202  11.663
22489W        W94018  26.787  39.256   0.892
22490W        W94019  29.528  35.171  11.594
22491W        W94020  42.979  34.611  10.749
22492W        W94021   8.944  10.590   3.129
22493W        W94022  26.513  34.330  13.771
22494W        W94023   0.413   9.130  14.546
22495W        W94024  44.241  41.741   2.380
22496W        W94025  20.644  38.845   4.202
22497W        W94026  43.547  37.017  12.446
22498W        W94027  39.759  40.050  13.907
22499W        W94028  32.938  34.044  13.519
22500W        W94029  27.067  29.493   3.641
22501W        W94030   5.259  20.115   1.969
22502W        W94031  26.921  16.528  12.854
22503W        W94032  19.156  37.332   1.271
22504W        W94033  26.248   2.238   1.922
22505W        W94034   1.749   7.397  12.509
22506W        W94035  38.429  42.515  12.917
22507W        W94036  22.224   8.968   3.153
22508W        W94037  39.595   0.050  13.936
22509W        W94038  39.503   5.437  13.914
22510W        W94039  38.518  18.205  13.467
22511W        W94040  25.731  10.330  13.955
22512W        W94041   0.380   2.979  13.294
22513W        W94042  17.297  25.114  14.013
22514W        W94043   4.671  34.983   1.881
22515W        W94044  12.223  16.545   3.333
22516W        W94045  32.055  41.504   2.394
22517W        W94046  43.405  19.857   0.046
22518W        W94047   9.616  41.577  12.253
22519W        W94048  15.307  29.416   3.743
22520W        W94049  28.396  44.575   0.906
22521W        W94050   9.121  19.656  10.263
22522W        W94051  28.249  34.926   0.000
22523W        W94052  21.528   0.314  13.381
22524W        W94053  21.396  33.245  12.389
22525W        W94054  44.968   9.756   2.144
22526W        W94055  28.466  21.543   0.476
22527W        W94056  26.961  36.018   3.421
22528W        W94057  39.789  33.221   3.059
22529W        W94058  29.551   3.960  11.565
22530W        W94059  14.278  33.637   3.163
22531W        W94060  11.831   8.848   3.643
22532W        W94061  22.370   5.654   3.321
22533W        W94062  15.114   3.739  12.888
22534W        W94063  21.416   3.983   2.308
22535W        W94064  40.054  23.591  10.581
22536W        W94065  36.591  37.229   4.509
22537W        W94066  34.999  18.613  14.857
22538W        W94067  25.262  23.985  13.839
22539W        W94068  39.120  31.768  14.839
22540W        W94069  41.496  10.892  12.513
22541W        W94070  10.740  31.716  11.523
22542W        W94071  38.341  31.214   1.270
22543W        W94072  27.448  14.854  14.105
22544W        W94073   0.517   9.202  12.030
22545W        W94074   9.432  23.882  10.451
22546W        W94075   6.923  24.515  14.910
22547W        W94076  10.901  12.061  11.016
22548W        W94077  43.742  30.680   0.400
22549W        W94078  19.459  36.785  11.708
22550W        W94079  35.333  33.888  13.864
22551W        W94080  40.380  38.968   3.061
22552W        W94081  11.121   8.819  14.962
22553W        W94082  23.260  16.741  14.070
22554W        W94083  37.558  39.615   0.228
22555W        W94084   8.510  14.343   3.178
22556W        W94085  30.023   6.319  11.703
22557W        W94086   2.474   9.445  11.064
22558W        W94087  35.021   0.810   3.266
22559W        W94088  36.054   2.548  10.227
22560W        W94089  30.504  33.810   0.239
22561W        W94090  11.010  22.658  10.993
22562W        W94091  31.451  19.302   0.244
22563W        W94092  17.896  27.450   1.751
22564W        W94093  26.620  32.220  11.316
22565W        W94094  40.747   0.831  11.227
22566W        W94095  22.657   1.006  13.872
22567W        W94096   1.518  16.734  13.043
22568W        W94097  31.874  21.070  14.347
22569W        W94098  34.869  10.356  10.596
22570W        W94099   2.886  37.628   5.076
22571W        W94100  21.268  17.617  13.592
22572W        W94101  39.929  29.569  14.488
22573W        W94102  36.182   5.390  13.577
22574W        W94103  18.351  36.774   2.340
22575W        W94104   0.780  17.787   4.691
22576W        W94105  23.802  29.682   3.695
22577W        W94106  34.007   5.410   1.770
22578W        W94107  13.775  18.968   1.333
22579W        W94108  19.398  35.886   0.299
22580W        W94109  41.896  44.668   1.869
22581W        W94110   9.378   8.308   0.745
22582W        W94111  30.445  32.033   1.001
22583W        W94112  14.667  22.956  12.504
22584W        W94113  29.649  23.198  12.567
22585W        W94114  22.670  29.550  14.780
22586W        W94115  26.584  11.229   2.212
22587W        W94116   5.157  18.232  14.851
22588W        W94117  23.786  35.035  10.858
22589W        W94118  27.001  20.507  13.976
22590W        W94119  32.669  29.134   3.576
22591W        W94120  12.881  18.917   3.388
22592W        W94121  21.268  24.686  11.639
22593W        W94122  16.147  12.183   5.090
22594W        W94123   1.383  32.638   0.379
22595W        W94124  12.280  42.987  12.070
22596W        W94125  18.173  39.102   2.409
22597W        W94126  33.929  13.679   3.622
22598W        W94127   9.176   8.324   2.242
22599W        W94128  24.710  13.699   1.369
22600W        W94129   2.280  31.920   4.332
22601W        W94130  14.895  18.354  12.128
22602W        W94131   3.042  43.157  11.494
22603W        W94132  14.059  17.550  10.638
22604W        W94133  37.958  32.872   2.889
22605W        W94134  38.656   4.780   4.651
22606W        W94135   3.434  43.664   4.264
22607W        W94136  11.473  26.439   2.648
22608W        W94137  35.370  12.825  10.966
22609W        W94138  17.189  35.818   3.821
22610W        W94139   5.699  39.886   0.033
22611W        W94140  10.179  44.545   4.239
22612W        W94141  14.682   4.450   0.322
22613W        W94142   6.269  12.248  14.738
22614W        W94143   9.533  26.151   3.716
22615W        W94144   0.910  44.810  11.547
22616W        W94145  33.994  12.978  11.951
22617W        W94146  26.208  30.408  13.131
22618W        W94147  13.054  25.494  11.146
22619W        W94148   9.140  23.064   1.277
22620W        W94149  14.229  25.692   2.755
22621W        W94150  43.682   8.776   4.252
22622W        W94151  44.920   5.349   0.314
22623W        W94152  44.375  34.580   9.908
22624W        W94153  14.231  42.954  12.910
22625W        W94154  32.239   9.085   4.605
22626W        W94155   1.268   7.154  13.934
22627W        W94156  27.620  37.794   2.666
22628W        W94157  35.350  36.028  11.773
22629W        W94158  32.641  30.998   0.329
22630W        W94159  10.368   9.107  14.414
22631W        W94160  23.221  34.030   1.392
22632W        W94161  14.703  42.320   0.820
22633W        W94162  13.305   1.918   4.253
22634W        W94163  43.452  27.590  12.961
22635W        W94164  38.597  10.864  14.469
22636W        W94165  44.503  35.461  11.264
22637W        W94166  26.608   2.802  11.217
22638W        W94167  11.416  21.900  13.570
22639W        W94168  20.315  30.875  12.385
22640W        W94169   6.434  28.452  14.374
22641W        W94170  19.617  24.541  12.404
22642W        W94171  33.140  39.064  11.944
22643W        W94172  26.986  40.118   0.877
22644W        W94173   0.570  35.964  12.543
22645W        W94174   8.376  34.006  13.699
22646W        W94175  38.626  35.393   1.802
22647W        W94176   6.727  39.976   4.537
22648W        W94177  43.062   2.852   0.259
22649W        W94178  18.402  30.697   2.932
22650W        W94179  34.539  19.512   0.453
22651W        W94180  34.969  26.282   3.680
22652W        W94181  15.335  35.097   1.613
22653W        W94182  36.146   9.691   1.349
22654W        W94183  18.538  17.182   3.650
22655W        W94184  10.303  24.468  10.412
22656W        W94185  35.764  26.353   2.683
22657W        W94186  33.677  41.775   1.940
22658W        W94187  35.026  34.573   0.956
22659W        W94188  30.316  30.774  12.833
22660W        W94189  13.424   9.336  11.578
22661W        W94190  34.776  27.482   2.457
22662W        W94191  16.772  43.064  13.380
22663W        W94192   6.825  35.527  11.056
22664W        W94193  17.046   0.806  10.655
22665W        W94194  16.084  13.036   0.926
22666W        W94195  23.055  12.400  11.884
22667W        W94196  32.328   3.715  13.334
22668W        W94197   2.407  24.570  12.440
22669W        W94198  16.854  38.483   1.409
22670W        W94199  30.969  12.196   3.286
22671W        W94200   3.659  29.172   3.507
22672W        W94201  15.776  26.650  10.763
22673W        W94202   9.643  25.216   0.362
22674W        W94203  35.865   0.488   4.545
22675W        W94204  44.007  24.090  13.263
22676W        W94205  14.376  24.678  12.334
22677W        W94206  13.909  44.397  13.265
22678W        W94207  40.424  34.636   0.794
22679W        W94208  14.333  37.928  14.868
22680W        W94209  13.545  29.480  10.761
22681W        W94210   4.576  26.507  11.526
22682W        W94211  14.554   8.547  12.616
22683W        W94212  24.514   6.808  13.488
22684W        W94213  14.103   0.347  12.130
22685W        W94214   7.303   8.158   0.244
22686W        W94215  18.377   8.603   5.159
22687W        W94216   2.332  30.139  11.969
22688W        W94217  18.000  33.698   2.838
22689W        W94218  35.483  29.094   4.963
22690W        W94219  16.846  38.645   2.879
22691W        W94220  37.821  30.314  12.937
22692W        W94221  11.364   7.865   4.155
22693W        W94222  24.256  44.065   3.247
22694W        W94223  42.710  19.305   3.132
22695W        W94224  34.253  27.869  11.658
22696W        W94225   6.837  32.411   2.352
22697W        W94226  12.937  24.299  13.990
22698W        W94227  10.787  44.336   1.795
22699W        W94228  43.363   4.914  10.072
22700W        W94229  33.505  28.484  14.435
22701W        W94230  21.236   9.717  11.988
22702W        W94231  28.656  26.981   0.863
22703W        W94232  18.737  30.408   2.652
22704W        W94233  21.197  16.312  11.143
22705W        W94234   7.584  39.508   3.221
22706W        W94235  17.038  16.547  13.271
22707W        W94236  16.801  40.647   4.287
22708W        W94237  31.522  18.502   0.852
22709W        W94238  11.581   8.613  12.544
22710W        W94239  11.882   5.664  11.562
22711W        W94240  13.593  29.765   5.003
22712W        W94241  17.282   0.934   2.330
22713W        W94242   4.299   4.375  12.720
22714W        W94243  13.564   0.195   3.423
22715W        W94244  42.771  12.573  10.758
22716W        W94245   5.433  35.499  14.297
22717W        W94246   5.129  27.942   0.490
22718W        W94247  12.439  39.406  12.561
22719W        W94248  33.569  37.553  10.162
22720W        W94249  26.621  24.033  14.218
22721W        W94250   7.370  28.170   0.387
22722W        W94251  38.010   7.807   1.428
22723W        W94252  32.857  12.985  10.075
22724W        W94253  17.820   6.178   3.375
22725W        W94254  19.861   5.258  12.365
22726W        W94255   2.443  32.064  10.735
22727W        W94256  34.359  21.179   3.630
22728W        W94257  29.272  18.581  13.905
22729W        W94258  12.337  36.854  10.881
22730W        W94259  14.194  23.279   3.287
22731W        W94260  12.764   3.400   4.960
22732W        W94261  21.433   0.163  12.888
22733W        W94262  42.774  35.559  13.506
22734W        W94263  24.120  38.503   3.459
22735W        W94264  33.370  33.997   1.784
22736W        W94265  42.265  17.131   1.373
22737W        W94266  34.503  31.495   1.305
22738W        W94267  22.508  37.007   0.045
22739W        W94268  23.687  31.927   2.717
22740W        W94269  35.259   4.209  13.859
22741W        W94270  19.208  16.404   3.890
22742W        W94271   0.478  20.688  12.058
22743W        W94272  34.680  39.560   4.476
22744W        W94273  24.056  34.667  14.217
22745W        W94274   5.375  12.355   3.231
22746W        W94275  42.854  37.134  11.567
22747W        W94276  26.373  25.198  13.878
22748W        W94277  43.295   2.117  14.836
22749W        W94278   6.681  37.523   0.370
22750W        W94279   5.137   8.380   3.715
22751W        W94280  38.639  34.650  14.944
22752W        W94281  14.528  19.651   3.670
22753W        W94282  35.732  28.684  12.579
22754W        W94283   1.802  14.965  14.670
22755W        W94284  16.367  22.992  11.111
22756W        W94285   2.372  22.089   4.621
22757W        W94286   4.208  19.340   4.265
22758W        W94287   4.818  44.167   0.056
22759W        W94288  30.171  17.203  12.836
22760W        W94289  32.140  17.256   0.893
22761W        W94290  16.600  43.962  10.726
22762W        W94291  38.191  21.118  14.580
22763W        W94292   0.419  31.377   2.395
22764W        W94293  18.805  36.375   0.376
22765W        W94294   5.867  18.023  13.814
22766W        W94295  44.735   9.179  13.401
22767W        W94296  21.107  34.635  11.194
22768W        W94297  39.318   9.076  12.877
22769W        W94298  12.186  26.757  14.729
22770W        W94299  11.950  24.500  12.912
22771W        W94300  20.904   0.717  11.252
22772W        W94301  10.931   1.055   9.979
22773W        W94302  33.653  42.413  11.457
22774W        W94303  36.930  38.311  14.498
22775W        W94304   7.401  22.971   3.492
22776W        W94305   4.918  30.561   0.732
22777W        W94306  35.143  20.502  12.255
22778W        W94307   4.995   9.748   4.122
22779W        W94308  21.606  11.844   0.214
22780W        W94309   8.158  42.527  14.526
22781W        W94310  11.139  17.634   0.764
22782W        W94311  32.527   9.879  12.979
22783W        W94312  10.914  26.922  11.538
22784W        W94313  22.671  29.675  12.027
22785W        W94314  35.469   8.326   0.482
22786W        W94315  18.784   2.880  13.445
22787W        W94316   2.650  35.545  10.706
22788W        W94317   8.876  33.982   0.816
22789W        W94318  16.707  12.275   4.438
22790W        W94319  24.698  41.530  13.454
22791W        W94320  30.098   2.265  11.649
22792W        W94321  14.770   3.134   1.661
22793W        W94322   2.774   8.626  11.593
22794W        W94323  20.194  29.589  11.982
22795W        W94324   8.050  12.532   1.280
22796W        W94325  31.275  10.173  11.635
22797W        W94326   5.326  33.504  14.674
22798W        W94327  32.621  41.041   2.251
22799W        W94328  21.204  36.336  12.916
22800W        W94329  25.207  14.019  13.459
22801W        W94330  29.990   6.412  13.147
22802W        W94331  31.640   2.274  14.544
22803W        W94332  23.992  26.673   0.989
22804W        W94333  26.252  42.839   0.929
22805W        W94334  37.838  14.825  12.973
22806W        W94335  39.010  12.766   1.942
22807W        W94336  35.040  25.559   0.849
22808W        W94337  16.726   4.027   0.736
22809W        W94338   2.767  32.373   2.835
22810W        W94339  11.652  30.950  13.073
22811W        W94340  36.576  40.401  13.439
22812W        W94341  20.535  36.961  11.022
22813W        W94342  12.875  13.671   0.734
22814W        W94343  33.446  19.574  10.653
22815W        W94344   8.517  39.674   0.938
22816W        W94345  30.222  25.218   3.777
22817W        W94346  21.296  31.531   1.345
22818W        W94347  44.348  21.556   3.645
22819W        W94348   0.957  30.830   1.430
22820W        W94349   9.056  25.172  14.243
22821W        W94350  34.425  35.013  12.399
22822W        W94351  20.123  16.917  11.819
22823W        W94352  38.168   4.703  10.719
22824W        W94353  31.451  32.324   0.874
22825W        W94354  39.445   4.530   4.639
22826W        W94355  15.186  37.751   3.088
22827W        W94356  35.020  36.454   1.945
22828W        W94357   7.124  15.728   3.272
22829W        W94358  33.193  24.916   4.272
22830W        W94359   8.794  27.406  14.449
22831W        W94360   9.166  19.026  11.582
22832W        W94361   6.797  40.970   1.457
22833W        W94362  16.697  35.679   3.715
22834W        W94363   7.160   6.338  14.819
22835W        W94364  15.636  17.651  12.157
22836W        W94365   7.727  37.481  11.653
22837W        W94366  28.638  35.093  13.813
22838W        W94367  16.138   8.310   3.746
22839W        W94368  27.082   6.220   4.016
22840W        W94369  14.232  14.690  12.648
22841W        W94370  39.635  31.025   0.176
22842W        W94371  26.960  14.586  14.952
22843W        W94372   8.085  11.681   2.896
22844W        W94373   3.690  17.294  12.363
22845W        W94374  39.046  29.876  13.792
22846W        W94375  11.210  31.174  12.235
22847W        W94376  32.560  22.744   2.404
22848W        W94377   3.267   1.207   4.355
22849W        W94378  20.279  14.783  14.414
22850W        W94379  40.937   0.554   2.779
22851W        W94380  32.956   8.167   1.411
22852W        W94381  24.469  40.011   1.216
22853W        W94382  26.744  28.026   3.847
22854W        W94383  42.195  27.744  13.469
22855W        W94384   3.338  32.456   3.961
22856W        W94385  15.909  23.177   0.821
22857W        W94386  24.957  14.348  11.295
22858W        W94387  14.081   5.789  12.875
22859W        W94388   9.417   0.409   3.274
22860W        W94389  37.350  16.987   2.647
22861W        W94390  36.578  10.374  11.674
22862W        W94391   1.509  11.587   3.354
22863W        W94392  41.900   2.170   2.119
22864W        W94393   8.366   7.626  11.111
22865W        W94394   0.744  38.733  10.986
22866W        W94395   0.237  33.861  12.099
22867W        W94396  26.008  37.671   2.100
22868W        W94397  41.759  37.356  13.565
22869W        W94398  33.527  26.042  11.001
22870W        W94399  16.184  27.526  13.677
22871W        W94400   5.708  42.920  12.100
22872W        W94401  21.007  22.630  11.526
22873W        W94402  39.085  19.618   1.741
22874W        W94403  19.734  22.052  13.467
22875W        W94404   6.013  35.629   0.848
22876W        W94405  10.069  33.817   3.146
22877W        W94406  25.589  44.351  10.609
22878W        W94407  32.522  22.076   3.146
22879W        W94408  25.185   0.015   1.775
22880W        W94409  21.019  21.688   4.420
22881W        W94410  28.101  39.478  13.512
22882W        W94411  25.169  34.526   0.852
22883W        W94412  12.124   7.198  13.963
22884W        W94413  14.358   4.112  12.670
22885W        W94414  20.640  17.371  13.434
22886W        W94415  32.472   6.774   2.856
22887W        W94416  22.729  13.738  12.387
22888W        W94417  25.655  24.070  14.948
22889W        W94418   6.361  17.171   0.936
22890W        W94419  43.179  18.612   5.144
22891W        W94420   6.331  43.817   2.485
22892W        W94421  21.699  28.893  11.065
22893W        W94422  20.591  14.838  13.077
22894W        W94423  18.373  24.278  13.127
22895W        W94424  23.120  40.082  12.011
22896W        W94425  39.290   2.386  10.818
22897W        W94426  13.822  21.184  10.884
22898W        W94427  41.892  31.136   4.297
22899W        W94428  15.866   5.326  10.499
22900W        W94429   8.171  11.238   4.742
22901W        W94430  34.853  33.542  13.443
22902W        W94431  36.932  13.311  12.823
22903W        W94432  20.124   0.656  14.494
22904W        W94433  14.086  20.087  14.359
22905W        W94434  19.523  32.378  13.445
22906W        W94435  43.212  41.640   3.892
22907W        W94436  37.117  16.178   3.234
22908W        W94437  30.988   3.803  11.284
22909W        W94438  43.802  17.413  12.487
22910W        W94439  21.099  38.389   1.122
22911W        W94440   8.678  41.943   1.725
22912W        W94441   2.153  38.816  14.298
22913W        W94442  21.091  12.595  12.904
22914W        W94443   3.615  42.066  11.122
22915W        W94444   5.613  44.303   1.958
22916W        W94445  13.419  24.059   5.114
22917W        W94446  34.427   4.174  12.480
22918W        W94447  43.510  34.379   1.212
22919W        W94448   1.386   2.911  13.713
22920W        W94449  44.462  36.052  13.403
22921W        W94450  40.593  15.699   2.334
22922W        W94451  25.256  22.491  11.572
22923W        W94452  13.813  15.058  14.494
22924W        W94453  39.244  12.335  12.453
22925W        W94454  26.040   1.446   2.833
22926W        W94455  41.350   3.538   2.020
22927W        W94456  34.565  16.915   1.678
22928W        W94457  31.057  38.344  11.178
22929W        W94458   7.685  17.746  12.007
22930W        W94459  11.123  28.079   2.803
22931W        W94460  20.811  44.292  14.762
22932W        W94461  27.110  37.966  11.563
22933W        W94462  29.372  17.134  12.118
22934W        W94463  38.396  28.728  12.864
22935W        W94464  23.838  15.436   1.180
22936W        W94465  36.191  36.832  13.267
22937W        W94466  42.402   0.420  13.472
22938W        W94467  42.346  41.069  10.818
22939W        W94468  39.912  14.444  13.766
22940W        W94469  42.511  33.987  13.434
22941W        W94470  19.766   6.314  11.186
22942W        W94471   5.840   2.198   2.872
22943W        W94472   7.720  29.400  12.890
22944W        W94473  13.345  36.807   2.389
22945W        W94474  15.893  35.783  13.748
22946W        W94475  36.630  39.020   1.801
22947W        W94476  24.743   0.957   1.855
22948W        W94477  19.864  38.769   3.588
22949W        W94478  23.300  16.169  11.978
22950W        W94479  33.895  22.916  10.637
22951W        W94480  29.170  17.991  11.058
22952W        W94481  38.772   8.884   2.705
22953W        W94482  27.112  23.467  14.831
22954W        W94483   7.357  25.926  12.314
22955W        W94484  20.047   4.412  11.964
22956W        W94485   0.111  22.028  12.403
22957W        W94486  38.490  32.046  12.957
22958W        W94487  17.114  20.455   0.432
22959W        W94488  29.107  17.639   4.362
22960W        W94489   9.344  11.267   4.566
22961W        W94490  38.418  44.459   2.484
22962W        W94491  38.537   8.781   1.620
22963W        W94492  43.355   0.702   9.968
22964W        W94493  19.153  42.427   2.136
22965W        W94494  15.271  13.043   4.765
22966W        W94495  17.196  10.834  12.565
22967W        W94496   2.563  27.523   4.256
22968W        W94497  30.839  43.322  12.597
22969W        W94498  41.401  30.977   2.666
22970W        W94499  23.331  37.338  12.916
22971W        W94500  26.269  30.639   1.257
22972W        W94501   8.156  38.833  10.914
22973W        W94502  41.744  42.033  12.410
22974W        W94503   9.851   5.221   1.464
22975W        W94504  30.279  10.609  13.052
22976W        W94505  18.228   1.325   4.100
22977W        W94506  35.797  37.037   2.432
22978W        W94507  32.077  41.018  14.849
22979W        W94508  26.246  29.576   2.769
22980W        W94509  17.564   8.345  12.147
22981W        W94510  14.289   4.987  14.505
22982W        W94511  26.571  32.152  11.930
22983W        W94512  12.969  38.747   0.805
22984W        W94513  12.713  11.137   0.706
22985W        W94514  44.799  28.477  13.804
22986W        W94515  10.701  44.240   1.300
22987W        W94516  29.250  22.545   3.956
22988W        W94517  21.233  40.481  10.125
22989W        W94518  21.192  30.658   2.248
22990W        W94519   8.413  34.552  11.850
22991W        W94520  15.783  15.719  13.494
22992W        W94521  44.943  23.378   3.652
22993W        W94522  33.621  33.049   0.828
22994W        W94523  36.458  21.137  14.723
22995W        W94524  29.429   1.335   0.232
22996W        W94525  19.460  42.051   1.822
22997W        W94526  16.654  23.889  11.141
22998W        W94527  19.457  28.530  11.091
22999W        W94528   0.424   6.414   2.635
23000W        W94529  32.359  33.864   0.921
23001W        W94530  44.451  21.310   4.895
23002W        W94531   8.463  23.539  11.302
23003W        W94532  26.356  29.110  14.059
23004W        W94533  17.690  10.549  11.496
23005W        W94534  21.591  34.491  10.730
23006W        W94535  33.609   0.679  12.145
23007W        W94536   2.512  31.927  13.499
23008W        W94537  17.399  36.473  11.227
23009W        W94538  40.330  16.928   2.617
23010W        W94539   9.938   5.806  14.495
23011W        W94540  29.763  41.550  11.503
23012W        W94541  43.816   2.858   2.210
23013W        W94542   4.596  32.028   3.320
23014W        W94543   0.727  36.933   3.345
23015W        W94544  40.305  39.293  14.253
23016W        W94545  20.214  38.828  13.974
23017W        W94546   1.783  41.304  14.298
23018W        W94547  24.800  22.527   4.256
23019W        W94548  38.803  41.866  11.157
23020W        W94549   1.664  39.468   2.229
23021W        W94550   1.093  20.457   0.952
23022W        W94551   1.838   7.866  14.267
23023W        W94552  13.068   2.318  10.088
23024W        W94553  10.806  35.775  14.820
23025W        W94554  39.944   7.099   2.896
23026W        W94555  41.016   8.825  12.012
23027W        W94556  10.161  39.929   0.134
23028W        W94557   6.538  20.305  10.155
23029W        W94558  24.270  19.068   1.328
23030W        W94559   4.952   3.117   0.454
23031W        W94560  13.698  30.590  12.744
23032W        W94561  17.785  26.538  11.015
23033W        W94562  41.757   2.358   4.455
23034W        W94563  19.308  27.733  13.875
23035W        W94564  38.980   7.735  12.489
23036W        W94565   7.936  20.570   3.137
23037W        W94566  40.543  21.425  12.962
23038W        W94567   6.458  33.641  12.606
23039W        W94568  26.455  11.551   1.366
23040W        W94569  28.060  13.722   4.326
23041W        W94570  14.135  21.632   4.505
23042W        W94571  36.473   8.735   2.737
23043W        W94572   0.467   8.531  13.393
23044W        W94573  42.640  33.728   4.380
23045W        W94574  31.894  14.363  11.663
23046W        W94575   4.708  20.658   2.691
23047W        W94576  18.783  34.105  12.468
23048W        W94577  40.729  39.446   2.640
23049W        W94578  23.274  38.673  10.183
23050W        W94579  28.440  16.354   3.608
23051W        W94580  26.227  12.234   0.751
23052W        W94581  30.904  18.198   2.322
23053W        W94582  34.895  36.634  10.996
23054W        W94583  19.459  34.540  13.933
23055W        W94584  28.276  35.388  10.472
23056W        W94585  44.390  15.311   0.561
23057W        W94586  18.544  15.750   1.680
23058W        W94587  17.293   5.180  10.491
23059W        W94588  12.230  15.412  11.611
23060W        W94589   3.408  25.606  12.116
23061W        W94590  20.601   2.389  13.413
23062W        W94591  21.565  35.032  11.995
23063W        W94592  37.311  18.675  13.658
23064W        W94593  18.330  44.044   3.214
23065W        W94594  42.421  11.753  13.330
23066W        W94595  16.294  19.779  14.862
23067W        W94596   8.123  39.020  12.890
23068W        W94597   9.712  15.394  11.664
23069W        W94598  10.374  14.721   4.890
23070W        W94599  40.956  15.150   0.992
23071W        W94600  33.547  42.484  12.846
23072W        W94601  17.972  42.610  11.007
23073W        W94602  21.049  18.164  14.955
23074W        W94603  33.172  38.841   2.274
23075W        W94604  24.980  30.135  13.027
23076W        W94605   3.685  16.801   1.195
23077W        W94606  41.361  35.871   0.283
23078W        W94607  43.157   6.249   3.189
23079W        W94608  21.638  13.803  12.038
23080W        W94609  17.233  17.121   4.671
23081W        W94610  37.389   0.938   4.698
23082W        W94611  18.022  24.132   2.664
23083W        W94612  36.560  32.638   3.468
23084W        W94613   1.310  38.899   4.385
23085W        W94614  44.069   1.784  12.395
23086W        W94615  37.135  26.366  12.000
23087W        W94616   4.635  12.581   1.385
23088W        W94617  11.782  26.448  13.174
23089W        W94618  40.499  11.190  14.500
23090W        W94619   9.677   9.625  11.055
23091W        W94620   4.671  28.590  12.764
23092W        W94621   3.009   0.337   2.186
23093W        W94622   1.489  19.867   0.365
23094W        W94623  29.785   2.029  14.849
23095W        W94624  18.646   2.928  12.888
23096W        W94625  42.273   3.931  12.236
23097W        W94626  39.897  33.171   2.558
23098W        W94627  43.229  25.189  13.055
23099W        W94628   0.470   5.359   0.797
23100W        W94629  39.028  39.788  13.392
23101W        W94630  19.241   5.278   3.615
23102W        W94631  24.746   7.303  14.272
23103W        W94632  44.057   1.999  13.671
23104W        W94633   7.537  35.877  14.974
23105W        W94634  12.474   8.163  11.568
23106W        W94635   6.130   7.634  12.901
23107W        W94636  15.648   6.233   1.115
23108W        W94637  11.330  31.583  12.536
23109W        W94638   6.728  34.397   1.151
23110W        W94639   6.727  32.076  12.194
23111W        W94640  17.064  37.025  13.725
23112W        W94641  25.894  26.949   1.582
23113W        W94642  39.340   6.819   1.053
23114W        W94643  21.212  33.086   0.915
23115W        W94644   4.946   7.190   1.248
23116W        W94645  19.976  17.747  12.889
23117W        W94646  27.544  32.244   1.885
23118W        W94647  25.495  14.772   4.587
23119W        W94648  19.706  38.594   3.135
23120W        W94649  38.668  11.673   0.312
23121W        W94650   0.563  16.699  14.952
23122W        W94651  22.383  12.434   3.977
23123W        W94652  18.059   7.494   0.028
23124W        W94653  29.203  25.667  14.794
23125W        W94654  25.194   1.850  13.485
23126W        W94655  17.765   1.216   3.927
23127W        W94656  12.320  25.205  13.361
23128W        W94657   9.238  15.901   1.942
23129W        W94658  41.007   8.347  12.179
23130W        W94659  15.121  30.318  12.842
23131W        W94660  44.680   5.196   3.253
23132W        W94661   9.333  34.038  10.947
23133W        W94662  35.019  17.305   4.571
23134W        W94663  34.604   4.463   0.250
23135W        W94664  12.391   2.452  10.675
23136W        W94665  33.634  27.980   3.144
23137W        W94666  12.522  23.462   0.225
23138W        W94667  26.971  35.951  10.496
23139W        W94668  10.174  31.148  11.109
23140W        W94669  38.917  32.385   3.762
23141W        W94670  31.756   3.915   3.187
23142W        W94671  23.033  25.980  14.022
23143W        W94672   9.937  33.367  11.951
23144W        W94673   0.919  31.163   2.407
23145W        W94674   5.317   0.146  11.591
23146W        W94675   3.893   6.248   1.194
23147W        W94676  14.070  18.574   2.709
23148W        W94677  39.544  26.919   4.540
23149W        W94678  32.593   9.957   0.421
23150W        W94679  22.056  36.789  14.812
23151W        W94680  35.985  29.711  11.593
23152W        W94681  13.699  26.153   0.304
23153W        W94682  34.837  44.793  11.552
23154W        W94683  32.995   5.065  10.699
23155W        W94684  43.006  32.059   2.448
23156W        W94685   0.245   6.582  11.479
23157W        W94686  14.428  13.858   2.839
23158W        W94687  26.680  18.216   4.101
23159W        W94688   0.881  37.876  12.556
23160W        W94689  10.278   5.958   3.004
23161W        W94690   9.251  29.155  10.674
23162W        W94691  29.831  20.656   0.999
23163W        W94692  24.363  22.297  14.876
23164W        W94693   4.615  32.274  10.684
23165W        W94694   7.795   7.394   0.446
23166W        W94695   7.129   4.852  14.191
23167W        W94696  21.782  19.981  11.672
23168W        W94697  12.544  41.887   0.923
23169W        W94698  36.766  35.743  13.432
23170W        W94699  19.603  16.200  12.961
23171W        W94700  12.292   8.585   3.706
23172W        W94701  37.129  42.885  14.825
23173W        W94702   4.243  19.567   2.486
23174W        W94703  39.008  32.927   4.611
23175W        W94704  23.675   7.084   3.741
23176W        W94705  26.727  15.193  11.679
23177W        W94706   6.007  37.520  12.961
23178W        W94707   5.694  11.178   0.306
23179W        W94708  26.494   5.266  10.566
23180W        W94709  42.228  42.855   0.341
23181W        W94710   4.609  25.158   0.433
23182W        W94711  19.947  22.280  10.771
23183W        W94712  14.088  32.212   3.170
23184W        W94713  26.143  23.739   2.257
23185W        W94714  30.511   2.363   0.390
23186W        W94715  42.463  25.524  11.658
23187W        W94716   4.690  20.814   4.077
23188W        W94717  14.114   7.627  14.873
23189W        W94718  44.233   0.798   1.652
23190W        W94719   7.621  44.251  10.572
23191W        W94720   8.327   8.398   0.774
23192W        W94721  21.607   8.134   1.690
23193W        W94722  26.101  25.666   2.845
23194W        W94723  43.285   1.207  11.624
23195W        W94724  32.047  12.173  11.904
23196W        W94725  10.661  10.476  11.192
23197W        W94726  16.997  22.133  14.398
23198W        W94727   9.830   5.592   0.323
23199W        W94728  20.505  37.804  11.178
23200W        W94729  36.195   8.707  14.405
23201W        W94730  12.209  21.272  14.686
23202W        W94731  29.456   5.829   4.041
23203W        W94732  30.201  13.757   3.363
23204W        W94733   4.230   3.297  11.542
23205W        W94734  14.693  10.820   0.940
23206W        W94735  39.471  40.074  13.460
23207W        W94736  23.426  43.956  14.225
23208W        W94737  27.312  43.715   0.085
23209W        W94738  25.622   7.298  13.932
23210W        W94739   8.246  11.925  14.902
23211W        W94740  43.986   4.819   1.143
23212W        W94741  19.989   6.946  14.104
23213W        W94742  31.509  36.869   1.317
23214W        W94743  17.131  37.548  13.216
23215W        W94744  39.985  23.303   3.209
23216W        W94745  38.763  39.865   1.270
23217W        W94746  40.133  37.815   1.335
23218W        W94747  43.310  21.667  11.841
23219W        W94748   4.698  44.395   5.229
23220W        W94749  18.060  36.488  13.798
23221W        W94750   3.695  12.438   1.437
23222W        W94751  42.574  25.824   1.900
23223W        W94752  29.705  39.459  12.180
23224W        W94753  10.672  14.487   1.642
23225W        W94754   4.389   7.183  13.420
23226W        W94755  17.569   6.055   4.627
23227W        W94756  17.092  14.999  13.350
23228W        W94757  39.506  13.920   0.864
23229W        W94758   3.712  14.277   1.287
23230W        W94759  36.529  29.728  13.285
23231W        W94760  12.013  25.072  14.259
23232W        W94761  44.538  42.740   3.118
23233W        W94762  44.015  31.822  13.920
23234W        W94763  10.331  22.696  13.353
23235W        W94764  10.771  17.295  10.686
23236W        W94765  12.353  10.381  10.648
23237W        W94766  25.661  35.578   1.084
23238W        W94767   8.712  23.190  12.035
23239W        W94768  35.131   7.850  14.383
23240W        W94769  14.035  19.195   3.064
23241W        W94770  41.689  21.044  12.648
23242W        W94771  25.086  16.393   2.980
23243W        W94772  25.796  12.657   4.501
23244W        W94773  15.753   0.449   4.407
23245W        W94774   4.357   8.376   1.463
23246W        W94775  34.073  31.408   2.208
23247W        W94776  21.159  20.609   1.344
23248W        W94777  16.376  15.254  13.872
23249W        W94778  43.510  38.253   3.705
23250W        W94779   1.584   6.939   0.502
23251W        W94780  36.627   3.308  13.098
23252W        W94781   2.916   0.691  10.574
23253W        W94782  36.599  13.896   4.701
23254W        W94783  17.516  41.785   1.353
23255W        W94784  31.400   8.865   4.263
23256W        W94785  20.279  40.828   1.890
23257W        W94786  24.452   1.307  12.148
23258W        W94787  31.758  38.041  14.470
23259W        W94788   0.252  24.555  13.599
23260W        W94789  19.214  19.032   1.614
23261W        W94790   9.801  35.786  13.529
23262W        W94791  32.468   8.434   4.074
23263W        W94792  16.024  25.431  11.118
23264W        W94793  43.110   1.804   2.667
23265W        W94794   0.332  10.112   3.657
23266W        W94795   7.558  30.181   3.642
23267W        W94796   9.921  41.719  14.740
23268W        W94797  29.690  16.873  14.780
23269W        W94798   0.923  10.377  11.701
23270W        W94799  42.703  21.198  11.568
23271W        W94800  17.622  19.591   1.824
23272W        W94801   7.651  18.164   0.193
23273W        W94802  10.155  12.283   4.384
23274W        W94803  27.383  19.170   0.127
23275W        W94804  34.581  44.365  14.935
23276W        W94805   0.900  15.284   0.134
23277W        W94806  33.130  35.299  10.821
23278W        W94807  20.414  32.420  14.438
23279W        W94808  41.824   4.956  13.262
23280W        W94809  22.687  13.946   1.922
23281W        W94810   6.341  34.853  10.750
23282W        W94811   4.354  42.418  14.371
23283W        W94812  30.666   2.438  14.881
23284W        W94813  10.141  33.599  12.356
23285W        W94814  26.138  14.160  13.966
23286W        W94815   5.330  37.342   4.408
23287W        W94816   0.987  30.357  14.907
23288W        W94817  43.034  27.046  11.074
23289W        W94818   5.242  28.971  12.209
23290W        W94819  27.071  30.168  12.591
23291W        W94820  19.440  19.618  12.921
23292W        W94821  36.980  29.987  10.626
23293W        W94822   9.418  34.135  12.387
23294W        W94823   3.347  11.584   1.273
23295W        W94824   0.013   1.102   1.722
23296W        W94825  15.285   1.454  10.695
23297W        W94826  22.682  20.202  11.618
23298W        W94827  14.507  22.311  11.124
23299W        W94828  18.027  38.641  13.864
23300W        W94829  37.080  23.042  11.600
23301W        W94830  22.071  14.619  12.139
23302W        W94831  35.643   8.213   4.429
23303W        W94832  17.499   8.653   3.159
23304W        W94833  11.377  13.370  13.864
23305W        W94834  34.036   0.787  11.017
23306W        W94835  40.285   1.494   1.904
23307W        W94836  39.324  35.838  13.403
23308W        W94837  39.747  23.004   1.859
23309W        W94838   5.199  26.961  14.906
23310W        W94839  11.728  33.968  10.383
23311W        W94840  19.493  16.111   0.841
23312W        W94841  37.384  25.063   3.408
23313W        W94842  24.929  24.329  11.138
23314W        W94843  25.946   1.756  11.886
23315W        W94844  37.369  25.999  12.914
23316W        W94845  25.332   2.812   3.514
23317W        W94846  43.312  24.538  10.858
23318W        W94847  39.325   5.672  11.662
23319W        W94848  41.086   3.355  11.265
23320W        W94849  17.686  43.430   3.897
23321W        W94850   4.468  24.681   3.902
23322W        W94851   4.895  31.367  12.953
23323W        W94852  15.728  30.660  12.142
23324W        W94853  18.503  13.855  12.151
23325W        W94854  11.447  33.383  10.429
23326W        W94855  35.720   3.881  10.988
23327W        W94856  10.286  36.372   3.053
23328W        W94857  32.518  22.600  12.552
23329W        W94858   8.599  26.011  12.957
23330W        W94859  14.414   1.793   0.522
23331W        W94860   4.877  28.628  12.307
23332W        W94861  20.146   1.336  12.300
23333W        W94862  24.080  44.566   3.344
23334W        W94863  33.887  16.740   0.982
23335W        W94864  14.502  33.113  11.632
23336W        W94865  24.666   7.750  12.165
23337W        W94866   6.202   6.632  12.925
23338W        W94867  35.905  42.865   1.802
23339W        W94868   7.758  13.542  14.909
23340W        W94869   5.449  23.769  10.785
23341W        W94870   1.861   9.340  13.565
23342W        W94871  19.558  43.326   1.276
23343W        W94872   7.952  20.031   4.209
23344W        W94873  11.575  38.609  12.888
23345W        W94874  18.554   1.418   1.803
23346W        W94875  34.852  14.366   2.198
23347W        W94876  17.687  25.007  10.739
23348W        W94877  38.286  13.751   3.135
23349W        W94878  19.780  27.674   2.417
23350W        W94879  31.207  17.182   5.028
23351W        W94880  41.809  33.743   4.366
23352W        W94881  19.870  32.075   4.772
23353W        W94882   7.409  29.714   2.148
23354W        W94883  28.785  28.298   0.330
23355W        W94884   6.126   1.894   2.542
23356W        W94885  14.661  37.573   0.677
23357W        W94886  12.096   6.410  13.457
23358W        W94887   7.182   5.322  14.889
23359W        W94888  39.455  36.586  10.566
23360W        W94889  37.013   4.742  12.089
23361W        W94890   7.501  36.038  10.708
23362W        W94891  24.785  32.047  13.437
23363W        W94892  34.559  26.786   0.724
23364W        W94893   3.380  32.760   4.640
23365W        W94894  29.238  35.036  12.482
23366W        W94895  35.473   8.579   5.165
23367W        W94896  12.872  23.116  12.117
23368W        W94897   2.963   4.389   0.200
23369W        W94898  37.800  33.072  12.048
23370W        W94899  40.662   7.780   1.386
23371W        W94900  15.345  27.714  13.971
23372W        W94901  33.955  23.888  10.511
23373W        W94902  19.873   1.379   1.308
23374W        W94903   3.929   4.588  12.408
23375W        W94904  33.068  39.957  11.963
23376W        W94905  28.663   7.059   2.479
23377W        W94906   6.090  20.525   0.245
23378W        W94907   0.303  24.035  13.379
23379W        W94908  10.612  23.980   4.374
23380W        W94909  12.278  36.814   2.424
23381W        W94910  23.723   9.148  10.752
23382W        W94911   5.099  40.712   2.113
23383W        W94912  14.001  37.723   4.970
23384W        W94913   3.674  42.935   0.462
23385W        W94914  36.563  24.748   2.343
23386W        W94915  24.688  43.645   2.929
23387W        W94916  26.903  34.154  14.809
23388W        W94917  44.172  41.259  12.944
23389W        W94918   8.434  38.892   0.269
23390W        W94919  32.824   5.341  11.587
23391W        W94920  12.803  43.408   0.979
23392W        W94921  35.567  10.911   2.088
23393W        W94922  22.035   5.193  13.479
23394W        W94923  38.330  16.636   3.538
23395W        W94924  44.243  33.997  12.037
23396W        W94925   9.189  40.382  10.959
23397W        W94926  10.089  33.690   5.005
23398W        W94927  20.818  14.641   1.674
23399W        W94928   5.439  10.193   0.696
23400W        W94929  44.892   4.814  11.260
23401W        W94930  23.235  40.425   1.234
23402W        W94931   4.656  19.485  10.280
23403W        W94932  41.817  43.136  11.528
23404W        W94933  37.522  29.887  13.078
23405W        W94934  25.974  13.652  13.984
23406W        W94935  30.143  41.931   2.465
23407W        W94936  16.691  24.205  10.730
23408W        W94937   7.408  11.822   0.942
23409W        W94938  31.395  20.565  13.195
23410W        W94939  35.497  43.485   3.085
23411W        W94940  39.037  22.093  14.909
23412W        W94941   7.916  20.238   1.268
23413W        W94942  42.460  26.675  10.591
23414W        W94943  26.013  16.462  13.960
23415W        W94944  18.589  43.215   4.250
23416W        W94945   2.340  12.055  11.405
23417W        W94946   3.599  32.200  10.809
23418W        W94947  12.425  18.653   1.802
23419W        W94948  25.472  17.752   4.569
23420W        W94949  14.562  37.099   1.463
23421W        W94950  27.822  11.134   0.881
23422W        W94951  14.782  20.530   3.485
23423W        W94952  17.653   8.258   2.872
23424W        W94953  15.176  30.449   4.604
23425W        W94954  16.257  23.972   0.448
23426W        W94955   7.612   5.829  11.693
23427W        W94956  42.374  10.748   3.459
23428W        W94957  12.285  19.879   4.625
23429W        W94958  37.642  20.952   4.292
23430W        W94959  25.493  28.550  11.044
23431W        W94960  29.176  41.926   0.265
23432W        W94961   9.137  17.224   1.303
23433W        W94962   5.979  29.546  11.173
23434W        W94963  44.850  16.883  13.792
23435W        W94964   0.950   0.319  11.494
23436W        W94965   0.451   0.326  13.073
23437W        W94966   6.910  34.377   3.253
23438W        W94967  23.115  38.402  10.626
23439W        W94968  17.861  35.279   4.138
23440W        W94969  26.625  13.427  11.499
23441W        W94970  23.224  23.586  12.218
23442W        W94971  12.901  36.463  13.587
23443W        W94972  39.769  24.982   0.238
23444W        W94973  42.373  27.147   2.671
23445W        W94974  32.971  15.823   0.878
23446W        W94975  33.029  15.888   4.011
23447W        W94976   0.884  38.866   2.788
23448W        W94977  29.802  24.168  13.781
23449W        W94978  44.442  13.377   0.798
23450W        W94979  26.539   6.902   2.903
23451W        W94980   7.595   1.941   0.935
23452W        W94981  11.381  39.557  14.828
23453W        W94982  33.858  42.859   4.607
23454W        W94983  37.347  24.059   3.224
23455W        W94984  15.802   1.857   0.412
23456W        W94985  31.042  11.624   1.484
23457W        W94986  39.340  17.181   0.452
23458W        W94987  35.398  17.297   1.347
23459W        W94988   7.852  23.040  12.386
23460W        W94989  21.139  42.180   1.279
23461W        W94990  21.592  39.913   0.009
23462W        W94991  37.026   2.931   0.741
23463W        W94992   6.639  17.603   0.928
23464W        W94993   8.250  13.174  12.343
23465W        W94994  43.038  17.503  11.675
23466W        W94995  28.398  10.120  10.324
23467W        W94996  43.022  14.102  11.545
23468W        W94997  44.680  18.189   2.414
23469W        W94998  43.326  11.387   1.932
23470W        W94999  42.242  17.047  12.508
23471W        W95000  32.367   8.302   2.232
23472W        W95001  38.397   8.441  13.326
23473W        W95002  21.167  15.560  14.527
23474W        W95003   1.758  24.801   2.156
23475W        W95004  28.027  33.039  12.496
23476W        W95005  36.885  23.732   0.379
23477W        W95006  30.967  44.025  10.381
23478W        W95007  15.168  42.003  11.499
23479W        W95008  43.894   9.620  11.629
23480W        W95009  27.846  26.187  14.577
23481W        W95010  17.647   1.296   1.334
23482W        W95011  14.030   8.774  13.307
23483W        W95012   0.740  13.455   5.028
23484W        W95013  30.700   2.769  12.310
23485W        W95014   9.022  37.029  10.542
23486W        W95015  16.925   0.837  12.222
23487W        W95016  23.603  43.065   3.682
23488W        W95017  31.690   2.326  13.033
23489W        W95018  16.382   5.953  10.914
23490W        W95019  28.392   8.341   3.981
23491W        W95020  21.023  37.979  13.546
23492W        W95021  28.494   4.677   2.877
23493W        W95022  19.252  12.620   3.239
23494W        W95023  40.986   1.328   3.103
23495W        W95024  24.743   7.693   0.467
23496W        W95025  18.667   1.219   3.347
23497W        W95026  24.231  34.398  12.473
23498W        W95027   9.320  38.835   2.437
23499W        W95028   0.076   3.665  11.557
23500W        W95029  10.076   9.309  12.973
23501W        W95030  21.681  25.157   2.890
23502W        W95031  44.867  43.523   3.214
23503W        W95032  25.566  38.451   2.360
23504W        W95033   6.149  31.147   3.321
23505W        W95034  11.171  39.360  13.359
23506W        W95035  35.346  28.675  13.895
23507W        W95036  14.659  14.618   3.850
23508W        W95037  13.391  33.031   1.592
23509W        W95038  39.631  43.870  11.032
23510W        W95039  35.405  23.955  11.903
23511W        W95040  14.019  25.743   1.764
23512W        W95041  15.471  29.025   2.222
23513W        W95042  16.583  22.280  11.624
23514W        W95043   2.238  21.585   2.855
23515W        W95044  37.410  24.210  13.499
23516W        W95045  20.403  38.948   3.578
23517W        W95046  14.147  36.781   1.293
23518W        W95047  13.985   0.247  12.635
23519W        W95048  26.120   9.746  11.125
23520W        W95049  11.776  19.123   4.386
23521W        W95050  27.914  25.050   1.851
23522W        W95051  17.169  15.947   0.769
23523W        W95052  16.362   0.921  13.517
23524W        W95053  38.983  18.276   4.826
23525W        W95054  27.474  13.706  12.858
23526W        W95055  15.420  32.521  11.597
23527W        W95056  22.042  30.740  12.122
23528W        W95057  34.081  20.131  13.361
23529W        W95058  28.623  26.971   4.574
23530W        W95059  33.405  43.852   1.846
23531W        W95060  44.693  22.687   1.935
23532W        W95061  10.538  36.327   2.057
23533W        W95062  44.320  18.189  13.652
23534W        W95063   8.411  28.427   4.337
23535W        W95064   7.477  28.051  14.901
23536W        W95065  18.078  31.151  12.497
23537W        W95066  11.562  41.357   1.213
23538W        W95067   7.573  27.719   3.831
23539W        W95068  18.701   3.921   1.461
23540W        W95069  24.469  20.543  12.965
23541W        W95070  41.761  29.680   1.936
23542W        W95071   2.796  22.956   1.364
23543W        W95072  33.625  25.177  10.511
23544W        W95073  10.635   2.717   2.220
23545W        W95074  33.510  35.522   1.725
23546W        W95075  41.270  12.027  13.288
23547W        W95076  15.700   6.410  14.438
23548W        W95077  35.789  10.789  14.380
23549W        W95078  23.541  32.104  12.500
23550W        W95079  29.604  23.136   4.053
23551W        W95080  43.826  31.903   4.658
23552W        W95081  44.839  18.481  14.449
23553W        W95082  33.865  14.687  12.567
23554W        W95083  28.074  40.031  12.703
23555W        W95084  22.227   3.009  12.050
23556W        W95085  12.223  41.209  12.389
23557W        W95086   2.800   9.856  13.842
23558W        W95087  33.182  39.918   0.378
23559W        W95088  26.749  13.686   1.433
23560W        W95089  12.726  33.604  13.124
23561W        W95090   7.260  29.792  13.609
23562W        W95091  21.550  38.969   3.262
23563W        W95092  40.732  44.679  12.434
23564W        W95093  34.117  35.295   3.671
23565W        W95094  40.448   9.652   0.554
23566W        W95095   6.359  15.936  11.960
23567W        W95096  14.246  17.115   1.391
23568W        W95097  35.351  16.551  13.496
23569W        W95098   6.943  43.375   3.069
23570W        W95099  16.182  15.339  12.009
23571W        W95100  38.392   2.844  14.522
23572W        W95101  17.675  18.400  12.486
23573W        W95102  23.984  25.567   3.601
23574W        W95103   5.203  14.322  13.987
23575W        W95104  10.766  33.976   0.197
23576W        W95105  29.447  22.826  11.929
23577W        W95106   6.214   9.343  13.857
23578W        W95107  21.137  22.705   1.818
23579W        W95108  29.467  33.376   4.163
23580W        W95109  34.101  17.282   2.769
23581W        W95110  28.196   9.159  12.320
23582W        W95111  40.785  40.308   0.047
23583W        W95112  43.998  24.920   3.157
23584W        W95113  20.740  38.388  13.353
23585W        W95114  17.023  19.216   3.934
23586W        W95115   3.027  28.293  11.658
23587W        W95116  28.545  24.769   3.948
23588W        W95117  21.165  25.679  10.620
23589W        W95118  37.438   4.220   2.721
23590W        W95119   4.969   0.520   0.883
23591W        W95120  33.784   2.082  11.229
23592W        W95121  38.391  15.603   2.167
23593W        W95122  40.082   9.828  12.035
23594W        W95123  30.627   1.422   2.445
23595W        W95124  15.090   1.695   2.597
23596W        W95125  21.190  22.965   4.192
23597W        W95126  19.055  25.274   0.074
23598W        W95127  25.312  30.535  13.149
23599W        W95128  11.690   8.659   4.099
23600W        W95129  29.370  21.455   2.876
23601W        W95130   8.151  21.110   4.542
23602W        W95131  28.996  13.201  11.605
23603W        W95132  41.661   6.127  10.776
23604W        W95133  12.877  26.591   4.798
23605W        W95134  19.233  16.354  11.465
23606W        W95135   2.582   7.236  14.302
23607W        W95136  11.380  33.511   2.987
23608W        W95137  10.411  16.107   3.139
23609W        W95138  11.173  22.236  10.773
23610W        W95139   0.534  42.904  11.500
23611W        W95140   4.189  21.917  13.986
23612W        W95141  31.259  23.819   0.759
23613W        W95142   2.848  40.884   0.368
23614W        W95143   4.582  37.257  13.447
23615W        W95144  19.431   4.095   3.228
23616W        W95145  18.168  40.478  12.984
23617W        W95146  16.744  23.619  12.065
23618W        W95147   6.359   5.086   2.334
23619W        W95148  21.104  14.842  13.979
23620W        W95149  28.124  39.070   1.219
23621W        W95150  18.827  17.157   9.939
23622W        W95151   4.761  27.794  10.710
23623W        W95152   9.130   7.705   0.459
23624W        W95153  40.972  36.616   2.327
23625W        W95154  32.378  19.123  11.153
23626W        W95155  41.217   4.652   3.346
23627W        W95156   3.142  39.410   2.244
23628W        W95157  11.226  42.498  10.423
23629W        W95158  35.068   8.687   2.371
23630W        W95159   6.334   7.761   4.415
23631W        W95160  14.858  34.815  13.376
23632W        W95161   0.154  15.094   1.709
23633W        W95162  41.005  43.243  13.775
23634W        W95163  31.460   3.681  13.465
23635W        W95164  27.990  12.683  12.912
23636W        W95165  18.604  26.220  13.654
23637W        W95166  10.033  41.948  14.265
23638W        W95167   4.297  14.708  14.267
23639W        W95168  37.230  11.209   1.841
23640W        W95169  26.653  15.680  12.348
23641W        W95170   2.748   2.786   2.647
23642W        W95171   7.553  33.327   5.037
23643W        W95172  14.874  18.586   2.487
23644W        W95173  25.514  18.981  14.946
23645W        W95174   6.799   2.694  12.457
23646W        W95175  39.466  11.374   4.046
23647W        W95176  23.435  11.148  12.920
23648W        W95177  15.113  24.130  13.497
23649W        W95178  33.674  20.118  14.782
23650W        W95179   5.373  41.494   4.174
23651W        W95180  31.056  44.029  13.785
23652W        W95181  41.901  22.149  14.562
23653W        W95182  22.678  10.208   4.601
23654W        W95183  23.099  37.647   1.825
23655W        W95184  44.380  28.394  12.088
23656W        W95185  44.831  22.433   2.393
23657W        W95186   2.686   7.618  14.650
23658W        W95187  17.253   5.957  14.405
23659W        W95188  30.986  18.987   2.041
23660W        W95189  12.211  42.499  12.025
23661W        W95190  38.567  33.592   0.001
23662W        W95191  35.629  37.282  12.591
23663W        W95192  23.285  28.354  10.951
23664W        W95193  34.644  30.440  11.995
23665W        W95194  19.232  40.404  14.394
23666W        W95195   6.710   8.360  12.947
23667W        W95196  23.198  37.049   0.651
23668W        W95197  16.764  14.230   0.726
23669W        W95198  15.460   8.089   2.717
23670W        W95199  13.634  43.112  14.383
23671W        W95200  31.110  44.463   1.751
23672W        W95201   0.871  14.305   1.357
23673W        W95202  36.606  35.854  11.059
23674W        W95203  37.957  40.821  12.407
23675W        W95204  32.868  38.396  10.631
23676W        W95205  37.806  31.079   2.124
23677W        W95206  29.065  38.288   0.205
23678W        W95207   9.371   1.786   3.815
23679W        W95208  33.496  21.056  12.304
23680W        W95209  31.475  31.862  12.913
23681W        W95210  19.418  38.151  11.535
23682W        W95211  20.279   3.441   5.117
23683W        W95212  13.876  18.666  10.660
23684W        W95213  37.391  12.163   1.600
23685W        W95214  10.529  13.885  10.357
23686W        W95215  12.650  35.890  14.785
23687W        W95216  37.770   4.347  14.463
23688W        W95217  32.465  33.729  14.965
23689W        W95218  40.349   2.431   1.978
23690W        W95219   7.863  33.990   0.450
23691W        W95220  29.572  33.722   2.355
23692W        W95221  29.373   0.868  12.319
23693W        W95222  19.707  19.553   0.566
23694W        W95223   6.672  22.114  11.173
23695W        W95224  15.944  40.608  12.436
23696W        W95225  40.927  37.374  12.900
23697W        W95226  44.801  10.756   0.688
23698W        W95227  41.947  15.926   2.585
23699W        W95228  11.239  16.840  12.467
23700W        W95229  26.653  31.166   1.890
23701W        W95230  38.492  16.758  13.345
23702W        W95231  35.834  36.321  12.626
23703W        W95232   1.286  36.991   4.067
23704W        W95233  40.559  34.002   3.758
23705W        W95234  10.244  30.877   2.306
23706W        W95235  32.797  18.167   2.446
23707W        W95236  20.170  11.341   0.873
23708W        W95237  38.363  35.074  10.702
23709W        W95238   9.120  24.101   3.636
23710W        W95239  38.983   2.077   1.830
23711W        W95240  34.561  18.769  12.488
23712W        W95241  33.228  35.256  12.944
23713W        W95242  28.585   4.646   3.397
23714W        W95243  43.661  34.367   2.326
23715W        W95244  35.329  16.102  10.424
23716W        W95245   2.197   0.773   0.901
23717W        W95246  38.272  15.149  14.593
23718W        W95247  37.828   1.802  12.587
23719W        W95248  22.071  38.347   0.926
23720W        W95249  15.208  41.520   1.092
23721W        W95250  14.654  15.136   0.244
23722W        W95251  27.989  37.785  14.550
23723W        W95252  29.894  19.675  11.608
23724W        W95253   9.502  22.986   3.315
23725W        W95254  30.938  22.525   4.596
23726W        W95255  18.575  27.541   5.771
23727W        W95256   4.350  32.053   1.826
23728W        W95257   6.504  10.151  12.019
23729W        W95258  36.959  43.736   3.192
23730W        W95259  20.934  44.484  11.845
23731W        W95260  11.248  34.347   2.852
23732W        W95261   0.216  42.373  13.998
23733W        W95262  18.164  19.167   1.784
23734W        W95263   2.759  16.014  13.377
23735W        W95264  16.914  39.862  13.807
23736W        W95265   6.097   2.303  10.836
23737W        W95266   8.931  42.515  11.897
23738W        W95267   3.742  22.014   4.619
23739W        W95268  29.818  22.068  11.382
23740W        W95269   9.225  33.454   4.521
23741W        W95270   3.790  35.768   1.684
23742W        W95271  18.583  13.081   1.932
23743W        W95272  24.349  38.035  12.583
23744W        W95273  26.403  12.302  10.558
23745W        W95274  29.558  13.377  11.902
23746W        W95275  24.106   3.229   0.343
23747W        W95276  39.610  43.600   1.030
23748W        W95277  29.151  37.490  10.384
23749W        W95278   7.178  38.836  11.895
23750W        W95279   6.933  14.304  14.496
23751W        W95280   2.342  28.021   3.569
23752W        W95281  13.189  21.470   0.923
23753W        W95282  17.179  18.322  12.652
23754W        W95283   9.319  34.340  14.464
23755W        W95284  27.164  10.910   2.851
23756W        W95285  17.354  25.088   4.113
23757W        W95286  19.399  27.314   0.366
23758W        W95287  38.535  35.934  12.981
23759W        W95288  43.302  13.519  10.974
23760W        W95289   0.919  31.947   0.740
23761W        W95290  20.016  32.069   2.525
23762W        W95291   8.374  16.120  13.374
23763W        W95292  34.928  13.899   0.976
23764W        W95293  20.043  31.476  14.214
23765W        W95294  33.363  33.518  12.099
23766W        W95295  34.859   1.052  13.967
23767W        W95296  33.010   8.801  13.265
23768W        W95297   3.945  19.780   4.174
23769W        W95298  30.485  14.121   4.269
23770W        W95299  24.096  41.988   1.920
23771W        W95300  41.608  40.805   2.932
23772W        W95301  28.217  32.501  12.330
23773W        W95302  31.916  19.280   0.945
23774W        W95303  15.851   2.824   0.906
23775W        W95304   9.188  22.060  14.400
23776W        W95305  43.596  15.387  11.975
23777W        W95306  31.311  31.967   1.218
23778W        W95307  41.720  44.941  12.723
23779W        W95308   5.895   6.861  12.067
23780W        W95309  21.045   5.803  12.545
23781W        W95310  21.453  37.869   4.109
23782W        W95311  37.299  20.300  14.795
23783W        W95312  10.130  26.172  10.598
23784W        W95313   8.708  31.709   5.218
23785W        W95314  30.163  15.988   2.710
23786W        W95315   8.244  26.941  14.674
23787W        W95316  28.833  21.321   2.657
23788W        W95317  22.319   5.923   2.870
23789W        W95318   7.243  43.122  11.488
23790W        W95319  33.708  35.884   4.157
23791W        W95320  26.275   6.161   3.887
23792W        W95321   1.893  32.288   3.705
23793W        W95322  21.279   1.838   1.987
23794W        W95323  41.736  17.400  14.520
23795W        W95324  34.241   1.274  11.182
23796W        W95325  26.093  27.612  14.258
23797W        W95326  38.474  24.979   0.807
23798W        W95327  33.400   4.430  14.945
23799W        W95328  28.138   0.735  14.827
23800W        W95329  36.997  37.537   1.454
23801W        W95330  43.112  27.924  11.186
23802W        W95331  43.484  25.186  12.594
23803W        W95332  16.793   7.937   0.536
23804W        W95333  28.660  36.075  13.876
23805W        W95334  22.523   0.830   0.968
23806W        W95335  39.333  12.275  14.839
23807W        W95336  34.559  27.571   3.036
23808W        W95337  14.111  34.588  13.798
23809W        W95338  12.855   4.515   1.259
23810W        W95339  35.333  40.405  13.297
23811W        W95340  26.558   8.733   1.233
23812W        W95341  42.742  40.145   0.733
23813W        W95342  29.553   4.819   4.950
23814W        W95343  37.122  20.187  14.313
23815W        W95344  17.127  32.919  14.978
23816W        W95345  11.603   6.213   2.253
23817W        W95346  18.315  12.589   1.624
23818W        W95347   4.735  33.231  12.429
23819W        W95348  22.244   3.997  11.236
23820W        W95349  40.663  36.096   0.848
23821W        W95350  42.373  13.480  13.974
23822W        W95351   7.773  39.050  12.489
23823W        W95352   7.723   3.268   3.622
23824W        W95353   6.242  44.851  13.572
23825W        W95354  41.711  23.786   0.538
23826W        W95355   9.061  26.870  10.104
23827W        W95356   8.556  26.530  12.873
23828W        W95357   8.570  28.555   1.348
23829W        W95358  27.255  11.918   0.467
23830W        W95359  18.822   0.015   0.962
23831W        W95360  41.576  33.079   3.729
23832W        W95361  32.337   4.244  13.560
23833W        W95362  36.665  20.220  10.622
23834W        W95363  32.454  28.978  14.074
23835W        W95364   8.928  10.589   3.675
23836W        W95365  40.621  32.944  11.962
23837W        W95366  17.143   3.522  10.412
23838W        W95367  42.974  28.057  11.654
23839W        W95368  35.220   1.445   1.427
23840W        W95369  20.231  29.631   0.728
23841W        W95370  22.832  27.805   4.820
23842W        W95371   5.780   4.966   2.234
23843W        W95372  28.039  17.237  13.883
23844W        W95373   0.777  25.037   3.179
23845W        W95374   4.195   6.326  12.861
23846W        W95375  44.020  18.813  14.927
23847W        W95376   6.650  19.330  13.019
23848W        W95377  33.064  18.650   2.273
23849W        W95378  27.729  14.267  12.519
23850W        W95379  35.933  42.562   3.222
23851W        W95380  31.452  21.629   4.558
23852W        W95381  24.035  35.909   1.329
23853W        W95382  27.112  21.902   1.408
23854W        W95383  23.646  35.651  13.487
23855W        W95384  27.086  29.186  13.823
23856W        W95385  13.667  12.654  12.446
23857W        W95386  16.821   9.659   0.755
23858W        W95387  44.965   8.679  10.764
23859W        W95388  43.725  35.941   1.139
23860W        W95389  35.474   5.476   2.773
23861W        W95390   2.856  31.294  11.973
23862W        W95391   2.414   9.775   4.606
23863W        W95392  42.487  17.164   1.845
23864W        W95393  17.697  42.928  14.266
23865W        W95394   1.161  25.687  12.372
23866W        W95395  32.912  16.076  11.529
23867W        W95396  30.628   5.793   1.572
23868W        W95397   8.197  44.803  14.459
23869W        W95398   8.699  21.124  10.611
23870W        W95399  23.469  18.710   3.424
23871W        W95400  36.530   1.787  12.151
23872W        W95401   9.246  20.173  14.128
23873W        W95402  44.723   2.248   0.964
23874W        W95403  43.878  19.631  10.649
23875W        W95404   8.707  28.523  13.901
23876W        W95405  44.809  39.799   0.297
23877W        W95406   4.171  36.975   0.086
23878W        W95407  32.528  22.943   1.241
23879W        W95408  37.982  27.467  11.209
23880W        W95409  30.862  25.081   0.783
23881W        W95410   4.703   5.353   1.149
23882W        W95411   9.170  21.931   0.381
23883W        W95412  36.511  40.600   0.204
23884W        W95413   6.545   2.997   4.152
23885W        W95414   2.462  28.865   2.452
23886W        W95415  39.970  30.924  12.418
23887W        W95416   0.934  36.373  11.003
23888W        W95417   6.957  41.016   3.038
23889W        W95418  37.957  37.571  13.045
23890W        W95419  36.271  15.477  10.394
23891W        W95420  19.696  32.585   1.981
23892W        W95421  30.518  30.959  14.609
23893W        W95422   1.964   8.051   2.797
23894W        W95423   8.718  32.312  12.151
23895W        W95424  17.752  39.336   3.047
23896W        W95425  23.267   1.992   2.841
23897W        W95426  10.155  17.457  14.826
23898W        W95427   2.721  43.390  12.551
23899W        W95428  12.596  43.553   3.769
23900W        W95429  43.720  26.510   1.321
23901W        W95430  39.692  10.099   4.101
23902W        W95431  31.549  34.192  12.324
23903W        W95432  18.611  11.329   3.146
23904W        W95433  32.690  37.023   4.668
23905W        W95434   4.972  33.244  14.929
23906W        W95435  44.328  29.125   3.294
23907W        W95436  10.385  20.739   1.819
23908W        W95437  41.353   9.129   2.874
23909W        W95438   5.785  33.995  13.113
23910W        W95439   5.486  16.852  11.992
23911W        W95440  22.074  31.105   3.107
23912W        W95441  31.506  17.768  14.001
23913W        W95442  31.168  23.777   9.883
23914W        W95443  12.355  10.471  12.273
23915W        W95444  24.502  32.586   3.533
23916W        W95445  19.484   9.401  11.114
23917W        W95446  24.038  36.831  12.968
23918W        W95447  36.934   9.625  11.963
23919W        W95448  13.599  10.645  14.074
23920W        W95449  29.106  34.656   4.621
23921W        W95450  13.814  29.963   0.129
23922W        W95451  39.137   5.574  13.576
23923W        W95452   2.666   2.059  12.934
23924W        W95453   3.193  25.555  13.894
23925W        W95454  16.226   1.357  13.741
23926W        W95455   8.265   9.839   4.093
23927W        W95456  23.599  12.109  14.835
23928W        W95457  11.364  36.684  13.904
23929W        W95458  29.154  30.919   0.365
23930W        W95459  21.100  24.207   4.855
23931W        W95460  26.082  26.710  14.335
23932W        W95461  36.698  37.031   3.662
23933W        W95462   0.297  24.643   0.030
23934W        W95463  24.226  28.004   4.169
23935W        W95464  39.924  24.945  11.657
23936W        W95465  31.414   2.902  12.187
23937W        W95466  19.895  19.632  10.300
23938W        W95467  44.860  21.670   1.727
23939W        W95468  18.528  27.219   1.286
23940W        W95469  34.862   0.751  10.883
23941W        W95470  25.222  32.599   3.305
23942W        W95471  14.805   7.445  13.571
23943W        W95472  32.407  35.526   1.768
23944W        W95473  43.681  22.696   2.590
23945W        W95474  28.830   9.696  12.425
23946W        W95475  41.447   5.944  14.816
23947W        W95476   7.137  26.808  14.078
23948W        W95477  22.238   5.705  13.325
23949W        W95478  23.545  33.094  12.597
23950W        W95479  28.293  32.247   2.285
23951W        W95480  23.136   3.017   0.035
23952W        W95481   8.893   8.759   4.594
23953W        W95482  42.627  41.026  12.782
23954W        W95483  11.274  12.054  10.651
23955W        W95484   4.963   0.957   4.239
23956W        W95485  25.605   2.887   4.334
23957W        W95486   9.839  27.783  10.637
23958W        W95487   4.418  43.563  13.559
23959W        W95488  34.042  25.083  12.029
23960W        W95489  40.076   3.259   0.962
23961W        W95490  26.087   8.249   2.817
23962W        W95491   7.181  38.823  11.390
23963W        W95492  36.354   0.277   2.913
23964W        W95493   9.676  22.156   4.570
23965W        W95494   5.266  43.824   3.698
23966W        W95495  25.157  36.929   4.424
23967W        W95496  14.705  16.708  12.724
23968W        W95497  10.165  11.123  12.963
23969W        W95498  27.946  36.304  14.294
23970W        W95499  33.404  15.261  13.636
23971W        W95500  28.612  39.917  14.269
23972W        W95501   9.586  43.214   4.057
23973W        W95502  27.004  22.019  12.571
23974W        W95503  31.644  28.175  10.428
23975W        W95504  23.170  14.504   4.378
23976W        W95505  14.351   2.693  13.533
23977W        W95506  36.775  15.274  13.508
23978W        W95507   5.704  35.108   1.762
23979W        W95508  24.793  16.115  12.059
23980W        W95509   0.262  40.360  11.955
23981W        W95510  37.629  16.484  12.504
23982W        W95511  27.752  20.378  11.112
23983W        W95512  39.067  30.704  12.213
23984W        W95513  32.062  29.391   4.947
23985W        W95514  41.770  25.562   2.151
23986W        W95515   0.980  29.362   1.952
23987W        W95516   2.352  43.771  12.578
23988W        W95517  18.040  10.997  13.428
23989W        W95518  38.106  14.350  11.886
23990W        W95519  44.953  32.637  12.586
23991W        W95520   8.744  32.000   4.307
23992W        W95521   2.444   7.904  13.819
23993W        W95522  10.524   7.871   4.793
23994W        W95523  24.446   6.462   2.313
23995W        W95524   4.111  21.667   1.172
23996W        W95525  41.933  15.281  11.402
23997W        W95526   2.325   8.992  12.399
23998W        W95527  38.992  40.609   1.622
23999W        W95528  25.411   2.326  13.410
24000W        W95529   9.888   8.165  10.796
24001W        W95530   5.427  28.702   4.717
24002W        W95531  28.240  32.772   2.382
24003W        W95532  23.134   3.618   3.207
24004W        W95533  36.666  32.428   2.569
24005W        W95534  37.096  38.311   0.320
24006W        W95535   5.838  20.571   3.338
24007W        W95536   1.883  31.189   1.876
24008W        W95537  38.462  27.056  12.825
24009W        W95538  36.301  19.890   4.202
24010W        W95539   7.860  36.174  13.765
24011W        W95540   6.136  21.565   3.314
24012W        W95541   8.823  27.029   2.291
24013W        W95542  43.945  20.102  11.398
24014W        W95543  31.436  44.070   1.865
24015W        W95544  39.470  39.020   3.786
24016W        W95545  40.357  16.329  13.840
24017W        W95546  34.453  29.427   1.475
24018W        W95547   9.228  26.826   0.876
24019W        W95548  22.096   2.358   2.756
24020W        W95549  34.099  34.964  12.013
24021W        W95550  32.786  20.449  12.583
24022W        W95551   8.158  22.220   3.651
24023W        W95552  44.354  22.582   2.305
24024W        W95553  20.169   1.693   1.047
24025W        W95554  10.714  43.718  11.174
24026W        W95555  23.823   7.178  12.126
24027W        W95556  42.438   4.177   4.325
24028W        W95557  29.814  16.317   1.769
24029W        W95558  39.453  21.152  10.613
24030W        W95559   4.571  10.523   4.260
24031W        W95560  24.559   7.719  13.158
24032W        W95561   0.808  42.915  10.181
24033W        W95562   2.248  28.633  11.102
24034W        W95563  20.838  39.911   0.725
24035W        W95564  40.771   9.285  12.095
24036W        W95565  26.588  31.926  14.724
24037W        W95566  30.778  14.460   1.069
24038W        W95567  39.873  32.069  12.453
24039W        W95568   8.250  42.231   1.774
24040W        W95569  28.626  13.389  13.316
24041W        W95570  21.671   6.197  13.222
24042W        W95571  15.644  10.069   0.274
24043W        W95572   7.940   0.631   3.881
24044W        W95573  13.315  31.846   3.642
24045W        W95574   2.290   9.104  11.472
24046W        W95575  38.595  25.544   4.391
24047W        W95576  24.999  16.600  12.072
24048W        W95577  33.809  27.190   3.282
24049W        W95578  16.252  24.280  14.373
24050W        W95579  24.895  42.414  12.101
24051W        W95580  17.124  34.153   4.652
24052W        W95581  37.162  28.552  12.613
24053W        W95582  13.177  26.532   5.227
24054W        W95583  44.396  22.359  13.998
24055W        W95584  30.473  41.066  14.492
24056W        W95585  35.529  14.322  14.153
24057W        W95586   2.252  21.876  12.784
24058W        W95587   5.073  41.419   3.676
24059W        W95588  34.567  12.811  11.421
24060W        W95589   2.507   9.329   2.406
24061W        W95590  41.829  36.308   3.790
24062W        W95591   7.776  17.066  11.390
24063W        W95592   4.883  39.758  13.456
24064W        W95593   2.533  20.658  11.230
24065W        W95594  12.823  31.031   2.747
24066W        W95595  17.808  16.595   4.600
24067W        W95596  38.781  11.654   4.293
24068W        W95597  44.782  42.842  12.074
24069W        W95598  44.345  12.057   4.106
24070W        W95599  40.079  13.741  12.228
24071W        W95600  15.328  21.988  12.910
24072W        W95601  15.264   0.390  13.006
24073W        W95602  31.435  22.479  13.456
24074W        W95603  26.781  38.244  14.825
24075W        W95604  37.888   9.935   9.894
24076W        W95605  26.402   3.864  13.901
24077W        W95606   3.286  17.882   0.019
24078W        W95607  28.970  14.263  13.768
24079W        W95608  23.571   8.651   3.632
24080W        W95609   8.867   5.887  13.556
24081W        W95610  23.506  44.315   1.779
24082W        W95611  13.608  44.669   3.531
24083W        W95612  42.415  11.231   2.747
24084W        W95613  20.013  26.027   0.945
24085W        W95614  23.305  25.185  13.564
24086W        W95615  12.321  30.324  14.300
24087W        W95616  12.868  36.917  11.032
24088W        W95617  33.052   0.924   3.812
24089W        W95618  18.762   8.699   0.778
24090W        W95619  34.346  24.153   2.748
24091W        W95620  32.438  34.083   4.291
24092W        W95621  34.060  30.100   4.614
24093W        W95622   1.345  29.138  12.092
24094W        W95623  27.696  22.018  12.997
24095W        W95624   5.282  37.458  11.918
24096W        W95625  36.921  38.343   4.033
24097W        W95626  26.058   5.488  13.321
24098W        W95627   5.323  24.252   4.677
24099W        W95628  11.933  30.048  14.975
24100W        W95629  26.515  17.207   3.915
24101W        W95630   0.547  32.475   2.669
24102W        W95631  42.864  25.946   2.827
24103W        W95632  30.518  38.587  11.733
24104W        W95633  30.638  10.406   4.635
24105W        W95634  11.319   8.629  14.275
24106W        W95635  10.230  15.528  12.814
24107W        W95636  28.511   8.308  11.166
24108W        W95637  25.640  12.639  10.240
24109W        W95638   8.761  41.352  10.576
24110W        W95639   1.660  23.021   0.057
24111W        W95640  14.817  31.215   3.919
24112W        W95641   9.045  29.637  10.780
24113W        W95642  36.663  24.556  13.146
24114W        W95643  20.158  33.616  11.050
24115W        W95644  41.231  32.355  12.054
24116W        W95645  41.268  32.503   0.824
24117W        W95646  23.821  17.304  14.488
24118W        W95647  33.625  29.758  14.017
24119W        W95648  41.411  20.769  13.006
24120W        W95649  13.036  12.331   0.874
24121W        W95650  25.634  24.518  13.163
24122W        W95651  22.555  15.679  12.118
24123W        W95652  15.711  24.124   4.175
24124W        W95653  17.829  16.674  12.642
24125W        W95654  19.062  38.356   1.273
24126W        W95655  15.788  31.131  11.921
24127W        W95656  36.654  26.926   1.848
24128W        W95657  44.208  10.792  10.237
24129W        W95658   1.902  23.466  14.957
24130W        W95659  24.455  13.836   1.795
24131W        W95660   9.824  36.627  10.711
24132W        W95661  15.265  27.954  12.362
24133W        W95662  17.095  15.238   0.472
24134W        W95663  38.845  33.985  10.267
24135W        W95664  15.177  36.813   2.804
24136W        W95665   1.259  37.775   0.892
24137W        W95666  24.553  33.033   3.793
24138W        W95667   4.649  26.706   0.793
24139W        W95668  24.106  12.817  12.210
24140W        W95669  18.558  12.778   2.342
24141W        W95670   4.172  14.698   1.266
24142W        W95671  21.753  44.307  14.414
24143W        W95672  43.389  18.244   1.717
24144W        W95673  21.683  21.275  10.527
24145W        W95674  13.498  21.713   4.124
24146W        W95675  20.039  13.761   3.792
24147W        W95676   5.234   6.924  13.163
24148W        W95677   0.872   4.636   3.676
24149W        W95678  21.261  42.773  10.580
24150W        W95679  37.657  30.891   0.335
24151W        W95680  11.682  25.907  11.390
24152W        W95681  33.022  34.358   1.592
24153W        W95682   8.721  33.144   3.289
24154W        W95683  36.441  36.398   2.361
24155W        W95684  25.761   6.703   1.771
24156W        W95685  13.656  17.657   0.930
24157W        W95686  16.277  25.902  12.044
24158W        W95687  34.718  42.237   0.081
24159W        W95688  18.238  43.409  13.006
24160W        W95689  29.110  23.906   1.733
24161W        W95690   2.118   6.112   1.748
24162W        W95691  14.791  35.549   2.366
24163W        W95692  39.060  27.216  10.712
24164W        W95693   4.771  36.285  14.967
24165W        W95694   8.560  17.033   2.073
24166W        W95695  14.264  25.020  11.848
24167W        W95696  12.190   5.206   1.401
24168W        W95697  11.581  33.617  14.877
24169W        W95698  28.210  17.250  14.506
24170W        W95699   6.049  27.859   2.812
24171W        W95700  14.020   6.791  12.319
24172W        W95701   7.156  23.488   0.825
24173W        W95702  30.682  13.805   1.199
24174W        W95703  26.510  34.396   1.271
24175W        W95704  10.668   6.397  11.949
24176W        W95705  11.342  21.923  11.634
24177W        W95706  35.027   5.434  14.325
24178W        W95707  24.271  32.295  12.125
24179W        W95708   5.712  38.464   2.324
24180W        W95709   7.724  20.209  11.088
24181W        W95710  42.794  21.552  10.636
24182W        W95711  35.066  42.300   1.903
24183W        W95712   9.275  11.879  11.731
24184W        W95713  42.598   8.619  14.479
24185W        W95714  37.927  24.409  13.306
24186W        W95715   7.186  24.605  14.260
24187W        W95716  11.298  26.428  13.861
24188W        W95717  23.808   3.511   3.146
24189W        W95718  17.811  44.117   2.293
24190W        W95719   1.515  11.915   1.920
24191W        W95720  31.353  35.384   3.238
24192W        W95721  43.064  18.473  11.176
24193W        W95722  15.873  22.078  13.558
24194W        W95723   3.933  40.505  10.231
24195W        W95724  35.851  12.108   1.192
24196W        W95725   5.045  26.701  11.609
24197W        W95726  34.553  12.424  12.531
24198W        W95727  11.653  19.605  10.735
24199W        W95728  29.749   5.946  14.445
24200W        W95729  21.241  29.698  13.378
24201W        W95730   3.011  39.448   0.404
24202W        W95731  36.859  13.074  14.293
24203W        W95732  29.592  40.643   1.770
24204W        W95733  14.753   8.319  14.388
24205W        W95734   6.161  19.494  13.531
24206W        W95735  22.706  35.255   2.689
24207W        W95736  40.940   4.323   0.854
24208W        W95737   4.401  16.525   3.786
24209W        W95738  44.705  37.380  13.569
24210W        W95739  38.463  12.220   4.609
24211W        W95740  39.304  40.751   0.313
24212W        W95741   9.189  19.073  10.683
24213W        W95742  24.449   2.377   4.338
24214W        W95743  34.335  11.400  10.695
24215W        W95744  26.205  28.225   2.601
24216W        W95745   5.326  34.445  10.545
24217W        W95746   2.006  27.024  13.758
24218W        W95747  28.956  36.386  11.735
24219W        W95748  23.235  23.526  11.205
24220W        W95749  29.981  26.207   1.702
24221W        W95750  14.460   9.625  12.022
24222W        W95751  40.709  36.352  12.883
24223W        W95752  11.530  15.977   5.206
24224W        W95753  42.072  38.562  14.706
24225W        W95754  44.768  26.685   4.174
24226W        W95755  39.853  15.019   2.619
24227W        W95756  43.859  19.965  14.820
24228W        W95757   9.397  20.341   0.039
24229W        W95758  30.932  32.009   3.709
24230W        W95759  16.018   1.361   4.057
24231W        W95760   6.648  30.563   3.671
24232W        W95761  25.483  35.509  11.269
24233W        W95762  31.589  33.012   3.675
24234W        W95763  13.590  44.862   1.571
24235W        W95764  41.066  17.394   1.168
24236W        W95765  10.822  42.605   0.883
24237W        W95766  30.947   2.140   2.624
24238W        W95767  29.149  21.520   4.291
24239W        W95768  25.542  21.807  11.118
24240W        W95769  41.039  20.390  11.049
24241W        W95770  21.330  16.620   0.955
24242W        W95771   4.887  31.356  10.307
24243W        W95772  16.624  26.070   1.111
24244W        W95773  41.821   3.552   2.701
24245W        W95774  38.786  16.322   2.324
24246W        W95775  23.991  30.605   1.329
24247W        W95776  15.097   6.419   3.916
24248W        W95777  39.311  13.550   3.331
24249W        W95778  35.120  42.448   2.778
24250W        W95779  44.884  23.799   1.867
24251W        W95780   5.552  36.302   2.327
24252W        W95781  43.905  27.935  11.578
24253W        W95782  22.058  35.206   4.659
24254W        W95783  18.975  26.792  14.904
24255W        W95784  10.202  31.821   0.027
24256W        W95785  26.058  40.454   4.207
24257W        W95786  36.024  37.488  12.282
24258W        W95787  44.225  44.309   0.297
24259W        W95788  14.276  42.439   3.342
24260W        W95789  14.532  40.329   2.147
24261W        W95790   2.650  22.668  10.736
24262W        W95791  21.264  11.785  12.527
24263W        W95792  14.241  26.388  12.600
24264W        W95793  41.590  18.638  14.076
24265W        W95794   9.556  11.713   3.108
24266W        W95795  27.880   6.909   3.156
24267W        W95796  41.827  32.180   0.709
24268W        W95797  32.485  27.174   0.516
24269W        W95798  22.030   7.479  11.486
24270W        W95799  40.084   0.356   3.131
24271W        W95800  12.721  14.311  12.665
24272W        W95801  19.030   8.424  12.422
24273W        W95802  22.062  36.292  12.005
24274W        W95803  31.192   8.450   4.749
24275W        W95804  24.967  40.441  13.885
24276W        W95805  22.072   7.374   0.813
24277W        W95806  12.361  19.503  13.560
24278W        W95807  31.021  13.684  14.277
24279W        W95808  15.595   6.699   3.285
24280W        W95809  28.277  37.277  12.700
24281W        W95810  31.282  41.099   3.740
24282W        W95811  22.528  27.716  12.888
24283W        W95812  13.270  44.241  10.942
24284W        W95813  40.859  24.443   2.715
24285W        W95814  31.157  27.683   3.693
24286W        W95815  17.778  31.933  11.615
24287W        W95816  40.267   7.831  12.038
24288W        W95817  40.826  15.504   1.917
24289W        W95818  28.823  41.954  10.629
24290W        W95819   4.380  14.201   5.124
24291W        W95820  40.770   1.504  13.387
24292W        W95821   7.641  25.620  10.569
24293W        W95822  37.825  15.944  13.986
24294W        W95823  38.316  16.543  11.075
24295W        W95824  13.210  34.323   2.494
24296W        W95825  40.122  23.938   0.914
24297W        W95826  20.077  31.856   9.769
24298W        W95827  21.432   3.231   4.560
24299W        W95828   2.265  35.709   4.139
24300W        W95829   7.691  30.715   2.895
24301W        W95830  37.884  10.649   4.306
24302W        W95831  37.630  35.962   1.343
24303W        W95832  13.555  37.385  10.767
24304W        W95833  11.211  22.046   4.735
24305W        W95834   2.718  29.715   4.775
24306W        W95835  17.374  34.577   2.584
24307W        W95836  41.249   1.712  13.384
24308W        W95837   0.921  29.893   0.147
24309W        W95838  19.271  16.289   0.386
24310W        W95839  15.478   6.750   4.089
24311W        W95840  32.399  26.351  11.557
24312W        W95841  37.997  26.473   1.677
24313W        W95842  42.922  23.962   1.633
24314W        W95843  30.656  33.995  12.062
24315W        W95844  22.179  28.188  13.489
24316W        W95845  16.248  17.140  13.596
24317W        W95846  34.557  36.633  11.612
24318W        W95847  26.958  13.453   3.330
24319W        W95848  33.044  12.125  14.797
24320W        W95849   4.050  25.169  11.884
24321W        W95850   0.889   9.566   1.728
24322W        W95851   6.733   0.782   4.336
24323W        W95852  20.560  36.031  13.690
24324W        W95853  19.059  36.487  14.541
24325W        W95854   8.853  21.254   2.255
24326W        W95855  21.614  38.001   3.640
24327W        W95856   6.860  40.367   0.277
24328W        W95857   1.456  35.019   1.872
24329W        W95858  40.387  36.518   0.955
24330W        W95859  27.647  31.910   0.879
24331W        W95860  33.630   9.886  10.706
24332W        W95861  18.381  19.499   4.854
24333W        W95862   7.732  22.927   1.271
24334W        W95863  15.748  22.237  10.550
24335W        W95864  16.862  10.692   4.757
24336W        W95865  31.374   8.704  10.604
24337W        W95866  29.798  33.220  13.191
24338W        W95867  28.796  43.996   1.927
24339W        W95868  40.714  16.986   0.345
24340W        W95869  23.041  28.271   0.123
24341W        W95870  40.799  23.173   4.555
24342W        W95871  19.211  24.038   3.167
24343W        W95872  25.623  33.631  12.165
24344W        W95873   1.419   3.726  11.849
24345W        W95874  31.155  31.612  11.946
24346W        W95875  36.000  16.928   5.092
24347W        W95876   7.608  20.421   4.197
24348W        W95877  42.842   9.049   1.357
24349W        W95878  36.132  23.799   4.069
24350W        W95879   4.953  35.955  12.064
24351W        W95880  11.229  14.849  10.688
24352W        W95881  17.127   0.437  12.602
24353W        W95882  15.350  18.161  14.401
24354W        W95883  17.241  23.297   0.908
24355W        W95884  15.982  18.549  13.428
24356W        W95885   1.505  24.241   4.173
24357W        W95886   3.531  42.406   1.161
24358W        W95887  27.029  39.682  11.086
24359W        W95888  23.683  44.536   0.958
24360W        W95889  38.391  31.554   4.033
24361W        W95890   9.128   9.608   1.188
24362W        W95891  15.921  24.532   4.949
24363W        W95892  43.205  37.409   0.317
24364W        W95893  37.343  28.865   0.752
24365W        W95894   1.979  34.758   1.253
24366W        W95895  24.727   1.860  10.499
24367W        W95896  41.880  37.498   2.475
24368W        W95897   6.222  36.211  13.463
24369W        W95898   5.878  18.355   2.837
24370W        W95899   4.190   8.986   3.270
24371W        W95900  14.929  41.248   3.663
24372W        W95901  23.029   4.149   3.241
24373W        W95902  11.624  30.959   1.765
24374W        W95903  15.541  30.974   4.207
24375W        W95904   1.922  36.230   5.895
24376W        W95905   5.893   2.063  13.052
24377W        W95906   7.134  25.176  13.502
24378W        W95907  22.074  33.774  11.127
24379W        W95908  39.888  12.557  14.272
24380W        W95909  24.959  21.907   0.956
24381W        W95910  28.581  40.828   1.718
24382W        W95911  19.134   3.212  12.568
24383W        W95912  14.392  42.943  14.202
24384W        W95913   0.358  32.157   4.719
24385W        W95914  36.048  20.456   3.672
24386W        W95915  22.255  25.874   2.929
24387W        W95916  15.029   2.762   3.491
24388W        W95917  30.182  36.550   3.273
24389W        W95918  24.084  21.977   4.681
24390W        W95919  29.799  26.735   3.206
24391W        W95920  42.415  41.816   3.395
24392W        W95921  12.232  26.050  10.623
24393W        W95922   4.273  33.228  12.176
24394W        W95923  10.674   5.143  12.097
24395W        W95924  19.188  10.683  11.435
24396W        W95925  17.061  25.443  11.201
24397W        W95926  26.455  33.977   0.924
24398W        W95927  26.107   0.769   0.300
24399W        W95928  39.763  16.613   0.367
24400W        W95929  25.331  41.930  13.773
24401W        W95930  37.996   9.484   1.864
24402W        W95931   8.584  19.883  10.605
24403W        W95932  10.196   5.731  14.965
24404W        W95933   3.245   4.084  12.015
24405W        W95934  24.489  26.359  12.068
24406W        W95935  27.975  42.721  10.583
24407W        W95936  10.404  13.242   1.486
24408W        W95937  23.110  19.820  11.236
24409W        W95938  18.046   4.520  11.653
24410W        W95939  13.202  18.218  10.726
24411W        W95940  27.458  36.033  14.377
24412W        W95941  24.157   1.708  11.971
24413W        W95942   7.728  44.997  13.289
24414W        W95943  36.261  38.134  12.776
24415W        W95944   6.609  38.282  12.100
24416W        W95945  32.613   6.628   4.860
24417W        W95946  17.123  31.683  13.459
24418W        W95947   3.913  27.671  10.658
24419W        W95948  34.062  34.037  12.087
24420W        W95949   0.559  25.287  11.068
24421W        W95950   1.704   9.178   3.415
24422W        W95951  38.775  15.085  14.428
24423W        W95952  38.446  20.041  11.425
24424W        W95953  31.321  23.466  12.069
24425W        W95954  33.497   1.065   2.704
24426W        W95955  33.105  29.115   3.882
24427W        W95956  44.558  31.911  11.659
24428W        W95957  28.756  34.924  14.911
24429W        W95958  18.988  14.675  10.696
24430W        W95959  21.060   4.748   4.687
24431W        W95960  39.907   1.351   2.728
24432W        W95961  26.795  34.466  11.343
24433W        W95962   4.266  28.449  14.470
24434W        W95963   0.213  41.524   0.559
24435W        W95964  36.807  32.461   0.478
24436W        W95965  30.654  17.036  12.799
24437W        W95966  13.940  13.728  10.617
24438W        W95967   4.701  12.736  13.294
24439W        W95968   3.752  32.970  14.275
24440W        W95969   2.176  15.647   3.244
24441W        W95970  41.607   2.751  14.451
24442W        W95971  36.927  26.229   4.655
24443W        W95972  41.948  26.444   0.702
24444W        W95973   8.470  10.724   3.517
24445W        W95974  43.247  26.700   1.398
24446W        W95975  37.547  24.056   0.802
24447W        W95976  12.236  34.888   2.890
24448W        W95977  15.755  41.745   1.353
24449W        W95978  13.812  19.754  12.105
24450W        W95979  27.112  12.750  14.098
24451W        W95980  42.820  20.532  10.638
24452W        W95981  41.530  20.009  11.611
24453W        W95982  17.448  34.663   2.019
24454W        W95983   7.047  42.735   2.808
24455W        W95984  19.007  23.709  12.453
24456W        W95985  29.010  12.316   0.182
24457W        W95986  24.563  19.255  14.955
24458W        W95987  39.268  33.664   4.991
24459W        W95988  22.969  16.748   0.558
24460W        W95989   6.460  42.861   4.642
24461W        W95990   4.954   7.167   4.795
24462W        W95991  32.506   9.197   2.665
24463W        W95992  22.488  27.620  11.474
24464W        W95993   7.930  41.033   3.207
24465W        W95994  32.668  35.074  14.832
24466W        W95995  18.213  35.495   0.301
24467W        W95996  19.553  22.711   4.520
24468W        W95997  37.364  43.057   4.710
24469W        W95998  42.584  30.054  14.872
24470W        W95999  35.781  29.756  12.502
24471W        W96000  28.430  11.400   2.638
24472W        W96001  43.581  33.234   2.611
24473W        W96002  37.983  20.865  14.068
24474W        W96003  28.441  24.507  10.345
24475W        W96004   8.650  24.202   4.482
24476W        W96005  40.059  43.922  12.550
24477W        W96006   1.047  18.763  13.583
24478W        W96007   9.568  14.426   2.833
24479W        W96008  33.734  43.777  13.582
24480W        W96009  23.598  42.824  13.421
24481W        W96010   9.940  20.664  12.376
24482W        W96011   9.188  33.357  10.370
24483W        W96012  11.380  33.051   4.065
24484W        W96013   2.068  38.931  10.483
24485W        W96014  18.124   1.253  12.279
24486W        W96015  22.764  21.627  13.750
24487W        W96016   5.810   0.288  11.599
24488W        W96017   4.639  23.766   0.066
24489W        W96018  27.723   3.748   3.488
24490W        W96019  37.017   4.124   3.249
24491W        W96020  36.373  23.931   0.410
24492W        W96021  22.074  43.949  12.966
24493W        W96022   8.695   2.467  11.607
24494W        W96023  20.829  25.546  11.350
24495W        W96024  20.636   3.666  13.061
24496W        W96025  25.031  31.872  12.451
24497W        W96026   6.609  12.085   0.443
24498W        W96027  33.124  32.723   4.186
24499W        W96028  16.693  44.025  11.616
24500W        W96029  16.618  21.318  11.962
24501W        W96030  24.864  20.649   1.302
24502W        W96031  34.775  38.666  11.027
24503W        W96032  36.006  27.786   3.758
24504W        W96033  18.678  42.410   2.815
24505W        W96034  10.860  21.633   0.294
24506W        W96035  33.566  27.982   1.453
24507W        W96036   9.622  26.635  11.942
24508W        W96037   7.181  35.066  10.661
24509W        W96038   9.233  13.688   3.434
24510W        W96039  24.855  41.716   1.381
24511W        W96040  38.564  14.522   4.339
24512W        W96041   7.235   7.853  14.765
24513W        W96042  14.683  39.444   4.666
24514W        W96043  44.538  11.673   1.868
24515W        W96044  27.943  21.130  12.542
24516W        W96045  29.722   0.381  11.571
24517W        W96046  14.663   7.914  13.417
24518W        W96047  13.129  36.636   2.850
24519W        W96048  27.912  44.876   1.581
24520W        W96049  16.602   4.636   3.315
24521W        W96050  16.092   5.696   0.059
24522W        W96051   0.748   3.214   0.499
24523W        W96052   9.413  14.057  13.340
24524W        W96053  19.360  32.106   4.631
24525W        W96054  41.421  42.848  11.368
24526W        W96055   0.898  23.567   1.812
24527W        W96056  18.632  42.080  10.709
24528W        W96057  31.451  31.512   2.828
24529W        W96058  30.703  43.391   4.492
24530W        W96059   1.501  12.100  14.957
24531W        W96060   1.804  18.653   1.282
24532W        W96061  44.405  26.626  12.425
24533W        W96062  15.861  15.461  13.004
24534W        W96063  21.426  42.029  11.058
24535W        W96064  32.371  19.458  12.479
24536W        W96065  25.969  24.206  12.530
24537W        W96066   0.233  17.263   2.118
24538W        W96067   9.738  44.575  11.268
24539W        W96068  10.213   4.444  10.886
24540W        W96069  38.779  38.852   2.289
24541W        W96070  26.107  12.758  12.373
24542W        W96071  25.758   2.996  12.987
24543W        W96072   2.443   9.347  10.542
24544W        W96073   6.729  20.444  13.921
24545W        W96074  28.769  37.133  12.583
24546W        W96075  41.812  39.414   1.185
24547W        W96076  20.092  34.343   3.712
24548W        W96077   5.509  27.903   1.448
24549W        W96078  16.026   2.741  11.974
24550W        W96079   7.141  42.411  12.367
24551W        W96080  38.921  40.623  13.970
24552W        W96081  38.341  33.038  10.751
24553W        W96082  31.889   6.105   4.388
24554W        W96083  24.510  11.396   1.256
24555W        W96084  29.967  17.621  13.095
24556W        W96085  19.058  17.097   2.418
24557W        W96086   6.953  37.549  11.178
24558W        W96087  30.074   5.014   4.908
24559W        W96088  20.024  33.442   5.008
24560W        W96089  43.739  25.650  13.434
24561W        W96090  42.987  37.651  10.607
24562W        W96091  42.598  13.234  13.452
24563W        W96092  34.542   2.795  14.458
24564W        W96093  19.593  40.498   3.150
24565W        W96094  28.214  19.241   3.802
24566W        W96095  12.824  28.899   4.373
24567W        W96096   9.314  17.561   2.440
24568W        W96097  33.399  42.676   1.973
24569W        W96098  29.339  36.669  13.935
24570W        W96099  38.876   1.210  14.316
24571W        W96100  29.058  27.706   0.960
24572W        W96101  23.578  16.700   4.177
24573W        W96102   9.305  37.862   4.789
24574W        W96103  22.737  16.695  14.601
24575W        W96104  38.335  38.499   1.638
24576W        W96105  24.066  26.786  11.203
24577W        W96106  31.359  44.200   5.003
24578W        W96107   2.496  10.396  12.860
24579W        W96108   8.162   1.904   2.716
24580W        W96109  33.578  23.349  13.448
24581W        W96110   5.011  33.931  13.829
24582W        W96111  42.734  17.452   0.223
24583W        W96112  10.285  29.284  10.329
24584W        W96113  24.174  29.746  11.494
24585W        W96114  25.749   0.308   1.330
24586W        W96115   3.819  18.056   1.696
24587W        W96116  40.842  15.336  14.603
24588W        W96117  37.950   0.254  13.536
24589W        W96118  43.307  37.480  12.398
24590W        W96119  35.320  17.615   0.749
24591W        W96120  21.722   4.169  12.164
24592W        W96121  32.260  20.113  12.109
24593W        W96122  36.474  40.918   0.911
24594W        W96123  18.501  40.317   5.074
24595W        W96124   6.683  11.846   4.475
24596W        W96125   8.473  29.034   0.286
24597W        W96126  41.918  10.694   2.601
24598W        W96127  31.050  43.875   3.847
24599W        W96128   4.349  14.420   2.216
24600W        W96129   5.711   0.302  14.167
24601W        W96130  15.860  37.475   1.232
24602W        W96131   3.021  18.168  10.578
24603W        W96132  41.052  28.462   3.264
24604W        W96133  40.408  21.507  14.820
24605W        W96134  32.127  26.234   3.210
24606W        W96135  25.898  29.014   1.645
24607W        W96136  26.638  19.758   0.468
24608W        W96137  33.127  26.968   1.124
24609W        W96138  19.767   0.704  10.327
24610W        W96139   6.320   2.422   4.752
24611W        W96140  11.275   7.447   4.511
24612W        W96141  24.114  40.467   4.115
24613W        W96142  26.368  10.289   3.348
24614W        W96143  15.696  44.011  10.332
24615W        W96144   6.123  44.266   1.827
24616W        W96145  38.038   7.687  11.573
24617W        W96146  20.512  40.396  12.339
24618W        W96147  19.635  42.297  14.309
24619W        W96148  25.544  22.309   0.334
24620W        W96149  32.467  33.180   3.719
24621W        W96150  32.013  37.441   0.071
24622W        W96151  26.528  35.357  13.885
24623W        W96152   4.566  31.490  12.164
24624W        W96153  11.143  41.772  12.454
24625W        W96154  21.258  11.394  10.268
24626W        W96155   8.708  39.452   5.048
24627W        W96156  38.499  35.482  11.434
24628W        W96157  26.107  19.329  11.104
24629W        W96158  36.898  21.063  11.606
24630W        W96159  23.296   0.903   1.583
24631W        W96160  35.077  39.744  13.488
24632W        W96161   8.478  34.341  12.331
24633W        W96162  29.545  24.367   4.222
24634W        W96163  20.663  24.145   3.303
24635W        W96164  25.794   3.525  12.937
24636W        W96165  39.900  26.681  10.610
24637W        W96166  37.992   1.260  14.482
24638W        W96167   5.246  33.111   0.388
24639W        W96168  28.067  38.969  13.416
24640W        W96169  35.484  13.744  13.999
24641W        W96170   2.631  12.080  12.520
24642W        W96171  18.674  12.210  12.410
24643W        W96172  19.285  23.168  13.373
24644W        W96173  35.848  32.109  12.365
24645W        W96174   9.589  41.826   3.142
24646W        W96175  25.988  23.613   0.415
24647W        W96176  22.034  11.746   3.147
24648W        W96177  28.681  19.484   4.103
24649W        W96178   8.128  28.060  10.688
24650W        W96179  13.702  18.462  12.571
24651W        W96180  28.075  37.979  13.302
24652W        W96181  12.331  35.901  12.006
24653W        W96182  15.228  12.921   0.356
24654W        W96183  21.134  13.687   4.468
24655W        W96184  36.858  43.840   1.259
24656W        W96185  35.458  27.633   1.481
24657W        W96186  26.602   5.200  13.432
24658W        W96187  15.387  17.665   1.645
24659W        W96188   8.147  36.289   4.160
24660W        W96189  28.692  36.413   3.311
24661W        W96190   5.233  41.007   0.514
24662W        W96191  43.369  23.112  14.496
24663W        W96192  28.374  17.577  14.151
24664W        W96193   8.616  34.466  13.360
24665W        W96194  29.219  13.185   2.012
24666W        W96195  25.671   5.371   4.890
24667W        W96196   1.156  14.645  14.231
24668W        W96197  24.285  37.720  13.876
24669W        W96198   1.730  22.026  10.661
24670W        W96199   0.928  17.330  14.539
24671W        W96200  17.182  28.528   4.052
24672W        W96201  37.059  29.866   3.657
24673W        W96202  26.007  21.731   3.832
24674W        W96203  25.823  20.361  11.132
24675W        W96204  28.711  30.384   4.701
24676W        W96205  35.327  14.966   4.099
24677W        W96206  41.826  43.945   5.036
24678W        W96207  44.119  13.044   4.001
24679W        W96208  27.133   9.633  14.931
24680W        W96209  36.095  17.648   1.398
24681W        W96210  28.093   7.283   4.811
24682W        W96211  37.591  43.812   4.184
24683W        W96212  43.308   3.735  12.839
24684W        W96213  28.626  36.433   0.218
24685W        W96214   1.159  14.730   2.556
24686W        W96215  28.565  34.115   2.693
24687W        W96216   4.973  37.410   0.976
24688W        W96217   5.750  33.057  12.588
24689W        W96218  36.344  32.521  13.134
24690W        W96219  21.549  33.225   4.216
24691W        W96220  17.440   1.728  10.900
24692W        W96221  19.020  32.461  13.519
24693W        W96222  36.443  18.291   1.325
24694W        W96223  41.833  40.387   2.719
24695W        W96224  28.412  13.869   2.693
24696W        W96225  27.642  24.581   3.872
24697W        W96226   1.500  29.939   2.808
24698W        W96227  11.783  12.217   3.367
24699W        W96228  35.970  39.888   2.779
24700W        W96229  35.551  29.723   2.516
24701W        W96230  14.777  39.038  11.653
24702W        W96231   3.751  27.740  11.147
24703W        W96232  39.323  31.857   3.143
24704W        W96233  44.834   8.881   4.624
24705W        W96234  44.756  35.755  12.918
24706W        W96235  24.651  17.203  13.324
24707W        W96236  43.343   7.677  13.788
24708W        W96237  15.317   9.699   3.321
24709W        W96238  23.518   4.929   2.328
24710W        W96239  13.794  39.912   3.224
24711W        W96240  42.450   5.887   2.860
24712W        W96241  43.491  35.087  12.346
24713W        W96242  26.581  36.413   0.261
24714W        W96243  28.554  16.184  13.166
24715W        W96244  18.370  37.353  11.521
24716W        W96245   4.441  15.660   4.109
24717W        W96246  40.213  31.149  10.702
24718W        W96247   4.241  35.370   3.333
24719W        W96248  34.499  22.711  12.869
24720W        W96249  36.064  35.577  13.988
24721W        W96250  30.064  43.403  13.698
24722W        W96251  25.442  22.549  14.858
24723W        W96252  28.602  22.850   4.523
24724W        W96253  12.785   3.961   4.114
24725W        W96254  36.859  40.571  14.826
24726W        W96255   4.815  40.444  11.225
24727W        W96256  30.608  40.017   2.963
24728W        W96257  34.821  37.593   3.410
24729W        W96258  30.961  19.284   0.051
24730W        W96259  28.587  30.526  12.637
24731W        W96260  39.988  24.049   3.811
24732W        W96261  42.909   3.335   3.216
24733W        W96262  17.129  24.749   0.735
24734W        W96263  12.758  17.055  11.172
24735W        W96264   4.949  25.444   1.634
24736W        W96265  32.774  29.464  12.402
24737W        W96266  15.560  37.623   0.822
24738W        W96267  29.134  36.363  13.537
24739W        W96268  27.696  10.122  14.472
24740W        W96269  20.525  24.463  12.827
24741W        W96270  40.356   2.207  11.225
24742W        W96271  11.791   4.319   2.403
24743W        W96272  14.162  27.507  13.695
24744W        W96273  14.628   1.004  13.716
24745W        W96274  25.873  14.208   1.856
24746W        W96275  19.790  42.612  13.006
24747W        W96276  44.122  34.385   5.058
24748W        W96277   3.883   5.733   3.562
24749W        W96278  15.790   9.310  10.333
24750W        W96279   1.176  11.291  11.739
24751W        W96280  38.563   1.861  10.534
24752W        W96281  14.265  33.099   4.643
24753W        W96282  36.637  25.433  13.671
24754W        W96283   5.913  35.092  10.643
24755W        W96284  10.147  19.253  12.463
24756W        W96285  42.576  19.729  11.466
24757W        W96286  43.776  25.697  14.403
24758W        W96287  35.071  28.974   1.510
24759W        W96288  30.381   1.390   4.838
24760W        W96289  41.489  25.239  13.529
24761W        W96290  32.025  21.826  12.411
24762W        W96291   1.506  41.524   1.853
24763W        W96292  15.634  44.491  12.512
24764W        W96293  27.030  39.843  11.592
24765W        W96294  40.433  41.747   2.820
24766W        W96295  14.139  21.635  13.450
24767W        W96296  43.515  25.005  10.801
24768W        W96297  39.194  19.867  12.409
24769W        W96298  28.257   9.691   2.756
24770W        W96299  44.485  20.516   4.464
24771W        W96300  32.914  29.588   2.649
24772W        W96301  40.583  27.091   2.313
24773W        W96302  41.494  35.373   4.874
24774W        W96303  35.079  29.543   0.382
24775W        W96304  31.579  28.436   4.164
24776W        W96305  14.122  20.068  10.637
24777W        W96306  43.293  12.271   3.799
24778W        W96307  38.473  12.120  14.144
24779W        W96308  41.314  29.550   2.764
24780W        W96309   2.221   3.970  13.046
24781W        W96310  21.925  22.046   1.853
24782W        W96311  30.293  43.368  11.291
24783W        W96312  25.895  30.489  10.206
24784W        W96313  32.203  31.466  10.374
24785W        W96314  39.820  43.473   4.306
24786W        W96315  44.494  32.310   4.020
24787W        W96316  11.393  12.219  12.397
24788W        W96317  26.369   1.733  13.867
24789W        W96318  32.449  21.497   4.808
24790W        W96319   3.920   6.900  14.450
24791W        W96320  22.044  29.427  14.294
24792W        W96321  40.405  31.943  11.106
24793W        W96322  30.092  11.556   4.068
24794W        W96323  14.558   5.258   1.782
24795W        W96324  31.944   4.330   2.184
24796W        W96325  40.273   0.956   1.931
24797W        W96326   2.620  40.819  13.383
24798W        W96327   1.531  37.529  11.226
24799W        W96328  19.606  10.673  12.536
24800W        W96329   5.439  21.018  13.395
24801W        W96330  10.155  31.716  14.510
24802W        W96331   8.442  18.778  12.677
24803W        W96332  25.820  10.361   3.471
24804W        W96333  18.602  38.920  12.191
24805W        W96334   8.370   4.893  13.000
24806W        W96335   1.818  38.062  10.967
24807W        W96336  24.941   5.409  10.541
24808W        W96337  30.493  32.669   1.780
24809W        W96338   4.886  37.503   2.346
24810W        W96339  39.616   0.559  13.892
24811W        W96340  21.475  12.112  13.670
24812W        W96341   6.977  20.790  11.110
24813W        W96342  22.796  27.191  11.435
24814W        W96343  21.249  37.906  11.146
24815W        W96344  38.852  22.038  13.031
24816W        W96345  42.919   5.885   1.112
24817W        W96346   8.730  26.204   4.170
24818W        W96347  33.100  41.972   1.197
24819W        W96348   8.225  41.299   2.213
24820W        W96349  34.886  10.925   3.288
24821W        W96350  23.227  23.422  10.706
24822W        W96351  26.896   9.229  13.041
24823W        W96352  16.870  23.981   2.337
24824W        W96353   0.929  25.072   1.667
24825W        W96354  21.302   3.841  14.146
24826W        W96355  33.196  35.929   4.154
24827W        W96356  28.670  28.817  13.362
24828W        W96357   8.641   6.258   0.044
24829W        W96358  23.625  34.657   1.876
24830W        W96359  44.761  12.153   1.897
24831W        W96360  41.477  41.253  12.816
24832W        W96361  10.559  24.423   0.514
24833W        W96362  22.693   1.761  14.747
24834W        W96363  25.198  43.835   2.179
24835W        W96364  44.862  44.478  14.190
24836W        W96365  33.944  12.676  12.624
24837W        W96366  12.127   7.946  11.900
24838W        W96367  32.303   7.096  13.865
24839W        W96368  13.776   6.868   0.450
24840W        W96369  18.140  42.281   3.635
24841W        W96370  18.344  28.630  11.022
24842W        W96371  37.835  21.757   2.397
24843W        W96372  17.436  20.312  14.453
24844W        W96373   8.282   5.064   3.831
24845W        W96374  32.142  27.351   3.662
24846W        W96375  39.413  18.483  11.640
24847W        W96376  28.230  37.464   4.899
24848W        W96377  19.132   9.852   3.160
24849W        W96378  26.125  29.627  11.930
24850W        W96379  33.447  17.881   1.456
24851W        W96380  29.811   3.171   1.225
24852W        W96381  37.999  35.929   2.620
24853W        W96382   7.864  12.660   4.585
24854W        W96383  26.683   5.319  10.048
24855W        W96384  13.856  44.075   4.111
24856W        W96385  10.856   4.684  13.479
24857W        W96386  42.053   4.923  10.346
24858W        W96387   6.763  20.685  13.385
24859W        W96388  24.970  11.754  13.460
24860W        W96389  11.631  43.852  11.242
24861W        W96390  40.545  16.791  14.059
24862W        W96391   4.758  22.967   4.473
24863W        W96392   9.339  22.218  12.480
24864W        W96393  18.628  34.889  12.854
24865W        W96394   7.665  39.271  12.939
24866W        W96395  26.041  14.284   0.805
24867W        W96396  26.236  16.913   1.689
24868W        W96397  15.297  12.410   0.327
24869W        W96398  17.656  41.353   2.730
24870W        W96399  32.006  33.971   3.978
24871W        W96400  13.653  37.331   3.510
24872W        W96401  36.014   6.872  11.991
24873W        W96402  29.263  35.023  14.992
24874W        W96403  35.965  38.758  11.068
24875W        W96404  11.455  18.555  10.557
24876W        W96405  41.930  43.701   3.854
24877W        W96406  14.893  29.706   0.725
24878W        W96407  37.508   5.312  10.578
24879W        W96408  42.305  20.103  11.187
24880W        W96409   9.129   6.473   1.752
24881W        W96410  25.740  44.458   0.606
24882W        W96411   4.345  16.796   1.398
24883W        W96412   2.207   2.799  11.830
24884W        W96413  41.435  43.929  13.330
24885W        W96414  27.256  18.967   2.893
24886W        W96415  36.776  38.135  12.788
24887W        W96416  25.289  26.652  14.827
24888W        W96417  16.668  30.199   1.158
24889W        W96418   9.230  26.338  13.524
24890W        W96419  26.711   1.865   3.634
24891W        W96420  43.449  44.965   4.126
24892W        W96421  27.077  26.029   3.676
24893W        W96422  19.200  28.679  13.373
24894W        W96423  14.818  18.709   3.901
24895W        W96424  12.816  38.086  12.664
24896W        W96425   3.878  29.488   4.755
24897W        W96426   9.683  30.011   2.402
24898W        W96427  42.985  17.112   3.208
24899W        W96428  18.970  43.999   4.579
24900W        W96429   7.062  36.862  11.644
24901W        W96430  11.989   0.315  14.037
24902W        W96431  10.743  10.147   1.441
24903W        W96432  14.979  27.906  10.834
24904W        W96433  40.929  33.946  12.613
24905W        W96434  28.307  43.589   1.269
24906W        W96435  32.627  21.941   1.358
24907W        W96436  39.437  27.384   0.323
24908W        W96437  35.994   6.367  10.642
24909W        W96438  28.893  21.681   3.852
24910W        W96439  10.280   3.094  10.097
24911W        W96440  42.732  39.511   4.636
24912W        W96441  32.434   2.857  11.373
24913W        W96442  11.334   9.266  11.620
24914W        W96443  40.024   6.621   2.726
24915W        W96444  24.188  27.567   3.757
24916W        W96445  27.010   5.179   2.592
24917W        W96446  34.646  23.436   3.451
24918W        W96447  32.989  34.282  13.967
24919W        W96448  36.608   2.483   1.491
24920W        W96449  11.569  17.670   4.542
24921W        W96450  20.349  25.998  13.377
24922W        W96451  18.661  18.685  14.007
24923W        W96452  27.457  11.096  10.729
24924W        W96453   5.992  29.924  11.535
24925W        W96454  14.548   5.390   3.630
24926W        W96455  35.167  18.479   5.063
24927W        W96456  31.915  41.797  14.286
24928W        W96457  23.032  10.849  11.246
24929W        W96458   4.125  11.706  10.776
24930W        W96459   8.530  44.076   2.908
24931W        W96460  43.897  14.293   4.130
24932W        W96461  41.842  36.394   1.267
24933W        W96462   7.275   4.015   0.400
24934W        W96463  41.976  33.043  14.938
24935W        W96464   1.750  29.433  13.201
24936W        W96465   4.795   5.946   2.151
24937W        W96466   3.598  20.553  11.077
24938W        W96467  11.488  36.852  11.207
24939W        W96468  14.217   0.786  13.931
24940W        W96469  15.864  43.012   1.860
24941W        W96470  17.114  44.883   3.192
24942W        W96471   3.504   5.963  14.968
24943W        W96472   1.784  26.970   3.640
24944W        W96473  12.128  42.895  13.714
24945W        W96474  33.787  23.105   3.208
24946W        W96475  18.796  36.146   3.291
24947W        W96476  30.677  42.256  10.596
24948W        W96477  11.124  16.234  10.651
24949W        W96478  10.121  32.145  10.118
24950W        W96479  35.594   6.598  12.014
24951W        W96480  41.861  11.924  11.747
24952W        W96481  24.061  23.625  12.249
24953W        W96482  14.119  38.112  12.094
24954W        W96483  28.072  34.160   3.153
24955W        W96484  42.067  25.173   4.172
24956W        W96485   9.918   3.846  13.081
24957W        W96486  36.950  43.721  10.619
24958W        W96487  27.420  14.292  14.902
24959W        W96488  20.504  43.070  10.646
24960W        W96489  16.396  43.390   2.828
24961W        W96490  38.443   7.420  10.594
24962W        W96491   6.512  20.832   0.258
24963W        W96492  19.302   0.463   2.625
24964W        W96493  42.969  28.190  14.812
24965W        W96494  26.475  40.858   1.591
24966W        W96495   4.751  41.530   2.323
24967W        W96496  10.349  36.726   0.709
24968W        W96497   0.154   5.104  13.900
24969W        W96498   4.899  20.649   0.912
24970W        W96499  28.727  36.357  11.264
24971W        W96500  41.845  43.268   3.578
24972W        W96501  38.531  44.345   1.954
24973W        W96502  41.532  25.093  11.998
24974W        W96503  37.427  30.556   4.128
24975W        W96504   5.373   0.658  11.577
24976W        W96505  22.482  35.409   1.314
24977W        W96506  21.676  39.629  11.949
24978W        W96507  33.865  23.580   3.932
24979W        W96508  19.059  21.939  13.033
24980W        W96509   7.853   8.870  10.332
24981W        W96510  26.735  12.169  13.525
24982W        W96511  30.531  40.368  13.947
24983W        W96512   4.102  17.034   0.967
24984W        W96513  26.086  44.799   4.277
24985W        W96514  12.859  18.176  14.583
24986W        W96515  26.275  38.532   1.451
24987W        W96516   6.175  20.731  14.780
24988W        W96517  13.731  44.759   4.902
24989W        W96518  37.336  15.571   2.346
24990W        W96519  21.088  30.497  14.788
24991W        W96520  37.489  37.253   2.530
24992W        W96521  24.852  41.557  14.031
24993W        W96522  38.551  13.460  13.861
24994W        W96523   5.015  12.528   3.683
24995W        W96524  43.726  21.610   2.436
24996W        W96525  29.611  35.326   5.722
24997W        W96526  13.290  40.234   3.823
24998W        W96527  21.049   2.361   2.858
24999W        W96528  35.087  25.143  10.144
25000W        W96529  30.932   5.639   3.602
25001W        W96530   0.179   3.216  14.849
25002W        W96531  33.716  33.454  14.507
25003W        W96532  20.126  25.540  13.358
25004W        W96533  40.668  11.142  10.774
25005W        W96534  14.634  39.822  13.343
25006W        W96535  38.060  36.672   3.753
25007W        W96536  42.578  25.313   1.738
25008W        W96537  14.686   5.411   4.496
25009W        W96538  40.874  23.303  14.460
25010W        W96539  24.314   1.275   3.703
25011W        W96540  44.811  36.652  10.140
25012W        W96541  42.485   7.544   0.336
25013W        W96542  12.827  32.538   0.945
25014W        W96543  25.440  43.010   5.072
25015W        W96544  43.166  14.507  11.171
25016W        W96545  39.423  25.599  13.520
25017W        W96546   8.008  35.046  13.524
25018W        W96547   6.262  30.386  11.124
25019W        W96548  43.669  35.857  14.972
25020W        W96549  19.087  27.999  12.865
25021W        W96550  25.256  29.506   0.487
25022W        W96551   6.788  33.119   4.733
25023W        W96552   2.522  42.262  11.629
25024W        W96553  38.567  31.313   3.154
25025W        W96554   7.594  12.698   3.602
25026W        W96555  42.324  26.900  14.528
25027W        W96556  41.420  29.868  14.261
25028W        W96557  21.924  40.612   1.042
25029W        W96558  29.138  43.365  13.788
25030W        W96559   1.242  29.764  14.437
25031W        W96560   4.437  42.337  10.648
25032W        W96561  16.717  42.847   3.581
25033W        W96562   7.233   9.332   4.736
25034W        W96563  12.195  22.535   1.794
25035W        W96564  14.627  25.469   2.481
25036W        W96565  30.075  32.145  14.309
25037W        W96566  43.724   3.661   4.096
25038W        W96567  15.016  40.985  14.891
25039W        W96568  38.071   6.177   2.271
25040W        W96569   9.751  20.050  14.216
25041W        W96570  20.344  16.998  14.607
25042W        W96571  21.287   3.419   1.187
25043W        W96572  19.214  11.706   0.235
25044W        W96573  18.752  39.889  13.785
25045W        W96574   6.303  38.634  10.895
25046W        W96575  19.656  26.271  13.889
25047W        W96576  18.533  32.090   1.830
25048W        W96577  17.051  22.504   0.232
25049W        W96578   8.280   2.300  10.832
25050W        W96579  18.148  22.088   1.247
25051W        W96580   8.383  12.849   3.696
25052W        W96581  22.887  43.940  11.261
25053W        W96582  16.167   7.051   1.726
25054W        W96583  32.079  14.785  13.120
25055W        W96584  30.225  40.134   3.788
25056W        W96585  29.762  31.324   4.781
25057W        W96586   6.402  17.586  12.951
25058W        W96587  21.496  21.071   2.767
25059W        W96588  21.925  21.623   3.886
25060W        W96589   3.726  39.471  12.211
25061W        W96590   3.250  29.130   0.431
25062W        W96591  15.071  10.550   4.898
25063W        W96592  41.494  26.929  14.486
25064W        W96593  33.572   1.458  12.477
25065W        W96594  26.981  19.298  13.463
25066W        W96595  27.655  42.848   0.606
25067W        W96596  40.138   2.797  11.979
25068W        W96597  26.961  12.708  12.839
25069W        W96598  33.648  43.329  11.647
25070W        W96599  35.154  16.133   0.857
25071W        W96600  35.152  25.786   3.702
25072W        W96601  38.577  38.366  13.765
25073W        W96602  17.173  15.524  13.429
25074W        W96603  16.161  23.582   3.104
25075W        W96604  29.676  13.016   0.644
25076W        W96605  44.450   6.761   1.123
25077W        W96606  20.671  34.884   2.625
25078W        W96607  25.522  24.502   1.290
25079W        W96608   1.779   3.483  12.108
25080W        W96609  20.174  25.550   0.360
25081W        W96610   2.886  22.480   2.246
25082W        W96611  10.366   8.334  10.734
25083W        W96612  13.993  43.181   1.056
25084W        W96613  35.537  29.397   3.359
25085W        W96614   5.844  39.566   0.422
25086W        W96615  30.370   9.917  11.194
25087W        W96616  40.502  17.669  15.000
25088W        W96617   3.926  12.080   1.770
25089W        W96618  37.040  17.106   1.850
25090W        W96619  34.609  27.497  12.720
25091W        W96620  32.822  34.842  12.991
25092W        W96621  37.302  44.855   0.520
25093W        W96622  39.088  33.236  12.329
25094W        W96623  33.529  33.448  13.098
25095W        W96624  12.911  38.536   3.671
25096W        W96625   5.664   7.763   1.478
25097W        W96626  22.268  27.129   1.658
25098W        W96627   5.853  29.619   0.850
25099W        W96628  36.813  40.039   3.171
25100W        W96629  43.038  35.175  11.593
25101W        W96630  17.317   9.713   0.913
25102W        W96631  30.830  20.492   4.540
25103W        W96632   8.896  25.055  12.403
25104W        W96633  40.488  43.019   2.659
25105W        W96634   8.214  24.492  13.780
25106W        W96635  12.924  30.466   4.943
25107W        W96636  26.115   4.689   3.351
25108W        W96637  20.238  33.837   3.688
25109W        W96638  25.114  10.233  14.881
25110W        W96639  12.751  43.964   2.619
25111W        W96640  13.244  42.122  12.448
25112W        W96641  24.607  19.778   0.081
25113W        W96642  10.972  20.996   2.238
25114W        W96643  24.446   0.067  11.069
25115W        W96644  17.153   3.784   2.621
25116W        W96645   6.764   1.279   0.804
25117W        W96646   7.882   4.639  14.812
25118W        W96647   0.398  26.447  10.740
25119W        W96648  12.725  26.802  12.510
25120W        W96649  36.301  22.031   4.156
25121W        W96650  31.494   2.530   3.256
25122W        W96651  13.442  21.108  12.212
25123W        W96652  10.682  10.198  12.112
25124W        W96653   1.912  30.278  13.938
25125W        W96654  33.555  35.629   1.214
25126W        W96655  35.867  35.692  10.610
25127W        W96656  43.438  32.640   1.719
25128W        W96657  16.203   2.488   0.032
25129W        W96658  25.032   9.905   3.306
25130W        W96659  35.342  24.476  12.058
25131W        W96660  39.377  29.441   4.014
25132W        W96661  38.235  19.576  12.454
25133W        W96662  17.162   1.672  12.176
25134W        W96663  16.679  44.675  12.404
25135W        W96664   3.699  38.757  11.538
25136W        W96665  22.759  28.199   1.709
25137W        W96666  10.098  31.507  10.718
25138W        W96667  10.929   0.338   2.924
25139W        W96668  37.051  21.547  14.279
25140W        W96669  10.331  36.053   1.615
25141W        W96670  19.334  32.407  14.388
25142W        W96671  42.549  34.403   2.822
25143W        W96672  31.602  31.125   0.311
25144W        W96673  21.419  23.664   0.281
25145W        W96674  10.659  41.659   0.733
25146W        W96675   3.321   2.687  13.826
25147W        W96676  31.892  42.881   4.508
25148W        W96677  42.044  12.133  12.853
25149W        W96678  31.066  24.150  12.332
25150W        W96679  39.102  32.146   1.221
25151W        W96680  37.413  42.332   2.228
25152W        W96681  28.504  38.384   2.916
25153W        W96682  37.497  32.832   1.825
25154W        W96683  12.686   1.570   3.207
25155W        W96684  29.260  12.309   1.293
25156W        W96685   2.454   2.863  14.817
25157W        W96686  30.470  27.859  12.875
25158W        W96687   3.716  30.500   3.245
25159W        W96688  24.268  21.112   2.168
25160W        W96689  36.815  34.617   2.717
25161W        W96690  13.740  36.052  14.359
25162W        W96691  44.253  16.616   4.806
25163W        W96692  41.747  14.848   3.442
25164W        W96693  30.762   7.052   0.513
25165W        W96694  25.182  23.752   1.408
25166W        W96695  30.954  22.623  13.649
25167W        W96696   6.127   1.712   1.856
25168W        W96697  43.287  17.285  14.259
25169W        W96698  23.965  33.606   2.304
25170W        W96699  42.000  40.756  12.070
25171W        W96700  30.005   7.699  13.487
25172W        W96701  33.586  31.138   1.595
25173W        W96702  14.612  19.560  13.084
25174W        W96703  35.154   8.298   2.814
25175W        W96704  29.643  44.962  14.008
25176W        W96705  18.110  34.329  13.521
25177W        W96706  37.714  23.291  12.434
25178W        W96707   7.094  22.450   1.779
25179W        W96708  38.168   3.748  14.262
25180W        W96709   6.785  22.473   4.048
25181W        W96710  20.700  36.283  12.953
25182W        W96711   4.990  22.968   0.716
25183W        W96712  39.396   9.343  12.453
25184W        W96713  31.847   2.980   1.222
25185W        W96714   6.330  30.431  13.409
25186W        W96715  15.626   7.222   0.553
25187W        W96716  27.601  44.866   3.850
25188W        W96717  30.402  17.257   1.191
25189W        W96718  39.240  16.386   4.133
25190W        W96719  16.754   9.125  12.596
25191W        W96720   7.417  34.124   0.708
25192W        W96721  43.645  23.630   0.482
25193W        W96722  23.129   4.385   1.720
25194W        W96723  42.893  23.167  10.619
25195W        W96724   6.608  28.485   1.498
25196W        W96725  18.123  14.180  12.899
25197W        W96726   5.921  13.720  13.819
25198W        W96727  25.960  22.968  14.392
25199W        W96728   4.237  36.941  11.698
25200W        W96729  38.475  23.810   1.859
25201W        W96730  36.325  44.967   1.228
25202W        W96731  15.598  27.162  10.696
25203W        W96732  36.944  10.099  13.789
25204W        W96733  42.431  31.887  14.804
25205W        W96734  41.453  28.341   1.846
25206W        W96735  26.037  29.598  11.399
25207W        W96736  22.652  32.184  12.991
25208W        W96737  25.709  14.711  13.403
25209W        W96738   0.957  43.750  10.660
25210W        W96739  27.508  44.729   1.028
25211W        W96740  18.110  34.065   0.318
25212W        W96741  39.124   7.944   2.874
25213W        W96742  42.732  13.698  11.730
25214W        W96743   0.071  29.625   1.815
25215W        W96744  18.723  41.657  11.490
25216W        W96745  31.573  30.434  14.497
25217W        W96746  42.256  39.793  13.882
25218W        W96747  25.077  30.834  10.730
25219W        W96748   1.794  37.668   0.751
25220W        W96749  17.618  17.070   4.328
25221W        W96750  41.338   5.142  11.021
25222W        W96751  14.720  29.912   2.870
25223W        W96752  33.430  38.643  11.795
25224W        W96753   0.016  16.374  12.026
25225W        W96754  11.903  41.511  14.057
25226W        W96755  10.793  35.554  11.656
25227W        W96756  18.170  39.534   1.931
25228W        W96757  44.521  28.958   3.776
25229W        W96758  40.821  19.246   3.256
25230W        W96759  33.359  35.546   0.742
25231W        W96760   9.279  20.100  12.028
25232W        W96761  43.023  33.962   1.731
25233W        W96762  18.674  35.403   0.567
25234W        W96763  41.313   7.839   2.180
25235W        W96764  39.972  23.189   1.299
25236W        W96765  34.138  40.857   3.661
25237W        W96766   3.515  32.383   2.223
25238W        W96767   3.022  17.566   0.339
25239W        W96768  28.928  20.618   1.527
25240W        W96769  22.107  17.493  13.796
25241W        W96770  21.429  15.348   0.981
25242W        W96771   7.439  33.587   1.309
25243W        W96772   0.670  22.736  12.892
25244W        W96773  15.356   9.086  14.045
25245W        W96774  33.408  18.515   4.147
25246W        W96775  31.708  28.456   0.468
25247W        W96776  14.332  20.766   3.618
25248W        W96777  20.582   7.792   2.865
25249W        W96778  33.951  32.573  11.318
25250W        W96779  12.384  38.523   2.791
25251W        W96780   0.373  31.864  10.747
25252W        W96781  39.508   9.812   0.872
25253W        W96782  24.189  37.673  11.242
25254W        W96783  14.763  20.701  12.164
25255W        W96784   7.113  22.955   1.634
25256W        W96785  23.640   5.249   4.283
25257W        W96786  33.049  13.066   3.742
25258W        W96787  17.808  14.014   0.748
25259W        W96788   1.312  44.472  13.574
25260W        W96789   4.146  19.314   0.764
25261W        W96790  17.035  12.246   1.752
25262W        W96791  38.976  26.531   2.493
25263W        W96792  26.955  13.676   2.845
25264W        W96793  44.798   1.473  12.545
25265W        W96794  36.200  22.098   1.893
25266W        W96795  16.773  13.275  14.733
25267W        W96796  10.918  44.983  11.647
25268W        W96797  29.572   9.595  13.014
25269W        W96798  22.311  39.218   3.404
25270W        W96799  19.563  36.311  12.509
25271W        W96800  43.409  40.781   3.850
25272W        W96801   5.485   3.885  13.753
25273W        W96802   3.967  17.291   4.727
25274W        W96803  36.830  11.545   4.481
25275W        W96804  12.364  25.038   0.807
25276W        W96805   2.576   2.694  13.971
25277W        W96806  42.235  32.090   1.426
25278W        W96807  19.243  37.590   1.730
25279W        W96808  28.461   9.258  10.609
25280W        W96809  25.973  36.240   3.620
25281W        W96810  43.356  40.551   2.475
25282W        W96811   2.166  29.557  12.561
25283W        W96812  31.872  32.972   1.927
25284W        W96813  40.877  17.190  14.868
25285W        W96814  12.195  27.704  12.626
25286W        W96815  41.585   3.482  12.651
25287W        W96816  43.897  39.981  11.942
25288W        W96817  21.695   0.753   2.468
25289W        W96818  44.297   6.667   0.234
25290W        W96819   4.690  15.641  12.438
25291W        W96820  16.624  29.459   0.428
25292W        W96821  33.053  41.466   2.209
25293W        W96822  11.960  11.131  14.871
25294W        W96823  10.618  42.202  12.810
25295W        W96824  42.866  34.671  11.657
25296W        W96825   0.883  14.746   3.788
25297W        W96826  17.672  38.920  11.832
25298W        W96827  20.735   7.764  13.810
25299W        W96828  35.415  41.321  11.663
25300W        W96829  31.327  28.532  14.506
25301W        W96830  19.491   1.829   4.131
25302W        W96831   0.148  22.700  13.076
25303W        W96832  13.649  19.175  10.743
25304W        W96833  38.825   2.884  13.388
25305W        W96834  33.900   6.984   3.808
25306W        W96835  26.176   2.877  13.388
25307W        W96836   6.681   6.824  13.011
25308W        W96837   1.073  12.555  11.985
25309W        W96838   9.375  11.039   1.215
25310W        W96839   0.878  33.345  11.944
25311W        W96840  31.273   2.943   0.868
25312W        W96841  27.093   0.022   3.662
25313W        W96842  38.604  41.481   1.049
25314W        W96843  15.676   4.156   3.125
25315W        W96844  19.758  41.466   3.344
25316W        W96845  27.935  27.992   9.901
25317W        W96846  13.230   1.859   2.817
25318W        W96847  15.979  39.536  13.817
25319W        W96848  12.638   6.503  11.111
25320W        W96849  25.895  40.925   4.040
25321W        W96850  22.479  12.959   3.279
25322W        W96851  25.238  12.654  14.463
25323W        W96852  36.940  11.122   2.291
25324W        W96853  34.500  18.654   2.385
25325W        W96854  28.933  30.759  13.420
25326W        W96855  15.221  13.351  14.313
25327W        W96856  13.837  23.115  13.104
25328W        W96857   0.357  26.159  12.867
25329W        W96858  11.213  18.021   1.736
25330W        W96859  14.752  11.341   0.839
25331W        W96860   4.255  21.118  13.912
25332W        W96861  38.973  38.923  11.691
25333W        W96862  20.630   5.909   4.211
25334W        W96863  28.075  27.893  14.899
25335W        W96864  17.851  30.881   0.651
25336W        W96865  15.731   3.807   3.602
25337W        W96866  36.826   7.382  11.404
25338W        W96867  32.162  13.213  14.084
25339W        W96868   3.057  31.353   4.706
25340W        W96869  21.127  39.400   4.121
25341W        W96870   9.319   5.817   2.105
25342W        W96871  20.018  33.092  11.985
25343W        W96872  41.972  35.225   2.301
25344W        W96873  43.463  14.301  13.252
25345W        W96874  23.619  36.246  12.654
25346W        W96875  39.067   1.159  13.825
25347W        W96876   4.876   9.783  11.174
25348W        W96877   4.797   3.170  13.444
25349W        W96878  28.775  14.058   2.347
25350W        W96879  14.186  10.652   0.943
25351W        W96880  35.019  25.451  14.540
25352W        W96881  15.937  13.372   3.240
25353W        W96882  18.465  34.828  14.783
25354W        W96883  43.349  35.144   4.216
25355W        W96884  23.911  19.763  13.053
25356W        W96885  24.513   0.952  10.716
25357W        W96886  38.091   4.443   1.984
25358W        W96887   1.326  33.159   0.309
25359W        W96888  25.564  31.354   1.244
25360W        W96889  29.444  37.856  13.588
25361W        W96890  26.760  30.145   0.350
25362W        W96891  21.254  14.808  11.207
25363W        W96892  44.937  24.737   2.697
25364W        W96893   9.894   9.205   0.932
25365W        W96894  11.888  14.685  14.930
25366W        W96895  19.272  24.514  13.790
25367W        W96896  23.657  32.081   4.196
25368W        W96897  44.881   1.410   2.100
25369W        W96898  32.950  19.567   1.346
25370W        W96899  13.633  20.186  10.942
25371W        W96900  18.051   1.633   1.902
25372W        W96901  42.026  27.588   3.296
25373W        W96902  23.577  11.178   4.640
25374W        W96903  41.796  43.964  10.395
25375W        W96904  30.951  41.090  13.816
25376W        W96905  29.738  16.285  14.461
25377W        W96906  13.325  11.222  14.515
25378W        W96907  43.333  39.252  12.518
25379W        W96908  16.932   6.003  11.897
25380W        W96909  10.818  13.074   1.175
25381W        W96910  31.862  31.369  10.746
25382W        W96911  39.419  43.963  14.337
25383W        W96912  32.627   4.567  13.299
25384W        W96913  15.257   0.849   2.372
25385W        W96914   2.963   1.481  11.271
25386W        W96915  25.070   2.223  10.785
25387W        W96916   7.226  26.708   0.359
25388W        W96917  20.835  44.087   3.472
25389W        W96918  23.075  14.659  12.430
25390W        W96919  25.974  43.625  12.885
25391W        W96920  34.772  34.606  12.453
25392W        W96921  11.301  16.628  13.785
25393W        W96922  31.516   6.145   0.004
25394W        W96923   6.137  10.686   4.344
25395W        W96924  13.213  42.429   0.908
25396W        W96925  16.053  21.081  11.068
25397W        W96926  41.537  22.613  14.435
25398W        W96927  11.893  39.568  13.963
25399W        W96928  23.804  16.877   2.849
25400W        W96929  32.636  34.578  14.681
25401W        W96930  21.655  23.650   0.744
25402W        W96931  30.753  28.214   3.262
25403W        W96932  16.313   7.319   2.278
25404W        W96933   2.050  44.500  14.371
25405W        W96934  22.224  41.419   3.356
25406W        W96935  41.834  20.489  12.329
25407W        W96936   0.322   3.228  11.610
25408W        W96937  13.832  31.129  13.297
25409W        W96938  31.294  37.267  14.558
25410W        W96939   7.184  43.738  13.581
25411W        W96940  14.959   8.480   0.905
25412W        W96941  27.137  15.652   1.814
25413W        W96942  31.528  30.962  14.461
25414W        W96943  34.834   6.196   5.020
25415W        W96944  29.170  36.491  12.196
25416W        W96945  13.629  16.785  11.146
25417W        W96946  30.549  11.591  10.367
25418W        W96947   3.190  25.647   4.123
25419W        W96948  31.827   7.265   1.179
25420W        W96949  25.772   5.647  10.238
25421W        W96950  34.360  18.529  10.739
25422W        W96951  42.889   5.460  13.042
25423W        W96952  39.459  35.339  11.057
25424W        W96953  40.696   7.651  11.137
25425W        W96954  21.821  12.296  11.568
25426W        W96955  14.686  18.178   3.146
25427W        W96956  23.981  29.462   0.525
25428W        W96957  38.872  10.209  13.493
25429W        W96958  20.274  10.130   1.622
25430W        W96959  35.684  15.293   1.884
25431W        W96960   4.653  37.566   3.228
25432W        W96961  11.310  40.807   4.105
25433W        W96962  17.850  10.840   0.922
25434W        W96963  42.336  18.953   0.740
25435W        W96964  11.302   9.056  13.421
25436W        W96965  39.992  22.066   3.946
25437W        W96966  14.293  32.325  13.260
25438W        W96967  12.670  11.109  13.885
25439W        W96968  37.294   7.220   1.530
25440W        W96969  37.860  35.705   3.664
25441W        W96970   9.764   2.403  13.952
25442W        W96971  12.374  16.551  12.529
25443W        W96972   8.132   3.671  11.968
25444W        W96973  13.731  13.905  11.996
25445W        W96974  14.031  11.696   1.267
25446W        W96975   1.444  28.537  10.541
25447W        W96976  43.862  39.030  13.933
25448W        W96977  13.580  37.991   4.759
25449W        W96978  27.639  32.830  10.265
25450W        W96979   4.804  38.556  13.899
25451W        W96980  18.342  40.419  14.890
25452W        W96981  24.782  29.495  10.669
25453W        W96982  15.288  41.343   0.586
25454W        W96983  32.239   4.173  12.018
25455W        W96984   0.938  24.158  10.746
25456W        W96985  16.273  35.095  11.142
25457W        W96986   3.323   8.266   1.264
25458W        W96987  12.263   2.525  14.358
25459W        W96988  15.268  37.092   1.924
25460W        W96989  17.861  30.815   5.037
25461W        W96990   0.443   8.704   1.452
25462W        W96991  26.469  17.447   1.442
25463W        W96992  20.306  22.388  11.120
25464W        W96993   7.098  26.009   0.739
25465W        W96994  10.735  22.045  14.045
25466W        W96995  31.677  41.061  13.287
25467W        W96996   7.900  22.043   3.241
25468W        W96997  44.885  31.051  12.488
25469W        W96998  29.069  39.063  14.643
25470W        W96999  43.293  10.452  11.650
25471W        W97000  19.293  21.040  10.549
25472W        W97001  25.712  39.280   3.655
25473W        W97002   2.085  33.048   1.810
25474W        W97003  36.073   0.513  12.840
25475W        W97004   3.332  24.148   4.956
25476W        W97005  17.959  14.667  12.200
25477W        W97006  12.305  41.368  12.865
25478W        W97007  33.536   6.222   1.876
25479W        W97008  37.005  25.967  14.527
25480W        W97009  40.407  23.538  10.947
25481W        W97010  41.819   1.568   0.820
25482W        W97011   9.708   4.997  11.572
25483W        W97012  23.662  10.272  10.947
25484W        W97013  25.423  15.683  14.536
25485W        W97014  31.705  37.977  13.915
25486W        W97015  29.830  10.679  12.796
25487W        W97016   0.457  15.523   3.596
25488W        W97017  11.959  43.981  13.390
25489W        W97018   8.873  36.581  14.906
25490W        W97019  33.354  38.573  11.300
25491W        W97020  25.718   4.954  13.119
25492W        W97021  30.595   2.888   2.202
25493W        W97022  18.979  17.299  12.326
25494W        W97023  16.454   5.382   0.306
25495W        W97024  31.875  43.269   2.212
25496W        W97025  13.307   4.941  10.036
25497W        W97026  23.104   7.994  14.377
25498W        W97027   2.672  44.410   0.450
25499W        W97028  25.534  31.541   4.366
25500W        W97029   8.952  19.627   3.684
25501W        W97030   7.888   9.439   4.203
25502W        W97031  44.011  38.937   2.163
25503W        W97032  42.249  35.252  12.055
25504W        W97033  35.030  19.180   1.298
25505W        W97034  37.604  39.796  11.024
25506W        W97035  44.393  29.438   3.724
25507W        W97036  23.232   7.750  11.381
25508W        W97037   4.685  23.684   2.550
25509W        W97038  29.899  33.604  13.508
25510W        W97039  12.757  38.937  13.250
25511W        W97040   5.996  35.317  12.348
25512W        W97041  24.635   4.249   2.740
25513W        W97042  17.440   6.615  13.387
25514W        W97043   6.640  44.729   0.047
25515W        W97044  21.012   3.848  14.584
25516W        W97045  22.623   8.755  14.976
25517W        W97046  32.400   9.785  14.963
25518W        W97047   2.652  36.048   0.286
25519W        W97048  12.807  16.767  10.748
25520W        W97049  10.243  16.063  10.781
25521W        W97050  39.294  39.143  14.425
25522W        W97051  26.510  20.674   3.433
25523W        W97052   0.553  27.071  12.090
25524W        W97053  24.996  30.155   3.612
25525W        W97054  28.675  42.701  13.261
25526W        W97055   0.973   1.421   0.863
25527W        W97056  40.026  41.128   2.207
25528W        W97057  12.243  34.356   1.435
25529W        W97058  17.715   1.820  14.361
25530W        W97059  24.552  35.361   3.236
25531W        W97060   2.741  24.899   4.695
25532W        W97061  42.518   5.162   0.913
25533W        W97062  44.653  29.948  13.023
25534W        W97063   5.745  37.406  12.139
25535W        W97064  27.650   0.374   3.845
25536W        W97065   7.168  37.990   2.877
25537W        W97066  39.281  35.952   3.240
25538W        W97067  15.555  24.213   5.226
25539W        W97068  26.265  11.351  13.615
25540W        W97069  28.659  30.941  10.457
25541W        W97070  23.050   7.492   0.807
25542W        W97071  38.483  39.334   3.166
25543W        W97072  12.738  12.896  12.805
25544W        W97073  16.882  42.327   2.266
25545W        W97074  19.861  36.243  13.302
25546W        W97075  37.058  25.395  13.962
25547W        W97076  36.498  41.740  14.490
25548W        W97077  34.390  21.134  14.140
25549W        W97078  35.465  27.782  12.907
25550W        W97079   7.044  23.802  13.452
25551W        W97080  34.452   8.261  11.312
25552W        W97081  31.668  33.954  13.788
25553W        W97082  42.015   0.956   2.419
25554W        W97083  13.200   2.015  14.469
25555W        W97084  17.537   9.627   0.191
25556W        W97085  32.430  19.769  13.538
25557W        W97086  27.912  41.528  13.558
25558W        W97087  34.064   8.198  14.062
25559W        W97088  13.796   0.507   3.765
25560W        W97089   4.896   9.616  10.684
25561W        W97090   9.908  41.037   1.131
25562W        W97091  39.170  41.070   3.615
25563W        W97092   3.788  30.379  12.898
25564W        W97093  12.636   3.732  13.022
25565W        W97094  38.446   8.000  14.293
25566W        W97095   9.088   1.600   4.197
25567W        W97096  21.639  18.623  14.539
25568W        W97097  10.465  42.945  10.147
25569W        W97098  34.307  31.603   2.641
25570W        W97099  42.451  11.298   2.238
25571W        W97100  32.247  29.252  12.469
25572W        W97101  38.582  39.275  11.686
25573W        W97102  33.100   7.742   3.232
25574W        W97103   4.805   8.170  14.231
25575W        W97104  43.172  27.226   1.375
25576W        W97105  12.495  28.889   1.032
25577W        W97106  29.988  29.578  10.654
25578W        W97107   9.853  22.127  12.516
25579W        W97108  25.225  31.596  11.177
25580W        W97109  39.597   9.266   4.142
25581W        W97110  15.733  19.788   0.949
25582W        W97111  28.113  28.178  13.014
25583W        W97112  13.669  36.851   0.959
25584W        W97113  40.883  41.808  12.420
25585W        W97114  36.507  13.149  11.398
25586W        W97115   2.376  16.793  14.985
25587W        W97116  32.011   6.959   2.768
25588W        W97117  24.938  16.621   4.509
25589W        W97118  15.314   8.261  14.512
25590W        W97119  19.112   9.017  12.800
25591W        W97120  30.502   5.459  14.228
25592W        W97121  27.549  44.974  13.069
25593W        W97122   1.844   9.395  10.680
25594W        W97123  44.735  23.052  13.055
25595W        W97124  24.926  30.627  14.258
25596W        W97125  32.524  28.440  13.323
25597W        W97126  42.765  42.397   0.387
25598W        W97127  15.924  38.618  12.012
25599W        W97128  39.287   8.047   0.279
25600W        W97129  12.083  29.395  10.748
25601W        W97130  43.005  44.734  13.067
25602W        W97131  42.728  30.611   2.320
25603W        W97132  44.786  40.220   4.839
25604W        W97133  44.930  15.541   1.427
25605W        W97134  41.269  44.027  11.831
25606W        W97135  34.973  18.538   2.769
25607W        W97136   8.684  22.519   3.225
25608W        W97137   1.761  23.018  10.438
25609W        W97138   7.300   8.969  13.553
25610W        W97139  41.053   1.917  14.258
25611W        W97140  38.153  37.456  11.027
25612W        W97141  37.591  16.952  10.903
25613W        W97142  11.364  10.732  11.304
25614W        W97143  36.410   8.201   1.426
25615W        W97144  17.354  20.090   1.366
25616W        W97145  16.266  26.569  12.089
25617W        W97146   4.915   8.055   1.222
25618W        W97147  27.513  34.239   1.729
25619W        W97148   8.678  14.195   0.111
25620W        W97149  21.021   2.058   4.949
25621W        W97150  11.551  15.494  11.147
25622W        W97151  43.052  29.047  11.529
25623W        W97152  17.238  31.770  12.166
25624W        W97153  30.559  25.058   3.399
25625W        W97154  37.519  43.490   5.003
25626W        W97155  25.338  18.041   0.809
25627W        W97156   4.109  28.976  14.461
25628W        W97157  34.090  15.243  12.488
25629W        W97158  39.271  39.798   1.450
25630W        W97159   0.548   8.488  11.211
25631W        W97160  14.329  17.696   2.658
25632W        W97161  24.886  11.384   3.210
25633W        W97162  38.351  17.472   1.885
25634W        W97163  29.327   0.527   4.919
25635W        W97164  27.959  30.039  13.635
25636W        W97165  21.473  24.535   0.753
25637W        W97166   4.599   7.972   3.738
25638W        W97167   7.768  27.124  14.834
25639W        W97168  37.071  32.412  12.417
25640W        W97169   4.219  39.902  14.011
25641W        W97170   2.101  43.566   0.401
25642W        W97171  27.884  31.667   5.044
25643W        W97172  41.313  41.269   2.834
25644W        W97173  36.682  27.207   2.274
25645W        W97174   4.490   3.764  10.146
25646W        W97175  39.073  36.280   2.407
25647W        W97176   8.935  23.260   4.675
25648W        W97177  22.017  35.984  11.533
25649W        W97178  44.836  40.652  13.976
25650W        W97179  39.960   6.426  14.821
25651W        W97180  18.135   4.520  12.525
25652W        W97181  40.548  42.641   4.190
25653W        W97182  30.071  44.221  13.304
25654W        W97183   4.257  17.335  10.681
25655W        W97184   9.550  30.357  11.164
25656W        W97185  21.431  31.289   4.572
25657W        W97186  38.414  14.607   2.466
25658W        W97187  22.037   8.214  10.897
25659W        W97188   7.494  33.470   0.299
25660W        W97189  43.764  33.053  10.794
25661W        W97190   2.114  24.470   1.912
25662W        W97191  26.357   8.643  11.706
25663W        W97192  29.751  19.774  12.558
25664W        W97193  24.257  15.050  14.552
25665W        W97194  17.267  14.150  12.152
25666W        W97195  14.750  34.028   2.292
25667W        W97196   8.911  33.459  11.988
25668W        W97197  10.155   3.968   2.233
25669W        W97198  22.689  30.004  13.425
25670W        W97199  38.800  27.601  11.587
25671W        W97200  20.538  35.336  10.997
25672W        W97201  25.524   0.345  12.551
25673W        W97202  27.934   0.603   4.620
25674W        W97203  23.189  23.946  10.882
25675W        W97204   3.441   0.910   0.227
25676W        W97205  10.388  18.239  14.784
25677W        W97206  18.219   2.290  11.299
25678W        W97207  28.490  42.207  13.391
25679W        W97208  41.734  20.514   2.268
25680W        W97209   2.970  37.528  10.948
25681W        W97210   6.675  39.787   0.735
25682W        W97211  22.777  33.612  13.773
25683W        W97212  42.960  39.047   3.732
25684W        W97213  19.790  11.706  13.463
25685W        W97214  31.428  15.562   2.173
25686W        W97215  29.340  39.444  11.621
25687W        W97216  39.502  44.679  14.979
25688W        W97217  34.903  21.581  14.375
25689W        W97218  32.412  26.063  14.871
25690W        W97219   3.650  35.045  13.843
25691W        W97220  28.354  17.909   9.679
25692W        W97221  16.119  20.606   3.095
25693W        W97222  25.564   2.220   2.854
25694W        W97223  12.247  35.669  13.473
25695W        W97224  42.466  22.240  10.750
25696W        W97225  35.548  12.822  12.913
25697W        W97226   9.061  43.912   3.584
25698W        W97227  32.880  43.396  12.086
25699W        W97228  10.231  17.108  12.813
25700W        W97229  25.321   3.278   3.234
25701W        W97230  28.741  39.540   2.743
25702W        W97231   9.238  37.404  14.086
25703W        W97232  28.381  39.092  13.790
25704W        W97233  25.470  41.078  11.994
25705W        W97234  42.506  44.946   0.366
25706W        W97235  23.780   9.011   0.811
25707W        W97236  31.572  38.455  10.908
25708W        W97237  29.696  37.633  13.970
25709W        W97238  10.356  16.746   3.935
25710W        W97239  40.435   8.411   0.662
25711W        W97240  12.040  28.093   0.565
25712W        W97241  35.925  22.457   3.651
25713W        W97242  23.994  41.338  10.685
25714W        W97243   6.856  43.746   3.722
25715W        W97244   9.825  24.571  13.884
25716W        W97245   4.332  35.122   2.870
25717W        W97246   7.757   9.376  12.449
25718W        W97247  19.367   6.822   0.463
25719W        W97248   3.197  16.349  11.143
25720W        W97249  34.651  31.538  12.512
25721W        W97250   3.315  10.985  11.807
25722W        W97251  12.705  25.713   0.479
25723W        W97252   5.726  19.805   1.259
25724W        W97253  36.195  36.864  11.144
25725W        W97254  32.037  28.983  10.275
25726W        W97255  41.044  32.565   1.308
25727W        W97256  15.604  41.551  12.540
25728W        W97257   2.189  20.664   1.841
25729W        W97258  33.887  16.649  11.947
25730W        W97259  10.660   5.785   3.719
25731W        W97260  37.934  19.593   2.460
25732W        W97261  44.519   1.434  14.368
25733W        W97262   3.897  12.120  13.672
25734W        W97263  44.585  11.585   0.349
25735W        W97264   0.126  17.864  13.998
25736W        W97265  23.517  13.410   0.250
25737W        W97266  20.418   5.491   3.120
25738W        W97267  29.163  14.618  11.681
25739W        W97268  37.782  13.294   2.373
25740W        W97269   7.626   4.885   4.499
25741W        W97270  26.458  35.855  13.806
25742W        W97271  22.014  22.539   3.279
25743W        W97272  12.672  41.207   2.441
25744W        W97273  39.820  43.313   0.461
25745W        W97274   8.262   5.541  11.880
25746W        W97275  12.280  31.754  14.406
25747W        W97276  12.328  38.859   1.920
25748W        W97277   6.797  18.457   0.005
25749W        W97278   7.416  33.705  14.750
25750W        W97279  27.251  18.964  12.978
25751W        W97280  23.184  31.666   2.219
25752W        W97281   1.026  33.492   3.237
25753W        W97282   3.678  43.753   3.828
25754W        W97283   2.849  26.478  11.416
25755W        W97284  20.902  31.919   4.693
25756W        W97285   0.537  19.175   1.482
25757W        W97286   8.079  32.178  10.705
25758W        W97287   0.989  37.808  10.484
25759W        W97288   4.299  38.779   3.255
25760W        W97289   8.202   1.121   0.801
25761W        W97290  18.790  33.420   4.342
25762W        W97291   7.146   9.813  12.648
25763W        W97292  44.935  28.877   0.653
25764W        W97293  17.378  23.927   2.420
25765W        W97294  17.694  12.710  13.777
25766W        W97295  14.773   0.435   3.568
25767W        W97296  10.349  36.119  11.025
25768W        W97297  15.777  11.274  10.193
25769W        W97298  27.662  11.433  12.651
25770W        W97299  12.314  27.714  11.189
25771W        W97300  39.015  12.755   4.330
25772W        W97301  30.159  14.109   2.179
25773W        W97302  16.854  12.808  14.044
25774W        W97303   7.836  44.887   2.159
25775W        W97304  25.690  10.660  14.373
25776W        W97305  16.030  28.482  13.521
25777W        W97306  36.994  27.716   0.417
25778W        W97307  19.779  14.293  11.712
25779W        W97308  40.561   7.014   1.152
25780W        W97309  26.232  17.151   4.384
25781W        W97310  20.015   6.849   1.690
25782W        W97311  42.288  29.652  14.049
25783W        W97312  30.351   7.807  11.526
25784W        W97313  39.322  34.871  10.902
25785W        W97314  35.321  26.488  11.497
25786W        W97315   7.076  28.220  11.130
25787W        W97316  15.373  10.804  10.739
25788W        W97317  11.364  29.868  14.376
25789W        W97318  44.134  24.569  12.348
25790W        W97319  14.835  41.888   4.813
25791W        W97320   1.463  26.546   2.867
25792W        W97321  28.787  30.270   4.174
25793W        W97322  26.212  40.996   3.108
25794W        W97323  24.708  27.569  14.314
25795W        W97324   5.435  35.531   1.955
25796W        W97325  13.164  35.114   0.248
25797W        W97326  38.793  34.327   2.645
25798W        W97327  43.659  36.495   3.819
25799W        W97328  41.244   1.000   1.883
25800W        W97329  40.928  20.241   1.709
25801W        W97330  19.461  23.169   4.280
25802W        W97331  43.559  13.143   4.704
25803W        W97332  24.570  15.190  10.458
25804W        W97333  41.594  34.553  10.703
25805W        W97334  22.565   8.758   3.902
25806W        W97335  26.582   7.376  11.415
25807W        W97336  17.548  12.866   1.309
25808W        W97337   1.358  28.457   1.240
25809W        W97338  21.258  33.736   0.065
25810W        W97339  33.791  15.990  13.091
25811W        W97340  15.705  24.594   4.418
25812W        W97341   3.488  19.266   2.728
25813W        W97342  26.745  12.621   2.277
25814W        W97343  39.360   1.925   2.561
25815W        W97344  32.358  20.253   1.339
25816W        W97345  35.810  38.964  14.775
25817W        W97346  33.123  14.663  11.611
25818W        W97347  44.028  11.644   3.125
25819W        W97348  44.954  15.323   0.956
25820W        W97349   8.310  24.923   4.203
25821W        W97350  20.682  19.582   3.207
25822W        W97351  25.282   8.323  14.982
25823W        W97352  11.390  15.675   2.255
25824W        W97353  20.634   9.278   2.810
25825W        W97354  22.879  19.380   3.668
25826W        W97355  23.961   5.200   2.192
25827W        W97356  40.131  18.883  12.127
25828W        W97357  13.832  21.063   4.691
25829W        W97358  18.485  17.706  13.786
25830W        W97359  11.070  17.244  11.677
25831W        W97360   4.763   8.753  11.660
25832W        W97361  32.859  24.151  12.797
25833W        W97362  36.923   8.196   4.389
25834W        W97363   2.282  16.227   2.739
25835W        W97364   0.197  12.117  10.680
25836W        W97365  39.838  36.626   2.689
25837W        W97366   4.255  39.355  14.840
25838W        W97367  18.484   8.419   1.743
25839W        W97368   5.971  12.349  11.632
25840W        W97369  27.159   0.535   3.781
25841W        W97370  20.777  28.116   2.694
25842W        W97371  22.075  35.098   1.442
25843W        W97372  28.722  21.742   1.995
25844W        W97373   0.275   7.624   1.766
25845W        W97374  42.428   9.805  12.642
25846W        W97375  39.946  21.127   3.207
25847W        W97376   8.895   0.917  11.622
25848W        W97377  14.218  42.839   4.589
25849W        W97378  30.490   4.300  14.129
25850W        W97379  24.672  13.634   3.760
25851W        W97380   5.390  40.270   2.194
25852W        W97381  26.349  29.412   5.062
25853W        W97382   3.732  17.113   0.358
25854W        W97383  18.425   0.768  13.364
25855W        W97384  27.214  10.158  12.301
25856W        W97385  35.248  34.812  12.469
25857W        W97386  24.406  28.717  12.924
25858W        W97387   9.468  28.161  10.614
25859W        W97388  43.860   9.445   4.709
25860W        W97389  15.715  26.017   4.173
25861W        W97390  19.794  34.783   0.334
25862W        W97391  29.209   1.391  13.970
25863W        W97392  18.254  41.203   0.622
25864W        W97393  24.686  40.566  14.750
25865W        W97394   6.804  17.551  11.152
25866W        W97395   4.684   8.687  10.669
25867W        W97396   2.313   3.731   0.506
25868W        W97397  12.717   9.934   1.266
25869W        W97398  19.624   7.476  12.493
25870W        W97399  23.065  26.249  14.483
25871W        W97400  11.825  35.609  12.586
25872W        W97401   3.765  42.035   1.453
25873W        W97402  44.868  18.011  12.589
25874W        W97403   4.525  35.029  10.552
25875W        W97404  20.347  38.893   0.936
25876W        W97405  29.522  11.046   0.229
25877W        W97406  38.979  15.298  14.003
25878W        W97407   6.637  15.109  12.491
25879W        W97408   8.284  10.907  13.303
25880W        W97409  33.529  30.296   1.788
25881W        W97410  44.710  27.571   4.572
25882W        W97411  44.785  40.763   1.817
25883W        W97412  19.089  34.128  13.077
25884W        W97413  28.716  16.108   4.515
25885W        W97414  31.576   6.962  12.949
25886W        W97415  34.575  21.015   1.270
25887W        W97416  28.534   7.451  11.483
25888W        W97417  30.421  23.734   4.101
25889W        W97418  10.598   0.800  12.947
25890W        W97419  38.072  21.546  14.861
25891W        W97420   6.376  27.887   2.039
25892W        W97421   3.269  12.625   1.198
25893W        W97422   9.343  39.968  10.688
25894W        W97423  44.523  39.533   1.770
25895W        W97424  23.690  23.788  11.445
25896W        W97425   6.651   0.975   0.378
25897W        W97426  11.207   1.946  13.741
25898W        W97427   0.607  19.804   4.194
25899W        W97428  14.715  35.970   5.173
25900W        W97429  19.059   2.801   2.851
25901W        W97430  12.574   4.492   1.699
25902W        W97431   1.281  30.110   0.471
25903W        W97432  41.501  12.225   0.176
25904W        W97433   5.414   9.713   0.878
25905W        W97434  36.400  12.811   4.480
25906W        W97435   0.316  44.766  14.370
25907W        W97436   1.302  35.835   2.251
25908W        W97437  23.990  20.483   1.528
25909W        W97438  25.801  15.612  13.415
25910W        W97439   9.877  12.427  11.593
25911W        W97440   4.806  29.609   2.597
25912W        W97441  15.366  41.029   4.496
25913W        W97442  15.715  29.972   4.175
25914W        W97443   1.414  32.971   1.276
25915W        W97444  14.137  44.691   2.755
25916W        W97445   7.711   0.568  11.021
25917W        W97446   7.732  23.843   4.555
25918W        W97447  29.692  22.159  14.811
25919W        W97448  30.735   8.316   1.318
25920W        W97449  11.265  44.946  13.881
25921W        W97450   4.827   4.854   4.551
25922W        W97451  41.987   4.786  11.792
25923W        W97452  25.608  39.266  10.728
25924W        W97453  43.348   8.998   4.601
25925W        W97454  35.828  17.505   0.580
25926W        W97455  38.160  10.680   1.331
25927W        W97456  35.399  10.292   2.433
25928W        W97457   0.425   9.686  11.449
25929W        W97458  23.742  43.467  10.995
25930W        W97459  27.311   5.686  10.703
25931W        W97460  27.585   5.482  11.123
25932W        W97461  19.275  15.554   4.996
25933W        W97462  42.579   6.770   1.252
25934W        W97463   2.165  37.386  13.566
25935W        W97464  27.664  37.243   3.998
25936W        W97465   6.967  31.976   4.261
25937W        W97466   6.615  27.603  12.067
25938W        W97467  44.438   1.728  11.339
25939W        W97468  30.081   4.352   3.788
25940W        W97469   9.638   2.415   2.352
25941W        W97470  39.270  30.923   1.084
25942W        W97471  25.380   5.985  14.854
25943W        W97472   8.481  22.632   1.904
25944W        W97473  10.194  39.217  11.931
25945W        W97474  31.920  19.274   0.014
25946W        W97475  44.873   0.402  14.401
25947W        W97476   5.998   2.790  11.559
25948W        W97477  15.201  40.857   0.772
25949W        W97478  16.112  33.556   0.878
25950W        W97479  41.925  33.732  14.123
25951W        W97480  17.637  40.589   0.910
25952W        W97481  42.078   3.053  12.019
25953W        W97482  20.162  14.193   0.956
25954W        W97483   7.328   8.817  11.227
25955W        W97484  19.222  32.478   1.727
25956W        W97485   8.106   5.849  14.762
25957W        W97486  22.242  17.579  12.411
25958W        W97487   6.337  20.961  13.421
25959W        W97488  16.415  16.585   4.310
25960W        W97489  15.227  35.531  14.434
25961W        W97490   9.734  43.194   1.654
25962W        W97491  34.911  24.530  10.802
25963W        W97492  28.959  21.747   2.951
25964W        W97493  18.907  41.488   4.971
25965W        W97494   1.597   1.782  11.124
25966W        W97495  13.233  25.064   3.714
25967W        W97496  35.921   8.701   3.704
25968W        W97497  10.255  20.224  12.334
25969W        W97498  38.778  24.859  14.955
25970W        W97499  22.117  26.471  12.386
25971W        W97500  43.968  28.412   3.612
25972W        W97501  17.304  14.138  11.219
25973W        W97502  32.522  10.295   2.801
25974W        W97503  26.029   8.457   1.895
25975W        W97504  28.286  35.846  13.448
25976W        W97505  43.866  23.305   4.597
25977W        W97506  18.812  40.638   0.284
25978W        W97507  25.140  19.480   3.119
25979W        W97508  37.102   8.161   0.078
25980W        W97509   6.158  11.196   3.597
25981W        W97510  32.624   9.387   4.840
25982W        W97511  14.892  36.920   3.234
25983W        W97512  43.805  22.040   3.372
25984W        W97513  21.008  26.905   3.648
25985W        W97514   9.637  28.977   3.863
25986W        W97515  18.340  31.493   2.254
25987W        W97516  12.265  24.503  10.690
25988W        W97517  37.594   9.558  10.571
25989W        W97518  20.699  12.043  14.076
25990W        W97519  42.757  41.801  13.491
25991W        W97520  10.702  18.735  10.970
25992W        W97521  23.204  18.044   3.224
25993W        W97522  11.561  24.764   3.978
25994W        W97523  21.520  30.538   0.347
25995W        W97524  10.395  16.745   0.528
25996W        W97525   6.868  42.351  14.984
25997W        W97526  14.620  30.091  13.911
25998W        W97527  39.615   9.699   2.468
25999W        W97528  42.566   8.040   2.253
26000W        W97529  36.338  34.308   1.564
26001W        W97530  41.854  35.371   1.371
26002W        W97531   0.735  37.433  14.913
26003W        W97532  37.325   8.414  12.016
26004W        W97533  16.825  13.358   1.378
26005W        W97534  17.720  11.166   3.164
26006W        W97535  28.430  17.736  13.289
26007W        W97536   8.743   0.997   1.360
26008W        W97537  13.073  36.543   0.312
26009W        W97538  29.511  27.105   0.298
26010W        W97539  28.483  38.438  10.468
26011W        W97540  36.047   0.005  12.963
26012W        W97541  18.888   6.843   4.625
26013W        W97542  14.090  33.637  14.028
26014W        W97543  14.380  15.230   1.866
26015W        W97544  33.402  12.188   3.293
26016W        W97545  12.690  12.407   4.100
26017W        W97546  32.839  27.900  14.351
26018W        W97547   8.086  36.872   2.388
26019W        W97548  26.075   1.023   4.569
26020W        W97549  33.073  24.183  13.772
26021W        W97550  41.547  10.027   3.362
26022W        W97551  17.610  13.880  12.423
26023W        W97552   0.835  25.556   1.865
26024W        W97553  10.658  41.301  10.710
26025W        W97554  34.601  21.519   4.288
26026W        W97555  21.976  23.532  13.885
26027W        W97556  39.894  35.585  10.876
26028W        W97557  19.089  40.832  11.027
26029W        W97558  30.777  19.251  14.582
26030W        W97559  40.451  18.028  12.071
26031W        W97560  21.654  31.422  11.155
26032W        W97561   8.341  13.843   3.314
26033W        W97562  27.614  21.885   3.893
26034W        W97563  18.274  44.503  11.650
26035W        W97564   9.271  31.413  12.398
26036W        W97565  39.545  15.637   0.407
26037W        W97566  27.738  18.264  11.232
26038W        W97567  18.820   2.842  12.401
26039W        W97568  25.618   0.327   4.411
26040W        W97569   2.330  12.615  13.601
26041W        W97570  30.100  40.810  11.593
26042W        W97571   2.322  28.853   0.919
26043W        W97572  16.068  33.079   2.200
26044W        W97573  28.147  31.468   4.631
26045W        W97574  20.671  35.371   1.300
26046W        W97575  34.374  40.509   1.321
26047W        W97576  10.905  32.659   3.220
26048W        W97577  30.599  10.260  12.871
26049W        W97578  22.931  14.214  11.565
26050W        W97579   2.672  25.237   5.084
26051W        W97580  27.885   9.163   3.379
26052W        W97581  43.196  35.681   3.443
26053W        W97582  37.075  19.139   3.227
26054W        W97583  42.518   6.190  11.052
26055W        W97584  21.184  38.270   0.631
26056W        W97585  36.838  26.217   1.324
26057W        W97586  44.045  40.001   2.885
26058W        W97587  21.018   1.986  12.105
26059W        W97588  21.512  12.893   2.204
26060W        W97589  13.860  24.044  14.840
26061W        W97590  19.968  23.793   3.709
26062W        W97591  14.327  26.477   4.999
26063W        W97592  26.170  15.775  14.961
26064W        W97593  24.815  27.648   0.701
26065W        W97594  12.601  14.229   0.070
26066W        W97595  41.636  28.980  11.175
26067W        W97596  10.604  22.128   3.601
26068W        W97597  43.018  24.269   4.213
26069W        W97598  33.649  14.813   0.916
26070W        W97599  44.853  24.850  13.342
26071W        W97600   0.234  44.469   0.338
26072W        W97601  27.186  16.990  12.838
26073W        W97602  26.014   6.628   1.330
26074W        W97603  14.672  34.386   4.103
26075W        W97604  27.714  23.488   4.595
26076W        W97605  42.554  34.874  13.850
26077W        W97606   0.763  30.444  14.443
26078W        W97607  27.983   3.203   2.679
26079W        W97608  36.417   3.600  11.637
26080W        W97609  35.487  33.632  12.924
26081W        W97610   4.400  25.507  12.066
26082W        W97611  41.379  18.339   0.849
26083W        W97612  21.723  30.714   2.225
26084W        W97613  28.918  17.102  13.401
26085W        W97614  26.899   3.815   2.412
26086W        W97615  17.698  22.622  12.213
26087W        W97616   5.782   3.640   4.936
26088W        W97617  28.155  11.376   3.107
26089W        W97618   6.873  27.653   3.337
26090W        W97619   7.282   5.785  10.797
26091W        W97620  25.150   3.242   2.286
26092W        W97621  36.298  27.951   2.779
26093W        W97622   5.428  22.241   4.510
26094W        W97623   6.554   6.059   3.206
26095W        W97624   7.289  42.408  13.549
26096W        W97625  36.264  12.328   0.352
26097W        W97626  19.597  34.149  14.947
26098W        W97627   0.009   1.250   0.027
26099W        W97628  16.542  11.283   2.720
26100W        W97629  43.267  44.495   0.540
26101W        W97630   4.377   3.386   4.031
26102W        W97631  20.374  16.355  10.889
26103W        W97632  42.785   2.948  13.012
26104W        W97633  42.445  15.603   1.841
26105W        W97634  37.012   5.176   2.327
26106W        W97635  37.155  10.882   1.416
26107W        W97636  21.032  21.261   2.576
26108W        W97637   5.740  39.276  11.938
26109W        W97638   6.846  11.474   3.293
26110W        W97639   5.771   9.275  14.961
26111W        W97640   8.830  44.346   3.240
26112W        W97641   0.178  30.109  11.111
26113W        W97642  39.872  42.209  14.503
26114W        W97643  22.169  10.116   4.436
26115W        W97644  35.916  10.819  13.367
26116W        W97645  22.111   1.279  13.905
26117W        W97646  10.491   7.726  13.308
26118W        W97647  22.787   1.305   3.308
26119W        W97648  10.666  32.320  12.432
26120W        W97649  20.210   0.207   4.602
26121W        W97650  30.708  19.276   2.390
26122W        W97651  11.883  40.873   2.375
26123W        W97652  22.074  31.826   2.762
26124W        W97653  36.828  17.400   3.421
26125W        W97654  12.121  23.995   2.774
26126W        W97655  24.667  32.950   4.313
26127W        W97656  25.601  21.782   0.276
26128W        W97657   5.390  18.994  12.360
26129W        W97658  21.252  29.439  12.084
26130W        W97659  35.382  24.176  14.222
26131W        W97660   0.762  17.282   2.879
26132W        W97661   2.643  39.942  12.930
26133W        W97662  34.692  14.856   1.993
26134W        W97663   9.975  11.207  11.926
26135W        W97664  13.360  36.418  14.512
26136W        W97665  39.103  42.795  14.984
26137W        W97666  34.417  40.629  13.095
26138W        W97667  13.494  38.771   1.167
26139W        W97668  43.182  37.535   4.321
26140W        W97669   1.988   5.254   2.809
26141W        W97670   9.256  33.652  12.474
26142W        W97671  25.304  10.897   0.555
26143W        W97672  42.258  18.660  10.670
26144W        W97673  36.174  28.676   0.339
26145W        W97674  35.375  11.208   3.383
26146W        W97675   7.115  44.744  12.546
26147W        W97676  26.458  13.723   1.860
26148W        W97677  43.275  21.068   4.507
26149W        W97678  18.364  36.065  14.017
26150W        W97679  25.636  26.065   2.475
26151W        W97680  27.601  25.711   3.582
26152W        W97681  13.806  40.851  14.168
26153W        W97682   9.848   6.397   0.790
26154W        W97683  40.601  42.981  12.178
26155W        W97684  27.872  26.160   0.319
26156W        W97685  33.134  33.194   2.464
26157W        W97686  43.512   9.624   0.235
26158W        W97687  13.118  29.265   0.382
26159W        W97688   5.407  27.615  14.257
26160W        W97689   7.911  29.169   1.307
26161W        W97690  31.650  30.122  13.359
26162W        W97691   1.291   1.886  14.476
26163W        W97692  33.866  10.876  13.475
26164W        W97693  33.637  44.696  10.177
26165W        W97694  27.407  40.059   3.963
26166W        W97695  20.080  27.940  11.425
26167W        W97696   0.395  25.956   0.503
26168W        W97697  12.077   3.450   0.756
26169W        W97698  22.746  23.511   1.611
26170W        W97699  20.550  13.761  11.531
26171W        W97700   8.850  39.916  12.902
26172W        W97701  38.301  17.747  13.458
26173W        W97702  43.844   6.539  13.097
26174W        W97703  17.330   1.282  14.047
26175W        W97704   3.841  13.058  12.477
26176W        W97705  42.359  43.406   3.698
26177W        W97706  30.205  23.236  11.715
26178W        W97707   2.829  25.595  11.095
26179W        W97708  27.496  16.041   4.171
26180W        W97709  17.050  12.351  14.350
26181W        W97710  29.489   2.182   4.345
26182W        W97711  16.518  27.939   3.657
26183W        W97712  28.709   0.259  13.232
26184W        W97713  11.911  17.354  13.446
26185W        W97714  43.834  43.391   1.411
26186W        W97715  21.849  33.807   0.901
26187W        W97716  18.862  19.987  14.887
26188W        W97717   6.634  10.514   4.237
26189W        W97718  24.802  10.785  11.849
26190W        W97719  15.279  13.802  14.059
26191W        W97720  16.804  22.783  13.432
26192W        W97721   8.123  29.656  13.099
26193W        W97722  23.474  36.012  11.744
26194W        W97723  25.014  36.864  12.884
26195W        W97724  16.307  15.327  11.507
26196W        W97725  24.733  35.987  10.984
26197W        W97726  19.771  40.550   1.282
26198W        W97727  10.700  39.054  12.135
26199W        W97728   6.772  17.580   3.357
26200W        W97729  36.063   2.883  12.181
26201W        W97730   4.378  20.733  13.478
26202W        W97731   4.264  13.162   3.735
26203W        W97732  44.078  41.457   4.094
26204W        W97733   9.614  32.581  11.694
26205W        W97734   6.895  19.930   3.574
26206W        W97735  12.611  41.033   4.611
26207W        W97736  38.356  30.066   2.726
26208W        W97737  11.551  12.695  12.279
26209W        W97738  27.639  44.947   2.368
26210W        W97739   4.202  34.687   0.975
26211W        W97740  21.072  27.165  10.902
26212W        W97741   5.154  15.873   3.275
26213W        W97742  34.641  37.891  14.023
26214W        W97743  38.199   3.065   2.584
26215W        W97744  32.841  28.512   9.593
26216W        W97745   6.796  41.676   1.729
26217W        W97746   7.173  18.781   1.398
26218W        W97747  37.472  26.323  11.597
26219W        W97748   3.348  43.882   2.196
26220W        W97749  31.505  38.868  11.180
26221W        W97750   7.350   8.300  14.473
26222W        W97751   7.475  37.604  11.171
26223W        W97752  12.807  25.134   4.024
26224W        W97753  35.052   2.749  11.944
26225W        W97754  39.048  16.254   3.156
26226W        W97755  33.709  16.665  13.931
26227W        W97756  12.195  34.034  14.651
26228W        W97757  42.227   4.667  13.116
26229W        W97758  23.212  34.417   0.343
26230W        W97759  22.675  39.526  13.094
26231W        W97760  16.549   4.216  14.013
26232W        W97761  20.640  12.892   2.674
26233W        W97762  27.722   4.737   2.287
26234W        W97763   8.033  37.495   3.907
26235W        W97764  38.993   4.786  14.380
26236W        W97765  32.340  36.426  12.149
26237W        W97766   9.195  39.526  13.721
26238W        W97767  19.144   1.059  10.571
26239W        W97768  31.611  35.461  13.116
26240W        W97769  39.258  44.815  10.858
26241W        W97770  18.719  27.991   4.451
26242W        W97771  25.247  21.742   1.383
26243W        W97772  37.919  16.330   4.774
26244W        W97773   9.999  34.379   3.163
26245W        W97774  34.046  25.178   0.216
26246W        W97775   3.698  14.796  10.583
26247W        W97776  20.329  43.019   4.613
26248W        W97777   1.426  37.927  12.151
26249W        W97778  43.463  25.099   4.630
26250W        W97779  42.065  16.527   4.229
26251W        W97780  41.203  10.133  13.245
26252W        W97781   2.690  22.584   0.029
26253W        W97782   4.786  33.753  10.701
26254W        W97783   3.888  15.241  12.283
26255W        W97784  34.319   2.153  12.048
26256W        W97785  23.408  14.505  13.922
26257W        W97786   0.400   7.424   2.340
26258W        W97787  26.674  18.236   3.223
26259W        W97788  10.118  39.177  10.440
26260W        W97789  25.113  17.292  11.034
26261W        W97790  44.350   8.388   2.460
26262W        W97791  29.333  43.839  13.565
26263W        W97792  37.440  27.927   0.705
26264W        W97793  18.244   5.611  12.916
26265W        W97794  19.072  29.683  13.987
26266W        W97795  18.235  21.076   0.067
26267W        W97796  26.596  27.445   0.294
26268W        W97797  30.140  33.892   2.843
26269W        W97798  44.329  17.705  11.898
26270W        W97799  26.265  31.594  11.974
26271W        W97800   5.914  41.431  13.816
26272W        W97801  42.465   0.696  13.927
26273W        W97802  37.584  13.167   5.088
26274W        W97803  29.508  33.571  11.595
26275W        W97804  31.890  36.661  14.376
26276W        W97805   9.610  24.690   4.909
26277W        W97806   7.875  17.699   3.240
26278W        W97807  21.549  10.347   1.449
26279W        W97808  33.680  22.608   2.681
26280W        W97809   5.735  34.050  12.614
26281W        W97810   8.791  41.225  14.088
26282W        W97811   5.198  12.601  13.425
26283W        W97812  29.140  23.576   3.290
26284W        W97813  30.141   4.743  11.316
26285W        W97814  32.437  17.515  11.400
26286W        W97815  11.261  10.184   3.631
26287W        W97816  25.304  19.943   3.316
26288W        W97817  17.816  18.590   2.825
26289W        W97818  19.972  28.462  11.092
26290W        W97819  29.922  12.938  11.562
26291W        W97820  29.854  16.777  12.795
26292W        W97821  43.801  41.030  11.230
26293W        W97822  12.651  13.792   4.792
26294W        W97823  34.430  15.267   3.988
26295W        W97824   9.666  43.802  12.415
26296W        W97825  14.049  34.431   3.378
26297W        W97826  26.937  43.450  14.821
26298W        W97827   9.862  39.921  11.999
26299W        W97828  11.441  39.160   5.129
26300W        W97829  21.434  27.136  13.942
26301W        W97830  30.178  25.709   3.909
26302W        W97831   7.653  42.410   4.631
26303W        W97832  14.336  27.817  14.486
26304W        W97833   6.840  38.940   0.136
26305W        W97834   4.850  38.591  10.800
26306W        W97835  10.760  38.639  13.166
26307W        W97836  29.877   7.363   4.650
26308W        W97837  40.790   0.694  14.728
26309W        W97838   7.500  37.577   0.924
26310W        W97839  29.156  44.303   2.259
26311W        W97840   6.243   3.355  12.874
26312W        W97841  30.511  23.200  14.251
26313W        W97842  40.923  34.144  13.097
26314W        W97843  19.456   0.254  12.514
26315W        W97844  11.116  30.864  14.237
26316W        W97845  25.252  25.578   0.028
26317W        W97846  24.503  21.688  12.203
26318W        W97847  15.609  20.395   1.740
26319W        W97848  12.047  42.797  11.623
26320W        W97849  44.802  17.756  11.682
26321W        W97850   9.689  23.795   0.377
26322W        W97851  20.793  37.450   0.279
26323W        W97852   7.312  29.925  14.922
26324W        W97853  43.996  32.520   0.860
26325W        W97854  13.181  24.282  14.450
26326W        W97855   8.672  44.812   0.351
26327W        W97856  31.933  13.288   2.886
26328W        W97857  15.838  31.915  12.579
26329W        W97858  36.033  17.255  14.710
26330W        W97859  25.580  13.821   3.687
26331W        W97860  21.227  44.950  11.921
26332W        W97861  36.977  35.109   2.697
26333W        W97862  32.947  21.528   1.385
26334W        W97863  21.344  41.420   0.879
26335W        W97864  29.969  28.591  11.516
26336W        W97865  36.386  43.222   4.590
26337W        W97866  32.644  40.981   4.383
26338W        W97867   0.381   9.455  13.346
26339W        W97868  10.221   3.713  13.802
26340W        W97869  39.060  14.586  14.476
26341W        W97870  34.527   4.340   2.993
26342W        W97871   5.050  21.500   2.203
26343W        W97872  10.765  21.026  14.488
26344W        W97873   5.313  25.927   3.374
26345W        W97874  21.303  13.656   1.920
26346W        W97875  14.163   3.165  14.096
26347W        W97876  25.148  10.296   2.321
26348W        W97877  38.285  28.633   3.662
26349W        W97878   6.159  15.262  14.826
26350W        W97879   5.904   6.831  14.968
26351W        W97880  14.876   4.726   3.759
26352W        W97881  31.088  10.822   1.949
26353W        W97882  30.691  34.745   3.168
26354W        W97883   5.366  38.866   2.329
26355W        W97884  30.537  34.227  12.505
26356W        W97885  30.679  28.467   0.356
26357W        W97886  11.323   9.406   0.798
26358W        W97887   5.686  12.031   4.642
26359W        W97888  11.290  13.312   1.321
26360W        W97889   6.879  33.041  12.136
26361W        W97890  18.673   1.924   1.628
26362W        W97891  18.404   8.251  11.662
26363W        W97892  38.113  34.510  14.970
26364W        W97893  40.851   4.716   3.727
26365W        W97894  21.790  35.946  13.734
26366W        W97895  19.768  15.361   2.872
26367W        W97896  16.594   9.646   2.947
26368W        W97897   8.904   3.220  10.716
26369W        W97898  39.837   2.865  11.542
26370W        W97899  19.536  14.680  14.903
26371W        W97900  41.074   8.746   1.386
26372W        W97901   3.870  18.021   3.117
26373W        W97902  20.031  15.640  13.747
26374W        W97903   0.492   0.246  11.730
26375W        W97904   8.048  30.728   4.984
26376W        W97905  29.995  37.609  12.510
26377W        W97906  37.516  19.833  14.881
26378W        W97907   1.015  42.198   3.680
26379W        W97908   7.514  37.535   4.572
26380W        W97909  38.325  21.692  13.934
26381W        W97910  28.380   6.361   4.812
26382W        W97911  21.058  37.353   2.001
26383W        W97912  22.137  25.030  12.172
26384W        W97913  15.454  26.950  12.032
26385W        W97914   3.775  40.554   1.864
26386W        W97915  16.030  14.649  12.513
26387W        W97916  41.542  18.713   1.936
26388W        W97917  24.048   2.875   3.821
26389W        W97918  38.300   3.129  12.586
26390W        W97919  31.425  36.605  10.598
26391W        W97920  32.078  15.293   3.824
26392W        W97921  36.630   4.988  10.778
26393W        W97922  25.555   6.813   3.443
26394W        W97923  30.572  33.982  13.968
26395W        W97924  33.900  38.050   4.830
26396W        W97925  31.153  44.936  13.044
26397W        W97926  18.786  10.563   2.725
26398W        W97927  11.655  34.918   0.549
26399W        W97928  12.604  22.524   0.270
26400W        W97929   3.267  17.065  12.182
26401W        W97930   4.308  22.917  14.937
26402W        W97931   8.107   1.684  13.415
26403W        W97932  13.252  27.597   2.151
26404W        W97933  19.892  23.738   2.389
26405W        W97934  23.995  38.117   2.962
26406W        W97935  39.276  20.281   0.849
26407W        W97936  41.111  26.381  12.064
26408W        W97937  43.332   6.906   2.694
26409W        W97938   7.698  44.493   0.968
26410W        W97939  41.318  43.328  14.830
26411W        W97940  14.445  13.693  10.773
26412W        W97941  28.693  40.491  12.450
26413W        W97942  41.376  19.376  14.378
26414W        W97943  16.619  10.634  10.887
26415W        W97944  33.893  18.440   4.273
26416W        W97945   6.226  11.184   1.757
26417W        W97946   0.485  44.069   0.558
26418W        W97947  10.774   6.812   0.346
26419W        W97948  10.593  35.409   0.725
26420W        W97949  33.874  33.543  12.105
26421W        W97950  43.407  39.336   3.574
26422W        W97951  22.932  24.222  13.373
26423W        W97952  34.505   7.704   4.047
26424W        W97953  16.199  30.943  13.798
26425W        W97954  21.047  15.962  11.507
26426W        W97955  13.506  40.918   4.561
26427W        W97956   4.719  27.205   5.037
26428W        W97957  12.859  39.974   3.746
26429W        W97958  39.530  39.398   4.613
26430W        W97959  22.187  29.538   0.654
26431W        W97960  18.198  23.050   4.584
26432W        W97961  15.287  33.460  12.502
26433W        W97962  36.110  17.913   1.849
26434W        W97963  15.408   7.966  11.127
26435W        W97964   4.691  33.547  13.945
26436W        W97965  13.230  13.074  10.641
26437W        W97966   9.327  33.973   2.160
26438W        W97967  41.623  30.283   1.908
26439W        W97968   1.870  38.161  12.011
26440W        W97969  27.919  43.501  14.589
26441W        W97970   8.592  18.334   3.105
26442W        W97971  33.220  32.654  10.621
26443W        W97972  44.677  17.326  12.009
26444W        W97973  28.018  13.800  14.441
26445W        W97974   7.446  44.449   2.285
26446W        W97975  15.732  17.226  10.313
26447W        W97976  18.161  31.203   5.673
26448W        W97977  14.336  27.798   1.309
26449W        W97978  30.051   0.811   3.916
26450W        W97979  11.178  31.832   1.901
26451W        W97980  39.808   3.260   0.533
26452W        W97981  39.360  43.592   0.551
26453W        W97982  15.735  14.686  14.550
26454W        W97983   7.291  29.617  11.270
26455W        W97984  44.986  19.423  13.431
26456W        W97985  40.264  29.696   3.556
26457W        W97986   9.404  44.873   3.289
26458W        W97987   7.829  16.600   2.878
26459W        W97988  14.592  27.669  11.094
26460W        W97989  12.550  41.335   1.416
26461W        W97990  38.483  40.358   1.911
26462W        W97991  33.473  29.196  13.103
26463W        W97992   4.319   3.495   2.961
26464W        W97993  39.049  15.172  12.246
26465W        W97994  30.695  35.322  10.280
26466W        W97995  38.906  41.043  12.587
26467W        W97996  27.145  44.353   2.320
26468W        W97997  29.489  10.881   2.330
26469W        W97998  31.977  28.430   1.803
26470W        W97999  40.559  38.145  13.163
26471W        W98000   5.115   8.426   5.035
26472W        W98001  19.197  39.048   4.960
26473W        W98002  16.929  35.461   3.207
26474W        W98003  43.062  23.089   3.453
26475W        W98004  27.972  40.588   9.956
26476W        W98005   8.392  22.960   3.206
26477W        W98006  29.887  17.674   0.858
26478W        W98007  32.692  16.641   1.728
26479W        W98008   4.866  16.642  10.628
26480W        W98009  24.024   2.203  12.006
26481W        W98010  31.375  16.361  13.955
26482W        W98011  39.342  44.812  11.361
26483W        W98012  43.592  37.112  11.041
26484W        W98013  32.423  22.570   0.914
26485W        W98014  28.421   5.958   4.042
26486W        W98015   1.850  34.946   5.098
26487W        W98016  28.156  15.717   0.782
26488W        W98017   3.552   2.319  14.107
26489W        W98018   6.718  10.256   1.880
26490W        W98019  27.281  34.713  11.526
26491W        W98020  15.124  12.381  14.329
26492W        W98021  23.634  27.569  14.429
26493W        W98022  38.602  31.939   4.556
26494W        W98023  12.115   1.321  14.909
26495W        W98024  43.763   0.340   0.334
26496W        W98025  39.948   0.096   0.516
26497W        W98026  35.221  39.855  14.417
26498W        W98027   7.731  13.715  11.729
26499W        W98028  24.608   7.753   4.566
26500W        W98029  10.837   7.193   0.814
26501W        W98030  13.415  26.074   2.997
26502W        W98031  33.667  23.719   1.725
26503W        W98032  11.117   4.951  11.171
26504W        W98033  35.133  20.585   3.639
26505W        W98034  24.289  42.527   1.000
26506W        W98035  23.618  36.933   1.647
26507W        W98036  29.177  38.893  12.783
26508W        W98037  40.447  44.444   1.647
26509W        W98038   2.947  31.819   2.778
26510W        W98039  26.856  42.972   1.802
26511W        W98040  30.027  42.936  10.927
26512W        W98041   2.076   1.991   3.411
26513W        W98042   2.142   3.892   1.787
26514W        W98043  10.232   8.631   4.018
26515W        W98044  27.724  26.240   3.131
26516W        W98045   9.940  25.935   4.171
26517W        W98046  37.245   3.294  13.847
26518W        W98047  22.796   8.821  11.618
26519W        W98048  17.498   9.806   1.403
26520W        W98049  31.500  21.376   4.113
26521W        W98050   4.947   7.748   0.025
26522W        W98051  12.582  24.850  11.927
26523W        W98052  26.165  16.276  14.958
26524W        W98053  22.435  25.592   3.719
26525W        W98054  40.545  31.065  12.378
26526W        W98055  44.685  39.869   2.133
26527W        W98056  42.468  31.691  11.125
26528W        W98057   6.341  16.629  14.500
26529W        W98058  10.855  30.824  12.077
26530W        W98059   7.075  17.702  11.619
26531W        W98060   5.958  20.589   0.765
26532W        W98061  27.959  24.149  13.537
26533W        W98062  40.074  36.969   0.978
26534W        W98063   7.189  14.327   2.734
26535W        W98064   8.630   5.277   0.952
26536W        W98065  42.026  21.517  11.016
26537W        W98066   9.582  19.804   1.432
26538W        W98067  15.347  18.115   1.915
26539W        W98068  33.176  25.041  11.682
26540W        W98069   4.480  19.134  14.271
26541W        W98070  12.223   4.456  12.464
26542W        W98071  24.863   2.836  14.880
26543W        W98072  14.612  29.607   3.273
26544W        W98073   2.505  19.545  12.605
26545W        W98074   5.047  29.727  14.772
26546W        W98075  10.671  37.830   4.073
26547W        W98076  44.766  37.315  14.078
26548W        W98077  25.190  43.799   1.303
26549W        W98078  34.553  44.372   0.896
26550W        W98079   0.679  31.040  14.124
26551W        W98080  23.870  22.583  10.405
26552W        W98081  42.820  11.640  11.519
26553W        W98082  20.889  35.231  14.394
26554W        W98083   5.350  32.226   1.676
26555W        W98084  18.555  33.114   3.183
26556W        W98085  11.725  14.839  13.288
26557W        W98086  31.634  22.724  11.696
26558W        W98087  31.905  11.306  14.435
26559W        W98088  37.668   8.970  13.009
26560W        W98089  14.076  35.603  11.272
26561W        W98090  27.470  37.901   2.175
26562W        W98091  19.533  15.588  11.206
26563W        W98092  41.388  35.699   0.771
26564W        W98093  35.975  31.135  14.974
26565W        W98094  36.902   5.581  14.486
26566W        W98095  13.093  41.996  14.489
26567W        W98096  42.825  13.343  12.408
26568W        W98097  41.805  31.216  10.760
26569W        W98098   0.720   0.304   2.972
26570W        W98099  32.998  30.010   4.068
26571W        W98100  37.890   0.020   1.789
26572W        W98101  31.204   6.197  14.371
26573W        W98102  20.602  26.457  14.075
26574W        W98103  14.941  34.972   1.275
26575W        W98104  21.336  11.758   4.504
26576W        W98105  10.657   0.932   0.075
26577W        W98106   8.392  17.610   1.410
26578W        W98107  42.886   2.839   2.902
26579W        W98108  20.610  12.290   1.882
26580W        W98109  39.131  12.898   0.939
26581W        W98110   0.466  10.651   3.395
26582W        W98111  30.632  26.534  14.997
26583W        W98112  32.056   5.942  13.769
26584W        W98113  20.274   1.040   1.259
26585W        W98114  12.674  26.691   2.876
26586W        W98115  44.067  39.066   4.645
26587W        W98116   9.700  27.674   4.663
26588W        W98117   4.140  10.617   2.654
26589W        W98118  19.665  41.149  11.093
26590W        W98119  32.487  23.754   3.464
26591W        W98120  31.674  43.639   4.151
26592W        W98121  44.717  10.702  10.967
26593W        W98122  43.462  29.010  13.292
26594W        W98123  17.786  19.626   3.752
26595W        W98124  12.473  18.946   3.711
26596W        W98125  26.535  28.868   0.400
26597W        W98126  14.731  17.033  13.127
26598W        W98127  20.904   4.063   2.352
26599W        W98128  17.132   2.765   2.226
26600W        W98129  38.220   6.770  11.091
26601W        W98130  19.750  21.721  12.578
26602W        W98131   1.713  34.970   0.362
26603W        W98132   3.230  10.117   0.333
26604W        W98133  42.509   0.782   0.421
26605W        W98134  15.110  35.465   2.771
26606W        W98135   1.484  16.733   0.551
26607W        W98136  41.336   3.710   3.382
26608W        W98137   7.052  15.709  13.494
26609W        W98138  29.928  16.657   2.298
26610W        W98139  29.356  20.383  14.876
26611W        W98140  29.779   9.936   4.728
26612W        W98141  43.299  21.242  11.523
26613W        W98142  38.997  40.316   1.146
26614W        W98143  27.991  34.988   4.411
26615W        W98144  10.753   3.180  10.670
26616W        W98145   8.116   0.225  13.059
26617W        W98146  35.542   4.522   2.800
26618W        W98147  33.739  37.371   1.318
26619W        W98148  36.641  31.853   1.812
26620W        W98149  28.403  11.455  11.404
26621W        W98150  11.830  34.191  12.407
26622W        W98151  20.296   1.391   4.956
26623W        W98152  34.336  18.177   2.394
26624W        W98153  30.689   1.965  10.549
26625W        W98154   7.653  16.561  11.237
26626W        W98155  17.020  40.339  13.616
26627W        W98156  23.288   8.773  12.826
26628W        W98157   5.382  40.033   3.723
26629W        W98158  33.891  38.721  13.399
26630W        W98159   3.516   5.407   2.606
26631W        W98160  26.449   5.365  12.513
26632W        W98161  39.488  16.566  11.356
26633W        W98162  22.206  13.113  12.981
26634W        W98163  23.687  19.778   1.630
26635W        W98164  26.416  22.706  14.624
26636W        W98165   7.309   0.368   4.221
26637W        W98166  32.052  34.532  14.809
26638W        W98167  20.832  24.933   0.235
26639W        W98168  12.279   6.681  13.023
26640W        W98169  34.429  24.726  13.100
26641W        W98170  41.957  27.175   2.978
26642W        W98171  44.787   5.332   3.789
26643W        W98172  24.715  15.094   1.601
26644W        W98173   0.816  38.537  14.471
26645W        W98174  16.062  35.075   3.231
26646W        W98175   0.562  41.472   3.699
26647W        W98176   0.567   0.705  11.532
26648W        W98177   1.511  27.966  11.091
26649W        W98178   0.213  36.293   0.740
26650W        W98179   8.666   6.742   3.499
26651W        W98180   8.115  40.408  14.884
26652W        W98181  44.400   2.960   0.399
26653W        W98182  12.110   9.652  11.739
26654W        W98183  37.476   8.209   5.052
26655W        W98184  38.428  24.401   2.527
26656W        W98185  36.217  33.158   2.329
26657W        W98186   6.246  40.880  13.440
26658W        W98187   5.705  26.009  12.079
26659W        W98188  39.956  43.793   3.623
26660W        W98189   4.848   4.876   3.094
26661W        W98190   7.297  29.172  12.151
26662W        W98191  36.327  27.744   3.284
26663W        W98192  18.638  33.590  10.078
26664W        W98193  10.148  20.583   2.301
26665W        W98194  34.605  25.523  11.597
26666W        W98195  17.659  41.176   4.225
26667W        W98196  18.634  42.516  12.547
26668W        W98197  38.360  31.732   1.389
26669W        W98198  42.477  28.168  13.331
26670W        W98199  28.691  10.386   2.272
26671W        W98200   3.329  21.748  14.335
26672W        W98201   9.123   8.232   1.232
26673W        W98202  39.113   1.354  14.764
26674W        W98203   1.347  38.195  10.392
26675W        W98204  39.139  24.144  14.839
26676W        W98205  42.896  30.625   1.232
26677W        W98206  32.072  13.159   3.384
26678W        W98207  22.036  10.096  12.034
26679W        W98208   1.147  43.311   4.525
26680W        W98209   3.984  26.431  10.804
26681W        W98210  22.480   4.897  13.369
26682W        W98211   6.611   8.677   4.018
26683W        W98212  19.653  40.797   0.520
26684W        W98213  17.313  32.176  13.481
26685W        W98214  19.272  13.678   3.371
26686W        W98215  23.624  34.106   0.424
26687W        W98216  30.891   5.928   9.709
26688W        W98217  14.085  43.747  11.117
26689W        W98218  31.659  10.764   4.678
26690W        W98219  42.227  10.939  11.066
26691W        W98220  37.531  19.255  10.589
26692W        W98221  14.049  12.012  13.988
26693W        W98222  40.130  10.330   3.956
26694W        W98223  41.196  23.488  14.803
26695W        W98224  37.087   5.397   1.860
26696W        W98225  39.864   8.369   2.922
26697W        W98226  30.917  37.721  11.807
26698W        W98227  19.265   6.350   3.748
26699W        W98228  35.125  10.290   0.499
26700W        W98229  18.418  16.533   2.293
26701W        W98230  44.423  29.973  13.947
26702W        W98231  29.923  23.934   4.132
26703W        W98232  41.439  31.424   4.353
26704W        W98233  10.874  42.782   0.311
26705W        W98234  22.577  32.485  11.201
26706W        W98235  33.347  24.325  11.904
26707W        W98236   3.515  17.996  11.979
26708W        W98237  28.882  24.250   3.259
26709W        W98238   9.304  23.479  14.738
26710W        W98239  16.313  24.441   0.635
26711W        W98240  38.531   7.819   1.212
26712W        W98241  39.059  22.174  12.563
26713W        W98242  17.321   9.703   2.333
26714W        W98243  19.695   2.006   0.400
26715W        W98244  15.842  23.565   4.170
26716W        W98245  38.434  16.205   4.863
26717W        W98246  14.730  24.097   1.820
26718W        W98247   2.820  36.358  13.336
26719W        W98248  41.983  43.070  12.409
26720W        W98249  11.208  38.001  13.618
26721W        W98250  34.108  44.394  10.484
26722W        W98251  15.641  31.193   2.335
26723W        W98252  22.989  32.356   2.655
26724W        W98253  24.615  25.748   1.747
26725W        W98254  33.260  15.775   1.705
26726W        W98255   8.650   0.452   3.625
26727W        W98256  37.792   3.025   2.290
26728W        W98257   4.167   1.133   4.196
26729W        W98258  30.383  21.616   0.038
26730W        W98259  25.557  44.365   4.849
26731W        W98260  22.433  18.571  13.982
26732W        W98261  25.989  41.971  14.396
26733W        W98262  29.479   6.480   9.542
26734W        W98263  37.769  26.924   0.326
26735W        W98264  25.160  36.773   4.926
26736W        W98265   9.349  23.577  13.708
26737W        W98266  40.942  35.480   4.216
26738W        W98267  41.851  19.664   2.011
26739W        W98268   3.410  21.581  10.955
26740W        W98269  26.576  36.162  14.753
26741W        W98270   2.441   0.898  14.517
26742W        W98271   2.249  15.653   2.337
26743W        W98272   6.610  36.635  12.849
26744W        W98273  40.032  17.948  13.274
26745W        W98274  18.643  39.340   4.623
26746W        W98275  40.462   3.737   0.246
26747W        W98276   8.913   8.349   0.306
26748W        W98277  24.810  20.670  11.176
26749W        W98278  34.928  43.965  13.835
26750W        W98279   1.785  28.938   1.856
26751W        W98280  20.384   7.652  11.606
26752W        W98281  16.579  37.615  11.905
26753W        W98282  35.661   9.177   2.814
26754W        W98283  44.332  16.233   3.988
26755W        W98284  11.293  13.595  11.531
26756W        W98285  10.572   5.850   1.878
26757W        W98286  42.032  23.746  12.178
26758W        W98287  42.780  22.538  13.193
26759W        W98288  25.530  10.486  12.058
26760W        W98289   9.409  27.939  13.471
26761W        W98290  19.927  36.063  12.101
26762W        W98291  21.510   0.363   2.169
26763W        W98292   3.260  23.630  11.937
26764W        W98293   1.861   1.423  13.001
26765W        W98294   8.342  13.766  10.501
26766W        W98295  11.704   1.487   0.957
26767W        W98296  32.390  30.526  10.325
26768W        W98297  10.812  20.260   0.988
26769W        W98298  40.958  16.553   0.459
26770W        W98299  10.443  24.999   3.696
26771W        W98300  32.547  14.244  14.874
26772W        W98301  19.747   9.829  11.048
26773W        W98302  43.515  25.612  12.889
26774W        W98303  19.180  19.558   1.696
26775W        W98304  32.536  12.739  12.856
26776W        W98305  37.894  28.934  12.168
26777W        W98306  25.445  25.633  11.664
26778W        W98307  10.722  16.631  14.846
26779W        W98308  32.523  15.893  13.646
26780W        W98309  19.241   1.045  13.886
26781W        W98310   5.385  32.489   4.099
26782W        W98311  30.466   7.255   2.863
26783W        W98312  11.550  16.234   3.940
26784W        W98313  27.478  28.308  11.964
26785W        W98314   3.776  38.575   4.619
26786W        W98315  24.615  23.810  14.923
26787W        W98316   0.745   8.189   3.122
26788W        W98317  36.455   1.485   0.202
26789W        W98318  19.165  38.637  11.571
26790W        W98319   3.310  18.179  11.553
26791W        W98320  28.021  36.111  14.779
26792W        W98321   9.146   7.207   4.598
26793W        W98322  36.034   8.926  13.457
26794W        W98323  39.357  30.865  11.813
26795W        W98324   8.748  12.431   4.335
26796W        W98325  22.618   7.316  13.500
26797W        W98326  17.616  26.023   3.698
26798W        W98327  26.981  10.922  10.710
26799W        W98328  15.644   0.058  11.553
26800W        W98329  16.731   0.390  14.937
26801W        W98330  10.457   5.997  14.575
26802W        W98331   3.475  14.857  14.083
26803W        W98332  12.190   1.119   2.166
26804W        W98333  35.355  22.679   4.301
26805W        W98334  33.121   8.324  13.046
26806W        W98335  21.837   0.873  13.533
26807W        W98336  25.241  36.643  13.953
26808W        W98337  13.811   8.938   3.682
26809W        W98338  39.843  39.732  11.782
26810W        W98339  31.916   4.968   0.403
26811W        W98340   0.040   0.009   0.351
26812W        W98341  13.073  33.424   1.685
26813W        W98342  38.482  38.325   3.381
26814W        W98343  22.181   2.483  12.036
26815W        W98344  31.114  26.231   3.384
26816W        W98345  21.271  43.930   2.434
26817W        W98346  18.699   7.106  12.475
26818W        W98347   9.313  16.233  11.958
26819W        W98348   1.411   4.294   3.093
26820W        W98349  16.011   2.019  14.971
26821W        W98350   1.937   2.738   3.596
26822W        W98351   6.258  31.430  11.148
26823W        W98352  35.100  34.925   3.143
26824W        W98353  42.554  36.678  11.618
26825W        W98354  21.443  42.691  12.550
26826W        W98355  35.402  30.070  12.332
26827W        W98356  17.994   1.918  11.601
26828W        W98357  35.479  13.208  13.956
26829W        W98358  24.303  43.407  13.524
26830W        W98359  30.950  27.707   0.739
26831W        W98360   4.789   0.719   1.376
26832W        W98361  13.634  10.410  11.147
26833W        W98362  37.946  38.034  11.713
26834W        W98363  26.880  37.596   2.721
26835W        W98364  35.031   9.890  11.523
26836W        W98365  19.885   5.809  13.421
26837W        W98366  41.358  40.531  13.601
26838W        W98367   5.497   1.670   0.370
26839W        W98368  29.150  27.169  12.430
26840W        W98369  21.244  16.110  13.265
26841W        W98370  18.609  14.160  12.649
26842W        W98371  41.439  39.959  12.403
26843W        W98372  14.340   8.276  12.112
26844W        W98373  17.142   1.640   0.641
26845W        W98374  20.513  29.953  11.837
26846W        W98375  34.594  40.032   0.321
26847W        W98376  18.493  22.365   4.956
26848W        W98377  24.783  39.969   1.736
26849W        W98378  24.953  15.218  11.921
26850W        W98379  15.773   6.927   3.694
26851W        W98380  29.534  26.859  13.257
26852W        W98381   7.377  24.113  14.278
26853W        W98382  41.551  42.068   3.689
26854W        W98383  39.986  16.680  13.902
26855W        W98384  22.133   3.957  13.007
26856W        W98385  27.220  36.392  11.206
26857W        W98386  34.377  30.770  10.693
26858W        W98387   8.830  20.121   3.813
26859W        W98388   4.906  21.501  10.159
26860W        W98389  14.479   7.287  10.714
26861W        W98390   5.953  22.071   0.297
26862W        W98391  38.820  38.959  13.051
26863W        W98392  26.208  21.458  13.841
26864W        W98393  40.777  11.103   3.605
26865W        W98394  32.572  16.746  13.025
26866W        W98395  32.491  32.193  12.880
26867W        W98396  35.329  14.220   3.622
26868W        W98397  21.652  21.606   1.850
26869W        W98398  10.547   6.234   2.247
26870W        W98399  34.265  29.289  13.289
26871W        W98400  24.120  11.349   4.936
26872W        W98401  36.872  28.491  10.620
26873W        W98402  41.786  15.329   1.142
26874W        W98403   0.535  27.847  14.890
26875W        W98404  30.460  18.752   3.651
26876W        W98405  38.573  43.996  14.113
26877W        W98406  17.105   1.173   0.876
26878W        W98407  38.328  19.761   2.186
26879W        W98408   8.120  26.550   0.019
26880W        W98409  17.790   0.307  13.959
26881W        W98410  34.364  22.485   0.904
26882W        W98411  35.847  14.443   2.286
26883W        W98412   3.441  30.724  11.560
26884W        W98413   6.371  41.180  14.683
26885W        W98414  38.483  35.966  12.079
26886W        W98415   7.436  37.557  13.130
26887W        W98416  17.534  17.757   0.462
26888W        W98417  31.849  43.751  11.416
26889W        W98418  23.545  19.626   0.636
26890W        W98419  17.682  11.654   3.266
26891W        W98420  13.829  42.335   4.723
26892W        W98421  15.390  28.168  11.536
26893W        W98422  15.671  10.371  10.683
26894W        W98423  29.076   0.224   4.604
26895W        W98424  20.295  13.218  13.206
26896W        W98425  30.168  20.499  13.860
26897W        W98426   0.737  12.493   0.424
26898W        W98427  37.032  10.180  12.429
26899W        W98428   4.447  21.685   0.713
26900W        W98429  13.793   8.216   1.749
26901W        W98430  33.932  20.201  13.866
26902W        W98431  30.654  32.238   5.275
26903W        W98432  25.885  37.256  11.618
26904W        W98433  28.449  13.770  14.164
26905W        W98434  42.839  32.235   3.360
26906W        W98435   8.330  19.717  11.544
26907W        W98436  43.280   8.491   1.847
26908W        W98437  23.940  44.699  13.856
26909W        W98438  43.323  42.132   3.707
26910W        W98439  40.516   4.137   4.656
26911W        W98440  20.954  37.427   5.189
26912W        W98441  42.416  29.131  14.865
26913W        W98442  42.400  20.498   3.772
26914W        W98443  30.133   9.375  12.520
26915W        W98444   8.195  23.132  11.488
26916W        W98445  38.457  26.658   1.437
26917W        W98446  29.122  23.748   4.564
26918W        W98447  26.035  30.910  13.664
26919W        W98448   5.916   0.901   3.828
26920W        W98449  14.916   8.152  11.002
26921W        W98450  10.917  17.704  13.909
26922W        W98451   8.705   2.971   4.971
26923W        W98452  30.642  14.385  13.828
26924W        W98453   5.546  29.892  14.575
26925W        W98454  25.222   2.700  14.097
26926W        W98455  41.968   9.226  11.099
26927W        W98456  24.548  36.669  14.285
26928W        W98457  38.431  35.055  13.764
26929W        W98458  26.092  10.795   3.478
26930W        W98459  35.486  13.961   4.048
26931W        W98460  31.978  44.576   4.285
26932W        W98461  21.680  37.091   3.163
26933W        W98462  33.983  14.784  11.651
26934W        W98463  26.477  22.328  10.575
26935W        W98464  18.993  17.180   1.275
26936W        W98465  38.912  44.652  14.409
26937W        W98466  12.101  35.395  13.899
26938W        W98467  38.338  11.594   4.029
26939W        W98468  33.579   2.735  11.958
26940W        W98469  21.184  43.198   2.824
26941W        W98470  42.616  11.305  13.575
26942W        W98471  35.088  22.956   0.247
26943W        W98472  43.786  23.033   1.683
26944W        W98473   0.679  20.705  11.559
26945W        W98474  25.711   7.187  14.451
26946W        W98475  20.194  13.110   4.741
26947W        W98476  25.004  13.221  14.046
26948W        W98477  37.575  39.022  10.670
26949W        W98478  23.538  24.336  12.209
26950W        W98479  17.251  17.492   4.287
26951W        W98480  30.744   5.898  11.674
26952W        W98481  22.544  15.261   3.838
26953W        W98482  17.728   1.554  10.517
26954W        W98483  10.358  38.520  13.439
26955W        W98484  44.884  11.127  10.719
26956W        W98485  16.775  36.736   4.015
26957W        W98486  40.257  26.709   2.134
26958W        W98487  35.528   8.316   3.401
26959W        W98488  14.702  43.128  10.417
26960W        W98489  18.494   6.097  13.450
26961W        W98490  31.669  32.850  14.334
26962W        W98491  43.413  38.981   0.351
26963W        W98492  29.521  17.451   3.660
26964W        W98493  12.939  17.628  11.566
26965W        W98494  28.960  38.865   2.184
26966W        W98495   1.942  13.291   0.194
26967W        W98496  21.766  31.605  14.330
26968W        W98497  26.466  37.461  12.994
26969W        W98498  36.148   8.690   1.794
26970W        W98499  31.825  15.330  10.365
26971W        W98500   1.231  18.932   0.714
26972W        W98501  20.054  37.447   3.581
26973W        W98502  25.045  10.176   0.392
26974W        W98503  23.543  25.462  14.456
26975W        W98504  31.437  44.290  12.471
26976W        W98505  21.710  35.183   2.798
26977W        W98506  42.507   0.314  11.148
26978W        W98507  29.251   8.343  14.724
26979W        W98508  33.860  17.711   2.944
26980W        W98509   3.449  35.531   2.699
26981W        W98510  21.708   6.409   2.288
26982W        W98511  26.227   9.249  11.140
26983W        W98512  26.646  32.938  10.182
26984W        W98513  11.440  21.496  14.770
26985W        W98514  24.128   0.964  14.847
26986W        W98515  29.105  10.176  12.469
26987W        W98516  11.264  43.831   2.687
26988W        W98517  31.904  26.562   4.867
26989W        W98518  18.325  44.763   0.938
26990W        W98519   1.284  18.646   1.434
26991W        W98520   0.811  11.879   1.238
26992W        W98521  34.543   7.786  11.665
26993W        W98522   3.780  10.288  11.415
26994W        W98523  29.652  10.622  10.674
26995W        W98524  23.692  15.315  12.958
26996W        W98525  14.328   5.197  14.979
26997W        W98526  26.163  18.274   4.126
26998W        W98527  11.180  22.551   4.620
26999W        W98528  43.098   6.962  13.003
27000W        W98529  19.040  38.296   3.503
27001W        W98530  30.601   3.751  12.559
27002W        W98531  10.157  12.299   3.356
27003W        W98532  43.594  28.307   3.224
27004W        W98533  29.796   6.735   1.972
27005W        W98534  11.854   3.635   1.258
27006W        W98535  22.946  41.973   0.796
27007W        W98536   4.801  34.251  14.781
27008W        W98537  36.804  18.971   4.231
27009W        W98538   1.791  38.899   0.437
27010W        W98539   8.155  38.498  12.904
27011W        W98540   7.807  22.470   4.133
27012W        W98541  26.102  10.885  13.432
27013W        W98542  28.749  40.794   2.227
27014W        W98543   6.199  17.856  10.728
27015W        W98544  36.057  10.913  11.551
27016W        W98545  36.208  16.154   2.939
27017W        W98546  41.937  37.385   1.524
27018W        W98547  31.136  34.242   4.414
27019W        W98548  24.457  27.544   4.225
27020W        W98549  39.841  31.398  14.256
27021W        W98550  35.137  25.025   4.612
27022W        W98551   7.775  13.828  11.210
27023W        W98552   3.892  14.488   1.727
27024W        W98553  25.249  28.474   0.005
27025W        W98554  10.870  10.323  10.734
27026W        W98555  10.168  32.555   1.337
27027W        W98556  23.804  38.043  13.355
27028W        W98557  34.930  24.631   4.871
27029W        W98558  22.152  19.091   3.194
27030W        W98559   1.761  25.745   0.000
27031W        W98560  29.519   2.940  10.570
27032W        W98561  40.039  13.905   0.969
27033W        W98562  11.725  27.110   0.374
27034W        W98563  28.582  11.232  14.852
27035W        W98564   4.823  12.348   4.815
27036W        W98565  42.448  31.059  12.457
27037W        W98566  12.737   2.379  12.630
27038W        W98567  40.680  36.345   0.377
27039W        W98568  14.577  32.460   2.641
27040W        W98569  13.656  33.132  12.050
27041W        W98570  15.674  39.006  14.710
27042W        W98571   9.133  34.610   1.278
27043W        W98572  11.709  12.118  14.762
27044W        W98573  30.533   0.570  13.020
27045W        W98574  24.810  35.002  13.042
27046W        W98575  20.165   0.823  13.017
27047W        W98576  33.657  26.998   3.761
27048W        W98577  26.939  13.641   1.988
27049W        W98578  11.741   9.631   4.275
27050W        W98579  24.038  38.629  13.818
27051W        W98580  14.661  33.536  13.915
27052W        W98581  32.997  25.086  13.766
27053W        W98582  26.716  13.122   0.280
27054W        W98583  20.708  12.028  11.054
27055W        W98584  25.061  28.211   1.875
27056W        W98585  39.718  38.818  12.104
27057W        W98586   5.190   8.508  14.951
27058W        W98587  39.494   3.888  14.804
27059W        W98588   6.811  17.661   0.442
27060W        W98589  19.659   1.264  12.508
27061W        W98590   7.214  36.305   2.439
27062W        W98591  14.629  30.139  11.153
27063W        W98592  22.114   0.781   3.806
27064W        W98593  12.280   7.354   2.383
27065W        W98594  26.591  36.941   2.185
27066W        W98595  13.705  11.451   3.318
27067W        W98596  20.264  23.208   4.537
27068W        W98597   8.763  29.060   1.917
27069W        W98598  37.146  23.780  14.844
27070W        W98599  35.907  12.943   0.847
27071W        W98600   6.024  28.884   2.718
27072W        W98601  38.639  37.344  10.915
27073W        W98602  30.520  22.591   0.935
27074W        W98603  10.845  29.831  14.480
27075W        W98604   8.703  10.831   0.428
27076W        W98605  37.675  11.860   4.523
27077W        W98606  42.518  35.396  12.627
27078W        W98607   2.854   2.865  12.647
27079W        W98608  13.428   7.765  13.797
27080W        W98609  25.660  27.837   1.270
27081W        W98610   7.373   0.996   0.045
27082W        W98611   6.340   7.758  12.048
27083W        W98612  37.684  31.999  14.665
27084W        W98613  28.192  35.379   0.832
27085W        W98614  42.841  13.827  12.629
27086W        W98615  17.476   0.075   2.843
27087W        W98616   1.956   0.082   1.368
27088W        W98617   4.750  33.000  11.949
27089W        W98618   8.824  12.243   1.936
27090W        W98619  23.206  40.942  11.218
27091W        W98620  29.605  11.238   1.193
27092W        W98621  29.389  40.004   3.389
27093W        W98622  33.085  40.591  12.623
27094W        W98623  33.247  29.724  12.487
27095W        W98624  36.082   0.542  11.112
27096W        W98625  32.540  36.516   2.816
27097W        W98626  31.191  17.104   2.570
27098W        W98627  13.815  36.254   0.369
27099W        W98628  42.243   6.002   4.690
27100W        W98629  15.644  34.440   2.866
27101W        W98630  33.159  16.589   3.295
27102W        W98631  20.074  10.681   4.178
27103W        W98632  44.926  43.720  10.562
27104W        W98633   3.458   9.804   4.642
27105W        W98634  21.760  43.509  12.432
27106W        W98635  10.587  41.481  13.463
27107W        W98636  39.966   5.271  11.554
27108W        W98637  30.136  16.117  10.510
27109W        W98638  25.780   0.413  14.889
27110W        W98639  38.255   7.520   4.163
27111W        W98640   4.845  33.846  11.655
27112W        W98641  11.050  29.446   3.141
27113W        W98642  30.749  37.372   4.127
27114W        W98643  17.768  30.584   2.541
27115W        W98644  35.974  30.014   0.629
27116W        W98645  37.548   7.437   2.944
27117W        W98646  16.958  13.244  10.975
27118W        W98647  43.357  27.477   1.840
27119W        W98648  32.218  27.936   2.822
27120W        W98649  42.951   3.899  10.613
27121W        W98650  24.712  18.853   0.763
27122W        W98651  33.394   1.953  12.341
27123W        W98652   4.446  25.182  13.957
27124W        W98653  18.745  41.032   0.623
27125W        W98654  36.168  25.257  13.482
27126W        W98655  30.089  44.551   4.653
27127W        W98656  39.432  22.070  10.291
27128W        W98657   1.160  14.590  12.899
27129W        W98658  36.774   9.727   2.362
27130W        W98659   9.736  20.655   0.246
27131W        W98660  32.500  16.302  13.308
27132W        W98661  19.229  18.045  13.783
27133W        W98662  30.945  40.096   4.553
27134W        W98663  35.461  15.858   2.589
27135W        W98664  22.638   7.126   4.713
27136W        W98665  25.945   2.796  11.997
27137W        W98666  43.968  29.167   2.700
27138W        W98667  35.780  16.367  11.957
27139W        W98668  41.730  30.752   2.273
27140W        W98669   1.552  28.353   3.815
27141W        W98670   4.892   2.306  11.918
27142W        W98671  18.170   1.037   4.941
27143W        W98672   6.894  21.839  13.347
27144W        W98673   8.491  15.626  14.895
27145W        W98674  18.688  20.342   1.236
27146W        W98675  34.616  39.512  11.793
27147W        W98676  22.258   7.234  14.552
27148W        W98677  18.519  42.966  12.942
27149W        W98678  33.435  42.288  10.612
27150W        W98679  22.427   5.885   1.477
27151W        W98680  41.446  44.801  11.042
27152W        W98681  30.162  26.165  14.312
27153W        W98682  15.095  40.017   0.213
27154W        W98683  13.940  38.615  11.159
27155W        W98684  30.602  34.997   2.296
27156W        W98685  14.850  17.056  14.459
27157W        W98686   9.711  10.231   1.178
27158W        W98687   6.260  43.440   2.844
27159W        W98688  36.562  30.805  13.457
27160W        W98689  22.518  22.490  13.455
27161W        W98690  21.695  38.023  14.957
27162W        W98691  44.729  17.195  12.901
27163W        W98692  19.270   6.739  12.974
27164W        W98693  27.776  24.982  11.390
27165W        W98694  38.457  42.261   0.520
27166W        W98695  34.431  26.100  10.727
27167W        W98696  23.968   0.968   2.355
27168W        W98697   6.395  27.892   3.310
27169W        W98698  39.430  30.963   2.633
27170W        W98699  11.761  31.025   1.274
27171W        W98700  40.399  15.670   4.020
27172W        W98701  15.834  43.513  13.988
27173W        W98702  35.682  14.747  12.439
27174W        W98703   6.774   7.164   4.847
27175W        W98704   9.917   2.217   2.737
27176W        W98705  38.530  11.689   1.523
27177W        W98706   3.377  12.158   2.585
27178W        W98707  18.244  41.436   1.438
27179W        W98708  28.592  43.376   3.753
27180W        W98709  36.872  39.453  11.655
27181W        W98710  41.300  44.967  13.973
27182W        W98711   0.996  32.441  10.296
27183W        W98712  25.246   5.685  11.937
27184W        W98713  24.566  34.168  11.589
27185W        W98714  41.395   6.354  14.444
27186W        W98715  24.532  23.466   3.149
27187W        W98716  28.920  43.745   0.991
27188W        W98717  26.265  35.336   3.827
27189W        W98718  30.715  40.809   0.976
27190W        W98719   8.096  30.393  14.656
27191W        W98720  22.146  38.546  14.404
27192W        W98721  20.528  32.639   4.322
27193W        W98722  21.826  23.293  12.900
27194W        W98723  19.146  27.319  13.507
27195W        W98724   7.318  19.167   0.096
27196W        W98725  32.489   7.218   3.160
27197W        W98726   6.191   5.691  11.460
27198W        W98727  26.265  24.284   2.177
27199W        W98728  44.944  24.748  12.715
27200W        W98729  16.871  13.750   1.744
27201W        W98730  38.593  16.000  14.328
27202W        W98731  30.091  11.556  12.004
27203W        W98732  37.660  18.464  13.977
27204W        W98733   7.388  14.787  11.494
27205W        W98734  36.025  19.085   3.794
27206W        W98735   3.489  44.160   4.117
27207W        W98736   6.696   5.290  13.059
27208W        W98737  43.103  16.791  14.298
27209W        W98738   5.290  31.097  12.646
27210W        W98739  16.604  36.579   2.704
27211W        W98740  21.686  11.415   0.540
27212W        W98741  43.635  20.662  12.580
27213W        W98742  25.123  17.089  10.546
27214W        W98743  22.146  23.490   0.778
27215W        W98744  35.433   0.305   4.799
27216W        W98745  13.091  28.564  10.914
27217W        W98746  38.401  33.986  13.784
27218W        W98747  15.666  41.060   1.848
27219W        W98748  15.530  35.605   1.678
27220W        W98749  34.545  34.144   2.256
27221W        W98750  43.902  39.772   0.312
27222W        W98751  15.785   5.895  14.382
27223W        W98752  33.943  18.132  11.409
27224W        W98753  16.080  26.071   1.027
27225W        W98754  41.828  30.984  14.378
27226W        W98755   6.781  23.328   1.725
27227W        W98756   0.211  35.699   4.168
27228W        W98757  17.150  31.501   2.641
27229W        W98758   3.871  13.136   1.655
27230W        W98759  40.478  34.858   1.339
27231W        W98760  35.893  23.695   2.275
27232W        W98761   8.906  19.183  10.270
27233W        W98762  32.426   3.844  13.837
27234W        W98763  30.516  35.604  10.710
27235W        W98764   8.765  25.980  14.609
27236W        W98765  23.570  43.782   4.475
27237W        W98766  26.534  16.563  14.046
27238W        W98767  33.907   3.749  10.540
27239W        W98768  23.018  15.361  11.394
27240W        W98769   2.333  39.297   2.791
27241W        W98770  11.572  28.130   0.302
27242W        W98771  20.652  34.851  11.093
27243W        W98772  18.761  40.368  11.932
27244W        W98773  28.082  44.945  14.240
27245W        W98774  17.247  36.522   3.095
27246W        W98775  40.054  35.894   1.740
27247W        W98776  12.330  13.801  10.773
27248W        W98777  26.291  33.900   2.223
27249W        W98778  29.997  33.048   0.617
27250W        W98779  16.559   1.741  13.787
27251W        W98780  35.517  14.495   4.027
27252W        W98781  19.184  28.527  12.849
27253W        W98782  13.605  35.939  11.951
27254W        W98783  16.702  39.604  13.370
27255W        W98784  44.252  23.711  10.732
27256W        W98785  25.523   8.720  14.734
27257W        W98786   1.306   9.314  14.769
27258W        W98787  23.417  10.058  10.534
27259W        W98788  22.623  32.407   3.447
27260W        W98789  30.507  42.547  12.881
27261W        W98790  17.818  13.346   4.656
27262W        W98791  20.291  15.480  11.221
27263W        W98792   6.581  34.768  14.491
27264W        W98793   1.887   2.372  11.986
27265W        W98794   5.267  19.277  12.823
27266W        W98795  37.122  41.772   3.469
27267W        W98796  41.593  10.296  14.908
27268W        W98797  38.466  32.345   2.121
27269W        W98798  39.614  20.142  11.323
27270W        W98799  37.810  31.858  11.599
27271W        W98800  37.417  37.091  13.412
27272W        W98801   8.706  33.425  11.301
27273W        W98802  24.221   9.694   3.038
27274W        W98803  27.064   8.613   3.817
27275W        W98804  19.628  33.135   3.306
27276W        W98805   8.330  42.325   3.604
27277W        W98806  10.352  12.793   1.156
27278W        W98807  30.389  42.688  10.658
27279W        W98808   3.801  27.959  13.903
27280W        W98809   8.338  38.736  13.319
27281W        W98810  40.851  43.412  12.345
27282W        W98811   3.427   6.490   2.905
27283W        W98812  15.283   0.312   0.749
27284W        W98813  21.099  14.760   2.798
27285W        W98814   4.488   3.869   0.309
27286W        W98815  20.107  27.522   2.826
27287W        W98816   3.218   7.790   3.284
27288W        W98817  39.443   4.281  10.533
27289W        W98818  12.919  20.817   2.244
27290W        W98819  21.585   2.184  13.770
27291W        W98820   1.437  28.994  10.785
27292W        W98821  10.874  21.598   3.415
27293W        W98822  43.886  20.047  11.912
27294W        W98823  24.931  36.439  12.594
27295W        W98824   7.883   6.275  10.550
27296W        W98825  37.230  43.266  13.630
27297W        W98826  26.291  42.516  11.982
27298W        W98827   9.743  39.687  11.105
27299W        W98828  16.207  38.551  10.651
27300W        W98829  18.724  43.919  14.128
27301W        W98830   6.023  42.373  14.052
27302W        W98831   9.022   0.699  11.124
27303W        W98832  15.615  34.961   2.944
27304W        W98833  27.465  33.719   1.722
27305W        W98834  27.674  17.593  11.173
27306W        W98835  13.361  18.977   0.357
27307W        W98836  23.620  41.097   3.719
27308W        W98837   6.409   9.634  12.087
27309W        W98838   3.802  33.050   4.515
27310W        W98839  41.363  40.010   3.150
27311W        W98840  34.481  29.735  11.625
27312W        W98841   0.537  33.578   3.046
27313W        W98842  25.700  26.553   0.976
27314W        W98843  10.105  34.463   4.475
27315W        W98844  39.825   4.933   1.722
27316W        W98845  11.381  13.448  14.754
27317W        W98846   4.870   6.111   0.810
27318W        W98847  33.358  44.708  10.636
27319W        W98848  14.237  24.668   0.771
27320W        W98849  20.819  35.178  11.451
27321W        W98850  42.066  37.497   1.993
27322W        W98851  24.588  32.879   0.853
27323W        W98852  35.515  12.160   0.759
27324W        W98853  42.473   8.406   4.585
27325W        W98854  18.476   8.764   2.906
27326W        W98855  32.943  39.351  12.758
27327W        W98856  21.620   5.141  11.471
27328W        W98857   2.984  40.544  11.190
27329W        W98858  16.756  29.389  11.519
27330W        W98859   7.997  33.081  12.152
27331W        W98860  16.144  19.094   2.396
27332W        W98861  23.195  22.765   2.920
27333W        W98862  22.176  42.455   0.298
27334W        W98863  22.277   0.495  10.052
27335W        W98864  31.390  13.367  13.403
27336W        W98865  21.745  27.632  12.756
27337W        W98866  30.640   3.358   2.440
27338W        W98867  12.282  15.445   3.993
27339W        W98868   7.132  39.631   1.391
27340W        W98869  37.027  12.651   3.720
27341W        W98870  17.733  19.891   4.721
27342W        W98871  28.051  29.901   0.003
27343W        W98872  13.287   8.817  14.353
27344W        W98873  10.122  43.436   3.168
27345W        W98874  16.617  43.499  12.029
27346W        W98875   6.431   8.657   0.400
27347W        W98876  28.305   8.928  12.777
27348W        W98877  13.080  16.070  10.625
27349W        W98878  15.254  14.279   1.795
27350W        W98879  26.773  16.083  10.648
27351W        W98880  25.608  26.919   3.726
27352W        W98881  24.561  22.615   3.450
27353W        W98882   8.688  26.042  11.640
27354W        W98883  39.683  25.625   3.041
27355W        W98884  42.907  28.059   5.032
27356W        W98885   1.968  26.572   4.807
27357W        W98886   4.385  24.803   1.871
27358W        W98887  30.631   4.277   1.838
27359W        W98888  32.632  41.045   3.882
27360W        W98889  44.213  24.391   3.834
27361W        W98890  25.075   9.810  14.545
27362W        W98891  20.547   4.724   4.725
27363W        W98892  42.480  39.095   2.394
27364W        W98893  39.303  27.366   4.474
27365W        W98894   0.684  37.860   2.778
27366W        W98895   3.240  26.743   1.932
27367W        W98896  29.588  36.843  11.121
27368W        W98897  13.352   6.915   4.096
27369W        W98898  43.575  14.837   2.881
27370W        W98899  44.411  43.291  11.207
27371W        W98900  41.865  14.089   0.996
27372W        W98901  23.183  23.098  11.504
27373W        W98902   2.761  37.710  12.456
27374W        W98903  36.969   1.563   4.095
27375W        W98904   8.626  18.962  11.551
27376W        W98905  37.340  31.313   3.642
27377W        W98906  41.589  35.069   3.792
27378W        W98907  21.069  11.596   1.461
27379W        W98908  28.062  28.478   3.665
27380W        W98909  18.680  44.392  14.846
27381W        W98910  34.504  41.633  13.580
27382W        W98911   0.215  27.492   1.365
27383W        W98912  17.175  44.544  12.382
27384W        W98913  33.353  31.452  12.115
27385W        W98914   4.483  43.642   4.973
27386W        W98915  21.705  11.089   2.887
27387W        W98916  41.452  29.300  11.553
27388W        W98917  10.570  39.160   1.305
27389W        W98918  15.252  25.948  13.399
27390W        W98919  16.162  41.920   2.919
27391W        W98920  25.195   6.786   4.228
27392W        W98921   4.706  20.321  11.427
27393W        W98922  18.068  38.947  12.169
27394W        W98923   6.192  23.819   0.565
27395W        W98924   6.205   4.396   2.716
27396W        W98925   9.428  34.863  13.104
27397W        W98926   2.003  11.383  12.114
27398W        W98927  37.433  17.490   2.729
27399W        W98928  28.981   0.620   3.518
27400W        W98929  21.486  20.686   0.865
27401W        W98930  16.988  23.969  12.383
27402W        W98931  12.380  43.954   4.500
27403W        W98932   4.831  16.640  13.337
27404W        W98933  23.559   8.306   3.257
27405W        W98934  43.304  44.905   3.165
27406W        W98935  28.395  28.482  14.896
27407W        W98936   3.633   2.912  10.455
27408W        W98937  36.127  39.384   2.848
27409W        W98938  19.196  10.138  14.382
27410W        W98939  33.154  36.055   3.248
27411W        W98940  37.270  31.726  14.927
27412W        W98941  42.953  41.261  14.429
27413W        W98942  12.536   7.296  12.373
27414W        W98943  37.859  10.919  11.499
27415W        W98944  37.939   8.985   0.983
27416W        W98945   9.259  16.267   4.599
27417W        W98946   6.952  39.507   1.867
27418W        W98947  13.521  43.977  12.042
27419W        W98948  21.558  19.127  11.920
27420W        W98949  44.921  22.081  11.091
27421W        W98950  29.625  34.127  14.053
27422W        W98951  31.501  31.689  10.895
27423W        W98952  20.613   1.138  12.982
27424W        W98953   5.503  26.533   3.104
27425W        W98954   7.623  32.101  13.420
27426W        W98955  38.955  37.463  12.213
27427W        W98956   9.716  10.442  13.549
27428W        W98957  20.775  44.445   0.260
27429W        W98958   5.350  34.383   1.409
27430W        W98959  44.007   7.758  10.762
27431W        W98960  29.171  16.740   4.264
27432W        W98961  25.725  23.666   5.084
27433W        W98962  10.971  22.478   2.401
27434W        W98963  10.598  30.489   0.944
27435W        W98964  29.612  16.384  14.965
27436W        W98965  27.233  13.217   1.919
27437W        W98966   2.897  30.894  14.350
27438W        W98967  17.292  16.102   2.709
27439W        W98968  23.223  23.572  11.698
27440W        W98969  14.346  20.103  11.614
27441W        W98970  34.866  39.360  14.966
27442W        W98971  13.101  10.109   2.689
27443W        W98972   9.285  41.910   1.279
27444W        W98973  26.251  26.527   0.856
27445W        W98974  38.450  25.240  14.877
27446W        W98975  23.903  27.175   1.908
27447W        W98976  30.117  11.314   4.517
27448W        W98977  32.412  33.193  14.914
27449W        W98978  30.121   2.284   2.615
27450W        W98979  28.504  10.442  12.121
27451W        W98980  39.869  30.955   2.900
27452W        W98981  22.329  34.451  13.809
27453W        W98982   1.537   2.324   0.308
27454W        W98983  40.026  23.902   4.852
27455W        W98984  14.321  29.957   0.419
27456W        W98985   2.249  32.493   3.105
27457W        W98986  28.236  18.770  13.957
27458W        W98987  13.533   8.783   3.292
27459W        W98988   3.367  28.544  14.265
27460W        W98989   4.776   1.169   2.735
27461W        W98990   2.463  24.185   2.227
27462W        W98991  40.826   1.199  11.609
27463W        W98992  34.702  20.686  11.205
27464W        W98993  21.186  17.380   3.184
27465W        W98994  20.518  19.176   4.316
27466W        W98995   4.718  37.022  12.608
27467W        W98996  10.690  23.933   2.622
27468W        W98997  27.885  12.050   1.234
27469W        W98998  30.935   8.275  12.599
27470W        W98999   2.483  34.568  10.293
27471W        W99000  18.744  35.684   3.045
27472W        W99001  17.641  38.889  10.154
27473W        W99002  39.409  26.086  10.954
27474W        W99003  29.490   2.663  10.997
27475W        W99004  23.085  38.978  14.371
27476W        W99005  22.179   6.663   2.387
27477W        W99006   1.869  31.986   4.628
27478W        W99007  27.482  36.530  10.766
27479W        W99008  33.875   9.715   1.905
27480W        W99009  22.042  28.848   3.164
27481W        W99010  31.513  34.341  11.796
27482W        W99011  19.138  28.194   2.238
27483W        W99012   2.395  31.054   3.240
27484W        W99013  14.184  37.647  12.888
27485W        W99014  11.599  14.840  11.854
27486W        W99015  11.941   5.763   3.193
27487W        W99016  38.914  27.970  12.641
27488W        W99017  22.643  38.496   4.606
27489W        W99018   7.627  31.644   2.621
27490W        W99019  42.099  31.131   0.751
27491W        W99020  15.817  10.476   5.397
27492W        W99021  13.628  34.769  13.793
27493W        W99022   4.383  32.739   0.356
27494W        W99023   7.159  17.057   4.515
27495W        W99024   1.066  19.332   3.388
27496W        W99025  12.377  31.873  12.070
27497W        W99026  19.744  28.598  12.941
27498W        W99027  15.199   1.805   3.636
27499W        W99028  27.542  28.647   2.054
27500W        W99029   7.216  28.445  11.599
27501W        W99030  37.448  34.579  14.265
27502W        W99031  10.085  11.773  13.567
27503W        W99032  15.012  41.355   4.288
27504W        W99033  12.112   7.162   0.410
27505W        W99034  23.596   8.048   2.448
27506W        W99035  22.183   0.756  13.924
27507W        W99036  14.087   8.138  12.550
27508W        W99037   3.830  32.027   4.838
27509W        W99038  15.178  20.497  11.870
27510W        W99039   1.538  38.115   4.119
27511W        W99040  43.086   4.063   3.704
27512W        W99041  31.411  34.668   0.249
27513W        W99042   4.525   2.775   4.658
27514W        W99043  19.059  33.364   3.811
27515W        W99044  29.671   8.198  11.847
27516W        W99045  24.137  22.836   2.692
27517W        W99046  32.452   9.200  11.108
27518W        W99047  41.739  10.945  13.267
27519W        W99048  17.072  26.042   3.919
27520W        W99049  19.050  29.748  12.974
27521W        W99050  34.693  29.253   2.784
27522W        W99051   4.852  22.463   2.167
27523W        W99052  32.596  21.116   2.732
27524W        W99053  15.379  10.287  13.434
27525W        W99054  22.416  28.181   4.017
27526W        W99055  30.656  41.568   4.550
27527W        W99056  11.599  34.353   1.184
27528W        W99057  11.617  33.452   0.697
27529W        W99058  31.149   8.913  11.059
27530W        W99059  29.670  43.246   2.711
27531W        W99060  17.794  14.753  11.702
27532W        W99061  21.552  33.687   0.478
27533W        W99062  12.071  23.239  14.759
27534W        W99063  39.765  10.550   4.350
27535W        W99064   5.627  26.056  14.335
27536W        W99065  37.985  16.784   0.274
27537W        W99066  32.976   2.618  12.092
27538W        W99067   0.570  23.156  11.926
27539W        W99068  34.092   9.638   0.464
27540W        W99069  26.431  34.816   2.260
27541W        W99070  36.793  16.659  11.206
27542W        W99071  17.262  26.005   0.350
27543W        W99072  37.869  36.257   1.790
27544W        W99073  43.792  32.353  12.090
27545W        W99074   8.186   9.945   4.627
27546W        W99075  41.915  42.873   2.349
27547W        W99076   5.307   1.478   3.350
27548W        W99077  31.175  37.446   4.408
27549W        W99078  18.708   0.527   0.861
27550W        W99079  18.240  27.836   4.605
27551W        W99080  42.470  10.202   0.715
27552W        W99081  29.622   8.746   3.109
27553W        W99082  32.164   5.060  11.142
27554W        W99083  36.502   5.484  10.582
27555W        W99084  26.341   4.514   4.161
27556W        W99085  13.296  30.037  12.697
27557W        W99086  32.806  40.614   1.991
27558W        W99087  22.668   0.769   2.513
27559W        W99088  11.897  29.804  13.766
27560W        W99089  30.016  40.065  12.519
27561W        W99090  10.680  32.983  14.328
27562W        W99091  18.982  22.965   4.343
27563W        W99092   6.558  35.870  14.999
27564W        W99093  13.701  38.101   3.706
27565W        W99094  39.007  28.591  13.357
27566W        W99095  12.382  22.969   3.380
27567W        W99096   8.627  19.391   3.030
27568W        W99097  28.459  27.533  14.927
27569W        W99098   4.084  39.292  14.349
27570W        W99099  43.825  23.724   2.797
27571W        W99100  15.762  21.234   2.400
27572W        W99101  38.661  35.070  11.699
27573W        W99102  32.607  34.061  14.517
27574W        W99103   4.254  23.315   1.698
27575W        W99104   3.637  27.037  13.834
27576W        W99105   8.595  27.534  12.040
27577W        W99106  34.124  38.478   3.896
27578W        W99107  22.977  28.466  12.853
27579W        W99108  41.240  39.033   4.015
27580W        W99109  13.571  10.150   2.177
27581W        W99110   7.706   8.651  14.422
27582W        W99111  25.703  31.322  14.411
27583W        W99112  11.358  32.582   0.785
27584W        W99113  20.321  32.547  12.022
27585W        W99114  10.757  34.143  11.227
27586W        W99115  25.636  20.228   2.653
27587W        W99116  25.114  29.966   0.693
27588W        W99117  32.941  29.154  11.098
27589W        W99118  23.582   3.204  10.489
27590W        W99119  28.077  28.937   3.400
27591W        W99120  22.960  42.930  12.949
27592W        W99121  34.518  22.501  11.462
27593W        W99122  24.976  24.264   3.519
27594W        W99123  39.433  12.567   1.657
27595W        W99124  24.954  17.285  14.904
27596W        W99125  24.751  37.484  13.966
27597W        W99126  21.559  43.550  14.784
27598W        W99127  18.790  23.734   3.236
27599W        W99128  38.239  28.486   4.541
27600W        W99129  35.115  10.197  12.599
27601W        W99130   1.014   4.764   0.565
27602W        W99131  13.854  24.110   2.307
27603W        W99132  39.065   9.303   4.245
27604W        W99133  30.037   5.259   3.881
27605W        W99134   4.247   3.644  13.947
27606W        W99135   6.873  26.174   3.274
27607W        W99136  31.156   7.382   3.294
27608W        W99137  20.024   8.201  13.537
27609W        W99138  41.546  39.531  12.122
27610W        W99139  22.030   5.887  14.553
27611W        W99140  32.587   3.378  12.648
27612W        W99141  27.856   1.252   3.295
27613W        W99142  34.363  17.422   0.345
27614W        W99143  27.720  25.525  13.285
27615W        W99144  13.689  42.988  14.915
27616W        W99145  38.095  31.607   0.964
27617W        W99146  13.356  24.027   2.362
27618W        W99147  32.019  37.552  11.301
27619W        W99148  41.118  18.422  12.581
27620W        W99149  13.037   8.876   3.259
27621W        W99150  28.846  13.125  11.124
27622W        W99151   2.460  10.289   2.423
27623W        W99152  20.255  41.964  11.513
27624W        W99153   6.219  43.426  14.310
27625W        W99154  27.878  32.225   0.501
27626W        W99155  10.326  27.038  10.583
27627W        W99156  29.582  16.831  11.403
27628W        W99157   1.056  39.929  13.863
27629W        W99158   5.606  12.645  12.991
27630W        W99159  28.083  29.025   2.423
27631W        W99160  40.697  26.953  14.183
27632W        W99161  22.190   2.552   3.231
27633W        W99162   4.165  37.808  11.648
27634W        W99163  33.542  33.069  11.910
27635W        W99164  25.933  37.582  12.959
27636W        W99165  13.401  11.950   1.818
27637W        W99166  10.328  21.567   4.144
27638W        W99167  42.717   9.410   0.029
27639W        W99168  25.521  33.469   5.068
27640W        W99169   5.380  14.329   1.464
27641W        W99170  23.425  36.878  14.922
27642W        W99171  21.176  42.583  11.581
27643W        W99172  34.498  34.355  13.614
27644W        W99173  29.566  21.112  13.332
27645W        W99174   9.610  22.217   0.136
27646W        W99175  26.311  29.073  10.089
27647W        W99176  19.805  35.921  11.120
27648W        W99177  22.532   0.213   1.802
27649W        W99178  33.849  29.613  11.066
27650W        W99179  18.394  27.096  10.494
27651W        W99180  40.514  24.269  11.569
27652W        W99181  32.545  27.969  13.523
27653W        W99182  20.654  34.339  11.153
27654W        W99183  23.072   5.407   1.800
27655W        W99184   7.412  14.199  10.681
27656W        W99185  33.896  17.797  10.540
27657W        W99186  11.064  13.259  14.273
27658W        W99187  20.248   3.477   2.737
27659W        W99188  43.006  11.324  10.541
27660W        W99189   9.499  31.474  11.933
27661W        W99190  23.115  44.285  10.969
27662W        W99191  35.294  25.108   0.833
27663W        W99192   4.196  19.703  13.458
27664W        W99193   5.722  39.876  13.743
27665W        W99194  32.509  37.306  13.933
27666W        W99195   4.378  18.050  13.287
27667W        W99196   6.001  33.585   0.355
27668W        W99197  28.025   5.172   2.214
27669W        W99198  21.167  32.352  13.861
27670W        W99199  42.864  18.690  12.462
27671W        W99200  13.843  30.547  11.297
27672W        W99201   4.007   7.838  14.548
27673W        W99202  16.828   9.116  14.249
27674W        W99203  17.256  24.658  12.325
27675W        W99204  13.141   6.177   4.561
27676W        W99205  14.310  41.140  12.502
27677W        W99206  32.440  38.631  13.294
27678W        W99207  14.302  11.635   0.809
27679W        W99208  15.151   5.338  13.412
27680W        W99209  20.459   1.653  11.108
27681W        W99210   1.341   1.166   4.217
27682W        W99211   5.483   1.187  13.028
27683W        W99212   4.702  36.441  11.079
27684W        W99213  18.575   7.321   0.641
27685W        W99214  27.198  31.138  13.993
27686W        W99215  20.068   2.391  12.062
27687W        W99216  30.549  22.635  12.532
27688W        W99217  30.040  14.594   0.398
27689W        W99218  25.518  22.562   2.098
27690W        W99219  40.031  29.873  12.856
27691W        W99220  22.007  15.333   1.547
27692W        W99221  14.677  30.638   5.282
27693W        W99222  23.487   7.880  14.728
27694W        W99223  24.483   6.365  14.790
27695W        W99224  37.181  19.638   4.700
27696W        W99225  38.279  32.465   0.153
27697W        W99226  19.831  23.163  14.871
27698W        W99227  24.150  28.231  14.381
27699W        W99228  27.074  14.815   3.774
27700W        W99229   8.622  41.174   4.390
27701W        W99230  20.618   2.244   4.685
27702W        W99231  31.551  12.083   0.811
27703W        W99232  40.962  39.357   3.101
27704W        W99233   3.841  18.339   3.537
27705W        W99234  24.483  43.737  12.868
27706W        W99235  15.629  29.611   3.381
27707W        W99236  29.779   7.268   0.340
27708W        W99237  34.275  37.522   3.803
27709W        W99238   4.896  41.691   4.102
27710W        W99239   2.125  40.744  13.535
27711W        W99240  32.469  10.683   3.166
27712W        W99241  14.881  29.717  11.003
27713W        W99242   8.909   0.108  12.558
27714W        W99243  29.386  24.095  14.747
27715W        W99244  39.022  21.242  12.379
27716W        W99245   8.880  42.305  13.858
27717W        W99246  24.775  22.232  13.067
27718W        W99247   2.164  11.970  14.354
27719W        W99248  29.425  37.119   3.201
27720W        W99249  37.685  40.332   2.681
27721W        W99250  19.622   6.458   3.235
27722W        W99251  37.872  40.371   4.060
27723W        W99252  44.821  22.347  14.882
27724W        W99253  24.730  14.106  12.692
27725W        W99254  23.914  43.006  12.766
27726W        W99255  26.906  11.346   2.624
27727W        W99256  36.192  44.315   3.312
27728W        W99257  20.633  11.172  13.027
27729W        W99258   5.935   0.491   0.083
27730W        W99259   3.399  19.159   1.432
27731W        W99260  40.120   9.124   4.233
27732W        W99261   6.275  44.448  14.302
27733W        W99262  30.908  42.743   0.922
27734W        W99263  15.125  17.097  11.979
27735W        W99264   6.383  16.694  10.178
27736W        W99265  38.417  32.610  14.169
27737W        W99266  19.355  32.692   3.239
27738W        W99267   5.857  34.866   2.757
27739W        W99268   5.531  10.424  11.093
27740W        W99269  44.693  20.356   0.715
27741W        W99270  13.908  15.148  11.584
27742W        W99271  33.508   5.715   4.671
27743W        W99272  12.380  22.285  11.179
27744W        W99273  43.203  24.660   2.179
27745W        W99274   0.868  19.072  11.441
27746W        W99275   8.315  38.929   0.778
27747W        W99276   9.195  22.241   0.869
27748W        W99277  21.247  38.441   5.454
27749W        W99278  40.320  12.218   1.270
27750W        W99279  38.041  34.254  13.531
27751W        W99280  42.736  15.313   4.866
27752W        W99281  41.460  27.801   0.792
27753W        W99282  42.884  44.059  14.426
27754W        W99283   5.217  44.082   1.744
27755W        W99284  21.226   4.311  13.928
27756W        W99285  34.335  14.929   3.375
27757W        W99286  30.578  24.545  11.389
27758W        W99287  29.593  36.041  14.765
27759W        W99288  20.217  29.309  12.413
27760W        W99289  12.653  42.012   3.727
27761W        W99290   3.954  35.659  11.419
27762W        W99291   7.966  15.844  13.494
27763W        W99292  36.977  21.469   1.169
27764W        W99293  35.350  28.478   1.970
27765W        W99294  42.353  41.500   1.993
27766W        W99295   4.707  14.801   2.068
27767W        W99296   6.144  17.622  14.332
27768W        W99297  37.379   2.960   2.733
27769W        W99298  15.934  30.871   2.017
27770W        W99299  42.981  41.859  13.007
27771W        W99300  10.275   3.524  11.976
27772W        W99301  44.736  29.886  12.489
27773W        W99302  10.920  42.558   2.850
27774W        W99303  19.559  32.402  11.133
27775W        W99304  25.700   2.594  12.465
27776W        W99305   1.700   2.166  14.328
27777W        W99306  34.782   0.596  12.675
27778W        W99307  31.073   0.304  13.805
27779W        W99308  34.113  39.743  11.123
27780W        W99309  31.137  37.027  12.407
27781W        W99310  26.963  35.248   1.179
27782W        W99311  44.558  25.307  13.447
27783W        W99312  26.367  13.784   4.073
27784W        W99313  16.293  18.646  11.371
27785W        W99314  43.450  33.426   0.335
27786W        W99315  11.982  22.491  10.957
27787W        W99316  27.760  36.959   3.594
27788W        W99317   7.802  17.600  11.548
27789W        W99318  38.003  30.452   4.598
27790W        W99319  32.101  27.207  13.136
27791W        W99320   4.346  30.898   3.724
27792W        W99321   9.307  30.990  11.976
27793W        W99322  33.546  43.493   3.741
27794W        W99323  25.738   7.245   0.373
27795W        W99324  33.928   9.596   4.687
27796W        W99325   6.464   6.853   2.464
27797W        W99326  23.035   6.157  12.528
27798W        W99327  40.567  37.919  14.521
27799W        W99328  26.189  14.015   0.349
27800W        W99329  18.243  41.958   0.620
27801W        W99330  42.879   7.922  10.572
27802W        W99331  20.380  34.956   3.315
27803W        W99332  28.065   2.384  10.773
27804W        W99333  29.736  36.304   1.639
27805W        W99334   8.408  13.520   2.833
27806W        W99335  41.575  32.419   3.222
27807W        W99336  12.144  30.966   0.356
27808W        W99337   5.795  11.179   4.553
27809W        W99338   4.217   9.263   3.700
27810W        W99339  43.082  38.822   5.093
27811W        W99340  33.401  33.256   3.727
27812W        W99341  37.513  18.703   3.637
27813W        W99342  30.984  15.855   4.960
27814W        W99343  35.960  25.240   0.130
27815W        W99344  43.372  41.608   2.854
27816W        W99345   8.140  15.272  14.830
27817W        W99346  29.961  43.271  14.893
27818W        W99347  27.304  34.196  11.589
27819W        W99348  38.740  38.882  11.250
27820W        W99349   7.426   4.937   3.367
27821W        W99350  32.141  22.546  13.995
27822W        W99351  39.412  26.402   3.306
27823W        W99352  37.293  11.278  13.751
27824W        W99353  23.759   7.971   2.916
27825W        W99354   7.749  36.615  14.059
27826W        W99355  37.344  35.537   4.332
27827W        W99356  14.833   4.641  11.940
27828W        W99357  10.075   2.414  14.472
27829W        W99358  18.685  38.411   0.861
27830W        W99359  22.744  25.042   3.808
27831W        W99360   8.182   5.837  10.968
27832W        W99361  12.359   6.717   3.188
27833W        W99362  40.714  21.147  14.537
27834W        W99363   6.249  23.256  12.969
27835W        W99364   9.296  22.862  12.678
27836W        W99365  36.275  35.842  13.582
27837W        W99366  27.504  25.731  11.055
27838W        W99367   2.508  33.201  14.758
27839W        W99368  41.339  31.703   2.354
27840W        W99369   6.978  44.319  14.933
27841W        W99370   1.356  26.625   1.760
27842W        W99371  27.057  23.677   0.297
27843W        W99372  25.452  37.608  13.221
27844W        W99373  13.778  31.428  12.387
27845W        W99374  15.213  33.451   3.713
27846W        W99375  40.501   7.677   4.083
27847W        W99376   1.287  14.622  14.738
27848W        W99377  44.540  35.611  14.125
27849W        W99378  13.254  11.123  13.587
27850W        W99379  19.366  10.663  10.436
27851W        W99380  15.840   9.683   0.755
27852W        W99381  31.032  26.479   0.770
27853W        W99382  32.757  41.162  14.298
27854W        W99383   8.628  38.467   3.686
27855W        W99384  11.764  44.486   1.829
27856W        W99385  18.738  38.837  14.993
27857W        W99386  31.638  10.341  13.834
27858W        W99387  15.616  11.387  14.049
27859W        W99388  19.407  17.081   4.175
27860W        W99389  13.823  16.564   3.223
27861W        W99390  30.442  29.530   3.179
27862W        W99391  34.978  33.881  11.097
27863W        W99392   5.098   3.667  12.379
27864W        W99393  33.411   2.321   0.658
27865W        W99394  22.488  24.416   0.327
27866W        W99395  39.730   6.793   1.394
27867W        W99396  26.601  31.906  10.463
27868W        W99397  37.959  41.928   4.525
27869W        W99398  12.175   3.266   2.678
27870W        W99399  20.181  10.927   3.194
27871W        W99400  36.578   9.854  10.383
27872W        W99401  42.125  16.232   1.545
27873W        W99402  42.751  27.686   4.447
27874W        W99403  42.442  28.087   2.882
27875W        W99404  42.995  41.861  10.747
27876W        W99405  11.080   6.325  14.492
27877W        W99406  26.898   7.796  11.511
27878W        W99407  29.103   2.262  13.176
27879W        W99408   2.149  20.449  13.016
27880W        W99409   5.035   0.899   0.260
27881W        W99410  33.548   8.274  13.316
27882W        W99411   6.812  44.613  14.536
27883W        W99412  20.269   4.833   4.310
27884W        W99413  25.013  32.987   0.149
27885W        W99414  43.877  35.157   2.984
27886W        W99415  30.969  23.775   3.207
27887W        W99416  18.584  43.466  11.287
27888W        W99417  18.730  11.225  10.715
27889W        W99418  26.575  43.333  11.652
27890W        W99419   3.772  30.928  14.321
27891W        W99420  43.097  42.817   1.266
27892W        W99421   9.359  43.433   0.724
27893W        W99422  38.529  11.902  10.737
27894W        W99423  10.955  36.950  11.208
27895W        W99424  28.023   2.466  13.474
27896W        W99425   2.331   5.354   1.498
27897W        W99426   1.715  42.487  11.104
27898W        W99427  37.190  37.832   1.898
27899W        W99428   8.260   9.389  11.943
27900W        W99429  19.989  27.937   5.022
27901W        W99430  18.324  31.212   4.654
27902W        W99431  20.042  37.856   3.269
27903W        W99432  27.482   3.326   2.715
27904W        W99433  32.601  15.523  12.682
27905W        W99434   3.007   6.776   3.642
27906W        W99435  25.609  13.177   4.598
27907W        W99436  14.336  26.300  13.115
27908W        W99437  44.467   1.996   1.414
27909W        W99438  43.789  27.741   4.088
27910W        W99439  35.468   7.821  11.206
27911W        W99440  16.980  25.921  14.364
27912W        W99441  30.961  37.292  12.837
27913W        W99442  36.626  23.159   2.190
27914W        W99443   3.405  11.145  13.781
27915W        W99444   2.709  19.703   2.719
27916W        W99445  27.141   3.915  13.324
27917W        W99446   9.285  39.927  11.198
27918W        W99447  11.851  36.220  11.598
27919W        W99448  44.976   8.251  12.962
27920W        W99449   6.799  28.589   4.753
27921W        W99450   8.337  18.500  13.151
27922W        W99451  33.048   7.417  12.578
27923W        W99452  29.645  26.463   3.627
27924W        W99453   7.339  33.047   1.424
27925W        W99454  25.132   6.026  11.560
27926W        W99455  17.369   9.930  10.042
27927W        W99456  16.858  33.053  13.604
27928W        W99457  39.901  42.286  13.551
27929W        W99458  22.143  39.658   2.696
27930W        W99459  28.100  10.820   0.095
27931W        W99460  24.599  13.250   4.538
27932W        W99461  42.826  41.068  13.958
27933W        W99462   5.996  31.277  14.378
27934W        W99463  44.440   4.876   1.422
27935W        W99464  26.113  19.135  11.979
27936W        W99465  11.977  14.138   3.712
27937W        W99466  14.111  35.385   0.797
27938W        W99467  15.617  44.013   3.596
27939W        W99468  32.330  11.587   2.786
27940W        W99469  23.261  31.029   0.424
27941W        W99470  15.242  35.411  10.711
27942W        W99471  20.135   0.314  14.965
27943W        W99472  43.040  16.491  12.486
27944W        W99473  21.562  33.557  14.011
27945W        W99474  41.836  23.787   2.783
27946W        W99475  23.306   3.749   1.441
27947W        W99476   7.771  10.688  13.300
27948W        W99477  35.444   5.188  12.976
27949W        W99478  30.018  16.460   2.749
27950W        W99479  40.342  42.032  13.300
27951W        W99480  17.713  33.183   2.188
27952W        W99481  24.941  35.866   4.922
27953W        W99482  32.526   4.065  11.018
27954W        W99483  26.100   4.156   1.271
27955W        W99484  32.864  27.418  11.951
27956W        W99485  41.860  18.015   1.709
27957W        W99486  30.523  37.777   3.900
27958W        W99487  35.276  25.468  12.639
27959W        W99488  10.304  32.924   2.305
27960W        W99489  12.393  16.595  13.928
27961W        W99490  17.720  39.965  14.757
27962W        W99491   4.451  11.151  14.044
27963W        W99492   1.695  37.536   1.235
27964W        W99493  37.294  33.787   3.648
27965W        W99494  32.867  18.759   1.692
27966W        W99495  44.980   2.228  11.433
27967W        W99496  36.845  33.393  12.922
27968W        W99497  25.188  24.886  12.337
27969W        W99498   8.761  12.755   1.773
27970W        W99499  22.808  11.885   1.807
27971W        W99500  39.002  22.405  13.413
27972W        W99501  30.570   6.549  11.000
27973W        W99502   9.678  15.312   3.712
27974W        W99503  44.739  23.979   1.375
27975W        W99504  35.863  24.841  10.710
27976W        W99505   9.864  29.927   2.887
27977W        W99506  18.944   3.373   3.220
27978W        W99507  28.924  17.532   1.315
27979W        W99508  19.258   7.328   2.662
27980W        W99509  35.081  21.059   1.467
27981W        W99510  27.089  32.977  13.799
27982W        W99511  33.991  43.806   4.409
27983W        W99512  33.475  15.140   4.292
27984W        W99513  27.979   1.729  12.953
27985W        W99514   0.472  39.503  12.423
27986W        W99515  23.184  24.501  11.593
27987W        W99516  35.514  19.485   2.786
27988W        W99517  30.650  38.566  13.624
27989W        W99518  31.987   7.654  13.978
27990W        W99519  34.894  19.567  11.503
27991W        W99520   1.653  35.196  13.978
27992W        W99521  31.058  31.048  13.376
27993W        W99522   0.768   1.175   3.063
27994W        W99523  41.841  27.391   4.784
27995W        W99524  26.621  28.173  10.310
27996W        W99525  27.231   0.450  14.912
27997W        W99526  43.011  40.206  12.600
27998W        W99527  15.354  19.566  11.064
27999W        W99528  19.174  22.399  12.079
28000W        W99529  18.846  11.687  13.748
28001W        W99530  23.092   9.139  13.380
28002W        W99531  44.038   1.039  12.807
28003W        W99532  31.383  17.675  12.846
28004W        W99533  37.935  24.630   1.815
28005W        W99534  11.358  27.159   4.043
28006W        W99535  14.931   9.346  11.614
28007W        W99536  32.570  30.505  11.171
28008W        W99537   0.295   1.396  11.262
28009W        W99538  34.671   9.917  14.288
28010W        W99539  14.211  32.168  10.813
28011W        W99540  20.463  27.954   1.702
28012W        W99541  25.711  42.282  14.711
28013W        W99542   2.669  25.491  13.875
28014W        W99543  22.653  29.696   0.800
28015W        W99544  16.748  22.513   3.323
28016W        W99545   5.916  23.479   2.316
28017W        W99546   9.617  28.081  12.594
28018W        W99547   2.514  17.674   0.343
28019W        W99548  23.959  12.107   2.848
28020W        W99549  32.578   5.119   2.870
28021W        W99550   5.258  44.612   1.738
28022W        W99551   3.085  25.248   2.828
28023W        W99552  30.204   5.285  12.528
28024W        W99553  23.176  41.014  12.100
28025W        W99554  22.053   8.625   4.061
28026W        W99555  11.467  32.730  11.596
28027W        W99556  40.851   6.175   4.109
28028W        W99557  28.963  21.110  12.469
28029W        W99558   0.528   4.216  14.507
28030W        W99559   9.889  25.743   1.499
28031W        W99560  10.716  13.045  11.161
28032W        W99561  42.114   6.408  14.463
28033W        W99562   7.549  40.374   2.639
28034W        W99563  27.401  38.923  11.107
28035W        W99564  38.095  15.626   4.270
28036W        W99565  21.079  27.121  14.317
28037W        W99566   1.078  27.966  13.407
28038W        W99567  30.673  16.623  11.565
28039W        W99568   7.286  19.575  13.892
28040W        W99569  13.212  38.683  13.962
28041W        W99570  17.705  10.335  10.638
28042W        W99571   3.284  35.623   4.556
28043W        W99572  39.475  32.606  11.293
28044W        W99573   2.322  32.814  13.873
28045W        W99574  20.807  10.386  14.751
28046W        W99575  43.912  28.119   2.359
28047W        W99576   3.686   2.952  11.536
28048W        W99577   9.708  22.154  13.801
28049W        W99578  35.219  22.509   4.813
28050W        W99579  12.423  10.604   0.318
28051W        W99580   4.876  17.674   0.614
28052W        W99581  28.763  17.743   1.808
28053W        W99582  41.032  15.743  14.340
28054W        W99583   6.781  38.197   4.521
28055W        W99584   5.672  39.338   1.280
28056W        W99585  37.406  18.811   2.191
28057W        W99586  36.445  34.413   1.058
28058W        W99587   3.492  23.724  12.685
28059W        W99588  40.974  30.024   3.567
28060W        W99589  40.808   2.152  12.127
28061W        W99590  41.549  16.745  12.573
28062W        W99591  32.666  16.415   2.741
28063W        W99592  18.893  17.180   4.403
28064W        W99593  30.448  40.124  11.149
28065W        W99594  22.913  37.835  14.449
28066W        W99595  36.095  20.246  14.029
28067W        W99596   7.603  28.763  10.686
28068W        W99597  33.483  40.431   1.640
28069W        W99598  24.793  26.534  14.731
28070W        W99599  14.259  14.702   3.235
28071W        W99600  17.397   6.440  14.459
28072W        W99601  37.759  29.384   3.813
28073W        W99602  12.926  39.567  13.953
28074W        W99603  35.056  24.497   4.407
28075W        W99604  11.495  24.483   1.357
28076W        W99605  22.155  28.536  11.682
28077W        W99606  36.345  28.443  14.903
28078W        W99607   5.900  40.367  13.782
28079W        W99608  29.976  33.946   0.730
28080W        W99609  37.224  27.177  11.126
28081W        W99610  13.864  33.990   3.171
28082W        W99611  13.730  18.734  13.576
28083W        W99612   2.066  36.137  13.162
28084W        W99613  27.656  30.641   2.172
28085W        W99614  31.917   5.868  10.774
28086W        W99615  38.910  30.547  11.743
28087W        W99616  29.605  19.725   1.813
28088W        W99617  23.176  41.522   3.295
28089W        W99618  13.729   4.206   4.650
28090W        W99619   9.208   4.983  12.571
28091W        W99620  11.581  37.521   2.211
28092W        W99621   6.728  13.445   2.417
28093W        W99622  23.891  32.783   1.901
28094W        W99623  18.084  27.354   2.252
28095W        W99624  21.320  16.039  14.671
28096W        W99625  41.908   4.182   0.481
28097W        W99626  37.519  19.410   1.274
28098W        W99627   3.265  38.917  13.975
28099W        W99628  23.750  30.153   1.323
28100W        W99629  39.000  27.416   2.591
28101W        W99630   6.472  13.699   4.340
28102W        W99631  31.162  42.470  12.105
28103W        W99632  28.693   5.499   0.356
28104W        W99633  40.027  16.898   4.685
28105W        W99634   2.769   2.881   3.168
28106W        W99635  41.268  25.706  13.527
28107W        W99636   5.095  27.622   1.807
28108W        W99637  38.083  31.803  14.320
28109W        W99638  26.206  40.983  12.904
28110W        W99639  17.609   3.445  13.969
28111W        W99640  30.739  13.549  11.446
28112W        W99641  36.485  22.930   0.223
28113W        W99642   6.672   3.276   1.855
28114W        W99643  35.711  13.070  11.307
28115W        W99644  43.771   9.174   2.349
28116W        W99645  13.286   0.507   3.122
28117W        W99646  36.516  35.863   4.122
28118W        W99647  29.623   9.432   0.691
28119W        W99648  42.319  16.084  12.749
28120W        W99649  24.511  26.732   1.104
28121W        W99650  19.659  30.417   1.922
28122W        W99651   3.177   4.008  14.902
28123W        W99652   0.903  32.297   3.666
28124W        W99653  10.026   6.840   3.743
28125W        W99654  23.621  39.513   2.027
28126W        W99655  29.954  20.072   4.671
28127W        W99656  30.181   1.387  12.174
28128W        W99657  38.281  22.319   4.075
28129W        W99658   5.695  11.554   2.831
28130W        W99659   3.627  15.857  12.586
28131W        W99660  30.050   2.985  12.841
28132W        W99661  29.464   6.631   3.656
28133W        W99662  24.098  35.129   3.157
28134W        W99663  27.066   8.125   4.715
28135W        W99664   0.186   9.633   4.425
28136W        W99665   6.786  26.533   1.074
28137W        W99666  20.790  14.341  10.714
28138W        W99667   5.363  35.952  10.759
28139W        W99668  36.852  25.114   1.280
28140W        W99669  18.648  25.364   1.297
28141W        W99670   5.574  42.596   4.980
28142W        W99671  21.069  13.797   0.675
28143W        W99672  30.951  30.965  10.721
28144W        W99673  24.467   0.999  13.516
28145W        W99674  38.384  18.825   2.726
28146W        W99675  35.639   0.277   2.331
28147W        W99676  27.749  42.313  13.098
28148W        W99677   6.336  17.463   0.376
28149W        W99678  19.297   5.282   2.727
28150W        W99679  15.628   9.856  13.219
28151W        W99680   3.898  41.320  10.698
28152W        W99681  40.082  38.337   0.724
28153W        W99682  28.571  38.034  13.994
28154W        W99683  13.129   4.219  11.494
28155W        W99684  41.859  10.447   3.629
28156W        W99685  12.370  39.178   1.502
28157W        W99686   4.137   1.601  12.915
28158W        W99687  41.213   7.227  14.519
28159W        W99688  21.354  41.855   9.933
28160W        W99689  30.462   6.262  11.461
28161W        W99690  13.266  19.149   1.348
28162W        W99691  15.809  39.968  10.697
28163W        W99692  18.599  26.712   1.383
28164W        W99693  11.116  25.147   2.440
28165W        W99694  41.903  41.754   4.032
28166W        W99695   4.357  16.721  13.489
28167W        W99696   7.364   7.670   4.314
28168W        W99697  30.536  27.519  14.484
28169W        W99698  18.806  33.959   2.719
28170W        W99699  14.056  12.138  14.496
28171W        W99700  30.239   5.813  12.479
28172W        W99701  28.478  16.662  12.894
28173W        W99702   0.112  33.449  14.327
28174W        W99703   3.447  39.940   3.427
28175W        W99704  28.669  20.717  10.741
28176W        W99705  17.081  18.598   5.123
28177W        W99706  31.674  43.126  10.565
28178W        W99707  40.579  24.607  12.523
28179W        W99708  42.900  16.993  12.532
28180W        W99709   7.202  35.687   3.258
28181W        W99710  27.994  18.346  14.280
28182W        W99711  37.432  15.373  10.794
28183W        W99712   7.130  16.969   1.829
28184W        W99713  21.632  13.794   3.746
28185W        W99714  17.986   9.439  12.768
28186W        W99715  14.679  12.945   1.180
28187W        W99716  12.061  10.380  10.206
28188W        W99717  36.869  37.558  11.401
28189W        W99718  21.615  21.204   0.907
28190W        W99719  31.948  34.175   0.856
28191W        W99720  32.242  44.149  10.192
28192W        W99721  39.191  17.215   5.411
28193W        W99722  26.448  12.160   0.266
28194W        W99723  37.924   5.815   3.617
28195W        W99724   3.537   2.820  13.363
28196W        W99725  39.633  36.427   0.478
28197W        W99726   0.729  41.023   0.868
28198W        W99727  30.681  17.204   2.694
28199W        W99728  20.846  24.986   3.190
28200W        W99729  21.691  21.014  13.962
28201W        W99730  11.842   1.479   0.411
28202W        W99731  29.209   1.891   3.478
28203W        W99732  10.495  12.574   2.081
28204W        W99733  33.902  31.403  13.855
28205W        W99734  41.065  13.313  14.504
28206W        W99735  10.732   5.287   0.938
28207W        W99736   9.331  10.943   3.608
28208W        W99737  35.830  44.317  12.449
28209W        W99738  28.395  44.437   2.849
28210W        W99739  30.617  19.300   0.473
28211W        W99740  41.990  36.342  13.006
28212W        W99741  41.948  13.600  12.379
28213W        W99742   4.908  22.757  14.715
28214W        W99743   1.672  38.610   4.172
28215W        W99744  26.088  14.766   4.258
28216W        W99745  12.229  10.823  14.008
28217W        W99746  10.858   2.790  13.391
28218W        W99747  43.800  24.058   3.750
28219W        W99748  21.221   8.375   4.677
28220W        W99749  43.803  13.575  11.133
28221W        W99750   8.779  15.254  13.161
28222W        W99751   8.488  29.999  12.379
28223W        W99752  28.911  16.253   1.938
28224W        W99753   1.924  12.209  11.655
28225W        W99754  24.900  19.101   0.318
28226W        W99755  36.375  41.885   3.787
28227W        W99756   8.846  15.879  13.363
28228W        W99757  10.850  33.485   2.953
28229W        W99758  17.254  43.384  13.059
28230W        W99759  13.588  44.492  14.255
28231W        W99760  24.514  42.641   3.176
28232W        W99761  12.435  33.600  11.382
28233W        W99762  31.987  20.808  12.410
28234W        W99763   0.990  18.805   3.420
28235W        W99764  10.433  33.500  11.930
28236W        W99765  21.657  11.622  14.332
28237W        W99766  12.548  11.226   4.063
28238W        W99767   5.567  23.915   3.123
28239W        W99768  38.502   2.379  14.720
28240W        W99769  10.084  28.605   3.634
28241W        W99770  18.303   6.857   0.547
28242W        W99771   9.856  36.868   2.724
28243W        W99772  21.947  17.659  10.905
28244W        W99773  23.962  32.386   2.739
28245W        W99774  13.901  20.211   5.075
28246W        W99775  10.724  31.902   4.602
28247W        W99776  19.454  11.105  11.206
28248W        W99777  17.503   7.730  10.740
28249W        W99778   6.203   8.540  13.647
28250W        W99779  25.119  44.143  10.665
28251W        W99780  31.804  41.260   3.800
28252W        W99781  14.314   9.905   1.763
28253W        W99782  25.990  42.859  13.913
28254W        W99783   5.304  44.334   1.289
28255W        W99784  16.278   1.874  11.459
28256W        W99785  30.892  21.169  12.997
28257W        W99786  21.586  42.036  13.022
28258W        W99787  20.069   4.207  11.477
28259W        W99788  35.505  10.683  11.877
28260W        W99789  21.306  40.019  11.462
28261W        W99790  22.504  17.562   0.729
28262W        W99791  34.476  12.338   0.232
28263W        W99792   5.205  42.774  10.937
28264W        W99793  42.816  42.902   1.712
28265W        W99794   3.145  40.039  11.543
28266W        W99795  41.461  12.618   3.427
28267W        W99796  21.390   3.382  13.929
28268W        W99797  23.257  24.957   4.053
28269W        W99798  15.197  34.937   3.767
28270W        W99799   4.769  37.706  14.489
28271W        W99800   7.765  32.997   4.709
28272W        W99801  10.564  39.240  10.683
28273W        W99802  19.762  11.594   1.781
28274W        W99803   0.353  20.953  14.014
28275W        W99804   5.919  24.960   3.720
28276W        W99805  40.117   2.368   0.924
28277W        W99806  21.164  36.220  11.523
28278W        W99807  15.754  42.968  10.634
28279W        W99808  36.517  42.966   1.169
28280W        W99809  38.996  42.685   3.156
28281W        W99810  17.440  43.731   2.952
28282W        W99811  23.263  25.055  14.338
28283W        W99812  22.590  15.082  11.286
28284W        W99813   1.260  18.086   3.360
28285W        W99814  21.628  44.298   1.858
28286W        W99815  17.309  30.109   1.947
28287W        W99816   4.489   5.503   2.899
28288W        W99817  13.214  29.085   3.560
28289W        W99818  27.043   6.416  11.866
28290W        W99819  22.604  11.321  11.166
28291W        W99820  12.478  38.940  14.468
28292W        W99821   7.378   7.389   0.763
28293W        W99822  40.775  24.001   0.310
28294W        W99823  22.527   4.611  11.497
28295W        W99824  24.552  12.274   4.566
28296W        W99825  26.481  32.319   1.311
28297W        W99826   1.732  15.656   2.365
28298W        W99827  21.080   6.205   1.596
28299W        W99828   7.659  29.471  13.835
28300W        W99829  20.616  14.001  12.465
28301W        W99830  23.604  10.276   1.597
28302W        W99831  20.274  17.614  11.216
28303W        W99832  20.801  34.458  12.534
28304W        W99833   1.997  25.496  14.573
28305W        W99834  42.691  27.065   4.104
28306W        W99835   8.566  34.423   3.823
28307W        W99836  15.437  29.576  10.914
28308W        W99837  38.911   1.546  11.979
28309W        W99838  39.001   5.365  14.015
28310W        W99839  36.357  43.430  14.128
28311W        W99840  24.012   4.441   4.077
28312W        W99841   1.335  21.506  13.022
28313W        W99842  16.520  20.120   3.274
28314W        W99843  27.258  33.205   0.885
28315W        W99844  25.161   8.682  12.526
28316W        W99845   3.704   2.254  10.496
28317W        W99846  38.058   2.316  14.447
28318W        W99847  17.347  25.683  12.509
28319W        W99848  34.032  20.238   4.386
28320W        W99849  37.818  30.185   4.193
28321W        W99850  20.982   0.293  14.991
28322W        W99851  25.519  29.079   2.812
28323W        W99852  44.226   0.846  10.657
28324W        W99853  43.204  24.782  12.697
28325W        W99854  23.167  26.702   0.341
28326W        W99855  14.468  10.735  14.371
28327W        W99856  41.269  40.262   0.986
28328W        W99857  34.440  10.319  11.648
28329W        W99858  17.539   9.049   0.413
28330W        W99859  17.278  32.126   4.583
28331W        W99860  36.744   4.757   0.335
28332W        W99861  29.167  43.646  14.532
28333W        W99862  25.098  22.180  14.379
28334W        W99863  36.265  32.071   5.056
28335W        W99864  42.318  31.708  13.077
28336W        W99865  36.135   1.493   3.693
28337W        W99866  17.546  16.300   0.808
28338W        W99867  13.285   7.604   3.639
28339W        W99868  39.900   3.871  11.505
28340W        W99869   9.383  44.193  11.502
28341W        W99870  27.791  22.265  12.181
28342W        W99871  36.933  30.193  11.967
28343W        W99872  10.033  41.034   2.780
28344W        W99873   5.559   7.629  11.601
28345W        W99874  13.748  35.964  11.466
28346W        W99875  16.374   4.603  14.307
28347W        W99876  34.115  10.741  14.869
28348W        W99877  32.358  17.198  13.238
28349W        W99878   1.036   3.420  14.351
28350W        W99879   9.309  33.820   4.166
28351W        W99880  31.488  26.764   1.901
28352W        W99881   4.203  11.598   1.865
28353W        W99882  30.886  24.153   0.945
28354W        W99883  38.127  22.170   2.581
28355W        W99884  18.128  19.665   2.681
28356W        W99885  41.259  29.899  14.736
28357W        W99886   3.871  32.783   9.677
28358W        W99887  42.841  31.653  11.516
28359W        W99888  18.998   8.232  14.485
28360W        W99889  15.661  36.650  10.514
28361W        W99890  35.084  30.405  11.123
28362W        W99891  36.984   8.152  11.702
28363W        W99892  26.078  15.361   4.350
28364W        W99893   4.885  17.573  13.798
28365W        W99894  19.543   3.403   4.122
28366W        W99895   2.369  41.964   3.271
28367W        W99896   0.830   5.521   9.848
28368W        W99897  19.717  37.773   4.730
28369W        W99898  35.329  22.213  14.174
28370W        W99899  17.552   9.570  14.508
28371W        W99900  11.117  30.955   3.649
28372W        W99901   6.633  11.561   0.416
28373W        W99902  43.397  26.541  12.368
28374W        W99903   6.059  35.228   4.985
28375W        W99904  10.745  32.052  12.890
28376W        W99905  26.403  18.722   3.970
28377W        W99906  21.281  36.464   1.228
28378W        W99907  36.588   9.439   4.517
28379W        W99908  15.597  15.261  10.656
28380W        W99909  10.845  25.693   3.186
28381W        W99910  12.742  23.355   3.340
28382W        W99911  15.954   7.044   1.246
28383W        W99912  19.344  38.227   2.550
28384W        W99913  35.568  38.023   1.396
28385W        W99914  43.766  24.439   2.073
28386W        W99915  27.131   8.147  12.836
28387W        W99916  43.506  37.479  14.318
28388W        W99917   3.311  35.039  13.023
28389W        W99918  19.483  43.648  11.491
28390W        W99919  16.753   5.707  11.522
28391W        W99920  19.119  14.141  12.495
28392W        W99921  10.923  20.791  11.488
28393W        W99922   6.477  41.259  12.176
28394W        W99923  22.213  23.075  10.434
28395W        W99924  44.249  20.714  14.041
28396W        W99925  38.446  43.890   0.418
28397W        W99926  11.162   4.395   1.168
28398W        W99927  38.793  16.374  13.000
28399W        W99928  43.502   2.678  13.997
28400W        W99929  35.135  43.693  10.755
28401W        W99930  35.569  25.532  13.052
28402W        W99931  35.328  29.594   3.787
28403W        W99932  24.153  25.065  10.312
28404W        W99933   9.753  20.165  12.919
28405W        W99934  40.538   3.957  10.713
28406W        W99935  14.910  24.326   3.832
28407W        W99936   9.302  36.852  14.796
28408W        W99937  19.515   1.356   2.428
28409W        W99938  31.130  32.253  10.032
28410W        W99939  24.174  10.386   3.570
28411W        W99940   6.885  30.556  14.352
28412W        W99941  35.726  15.791   1.167
28413W        W99942  41.856  30.628   4.650
28414W        W99943   4.713  41.946   0.541
28415W        W99944   2.247  36.129   3.735
28416W        W99945  10.639  18.948   1.466
28417W        W99946  32.809  37.432  11.641
28418W        W99947  13.706  18.215  13.529
28419W        W99948   3.491  16.352  13.757
28420W        W99949  33.782  17.602   4.889
28421W        W99950  36.521   4.338   3.227
28422W        W99951  15.844  26.433   1.310
28423W        W99952  17.557   2.472   4.101
28424W        W99953   9.772  10.072  12.695
28425W        W99954  27.164  12.573   4.376
28426W        W99955  43.755  18.074   0.873
28427W        W99956  26.596  31.786  14.216
28428W        W99957  36.370  17.011   0.041
28429W        W99958  23.180  10.952   0.309
28430W        W99959  43.291  37.028   0.630
28431W        W99960  23.061  18.963  13.247
28432W        W99961  16.613  29.454   1.852
28433W        W99962  37.353  36.090   1.786
28434W        W99963  13.236   1.019   4.095
28435W        W99964  14.313   9.652   3.126
28436W        W99965  44.215  13.793  13.643
28437W        W99966   7.462  28.640   4.399
28438W        W99967  11.599   9.710  11.674
28439W        W99968   6.379  28.093   0.280
28440W        W99969  41.930  31.643   2.641
28441W        W99970   3.934  28.197   3.166
28442W        W99971  34.593   3.960   0.048
28443W        W99972   8.693  18.348  11.870
28444W        W99973  32.673   4.398   0.104
28445W        W99974  19.613  29.150   0.353
28446W        W99975  25.813  42.561  13.308
28447W        W99976   9.250   7.392  10.680
28448W        W99977  26.602  21.973  11.959
28449W        W99978   1.144   6.739  11.316
28450W        W99979  13.319  35.507  13.494
28451W        W99980  37.751  25.229   4.603
28452W        W99981   1.980  35.373  11.528
28453W        W99982  27.875  21.057   1.425
28454W        W99983   5.700  14.283   4.066
28455W        W99984  35.312   7.767  13.489
28456W        W99985   7.365   8.367   1.612
28457W        W99986  33.359   3.862  13.977
28458W        W99987  20.019  33.413  14.437
28459W        W99988  27.624  30.945  13.770
28460W        W99989  32.976  13.045  13.539
28461W        W99990  13.569  28.880  12.049
28462W        W99991  42.266   0.829   3.428
28463W        W99992   4.562   4.184  14.887
28464W        W99993  25.748  23.806  14.514
28465W        W99994  11.788  42.880   2.216
28466W        W99995  38.517  30.851   3.357
28467W        W99996   7.165  22.271  13.545
28468W        W99997  10.211  28.134   4.073
28469W        W99998   9.121  40.808  12.214
28470W        W99999   5.348   1.360   4.922
28471W        W    0  38.347  34.882   0.335
28472W        W    1  30.476   6.727   2.714
28473W        W    2   1.721  17.560  13.012
28474W        W    3  37.939  16.252   1.144
28475W        W    4  18.557  19.219   2.705
28476W        W    5   0.215  18.620   4.567
28477W        W    6  21.771  14.312   3.696
28478W        W    7   1.140   9.338  12.962
28479W        W    8  39.803  26.890   2.430
28480W        W    9   5.494  24.379   3.362
28481W        W   10  33.908   8.809   1.673
28482W        W   11  36.661   8.171  14.821
28483W        W   12  34.233  22.157   0.532
28484W        W   13  28.375  24.981  11.162
28485W        W   14  20.465   4.387  14.389
28486W        W   15   0.956  22.696   2.362
28487W        W   16  35.350  11.880   0.058
28488W        W   17  19.556  28.723  14.444
28489W        W   18  18.883  18.221   3.731
28490W        W   19  28.797   2.172   3.296
28491W        W   20  30.208  29.582  12.905
28492W        W   21  25.045   0.271  13.255
28493W        W   22   9.960  24.517  14.914
28494W        W   23   3.383  38.127   4.173
28495W        W   24  12.804  44.659  10.653
28496W        W   25  41.407  44.286  10.497
28497W        W   26  43.548  32.456  14.312
28498W        W   27  10.882  38.736  10.625
28499W        W   28  12.570  38.557   3.269
28500W        W   29   3.828   3.371  12.849
28501W        W   30  27.637  20.251   0.934
28502W        W   31   2.694   6.281  10.961
28503W        W   32  15.227  27.367  14.336
28504W        W   33   2.361  29.192  14.743
28505W        W   34  29.540  39.328  12.633
28506W        W   35  32.592  15.021   5.629
28507W        W   36  36.658   0.804  14.471
28508W        W   37  14.807  12.634  10.644
28509W        W   38  17.073  40.013   0.491
28510W        W   39   6.132  13.125  14.941
28511W        W   40  43.796  29.555   1.459
28512W        W   41  43.191  32.671  13.936
28513W        W   42  20.718  16.743   4.076
28514W        W   43  16.668  26.808  14.323
28515W        W   44  35.366  22.995   3.358
28516W        W   45  22.080  14.557  14.959
28517W        W   46  41.077  26.645   1.195
28518W        W   47  30.100  25.127   4.688
28519W        W   48   2.696  10.696  14.271
28520W        W   49   4.019  19.006  14.421
28521W        W   50  11.054  32.517  11.827
28522W        W   51  42.818  27.856  12.526
28523W        W   52  11.579  36.334   0.276
28524W        W   53  41.596  12.324   1.219
28525W        W   54  16.838  22.508   1.024
28526W        W   55  39.118  17.919  12.874
28527W        W   56  23.590  41.232   1.750
28528W        W   57  43.860  42.519   2.401
28529W        W   58  23.013  25.026   1.136
28530W        W   59   7.992  12.249  13.923
28531W        W   60  29.419  25.975   3.788
28532W        W   61  43.261  15.129   1.640
28533W        W   62  41.286  20.047   3.347
28534W        W   63  19.659   8.776  14.748
28535W        W   64  38.550  34.355  14.099
28536W        W   65  44.639  17.008   4.143
28537W        W   66   6.743  41.468   4.756
28538W        W   67   9.407  14.255   4.056
28539W        W   68  21.489  16.736   3.245
28540W        W   69  12.179  44.106   3.251
28541W        W   70   1.961  26.899  12.786
28542W        W   71  15.659   4.405   1.782
28543W        W   72  43.372  26.020   2.892
28544W        W   73  29.949  18.141  14.399
28545W        W   74  43.850   5.402   3.430
28546W        W   75  13.960  12.097   0.377
28547W        W   76   9.075   8.728  11.942
28548W        W   77  13.887  40.832   1.644
28549W        W   78  12.831  29.872  12.868
28550W        W   79   4.338  13.282   1.432
28551W        W   80  36.540  19.445   4.276
28552W        W   81  24.601  29.022  12.081
28553W        W   82   9.706   8.943   1.903
28554W        W   83  14.301  12.712   0.904
28555W        W   84  38.919  23.961  12.653
28556W        W   85  38.271  10.436   0.890
28557W        W   86   6.708  44.591  10.494
28558W        W   87  39.508  33.979  11.959
28559W        W   88  32.642  38.300   0.422
28560W        W   89  42.183   6.576  11.128
28561W        W   90  14.147  23.260   0.276
28562W        W   91  19.331  39.397   5.329
28563W        W   92   2.609  40.543   1.693
28564W        W   93   9.724  12.179  14.424
28565W        W   94  25.012  27.456  13.903
28566W        W   95   7.901  43.365  11.558
28567W        W   96  27.861  11.140   1.735
28568W        W   97  29.686  21.602  10.679
28569W        W   98  24.483  29.259  12.950
28570W        W   99   8.738  36.056   1.667
28571W        W  100  12.738  44.397   1.882
28572W        W  101  13.257  26.076   0.570
28573W        W  102  39.839   4.224   0.957
28574W        W  103  25.213  27.759  13.510
28575W        W  104  24.129  41.899   0.226
28576W        W  105  30.549  34.828  11.128
28577W        W  106   7.319  18.130   4.457
28578W        W  107  40.328  19.762  13.419
28579W        W  108  39.409  44.858  14.371
28580W        W  109   4.908   3.248   3.798
28581W        W  110  26.997   5.293   3.124
28582W        W  111  30.656  19.811   1.744
28583W        W  112  10.862  35.867   2.825
28584W        W  113  12.193  12.619  10.732
28585W        W  114  20.644  44.733  14.445
28586W        W  115  18.680   8.334   4.295
28587W        W  116  25.429   3.503  11.143
28588W        W  117  42.972  10.848  13.523
28589W        W  118  42.030  25.072  12.071
28590W        W  119  35.722  33.161  14.890
28591W        W  120  12.755   2.070   0.859
28592W        W  121  17.115   6.234  13.557
28593W        W  122  30.247  10.125   4.049
28594W        W  123  23.474  24.141  13.482
28595W        W  124  29.577  26.945   4.493
28596W        W  125  20.836  36.858   5.227
28597W        W  126  34.578   9.351  12.568
28598W        W  127  14.904  43.522   2.897
28599W        W  128   8.005  27.465   4.611
28600W        W  129  37.397  38.931  13.392
28601W        W  130  39.717   0.549  11.154
28602W        W  131  42.772   9.435  14.347
28603W        W  132  12.870  19.371   5.252
28604W        W  133  21.315   3.444  14.463
28605W        W  134  37.014  26.205  10.736
28606W        W  135  30.948  28.468  11.510
28607W        W  136  16.540  10.645   3.847
28608W        W  137  16.895   2.530   1.004
28609W        W  138  16.286  36.847  14.769
28610W        W  139  18.118  43.554  12.500
28611W        W  140  44.885  11.402   3.368
28612W        W  141  13.405   7.471  12.517
28613W        W  142  39.019  33.995   4.641
28614W        W  143  22.598   2.902  13.954
28615W        W  144  29.536  16.397   4.449
28616W        W  145  28.574   6.095   0.986
28617W        W  146  41.058  18.672  14.932
28618W        W  147  16.635  19.460   1.792
28619W        W  148  31.882  40.573   0.016
28620W        W  149  25.716  17.227   0.456
28621W        W  150  37.978  28.255   3.244
28622W        W  151  20.651  26.609   2.376
28623W        W  152  29.033  37.526   0.787
28624W        W  153  21.300  30.551  13.782
28625W        W  154  33.262  20.081  11.219
28626W        W  155  34.009  38.406  12.960
28627W        W  156  34.831  28.199  14.406
28628W        W  157  10.039  22.941   3.331
28629W        W  158   9.663  25.994  10.678
28630W        W  159   5.282  14.316  14.914
28631W        W  160  43.002   9.684  11.487
28632W        W  161   3.853  13.602  11.546
28633W        W  162  19.313   8.226   3.878
28634W        W  163   0.463   2.753   0.809
28635W        W  164   7.532  29.175   4.344
28636W        W  165  34.123  34.092   0.243
28637W        W  166  36.056  22.209   0.102
28638W        W  167  30.669  22.219  14.479
28639W        W  168  32.474  28.067  14.036
28640W        W  169  12.261  35.103   2.391
28641W        W  170  26.969  15.138   1.814
28642W        W  171  33.352  24.463  14.815
28643W        W  172  38.387  19.388  14.951
28644W        W  173  17.865  17.847   1.384
28645W        W  174  30.085   2.316   1.593
28646W        W  175   5.871  37.353   1.454
28647W        W  176  29.413  29.507  14.694
28648W        W  177  14.226  14.801   2.230
28649W        W  178  31.653   8.884  10.986
28650W        W  179  37.984  44.385   1.862
28651W        W  180   5.241  23.569   3.323
28652W        W  181   7.637  19.788   2.480
28653W        W  182  42.001  25.051   2.180
28654W        W  183  11.257  16.358  12.225
28655W        W  184  11.372  37.565  14.887
28656W        W  185  15.834  23.624  11.654
28657W        W  186  16.869  38.657   0.440
28658W        W  187  29.489  16.884   1.408
28659W        W  188  13.817  11.629  14.703
28660W        W  189  22.942   7.359  11.609
28661W        W  190  39.434  32.893   0.371
28662W        W  191  42.530  27.653   2.400
28663W        W  192  14.167  26.572   2.645
28664W        W  193   9.721   4.886   2.773
28665W        W  194  35.936  32.372  12.860
28666W        W  195  13.853  20.714  12.232
28667W        W  196   1.354   9.111  14.243
28668W        W  197  42.627  31.046   0.246
28669W        W  198  26.595  33.659  13.756
28670W        W  199  43.829  26.171   2.697
28671W        W  200  17.197  12.545   2.179
28672W        W  201  43.423  17.546   2.454
28673W        W  202   5.083  11.007   0.906
28674W        W  203  24.041  15.889   3.994
28675W        W  204  31.510  39.870   1.788
28676W        W  205  41.778  34.019   2.107
28677W        W  206  26.899  35.651  11.651
28678W        W  207  42.843  15.753  13.025
28679W        W  208  26.501  21.120   2.644
28680W        W  209  42.810  19.781   4.879
28681W        W  210  12.327  21.716   0.635
28682W        W  211  38.701  15.934   0.729
28683W        W  212  18.287   5.269   4.052
28684W        W  213   9.522   5.646  14.197
28685W        W  214  42.149  11.174   4.154
28686W        W  215  22.505  13.144   1.453
28687W        W  216   9.261   0.435   1.776
28688W        W  217  14.439  25.733  11.495
28689W        W  218  18.489  16.704  13.808
28690W        W  219  43.900  42.035  12.066
28691W        W  220  11.828   4.132  11.635
28692W        W  221  13.340  16.161   2.792
28693W        W  222  38.999  34.953   1.884
28694W        W  223  37.190  37.807  11.079
28695W        W  224  15.416  42.872  11.999
28696W        W  225   9.982  39.630   1.175
28697W        W  226  41.896  26.034   2.332
28698W        W  227   6.432  28.144  12.072
28699W        W  228  25.994  13.978  14.435
28700W        W  229  40.753  30.461   3.689
28701W        W  230   7.330  26.459   2.662
28702W        W  231  17.960  38.579  14.709
28703W        W  232   1.534   9.662   2.179
28704W        W  233  38.331  23.327  12.049
28705W        W  234  35.428  21.859  13.183
28706W        W  235   2.925  37.091   4.839
28707W        W  236  31.109  11.713   2.264
28708W        W  237  21.687   9.690  14.221
28709W        W  238   7.796   2.445   0.819
28710W        W  239  32.115  22.083   1.321
28711W        W  240  21.254  30.700  13.283
28712W        W  241   9.462   1.083   2.325
28713W        W  242   4.755  39.985   2.787
28714W        W  243  44.855  12.186   0.888
28715W        W  244  14.087   3.288  14.734
28716W        W  245  30.377  21.736   2.808
28717W        W  246  38.979  44.196   1.253
28718W        W  247  27.972  19.711  12.380
28719W        W  248  20.536  10.909  11.635
28720W        W  249   9.769   9.699  13.077
28721W        W  250  15.675  44.559  13.948
28722W        W  251   2.329  16.603   0.984
28723W        W  252  37.470  21.651   0.874
28724W        W  253  16.752  16.103  10.526
28725W        W  254  34.092  14.696   1.187
28726W        W  255   4.348  16.947   4.675
28727W        W  256  30.649  16.207  14.479
28728W        W  257  33.346  27.310  13.833
28729W        W  258   9.636  39.370   3.795
28730W        W  259  26.052  15.948  11.212
28731W        W  260  31.174  13.823   4.129
28732W        W  261  40.549   9.792   3.263
28733W        W  262  29.264  29.132  10.563
28734W        W  263  13.634   5.169  10.822
28735W        W  264  14.760  29.721   4.591
28736W        W  265  35.557  20.825  12.392
28737W        W  266  18.624  10.178  10.649
28738W        W  267   3.060   8.279   0.814
28739W        W  268  21.143  28.896   2.355
28740W        W  269  29.597  32.485   1.713
28741W        W  270  33.537  36.361  10.937
28742W        W  271   9.679  24.233  11.909
28743W        W  272  21.349  44.795  13.246
28744W        W  273  12.283  27.486   2.630
28745W        W  274  13.329  25.536  12.283
28746W        W  275  15.755  18.227   4.851
28747W        W  276  34.505  26.486  11.991
28748W        W  277  10.434   7.849   3.417
28749W        W  278  42.155   6.260  10.692
28750W        W  279  11.244   1.279  12.521
28751W        W  280  13.650  40.123   4.346
28752W        W  281  44.476  39.829   1.254
28753W        W  282  42.709  27.090   0.693
28754W        W  283  28.751   3.669  13.543
28755W        W  284  17.683  13.781   1.317
28756W        W  285   0.181   5.406   1.250
28757W        W  286   9.278  29.370  11.158
28758W        W  287  17.017  42.728   1.335
28759W        W  288  16.440  23.423  12.447
28760W        W  289  14.698   2.245   0.518
28761W        W  290  37.595  15.212  11.931
28762W        W  291  39.136  44.832  13.917
28763W        W  292  27.233   5.483  14.161
28764W        W  293  41.389  39.074   4.506
28765W        W  294   2.341  36.506  13.432
28766W        W  295  16.619  16.747   2.719
28767W        W  296  11.436  27.589   3.749
28768W        W  297  29.570  19.698  12.036
28769W        W  298  25.703   9.864  10.854
28770W        W  299  21.488  19.430   0.418
28771W        W  300   7.683  40.891   1.725
28772W        W  301  24.690  28.938  12.574
28773W        W  302   5.474   9.412  12.709
28774W        W  303  24.839  24.766  14.470
28775W        W  304   1.934  43.080  11.701
28776W        W  305  43.445  18.557  14.625
28777W        W  306  44.179   7.481   1.765
28778W        W  307  13.540  41.030   4.060
28779W        W  308  31.600  44.943   4.281
28780W        W  309  29.363  32.476   4.280
28781W        W  310  18.212  21.695  10.757
28782W        W  311  39.356  40.405   4.422
28783W        W  312   8.880   9.933   0.264
28784W        W  313  35.431   3.284  13.140
28785W        W  314  15.364   5.250  11.342
28786W        W  315   9.613  37.326   0.677
28787W        W  316  23.709  14.933   0.315
28788W        W  317  20.711   5.691   2.729
28789W        W  318  44.037  22.828   4.515
28790W        W  319  28.339  10.682  12.974
28791W        W  320  18.625  29.036  13.523
28792W        W  321  10.618  34.919  12.334
28793W        W  322  12.111  13.530  13.877
28794W        W  323  13.262  24.295   1.518
28795W        W  324  22.082   4.839  13.027
28796W        W  325  16.166   1.435   1.255
28797W        W  326  33.655  22.972   2.302
28798W        W  327   3.904  32.203   4.331
28799W        W  328  30.102   3.307   1.646
28800W        W  329  31.907  12.823   4.274
28801W        W  330  42.769  37.478  12.423
28802W        W  331  15.325  35.496  12.592
28803W        W  332  35.825   2.480  11.969
28804W        W  333  26.153  43.355  11.340
28805W        W  334  17.984   0.529   0.246
28806W        W  335  25.421   0.531   3.350
28807W        W  336  29.631  28.236   3.232
28808W        W  337  32.121  28.483   0.131
28809W        W  338   6.780   1.878   2.313
28810W        W  339  42.419  22.339   4.409
28811W        W  340   4.345  23.553  12.376
28812W        W  341  12.636  26.533  14.778
28813W        W  342  13.556  10.390   3.219
28814W        W  343  21.093  41.490   3.404
28815W        W  344  31.466   9.335  12.993
28816W        W  345  39.390  31.635   0.647
28817W        W  346  35.127  21.705   2.826
28818W        W  347  14.527   1.196   4.731
28819W        W  348  32.371   6.787   0.001
28820W        W  349  44.226  42.946  10.691
28821W        W  350  32.086  15.635  14.875
28822W        W  351  18.594  26.001  12.598
28823W        W  352  13.624  32.832  12.486
28824W        W  353  41.413  30.513   0.485
28825W        W  354  20.011  18.374  14.843
28826W        W  355   3.446  15.856   4.556
28827W        W  356   9.860  27.400   2.936
28828W        W  357  23.744  25.469  13.481
28829W        W  358   5.723  25.034  13.340
28830W        W  359  18.170  16.850  14.190
28831W        W  360  37.263   5.721  13.483
28832W        W  361  35.326  36.630  13.920
28833W        W  362  34.398  17.931  11.552
28834W        W  363   6.674  40.349   3.816
28835W        W  364  25.187  28.629  12.361
28836W        W  365  16.592  10.307  13.984
28837W        W  366   0.240  23.465   4.338
28838W        W  367  38.148   0.018  13.981
28839W        W  368  30.136  29.902   3.715
28840W        W  369  37.440  18.077   1.309
28841W        W  370  41.124  35.478  12.480
28842W        W  371  14.518   4.144   1.732
28843W        W  372  31.148  30.412   0.292
28844W        W  373  19.893  35.720   0.264
28845W        W  374  28.518   6.717  13.578
28846W        W  375  42.099  10.513   0.917
28847W        W  376  42.969  12.228   3.345
28848W        W  377  20.206  17.170   0.553
28849W        W  378  43.709  36.986   4.963
28850W        W  379   9.297  44.464   4.677
28851W        W  380  18.088  22.859   3.220
28852W        W  381  30.867  18.704  14.543
28853W        W  382  30.897  29.660  13.466
28854W        W  383  21.537   6.550   3.189
28855W        W  384  41.679   2.232  14.682
28856W        W  385  23.692  20.245  11.479
28857W        W  386  37.133  42.495   0.862
28858W        W  387  39.007   7.741   3.365
28859W        W  388  37.861  29.582  11.011
28860W        W  389  10.344  15.089   2.248
28861W        W  390  19.059   2.307   1.786
28862W        W  391  32.626  31.924   0.781
28863W        W  392   2.775  18.742  12.908
28864W        W  393  33.860  36.024   2.569
28865W        W  394  30.547  28.525   2.203
28866W        W  395  38.824  38.338   4.071
28867W        W  396  10.173  34.237   0.472
28868W        W  397   1.144  28.664  12.069
28869W        W  398  20.109  21.166   1.615
28870W        W  399  42.258  19.447   1.801
28871W        W  400  25.947  25.990  10.907
28872W        W  401  20.115  22.830   2.929
28873W        W  402  42.896  18.823   3.315
28874W        W  403  12.590   3.304  12.506
28875W        W  404  37.960  42.461   2.189
28876W        W  405  36.166  31.590  14.118
28877W        W  406   7.136  34.684  11.288
28878W        W  407  41.273  39.324   2.684
28879W        W  408  30.235  12.795   3.140
28880W        W  409  39.206  13.633   1.528
28881W        W  410  30.822  29.068   4.270
28882W        W  411  35.507  42.557   1.923
28883W        W  412  29.567  19.904  14.985
28884W        W  413  24.700  39.709   0.808
28885W        W  414  29.173  13.669  11.696
28886W        W  415  10.619   1.218   2.392
28887W        W  416  11.762  41.448   3.585
28888W        W  417   1.949  37.655  12.113
28889W        W  418  10.405  26.000   3.951
28890W        W  419   1.795   3.756   4.105
28891W        W  420   2.779   7.103   0.408
28892W        W  421   4.612  15.640  11.124
28893W        W  422  10.197  42.540  12.915
28894W        W  423  18.406   5.428   1.869
28895W        W  424  40.578  25.907   1.700
28896W        W  425  16.092  43.005  10.232
28897W        W  426  24.251   2.491  11.614
28898W        W  427   7.198  28.944   3.446
28899W        W  428  13.079  19.701   3.110
28900W        W  429  22.716  32.398  12.517
28901W        W  430   6.681   3.983  11.944
28902W        W  431   1.345   4.702   3.370
28903W        W  432  44.801  44.005   3.944
28904W        W  433   4.941  35.979  11.185
28905W        W  434  23.239  15.148  13.619
28906W        W  435  25.934  37.576   2.602
28907W        W  436   0.185  36.227   4.126
28908W        W  437  29.959   3.908   3.418
28909W        W  438  33.277  23.076   3.398
28910W        W  439  29.130  16.905  14.833
28911W        W  440  26.613   8.253   2.804
28912W        W  441   9.395  42.449  14.895
28913W        W  442  40.828   2.337  14.477
28914W        W  443  29.737  41.978   4.118
28915W        W  444  34.426   1.635   3.020
28916W        W  445  24.610   9.589   3.351
28917W        W  446  19.685  28.455   1.020
28918W        W  447   3.084  22.690   0.362
28919W        W  448  34.142   4.631   2.285
28920W        W  449  19.959  34.520  14.884
28921W        W  450  19.820  32.719   1.482
28922W        W  451  37.401  10.281   2.739
28923W        W  452  34.187  19.332  11.612
28924W        W  453  22.167  35.746   3.631
28925W        W  454  19.591  39.109   1.328
28926W        W  455  42.219  44.921   4.193
28927W        W  456  42.895  34.443   9.635
28928W        W  457  22.119  15.813  14.322
28929W        W  458  12.810  35.177   1.291
28930W        W  459  33.583  38.483   0.442
28931W        W  460  26.980  28.194   0.767
28932W        W  461  14.124  16.777   4.171
28933W        W  462  27.549   4.982  11.125
28934W        W  463  44.773  23.460   4.548
28935W        W  464  17.714  22.239  13.127
28936W        W  465  23.057  40.845   4.918
28937W        W  466   9.053  10.751  14.077
28938W        W  467  24.549  33.345  14.066
28939W        W  468  14.912  37.054  13.768
28940W        W  469  18.095   3.582   1.107
28941W        W  470  43.919  29.604  13.310
28942W        W  471  33.056   7.157   0.407
28943W        W  472  13.392  34.363  14.389
28944W        W  473  19.989   6.261   4.071
28945W        W  474  39.472  22.221   2.131
28946W        W  475  41.868  10.225   2.395
28947W        W  476   4.788  33.983  14.300
28948W        W  477  35.534  22.548  13.834
28949W        W  478  44.431  43.338  12.096
28950W        W  479  20.790   6.295  11.212
28951W        W  480   1.337   4.732  12.501
28952W        W  481  11.086  32.542  11.301
28953W        W  482  34.535   0.865   4.075
28954W        W  483  20.944  35.719  14.784
28955W        W  484  44.337  25.262   2.407
28956W        W  485  11.601   0.925   3.063
28957W        W  486  21.131  43.790  13.918
28958W        W  487  34.581  30.197   1.717
28959W        W  488  23.564  14.665   4.729
28960W        W  489  38.972  32.900   0.725
28961W        W  490   6.883  28.051   1.923
28962W        W  491  31.956  41.368   0.749
28963W        W  492  20.067   7.659  11.144
28964W        W  493   1.259  16.535  13.439
28965W        W  494   0.949   9.328   3.897
28966W        W  495  23.008   6.968   0.757
28967W        W  496  10.757  41.158   0.658
28968W        W  497   4.347  19.222  14.778
28969W        W  498   8.784  13.237   1.916
28970W        W  499  23.547  29.636   4.151
28971W        W  500  13.306  24.814   2.805
28972W        W  501  44.368  32.500   4.464
28973W        W  502   9.017  37.702  11.142
28974W        W  503  21.256  22.599  11.970
28975W        W  504   9.181  10.352  11.851
28976W        W  505   7.165  41.447  13.402
28977W        W  506  13.547  19.232  12.151
28978W        W  507  24.135   4.563   0.404
28979W        W  508  25.614  32.140  14.912
28980W        W  509  15.820  23.260   1.843
28981W        W  510   4.950  34.429   2.641
28982W        W  511  20.038  34.873   3.733
28983W        W  512  33.043  22.580  12.535
28984W        W  513  23.484  38.347  12.098
28985W        W  514  42.973  11.326  14.292
28986W        W  515  28.594  43.055   0.657
28987W        W  516  26.528  26.630   1.449
28988W        W  517  41.396  22.633  11.167
28989W        W  518  29.608  39.299   3.576
28990W        W  519  33.902  39.574   4.761
28991W        W  520  38.816   3.877   0.541
28992W        W  521  14.820  36.573  10.481
28993W        W  522  44.499   0.271   4.730
28994W        W  523  20.515  35.511  10.454
28995W        W  524  13.619   4.930   3.211
28996W        W  525  37.073  19.206   3.754
28997W        W  526   4.827  13.355   2.699
28998W        W  527  31.049  27.035  12.053
28999W        W  528  27.025  37.426  10.711
29000W        W  529  22.905  35.572  11.175
29001W        W  530   4.389  24.133  13.540
29002W        W  531  25.288  21.268   2.225
29003W        W  532  17.723  31.947  12.144
29004W        W  533  13.806   0.364   4.255
29005W        W  534  21.783  38.371  11.059
29006W        W  535   2.025   2.464  11.486
29007W        W  536   0.760   1.421   1.345
29008W        W  537  42.776  37.045   2.746
29009W        W  538  27.167  10.717   3.689
29010W        W  539  39.215  37.805  14.931
29011W        W  540  31.019  29.576   4.419
29012W        W  541  22.775  21.276   1.334
29013W        W  542  40.786  11.371   2.138
29014W        W  543  25.105  34.909  11.645
29015W        W  544  31.348  36.342  14.891
29016W        W  545   9.661  36.428   1.837
29017W        W  546  19.067  36.252   2.864
29018W        W  547  15.365  40.786   2.166
29019W        W  548  34.600   7.771   1.766
29020W        W  549  29.140  27.583  11.412
29021W        W  550  12.124  33.834   4.182
29022W        W  551  14.216   1.307  11.840
29023W        W  552  28.382  34.889  12.270
29024W        W  553  34.109  30.539  13.080
29025W        W  554  35.608  20.059  10.620
29026W        W  555  36.380  31.869   0.042
29027W        W  556   6.422  16.209   2.049
29028W        W  557  32.574  27.784   5.060
29029W        W  558  26.431  32.835  10.675
29030W        W  559  13.609  31.113   2.421
29031W        W  560   6.313  22.586   0.976
29032W        W  561  11.201  10.171  14.250
29033W        W  562  12.843   6.248   0.875
29034W        W  563  38.928  37.827  14.497
29035W        W  564  28.559  38.189   1.986
29036W        W  565  25.211  22.988   4.122
29037W        W  566   2.505  19.415   1.303
29038W        W  567  25.907  36.883   1.739
29039W        W  568  12.810   6.725  13.075
29040W        W  569  27.748  18.251   2.470
29041W        W  570  14.233  17.701   4.236
29042W        W  571   9.657   0.925   4.118
29043W        W  572  28.111  32.921   1.890
29044W        W  573   3.663  39.872  11.487
29045W        W  574  28.457  23.518  13.542
29046W        W  575  25.775  42.031   3.143
29047W        W  576  41.190  31.363   0.238
29048W        W  577   8.697  42.271  12.851
29049W        W  578   4.833  34.107  11.218
29050W        W  579  36.560  18.602  11.496
29051W        W  580  22.663   3.758  11.064
29052W        W  581  25.135  30.089   3.060
29053W        W  582  35.538   3.352   4.130
29054W        W  583  44.951  35.435  10.974
29055W        W  584   3.634  32.402  14.829
29056W        W  585  18.349  27.695   4.114
29057W        W  586  22.076  42.843  11.137
29058W        W  587  37.874  26.547   4.116
29059W        W  588   3.068   4.395   4.071
29060W        W  589   4.859  10.404  14.857
29061W        W  590   6.164  15.353  12.510
29062W        W  591  36.914   1.075  13.832
29063W        W  592  22.838  22.955  13.335
29064W        W  593   1.226   5.811   1.706
29065W        W  594  17.348  26.025  13.959
29066W        W  595  35.662   8.657   4.706
29067W        W  596  43.888   2.910   3.689
29068W        W  597   3.136  13.592  13.573
29069W        W  598  16.137   5.556   1.622
29070W        W  599  36.776  15.765  11.205
29071W        W  600  33.943  21.294  12.443
29072W        W  601  17.795  18.579   1.841
29073W        W  602  32.118   2.727   2.884
29074W        W  603  29.438   7.155   3.729
29075W        W  604  43.527  22.970   0.829
29076W        W  605  35.261  35.475   3.150
29077W        W  606  14.650  36.696  11.621
29078W        W  607  32.825  24.437   0.029
29079W        W  608  11.854  25.797  10.097
29080W        W  609   0.202  39.990  14.039
29081W        W  610   9.374  43.368  10.875
29082W        W  611   1.416  34.655   4.049
29083W        W  612  24.994   2.562  12.127
29084W        W  613  39.256  16.122   2.223
29085W        W  614  19.940  27.157  13.854
29086W        W  615  10.189   9.607  10.915
29087W        W  616  15.783  13.842   3.382
29088W        W  617  36.489  14.126  11.207
29089W        W  618  25.061   7.243   4.456
29090W        W  619   7.828  19.766  11.386
29091W        W  620   4.745   6.938  10.910
29092W        W  621  39.456  44.788   4.851
29093W        W  622  40.302   2.562   3.129
29094W        W  623  33.367  40.383   1.131
29095W        W  624  42.919  20.445  14.255
29096W        W  625  18.185  10.673   0.545
29097W        W  626  28.969  33.525  13.397
29098W        W  627   3.712  18.757   1.213
29099W        W  628  11.114  35.554  13.094
29100W        W  629  10.343   1.987  14.313
29101W        W  630  27.488  42.472   3.868
29102W        W  631  21.752  41.815   2.273
29103W        W  632  35.170  14.715   3.645
29104W        W  633  37.269   2.498   1.808
29105W        W  634  35.743  41.757  14.809
29106W        W  635  27.988  17.501  13.407
29107W        W  636  34.180  39.377  11.566
29108W        W  637   1.788  27.908  12.173
29109W        W  638   9.061  19.690   3.152
29110W        W  639  38.872  19.000   2.763
29111W        W  640   6.725  16.210  10.302
29112W        W  641  42.940  25.133  12.344
29113W        W  642  20.752  20.894  12.084
29114W        W  643  15.759  25.664   1.791
29115W        W  644   4.849  33.043  13.888
29116W        W  645  35.456  23.436  10.738
29117W        W  646  17.519   3.399  10.753
29118W        W  647  37.304  39.896  10.319
29119W        W  648  21.417  27.914  14.502
29120W        W  649  36.965  35.834   0.795
29121W        W  650  29.647   2.848  12.190
29122W        W  651  17.064   6.999  10.928
29123W        W  652  28.056  32.432   2.735
29124W        W  653  23.490  30.628  13.349
29125W        W  654  40.061  25.695   0.983
29126W        W  655  33.090   2.492  12.912
29127W        W  656  23.670  21.636   1.959
29128W        W  657  40.964  44.875   4.690
29129W        W  658   0.901  43.779  13.054
29130W        W  659  20.641  21.084   0.836
29131W        W  660  25.508  23.324   0.433
29132W        W  661  27.468   8.846  12.430
29133W        W  662  38.669  12.691   4.718
29134W        W  663  28.495  10.160  13.553
29135W        W  664   9.191  17.054  14.605
29136W        W  665  24.847  28.655  10.221
29137W        W  666  37.353  23.340  12.794
29138W        W  667  10.811   4.398  13.959
29139W        W  668   1.636  15.696  13.348
29140W        W  669   8.277  21.250   3.026
29141W        W  670  15.109  24.651   3.179
29142W        W  671  35.929  37.386  11.789
29143W        W  672  19.314   5.271   0.306
29144W        W  673   0.292  43.711  13.460
29145W        W  674  32.833  40.413  13.467
29146W        W  675  24.004  29.663  12.400
29147W        W  676  37.704  27.080   3.354
29148W        W  677  44.588  37.936  12.464
29149W        W  678  22.939  40.889  11.648
29150W        W  679  20.283   8.774   5.038
29151W        W  680  44.263   5.903  13.835
29152W        W  681  40.431  18.535   4.812
29153W        W  682  17.323  12.711   0.862
29154W        W  683  43.518  34.615   1.687
29155W        W  684   5.345  28.660  11.285
29156W        W  685  15.679  43.977   4.482
29157W        W  686   4.097  29.962   4.887
29158W        W  687  10.198   8.811   0.806
29159W        W  688  10.886  16.662   0.350
29160W        W  689  18.431   4.498  12.942
29161W        W  690  21.363  19.759  10.730
29162W        W  691   5.840  16.113   2.158
29163W        W  692  23.800  26.610  11.615
29164W        W  693  12.613   8.640   1.071
29165W        W  694   3.891  38.009   2.685
29166W        W  695   2.203  23.211  12.836
29167W        W  696  39.251   5.574   3.711
29168W        W  697  39.418  32.624   0.838
29169W        W  698   9.617   8.461  13.011
29170W        W  699  41.783  18.422  14.518
29171W        W  700  34.358  39.837   2.561
29172W        W  701  30.311   1.714  14.389
29173W        W  702   8.762  25.731   0.079
29174W        W  703  44.758   8.963  14.220
29175W        W  704  43.596  31.609  11.632
29176W        W  705   0.768   9.918   1.378
29177W        W  706   2.478  23.036   2.707
29178W        W  707   1.404  40.174   2.915
29179W        W  708  35.077   4.430  10.439
29180W        W  709  16.098  17.640   3.294
29181W        W  710  28.128  43.453  11.240
29182W        W  711   8.791  11.140   1.783
29183W        W  712  15.247  20.091   0.894
29184W        W  713  29.488  19.851   3.964
29185W        W  714  44.566  22.996  14.662
29186W        W  715  24.457  38.414   4.422
29187W        W  716  19.539   2.503  11.951
29188W        W  717  33.058  31.840  12.881
29189W        W  718   3.216  38.047   0.811
29190W        W  719  37.055  19.439   4.234
29191W        W  720   2.409  12.097  10.393
29192W        W  721  27.426   2.490   1.071
29193W        W  722  33.946  29.014  12.972
29194W        W  723  25.294  27.175   4.078
29195W        W  724   2.178  39.569   3.197
29196W        W  725   8.991   4.938  10.351
29197W        W  726   8.238  41.660  12.028
29198W        W  727  40.045  14.703   3.640
29199W        W  728  15.649  32.278  11.217
29200W        W  729  14.915   3.714   0.463
29201W        W  730  38.791  27.938  11.190
29202W        W  731  38.601   8.343  12.461
29203W        W  732  12.264  27.920   1.440
29204W        W  733  34.964  18.404  13.988
29205W        W  734  30.595  27.708  12.391
29206W        W  735  12.307  11.254   1.400
29207W        W  736   1.992   9.384   3.836
29208W        W  737   5.379  35.826  12.983
29209W        W  738  20.819   9.328   0.254
29210W        W  739  41.729  42.849   1.404
29211W        W  740  17.072   7.305   3.609
29212W        W  741   4.447  21.100   2.741
29213W        W  742   1.308  25.494   4.755
29214W        W  743  28.410  41.407  14.974
29215W        W  744  42.892  33.560   1.004
29216W        W  745  26.225  13.625  12.176
29217W        W  746  32.545  44.904   4.652
29218W        W  747  40.284  22.147   2.801
29219W        W  748  13.100  31.607   4.265
29220W        W  749  15.628  16.227  12.036
29221W        W  750  36.640  42.606   0.773
29222W        W  751  42.209  10.125  13.305
29223W        W  752  25.060   8.687  13.386
29224W        W  753   7.653  37.256  14.340
29225W        W  754  14.530  24.655   0.361
29226W        W  755  33.998   9.910  13.718
29227W        W  756  39.002  29.346   2.761
29228W        W  757  24.476  44.702   2.865
29229W        W  758  21.595  15.737  10.655
29230W        W  759  10.581  22.986   1.490
29231W        W  760  22.729   6.918  13.856
29232W        W  761   7.202   1.424  14.804
29233W        W  762  20.996   2.994   1.397
29234W        W  763  31.459  22.457   4.109
29235W        W  764  14.682   9.072   0.453
29236W        W  765  25.767  10.767  12.987
29237W        W  766  18.591  31.052  12.376
29238W        W  767  34.871  31.410  12.992
29239W        W  768  41.474  27.680   3.671
29240W        W  769  36.634   7.306  10.953
29241W        W  770   8.993   2.549   4.133
29242W        W  771   0.790   8.862  14.273
29243W        W  772  14.648  16.403   2.222
29244W        W  773  18.089  33.173   2.864
29245W        W  774  40.029  36.115  13.839
29246W        W  775   2.327   2.708   3.941
29247W        W  776  33.506   2.525  13.225
29248W        W  777  37.548  21.554   2.769
29249W        W  778  38.851  38.505   4.554
29250W        W  779  16.057  14.963  12.955
29251W        W  780  28.717  27.132   4.090
29252W        W  781  42.806  44.501   2.340
29253W        W  782  30.935  10.839  14.053
29254W        W  783   3.351  13.694   2.823
29255W        W  784  18.902  22.533   2.287
29256W        W  785   6.878   8.262   2.830
29257W        W  786  40.548  31.461  14.916
29258W        W  787  44.500  28.205  14.398
29259W        W  788   8.609  21.518   1.255
29260W        W  789   4.514  23.026  13.145
29261W        W  790  14.026   7.260  10.486
29262W        W  791  44.315  28.187  10.664
29263W        W  792  38.557  19.229   2.400
29264W        W  793  31.663  25.827  13.946
29265W        W  794  18.812  28.066   4.961
29266W        W  795   9.046   5.967   4.603
29267W        W  796  25.065  42.967  14.764
29268W        W  797  38.700  25.691  14.713
29269W        W  798   2.343  25.712   0.990
29270W        W  799  32.101  39.262   2.909
29271W        W  800  43.144   3.707   2.762
29272W        W  801  30.153  28.443  11.984
29273W        W  802   3.179  37.239  13.443
29274W        W  803  14.786  33.138   3.768
29275W        W  804   0.823  36.931  14.819
29276W        W  805  44.177  34.427   2.282
29277W        W  806  10.443  33.673  11.111
29278W        W  807  32.070  23.352   0.475
29279W        W  808   8.344  21.961   0.460
29280W        W  809  16.279  32.376  13.407
29281W        W  810   5.180  13.647   3.160
29282W        W  811  38.226   4.300  13.407
29283W        W  812   4.512  26.394   3.280
29284W        W  813  20.342  20.549   4.937
29285W        W  814   7.673  29.620  13.348
29286W        W  815   2.827   4.057   3.739
29287W        W  816   7.787   9.434  14.832
29288W        W  817  43.046  29.645   3.297
29289W        W  818  43.864  20.253   2.827
29290W        W  819  42.724  25.925   4.602
29291W        W  820  24.111  39.541   4.554
29292W        W  821   0.826  42.757   0.157
29293W        W  822  21.139  40.440  14.472
29294W        W  823  43.248  25.339  11.080
29295W        W  824  37.447   9.868  11.946
29296W        W  825   5.688   7.841  12.765
29297W        W  826  18.623  32.406   3.761
29298W        W  827  18.867  12.567  12.983
29299W        W  828  15.597  37.949   0.403
29300W        W  829  27.134  17.329  14.283
29301W        W  830  17.260  21.094   1.314
29302W        W  831  17.259  12.262   3.353
29303W        W  832   1.845  20.128   2.660
29304W        W  833  27.000  15.519  11.957
29305W        W  834   7.178  44.239  14.456
29306W        W  835  19.534  10.471   5.037
29307W        W  836  31.006  21.116   0.431
29308W        W  837  23.597  27.023  12.559
29309W        W  838  18.940  24.127   3.602
29310W        W  839   0.496  14.862  12.029
29311W        W  840   2.759  18.108  10.994
29312W        W  841  20.864  24.508  12.406
29313W        W  842  44.948  37.919   3.329
29314W        W  843   1.996  43.866   0.850
29315W        W  844  27.737  17.322   0.488
29316W        W  845  27.947  31.116   5.107
29317W        W  846  13.673   0.420   2.345
29318W        W  847  11.406  37.417   0.371
29319W        W  848  12.279  24.632  14.535
29320W        W  849  18.731  16.198   1.935
29321W        W  850  40.332  43.707  12.130
29322W        W  851   2.426   9.746   3.151
29323W        W  852  26.376   5.118   0.149
29324W        W  853  20.052   8.700  12.964
29325W        W  854  16.776  20.335   2.151
29326W        W  855  15.670   4.305  14.258
29327W        W  856  35.033  33.846  10.264
29328W        W  857  11.825  33.958  11.943
29329W        W  858  16.034  32.636  14.840
29330W        W  859  23.928  44.631  10.261
29331W        W  860  33.945  22.617   4.342
29332W        W  861  35.442   7.540  10.710
29333W        W  862  23.604  33.680   1.481
29334W        W  863  31.078   0.695   4.161
29335W        W  864  41.943   1.702  12.901
29336W        W  865  24.278  13.692   2.263
29337W        W  866  40.988   3.986   4.821
29338W        W  867  12.826  32.669  14.011
29339W        W  868  30.413  19.519   4.330
29340W        W  869  14.146  16.919  14.759
29341W        W  870  19.820   5.243   2.695
29342W        W  871  35.971  32.193  10.331
29343W        W  872  33.140  38.126  11.191
29344W        W  873  12.854  21.097   4.783
29345W        W  874  44.597  37.079  11.036
29346W        W  875  25.210  27.578  11.051
29347W        W  876  35.026  23.316  12.228
29348W        W  877  32.637  23.085  11.856
29349W        W  878  42.965  23.586   3.322
29350W        W  879  35.005  17.338   4.083
29351W        W  880  36.606   0.499   0.372
29352W        W  881  35.489  27.600   3.715
29353W        W  882   9.888  25.872   2.038
29354W        W  883  26.833  43.915  14.992
29355W        W  884  17.913  44.183  11.967
29356W        W  885  27.949  14.346   2.704
29357W        W  886   6.784   8.741   2.761
29358W        W  887  24.491  34.172   0.176
29359W        W  888   8.239   8.931  11.675
29360W        W  889   8.288  16.814   2.802
29361W        W  890   1.197  43.462  14.452
29362W        W  891   7.880  42.962   0.023
29363W        W  892  31.845   1.275   1.938
29364W        W  893  18.087   0.319   3.157
29365W        W  894  30.005  28.077  14.393
29366W        W  895   0.880  13.729   2.488
29367W        W  896   3.793   1.949   3.143
29368W        W  897  36.947  39.907  13.519
29369W        W  898   5.537  21.476  12.533
29370W        W  899  33.049  29.073   2.630
29371W        W  900  41.097  35.938  10.812
29372W        W  901  29.704  14.263  14.827
29373W        W  902  22.596  35.561   2.266
29374W        W  903  35.500  18.772   2.294
29375W        W  904   0.985  20.621  12.002
29376W        W  905  28.183  32.497  13.617
29377W        W  906  27.955   7.873  13.546
29378W        W  907  11.393   2.862   2.738
29379W        W  908   5.723  14.368   2.722
29380W        W  909  42.410  21.851   1.884
29381W        W  910   0.899  29.829   2.761
29382W        W  911  22.976  11.813   4.135
29383W        W  912  16.098  25.088  13.565
29384W        W  913   3.063  34.006   1.445
29385W        W  914  24.906   3.632  12.382
29386W        W  915   6.115   8.720  10.382
29387W        W  916  10.405  13.755   1.230
29388W        W  917  20.822  20.189   1.010
29389W        W  918  24.219   0.001  13.496
29390W        W  919  19.713  20.289  14.869
29391W        W  920  18.857  21.874   3.395
29392W        W  921   5.886   9.897   0.756
29393W        W  922   4.347  31.788   0.194
29394W        W  923  34.841   6.749   4.182
29395W        W  924   9.943  43.690  12.826
29396W        W  925   5.292  37.122  13.903
29397W        W  926  38.466  10.314   2.696
29398W        W  927   8.676   0.852   0.877
29399W        W  928  14.802  32.428  13.248
29400W        W  929  16.737   5.744   3.863
29401W        W  930   4.947  16.751  14.358
29402W        W  931  27.702  23.996   2.250
29403W        W  932  30.966   0.726   2.844
29404W        W  933   9.710  40.067   3.268
29405W        W  934   7.206   9.584   0.779
29406W        W  935  11.745  26.089   2.127
29407W        W  936   7.400  20.963   0.441
29408W        W  937  34.809  25.639  13.475
29409W        W  938   4.840   7.879   2.929
29410W        W  939   5.323  21.230  12.945
29411W        W  940  34.781  33.049  13.240
29412W        W  941  19.832  14.855   0.332
29413W        W  942   2.920  29.982  13.090
29414W        W  943  11.388  29.120  11.619
29415W        W  944   1.173  18.576   0.091
29416W        W  945  33.459   7.379  10.648
29417W        W  946  25.620  41.417   3.614
29418W        W  947  17.786  27.033  13.037
29419W        W  948  21.948  42.365   4.514
29420W        W  949  27.244  16.709  11.839
29421W        W  950  14.609   5.827  12.842
29422W        W  951  24.559  42.043  14.849
29423W        W  952  39.290  28.198   3.172
29424W        W  953  42.463  32.890  10.544
29425W        W  954  29.088  22.196  11.009
29426W        W  955  12.689   6.309  10.630
29427W        W  956  42.248  33.994  11.506
29428W        W  957  25.897  37.401   3.082
29429W        W  958  42.020   6.113  11.982
29430W        W  959  20.856   0.916  12.516
29431W        W  960  25.487  25.929   3.774
29432W        W  961  44.918  11.226  12.085
29433W        W  962  17.704  22.518   0.720
29434W        W  963  29.696   2.945   1.702
29435W        W  964  30.874  16.339  14.016
29436W        W  965   1.860  30.936   3.818
29437W        W  966  10.815  35.087  10.977
29438W        W  967  29.072  22.580  12.163
29439W        W  968  41.901  27.055  14.814
29440W        W  969  36.596  43.849  11.952
29441W        W  970  31.247   0.314  11.950
29442W        W  971  28.873  23.550  11.662
29443W        W  972  32.349  18.576   4.193
29444W        W  973  32.253  15.712  12.062
29445W        W  974   2.011  28.661   0.488
29446W        W  975  32.454  31.470  13.572
29447W        W  976  33.060  29.438  13.967
29448W        W  977   0.067  35.731   0.702
29449W        W  978  38.874  33.739   4.202
29450W        W  979   3.087  20.276  13.810
29451W        W  980  17.800   7.345   4.154
29452W        W  981  33.937  43.840   3.906
29453W        W  982  43.704  37.566   0.284
29454W        W  983  27.523  15.292  13.178
29455W        W  984  29.023  15.753  10.910
29456W        W  985  27.956  31.061  11.010
29457W        W  986  29.471  34.331  13.399
29458W        W  987  39.693  42.123   3.218
29459W        W  988   9.624  13.806   0.766
29460W        W  989  25.739  36.826  14.918
29461W        W  990   8.348   1.443   2.879
29462W        W  991  27.720  10.659  11.966
29463W        W  992   5.882  35.072   3.869
29464W        W  993  43.110   4.907   3.945
29465W        W  994  15.699  30.193  14.854
29466W        W  995  28.777  44.963  12.403
29467W        W  996  25.222  26.651  10.803
29468W        W  997  23.614  19.725  11.407
29469W        W  998  30.565   3.400   1.397
29470W        W  999  30.335  41.919  14.062
29471W        W 1000  38.844  34.892  12.926
29472W        W 1001   9.847  44.240   1.843
29473W        W 1002   0.387  31.387   0.798
29474W        W 1003  36.787   2.436  11.939
29475W        W 1004  16.791   9.038  13.127
29476W        W 1005  44.738  24.552  13.763
29477W        W 1006  13.529  39.615  13.027
29478W        W 1007  28.565  28.337  12.737
29479W        W 1008   6.797  27.584   2.137
29480W        W 1009  14.316  19.866   5.042
29481W        W 1010   8.431  43.226   1.700
29482W        W 1011  29.572   3.631   3.658
29483W        W 1012  20.898   5.521  13.451
29484W        W 1013  39.737  44.790  11.028
29485W        W 1014  30.204  41.989  11.078
29486W        W 1015  16.198  42.326  14.994
29487W        W 1016  19.210  12.131  12.441
29488W        W 1017  44.864   0.803  13.397
29489W        W 1018  31.465  35.979   1.376
29490W        W 1019  33.871  34.081   2.707
29491W        W 1020  33.975   3.672   4.189
29492W        W 1021  19.751  21.947   3.443
29493W        W 1022  37.780  18.785  14.387
29494W        W 1023  35.057  11.590  12.805
29495W        W 1024  26.401  12.208   2.309
29496W        W 1025  15.630  31.878   1.043
29497W        W 1026  43.014  16.477  11.763
29498W        W 1027  31.511  16.705   4.719
29499W        W 1028  44.042  42.287   4.370
29500W        W 1029  23.510   4.716   4.188
29501W        W 1030  10.489  30.761  12.447
29502W        W 1031   5.113  10.849  11.121
29503W        W 1032  27.709  14.664  12.847
29504W        W 1033  18.338  10.216  13.046
29505W        W 1034  41.809  37.933   4.969
29506W        W 1035   7.321   3.272  13.615
29507W        W 1036  16.173  27.396   4.184
29508W        W 1037  38.103  29.125   3.497
29509W        W 1038  20.287  14.946  11.207
29510W        W 1039  38.918  23.582   4.627
29511W        W 1040  34.817  11.264   1.858
29512W        W 1041  15.657  37.023   1.518
29513W        W 1042  22.899  10.282   1.012
29514W        W 1043  11.724   9.978  10.320
29515W        W 1044  23.234   0.200  10.834
29516W        W 1045  19.975  42.843   3.669
29517W        W 1046  12.841  21.657   3.317
29518W        W 1047  34.592  13.324  12.664
29519W        W 1048  27.213   7.416   2.318
29520W        W 1049   6.896  41.911  12.894
29521W        W 1050  11.634  24.704  14.187
29522W        W 1051  13.146  22.529   3.582
29523W        W 1052  41.247   9.699  11.625
29524W        W 1053  24.525  38.967   0.525
29525W        W 1054  33.099  28.350  12.020
29526W        W 1055  37.515  43.759  13.051
29527W        W 1056  17.811  16.290   0.333
29528W        W 1057  41.382  24.559   3.904
29529W        W 1058  38.915  37.338   5.026
29530W        W 1059  16.570  40.087  13.480
29531W        W 1060  15.550  23.524  12.593
29532W        W 1061   9.045   7.646  11.948
29533W        W 1062  28.453  31.606   4.182
29534W        W 1063  13.120   9.623   2.855
29535W        W 1064  28.430  10.834   2.334
29536W        W 1065   5.683  42.395  12.878
29537W        W 1066  34.372  36.308  13.473
29538W        W 1067  17.039  25.933   2.301
29539W        W 1068   2.026  42.377   0.530
29540W        W 1069   9.427  30.341   5.060
29541W        W 1070  38.146  21.553  13.425
29542W        W 1071  31.004  22.823   0.853
29543W        W 1072  21.731  24.551  12.619
29544W        W 1073  13.131  26.472  11.571
29545W        W 1074  31.965  42.103   5.063
29546W        W 1075  29.895   7.381   1.441
29547W        W 1076  17.084  27.188   0.259
29548W        W 1077  24.290  32.593  12.544
29549W        W 1078  13.533  20.975  12.704
29550W        W 1079  31.994   3.837   1.299
29551W        W 1080   8.891   6.265   3.650
29552W        W 1081  34.068  17.228  11.214
29553W        W 1082   1.604  13.436   4.104
29554W        W 1083  20.956  19.657   1.005
29555W        W 1084  29.073  22.286   1.096
29556W        W 1085  19.025   3.753  10.481
29557W        W 1086  24.945  25.633   3.676
29558W        W 1087  11.809  21.235   0.022
29559W        W 1088   1.252  33.987   1.068
29560W        W 1089   6.188  38.048  13.003
29561W        W 1090  39.144  35.172  12.614
29562W        W 1091  14.614  18.280   1.231
29563W        W 1092   9.018  35.037   3.306
29564W        W 1093   2.430  42.015   1.922
29565W        W 1094  36.888  20.193   0.620
29566W        W 1095   7.344  10.829   2.250
29567W        W 1096  31.553  16.963   2.236
29568W        W 1097  11.862  44.227  14.138
29569W        W 1098   6.330   0.581   0.387
29570W        W 1099  20.943  38.020  13.025
29571W        W 1100   2.526  29.440   1.863
29572W        W 1101  34.651  31.097  14.811
29573W        W 1102  40.138  16.728  12.480
29574W        W 1103   7.157  40.625   1.269
29575W        W 1104  31.921  42.604  12.569
29576W        W 1105  37.568  38.376   3.752
29577W        W 1106   4.636  17.217   4.195
29578W        W 1107  44.837  25.767  11.237
29579W        W 1108  11.386  18.171   2.907
29580W        W 1109  22.737  14.284   4.557
29581W        W 1110  44.960  13.551  14.451
29582W        W 1111  40.470  34.671  14.842
29583W        W 1112  43.049  11.618  12.378
29584W        W 1113   1.923  28.577  12.945
29585W        W 1114  32.093  15.566  12.606
29586W        W 1115  19.334  36.309   1.234
29587W        W 1116  21.670   2.424   2.475
29588W        W 1117   4.890  30.112   4.097
29589W        W 1118  13.022   2.605  13.659
29590W        W 1119  43.304  18.456   2.198
29591W        W 1120   1.698  21.153   4.506
29592W        W 1121  16.531  27.521   2.178
29593W        W 1122  12.734  30.351  13.079
29594W        W 1123  15.055  12.616   1.283
29595W        W 1124  37.446  19.731   2.286
29596W        W 1125  32.292  28.145   5.279
29597W        W 1126   6.664  44.368   0.917
29598W        W 1127  22.121  29.460   2.541
29599W        W 1128  35.447  39.516   0.568
29600W        W 1129  26.224  26.238  13.900
29601W        W 1130  41.865  21.111  11.668
29602W        W 1131  10.057  33.037   1.431
29603W        W 1132  18.172   2.657  12.894
29604W        W 1133  28.701  21.800   4.323
29605W        W 1134  10.437  25.738  14.408
29606W        W 1135  39.737   6.850  13.943
29607W        W 1136  21.266  36.990   4.990
29608W        W 1137  10.340   1.690  10.640
29609W        W 1138  31.472   9.622   2.165
29610W        W 1139  28.728  20.090   2.722
29611W        W 1140  30.964  14.672   2.408
29612W        W 1141  38.590  13.934   0.208
29613W        W 1142  40.091   2.805  12.875
29614W        W 1143   8.084  22.762   4.485
29615W        W 1144  34.248   4.042  10.782
29616W        W 1145  44.232  32.679  11.448
29617W        W 1146  26.518  28.903  11.092
29618W        W 1147  25.023  20.148  10.911
29619W        W 1148  21.945   8.804   4.541
29620W        W 1149   0.204  43.473   4.560
29621W        W 1150  39.991  24.758   1.482
29622W        W 1151  20.513  23.257   1.937
29623W        W 1152   1.935  39.909   2.220
29624W        W 1153  19.594   0.691  11.698
29625W        W 1154  32.019   5.594  11.882
29626W        W 1155  25.150   3.754  13.237
29627W        W 1156  18.660  25.998   2.444
29628W        W 1157  26.764  24.148   2.095
29629W        W 1158   9.897  16.777  12.527
29630W        W 1159   5.250  27.492   2.287
29631W        W 1160   3.855  43.361  12.303
29632W        W 1161  22.520  19.092   1.892
29633W        W 1162  38.329   5.528   4.112
29634W        W 1163  17.096  23.496   2.247
29635W        W 1164  35.073  19.259  14.355
29636W        W 1165  31.166   4.867  10.347
29637W        W 1166  44.833  35.025   2.347
29638W        W 1167  31.606  35.856  14.525
29639W        W 1168  44.651   4.130  13.862
29640W        W 1169  40.257  35.698  10.379
29641W        W 1170  21.623  22.214  11.867
29642W        W 1171  27.990   2.927   1.890
29643W        W 1172  33.935  11.737  14.449
29644W        W 1173  25.624  39.007  13.053
29645W        W 1174  40.492  33.910  13.835
29646W        W 1175  26.045  14.198   3.383
29647W        W 1176  43.870  23.263  14.555
29648W        W 1177  15.742  12.112   4.788
29649W        W 1178  28.482  42.351  12.480
29650W        W 1179   5.726  19.894   2.131
29651W        W 1180  27.155  20.733  12.066
29652W        W 1181  40.052   0.393  13.216
29653W        W 1182  41.542  30.805   1.766
29654W        W 1183  32.478  10.944  13.620
29655W        W 1184  26.714  37.426   1.921
29656W        W 1185  28.015  17.701  12.908
29657W        W 1186  32.436  38.241  14.731
29658W        W 1187  30.535  36.419   3.701
29659W        W 1188   5.597  20.657   0.361
29660W        W 1189  21.170  29.936   4.243
29661W        W 1190  26.227  21.659   3.350
29662W        W 1191  39.782  22.482   4.175
29663W        W 1192  13.631  23.259  13.539
29664W        W 1193  18.066   2.761  12.008
29665W        W 1194   3.262  28.020   3.313
29666W        W 1195   4.807   4.859  12.051
29667W        W 1196  29.370  11.180   0.718
29668W        W 1197  23.917  35.849   3.630
29669W        W 1198   4.926  38.586   0.058
29670W        W 1199  16.757   9.721  12.382
29671W        W 1200  34.080  19.520  14.530
29672W        W 1201  24.132  18.568  10.838
29673W        W 1202  36.971  29.064  11.839
29674W        W 1203  15.704  35.803   0.458
29675W        W 1204  30.966  19.557  13.821
29676W        W 1205  33.468  12.547  12.432
29677W        W 1206  43.710  34.719   5.056
29678W        W 1207  26.844  43.934  13.085
29679W        W 1208  30.578   0.971   4.613
29680W        W 1209  19.620   0.223   3.832
29681W        W 1210  18.343  42.959  11.705
29682W        W 1211   0.747  32.543  14.870
29683W        W 1212  20.352   3.979   2.378
29684W        W 1213  35.393  18.975   2.769
29685W        W 1214  16.165  37.561  14.819
29686W        W 1215   5.579  43.704  12.439
29687W        W 1216  28.604  38.097  11.455
29688W        W 1217   8.608   3.425  12.606
29689W        W 1218  42.411  43.433  12.373
29690W        W 1219  25.952  16.088  13.622
29691W        W 1220  11.364  33.771  14.005
29692W        W 1221   5.838  21.064   4.374
29693W        W 1222  28.754  42.306  12.916
29694W        W 1223  12.234  19.348   4.528
29695W        W 1224  35.136   5.141   3.671
29696W        W 1225   9.398   3.870  14.060
29697W        W 1226  16.223  22.239  14.808
29698W        W 1227  32.553   8.425  10.710
29699W        W 1228  34.354  41.275  14.921
29700W        W 1229   8.028  36.052  10.685
29701W        W 1230  19.025  43.527  11.723
29702W        W 1231  40.302  28.311   0.016
29703W        W 1232  26.669  44.210   4.555
29704W        W 1233  31.298  19.573  11.542
29705W        W 1234   6.278  17.532   2.634
29706W        W 1235  17.577  24.682   1.013
29707W        W 1236  43.965  17.144   4.205
29708W        W 1237  23.926  37.008  14.893
29709W        W 1238  43.870  13.088  14.042
29710W        W 1239  15.536  10.637   1.239
29711W        W 1240  41.591  22.637   4.600
29712W        W 1241   1.696  34.475   0.522
29713W        W 1242  36.870  14.927   1.349
29714W        W 1243  25.808  20.603  11.995
29715W        W 1244  36.378  39.329   0.012
29716W        W 1245  21.758  44.951   0.801
29717W        W 1246  29.558  42.528   2.201
29718W        W 1247  37.559  33.227   2.170
29719W        W 1248  35.474   3.484   0.763
29720W        W 1249  16.240  44.762   0.289
29721W        W 1250  41.808  36.911   0.355
29722W        W 1251  43.757  10.798  12.948
29723W        W 1252  44.062  16.728  14.577
29724W        W 1253  14.565   0.945  12.514
29725W        W 1254  35.961  23.489   4.530
29726W        W 1255  42.687  44.961  13.402
29727W        W 1256   8.859  30.433   0.427
29728W        W 1257  20.813  10.815   0.443
29729W        W 1258   7.413   9.097  14.933
29730W        W 1259  14.446  14.123  14.052
29731W        W 1260   6.200  22.488  11.486
29732W        W 1261  23.509  34.038   3.146
29733W        W 1262  36.355   1.272   2.869
29734W        W 1263  28.589  43.712  11.097
29735W        W 1264  23.995  18.456   3.718
29736W        W 1265  24.537  25.974   3.607
29737W        W 1266  19.616  13.625   1.048
29738W        W 1267   1.684  23.074   0.577
29739W        W 1268  34.791  43.324  10.660
29740W        W 1269   8.418  20.598  13.912
29741W        W 1270   9.090   8.286   2.763
29742W        W 1271  24.567  37.514   3.496
29743W        W 1272  39.521  21.034  11.528
29744W        W 1273  40.466   4.661   4.664
29745W        W 1274  36.544  23.724   1.293
29746W        W 1275  33.133   4.656  10.319
29747W        W 1276  29.591  40.592   0.797
29748W        W 1277  13.804  37.837   1.216
29749W        W 1278  37.020  17.216   0.715
29750W        W 1279  33.356  31.517   3.196
29751W        W 1280   8.021  27.614   0.791
29752W        W 1281  18.578  41.462  12.390
29753W        W 1282  10.390  14.342   0.488
29754W        W 1283   1.496  27.019  11.873
29755W        W 1284  23.055  19.345  12.403
29756W        W 1285  30.641  26.311   1.944
29757W        W 1286  40.782   2.737   3.063
29758W        W 1287  44.176  26.647  11.951
29759W        W 1288   4.198  25.477   0.472
29760W        W 1289  19.849  22.113  14.822
29761W        W 1290  34.300  16.470   2.321
29762W        W 1291  38.817  39.633  13.864
29763W        W 1292  16.564   3.226   2.340
29764W        W 1293  38.116  35.912   2.107
29765W        W 1294   6.260  44.581   4.202
29766W        W 1295   5.388  15.249  11.121
29767W        W 1296  35.994  39.464  14.686
29768W        W 1297  16.574  36.431  12.521
29769W        W 1298  10.714  40.004   1.573
29770W        W 1299  42.953  34.548   1.007
29771W        W 1300  29.328  32.433  10.273
29772W        W 1301   9.460  25.545  12.962
29773W        W 1302  44.620  36.030   0.845
29774W        W 1303  36.840  34.848  13.002
29775W        W 1304   6.416  19.310   1.416
29776W        W 1305  34.580   4.733   1.226
29777W        W 1306   0.591   0.014  10.612
29778W        W 1307  33.152  33.441  12.766
29779W        W 1308  42.053  14.759  13.669
29780W        W 1309  13.642  29.222   3.865
29781W        W 1310  11.281  20.758  14.434
29782W        W 1311  26.545  35.882   2.225
29783W        W 1312  40.606  42.938  13.652
29784W        W 1313   8.595  40.405  13.549
29785W        W 1314  10.341  16.191   4.635
29786W        W 1315  19.289  42.979  11.139
29787W        W 1316  38.976  15.602   5.114
29788W        W 1317  26.555  28.915   4.115
29789W        W 1318  30.562  32.491   2.832
29790W        W 1319  41.532  24.072   1.757
29791W        W 1320  41.390   8.154   1.749
29792W        W 1321  38.526   5.974  11.555
29793W        W 1322  34.286   4.933   4.634
29794W        W 1323  35.273   9.848   3.215
29795W        W 1324  36.848  39.924   1.856
29796W        W 1325  18.595  10.647   4.851
29797W        W 1326   3.353   5.435   4.457
29798W        W 1327   6.901  34.343   0.675
29799W        W 1328  27.489  39.837   1.502
29800W        W 1329  31.324  17.275  14.073
29801W        W 1330   1.163  20.583  14.613
29802W        W 1331  12.227   4.835   0.023
29803W        W 1332  26.697   4.262   3.866
29804W        W 1333  16.123  31.758   0.397
29805W        W 1334   9.235  34.612  11.683
29806W        W 1335   4.316  37.575   2.658
29807W        W 1336  29.868  25.780  14.489
29808W        W 1337  24.760   8.855  13.769
29809W        W 1338  23.046  32.918   3.551
29810W        W 1339   2.538  14.134  13.023
29811W        W 1340   0.170  25.993  10.641
29812W        W 1341  30.993   3.473  13.463
29813W        W 1342  35.085  41.233   1.704
29814W        W 1343  13.191  25.178  13.574
29815W        W 1344  13.710   0.373   0.823
29816W        W 1345  39.446  25.547   4.515
29817W        W 1346  40.799  12.382  11.067
29818W        W 1347  34.542  41.082   4.317
29819W        W 1348  24.267  16.039  12.031
29820W        W 1349   3.675  30.397   4.141
29821W        W 1350   1.944  20.490  14.284
29822W        W 1351  34.592   4.441   2.503
29823W        W 1352  10.268  29.661   2.747
29824W        W 1353  14.645  17.371   1.666
29825W        W 1354   3.270  20.572  12.582
29826W        W 1355   2.049  29.041   2.783
29827W        W 1356  40.921  24.636   3.202
29828W        W 1357  39.414  14.579   1.917
29829W        W 1358   3.263  28.945  12.037
29830W        W 1359  42.610  24.156   0.886
29831W        W 1360  16.586  31.094  14.091
29832W        W 1361  17.550  12.030  11.699
29833W        W 1362   6.266  13.540  10.156
29834W        W 1363  24.192  11.292  13.454
29835W        W 1364  34.102  15.093   2.100
29836W        W 1365   1.816  36.103   0.694
29837W        W 1366  36.133  11.841   2.820
29838W        W 1367  37.661  38.661  10.282
29839W        W 1368   6.238  10.382  14.396
29840W        W 1369  36.280  31.486  14.616
29841W        W 1370   3.727  11.257  11.919
29842W        W 1371  39.280  39.943  14.689
29843W        W 1372  14.165  33.209  13.284
29844W        W 1373  34.027  44.772   4.848
29845W        W 1374  20.601  31.541   3.467
29846W        W 1375   4.011   1.007  11.291
29847W        W 1376  40.621  43.254   0.768
29848W        W 1377   2.872  18.548  11.735
29849W        W 1378  22.934  37.390  11.830
29850W        W 1379  17.035  37.258   4.130
29851W        W 1380  13.482  32.521   1.758
29852W        W 1381  41.581  24.752   1.967
29853W        W 1382  18.620  23.290  12.945
29854W        W 1383  44.312  22.272  13.476
29855W        W 1384   6.259  36.373  10.695
29856W        W 1385  24.120  23.149   3.939
29857W        W 1386  26.615   7.488   0.239
29858W        W 1387  16.598  40.379   4.688
29859W        W 1388  29.185  32.223   1.911
29860W        W 1389  10.867  26.735   3.193
29861W        W 1390  30.526  18.261  10.870
29862W        W 1391  42.162  27.771  13.992
29863W        W 1392  29.794   4.402   2.838
29864W        W 1393  43.940  12.055  12.005
29865W        W 1394  40.281  15.365  13.400
29866W        W 1395   4.819  27.290  10.581
29867W        W 1396  33.066   9.201  10.448
29868W        W 1397  29.044  42.950   4.181
29869W        W 1398   3.586  35.071  12.101
29870W        W 1399  27.531  31.880  12.329
29871W        W 1400  30.961  18.740   0.061
29872W        W 1401  25.916  37.309   0.829
29873W        W 1402   7.731  36.572   0.367
29874W        W 1403  41.266  18.229  11.656
29875W        W 1404  44.502  38.805   0.679
29876W        W 1405  28.489  32.153  13.093
29877W        W 1406  18.080  34.661  14.456
29878W        W 1407   5.977  11.213  11.477
29879W        W 1408  17.355  12.695  14.146
29880W        W 1409  14.687   5.624  13.320
29881W        W 1410   7.390  17.428   4.227
29882W        W 1411   7.515   2.421   1.251
29883W        W 1412  26.833  40.414  12.828
29884W        W 1413  14.216  25.737  13.293
29885W        W 1414  44.433  15.683   2.196
29886W        W 1415   3.483  29.378  14.032
29887W        W 1416  42.450  37.410   2.336
29888W        W 1417  34.564  33.949   1.216
29889W        W 1418  37.958   7.733   3.637
29890W        W 1419  37.047  22.025  12.574
29891W        W 1420   1.019   4.884  13.998
29892W        W 1421  44.235  40.382  13.836
29893W        W 1422   4.821  42.310   2.857
29894W        W 1423   5.399  17.764  14.703
29895W        W 1424   9.461  23.770  12.845
29896W        W 1425  11.753  17.758  14.810
29897W        W 1426  17.763   4.382  14.590
29898W        W 1427  25.278  20.837  14.287
29899W        W 1428   2.896  11.264   4.127
29900W        W 1429   1.098   8.117  13.913
29901W        W 1430  11.942  21.633   4.046
29902W        W 1431  43.047  29.688   1.944
29903W        W 1432  16.303  43.264   2.299
29904W        W 1433  18.683  29.547  13.327
29905W        W 1434   2.846  13.799   3.959
29906W        W 1435  26.989  32.431   1.293
29907W        W 1436   8.420   6.157  13.339
29908W        W 1437  11.555  14.272   1.837
29909W        W 1438  32.934  36.108  11.491
29910W        W 1439  34.048  15.797  10.683
29911W        W 1440   6.203  28.458  10.741
29912W        W 1441  16.775  32.191   4.512
29913W        W 1442  35.954  32.074  11.350
29914W        W 1443  28.748   3.048   1.440
29915W        W 1444   3.299  22.294   3.707
29916W        W 1445  18.055  40.085  11.733
29917W        W 1446  17.068   0.944   2.812
29918W        W 1447  30.926   7.394   4.604
29919W        W 1448  27.526   4.937  12.902
29920W        W 1449   6.306  17.338   4.557
29921W        W 1450  33.311  21.880  11.979
29922W        W 1451   7.345   4.723  11.074
29923W        W 1452  41.730  41.384  14.104
29924W        W 1453  16.166  38.342  12.603
29925W        W 1454  10.635  24.732   4.141
29926W        W 1455  34.856  24.948   2.278
29927W        W 1456  29.704   1.488  14.103
29928W        W 1457  15.081  23.860   3.631
29929W        W 1458  17.555  32.142  10.767
29930W        W 1459  38.331  42.786   1.524
29931W        W 1460  19.740   3.685   4.531
29932W        W 1461  36.921  14.691   0.811
29933W        W 1462  15.707   1.532   0.785
29934W        W 1463   7.879  10.968  12.882
29935W        W 1464  25.759  18.868  11.670
29936W        W 1465  34.134   0.932  11.537
29937W        W 1466   6.262  18.111  10.274
29938W        W 1467   6.382  14.537   3.711
29939W        W 1468   8.843   7.729  10.874
29940W        W 1469  18.570   1.751   3.330
29941W        W 1470  13.170  20.629   3.608
29942W        W 1471  16.797  33.478   2.172
29943W        W 1472  10.095   7.288  13.815
29944W        W 1473  20.703   4.685   3.493
29945W        W 1474  30.997  35.145  14.313
29946W        W 1475  14.710  12.884   3.612
29947W        W 1476  40.901  29.640   4.141
29948W        W 1477  14.611  16.773   0.863
29949W        W 1478  11.343   3.206  10.685
29950W        W 1479  35.787  40.502  13.971
29951W        W 1480  35.394  10.709  13.324
29952W        W 1481  41.974   8.412  10.489
29953W        W 1482  17.295  20.579  13.145
29954W        W 1483  24.923  19.595   3.596
29955W        W 1484  37.510  11.856  12.083
29956W        W 1485  33.042  20.708   3.935
29957W        W 1486  22.978   6.819   4.283
29958W        W 1487  26.049  15.145   3.392
29959W        W 1488  31.094  13.082   1.430
29960W        W 1489   9.943  19.232  14.776
29961W        W 1490  18.127  14.695   4.056
29962W        W 1491  40.955  15.584  12.328
29963W        W 1492   6.619  33.962  10.811
29964W        W 1493   2.923  34.697  14.910
29965W        W 1494  20.938  26.216   5.054
29966W        W 1495  16.001  24.524   2.616
29967W        W 1496  33.730  18.790  13.419
29968W        W 1497  10.279   6.371   2.693
29969W        W 1498  18.151  26.113   0.823
29970W        W 1499  44.389  22.752   0.435
29971W        W 1500   2.822  14.587   4.480
29972W        W 1501  37.972  28.457  11.956
29973W        W 1502  14.771  26.231   2.282
29974W        W 1503  10.583   8.376   1.376
29975W        W 1504  39.937   6.845   1.861
29976W        W 1505  35.043  33.600   0.908
29977W        W 1506  32.917   2.451  13.862
29978W        W 1507  15.326  41.348   2.251
29979W        W 1508  20.225   3.335  10.934
29980W        W 1509   3.277  16.025  13.365
29981W        W 1510  15.170  37.198  12.870
29982W        W 1511  23.973  21.501  14.567
29983W        W 1512  12.864  10.852   0.288
29984W        W 1513  28.364  13.827   3.544
29985W        W 1514  20.698  25.132  12.207
29986W        W 1515  24.264  13.368  13.323
29987W        W 1516   0.057  21.603  14.310
29988W        W 1517  35.726  23.589  13.064
29989W        W 1518  14.175   7.760   0.862
29990W        W 1519   5.698   7.639   4.697
29991W        W 1520  29.122  14.676   0.938
29992W        W 1521  37.206  40.532  12.162
29993W        W 1522  34.666   1.057  14.532
29994W        W 1523  15.330   3.389   3.684
29995W        W 1524  24.732  31.922   2.701
29996W        W 1525   2.682   3.991  13.282
29997W        W 1526  36.837  30.603   3.624
29998W        W 1527   2.738  40.494   3.893
29999W        W 1528   6.363  41.914   4.701
30000W        W 1529   4.847  44.375   4.299
30001W        W 1530  18.709  34.278  13.483
30002W        W 1531  13.695  24.051  12.566
30003W        W 1532  43.491   8.168   2.206
30004W        W 1533  30.132  30.393   4.599
30005W        W 1534  38.355   1.062  13.323
30006W        W 1535  44.783   4.249  10.688
30007W        W 1536  34.198  40.644   0.786
30008W        W 1537  14.795  19.690   2.301
30009W        W 1538  33.001   4.427  12.440
30010W        W 1539  11.178  14.122   2.771
30011W        W 1540  33.834  38.910   3.755
30012W        W 1541  25.755  12.667  11.993
30013W        W 1542   0.269  22.690  12.562
30014W        W 1543  22.073  10.460   1.429
30015W        W 1544  15.617   9.233  14.455
30016W        W 1545  16.841  18.271  12.250
30017W        W 1546  30.096   3.527   0.322
30018W        W 1547  28.862  25.957  11.527
30019W        W 1548  22.596  33.188   1.869
30020W        W 1549   6.245  38.569  12.972
30021W        W 1550  38.773  13.250  14.282
30022W        W 1551   3.854   9.226   4.070
30023W        W 1552  14.297  33.414   3.645
30024W        W 1553  18.200  15.944  12.078
30025W        W 1554  23.856  16.606   0.723
30026W        W 1555   9.834  31.043  10.629
30027W        W 1556  32.713  42.486   0.453
30028W        W 1557  16.385   6.529   3.911
30029W        W 1558  39.746   5.765   4.614
30030W        W 1559  43.482   1.631   0.758
30031W        W 1560   5.901  16.854  12.764
30032W        W 1561  23.957  44.618   1.796
30033W        W 1562   0.289   2.722   3.718
30034W        W 1563  13.134  23.115   4.519
30035W        W 1564  25.686  15.908   0.870
30036W        W 1565  43.908  10.668  13.856
30037W        W 1566  32.884  29.932  13.977
30038W        W 1567  41.233  32.752  11.165
30039W        W 1568  39.715  30.393  14.030
30040W        W 1569  17.072  16.148   4.896
30041W        W 1570  34.819  37.976   2.247
30042W        W 1571  33.461  19.148  14.460
30043W        W 1572   8.288  31.072  14.661
30044W        W 1573   9.713  37.211  13.162
30045W        W 1574  13.997  13.061   0.664
30046W        W 1575  40.120   7.215   3.733
30047W        W 1576   0.420  15.853  14.414
30048W        W 1577   5.670  20.845   9.425
30049W        W 1578   7.330  17.182   0.947
30050W        W 1579   6.338  15.555   2.854
30051W        W 1580  43.731  21.086  10.517
30052W        W 1581  38.126   7.030   1.725
30053W        W 1582  34.721   4.911   2.687
30054W        W 1583  36.586   1.979  11.094
30055W        W 1584  14.117   8.433   0.314
30056W        W 1585   2.563  14.215  12.162
30057W        W 1586  24.525  21.024   2.749
30058W        W 1587   6.425   6.814  14.885
30059W        W 1588   1.766  19.582  12.932
30060W        W 1589   7.960  17.710   9.888
30061W        W 1590  11.287   8.781   2.318
30062W        W 1591  32.325  29.147   3.200
30063W        W 1592  13.879   6.978   1.498
30064W        W 1593  41.781   6.764  14.265
30065W        W 1594  37.533  42.399  10.994
30066W        W 1595  34.830  18.637   1.315
30067W        W 1596  39.392   5.916   3.286
30068W        W 1597   3.889   6.655   3.104
30069W        W 1598  44.179  27.122  14.943
30070W        W 1599   7.306  24.661   0.217
30071W        W 1600  42.600  17.781  11.612
30072W        W 1601  10.193  10.700  12.653
30073W        W 1602   2.549  42.318  12.137
30074W        W 1603  44.853  18.054   1.962
30075W        W 1604  36.798  24.797   2.808
30076W        W 1605  14.605  24.485   2.630
30077W        W 1606   2.309  16.124  10.645
30078W        W 1607  11.629   2.916   2.234
30079W        W 1608  19.057   4.165  14.510
30080W        W 1609   6.969  20.638   5.097
30081W        W 1610  24.839  22.684  13.534
30082W        W 1611  24.457  25.932   3.110
30083W        W 1612  13.137  44.808  12.311
30084W        W 1613   5.161  35.902  12.539
30085W        W 1614   7.930  28.434  13.038
30086W        W 1615  11.025  36.369   4.785
30087W        W 1616  21.179  41.149  11.199
30088W        W 1617  13.321  37.929   2.345
30089W        W 1618  26.074   1.962   1.471
30090W        W 1619  12.282  34.710   1.070
30091W        W 1620  32.578  42.544  13.947
30092W        W 1621  20.212  13.914   0.531
30093W        W 1622   6.863  16.171  11.271
30094W        W 1623   5.392  25.570  14.890
30095W        W 1624   9.717  36.018   4.804
30096W        W 1625  43.257  43.758  14.611
30097W        W 1626  11.840  22.765  12.424
30098W        W 1627   4.635  21.222  11.545
30099W        W 1628  23.507  33.938  12.501
30100W        W 1629  14.595  18.293   4.122
30101W        W 1630   0.104  15.636   4.395
30102W        W 1631  24.712  44.089   2.198
30103W        W 1632  28.573  12.118  14.903
30104W        W 1633  13.539  35.470  13.009
30105W        W 1634  21.952  12.888  14.759
30106W        W 1635  18.478   9.102   0.959
30107W        W 1636   0.805  42.401   1.370
30108W        W 1637  22.812   2.639  11.439
30109W        W 1638   3.586   1.692   1.467
30110W        W 1639  23.661  27.129  11.526
30111W        W 1640  26.158  13.886  11.232
30112W        W 1641  39.137   4.956   4.602
30113W        W 1642   9.645  34.494   1.232
30114W        W 1643  42.016   2.442  14.336
30115W        W 1644  12.063  44.218   4.147
30116W        W 1645  44.979  13.595   4.743
30117W        W 1646  31.957  37.362   4.815
30118W        W 1647  16.161  10.139   2.128
30119W        W 1648  30.922   3.989   2.448
30120W        W 1649  32.888  32.673  11.604
30121W        W 1650  34.729  44.413  14.064
30122W        W 1651  37.904  25.747  11.448
30123W        W 1652   1.033  29.492  14.814
30124W        W 1653  14.743  39.558  11.399
30125W        W 1654   0.588  17.508  11.524
30126W        W 1655  15.395   4.925   4.682
30127W        W 1656  19.902  23.162  14.227
30128W        W 1657  16.001  35.546   3.038
30129W        W 1658  19.986   0.229   0.896
30130W        W 1659  11.903  34.426   0.282
30131W        W 1660  23.562   1.466  11.136
30132W        W 1661   7.412  21.085  14.949
30133W        W 1662  10.740  26.072  14.702
30134W        W 1663  39.793   5.205  10.594
30135W        W 1664  13.179  30.946  12.733
30136W        W 1665  43.333   3.316   4.193
30137W        W 1666  15.059  25.586  14.877
30138W        W 1667  27.427  31.827  11.432
30139W        W 1668  17.318  39.818  10.735
30140W        W 1669  33.907  30.143  11.017
30141W        W 1670   4.879   5.608   0.686
30142W        W 1671  44.673  13.650  13.468
30143W        W 1672   7.820  43.511   3.663
30144W        W 1673  15.678  35.023  14.477
30145W        W 1674  12.577  18.642   4.602
30146W        W 1675  13.230  33.187  11.289
30147W        W 1676  42.346  39.497  10.673
30148W        W 1677   3.742  14.222  11.247
30149W        W 1678  31.194  33.259   1.196
30150W        W 1679  21.521  11.277   1.006
30151W        W 1680  36.625  14.214  10.267
30152W        W 1681  38.628  32.727  11.141
30153W        W 1682  20.266   4.862  14.465
30154W        W 1683  43.307  41.494  13.136
30155W        W 1684  41.933  43.075  14.971
30156W        W 1685  11.353  25.981   2.437
30157W        W 1686  18.927   7.327  11.580
30158W        W 1687  15.802  25.156  14.029
30159W        W 1688  29.577  11.609  13.131
30160W        W 1689  27.199  35.308   4.132
30161W        W 1690   0.711   2.298   0.683
30162W        W 1691  16.862  25.236   4.236
30163W        W 1692   2.240   3.407   9.987
30164W        W 1693   6.744  15.354  11.271
30165W        W 1694  30.940  21.050  13.974
30166W        W 1695   8.341  29.701   2.282
30167W        W 1696  25.614  25.212  13.904
30168W        W 1697   8.861  26.884  13.034
30169W        W 1698  36.531  24.252   3.710
30170W        W 1699  39.622  31.694   4.700
30171W        W 1700  20.296  32.843   3.099
30172W        W 1701  17.701  26.024   2.081
30173W        W 1702  17.486  22.009  14.430
30174W        W 1703  31.603   0.991  10.639
30175W        W 1704  18.203  43.654  14.824
30176W        W 1705  31.792  34.345   0.388
30177W        W 1706  43.328   5.873   4.362
30178W        W 1707  38.640  18.770  11.204
30179W        W 1708  41.898  24.177  14.421
30180W        W 1709   7.653   0.953  13.280
30181W        W 1710  34.102  11.594   4.563
30182W        W 1711  23.988  36.949  13.488
30183W        W 1712  20.127  33.935  12.382
30184W        W 1713  23.787  36.624   4.739
30185W        W 1714  11.774   9.743   4.785
30186W        W 1715  17.922  27.703  14.972
30187W        W 1716  30.972  36.715  11.981
30188W        W 1717  39.338  30.940  12.595
30189W        W 1718  19.078  15.361  11.181
30190W        W 1719  10.736  14.392   2.640
30191W        W 1720  22.021  38.959  12.006
30192W        W 1721   5.824  27.627  11.698
30193W        W 1722  32.519  13.892   0.819
30194W        W 1723  36.752  17.555  11.231
30195W        W 1724  16.569   7.364   3.658
30196W        W 1725  21.094  43.280  14.844
30197W        W 1726  20.155  28.258   0.872
30198W        W 1727  36.304  27.091   1.509
30199W        W 1728  31.295   6.396  11.215
30200W        W 1729  29.455   4.532   1.872
30201W        W 1730  31.014  10.313   1.794
30202W        W 1731  30.108  23.230   2.177
30203W        W 1732  11.093   4.694  10.703
30204W        W 1733  19.339  18.639   0.711
30205W        W 1734   6.207  36.881   4.652
30206W        W 1735  29.960   0.457  12.012
30207W        W 1736  33.380   4.289  11.433
30208W        W 1737  27.217  40.897  14.845
30209W        W 1738   6.798  31.434   1.851
30210W        W 1739   0.376  15.147  10.757
30211W        W 1740   3.345  22.246   2.335
30212W        W 1741  41.323  34.620   1.853
30213W        W 1742  19.941  18.218  12.580
30214W        W 1743  23.235  37.047   3.380
30215W        W 1744  33.623  40.910   4.388
30216W        W 1745  38.313   4.695   0.195
30217W        W 1746   9.235  11.600   1.959
30218W        W 1747  25.199   5.298   2.096
30219W        W 1748  34.122  26.475  10.512
30220W        W 1749  39.275  42.743   1.358
30221W        W 1750  13.894  39.733  12.594
30222W        W 1751   2.252  44.081  14.133
30223W        W 1752  18.747   3.745  13.384
30224W        W 1753  28.161  11.250   2.200
30225W        W 1754  30.757  33.030   2.772
30226W        W 1755  10.267  17.392  10.564
30227W        W 1756  18.677   6.865  11.529
30228W        W 1757  26.658   8.251  14.483
30229W        W 1758   4.672  44.046  12.556
30230W        W 1759  44.173  15.619  11.200
30231W        W 1760  22.275  11.737   4.893
30232W        W 1761  39.845  20.919  13.970
30233W        W 1762  27.192  15.832  11.202
30234W        W 1763  13.230   9.146   3.705
30235W        W 1764  16.991   4.382  11.144
30236W        W 1765  39.567   5.691  10.637
30237W        W 1766  24.447  31.047   4.551
30238W        W 1767  11.194  18.565  13.391
30239W        W 1768  14.814  39.306  14.456
30240W        W 1769  10.882  30.425  12.553
30241W        W 1770  16.872  28.933  11.339
30242W        W 1771  25.404  24.701  10.620
30243W        W 1772  40.380  43.490  14.471
30244W        W 1773  27.783  15.001   4.542
30245W        W 1774  24.182  27.821   5.095
30246W        W 1775  35.837  11.960  11.465
30247W        W 1776  21.779  43.767   0.252
30248W        W 1777   2.475   0.408   2.198
30249W        W 1778   0.828  19.771  13.137
30250W        W 1779   4.791  36.003  13.998
30251W        W 1780  28.566   9.782   1.765
30252W        W 1781  44.477   4.921   2.390
30253W        W 1782  37.467   7.574   1.169
30254W        W 1783  14.170  32.357   1.345
30255W        W 1784  31.382  36.416   1.084
30256W        W 1785  19.194  16.745  11.821
30257W        W 1786  20.040  14.677   2.685
30258W        W 1787  13.363  11.852  11.985
30259W        W 1788  28.259  43.487  10.758
30260W        W 1789  25.346  15.889  11.174
30261W        W 1790  44.062   7.384   0.540
30262W        W 1791  14.628  18.552  14.437
30263W        W 1792   7.655  39.025   2.197
30264W        W 1793  11.480  13.346   0.814
30265W        W 1794  16.188  23.644  11.174
30266W        W 1795  25.040  34.845   2.725
30267W        W 1796  19.694  35.283   2.602
30268W        W 1797   8.285  22.646  11.577
30269W        W 1798   2.068  21.092   1.571
30270W        W 1799  39.786  29.503  10.745
30271W        W 1800  27.469  18.214   0.089
30272W        W 1801  44.730  20.090  12.055
30273W        W 1802  21.532  40.085   2.278
30274W        W 1803  21.200  24.141  13.928
30275W        W 1804  35.959  41.043  11.146
30276W        W 1805  37.199  16.776   2.197
30277W        W 1806  20.765  14.656   3.196
30278W        W 1807  30.695  38.011  13.011
30279W        W 1808  22.263  44.955  12.740
30280W        W 1809   4.797  21.647  13.425
30281W        W 1810  18.521  15.669   2.228
30282W        W 1811  28.654  23.067  11.506
30283W        W 1812  37.439   0.815   2.118
30284W        W 1813  42.866  29.415  13.309
30285W        W 1814  28.019  15.076  10.575
30286W        W 1815   9.242  29.060   0.947
30287W        W 1816  21.505  17.367  10.799
30288W        W 1817  31.416  25.753   1.771
30289W        W 1818  43.199   4.469   0.857
30290W        W 1819   5.008   9.407  12.896
30291W        W 1820  40.275  43.509   4.614
30292W        W 1821  44.721   9.330   2.313
30293W        W 1822   4.795  10.135   4.881
30294W        W 1823  40.882   0.526  10.851
30295W        W 1824  26.108   3.749  14.323
30296W        W 1825   9.482  31.036   1.196
30297W        W 1826   4.323  12.362  13.487
30298W        W 1827  40.811  24.461  10.550
30299W        W 1828  26.642   2.184   4.026
30300W        W 1829  26.073  41.882   2.320
30301W        W 1830  40.703  13.688   2.175
30302W        W 1831  24.304  22.672   1.362
30303W        W 1832  43.307  36.617  13.907
30304W        W 1833   5.245  34.016  14.988
30305W        W 1834  38.969  22.611   3.635
30306W        W 1835  18.903  30.393   0.677
30307W        W 1836  33.833  11.218  11.571
30308W        W 1837  31.396   7.720   0.943
30309W        W 1838   4.882  37.509   9.907
30310W        W 1839   5.705   9.493  11.009
30311W        W 1840  29.435  28.715   0.830
30312W        W 1841  27.438   7.423  11.146
30313W        W 1842   6.496  39.318   0.915
30314W        W 1843  34.785  40.907  11.616
30315W        W 1844  42.910  40.467  12.164
30316W        W 1845  11.127  30.945  11.500
30317W        W 1846  26.003  41.371   4.267
30318W        W 1847  14.730  33.480   2.394
30319W        W 1848  37.324  37.871   1.232
30320W        W 1849  15.786  14.801   4.368
30321W        W 1850  33.076  21.531   1.901
30322W        W 1851   0.897  43.940  11.179
30323W        W 1852  32.374   3.636   2.803
30324W        W 1853  27.163  17.235  13.297
30325W        W 1854  18.777  41.849   4.609
30326W        W 1855  13.140  14.566   3.684
30327W        W 1856  32.600  12.756   3.472
30328W        W 1857  39.476  24.209   2.322
30329W        W 1858  43.227  21.734  10.422
30330W        W 1859   8.789  38.352   2.267
30331W        W 1860   9.673  19.293  11.562
30332W        W 1861  10.116  33.511  10.727
30333W        W 1862   5.290  11.275   1.294
30334W        W 1863  22.555  17.840   1.208
30335W        W 1864  27.233  14.392   2.256
30336W        W 1865   4.449  19.632  14.406
30337W        W 1866  12.485   1.836  13.861
30338W        W 1867  44.059  44.253   1.259
30339W        W 1868  39.470  29.497   2.608
30340W        W 1869  23.147  43.400   3.190
30341W        W 1870  19.341  18.050   0.278
30342W        W 1871  20.774  12.170   2.352
30343W        W 1872  35.059   3.736   0.377
30344W        W 1873  15.747  43.573  11.621
30345W        W 1874  33.035  39.984  14.475
30346W        W 1875   6.930  39.924   3.547
30347W        W 1876  20.540   7.312   0.245
30348W        W 1877  34.103   1.801   0.853
30349W        W 1878   4.864  14.737  14.931
30350W        W 1879   1.534  20.599   4.805
30351W        W 1880  11.889   6.776  14.787
30352W        W 1881  27.917  12.084  12.066
30353W        W 1882   0.231  36.743   4.224
30354W        W 1883  43.791  32.802  14.033
30355W        W 1884  13.994  38.659   1.054
30356W        W 1885  20.545  44.902   0.422
30357W        W 1886  29.078  39.519  11.186
30358W        W 1887  10.276  35.506   1.579
30359W        W 1888   0.297  34.528  12.498
30360W        W 1889  30.506  10.249  11.875
30361W        W 1890  23.522  19.517  12.611
30362W        W 1891  42.436  20.246  14.873
30363W        W 1892   7.171  31.962   3.382
30364W        W 1893   8.261  43.319   4.492
30365W        W 1894   6.414  16.535   2.890
30366W        W 1895  31.948   8.686   0.240
30367W        W 1896  15.752  34.706   3.830
30368W        W 1897  24.461   2.905   3.280
30369W        W 1898  33.030   8.654   2.227
30370W        W 1899  30.532   1.561  12.749
30371W        W 1900  11.776   9.853   3.791
30372W        W 1901  43.791  14.117  11.071
30373W        W 1902   4.059   8.537   0.814
30374W        W 1903  31.876  23.260  10.585
30375W        W 1904   4.895   0.648  13.458
30376W        W 1905  42.976  14.158  14.557
30377W        W 1906  18.496   0.768  12.439
30378W        W 1907  25.140  40.437   0.524
30379W        W 1908  41.968  43.589   0.902
30380W        W 1909   4.980  32.068  14.855
30381W        W 1910  33.178   9.385  11.479
30382W        W 1911   7.700   1.227   4.573
30383W        W 1912  17.008  37.403   1.804
30384W        W 1913  18.713   0.734   4.253
30385W        W 1914   4.920  22.081   4.597
30386W        W 1915  28.711  24.287   3.829
30387W        W 1916  30.436  43.760   0.398
30388W        W 1917  38.626  20.515   2.826
30389W        W 1918  22.630  33.781  12.390
30390W        W 1919  38.630  33.574  13.991
30391W        W 1920  33.737  14.101   0.377
30392W        W 1921  28.512  21.980   2.890
30393W        W 1922  13.318  29.921  11.667
30394W        W 1923  13.217  24.292  12.628
30395W        W 1924  44.964  26.620  11.520
30396W        W 1925   0.731  35.519   1.471
30397W        W 1926  18.089   3.902  13.364
30398W        W 1927  28.928   3.200   0.681
30399W        W 1928  36.245   4.811  12.568
30400W        W 1929  23.304  21.663   3.597
30401W        W 1930  32.261  42.042   1.701
30402W        W 1931  30.849   4.007   0.854
30403W        W 1932  28.013  38.061   0.850
30404W        W 1933  25.065  34.044   0.979
30405W        W 1934   4.416  38.866  14.944
30406W        W 1935  29.356  10.850  12.922
30407W        W 1936  17.353  16.618   4.335
30408W        W 1937   5.255   1.666   2.414
30409W        W 1938  13.238  28.840   2.632
30410W        W 1939  34.806   6.532   4.637
30411W        W 1940   5.437  13.183  10.763
30412W        W 1941  42.894  35.844   0.349
30413W        W 1942  39.139   1.123   2.795
30414W        W 1943  17.045  11.674   2.227
30415W        W 1944  15.094  23.962   4.807
30416W        W 1945  28.353  41.421  12.346
30417W        W 1946  34.710  14.398  12.629
30418W        W 1947  19.024  16.814  11.328
30419W        W 1948   7.283  39.521   4.596
30420W        W 1949  10.940  15.637   3.705
30421W        W 1950   5.676   2.056   0.652
30422W        W 1951  35.448   7.866   3.136
30423W        W 1952  10.080   4.231   5.367
30424W        W 1953  16.322   9.751  11.025
30425W        W 1954  33.057  22.198   0.071
30426W        W 1955   8.342  28.460  11.444
30427W        W 1956  22.496  44.288  11.981
30428W        W 1957   1.924  36.289  12.608
30429W        W 1958   5.211  26.949   3.223
30430W        W 1959  44.306  17.054   2.144
30431W        W 1960   9.366  30.631  14.832
30432W        W 1961  20.524  37.280  14.853
30433W        W 1962  33.343   2.952  12.953
30434W        W 1963  23.787   1.403   3.724
30435W        W 1964  44.661   3.340  13.040
30436W        W 1965  25.935  39.662  10.731
30437W        W 1966  17.504  11.726   0.925
30438W        W 1967  22.366  33.328  12.369
30439W        W 1968  35.079  15.773  13.098
30440W        W 1969  16.391   5.251   1.218
30441W        W 1970  12.706  15.663  10.468
30442W        W 1971  14.596  38.899  13.757
30443W        W 1972  31.997  35.139  11.159
30444W        W 1973   0.749  27.606   3.126
30445W        W 1974  27.849  35.129   4.890
30446W        W 1975  27.001  39.579   2.329
30447W        W 1976   6.847  36.915  12.120
30448W        W 1977  36.013  42.929   1.291
30449W        W 1978   8.664  24.578   0.878
30450W        W 1979  28.932  26.328   1.438
30451W        W 1980  33.670  25.463   4.493
30452W        W 1981   1.449   7.460   0.385
30453W        W 1982  42.986  20.489   1.805
30454W        W 1983  27.589  26.650   2.856
30455W        W 1984   3.900  36.412   0.853
30456W        W 1985  29.131  30.478  11.431
30457W        W 1986  14.302   4.383  13.096
30458W        W 1987   0.692  41.360   3.210
30459W        W 1988   3.424  42.232   0.314
30460W        W 1989  17.687   2.832   0.909
30461W        W 1990  22.383  42.119  13.400
30462W        W 1991  26.140  28.140  13.606
30463W        W 1992   6.269  34.403   0.082
30464W        W 1993  27.043  23.954  14.831
30465W        W 1994  40.129  37.992  12.814
30466W        W 1995  23.494  32.482   4.724
30467W        W 1996  28.007  31.922   2.619
30468W        W 1997   1.864  21.078   1.114
30469W        W 1998  27.235  15.119   1.375
30470W        W 1999   6.635   0.960   3.169
30471W        W 2000  22.168   4.492  11.118
30472W        W 2001  40.103  43.400   0.885
30473W        W 2002  15.355  15.043   4.988
30474W        W 2003   6.612   4.665  13.853
30475W        W 2004  19.592  32.541  13.951
30476W        W 2005  40.839  18.172   1.688
30477W        W 2006  44.906  18.990  12.504
30478W        W 2007  44.281  26.554   1.192
30479W        W 2008   0.196   5.636  13.043
30480W        W 2009  25.885  39.866   0.250
30481W        W 2010  19.175  17.684  14.531
30482W        W 2011   5.259   6.782   4.148
30483W        W 2012  11.689  14.432   4.584
30484W        W 2013   9.368   5.659   2.614
30485W        W 2014  12.357   1.438   3.816
30486W        W 2015   8.470   6.817  13.975
30487W        W 2016  24.264   5.867  11.113
30488W        W 2017   7.334  28.103  14.034
30489W        W 2018  24.512  42.126   3.183
30490W        W 2019  40.094  32.566   1.245
30491W        W 2020   7.958   3.215  14.366
30492W        W 2021   7.290  11.234   3.184
30493W        W 2022  42.339  23.096   4.889
30494W        W 2023  21.736  31.484  11.697
30495W        W 2024  23.612  41.299  14.293
30496W        W 2025  22.837  12.108  11.512
30497W        W 2026  30.230  19.746   2.680
30498W        W 2027  24.759  44.758  11.341
30499W        W 2028  24.525  36.400   4.181
30500W        W 2029   5.257   3.169  10.658
30501W        W 2030  33.952  26.368   3.780
30502W        W 2031  29.220  40.551  12.400
30503W        W 2032  25.482  25.072  14.830
30504W        W 2033   3.251  42.515  11.226
30505W        W 2034  38.803  19.302   9.792
30506W        W 2035  13.122  41.236   3.713
30507W        W 2036  30.126  27.550  11.599
30508W        W 2037  31.450  26.006  14.440
30509W        W 2038  15.007  24.747   2.365
30510W        W 2039   2.382  24.534   0.301
30511W        W 2040  38.985  38.348   2.726
30512W        W 2041  37.066  38.831   0.330
30513W        W 2042   6.401  35.372  10.738
30514W        W 2043  26.916  18.835   4.615
30515W        W 2044  31.040   9.666   4.364
30516W        W 2045  17.529  13.979  14.860
30517W        W 2046   3.288  44.971   4.628
30518W        W 2047   3.184  38.359   3.754
30519W        W 2048  25.013  44.162  14.465
30520W        W 2049  35.973  15.636  13.497
30521W        W 2050  10.880  15.792   2.268
30522W        W 2051   2.468  27.776  10.593
30523W        W 2052  35.916   6.391  11.619
30524W        W 2053  36.571  23.568   3.202
30525W        W 2054  22.937   4.450  14.945
30526W        W 2055  25.131  40.427  12.070
30527W        W 2056   6.364   0.438   0.889
30528W        W 2057  34.077  11.085   3.692
30529W        W 2058   2.026   9.925   0.293
30530W        W 2059  26.457  43.276   4.935
30531W        W 2060  21.970  27.654  11.457
30532W        W 2061   4.485   0.916   4.549
30533W        W 2062   5.032  35.256  10.611
30534W        W 2063  39.925  44.975   4.065
30535W        W 2064  22.026  11.954  11.187
30536W        W 2065  22.086  22.577  13.100
30537W        W 2066   1.769  28.813  14.372
30538W        W 2067  10.961  26.168  10.852
30539W        W 2068  19.550   4.886   4.620
30540W        W 2069  34.434  43.981   3.799
30541W        W 2070  31.616  14.365  12.510
30542W        W 2071   9.457   4.917   0.683
30543W        W 2072  25.528  40.270  12.995
30544W        W 2073  30.150  11.770   3.588
30545W        W 2074  36.101  36.340  13.479
30546W        W 2075  43.506  25.198  13.591
30547W        W 2076  12.440  41.831  12.659
30548W        W 2077   0.523   8.783   1.949
30549W        W 2078  11.872  33.407   0.263
30550W        W 2079  15.367  40.816  13.938
30551W        W 2080  21.220  33.507   1.744
30552W        W 2081  29.305  11.709  14.541
30553W        W 2082  33.962  30.155   2.060
30554W        W 2083  15.747  42.960   2.716
30555W        W 2084  21.029  10.420  10.766
30556W        W 2085  26.083  30.729   4.312
30557W        W 2086  25.677  29.909   4.664
30558W        W 2087   8.810  10.552  12.913
30559W        W 2088  19.653  37.039  14.929
30560W        W 2089   2.475  20.203  14.874
30561W        W 2090  18.798  12.605   1.871
30562W        W 2091  10.793  34.956   0.585
30563W        W 2092  38.622  26.886   3.204
30564W        W 2093  22.184   7.164  12.372
30565W        W 2094   2.342   8.316   1.634
30566W        W 2095  31.050   1.754   4.029
30567W        W 2096  10.117  44.407  13.096
30568W        W 2097  30.652  29.216  13.566
30569W        W 2098  11.681  12.056   4.351
30570W        W 2099   9.011  38.418  12.501
30571W        W 2100  22.760   5.425   4.186
30572W        W 2101  31.630  35.960   2.283
30573W        W 2102  39.455  35.590  10.598
30574W        W 2103  40.821  15.449  13.323
30575W        W 2104  33.696   6.698  11.211
30576W        W 2105  28.843  15.161  13.863
30577W        W 2106  37.344  35.485   1.244
30578W        W 2107   6.406  31.918  11.239
30579W        W 2108  21.277  28.198  11.750
30580W        W 2109  34.949  29.340  12.032
30581W        W 2110  26.159  38.981   1.247
30582W        W 2111  41.500   7.382   3.918
30583W        W 2112  32.922  13.549   0.809
30584W        W 2113  41.684  22.139  11.718
30585W        W 2114  12.135  23.273   4.227
30586W        W 2115  25.259   1.064   3.284
30587W        W 2116  36.340   3.126   3.667
30588W        W 2117  19.704   1.507  12.068
30589W        W 2118  41.422  24.265  13.583
30590W        W 2119   4.847  18.069  13.526
30591W        W 2120  28.652  15.241  12.425
30592W        W 2121  33.500   8.706   2.471
30593W        W 2122  31.927   1.303  13.994
30594W        W 2123   2.607  21.149  10.429
30595W        W 2124  37.108   1.313   2.406
30596W        W 2125  39.041   1.122   3.593
30597W        W 2126  23.739  35.969  10.770
30598W        W 2127  13.967  10.869  14.359
30599W        W 2128  33.400  10.209  12.535
30600W        W 2129  22.546  31.803  13.967
30601W        W 2130  18.133  24.019   0.272
30602W        W 2131  16.276  11.902  11.040
30603W        W 2132  24.396   9.668   4.011
30604W        W 2133  24.665  23.294   0.933
30605W        W 2134  20.340   7.460   2.302
30606W        W 2135  12.511  39.333   2.173
30607W        W 2136  36.301  28.946  14.793
30608W        W 2137  31.413  19.446   0.778
30609W        W 2138  15.304  14.142  12.979
30610W        W 2139   3.014  18.272  12.866
30611W        W 2140   5.371  39.979  13.384
30612W        W 2141  23.582  19.167   3.234
30613W        W 2142   1.732  20.648  13.829
30614W        W 2143  29.598  15.811  14.259
30615W        W 2144   2.344   0.421  14.265
30616W        W 2145  13.729  11.405   4.196
30617W        W 2146  36.353  18.523   0.826
30618W        W 2147  33.652  37.480   0.821
30619W        W 2148  14.608  30.984   2.155
30620W        W 2149  22.382  25.006  11.134
30621W        W 2150  34.862  28.129   3.197
30622W        W 2151   6.204  23.641  11.154
30623W        W 2152  31.074  11.053  12.555
30624W        W 2153  34.024  29.379  11.489
30625W        W 2154   5.217  22.627   4.224
30626W        W 2155  25.549  41.516  12.861
30627W        W 2156   3.055  24.069  14.049
30628W        W 2157  26.584   8.214  10.531
30629W        W 2158   6.878  19.908  10.126
30630W        W 2159  24.522  40.785   1.685
30631W        W 2160  37.257  22.727   4.234
30632W        W 2161  38.044  23.914  11.240
30633W        W 2162  36.374  17.714  13.385
30634W        W 2163  19.463   0.945   2.763
30635W        W 2164   4.349  30.582   1.938
30636W        W 2165  41.307   2.751  11.491
30637W        W 2166  22.926  29.573  11.533
30638W        W 2167   4.239  44.446  12.750
30639W        W 2168  16.799  24.915   5.015
30640W        W 2169  41.981  32.332  11.487
30641W        W 2170  35.291  11.435  14.774
30642W        W 2171  12.871  35.110  14.335
30643W        W 2172   0.657  12.321   4.592
30644W        W 2173  35.168  15.327  14.503
30645W        W 2174  15.678   4.533   4.015
30646W        W 2175   4.296  33.051  11.687
30647W        W 2176   9.801  37.566   1.645
30648W        W 2177  27.848  23.188   4.164
30649W        W 2178   1.973   2.439   0.089
30650W        W 2179  15.608  19.239   1.103
30651W        W 2180  44.782  36.544   0.914
30652W        W 2181   8.867  26.806   4.155
30653W        W 2182  16.638  42.304   1.740
30654W        W 2183  41.544  34.757   3.371
30655W        W 2184  28.673  33.337  12.436
30656W        W 2185  34.117   8.272   4.106
30657W        W 2186  42.318  36.525  10.753
30658W        W 2187  33.090  22.742  12.044
30659W        W 2188  27.579   9.495  11.104
30660W        W 2189   6.139  22.943  12.499
30661W        W 2190  44.303  13.429   1.732
30662W        W 2191  11.144  37.357   3.913
30663W        W 2192  29.211   1.325  12.974
30664W        W 2193  25.759  22.106  14.882
30665W        W 2194   2.773  43.743  14.242
30666W        W 2195  44.678   3.850   3.160
30667W        W 2196   2.793  43.547   1.788
30668W        W 2197  11.078   6.788  10.725
30669W        W 2198  29.514  35.164   5.214
30670W        W 2199  16.317  11.145   3.229
30671W        W 2200  16.272  20.339   0.886
30672W        W 2201  28.108  26.535   1.829
30673W        W 2202  36.558   2.258  10.645
30674W        W 2203  15.747  37.334   4.493
30675W        W 2204  10.691  38.566   4.595
30676W        W 2205  31.533  40.965  11.543
30677W        W 2206   9.126  23.736   4.050
30678W        W 2207  24.700  32.223  14.993
30679W        W 2208  19.141  30.150  13.351
30680W        W 2209  24.428  20.219   0.294
30681W        W 2210  31.157  11.699   3.387
30682W        W 2211  38.947   3.628   9.815
30683W        W 2212  30.549  36.539  12.889
30684W        W 2213  39.041  23.086  14.984
30685W        W 2214   6.139  26.513   3.837
30686W        W 2215   3.159  43.794   3.801
30687W        W 2216   7.473   1.179  12.449
30688W        W 2217   2.021  31.979  13.380
30689W        W 2218   1.005  41.317   4.121
30690W        W 2219   9.102   5.016   4.210
30691W        W 2220  35.931  13.132  14.283
30692W        W 2221  44.947   1.858   2.337
30693W        W 2222   6.229  42.947   1.728
30694W        W 2223  36.806   2.792  11.487
30695W        W 2224  22.719  36.513  13.870
30696W        W 2225   8.725  21.462  12.528
30697W        W 2226   5.927   5.288   3.471
30698W        W 2227  22.181  44.454  12.939
30699W        W 2228  31.210  18.005  10.645
30700W        W 2229  33.449   5.057   0.371
30701W        W 2230   3.968  20.257   4.372
30702W        W 2231  28.323  20.935  14.809
30703W        W 2232  32.644   9.786  13.486
30704W        W 2233  21.534  17.540   4.603
30705W        W 2234  14.638  33.466   4.138
30706W        W 2235  36.026   8.796   2.312
30707W        W 2236  30.745   4.836  10.643
30708W        W 2237  33.222  28.924   1.732
30709W        W 2238  32.585  15.834  14.708
30710W        W 2239  20.017  24.208   2.749
30711W        W 2240  19.752   5.703  10.578
30712W        W 2241  29.521  29.703  13.855
30713W        W 2242   5.770  26.221   9.915
30714W        W 2243  12.598  36.232   0.225
30715W        W 2244  14.536  11.195  10.717
30716W        W 2245  27.054  31.029  14.463
30717W        W 2246  32.919  14.209  11.717
30718W        W 2247  24.146  18.598   4.211
30719W        W 2248  36.086  33.842   1.780
30720W        W 2249  21.725  28.443  11.948
30721W        W 2250  22.134  12.556   2.633
30722W        W 2251  26.012  19.589  12.977
30723W        W 2252  43.046  21.648  13.085
30724W        W 2253  44.944  28.442  12.796
30725W        W 2254  42.294   2.996  14.938
30726W        W 2255  40.965  18.248  12.107
30727W        W 2256   8.016  41.316   1.102
30728W        W 2257   1.899  24.421  14.525
30729W        W 2258  18.651  28.477   4.270
30730W        W 2259   4.012  27.465  14.546
30731W        W 2260  14.292  21.228   2.816
30732W        W 2261  20.647   4.165  14.824
30733W        W 2262  19.040  44.312  14.339
30734W        W 2263  14.229  38.149   0.722
30735W        W 2264  42.798  43.378  12.739
30736W        W 2265  42.382  16.224  11.313
30737W        W 2266  34.540  40.511   1.833
30738W        W 2267  42.989  31.568   1.030
30739W        W 2268  23.096  33.579  10.372
30740W        W 2269  34.861  11.104  12.803
30741W        W 2270  40.259   8.785  13.124
30742W        W 2271  28.897   9.916  14.385
30743W        W 2272   7.823  22.428   1.287
30744W        W 2273  10.675  42.078  11.159
30745W        W 2274  39.447  23.194   3.293
30746W        W 2275   3.110  14.371  14.718
30747W        W 2276   7.698  42.079  11.812
30748W        W 2277  10.742  14.814   2.081
30749W        W 2278  36.382  30.386   3.805
30750W        W 2279  27.139  34.083   3.738
30751W        W 2280  16.301   6.535   1.749
30752W        W 2281  14.005   5.718   1.338
30753W        W 2282  41.093  29.057   4.890
30754W        W 2283  40.811  13.874   3.761
30755W        W 2284  31.535  27.995   3.831
30756W        W 2285  21.288  41.681   1.344
30757W        W 2286  29.133  28.639  13.559
30758W        W 2287   4.931  15.344  12.047
30759W        W 2288  40.478  27.352  10.586
30760W        W 2289  44.233  12.790  13.112
30761W        W 2290  37.512   0.807  14.778
30762W        W 2291   8.565  10.218   3.873
30763W        W 2292   2.383  28.572  11.588
30764W        W 2293  12.192  25.996   0.274
30765W        W 2294   9.088  17.242  12.502
30766W        W 2295   6.670  11.318   0.883
30767W        W 2296   2.698  43.315  14.559
30768W        W 2297  13.663  34.463  11.637
30769W        W 2298   8.939  31.664  13.284
30770W        W 2299  23.128  26.684   4.595
30771W        W 2300  40.443   8.648   1.832
30772W        W 2301  38.351  37.065   4.652
30773W        W 2302   9.390   2.375   2.795
30774W        W 2303   1.479  26.565  11.584
30775W        W 2304  31.466  19.496   3.659
30776W        W 2305  10.202  28.470  13.840
30777W        W 2306  24.273  13.690  14.691
30778W        W 2307  44.568  12.687  12.412
30779W        W 2308   2.322  15.566  11.243
30780W        W 2309  22.632  41.957  14.865
30781W        W 2310   4.812  33.358  14.423
30782W        W 2311   8.268  41.916   3.927
30783W        W 2312  27.633  31.613  13.193
30784W        W 2313  42.796  29.867  12.905
30785W        W 2314   5.185  39.536   1.261
30786W        W 2315  32.341  23.071  13.293
30787W        W 2316  36.869  11.758  14.855
30788W        W 2317  18.681   8.413  10.853
30789W        W 2318  31.592  32.109  13.907
30790W        W 2319   6.002  24.881  10.633
30791W        W 2320  23.306  36.321   2.218
30792W        W 2321   5.590  23.972   2.607
30793W        W 2322  31.273   3.217   4.474
30794W        W 2323   6.367  16.189  14.924
30795W        W 2324  24.028  17.530   1.797
30796W        W 2325  31.542  13.831  12.472
30797W        W 2326   1.493  39.063  11.416
30798W        W 2327  39.807  40.943  12.141
30799W        W 2328   6.555  40.039   5.011
30800W        W 2329  36.432  35.335   1.218
30801W        W 2330  44.248  26.287   2.425
30802W        W 2331   4.281  25.439  13.390
30803W        W 2332  30.194  44.932  14.007
30804W        W 2333   3.217  35.804  12.559
30805W        W 2334  35.152  28.976   2.722
30806W        W 2335  37.576  30.766   4.562
30807W        W 2336  35.466  12.614  10.492
30808W        W 2337  11.879  42.002  13.912
30809W        W 2338  23.945  13.872   1.871
30810W        W 2339   0.838   8.590  14.726
30811W        W 2340  40.966   6.368  13.516
30812W        W 2341  34.116  12.664   2.372
30813W        W 2342   5.265  31.008   2.373
30814W        W 2343  23.127  24.964   3.167
30815W        W 2344  28.010  32.106  10.155
30816W        W 2345  38.074   7.741  14.559
30817W        W 2346  41.695   2.450  13.438
30818W        W 2347   8.409  42.509   2.723
30819W        W 2348  33.592   1.003   1.748
30820W        W 2349   4.960  35.478   0.662
30821W        W 2350  42.892  22.234  14.430
30822W        W 2351   3.225   9.612   4.208
30823W        W 2352  32.432  37.853   0.143
30824W        W 2353  26.991  39.006   0.479
30825W        W 2354  35.577  41.351   4.560
30826W        W 2355   3.645  30.588   1.267
30827W        W 2356  10.356  33.343   0.795
30828W        W 2357  17.105   1.198   4.179
30829W        W 2358  16.646  14.783   4.464
30830W        W 2359  34.537   0.978   4.599
30831W        W 2360  20.540  37.898   0.421
30832W        W 2361  15.686  44.265   5.200
30833W        W 2362  25.137  35.123   0.010
30834W        W 2363  11.161  39.889  10.748
30835W        W 2364  39.786  28.662  14.393
30836W        W 2365  17.854  39.910   3.876
30837W        W 2366  29.983  28.855  13.535
30838W        W 2367  13.670  41.455   4.971
30839W        W 2368  13.414  11.440   0.004
30840W        W 2369  31.325  42.479   3.801
30841W        W 2370  24.855  28.963  13.117
30842W        W 2371  29.184  34.535  14.835
30843W        W 2372  11.751  32.886   1.365
30844W        W 2373  29.763  37.413   4.009
30845W        W 2374  24.134  39.842  10.433
30846W        W 2375  22.541   0.887   3.552
30847W        W 2376  30.982  32.540   3.664
30848W        W 2377  32.158   0.387  11.972
30849W        W 2378   8.103  40.150   4.374
30850W        W 2379  43.268  41.819  12.483
30851W        W 2380  23.013  29.540   2.781
30852W        W 2381  21.033  27.663  11.083
30853W        W 2382  12.211  23.029  13.835
30854W        W 2383  17.590  24.951   3.663
30855W        W 2384  31.200  10.349   3.503
30856W        W 2385   9.811  20.188   2.124
30857W        W 2386   1.760  27.026  10.506
30858W        W 2387  31.928  16.968   1.298
30859W        W 2388   4.201  11.249   3.657
30860W        W 2389   7.892   5.916   3.965
30861W        W 2390  41.055  14.700   4.851
30862W        W 2391  22.285  39.764   1.843
30863W        W 2392  41.201  41.905  11.290
30864W        W 2393  12.845  14.874   1.365
30865W        W 2394  12.623  43.009   4.630
30866W        W 2395  41.497   5.318  12.923
30867W        W 2396  44.939  32.427  13.077
30868W        W 2397  18.193  23.926   1.766
30869W        W 2398  35.500  18.330   1.355
30870W        W 2399   1.967  24.254   1.443
30871W        W 2400  44.940  20.303   1.168
30872W        W 2401  21.290  34.385  13.459
30873W        W 2402  40.946  36.121   4.854
30874W        W 2403  15.050  28.415  13.237
30875W        W 2404  23.071  21.452   0.961
30876W        W 2405  18.986  30.496   1.611
30877W        W 2406  23.425  17.222  13.879
30878W        W 2407   3.734   7.722   4.123
30879W        W 2408   9.228   3.240   3.667
30880W        W 2409   4.249  24.545  12.119
30881W        W 2410  14.731  10.625   0.201
30882W        W 2411  13.660  13.670   1.329
30883W        W 2412   6.335  43.167  11.544
30884W        W 2413  42.034   2.584   2.422
30885W        W 2414  29.663  14.210   2.072
30886W        W 2415  28.970  28.047   2.989
30887W        W 2416  37.340  15.134  14.454
30888W        W 2417  17.560  27.632   3.644
30889W        W 2418   4.181  22.012   4.919
30890W        W 2419  15.866   1.428   2.108
30891W        W 2420   5.839  24.747  11.470
30892W        W 2421  29.473  33.170  14.934
30893W        W 2422  18.756   4.241   2.396
30894W        W 2423  26.059  15.489   4.983
30895W        W 2424  29.225  26.513  10.341
30896W        W 2425  22.696   7.762   0.098
30897W        W 2426  34.047  15.839  14.432
30898W        W 2427  36.494  17.792   2.203
30899W        W 2428  37.628   8.047  11.676
30900W        W 2429  26.504  10.897  12.296
30901W        W 2430  17.017  17.705   3.376
30902W        W 2431  24.585   8.419  13.468
30903W        W 2432  31.630  44.779   1.279
30904W        W 2433  10.657   0.969  11.679
30905W        W 2434  27.948   6.328  11.067
30906W        W 2435   7.674  33.881   1.848
30907W        W 2436  42.251   5.807   3.335
30908W        W 2437  13.809  36.936  10.816
30909W        W 2438  43.935  33.420  13.574
30910W        W 2439  29.157  18.637   3.979
30911W        W 2440  25.062  42.946   1.878
30912W        W 2441  35.719   4.182  12.106
30913W        W 2442  37.011   5.602  11.149
30914W        W 2443  16.273   8.296  14.004
30915W        W 2444   6.146  10.801   2.958
30916W        W 2445   2.939  13.097  14.885
30917W        W 2446  42.224  18.966   1.703
30918W        W 2447  24.929   9.703   1.190
30919W        W 2448  27.498  11.575   0.854
30920W        W 2449  42.244  16.366   4.703
30921W        W 2450  36.979  21.787   0.241
30922W        W 2451  37.839  44.327   3.788
30923W        W 2452   6.310  30.249  12.485
30924W        W 2453  40.656   5.747   1.848
30925W        W 2454  22.299   8.647  10.747
30926W        W 2455  14.676  40.968  13.454
30927W        W 2456  13.204  21.771  12.184
30928W        W 2457  17.841  17.774  11.136
30929W        W 2458   1.679  19.763  14.783
30930W        W 2459  25.923   1.345  14.403
30931W        W 2460  13.134  12.423   2.371
30932W        W 2461  29.924  39.120   4.542
30933W        W 2462  26.937  32.232   0.016
30934W        W 2463  13.514  22.075   0.520
30935W        W 2464  28.431  22.204   1.826
30936W        W 2465  12.269  13.343   4.973
30937W        W 2466   0.297  20.188  12.033
30938W        W 2467  39.974   1.841  12.910
30939W        W 2468  28.188  29.555  13.457
30940W        W 2469   3.454  24.283   1.058
30941W        W 2470  39.383  43.400  11.695
30942W        W 2471  20.949   0.130   4.066
30943W        W 2472  26.091  35.025   4.641
30944W        W 2473   1.542  26.035   1.209
30945W        W 2474  15.119  44.381  11.200
30946W        W 2475   7.621  42.021  13.586
30947W        W 2476   1.297   0.899  13.520
30948W        W 2477  37.382  21.466   0.369
30949W        W 2478  20.196  24.960   1.731
30950W        W 2479  25.583   7.381   2.595
30951W        W 2480   9.834  27.922  14.809
30952W        W 2481   9.761  11.937  12.502
30953W        W 2482  36.404  35.024   0.290
30954W        W 2483  39.446  10.066  13.025
30955W        W 2484  25.167  20.183   2.879
30956W        W 2485  10.100  28.609   0.710
30957W        W 2486  16.832   7.982  11.175
30958W        W 2487   1.261   7.230  13.415
30959W        W 2488  27.991  31.868  13.459
30960W        W 2489  40.822   3.449   2.790
30961W        W 2490  30.724  14.375  11.123
30962W        W 2491   9.342   7.363   5.043
30963W        W 2492  35.995  20.450  14.512
30964W        W 2493  10.360   0.236   1.198
30965W        W 2494  21.816  23.422   4.100
30966W        W 2495   7.894  17.498   4.142
30967W        W 2496  38.509  33.708   2.592
30968W        W 2497  35.490  29.614  11.418
30969W        W 2498  24.537  28.366   4.554
30970W        W 2499  12.927   3.889  13.492
30971W        W 2500  30.683  27.577   1.432
30972W        W 2501   1.713  30.424   0.629
30973W        W 2502  14.279  38.935   0.703
30974W        W 2503   9.255   6.884  12.430
30975W        W 2504  12.230   4.175   0.322
30976W        W 2505  32.063  42.855  10.358
30977W        W 2506  11.920   2.298  13.020
30978W        W 2507  17.793  27.619  12.527
30979W        W 2508  28.487  22.596  13.421
30980W        W 2509  38.341   8.373   4.868
30981W        W 2510  20.964   9.268  12.008
30982W        W 2511  24.207  27.932   1.529
30983W        W 2512   1.254   8.256   3.138
30984W        W 2513  23.258  27.956  14.776
30985W        W 2514  17.254  43.239   1.277
30986W        W 2515  29.588   3.844  12.542
30987W        W 2516   3.439  10.413   5.061
30988W        W 2517  35.131   1.758   0.817
30989W        W 2518  18.108  31.498  10.914
30990W        W 2519  42.577  32.632   3.147
30991W        W 2520  37.340  16.269  11.595
30992W        W 2521  35.935  33.928  14.468
30993W        W 2522  30.585  16.347  10.675
30994W        W 2523   3.379  10.444  11.663
30995W        W 2524   5.610  29.065   4.399
30996W        W 2525  23.171  21.085   4.131
30997W        W 2526   9.868   8.286   3.336
30998W        W 2527  31.937  24.606   2.724
30999W        W 2528   6.706  43.351  10.572
31000W        W 2529  37.521   7.097   4.166
31001W        W 2530  30.960   5.882   3.127
31002W        W 2531  37.117  28.994  10.487
31003W        W 2532  17.666  13.319  11.726
31004W        W 2533  25.001  33.475   0.338
31005W        W 2534  39.982  33.570  14.472
31006W        W 2535  36.412  10.104  12.963
31007W        W 2536  27.053   6.463   2.290
31008W        W 2537  26.102  27.152  13.988
31009W        W 2538  43.767   4.428  12.196
31010W        W 2539  15.798  11.010   5.500
31011W        W 2540  39.309   0.095   0.240
31012W        W 2541  33.013   6.710  13.267
31013W        W 2542   9.652   6.456  14.999
31014W        W 2543  26.032  38.025   2.839
31015W        W 2544  44.523  17.143   1.679
31016W        W 2545  17.126  32.633   1.806
31017W        W 2546   7.659  42.302  12.322
31018W        W 2547  43.895   8.381  14.349
31019W        W 2548  39.152  14.070   3.301
31020W        W 2549  15.727  13.511  10.978
31021W        W 2550  34.418  32.706  13.981
31022W        W 2551  43.398  27.538   3.750
31023W        W 2552  11.192  28.396  10.529
31024W        W 2553  23.579  13.894  12.916
31025W        W 2554  15.349  38.839  13.876
31026W        W 2555  12.870  19.172  11.350
31027W        W 2556  33.852   8.088  11.953
31028W        W 2557   1.510  35.085   2.751
31029W        W 2558  34.880  26.108   4.583
31030W        W 2559  20.196  37.256  11.965
31031W        W 2560  12.200  13.169   0.621
31032W        W 2561  11.121   2.336  13.420
31033W        W 2562  42.073  30.048   2.814
31034W        W 2563  20.588  23.301   3.657
31035W        W 2564  28.453   2.448   1.211
31036W        W 2565  39.547  15.547  10.586
31037W        W 2566  19.785   8.152  11.078
31038W        W 2567  41.248  37.533  11.993
31039W        W 2568  12.776  20.038  11.487
31040W        W 2569   3.930   5.442  12.056
31041W        W 2570  34.116  36.789   0.507
31042W        W 2571   5.316  36.496  11.897
31043W        W 2572   4.006  14.164   4.682
31044W        W 2573  42.423   0.673  10.614
31045W        W 2574  18.479  34.931   2.436
31046W        W 2575  38.208   9.484  11.619
31047W        W 2576  41.274  37.289   2.796
31048W        W 2577  16.882  41.823  14.324
31049W        W 2578  42.068   8.467   4.158
31050W        W 2579  17.220  35.351  14.109
31051W        W 2580  30.406   8.821   4.561
31052W        W 2581  21.272  38.974  11.181
31053W        W 2582  10.004  34.433  12.018
31054W        W 2583  37.154  21.035   4.460
31055W        W 2584  35.430  11.090   1.129
31056W        W 2585  39.313  19.705  14.215
31057W        W 2586  27.626   5.160  12.109
31058W        W 2587  36.665  37.578   0.447
31059W        W 2588  36.625  15.317   4.528
31060W        W 2589   1.240   8.743  10.375
31061W        W 2590   0.090  18.783  11.074
31062W        W 2591  28.278  23.415  14.435
31063W        W 2592  15.851  41.463  10.897
31064W        W 2593  21.480  37.483   2.862
31065W        W 2594  18.963  43.285   0.262
31066W        W 2595  27.115   5.205   4.585
31067W        W 2596   8.190  17.012  11.085
31068W        W 2597   0.886  33.653   0.885
31069W        W 2598  15.970  25.041   5.120
31070W        W 2599   6.333  20.260   1.399
31071W        W 2600  23.759  21.294  11.583
31072W        W 2601  30.986  35.601  12.525
31073W        W 2602  17.941  19.600   5.091
31074W        W 2603  28.554   3.871  12.624
31075W        W 2604   3.002  17.968   1.249
31076W        W 2605  17.265  42.424  12.984
31077W        W 2606  12.307  25.886   2.552
31078W        W 2607  30.287  20.334   0.142
31079W        W 2608   4.162  40.165  12.959
31080W        W 2609   5.057   3.089   1.407
31081W        W 2610  39.720   4.728   3.155
31082W        W 2611   3.848   9.629  13.058
31083W        W 2612   7.629  21.979   1.886
31084W        W 2613  38.656  14.136   3.205
31085W        W 2614  44.525   2.911  10.727
31086W        W 2615  26.265   0.292   0.176
31087W        W 2616   1.338  44.654   4.016
31088W        W 2617   0.957   2.807  10.723
31089W        W 2618  24.136  42.627   4.871
31090W        W 2619  20.669  38.499  12.404
31091W        W 2620  40.025   0.478   0.878
31092W        W 2621  23.620  20.297   4.269
31093W        W 2622  34.824  33.958   3.407
31094W        W 2623  32.629  26.860  11.584
31095W        W 2624  18.567  22.105   3.770
31096W        W 2625   3.900  18.611   2.190
31097W        W 2626  17.589  14.646  13.988
31098W        W 2627  39.751  20.119   3.336
31099W        W 2628   4.643  39.894   1.679
31100W        W 2629  44.945  23.027   0.552
31101W        W 2630  11.404  22.517  12.306
31102W        W 2631  30.515  20.173   2.693
31103W        W 2632  13.861  20.557   4.704
31104W        W 2633  41.980  25.215   0.249
31105W        W 2634  11.791   6.135  10.657
31106W        W 2635  20.822  26.077   3.201
31107W        W 2636  14.613  23.684   2.363
31108W        W 2637  23.150  15.113  11.830
31109W        W 2638  36.530   1.794   1.701
31110W        W 2639   2.352  41.403  12.409
31111W        W 2640  44.726  34.228  14.047
31112W        W 2641  23.516  39.572   0.216
31113W        W 2642  42.546  37.350   0.925
31114W        W 2643  44.749  28.665  14.288
31115W        W 2644  26.590  17.299  13.566
31116W        W 2645  26.590   7.343  12.843
31117W        W 2646  41.810   1.373  11.580
31118W        W 2647  26.616  31.968  12.455
31119W        W 2648  15.387  20.578   0.897
31120W        W 2649   5.457  27.903  11.964
31121W        W 2650  29.607  33.091  14.209
31122W        W 2651  23.991  18.121  13.336
31123W        W 2652  26.247  19.117  12.978
31124W        W 2653  41.974  34.450  10.338
31125W        W 2654  37.938  26.002   1.394
31126W        W 2655  37.659  21.333  11.209
31127W        W 2656  31.149  35.578  11.156
31128W        W 2657  28.398  34.398  12.508
31129W        W 2658  38.441   3.297  14.297
31130W        W 2659  40.560  39.074   2.119
31131W        W 2660  27.195  39.408  13.437
31132W        W 2661  18.195   3.178  12.817
31133W        W 2662  20.174  31.906  10.715
31134W        W 2663  39.859  34.905   1.226
31135W        W 2664  28.554  21.049  13.127
31136W        W 2665   2.309   6.190   0.272
31137W        W 2666  33.800   9.391  13.027
31138W        W 2667  35.492  12.547   1.591
31139W        W 2668  16.810  11.352  11.496
31140W        W 2669  41.270  40.507   3.265
31141W        W 2670  23.435  25.207  12.672
31142W        W 2671  19.126   6.883   2.387
31143W        W 2672   0.039  15.202  11.154
31144W        W 2673   1.597  34.561   1.541
31145W        W 2674  41.461  14.686   0.528
31146W        W 2675   2.441  17.392   3.283
31147W        W 2676  37.623  10.860  12.950
31148W        W 2677  32.533  39.947   3.431
31149W        W 2678  17.568  16.234   3.244
31150W        W 2679  33.355  25.453  13.565
31151W        W 2680  16.108  30.122  11.233
31152W        W 2681  37.944  10.324   2.670
31153W        W 2682  15.562  40.218   0.371
31154W        W 2683  33.077   1.952   1.365
31155W        W 2684  30.871  29.647  14.898
31156W        W 2685   0.001  40.439   0.827
31157W        W 2686  34.461  35.339   1.638
31158W        W 2687  36.988  11.149  15.000
31159W        W 2688  23.869  16.837   4.577
31160W        W 2689  41.486  28.489  10.796
31161W        W 2690  17.306  22.746  11.349
31162W        W 2691  30.532  39.710   1.990
31163W        W 2692   8.882  33.930   4.515
31164W        W 2693  10.307  25.532  12.418
31165W        W 2694  12.370  25.127   1.871
31166W        W 2695  33.723  13.103  12.403
31167W        W 2696  42.475  22.942   2.258
31168W        W 2697  41.808  24.419  12.864
31169W        W 2698  40.476  11.883  12.498
31170W        W 2699  21.857  22.224   0.727
31171W        W 2700   0.163  29.451   2.327
31172W        W 2701  21.665  15.754   2.939
31173W        W 2702  38.000  18.850   3.750
31174W        W 2703  16.271  24.607  13.208
31175W        W 2704   2.013  10.684   3.370
31176W        W 2705  37.184  23.814  12.999
31177W        W 2706  10.345  38.291   1.746
31178W        W 2707  31.993  21.202   4.082
31179W        W 2708   5.888   2.836  11.054
31180W        W 2709  27.736   3.898  11.577
31181W        W 2710  22.421  21.595   4.144
31182W        W 2711   9.355  40.053   4.990
31183W        W 2712  11.614  37.600  12.951
31184W        W 2713  41.559  37.649   1.831
31185W        W 2714   9.635  29.588   1.690
31186W        W 2715   0.294  18.127  12.862
31187W        W 2716   7.817   8.305  12.145
31188W        W 2717  14.089  15.189  12.551
31189W        W 2718  31.442  42.638   3.063
31190W        W 2719  27.696   8.782   3.107
31191W        W 2720  23.804  38.295   2.386
31192W        W 2721  31.639  14.155   0.967
31193W        W 2722  27.897  13.849   2.820
31194W        W 2723  39.058   3.008   4.694
31195W        W 2724  11.628  43.236  12.984
31196W        W 2725  44.947  28.002   0.794
31197W        W 2726   4.966  39.045   3.732
31198W        W 2727  14.516  12.456   1.303
31199W        W 2728  35.913  39.227  13.738
31200W        W 2729  31.988  33.939   0.117
31201W        W 2730  30.853  23.187  11.995
31202W        W 2731  40.082  17.313   1.288
31203W        W 2732  31.255   7.242  14.682
31204W        W 2733  11.929  17.806   2.874
31205W        W 2734  20.525  29.648   2.407
31206W        W 2735   7.820  42.573   0.353
31207W        W 2736  19.427  30.172   0.696
31208W        W 2737   6.527   8.300  14.694
31209W        W 2738  10.232  35.150  12.574
31210W        W 2739   5.927  38.254  12.604
31211W        W 2740  36.438   3.224   3.160
31212W        W 2741  28.672  20.098  12.905
31213W        W 2742   5.504  28.514  13.028
31214W        W 2743  38.087  30.180   5.044
31215W        W 2744  31.481   5.609  14.997
31216W        W 2745  37.535  20.431   0.260
31217W        W 2746  38.239  35.934   3.366
31218W        W 2747  31.516  18.313   1.754
31219W        W 2748  29.077   1.771  11.594
31220W        W 2749  25.428  28.729  13.321
31221W        W 2750  13.353  15.570  12.203
31222W        W 2751   5.695   4.850  14.788
31223W        W 2752  12.612   1.437  10.266
31224W        W 2753   6.714  15.693  14.314
31225W        W 2754  11.385  18.265  11.249
31226W        W 2755  27.546  36.903   1.441
31227W        W 2756  25.473  12.809   0.770
31228W        W 2757   5.922  23.970  10.882
31229W        W 2758  20.875  11.897   2.771
31230W        W 2759  35.050  17.285  13.429
31231W        W 2760  26.291  18.231  10.446
31232W        W 2761  23.103  34.635   3.098
31233W        W 2762  35.983  36.423   1.759
31234W        W 2763  24.245  39.508  10.044
31235W        W 2764  34.151  24.683   0.300
31236W        W 2765  38.055  14.692   4.916
31237W        W 2766  23.669  11.216   2.246
31238W        W 2767   8.745   8.692  12.975
31239W        W 2768   9.951  43.044  14.894
31240W        W 2769  41.999  40.372   1.403
31241W        W 2770   3.893   7.539   0.811
31242W        W 2771  38.052  22.541  12.961
31243W        W 2772  17.603  17.526   0.921
31244W        W 2773  10.074  10.569   1.807
31245W        W 2774  34.053   5.815  13.606
31246W        W 2775  13.061  15.647   1.521
31247W        W 2776  33.449  17.838  11.526
31248W        W 2777  13.757   7.755  11.029
31249W        W 2778  11.391   5.227  13.796
31250W        W 2779  30.627  31.396  14.253
31251W        W 2780  40.746  10.370  13.382
31252W        W 2781  25.440  41.397   0.834
31253W        W 2782  11.406  16.454   0.079
31254W        W 2783  10.919  18.932   3.409
31255W        W 2784   5.363  31.509  13.051
31256W        W 2785  44.515  14.486  13.923
31257W        W 2786  39.544  21.749  14.305
31258W        W 2787  19.764  19.549  10.789
31259W        W 2788  28.419  35.920   2.175
31260W        W 2789   8.891  17.703   1.205
31261W        W 2790   9.194  39.980  14.962
31262W        W 2791  23.138   8.912   3.258
31263W        W 2792  32.712  29.567   0.752
31264W        W 2793  19.880  33.131  10.807
31265W        W 2794  42.255  11.209   1.774
31266W        W 2795  42.569   2.369   0.822
31267W        W 2796  37.104  14.743  14.846
31268W        W 2797  36.443  43.135   2.648
31269W        W 2798  33.820  34.368  10.458
31270W        W 2799   8.164  23.163  12.790
31271W        W 2800  25.611  37.058   2.619
31272W        W 2801  19.924   5.499   0.958
31273W        W 2802  17.828   7.375  14.453
31274W        W 2803  23.631  30.138  13.482
31275W        W 2804  28.248  14.342  10.670
31276W        W 2805  22.816  19.846   1.691
31277W        W 2806   5.904  25.112  12.389
31278W        W 2807  31.310  39.509   0.082
31279W        W 2808  17.613  33.082  10.924
31280W        W 2809  24.190  12.786   1.257
31281W        W 2810  38.303  41.978  11.158
31282W        W 2811  37.795  12.343   1.343
31283W        W 2812  29.258  38.888   1.765
31284W        W 2813  20.851  44.346   4.682
31285W        W 2814  14.672  32.799  11.260
31286W        W 2815  17.518  43.981   1.136
31287W        W 2816  10.799  22.656  11.482
31288W        W 2817  16.574   7.573   4.501
31289W        W 2818  27.853  30.570   3.141
31290W        W 2819  32.610   8.852   1.385
31291W        W 2820  18.558  20.836   1.155
31292W        W 2821  11.324  38.865   2.174
31293W        W 2822  30.896  32.554   2.108
31294W        W 2823   9.215  28.537  12.852
31295W        W 2824  30.244  20.718  12.551
31296W        W 2825  30.423  19.024   4.108
31297W        W 2826  21.695  38.397   5.765
31298W        W 2827  42.724  14.266  11.163
31299W        W 2828   2.763   7.151  10.747
31300W        W 2829  37.155  38.962   1.667
31301W        W 2830  29.669  12.363  12.594
31302W        W 2831  24.996  32.511  13.432
31303W        W 2832  37.517  19.890   5.004
31304W        W 2833  18.650  11.267   4.058
31305W        W 2834  41.295  31.602  13.556
31306W        W 2835   1.874   7.456  13.795
31307W        W 2836  17.141  14.845   4.196
31308W        W 2837   7.632  22.483   3.209
31309W        W 2838  26.475  42.825  11.586
31310W        W 2839   6.912   8.136  11.622
31311W        W 2840   7.696  38.239  12.877
31312W        W 2841  35.796  21.819   1.681
31313W        W 2842  42.744  13.102  12.919
31314W        W 2843  16.993  34.370   2.263
31315W        W 2844  43.009  37.924  12.592
31316W        W 2845  23.454  38.417   0.048
31317W        W 2846  26.533  25.617   1.171
31318W        W 2847  12.614  32.987   0.263
31319W        W 2848  10.422  17.579   2.181
31320W        W 2849  39.600  21.012   1.873
31321W        W 2850  10.759  11.363  13.405
31322W        W 2851  23.897  30.536   2.627
31323W        W 2852  20.611  38.390   2.339
31324W        W 2853   7.001  18.030  11.187
31325W        W 2854  28.566  38.797   1.176
31326W        W 2855   9.371  32.720  12.350
31327W        W 2856  21.190  17.023   2.181
31328W        W 2857  32.147  26.752  11.727
31329W        W 2858   0.201  26.035   2.836
31330W        W 2859  25.468  25.737   2.124
31331W        W 2860  10.230   3.958   0.891
31332W        W 2861  23.070  34.011   1.930
31333W        W 2862  30.056  23.862  10.949
31334W        W 2863  36.191  41.505  11.125
31335W        W 2864  19.795  22.727   1.609
31336W        W 2865  12.908  34.029   4.192
31337W        W 2866  20.225   7.807   1.918
31338W        W 2867  33.516  33.009  14.362
31339W        W 2868   8.907   1.326   0.882
31340W        W 2869  33.156  21.289  14.854
31341W        W 2870  25.541  12.616  13.919
31342W        W 2871   1.901  19.840  13.347
31343W        W 2872  33.027  42.547   3.109
31344W        W 2873   8.132  21.748  13.396
31345W        W 2874  28.987   4.776   0.370
31346W        W 2875  17.124  17.893  13.914
31347W        W 2876  39.371  42.592   0.405
31348W        W 2877  20.652  23.007  11.544
31349W        W 2878  22.651  39.408   1.935
31350W        W 2879  34.908  13.914  11.760
31351W        W 2880  16.529  14.751  13.868
31352W        W 2881  44.134   3.032  11.084
31353W        W 2882   1.185   9.661   4.188
31354W        W 2883  20.708  43.241   0.802
31355W        W 2884  38.314   2.285   3.206
31356W        W 2885  41.001   5.053   2.427
31357W        W 2886   7.317   9.237   4.228
31358W        W 2887   0.237  25.200  11.899
31359W        W 2888  41.445  28.922  13.344
31360W        W 2889  22.180   9.901  14.237
31361W        W 2890  15.251  11.383   4.513
31362W        W 2891  14.539  44.768  14.442
31363W        W 2892   1.721   5.467  13.773
31364W        W 2893  16.325  39.520  11.905
31365W        W 2894  16.689  11.621  11.079
31366W        W 2895  14.415  34.846   1.390
31367W        W 2896   6.883  24.129   2.314
31368W        W 2897   8.810   4.377   0.211
31369W        W 2898  32.141  39.756  10.815
31370W        W 2899  31.967   8.315   3.968
31371W        W 2900  27.546   2.036  10.647
31372W        W 2901  26.539  21.706   2.249
31373W        W 2902  27.497  16.147   2.164
31374W        W 2903  35.909  14.242   0.032
31375W        W 2904  29.437  38.085   0.501
31376W        W 2905   2.231  12.570   0.507
31377W        W 2906  37.742  25.856  13.936
31378W        W 2907   0.205   4.246   4.587
31379W        W 2908  23.552   2.789  12.882
31380W        W 2909  36.733  11.331  11.144
31381W        W 2910   6.657  11.232   3.690
31382W        W 2911  28.980  14.547   0.066
31383W        W 2912  18.390  36.873   4.842
31384W        W 2913  24.168  41.428   2.339
31385W        W 2914  27.542   0.076  13.985
31386W        W 2915  27.527  24.635   1.415
31387W        W 2916  12.344  29.958  13.926
31388W        W 2917  15.854  19.519  13.807
31389W        W 2918  22.086   6.752  14.358
31390W        W 2919  39.997  33.651   2.372
31391W        W 2920  33.742   3.659   0.274
31392W        W 2921  39.827  43.316   4.824
31393W        W 2922  39.012  39.842  11.029
31394W        W 2923  15.722  38.534   4.056
31395W        W 2924  22.234  19.041  12.534
31396W        W 2925  10.294  37.755   3.320
31397W        W 2926  29.189  39.395  13.581
31398W        W 2927  23.973  28.685   2.369
31399W        W 2928  21.436  33.023  13.863
31400W        W 2929  23.196  34.465  12.476
31401W        W 2930  44.308  40.955  11.029
31402W        W 2931  18.207  33.105  11.582
31403W        W 2932  17.189  12.374  10.979
31404W        W 2933  19.263   9.701  13.407
31405W        W 2934  39.458  14.758   2.884
31406W        W 2935  10.057  35.015   3.225
31407W        W 2936  14.088   1.187  14.301
31408W        W 2937  35.404   9.379   2.115
31409W        W 2938   4.275  12.584  13.038
31410W        W 2939  39.401   6.787  10.729
31411W        W 2940  31.914   0.529  14.802
31412W        W 2941  21.870  27.672   4.862
31413W        W 2942  16.799  27.222   3.974
31414W        W 2943  23.225  22.977   0.828
31415W        W 2944  14.831  17.749   3.451
31416W        W 2945  16.317   7.780  11.205
31417W        W 2946  12.329   1.474  10.708
31418W        W 2947  29.208  39.837  12.832
31419W        W 2948  14.760  18.775  10.528
31420W        W 2949  43.386  40.321   3.587
31421W        W 2950  10.813   9.804   2.878
31422W        W 2951   1.254  12.402   1.808
31423W        W 2952  37.811  25.961   0.249
31424W        W 2953  31.111  17.749   4.009
31425W        W 2954  27.223  19.585   3.322
31426W        W 2955  34.727  19.228  12.663
31427W        W 2956  42.525  20.218  13.947
31428W        W 2957  31.888   7.883  14.441
31429W        W 2958  35.046  38.774  13.079
31430W        W 2959  33.376  41.814   4.247
31431W        W 2960  14.938   9.670   2.255
31432W        W 2961  44.322  39.045  11.007
31433W        W 2962  17.828   7.356   0.999
31434W        W 2963  19.368  19.692   5.247
31435W        W 2964   0.800  27.908   2.666
31436W        W 2965  21.759  23.145   0.879
31437W        W 2966  38.329  28.427   2.153
31438W        W 2967  16.914  27.581  14.003
31439W        W 2968   5.448  10.285   2.616
31440W        W 2969  13.674   6.793  12.990
31441W        W 2970  35.558   2.243   1.756
31442W        W 2971  39.253  44.856   1.643
31443W        W 2972  12.411  33.975   4.622
31444W        W 2973  34.805  42.035   2.807
31445W        W 2974  20.087  14.434   0.523
31446W        W 2975   1.364  32.036   4.563
31447W        W 2976   0.993  16.759   0.240
31448W        W 2977   5.190  23.246   1.663
31449W        W 2978  13.627  44.383   4.468
31450W        W 2979   2.830  42.951   3.949
31451W        W 2980   4.026  41.572   1.566
31452W        W 2981   9.736  38.874  12.105
31453W        W 2982   7.668  29.905  12.915
31454W        W 2983  14.708  34.489  10.219
31455W        W 2984  36.173  31.005   4.666
31456W        W 2985  20.624   7.867  14.855
31457W        W 2986  42.989  35.084  12.083
31458W        W 2987  40.958   1.935   0.620
31459W        W 2988  27.611  22.993   4.641
31460W        W 2989  43.747  11.604   0.827
31461W        W 2990  30.822  43.397  12.091
31462W        W 2991  12.058  21.524  12.860
31463W        W 2992  30.352  36.682   0.934
31464W        W 2993  22.201  18.240   0.356
31465W        W 2994  33.448  19.779   0.102
31466W        W 2995  44.454  24.846  12.640
31467W        W 2996  30.186  41.351   4.620
31468W        W 2997   9.347  15.250  13.937
31469W        W 2998  38.101  40.351   3.571
31470W        W 2999   5.640  15.900   3.064
31471W        W 3000  32.501   5.704  12.591
31472W        W 3001  13.632  17.230   2.665
31473W        W 3002  12.981  13.891  12.842
31474W        W 3003  25.704  24.841   4.677
31475W        W 3004  36.548  18.533   1.781
31476W        W 3005  40.046  15.249  11.943
31477W        W 3006  15.856  39.435   3.795
31478W        W 3007  35.927  30.662  14.769
31479W        W 3008   3.296  30.951  11.139
31480W        W 3009  40.006  25.245   1.249
31481W        W 3010  19.716  21.357  11.597
31482W        W 3011   1.452   8.875   3.785
31483W        W 3012   8.623  15.696   0.617
31484W        W 3013   6.747  22.716   2.755
31485W        W 3014  20.075   2.924   0.954
31486W        W 3015   8.261   2.968   4.718
31487W        W 3016   7.795  12.729  10.251
31488W        W 3017  10.050  18.982  12.000
31489W        W 3018   3.745  14.103  12.476
31490W        W 3019  25.520   5.388  13.357
31491W        W 3020  38.630  12.637   0.304
31492W        W 3021  18.336  42.755  12.179
31493W        W 3022  19.091  11.590  14.224
31494W        W 3023   8.583  12.107  11.752
31495W        W 3024   0.246   1.801   3.204
31496W        W 3025  18.601  22.860   3.137
31497W        W 3026  39.345  36.417   4.798
31498W        W 3027  29.439   0.502  13.994
31499W        W 3028  21.996  30.600  14.488
31500W        W 3029   8.093  19.110  14.389
31501W        W 3030  21.260  22.189  12.701
31502W        W 3031  27.919   7.681   0.515
31503W        W 3032  13.708  22.617  10.510
31504W        W 3033  23.601  12.941   3.151
31505W        W 3034  41.629  18.712   2.449
31506W        W 3035  25.820  36.971  12.529
31507W        W 3036  33.683  15.304   2.490
31508W        W 3037  34.837  40.528   3.465
31509W        W 3038  41.448  29.009  12.439
31510W        W 3039  33.151  33.097  10.284
31511W        W 3040  22.128   6.210   2.043
31512W        W 3041  32.073  23.859   0.345
31513W        W 3042  41.018  42.923   3.563
31514W        W 3043   1.578  43.326  10.804
31515W        W 3044   1.682  42.569  13.021
31516W        W 3045   2.704   3.659  12.183
31517W        W 3046  21.334   3.713  11.623
31518W        W 3047   8.985  43.378  12.035
31519W        W 3048  13.682  24.192  14.366
31520W        W 3049  39.282   6.574  13.914
31521W        W 3050  22.759  42.965   1.308
31522W        W 3051  27.742  22.709   0.493
31523W        W 3052  35.999  36.148   2.251
31524W        W 3053  27.460   0.759  12.323
31525W        W 3054  35.711  30.138   1.793
31526W        W 3055   2.011   5.314   3.322
31527W        W 3056  15.070  10.535   2.826
31528W        W 3057  11.180  30.189  11.206
31529W        W 3058   4.164   9.007   0.931
31530W        W 3059  17.755  44.861  14.477
31531W        W 3060  16.659  41.016  10.618
31532W        W 3061   5.206  29.544  12.808
31533W        W 3062  32.329  31.142  12.933
31534W        W 3063   9.623   0.226   2.315
31535W        W 3064  13.275  39.215  14.073
31536W        W 3065  31.883   6.982  14.916
31537W        W 3066  24.153  21.180   3.162
31538W        W 3067  16.165  10.742   3.519
31539W        W 3068  19.240  41.229   0.691
31540W        W 3069  34.584   4.393  10.655
31541W        W 3070  36.845  17.803  12.587
31542W        W 3071   5.615  20.084   3.339
31543W        W 3072  22.106  23.575  12.575
31544W        W 3073  44.230   4.533   0.757
31545W        W 3074  39.868  42.530   2.962
31546W        W 3075  39.960  43.402   1.431
31547W        W 3076  37.468  29.859   1.078
31548W        W 3077  25.494  12.782   3.186
31549W        W 3078  28.426  15.783  12.847
31550W        W 3079   8.802  30.923  10.376
31551W        W 3080  38.401   8.181  13.805
31552W        W 3081  16.709  22.400   1.530
31553W        W 3082  41.340  21.334  12.336
31554W        W 3083  15.231  32.112   0.802
31555W        W 3084  12.457  34.578  12.887
31556W        W 3085  30.302  16.122   3.195
31557W        W 3086  33.947  34.926   0.344
31558W        W 3087  43.781  30.402  11.155
31559W        W 3088  39.798   8.309   1.942
31560W        W 3089  10.630   6.889   3.834
31561W        W 3090  17.851  37.468   2.970
31562W        W 3091  28.167   9.355  11.831
31563W        W 3092  34.530  23.596  13.425
31564W        W 3093  13.705  44.883   4.401
31565W        W 3094   2.970  16.974  14.811
31566W        W 3095  41.283  35.094  10.780
31567W        W 3096  37.887   9.344  13.434
31568W        W 3097  37.481  25.977   3.325
31569W        W 3098   3.522  18.265  13.015
31570W        W 3099  28.056  30.623  13.774
31571W        W 3100   6.731  12.332  14.463
31572W        W 3101  25.238  44.956  14.739
31573W        W 3102   5.171  17.707   3.268
31574W        W 3103  34.597  40.110   2.178
31575W        W 3104  18.231   8.187  13.831
31576W        W 3105  44.612  24.099  10.618
31577W        W 3106  32.039   1.291   2.419
31578W        W 3107  21.529   2.992   1.347
31579W        W 3108  38.531  19.584   3.891
31580W        W 3109  24.549  41.982   2.247
31581W        W 3110  30.034  40.099   4.899
31582W        W 3111   8.915   9.860  13.776
31583W        W 3112  15.771  28.453  10.302
31584W        W 3113  17.254  41.093  13.994
31585W        W 3114  30.487   3.238   0.543
31586W        W 3115  35.542   2.759   1.917
31587W        W 3116  20.703  42.867  14.836
31588W        W 3117  29.560  35.024  12.085
31589W        W 3118  28.213   8.166   1.368
31590W        W 3119  39.572  33.380   1.335
31591W        W 3120  31.516  24.451  13.018
31592W        W 3121  13.281  18.082  14.280
31593W        W 3122   6.878  44.016  12.756
31594W        W 3123  28.364  17.501  11.067
31595W        W 3124  22.091  29.711   1.568
31596W        W 3125  37.398  20.629  14.375
31597W        W 3126  42.911  30.678   2.827
31598W        W 3127  43.363  31.592  11.172
31599W        W 3128  38.849  37.321  13.080
31600W        W 3129  42.258   9.676  14.979
31601W        W 3130  31.715   7.818   4.916
31602W        W 3131  22.220  21.999  11.922
31603W        W 3132  10.540  26.416   3.648
31604W        W 3133  32.387   4.750   4.567
31605W        W 3134  15.058  18.097   2.342
31606W        W 3135   1.957   3.729   2.677
31607W        W 3136  24.930   2.779   2.266
31608W        W 3137   2.330   4.921  10.586
31609W        W 3138  17.646   7.798   3.138
31610W        W 3139  16.841  41.094  11.576
31611W        W 3140  15.832  14.243  11.640
31612W        W 3141   4.930  20.974   3.100
31613W        W 3142   6.333  40.348   1.660
31614W        W 3143  15.836  28.110  14.426
31615W        W 3144   7.140   1.946  14.927
31616W        W 3145   7.764  32.087  14.286
31617W        W 3146   3.450  36.709  12.201
31618W        W 3147  22.543  12.186   4.849
31619W        W 3148  10.822   8.885  14.261
31620W        W 3149  11.001  27.500  14.480
31621W        W 3150   8.189  42.986  11.762
31622W        W 3151   6.869  20.826  14.277
31623W        W 3152  10.013  27.396   1.104
31624W        W 3153  22.773  26.636   3.781
31625W        W 3154  28.690  26.700   3.336
31626W        W 3155  32.930  33.594  13.779
31627W        W 3156   9.168  14.366   3.610
31628W        W 3157   6.788  26.165   1.437
31629W        W 3158  38.745   8.352  10.955
31630W        W 3159  34.519  26.965  11.441
31631W        W 3160  35.383  19.647   2.213
31632W        W 3161  37.312  13.687  11.082
31633W        W 3162  13.335  24.507   4.758
31634W        W 3163   0.028  17.203   1.645
31635W        W 3164   5.459  20.592  14.289
31636W        W 3165  14.212  24.699  11.390
31637W        W 3166   2.447   8.746  11.972
31638W        W 3167  10.582  15.208  14.827
31639W        W 3168   8.736  22.551  13.378
31640W        W 3169  19.069   0.078   3.231
31641W        W 3170  18.643   1.272  12.435
31642W        W 3171  19.690  16.681  11.546
31643W        W 3172  21.594  19.435  13.543
31644W        W 3173  29.588  29.505   2.112
31645W        W 3174  28.588   4.994  13.962
31646W        W 3175  41.942   6.369  11.539
31647W        W 3176  41.932  20.756   1.828
31648W        W 3177  33.107   6.405   3.709
31649W        W 3178   4.227  30.799   0.428
31650W        W 3179  35.331   3.410   3.623
31651W        W 3180  10.623  22.460   4.656
31652W        W 3181  40.454  14.892  10.473
31653W        W 3182   6.765  26.512   1.866
31654W        W 3183  34.336   2.731  11.283
31655W        W 3184  29.011  18.975  11.157
31656W        W 3185  30.132  37.412  13.011
31657W        W 3186  20.905   0.019  12.348
31658W        W 3187  35.408   7.776   0.409
31659W        W 3188  34.578  24.640   1.964
31660W        W 3189  29.512  33.838   0.478
31661W        W 3190  38.889  23.516   1.795
31662W        W 3191  27.093  42.806   0.558
31663W        W 3192  28.608   7.459  13.861
31664W        W 3193  20.566  27.570  12.006
31665W        W 3194   5.720  38.085  11.221
31666W        W 3195  25.397   4.821  12.049
31667W        W 3196  29.007   9.418  14.498
31668W        W 3197  41.376  28.651   1.305
31669W        W 3198  12.063  21.225  13.948
31670W        W 3199   2.206  24.452   3.306
31671W        W 3200  33.887   6.460   4.768
31672W        W 3201   2.127   5.374  10.724
31673W        W 3202   5.499  12.079  11.652
31674W        W 3203  44.000   1.445  12.025
31675W        W 3204  34.021  20.683   0.887
31676W        W 3205  12.131  15.297   4.474
31677W        W 3206  26.275  29.134  12.695
31678W        W 3207  42.810  43.914  13.433
31679W        W 3208  22.739   6.180  14.472
31680W        W 3209  34.523  25.644  14.418
31681W        W 3210  36.422   6.582  11.911
31682W        W 3211   8.901  35.558  12.632
31683W        W 3212  35.418  12.424   4.621
31684W        W 3213  18.681  39.198  13.018
31685W        W 3214  30.072  16.655  11.542
31686W        W 3215  13.321  14.776  11.035
31687W        W 3216  27.027   0.043   0.675
31688W        W 3217  22.857  28.562   0.503
31689W        W 3218  39.062  43.938   4.514
31690W        W 3219  24.735  26.016  13.014
31691W        W 3220   3.523  29.826   1.141
31692W        W 3221  25.642  36.626  12.090
31693W        W 3222  26.167  33.315  12.444
31694W        W 3223  14.211  24.486  13.138
31695W        W 3224  40.350  34.465  12.001
31696W        W 3225   4.828  39.428   4.049
31697W        W 3226  25.507  24.572   2.207
31698W        W 3227  13.302  44.907  14.507
31699W        W 3228  32.054  39.043   3.496
31700W        W 3229  23.174  29.408  11.101
31701W        W 3230  42.378  40.474   4.350
31702W        W 3231  22.455   7.888  13.471
31703W        W 3232  21.988  32.548   1.605
31704W        W 3233  35.118   9.313  12.598
31705W        W 3234  11.839  15.277  11.937
31706W        W 3235  39.280  34.992   3.298
31707W        W 3236  19.794  13.859   4.263
31708W        W 3237  20.477   9.346  11.019
31709W        W 3238  43.066  42.890   2.171
31710W        W 3239   9.464  29.219   1.367
31711W        W 3240  37.800  33.968  14.480
31712W        W 3241  19.264  31.682  14.843
31713W        W 3242  11.497  28.550   4.612
31714W        W 3243  26.554   0.568   1.374
31715W        W 3244  37.485  33.583  12.337
31716W        W 3245  30.129  28.258   2.025
31717W        W 3246  22.296  17.494  10.573
31718W        W 3247  10.467   0.297  12.947
31719W        W 3248  32.836  27.105  11.014
31720W        W 3249   3.805  15.788  11.607
31721W        W 3250  12.685  17.571   3.743
31722W        W 3251  11.781  22.309   0.977
31723W        W 3252  36.595   0.710  12.205
31724W        W 3253  25.945  36.483  12.468
31725W        W 3254   5.686  32.232  12.046
31726W        W 3255  25.208  14.582  12.016
31727W        W 3256  24.749  20.086   3.660
31728W        W 3257  32.845  25.780  12.923
31729W        W 3258  42.823  38.853  11.129
31730W        W 3259  20.777  10.274  14.252
31731W        W 3260  13.992  10.586   4.914
31732W        W 3261  34.631  38.587  12.776
31733W        W 3262   9.606   1.948  11.911
31734W        W 3263   8.450  15.602  11.425
31735W        W 3264  40.926  27.482   2.345
31736W        W 3265  38.309  25.662   1.247
31737W        W 3266  31.697  11.054  12.123
31738W        W 3267  19.754  11.154   4.665
31739W        W 3268  39.903   1.414   0.671
31740W        W 3269  14.241   2.961  11.654
31741W        W 3270  44.390  15.009   4.210
31742W        W 3271  42.139  11.049  13.740
31743W        W 3272  34.052  20.889   1.362
31744W        W 3273   0.005   7.761   4.120
31745W        W 3274  16.021  33.060   0.734
31746W        W 3275  11.824  25.013   3.608
31747W        W 3276  37.090  11.303  13.291
31748W        W 3277  18.103  42.108  13.699
31749W        W 3278  12.477  18.568  10.648
31750W        W 3279  28.139  20.250   0.226
31751W        W 3280  36.079  28.465  11.188
31752W        W 3281  11.890  36.052   1.676
31753W        W 3282  34.955  35.776  14.030
31754W        W 3283  11.296   3.529  11.092
31755W        W 3284  14.261  33.501  12.390
31756W        W 3285   1.049  10.135   4.132
31757W        W 3286  33.592  11.652   0.734
31758W        W 3287  32.914  25.933  14.744
31759W        W 3288  27.089  27.540   0.455
31760W        W 3289  30.099  15.757   3.730
31761W        W 3290  10.845  16.884  12.130
31762W        W 3291  10.062  26.426  13.877
31763W        W 3292  44.310  13.530   3.976
31764W        W 3293  37.949  27.012   4.361
31765W        W 3294  37.464   1.375   1.348
31766W        W 3295  44.919   1.381   3.125
31767W        W 3296   4.458  26.919   0.329
31768W        W 3297  23.416  42.493   2.198
31769W        W 3298  29.898   4.410   3.328
31770W        W 3299  40.267   7.973   3.739
31771W        W 3300  14.738  23.013   0.263
31772W        W 3301  41.671  33.013  11.119
31773W        W 3302  11.307  27.608  12.075
31774W        W 3303  23.692  13.640   4.659
31775W        W 3304   0.041  28.791   0.148
31776W        W 3305  19.717  34.633   4.083
31777W        W 3306   8.399  15.922  13.936
31778W        W 3307  15.679  13.332  12.864
31779W        W 3308  17.825  31.675  13.958
31780W        W 3309  12.835  24.945   1.705
31781W        W 3310  33.058   7.335  10.969
31782W        W 3311  41.651   1.742   2.316
31783W        W 3312  10.848  27.106  10.610
31784W        W 3313  16.201  35.084   4.695
31785W        W 3314  18.588  43.480   0.996
31786W        W 3315  42.410  28.486  14.323
31787W        W 3316  19.473  31.696  13.034
31788W        W 3317  36.110  30.549  13.390
31789W        W 3318  10.142   7.296  13.301
31790W        W 3319  17.364  40.089  13.938
31791W        W 3320   7.738  29.446   1.731
31792W        W 3321  36.832  25.888  11.103
31793W        W 3322  33.512   4.873   4.173
31794W        W 3323   0.872  11.471   0.427
31795W        W 3324  25.113  22.114   4.344
31796W        W 3325  17.016  17.853  10.837
31797W        W 3326  44.393  14.222   1.242
31798W        W 3327  29.476  34.553   0.914
31799W        W 3328  43.811  12.573   3.192
31800W        W 3329  23.957  24.494   0.730
31801W        W 3330  37.571  20.465   3.335
31802W        W 3331  38.291  13.733   2.225
31803W        W 3332  31.042  20.086  10.694
31804W        W 3333  27.497  44.500   0.394
31805W        W 3334  17.179   5.144  14.676
31806W        W 3335  25.153  22.279  12.152
31807W        W 3336  28.560   5.470  11.168
31808W        W 3337   8.782  44.448  14.548
31809W        W 3338  31.944  13.824   1.791
31810W        W 3339  24.055  36.023  10.365
31811W        W 3340   6.871  19.866   2.789
31812W        W 3341   4.901  13.065  12.439
31813W        W 3342  43.466  43.396  13.011
31814W        W 3343   9.150  23.163  12.276
31815W        W 3344  23.782   4.322   0.909
31816W        W 3345  30.276  29.375   2.264
31817W        W 3346  30.997   5.025   0.289
31818W        W 3347   4.883  13.857   2.793
31819W        W 3348  40.580  22.093  14.041
31820W        W 3349  26.088  22.954   1.048
31821W        W 3350  15.387   8.421  13.540
31822W        W 3351  25.472  30.078   4.241
31823W        W 3352   3.706   6.084  11.640
31824W        W 3353   6.854  24.020  14.991
31825W        W 3354  16.054  11.175   4.270
31826W        W 3355  41.161  34.349   4.158
31827W        W 3356  37.506  24.713  13.040
31828W        W 3357  36.631  32.397  12.152
31829W        W 3358  36.467  29.830   0.664
31830W        W 3359  37.850  43.378   4.027
31831W        W 3360  32.773  21.820  11.893
31832W        W 3361  40.902  24.120   4.969
31833W        W 3362  25.690  43.534  14.369
31834W        W 3363  14.221   3.015   0.463
31835W        W 3364  31.667   4.179   2.599
31836W        W 3365  12.396  25.999   4.090
31837W        W 3366  20.873  41.747   0.396
31838W        W 3367  16.609  26.179   2.086
31839W        W 3368  10.588  40.425   3.213
31840W        W 3369   5.221  20.143  14.377
31841W        W 3370  12.322  31.198   0.790
31842W        W 3371  23.643  42.776  14.494
31843W        W 3372  21.515   1.307  11.911
31844W        W 3373  20.599  14.444  12.747
31845W        W 3374  31.538  41.577   3.475
31846W        W 3375  41.024   8.285  10.778
31847W        W 3376  26.128  26.448  14.788
31848W        W 3377   5.452  10.812  14.937
31849W        W 3378  44.825   3.450  10.714
31850W        W 3379  10.056  30.686  10.301
31851W        W 3380  36.287   3.784  11.105
31852W        W 3381  34.154  13.382  14.540
31853W        W 3382   0.320   7.985   4.680
31854W        W 3383  13.056  10.806   3.244
31855W        W 3384  37.408  17.547  14.432
31856W        W 3385  27.675   0.947  14.972
31857W        W 3386   7.454   9.138   0.803
31858W        W 3387  10.666  29.087  13.588
31859W        W 3388  23.514   2.359   4.444
31860W        W 3389  11.788   0.668  11.110
31861W        W 3390  32.233   7.852  13.480
31862W        W 3391  43.228  10.302   3.822
31863W        W 3392  33.752  29.861  12.536
31864W        W 3393  43.113  28.590   1.412
31865W        W 3394  31.514  42.529   2.566
31866W        W 3395  12.100   5.832  13.909
31867W        W 3396  41.253   9.422  12.154
31868W        W 3397   8.258  32.458  11.429
31869W        W 3398   4.273   4.851   4.621
31870W        W 3399   5.992  29.624   1.333
31871W        W 3400  16.218  41.829  13.808
31872W        W 3401  25.680  17.762  12.029
31873W        W 3402   7.632   2.759   4.299
31874W        W 3403  43.112  16.096   0.479
31875W        W 3404  16.697  10.725  12.540
31876W        W 3405  31.808  14.878   0.280
31877W        W 3406  27.022   1.208  10.338
31878W        W 3407  16.536   9.154   3.390
31879W        W 3408   1.720  19.999  10.712
31880W        W 3409   6.337  26.206  10.497
31881W        W 3410  32.899  13.266  13.009
31882W        W 3411  17.317   1.193  12.261
31883W        W 3412  43.742  32.048  12.880
31884W        W 3413  31.630  15.230   1.137
31885W        W 3414  11.269  31.316   1.894
31886W        W 3415  22.244   5.274   4.582
31887W        W 3416  25.158  39.341   2.752
31888W        W 3417  24.697  42.352   0.748
31889W        W 3418  40.538   7.149   4.043
31890W        W 3419  26.068  21.573  14.331
31891W        W 3420  22.712  21.404   0.519
31892W        W 3421  29.281  26.015   4.296
31893W        W 3422  42.467  10.654  10.695
31894W        W 3423   2.733  32.837   0.034
31895W        W 3424  19.219  24.721   1.245
31896W        W 3425   7.667  42.939  12.172
31897W        W 3426  33.086  44.963  14.283
31898W        W 3427  41.419  16.024  11.420
31899W        W 3428  38.052  36.528  10.731
31900W        W 3429   2.160  41.086  10.902
31901W        W 3430  41.505  20.241  12.988
31902W        W 3431  21.267   2.557   1.214
31903W        W 3432  35.350   3.406  14.606
31904W        W 3433  19.135   9.784   0.963
31905W        W 3434  23.112  24.150  14.476
31906W        W 3435  42.380  12.355   3.854
31907W        W 3436  43.523   2.225  11.749
31908W        W 3437  21.957  37.055   1.401
31909W        W 3438  37.515   8.909   0.374
31910W        W 3439   3.034   4.317  13.948
31911W        W 3440  13.821   4.346   2.779
31912W        W 3441  28.145  39.797   3.231
31913W        W 3442  38.049  34.432   0.806
31914W        W 3443  42.102   2.965  14.227
31915W        W 3444   5.709  34.789   4.722
31916W        W 3445  12.305  23.482   4.685
31917W        W 3446  35.023  31.983  10.108
31918W        W 3447   0.774  43.958   3.082
31919W        W 3448  23.201   6.176   0.448
31920W        W 3449   4.976  10.301  11.858
31921W        W 3450   7.761  43.839  12.864
31922W        W 3451   3.298  10.853  13.221
31923W        W 3452   9.412   4.210   1.413
31924W        W 3453  18.057  13.174  12.074
31925W        W 3454  30.113  23.028  11.222
31926W        W 3455  43.978  15.568   0.396
31927W        W 3456  17.797  25.133   0.827
31928W        W 3457  23.419  13.731   0.727
31929W        W 3458  11.878  16.417  12.569
31930W        W 3459   5.879   0.722   2.895
31931W        W 3460  43.816  19.342  12.560
31932W        W 3461   7.446  29.476   3.410
31933W        W 3462  11.613  15.273  14.018
31934W        W 3463  10.613  35.587  11.183
31935W        W 3464  26.858  39.741   4.990
31936W        W 3465  28.691  10.655  12.571
31937W        W 3466  42.290   8.110   2.768
31938W        W 3467  21.523  22.694  13.432
31939W        W 3468  24.652  37.130  10.655
31940W        W 3469  37.980   6.433  12.843
31941W        W 3470  17.553   4.649  11.594
31942W        W 3471   4.851  42.278  14.450
31943W        W 3472  38.155  18.035  12.097
31944W        W 3473  34.467  38.468   4.284
31945W        W 3474  43.773  44.745  13.569
31946W        W 3475  30.207  15.178  14.025
31947W        W 3476  12.033  25.269  11.027
31948W        W 3477  18.293  10.584   1.055
31949W        W 3478  35.050  18.010   1.896
31950W        W 3479  43.110  40.991   4.217
31951W        W 3480   6.949  39.025   3.719
31952W        W 3481  44.446   1.510   3.741
31953W        W 3482   5.151  11.789  12.898
31954W        W 3483   8.425  20.049   0.175
31955W        W 3484  37.074  22.600  14.559
31956W        W 3485  26.030  43.961   2.756
31957W        W 3486  33.827  38.732   4.260
31958W        W 3487  34.449   8.732   4.858
31959W        W 3488  39.317  34.698  13.614
31960W        W 3489  18.470  34.860  11.168
31961W        W 3490  34.669  14.188   0.329
31962W        W 3491   4.428  27.697   0.150
31963W        W 3492  35.396  42.475   0.951
31964W        W 3493  43.418  26.512  13.234
31965W        W 3494  18.561   7.150   2.091
31966W        W 3495  38.905  32.915   3.773
31967W        W 3496  33.253  25.716   0.339
31968W        W 3497  35.909  23.956  13.446
31969W        W 3498   1.525  31.000  10.497
31970W        W 3499  35.015  25.247   1.273
31971W        W 3500  21.614   2.201   1.005
31972W        W 3501   4.944  17.298   0.258
31973W        W 3502  21.372  35.690  13.915
31974W        W 3503  13.745  20.499   1.287
31975W        W 3504  38.704   8.810   4.164
31976W        W 3505   1.773  22.096  13.570
31977W        W 3506  23.842   3.958   0.468
31978W        W 3507  36.036   3.481   0.027
31979W        W 3508  13.933   2.923  11.252
31980W        W 3509  32.302  29.796   1.471
31981W        W 3510  40.303  16.172  12.949
31982W        W 3511   0.439   3.873  13.351
31983W        W 3512  32.229   9.289   3.865
31984W        W 3513  34.852  43.168   1.259
31985W        W 3514  19.575  20.573   1.029
31986W        W 3515  13.632  40.804   0.659
31987W        W 3516  22.637  35.786  13.365
31988W        W 3517  38.405  22.355   0.732
31989W        W 3518  15.063  35.523   1.457
31990W        W 3519  11.060  13.659   0.948
31991W        W 3520  15.600  44.423   3.248
31992W        W 3521   0.923  21.116  11.804
31993W        W 3522   2.290  40.068  14.939
31994W        W 3523  35.858   9.358   2.376
31995W        W 3524  18.925  24.868  13.627
31996W        W 3525  22.092  14.109  11.991
31997W        W 3526  30.907   7.910   0.884
31998W        W 3527  15.112  15.271   2.928
31999W        W 3528  31.173  42.957   2.729
32000W        W 3529  11.506  23.760  12.069
32001W        W 3530  44.928  11.670  12.959
32002W        W 3531  35.156  11.029  12.387
32003W        W 3532   5.051  31.362   3.614
32004W        W 3533  38.026  18.064  14.801
32005W        W 3534   7.900  13.558  12.181
32006W        W 3535  31.450  12.646   4.095
32007W        W 3536   7.812  40.597   0.290
32008W        W 3537  34.082  22.262  11.607
32009W        W 3538  33.877   2.968  14.399
32010W        W 3539  14.245  21.302   4.887
32011W        W 3540  10.252   7.557   0.233
32012W        W 3541  42.227  30.962  14.727
32013W        W 3542  32.607   3.451   1.210
32014W        W 3543  30.652  39.280   3.727
32015W        W 3544  22.836  18.015  14.845
32016W        W 3545  15.863  20.223  10.708
32017W        W 3546   5.851   6.195   4.347
32018W        W 3547  20.224  11.407   0.337
32019W        W 3548  14.771   4.486   1.464
32020W        W 3549  30.460  15.119   0.513
32021W        W 3550  16.414  23.096   2.990
32022W        W 3551  28.439  20.175  12.406
32023W        W 3552  20.042  11.886   0.221
32024W        W 3553   8.895  36.087  12.719
32025W        W 3554  15.787  43.674   3.247
32026W        W 3555  19.654  10.923   0.259
32027W        W 3556  44.933   1.309   3.670
32028W        W 3557   6.595  27.025  11.617
32029W        W 3558  13.767  26.742  13.848
32030W        W 3559  16.734   3.015   0.959
32031W        W 3560  38.798  23.505  12.432
32032W        W 3561  39.118   9.811  12.244
32033W        W 3562  35.923  12.580  14.328
32034W        W 3563  40.634  23.773  13.077
32035W        W 3564   8.703  21.979  12.660
32036W        W 3565  29.985   7.791  12.053
32037W        W 3566  12.898  31.970  12.040
32038W        W 3567   9.865  37.124  12.672
32039W        W 3568  43.008  16.277   3.629
32040W        W 3569   2.775  17.221  10.932
32041W        W 3570  33.088  41.945   3.812
32042W        W 3571  31.692  32.490   1.870
32043W        W 3572  24.956  29.473   0.893
32044W        W 3573  28.862  41.331   0.970
32045W        W 3574  14.514   2.390  11.622
32046W        W 3575  44.432  30.552   5.011
32047W        W 3576  13.563   0.207  10.917
32048W        W 3577  32.441  38.608   1.768
32049W        W 3578  33.674  35.525   3.772
32050W        W 3579  33.454  30.510   0.360
32051W        W 3580  18.080  31.691   1.813
32052W        W 3581   2.849  42.148   3.261
32053W        W 3582  22.275  30.231   3.370
32054W        W 3583  31.441   1.410  14.750
32055W        W 3584  29.056  29.059   0.907
32056W        W 3585   3.763  39.979   0.539
32057W        W 3586  16.872  29.888  12.104
32058W        W 3587  27.171  18.048   4.155
32059W        W 3588  21.078  12.223   3.159
32060W        W 3589  32.378  12.275   3.523
32061W        W 3590   9.424  37.920   2.720
32062W        W 3591  34.726  30.581  14.848
32063W        W 3592  21.154   6.211  13.017
32064W        W 3593  30.044  44.256  11.388
32065W        W 3594  21.094  13.191   1.943
32066W        W 3595  18.184  24.647  12.307
32067W        W 3596  28.961  33.549   1.193
32068W        W 3597  14.181  38.831   4.150
32069W        W 3598  30.701  36.851   2.524
32070W        W 3599  12.103  19.233   3.977
32071W        W 3600  15.545  21.121   0.620
32072W        W 3601   8.750   5.194   1.904
32073W        W 3602  37.468   3.355   3.785
32074W        W 3603  21.433   5.692  13.936
32075W        W 3604  24.933  34.991   0.923
32076W        W 3605   4.780   8.298   4.116
32077W        W 3606  28.114   1.250  14.862
32078W        W 3607  42.976  26.486  11.923
32079W        W 3608  36.279  18.000   0.936
32080W        W 3609  32.898  37.522   2.359
32081W        W 3610  20.379  37.912   2.300
32082W        W 3611   9.358  38.636  11.265
32083W        W 3612  35.650  23.016  13.592
32084W        W 3613  28.784  31.943   1.715
32085W        W 3614  21.568  30.600  14.223
32086W        W 3615  22.113   1.016   1.315
32087W        W 3616  38.153  10.218   4.172
32088W        W 3617  18.043  16.136   0.766
32089W        W 3618  16.603  25.969   3.625
32090W        W 3619   7.872  27.450  11.119
32091W        W 3620  17.581  27.962   0.383
32092W        W 3621  24.959   3.269  14.003
32093W        W 3622  26.774  11.765  12.843
32094W        W 3623  17.816  41.437  13.966
32095W        W 3624  20.114   7.835  12.021
32096W        W 3625  27.233  12.770   1.358
32097W        W 3626  20.474   7.186  14.363
32098W        W 3627   5.066  21.651  13.880
32099W        W 3628  18.885   6.281  12.702
32100W        W 3629  17.206  22.000  10.915
32101W        W 3630  10.343  42.395  14.222
32102W        W 3631   3.298   7.267   3.295
32103W        W 3632  44.740  19.708   4.598
32104W        W 3633  10.191   3.209   4.301
32105W        W 3634  26.331  37.124  11.212
32106W        W 3635  20.610   6.164   3.761
32107W        W 3636   2.627  13.504  14.504
32108W        W 3637  22.871  20.356  11.151
32109W        W 3638  21.955  41.451   1.917
32110W        W 3639  30.124   0.873   1.840
32111W        W 3640  27.390  32.186   0.332
32112W        W 3641  15.735  36.124  13.361
32113W        W 3642  17.256  18.632   1.048
32114W        W 3643  10.756   3.295  12.136
32115W        W 3644  15.858   3.441  12.514
32116W        W 3645  33.068  41.691   2.683
32117W        W 3646  37.529  27.403  13.536
32118W        W 3647  14.845  19.231  12.459
32119W        W 3648  22.742  11.254   0.050
32120W        W 3649   9.957  18.233  11.068
32121W        W 3650  37.395  29.460  11.283
32122W        W 3651  30.484  40.381   2.608
32123W        W 3652  13.933  38.601   3.716
32124W        W 3653  24.462   2.258   4.856
32125W        W 3654  30.772  37.876   0.611
32126W        W 3655  27.005   8.636   1.499
32127W        W 3656  17.281   8.039   0.254
32128W        W 3657  15.854  44.299   0.237
32129W        W 3658  40.401  23.162   0.194
32130W        W 3659  13.910  35.369   3.171
32131W        W 3660  10.613  19.117   2.308
32132W        W 3661   1.602  43.112   5.092
32133W        W 3662  23.688  29.687  13.244
32134W        W 3663  27.710  38.195   4.262
32135W        W 3664  33.590  42.089  13.882
32136W        W 3665  11.303  19.770   1.821
32137W        W 3666  36.873  14.298   3.596
32138W        W 3667  18.750  27.227   3.263
32139W        W 3668  20.004  36.921  11.042
32140W        W 3669  32.811  20.500   4.328
32141W        W 3670  29.427  17.184  13.451
32142W        W 3671  26.616  38.162  13.421
32143W        W 3672  27.735  40.824   2.089
32144W        W 3673  26.845  42.064  14.056
32145W        W 3674  22.941  23.235  11.954
32146W        W 3675  14.025   1.800  13.626
32147W        W 3676  18.337  43.910   0.874
32148W        W 3677  25.601  36.142  11.244
32149W        W 3678  40.469  40.900   4.494
32150W        W 3679  34.280  32.952   0.033
32151W        W 3680   3.659  22.391   1.764
32152W        W 3681  37.906  40.619  12.900
32153W        W 3682  19.033  35.154  13.110
32154W        W 3683   4.272  38.113  13.255
32155W        W 3684   6.910  43.959  12.234
32156W        W 3685  19.020  39.033  11.895
32157W        W 3686  17.038  12.835  14.554
32158W        W 3687  16.029  20.545   1.345
32159W        W 3688  41.777  11.477   2.328
32160W        W 3689  32.173  39.455  12.110
32161W        W 3690  34.166  41.087   1.722
32162W        W 3691   3.436  10.426  10.600
32163W        W 3692  10.796  15.136   0.371
32164W        W 3693   8.584  44.956  10.211
32165W        W 3694  16.268  13.632   3.547
32166W        W 3695  12.192  29.415  13.927
32167W        W 3696   3.924  40.205   2.226
32168W        W 3697  43.268  40.632  11.844
32169W        W 3698   0.999   5.405  11.400
32170W        W 3699  33.423  35.064   0.944
32171W        W 3700   7.898  31.012   3.710
32172W        W 3701  34.126  14.298  14.429
32173W        W 3702  27.170  27.250  11.489
32174W        W 3703  36.488   4.112  13.789
32175W        W 3704  17.064  27.608   2.679
32176W        W 3705  37.180  28.119   1.296
32177W        W 3706  38.965  41.292   0.730
32178W        W 3707  16.070  17.140  11.586
32179W        W 3708  33.368  21.744   3.011
32180W        W 3709  38.719  36.066   5.153
32181W        W 3710  13.137  23.050   3.181
32182W        W 3711  14.722  16.113  11.532
32183W        W 3712  35.956  41.747   1.779
32184W        W 3713  21.510  41.220  12.555
32185W        W 3714   8.612  36.554  11.919
32186W        W 3715  36.927  26.131   4.029
32187W        W 3716  24.731  14.593   1.362
32188W        W 3717  11.520  23.173  11.519
32189W        W 3718  38.509   9.398  11.204
32190W        W 3719   9.242  23.541   0.252
32191W        W 3720  12.773  44.612   2.945
32192W        W 3721  26.756  31.673  12.006
32193W        W 3722  25.720  27.483  10.683
32194W        W 3723  10.961  43.221   3.001
32195W        W 3724  26.253  36.929  14.449
32196W        W 3725  13.239   0.271  14.926
32197W        W 3726  23.461  17.643   0.511
32198W        W 3727  42.400  17.569  10.594
32199W        W 3728  38.960  25.446  11.133
32200W        W 3729  41.063  38.089   2.652
32201W        W 3730  30.132  17.337   4.319
32202W        W 3731  37.084  27.985  11.912
32203W        W 3732  26.121  30.006  10.642
32204W        W 3733  19.279   9.382  14.938
32205W        W 3734  18.682  17.560   1.494
32206W        W 3735  21.854  19.587  10.746
32207W        W 3736  22.959  11.688  11.225
32208W        W 3737  14.884  41.000   0.396
32209W        W 3738  34.563  39.833  10.844
32210W        W 3739  13.496  38.936  13.327
32211W        W 3740  25.777  30.405   4.868
32212W        W 3741  18.708  29.020  14.031
32213W        W 3742  25.136  16.969  11.442
32214W        W 3743   4.365   6.746   4.213
32215W        W 3744  32.172  34.835   2.150
32216W        W 3745  39.533   3.764  13.299
32217W        W 3746   4.447  10.032   4.170
32218W        W 3747  12.681  42.056   0.442
32219W        W 3748   5.692  19.553  14.891
32220W        W 3749   4.086   8.010   2.270
32221W        W 3750  19.211  20.978   0.410
32222W        W 3751   0.272  37.569   1.723
32223W        W 3752  33.868   7.466   2.705
32224W        W 3753  30.435   8.122   4.267
32225W        W 3754  17.917  17.946   3.707
32226W        W 3755   8.918  10.052  10.303
32227W        W 3756  29.238  29.655   1.777
32228W        W 3757  25.990  15.217   2.224
32229W        W 3758   2.354  36.005  12.454
32230W        W 3759  31.898   1.426  10.707
32231W        W 3760  42.345  12.152  12.426
32232W        W 3761  29.589  37.559  10.661
32233W        W 3762  31.605  13.758  14.825
32234W        W 3763   1.399  34.347   0.123
32235W        W 3764  31.018  44.727   2.356
32236W        W 3765  39.783  16.167  13.020
32237W        W 3766  12.746  32.963  12.474
32238W        W 3767   4.295  15.461   3.174
32239W        W 3768   6.874  28.203   0.501
32240W        W 3769  40.428  15.850   0.711
32241W        W 3770   9.386   5.238   2.973
32242W        W 3771  12.283  18.978  12.673
32243W        W 3772  27.582  28.245  11.436
32244W        W 3773  13.245  24.572   2.317
32245W        W 3774  31.477   4.738   0.274
32246W        W 3775   0.755  27.192   4.136
32247W        W 3776   2.173  22.579   0.145
32248W        W 3777  33.311  34.757   1.347
32249W        W 3778  21.566  34.360   3.144
32250W        W 3779  32.911  27.418   0.353
32251W        W 3780  27.573   6.357   3.888
32252W        W 3781  41.372  35.873   1.250
32253W        W 3782  14.596  41.270  14.834
32254W        W 3783  24.337  32.011  13.663
32255W        W 3784  10.795   5.657  14.299
32256W        W 3785  23.624  43.996   1.076
32257W        W 3786   3.859  15.200  13.350
32258W        W 3787   8.498  16.676  11.934
32259W        W 3788  25.705  25.560  12.128
32260W        W 3789  44.544  24.180   1.840
32261W        W 3790  20.213  14.132   1.465
32262W        W 3791   8.899   6.457   4.695
32263W        W 3792  18.119  18.858  11.903
32264W        W 3793  41.708  12.990   3.130
32265W        W 3794  34.999  28.694  14.270
32266W        W 3795  43.716   4.855  12.458
32267W        W 3796  27.277  40.773  13.968
32268W        W 3797  15.095  18.655   4.873
32269W        W 3798  23.612  35.632   0.215
32270W        W 3799   7.265  16.780  13.759
32271W        W 3800  36.619   1.009   0.321
32272W        W 3801  31.415  22.458   3.230
32273W        W 3802  26.218   1.723  11.426
32274W        W 3803  25.239  37.891   1.771
32275W        W 3804  40.222  39.413   4.221
32276W        W 3805  35.659  31.632  10.804
32277W        W 3806  39.101   2.922   1.596
32278W        W 3807  18.340  27.190   1.804
32279W        W 3808   9.308  15.157  14.462
32280W        W 3809   4.692   7.670  12.993
32281W        W 3810  38.768  32.459  11.753
32282W        W 3811   4.277  27.519   5.098
32283W        W 3812   1.648  41.782  12.454
32284W        W 3813  18.718  10.704   0.791
32285W        W 3814  22.118  12.261   3.096
32286W        W 3815  26.122  29.260   4.186
32287W        W 3816  21.646   1.287  10.390
32288W        W 3817  16.088   4.017   1.283
32289W        W 3818  24.911  17.719   3.668
32290W        W 3819   8.494  34.729  12.767
32291W        W 3820  18.836   9.479   3.416
32292W        W 3821  21.638   7.469  13.511
32293W        W 3822  24.416  21.097   3.639
32294W        W 3823   0.425  11.335  14.470
32295W        W 3824  30.317  34.977   5.218
32296W        W 3825  33.936  17.813  13.795
32297W        W 3826  12.009   9.883  14.443
32298W        W 3827  26.619  29.409  11.883
32299W        W 3828  17.181  42.256  12.014
32300W        W 3829  36.178  38.815   2.342
32301W        W 3830  20.228  25.490  10.683
32302W        W 3831  40.012   1.419   1.248
32303W        W 3832   0.918   1.114  11.131
32304W        W 3833  14.798  24.634  13.291
32305W        W 3834  40.292   6.704   0.173
32306W        W 3835  22.661  32.927  12.514
32307W        W 3836   3.298  14.380  12.505
32308W        W 3837  17.331   7.180   1.057
32309W        W 3838  15.205   3.109   2.467
32310W        W 3839  22.935   4.153   1.304
32311W        W 3840  19.256  32.563  13.044
32312W        W 3841   0.790  12.488  10.200
32313W        W 3842  19.173   9.899  14.963
32314W        W 3843  36.457  18.835   0.337
32315W        W 3844  24.878  42.016   3.791
32316W        W 3845  31.992  36.602   3.221
32317W        W 3846  15.595  39.272  10.307
32318W        W 3847  18.808  11.306  14.576
32319W        W 3848  14.633  35.426  13.919
32320W        W 3849  27.377  28.639  10.810
32321W        W 3850   6.719  28.389  11.466
32322W        W 3851  19.512  38.138  13.894
32323W        W 3852  43.793  10.097  12.474
32324W        W 3853  43.396   4.376   0.381
32325W        W 3854  27.578  17.256  13.598
32326W        W 3855  44.952   7.406   3.369
32327W        W 3856  14.323  36.278   1.129
32328W        W 3857  14.843  25.124  13.073
32329W        W 3858  29.076   3.992   2.956
32330W        W 3859  25.149  18.243  11.993
32331W        W 3860  26.704  40.289  11.607
32332W        W 3861  15.623  29.935   1.229
32333W        W 3862  39.140   3.352   1.230
32334W        W 3863  13.812  32.090   5.219
32335W        W 3864  18.070   9.316  13.270
32336W        W 3865  34.702  21.690  11.033
32337W        W 3866  33.461   3.775   4.638
32338W        W 3867  38.502  36.651   1.140
32339W        W 3868   1.006   5.407  11.926
32340W        W 3869  13.679  36.567   1.852
32341W        W 3870  27.236  10.313   1.004
32342W        W 3871  15.182  44.501   1.321
32343W        W 3872  21.198  37.664  13.924
32344W        W 3873  39.198  24.459  14.251
32345W        W 3874  30.188   0.037   0.453
32346W        W 3875   8.315  17.224  13.535
32347W        W 3876  36.090   0.015  11.108
32348W        W 3877  34.998  13.916  14.834
32349W        W 3878  36.590   8.978  10.994
32350W        W 3879  21.857   2.398  12.472
32351W        W 3880  35.004   4.942  11.147
32352W        W 3881   1.721  20.556  10.669
32353W        W 3882  24.591  35.635   3.695
32354W        W 3883  29.152   5.293   0.285
32355W        W 3884  10.848  37.310  11.877
32356W        W 3885  25.219  26.007  13.872
32357W        W 3886  44.370  25.183  14.824
32358W        W 3887  14.231  40.574  14.342
32359W        W 3888  17.139   8.446   2.844
32360W        W 3889  29.717  28.597   2.151
32361W        W 3890  41.020  40.862   0.492
32362W        W 3891  31.122  21.987  11.614
32363W        W 3892  33.129  32.032  10.689
32364W        W 3893   2.924  28.165   1.408
32365W        W 3894   6.116  11.265  11.984
32366W        W 3895  11.761  21.050   3.368
32367W        W 3896   3.312  44.137  14.877
32368W        W 3897  43.991  14.659  14.768
32369W        W 3898  15.828  35.621  13.237
32370W        W 3899  18.280   6.414   3.320
32371W        W 3900  14.184   3.977  14.363
32372W        W 3901  35.561   2.924  14.481
32373W        W 3902  42.738  11.701   3.447
32374W        W 3903   9.127  24.019  13.906
32375W        W 3904  25.261   8.360  11.231
32376W        W 3905  28.666  31.848   3.113
32377W        W 3906  42.219  24.666  13.609
32378W        W 3907  19.808  10.206  12.515
32379W        W 3908  32.052  43.970   4.543
32380W        W 3909  16.264  24.504  12.067
32381W        W 3910  35.132  13.740  13.175
32382W        W 3911   2.830  17.188  12.437
32383W        W 3912  11.797  40.357   0.057
32384W        W 3913  16.269  37.579   0.328
32385W        W 3914  16.265  10.265   3.653
32386W        W 3915  21.167   5.644  10.727
32387W        W 3916  11.213   2.386   4.327
32388W        W 3917  14.100  40.043   1.355
32389W        W 3918   2.201  40.487   0.721
32390W        W 3919  44.466   1.837  12.733
32391W        W 3920   5.952  15.259  14.344
32392W        W 3921  21.663  42.490   1.053
32393W        W 3922  33.093  19.640  12.883
32394W        W 3923   9.195  36.077   0.358
32395W        W 3924  14.223  21.694   3.536
32396W        W 3925  23.779  20.648  14.546
32397W        W 3926   0.245  43.980   3.688
32398W        W 3927   9.825  15.129  14.428
32399W        W 3928  43.878  14.695  13.902
32400W        W 3929  31.104  35.046  11.140
32401W        W 3930  43.822  15.082   0.469
32402W        W 3931  19.494   7.610   1.379
32403W        W 3932  15.753  18.046  12.434
32404W        W 3933   8.176  34.080  10.751
32405W        W 3934  26.396  33.459   0.928
32406W        W 3935  22.002  11.783   4.075
32407W        W 3936   8.361  14.708  10.929
32408W        W 3937  44.413  12.897   2.613
32409W        W 3938  27.838  13.017   0.087
32410W        W 3939   9.413  20.477   2.924
32411W        W 3940  12.678  12.118   2.390
32412W        W 3941  27.681  37.032  14.263
32413W        W 3942  38.072  10.434   3.661
32414W        W 3943   4.949  30.632  11.821
32415W        W 3944  33.884  41.504   0.007
32416W        W 3945  11.282   4.207  10.751
32417W        W 3946  30.579  32.919  14.334
32418W        W 3947   0.200   8.927   5.185
32419W        W 3948  23.228  32.817   1.269
32420W        W 3949   1.838   5.449  12.825
32421W        W 3950  10.698  41.578  11.132
32422W        W 3951  11.621  25.182  10.693
32423W        W 3952   7.769  17.408   2.204
32424W        W 3953  25.579   4.219   2.349
32425W        W 3954   1.799  12.096  12.540
32426W        W 3955  30.146  40.375  11.920
32427W        W 3956  25.779  18.076   1.798
32428W        W 3957  37.423   1.760   4.228
32429W        W 3958  26.914  25.556  14.397
32430W        W 3959  34.399  43.068   3.759
32431W        W 3960  33.564   8.248  12.795
32432W        W 3961  10.166  20.675  11.933
32433W        W 3962   3.829  32.178   1.798
32434W        W 3963  38.812  35.976  13.414
32435W        W 3964  44.609  34.559   5.309
32436W        W 3965  38.080   4.848   1.123
32437W        W 3966  19.903  33.629   4.096
32438W        W 3967   0.493   9.115   4.043
32439W        W 3968  19.914  11.174  11.947
32440W        W 3969  30.243   9.317   4.592
32441W        W 3970  33.053   3.368   3.006
32442W        W 3971  26.968  31.861  11.188
32443W        W 3972   9.225  19.195   4.763
32444W        W 3973  22.559  27.222   0.828
32445W        W 3974  30.713   6.957  14.360
32446W        W 3975   2.908  10.842   3.736
32447W        W 3976  28.766  30.034   0.770
32448W        W 3977  14.800   3.946   2.150
32449W        W 3978  43.964   6.681   0.948
32450W        W 3979   0.145  38.033   1.936
32451W        W 3980  13.135  13.917  11.147
32452W        W 3981  19.673   0.160   3.289
32453W        W 3982  23.710  43.292  14.331
32454W        W 3983   6.348  14.030   9.987
32455W        W 3984   9.652   7.599   2.186
32456W        W 3985  34.016  34.536   0.010
32457W        W 3986  29.156  14.117   3.719
32458W        W 3987  11.338   0.282   0.192
32459W        W 3988  29.147  36.152   4.503
32460W        W 3989  38.060  20.289   0.289
32461W        W 3990  29.743  31.652   2.283
32462W        W 3991   3.395   0.778   2.622
32463W        W 3992  26.131  42.014  11.683
32464W        W 3993   6.529  28.267   3.706
32465W        W 3994  33.389  36.171   2.349
32466W        W 3995   4.225  25.543   4.183
32467W        W 3996  30.182  16.683   1.854
32468W        W 3997  37.161  39.337   0.414
32469W        W 3998  42.447  32.497   3.631
32470W        W 3999   9.298  30.957  10.580
32471W        W 4000   1.188  36.480  13.962
32472W        W 4001   4.772  16.108   3.654
32473W        W 4002   6.900   2.992   2.218
32474W        W 4003  13.361   4.319   1.267
32475W        W 4004  22.706  43.815   3.950
32476W        W 4005   0.546  11.262  13.932
32477W        W 4006  20.912   7.328   2.936
32478W        W 4007  40.047  34.345  10.321
32479W        W 4008  19.138  27.634   0.739
32480W        W 4009  34.397   3.160  12.269
32481W        W 4010  10.248  38.641   4.241
32482W        W 4011  14.079  44.103  11.930
32483W        W 4012   6.654  26.207   4.677
32484W        W 4013  42.488  38.817   3.821
32485W        W 4014  43.230  26.152  11.611
32486W        W 4015   8.715   9.429   0.385
32487W        W 4016  33.929  12.839  13.116
32488W        W 4017  16.668  23.041   5.112
32489W        W 4018  17.213  25.003   2.400
32490W        W 4019  21.183  23.857   4.473
32491W        W 4020   6.883  25.614  11.485
32492W        W 4021   6.332  15.108  12.070
32493W        W 4022  42.885  27.194  13.351
32494W        W 4023   2.470  34.984   1.850
32495W        W 4024  44.555  22.501  14.470
32496W        W 4025   1.510  35.141  14.882
32497W        W 4026  36.213  11.072  14.453
32498W        W 4027  33.108  39.390  10.661
32499W        W 4028  41.796  29.203   1.696
32500W        W 4029   4.321  11.512  11.652
32501W        W 4030  43.136  14.298   0.438
32502W        W 4031  19.600  33.620   1.773
32503W        W 4032  28.519  32.355  14.017
32504W        W 4033  43.543  40.120   2.767
32505W        W 4034  35.605   5.846   3.181
32506W        W 4035  30.394  43.161  11.812
32507W        W 4036  22.715   8.276  13.272
32508W        W 4037   5.381  11.620   1.658
32509W        W 4038  37.032  33.832  11.023
32510W        W 4039  12.592   5.199  14.862
32511W        W 4040  41.798  37.399   2.968
32512W        W 4041  22.719  26.162   1.713
32513W        W 4042  29.404   4.978  14.448
32514W        W 4043  20.169  27.744   0.845
32515W        W 4044  40.973  26.581  13.856
32516W        W 4045  40.268  38.008   3.979
32517W        W 4046  27.045  34.618  10.531
32518W        W 4047  43.448  18.531  11.648
32519W        W 4048  27.384  13.808   3.141
32520W        W 4049  20.406  35.097  12.985
32521W        W 4050  30.703  34.613   5.269
32522W        W 4051  21.743   0.834   4.719
32523W        W 4052  28.880  28.162   1.285
32524W        W 4053  12.132  37.170  12.568
32525W        W 4054  30.839  14.154   2.867
32526W        W 4055  17.833  14.223  14.411
32527W        W 4056  23.939  42.905  12.240
32528W        W 4057  21.557  27.164   2.812
32529W        W 4058  18.310  41.738   4.838
32530W        W 4059   6.056   3.481  13.335
32531W        W 4060  13.582  32.310   4.766
32532W        W 4061   8.755  41.866   3.711
32533W        W 4062   2.887  43.205  12.030
32534W        W 4063  40.900  12.191  12.497
32535W        W 4064  14.070   3.609   3.318
32536W        W 4065  31.721  34.043  12.820
32537W        W 4066   1.962   1.160  11.986
32538W        W 4067  31.385  18.730  12.661
32539W        W 4068  40.238  27.799  14.909
32540W        W 4069  34.030  34.446   3.156
32541W        W 4070  12.138   8.352   1.200
32542W        W 4071  35.852  19.683   1.293
32543W        W 4072   6.790  19.786   0.554
32544W        W 4073  21.276  14.057  10.679
32545W        W 4074   8.266  32.580  13.010
32546W        W 4075  28.434   3.945   1.327
32547W        W 4076  22.879  41.364  12.350
32548W        W 4077   4.582  29.008  13.054
32549W        W 4078  14.307  34.348  10.550
32550W        W 4079  14.860  11.934  11.158
32551W        W 4080  27.471  22.069  11.353
32552W        W 4081   2.674  25.262   3.730
32553W        W 4082   4.880   9.116  14.257
32554W        W 4083   5.627  19.211   3.673
32555W        W 4084  20.632  35.386  12.469
32556W        W 4085  31.602   0.245  12.945
32557W        W 4086  23.424  42.368   4.075
32558W        W 4087  34.085  26.892   2.949
32559W        W 4088  24.578   5.228   3.860
32560W        W 4089  31.516  11.139  11.225
32561W        W 4090  16.091  41.465   0.570
32562W        W 4091  32.181  15.572  11.467
32563W        W 4092  13.626  22.198  11.126
32564W        W 4093  40.463   7.879   3.297
32565W        W 4094  33.054  28.608  12.485
32566W        W 4095  32.414  32.394  12.342
32567W        W 4096  28.242   2.851   4.694
32568W        W 4097  43.923  18.766   1.452
32569W        W 4098  30.496  31.859  14.489
32570W        W 4099  27.627  38.617  12.159
32571W        W 4100  14.627  10.087   2.156
32572W        W 4101  28.074  34.296   2.256
32573W        W 4102  19.120  40.862  10.425
32574W        W 4103   2.898  44.242   4.739
32575W        W 4104  20.266  10.931   3.693
32576W        W 4105  33.966  13.874   0.835
32577W        W 4106  14.447  43.470   3.169
32578W        W 4107  15.588   1.428  14.386
32579W        W 4108  15.702  11.744  10.380
32580W        W 4109  13.173  28.328   2.817
32581W        W 4110   2.670  27.767   0.424
32582W        W 4111  32.694  28.668  11.974
32583W        W 4112  39.020   4.778   1.297
32584W        W 4113  40.297   8.762  11.769
32585W        W 4114   1.096  24.562   4.172
32586W        W 4115  30.979  35.585   0.943
32587W        W 4116  34.391   0.383  10.938
32588W        W 4117   3.886  20.587   1.750
32589W        W 4118  41.138  28.182  12.979
32590W        W 4119  42.960  11.894   0.315
32591W        W 4120  14.771  18.690   1.980
32592W        W 4121  29.184  32.347   2.413
32593W        W 4122  25.065   0.532  11.774
32594W        W 4123  34.151  12.907   4.201
32595W        W 4124  28.884  24.780  10.379
32596W        W 4125  10.200  33.063   2.782
32597W        W 4126  43.757  13.067  11.289
32598W        W 4127  31.330  22.201   2.784
32599W        W 4128   0.322  21.278  13.467
32600W        W 4129   3.535  33.207   0.222
32601W        W 4130  10.177  36.128   0.361
32602W        W 4131  24.705  25.485   2.357
32603W        W 4132  33.957  16.059   1.355
32604W        W 4133  20.770  29.017   1.775
32605W        W 4134  32.494   8.823  14.564
32606W        W 4135   9.275  21.582  11.684
32607W        W 4136  41.522  12.775  11.678
32608W        W 4137  33.486  16.184   1.443
32609W        W 4138   3.014   6.617   4.143
32610W        W 4139  17.067  11.222  13.837
32611W        W 4140  31.515  31.471   3.358
32612W        W 4141  23.792  16.359   2.709
32613W        W 4142  16.923   1.738  10.853
32614W        W 4143  26.452  38.719   4.079
32615W        W 4144  12.782  43.963  13.831
32616W        W 4145   1.506  37.008  11.187
32617W        W 4146   5.229  14.222  11.141
32618W        W 4147  17.796  21.221  12.338
32619W        W 4148  39.026   4.509  10.702
32620W        W 4149  21.997   2.237   1.668
32621W        W 4150   5.419  38.244   4.101
32622W        W 4151   2.819   7.248   2.344
32623W        W 4152  37.095   0.758  14.190
32624W        W 4153  44.726  13.952   0.379
32625W        W 4154   5.442  16.648   4.023
32626W        W 4155  15.052  21.719   2.784
32627W        W 4156  14.280   2.228  10.988
32628W        W 4157  20.293  26.241   2.265
32629W        W 4158   0.492   4.863   3.962
32630W        W 4159  22.544  23.883  12.424
32631W        W 4160  24.684  33.754   2.481
32632W        W 4161  40.369  37.405  11.642
32633W        W 4162  15.633  33.500  10.661
32634W        W 4163  33.186  10.570   4.076
32635W        W 4164  25.759   5.742  10.749
32636W        W 4165  41.808  25.508  11.201
32637W        W 4166  37.791  34.561   0.366
32638W        W 4167  25.942  31.985   3.691
32639W        W 4168  28.007  44.241  13.849
32640W        W 4169  23.326  16.622   3.748
32641W        W 4170  18.017  42.407   4.615
32642W        W 4171  22.685  35.293  12.445
32643W        W 4172  18.551  29.167   1.323
32644W        W 4173  28.730  27.481   4.672
32645W        W 4174   5.825   9.280   2.959
32646W        W 4175  21.737  16.038   2.108
32647W        W 4176  33.599   9.714   0.280
32648W        W 4177   6.280  28.146   0.797
32649W        W 4178  16.173  43.419   1.239
32650W        W 4179  31.587  29.102   3.758
32651W        W 4180  29.440  15.817   0.500
32652W        W 4181  43.012  13.280  11.908
32653W        W 4182   1.819  17.306  10.907
32654W        W 4183   8.756  11.862   0.292
32655W        W 4184  32.372  24.067  14.019
32656W        W 4185  21.632  42.402  14.412
32657W        W 4186  26.918  30.696  14.060
32658W        W 4187   2.202   9.326   3.392
32659W        W 4188  19.326  13.671  12.491
32660W        W 4189  44.458   9.873  12.499
32661W        W 4190   0.875  14.452   3.281
32662W        W 4191  24.920  12.260  14.333
32663W        W 4192  17.901  30.491  14.375
32664W        W 4193  39.336  29.567   3.529
32665W        W 4194  40.170  22.004  11.599
32666W        W 4195  34.801   4.849  10.629
32667W        W 4196  24.719  35.357  14.801
32668W        W 4197  16.338   7.703  13.466
32669W        W 4198   9.265  39.327   3.241
32670W        W 4199  19.752  11.422  10.614
32671W        W 4200   6.457  35.550   1.771
32672W        W 4201   5.917  21.457  14.149
32673W        W 4202  33.293  18.228  14.959
32674W        W 4203  13.499  40.393  13.701
32675W        W 4204  18.664  14.538   4.119
32676W        W 4205   3.200   3.857   4.032
32677W        W 4206  20.339  41.942   3.286
32678W        W 4207  12.873  11.890   4.539
32679W        W 4208   8.356   2.681  11.291
32680W        W 4209  39.013   0.901   4.670
32681W        W 4210  10.078   9.865  11.760
32682W        W 4211  15.960  27.223   0.803
32683W        W 4212  31.428  24.649   3.611
32684W        W 4213  19.697  14.691  12.945
32685W        W 4214  27.408  27.188   3.961
32686W        W 4215   9.872   2.915   1.577
32687W        W 4216  21.831  40.343  14.784
32688W        W 4217  30.342   1.949  13.509
32689W        W 4218  10.813  38.834  12.682
32690W        W 4219  15.011   0.891  13.345
32691W        W 4220  16.863   5.336   1.451
32692W        W 4221  40.423   0.928  10.807
32693W        W 4222  25.795  30.591  12.897
32694W        W 4223  30.630  37.950  14.990
32695W        W 4224  13.113  17.289   3.790
32696W        W 4225  28.510   8.735   2.737
32697W        W 4226  38.706  42.902   5.058
32698W        W 4227   3.891  39.742  10.656
32699W        W 4228   3.748  36.031   3.676
32700W        W 4229  43.925   0.336  12.204
32701W        W 4230   1.851  10.918   4.761
32702W        W 4231  37.755  44.810  11.102
32703W        W 4232  29.064  12.846   0.216
32704W        W 4233  26.696  13.436   4.604
32705W        W 4234  37.529  28.020  11.646
32706W        W 4235  34.558  40.814  10.755
32707W        W 4236   3.405   5.723  10.799
32708W        W 4237  20.268   3.916   3.399
32709W        W 4238  35.457   4.733  11.165
32710W        W 4239  18.232   1.226  13.273
32711W        W 4240  11.744  13.475  12.573
32712W        W 4241  16.559  18.205  11.367
32713W        W 4242  12.293  31.413  14.011
32714W        W 4243  32.087  16.759   0.666
32715W        W 4244  43.446   3.813   1.593
32716W        W 4245  20.696   8.490  14.007
32717W        W 4246  38.594  15.764  13.430
32718W        W 4247  12.115  23.536  10.945
32719W        W 4248  21.089   3.424   4.933
32720W        W 4249   8.635  39.865  14.812
32721W        W 4250  13.095  21.771  12.694
32722W        W 4251  23.677  10.140   0.372
32723W        W 4252   0.485  20.320   0.330
32724W        W 4253   0.430  43.370  11.713
32725W        W 4254  31.893  12.137   3.674
32726W        W 4255   9.556  11.681  10.532
32727W        W 4256  37.120  34.234   2.958
32728W        W 4257   9.551  22.011  13.334
32729W        W 4258  19.137  10.716   1.884
32730W        W 4259  34.844  18.219   2.348
32731W        W 4260  27.030  38.264   0.680
32732W        W 4261  29.054  40.605   4.159
32733W        W 4262  23.505  43.532  13.910
32734W        W 4263  43.510  25.525   2.916
32735W        W 4264  17.620   8.433   1.953
32736W        W 4265  36.095  39.019  11.518
32737W        W 4266  33.597  30.632  13.095
32738W        W 4267  13.881  13.546  14.910
32739W        W 4268  30.360  23.136   2.765
32740W        W 4269  41.066  11.849   3.719
32741W        W 4270   6.767   4.012   2.324
32742W        W 4271  38.006  40.283  12.531
32743W        W 4272  41.841  35.581   3.219
32744W        W 4273  38.339  10.884  10.700
32745W        W 4274  10.635  41.016  11.945
32746W        W 4275  20.310   6.709  14.717
32747W        W 4276  28.188  12.380   2.797
32748W        W 4277  35.806   4.894   1.693
32749W        W 4278  41.266  15.812  12.979
32750W        W 4279  22.342   2.989   4.582
32751W        W 4280  10.647   3.232   2.212
32752W        W 4281  10.849  16.028  12.382
32753W        W 4282  26.501  19.547  13.964
32754W        W 4283  14.880  44.733   4.576
32755W        W 4284  38.755   3.848   1.885
32756W        W 4285  23.814  24.489  13.234
32757W        W 4286   6.132  14.764   3.299
32758W        W 4287  11.991  29.602   1.768
32759W        W 4288  34.607  39.013  11.736
32760W        W 4289  10.855  18.049   2.876
32761W        W 4290  36.720  15.142   2.740
32762W        W 4291  38.879  14.727  12.022
32763W        W 4292  13.323  34.865  14.224
32764W        W 4293  22.368  19.350  11.461
32765W        W 4294   0.551  38.560  11.432
32766W        W 4295   6.606  11.215  14.410
32767W        W 4296  16.816  16.945   0.841
32768W        W 4297   7.271  39.272  11.614
32769W        W 4298  22.684  22.200  10.850
32770W        W 4299  34.381  11.879   1.504
32771W        W 4300  37.089   0.055   4.152
32772W        W 4301  26.513   5.286  14.683
32773W        W 4302   1.086  31.405   4.811
32774W        W 4303  26.128  40.494  14.871
32775W        W 4304  21.896   2.904  14.939
32776W        W 4305  25.852  44.386   2.975
32777W        W 4306  31.388  24.648  10.255
32778W        W 4307  14.269  23.381  14.374
32779W        W 4308   0.893  20.552  12.508
32780W        W 4309  43.320  24.688   1.246
32781W        W 4310  19.119  24.674   4.168
32782W        W 4311   6.164   6.953  11.635
32783W        W 4312  35.479  16.624   3.178
32784W        W 4313  18.777  25.618   2.879
32785W        W 4314  20.215   2.651  12.514
32786W        W 4315  26.581  17.717  12.632
32787W        W 4316  29.588  23.901   0.844
32788W        W 4317   5.427  26.097  10.946
32789W        W 4318  24.679   1.318   4.378
32790W        W 4319   6.958  34.042   2.848
32791W        W 4320   7.028   0.786  11.249
32792W        W 4321  13.256  32.182  11.129
32793W        W 4322   9.161  14.367  11.027
32794W        W 4323  19.673  37.554   1.405
32795W        W 4324  40.472   5.470  13.821
32796W        W 4325  20.998  39.500   1.017
32797W        W 4326  32.035  23.273   0.988
32798W        W 4327  27.247   9.221   1.791
32799W        W 4328  21.741  27.434  11.050
32800W        W 4329   9.973   7.786   3.151
32801W        W 4330  21.606   4.721   0.997
32802W        W 4331   2.971   9.342  10.997
32803W        W 4332   2.953   5.247   4.195
32804W        W 4333  24.108  13.697   1.405
32805W        W 4334  10.639  38.646   1.262
32806W        W 4335  44.550  39.988  13.441
32807W        W 4336  31.524  20.205  14.896
32808W        W 4337  32.275   0.463   2.857
32809W        W 4338  26.217  28.200  10.678
32810W        W 4339  29.593  28.762  12.976
32811W        W 4340   6.292  42.323  11.202
32812W        W 4341  25.787  11.563   2.896
32813W        W 4342  10.870  15.141  12.295
32814W        W 4343  38.731  18.480   2.854
32815W        W 4344  23.690  31.123  14.212
32816W        W 4345  31.821  27.112   1.266
32817W        W 4346  22.153   3.677   4.107
32818W        W 4347  17.395  15.989  10.240
32819W        W 4348   5.077  40.066  14.389
32820W        W 4349  35.287  27.150   1.387
32821W        W 4350  29.288  36.853  13.451
32822W        W 4351  37.103  31.409  14.424
32823W        W 4352  40.912  44.109  11.234
32824W        W 4353   8.640   1.443   2.280
32825W        W 4354  21.731  14.558   1.586
32826W        W 4355  12.269   4.323  11.452
32827W        W 4356  35.863   4.271  13.140
32828W        W 4357   2.924  15.173  13.518
32829W        W 4358  10.264   5.977  10.987
32830W        W 4359  12.750   4.924   0.922
32831W        W 4360  41.363  37.539   4.587
32832W        W 4361  44.146  41.408  11.196
32833W        W 4362  33.426  23.631   2.629
32834W        W 4363  13.612  10.662   3.702
32835W        W 4364  22.484   4.183   0.018
32836W        W 4365   1.342  15.221  12.657
32837W        W 4366  19.285  24.573  12.810
32838W        W 4367  16.271  16.290   2.902
32839W        W 4368  37.942  42.350  13.490
32840W        W 4369  31.726  22.455  14.456
32841W        W 4370  15.225  19.046  10.629
32842W        W 4371  33.062  17.291   0.704
32843W        W 4372   3.230  42.895   3.634
32844W        W 4373   6.305  29.797   3.717
32845W        W 4374  13.120  43.747   1.255
32846W        W 4375  12.761  30.215  14.020
32847W        W 4376   2.259  38.788   2.248
32848W        W 4377  41.931  34.889   2.666
32849W        W 4378  12.197  23.484  14.096
32850W        W 4379   9.308  14.690  14.713
32851W        W 4380   4.966  32.649   3.856
32852W        W 4381  38.065  42.056  14.834
32853W        W 4382  22.208   3.872   2.701
32854W        W 4383  21.983   6.446   0.847
32855W        W 4384  28.917  43.208   1.056
32856W        W 4385   1.568  18.575   0.428
32857W        W 4386  32.143  12.098   2.324
32858W        W 4387   4.729  44.001  11.559
32859W        W 4388   1.981  15.771  12.933
32860W        W 4389  24.360  30.692  11.815
32861W        W 4390  42.762   3.757   2.355
32862W        W 4391  44.753  39.407  13.461
32863W        W 4392  30.611  42.042   3.837
32864W        W 4393  33.619   7.820  14.158
32865W        W 4394  22.308  15.205  10.484
32866W        W 4395  12.730  20.142   3.143
32867W        W 4396   3.999   8.478  12.680
32868W        W 4397   6.782  10.434  12.851
32869W        W 4398   2.014  34.245   1.410
32870W        W 4399  23.271   1.022  13.370
32871W        W 4400  44.804  29.483  12.846
32872W        W 4401  14.618   3.151  13.363
32873W        W 4402  33.647  22.592  13.860
32874W        W 4403  34.578  23.767   1.875
32875W        W 4404  36.277  26.462   2.704
32876W        W 4405  31.619  31.505  13.259
32877W        W 4406  26.090  30.837   0.647
32878W        W 4407   6.878  43.264   3.564
32879W        W 4408  17.595   3.222  14.951
32880W        W 4409  24.564  27.171   2.853
32881W        W 4410  43.335  39.992   0.172
32882W        W 4411  14.790  10.615  12.051
32883W        W 4412  44.339  44.426   4.560
32884W        W 4413  23.570   1.493  12.594
32885W        W 4414   0.043   3.318  11.176
32886W        W 4415  26.262  22.961  11.175
32887W        W 4416   4.288   1.355  13.394
32888W        W 4417  31.953  21.006   0.254
32889W        W 4418  39.767  43.401   2.330
32890W        W 4419  35.560   7.247  11.111
32891W        W 4420  31.639  36.833   2.372
32892W        W 4421  33.681  37.053   2.322
32893W        W 4422  25.501  36.670  14.481
32894W        W 4423  31.575   1.519   2.328
32895W        W 4424  28.614  37.455  13.861
32896W        W 4425  28.488  13.624   4.015
32897W        W 4426   4.346  19.157   2.193
32898W        W 4427   2.667  26.543  14.878
32899W        W 4428   8.474  32.453  14.320
32900W        W 4429  14.333  19.460   0.932
32901W        W 4430  12.797  36.035   4.248
32902W        W 4431  27.752   5.400  14.064
32903W        W 4432  34.631  15.562   0.362
32904W        W 4433  23.575   8.740   1.800
32905W        W 4434  42.187   0.923  13.552
32906W        W 4435  13.061  21.620   2.811
32907W        W 4436  12.310  35.422  10.678
32908W        W 4437   8.578  32.634   4.614
32909W        W 4438   8.411  40.068  13.129
32910W        W 4439  11.680  23.793  10.706
32911W        W 4440  33.070  17.075   1.178
32912W        W 4441  14.653  17.247   2.715
32913W        W 4442   9.652  41.849   2.237
32914W        W 4443   9.882  30.135  14.299
32915W        W 4444  34.323   2.660  14.893
32916W        W 4445  21.614  21.172  12.991
32917W        W 4446  42.741  41.879   2.199
32918W        W 4447   3.159  29.961   0.760
32919W        W 4448  10.669  28.410   2.696
32920W        W 4449   0.525   2.001   0.259
32921W        W 4450   8.702  37.834  13.498
32922W        W 4451  14.259  10.790  12.246
32923W        W 4452  29.051  42.805  11.996
32924W        W 4453  24.186  24.998   0.758
32925W        W 4454  35.873   2.215   0.324
32926W        W 4455  44.452  42.076   4.644
32927W        W 4456  26.753  35.942   0.901
32928W        W 4457  11.573  41.050   2.744
32929W        W 4458  43.721   5.208  10.663
32930W        W 4459  31.024   3.178  13.890
32931W        W 4460  10.185  16.185  13.594
32932W        W 4461  17.945  21.628   3.115
32933W        W 4462  29.583  35.623  10.689
32934W        W 4463   9.423  26.558   1.283
32935W        W 4464  21.558  29.514   2.689
32936W        W 4465  38.368  39.301  11.223
32937W        W 4466  24.472  43.058  10.901
32938W        W 4467   4.511  37.071   3.317
32939W        W 4468  36.993  37.061  11.513
32940W        W 4469  28.926  40.380  14.507
32941W        W 4470  10.146  13.734   1.681
32942W        W 4471  38.409   5.255   1.090
32943W        W 4472  44.981  23.294   0.991
32944W        W 4473   7.087  27.109  11.813
32945W        W 4474   6.267  35.998  10.322
32946W        W 4475  33.076  18.071  11.861
32947W        W 4476  37.608   1.422   4.577
32948W        W 4477  19.418  15.599  14.798
32949W        W 4478  22.656  34.642  13.426
32950W        W 4479   7.621  17.743   3.719
32951W        W 4480  11.358  39.505   3.537
32952W        W 4481   6.501  12.648   2.864
32953W        W 4482   7.637   9.138   1.917
32954W        W 4483  43.870  35.040  13.439
32955W        W 4484  40.616   7.106  14.901
32956W        W 4485  19.103  44.404  11.708
32957W        W 4486   3.713  17.739   4.889
32958W        W 4487   0.141  32.610   2.951
32959W        W 4488  38.841  44.055   4.952
32960W        W 4489  23.032   4.363  13.380
32961W        W 4490   1.829  33.955  14.838
32962W        W 4491  27.105  25.659  11.731
32963W        W 4492  38.493  19.811  12.012
32964W        W 4493  41.086  39.748  12.112
32965W        W 4494  26.599   1.629   2.741
32966W        W 4495  42.453   3.682   4.455
32967W        W 4496  18.069  24.014  10.938
32968W        W 4497  14.578  15.990   0.350
32969W        W 4498   1.251  28.980  14.985
32970W        W 4499  37.453  33.712   4.526
32971W        W 4500  24.499  16.077  14.309
32972W        W 4501  11.220   3.453  12.327
32973W        W 4502  15.796  13.305  14.679
32974W        W 4503   6.522  33.615   0.309
32975W        W 4504   8.342   5.709  14.317
32976W        W 4505   3.229   0.731  13.340
32977W        W 4506  23.708  13.580  11.969
32978W        W 4507  12.315  17.765   3.289
32979W        W 4508  38.834  43.544   0.369
32980W        W 4509  12.156  40.430   2.304
32981W        W 4510  43.539   7.330   0.421
32982W        W 4511  43.858  32.540  12.622
32983W        W 4512   5.900   4.465   0.281
32984W        W 4513   6.647  44.353   1.808
32985W        W 4514  25.270  36.432   3.696
32986W        W 4515  21.093  18.719  10.560
32987W        W 4516  21.161  13.557  14.206
32988W        W 4517  17.746  42.394  14.952
32989W        W 4518  40.538  29.498   2.343
32990W        W 4519   9.634   9.557   1.242
32991W        W 4520  30.381   6.739   0.763
32992W        W 4521  39.417   5.811  12.642
32993W        W 4522  30.083  11.558  12.906
32994W        W 4523  15.261   2.587   2.429
32995W        W 4524  10.231  21.339  13.465
32996W        W 4525   8.131  15.192  11.618
32997W        W 4526  34.944  29.040   0.566
32998W        W 4527  13.191  23.499   2.391
32999W        W 4528  11.715  42.979   4.661
33000W        W 4529  37.428  34.312   3.688
33001W        W 4530  42.748  15.711  11.162
33002W        W 4531   6.739  15.334  12.960
33003W        W 4532  10.366  10.679  13.136
33004W        W 4533  42.539  26.297   2.632
33005W        W 4534  27.734  11.317  13.970
33006W        W 4535  40.177  20.998   0.365
33007W        W 4536  17.151  16.734   0.474
33008W        W 4537   2.263   1.425   2.248
33009W        W 4538  11.768  35.056   4.100
33010W        W 4539   0.017  32.160  13.908
33011W        W 4540   5.793   9.649  13.057
33012W        W 4541  27.983  40.405  14.922
33013W        W 4542  37.924  37.273  13.509
33014W        W 4543   4.918   0.148   4.747
33015W        W 4544  25.350  33.609   4.275
33016W        W 4545  38.513  34.594  10.494
33017W        W 4546  20.793  43.264   4.553
33018W        W 4547  33.122  40.961   3.751
33019W        W 4548   2.317   3.738  10.390
33020W        W 4549  33.317  26.983   2.416
33021W        W 4550  24.710  44.054   1.322
33022W        W 4551  34.842  36.384   0.784
33023W        W 4552  43.630  43.194   3.592
33024W        W 4553  10.836  14.102   0.326
33025W        W 4554  32.970  20.278  10.858
33026W        W 4555  39.830  42.152   4.755
33027W        W 4556  33.577  10.850  14.800
33028W        W 4557  18.723   8.219   2.219
33029W        W 4558  19.792   8.415   1.671
33030W        W 4559  31.495  31.201   4.729
33031W        W 4560  24.500  18.524  13.029
33032W        W 4561   0.639  37.527  11.657
33033W        W 4562  11.651  44.218   0.974
33034W        W 4563  15.687  34.064  10.609
33035W        W 4564  42.384   0.282   3.714
33036W        W 4565  39.532  34.895   1.626
33037W        W 4566  25.483  39.469  13.286
33038W        W 4567  19.532  18.532   0.253
33039W        W 4568  30.149  30.627   3.252
33040W        W 4569  22.534  31.389  12.595
33041W        W 4570  21.294  17.027   1.247
33042W        W 4571  13.466  28.218  12.400
33043W        W 4572  18.592  37.453   1.902
33044W        W 4573   2.504  39.238  11.436
33045W        W 4574  11.223  32.045   0.307
33046W        W 4575   5.246  31.892  13.394
33047W        W 4576  29.026   7.436  13.141
33048W        W 4577   4.374  11.137   1.747
33049W        W 4578  44.657  16.136   0.414
33050W        W 4579   8.858   1.246   1.821
33051W        W 4580  32.632  26.413   1.840
33052W        W 4581  35.358  22.468  10.768
33053W        W 4582  35.548  32.977  12.144
33054W        W 4583  18.872   0.488   2.937
33055W        W 4584  44.895  19.975   3.212
33056W        W 4585  22.219  42.916   1.370
33057W        W 4586  11.091  21.212   0.682
33058W        W 4587  18.970  17.660  13.091
33059W        W 4588  29.331   1.724  14.385
33060W        W 4589   4.416  12.173  10.755
33061W        W 4590   0.934  15.315  10.742
33062W        W 4591  16.461  19.515   4.040
33063W        W 4592  22.230  27.995   3.152
33064W        W 4593  39.524   5.173  11.859
33065W        W 4594  43.521  44.739  13.108
33066W        W 4595  42.748   3.288  14.938
33067W        W 4596  13.630  38.474   4.567
33068W        W 4597  41.963  28.082   0.790
33069W        W 4598  26.010  37.654  14.506
33070W        W 4599  10.818   8.562   3.068
33071W        W 4600   4.438  43.738  13.069
33072W        W 4601   1.964  14.238   2.749
33073W        W 4602  20.721  40.847  12.465
33074W        W 4603   0.381  28.115   3.455
33075W        W 4604   2.936  40.005   4.758
33076W        W 4605  38.549   7.553   3.746
33077W        W 4606  31.240  21.614  12.919
33078W        W 4607   0.190  40.526   1.584
33079W        W 4608  22.087  42.108  10.567
33080W        W 4609   5.759  29.488  13.277
33081W        W 4610  17.551  26.743  14.735
33082W        W 4611  35.389   1.071  14.142
33083W        W 4612  19.544   4.422  13.550
33084W        W 4613  15.364   8.727   3.575
33085W        W 4614  11.409  12.420  13.734
33086W        W 4615  16.333  15.778  14.022
33087W        W 4616  25.445   3.621   1.501
33088W        W 4617  29.300   3.435   2.342
33089W        W 4618  40.324  38.502  11.224
33090W        W 4619  31.821  19.179  11.998
33091W        W 4620  40.866  18.032  12.919
33092W        W 4621  43.734  25.755   0.272
33093W        W 4622  15.649  33.130   4.334
33094W        W 4623   6.837  32.966   2.881
33095W        W 4624  43.707  15.606  10.988
33096W        W 4625  30.856  22.685  12.126
33097W        W 4626   7.621  31.682  10.754
33098W        W 4627  33.133   3.808  14.533
33099W        W 4628   2.205  29.607   4.791
33100W        W 4629  29.256  33.413  14.381
33101W        W 4630   9.932  43.277  10.647
33102W        W 4631  17.565  37.066   0.297
33103W        W 4632  19.149  25.377  13.656
33104W        W 4633  27.539  27.268  11.099
33105W        W 4634  33.791  16.759  14.709
33106W        W 4635  11.635  27.188   3.119
33107W        W 4636  19.876  36.880  13.404
33108W        W 4637  16.155   4.125  14.325
33109W        W 4638  29.402  33.545   2.826
33110W        W 4639   2.012  23.570  12.528
33111W        W 4640  17.995   4.194  12.935
33112W        W 4641  39.586   1.834   0.549
33113W        W 4642  24.091   9.395   0.663
33114W        W 4643  14.274  27.692  12.152
33115W        W 4644  23.114  22.576   2.430
33116W        W 4645  13.854  16.271   2.725
33117W        W 4646   9.890   7.751  11.095
33118W        W 4647  41.950  44.485  12.591
33119W        W 4648   0.847  17.626   1.926
33120W        W 4649   5.662  34.649  11.380
33121W        W 4650   6.846  16.753  11.999
33122W        W 4651   5.716  17.120   3.953
33123W        W 4652  40.316  40.409   2.893
33124W        W 4653  28.460  33.816   3.132
33125W        W 4654  22.625  43.371  10.570
33126W        W 4655  12.774  32.774   4.889
33127W        W 4656  28.074  36.097   3.161
33128W        W 4657  35.302  29.457   1.506
33129W        W 4658  19.554   9.494   0.850
33130W        W 4659  36.937  18.219   1.241
33131W        W 4660   2.970  25.187  12.029
33132W        W 4661  36.359   6.302  14.844
33133W        W 4662  16.187  21.632   3.128
33134W        W 4663  38.384  28.778  11.997
33135W        W 4664   4.752  14.188   3.240
33136W        W 4665   0.808  25.762   3.296
33137W        W 4666  33.792  20.520   3.477
33138W        W 4667  32.576   7.753   3.241
33139W        W 4668  44.860  21.248   0.705
33140W        W 4669   4.447   6.593  11.174
33141W        W 4670  43.781   2.061   1.841
33142W        W 4671  28.250  12.819  12.498
33143W        W 4672  39.106   3.358  13.466
33144W        W 4673  43.282  33.854   2.231
33145W        W 4674   9.309  17.266   3.797
33146W        W 4675  36.173  19.311   2.188
33147W        W 4676  11.871   3.031   5.087
33148W        W 4677  25.615  23.769  11.085
33149W        W 4678  36.492   7.069   1.710
33150W        W 4679  30.506  24.598  14.412
33151W        W 4680  16.865  37.358  11.480
33152W        W 4681  18.511  37.423  13.731
33153W        W 4682  18.048  33.475  13.447
33154W        W 4683  35.107  40.946  10.728
33155W        W 4684  24.310  36.679  14.732
33156W        W 4685  31.325  27.030  10.788
33157W        W 4686   5.500  32.313  13.008
33158W        W 4687  10.221  39.452   0.741
33159W        W 4688   8.829  44.095   4.192
33160W        W 4689  10.243  24.494   3.879
33161W        W 4690  39.482   4.784  10.702
33162W        W 4691  24.910  19.631  12.946
33163W        W 4692  20.574  19.510  11.119
33164W        W 4693  25.426   1.278   1.356
33165W        W 4694  44.494  22.479   9.741
33166W        W 4695  11.762  40.403   3.598
33167W        W 4696  22.600  16.603  11.178
33168W        W 4697  20.655  34.552   1.646
33169W        W 4698   3.507  21.625   4.855
33170W        W 4699  18.023  32.130   3.267
33171W        W 4700  36.168  44.325  11.571
33172W        W 4701  11.221  37.593  11.649
33173W        W 4702  40.558  43.715   2.127
33174W        W 4703  10.146  32.679  13.492
33175W        W 4704  25.420  44.153  11.609
33176W        W 4705  35.254  15.059  13.485
33177W        W 4706  40.060  37.013  14.468
33178W        W 4707  20.853  14.789  13.518
33179W        W 4708  40.586  17.878   0.488
33180W        W 4709  19.670  26.029   1.799
33181W        W 4710  32.857   1.880   2.271
33182W        W 4711  20.982  27.586  10.568
33183W        W 4712  15.929  25.036   4.255
33184W        W 4713   0.797  20.515  14.967
33185W        W 4714  20.525  18.979  11.203
33186W        W 4715  41.358  36.504  11.133
33187W        W 4716  30.970  21.703  13.357
33188W        W 4717  32.453  24.713   0.347
33189W        W 4718  38.533  39.531   3.696
33190W        W 4719  27.897   5.709  11.467
33191W        W 4720   1.184  28.952  11.227
33192W        W 4721   2.837  42.820  14.797
33193W        W 4722  34.468  28.162   3.582
33194W        W 4723  40.159  44.434   4.242
33195W        W 4724  27.071  23.947  13.927
33196W        W 4725   1.862   3.301  12.588
33197W        W 4726  13.330  24.768  12.805
33198W        W 4727  13.174  21.230   0.454
33199W        W 4728  27.745   7.931  14.039
33200W        W 4729  22.353  39.764  11.625
33201W        W 4730  33.478  44.304   3.293
33202W        W 4731  23.395   7.432  12.345
33203W        W 4732  38.580  40.485  13.565
33204W        W 4733   3.984  17.556  11.361
33205W        W 4734  42.025  36.771  11.579
33206W        W 4735  18.772  39.185   0.493
33207W        W 4736  42.353  30.671  12.919
33208W        W 4737  23.935  42.429  12.037
33209W        W 4738  44.890  10.893   4.120
33210W        W 4739   8.426   0.693   3.106
33211W        W 4740  23.029   7.769  10.307
33212W        W 4741   1.644   6.804  11.457
33213W        W 4742  32.061  27.385  11.083
33214W        W 4743  19.286  12.493  10.818
33215W        W 4744  12.212   0.312   0.551
33216W        W 4745  27.545   5.810   2.608
33217W        W 4746  16.929  39.529   3.686
33218W        W 4747  19.098  38.139  14.398
33219W        W 4748   6.766  40.885   4.862
33220W        W 4749   8.302  39.847   4.791
33221W        W 4750  12.179  41.210   4.839
33222W        W 4751  28.078  30.126   2.971
33223W        W 4752  33.833  11.028   1.355
33224W        W 4753  22.235  36.167  11.118
33225W        W 4754  12.052   1.077   2.653
33226W        W 4755   5.959  15.838  11.619
33227W        W 4756   7.314  31.001  10.568
33228W        W 4757  13.337  19.246   3.265
33229W        W 4758  41.768  16.347   0.311
33230W        W 4759   9.576  22.942   1.559
33231W        W 4760   7.735   4.310   1.243
33232W        W 4761  11.171   6.143   1.447
33233W        W 4762  14.151  34.976   4.650
33234W        W 4763  17.786   6.951   4.517
33235W        W 4764  28.640  29.414   4.705
33236W        W 4765  19.982  41.459   4.566
33237W        W 4766  14.886   3.007  14.891
33238W        W 4767  16.497  23.244  13.506
33239W        W 4768  31.895  34.856   0.227
33240W        W 4769  32.103  20.812   0.777
33241W        W 4770  23.530  33.543  14.480
33242W        W 4771  27.961  41.121   3.816
33243W        W 4772  16.779   7.769   2.752
33244W        W 4773  39.298  23.152  13.047
33245W        W 4774  20.256  12.227   2.394
33246W        W 4775  12.848  44.417  14.968
33247W        W 4776  39.214  18.598   2.867
33248W        W 4777  42.691   8.860  11.249
33249W        W 4778  16.794  40.112   4.303
33250W        W 4779   1.692  33.854   1.295
33251W        W 4780  34.096  32.018  10.730
33252W        W 4781  16.849  30.915   2.733
33253W        W 4782  34.022  16.687   0.494
33254W        W 4783  12.897  18.246  13.120
33255W        W 4784  38.918  10.185  10.618
33256W        W 4785  15.074  14.997   3.989
33257W        W 4786   5.347  16.119   3.799
33258W        W 4787  40.852  42.383  14.380
33259W        W 4788  12.510  42.847  10.111
33260W        W 4789  19.096  22.163  10.584
33261W        W 4790  16.649  14.623   2.895
33262W        W 4791  26.597   5.958   2.814
33263W        W 4792   2.343  37.059   4.003
33264W        W 4793  30.155  10.860   1.864
33265W        W 4794  16.861   2.922  13.285
33266W        W 4795  32.129  18.128  12.844
33267W        W 4796  35.121  42.871   4.095
33268W        W 4797   2.256  16.409  11.490
33269W        W 4798  34.236   7.806   3.597
33270W        W 4799   7.690  19.087  14.744
33271W        W 4800  14.809  16.416   0.508
33272W        W 4801  40.311  38.765  10.411
33273W        W 4802   0.775   0.978  13.512
33274W        W 4803   4.231  22.550   1.197
33275W        W 4804  36.495   1.188  11.324
33276W        W 4805  29.115   9.717   3.017
33277W        W 4806  27.084  37.954   3.751
33278W        W 4807  31.955   9.314  11.210
33279W        W 4808   9.297   2.860   0.748
33280W        W 4809  43.601  32.397   1.289
33281W        W 4810  23.520  39.748   1.127
33282W        W 4811   1.939   9.222  12.174
33283W        W 4812  44.502  36.996  14.393
33284W        W 4813  12.368  15.885  10.914
33285W        W 4814  14.366  11.601  12.012
33286W        W 4815   9.153  38.561   0.242
33287W        W 4816  44.990   0.220   1.688
33288W        W 4817  30.165  22.175  13.822
33289W        W 4818   6.951  42.884  14.889
33290W        W 4819  14.621  33.256  13.501
33291W        W 4820   4.402  28.545   1.839
33292W        W 4821  27.236  35.005   3.707
33293W        W 4822   3.737  24.071  10.557
33294W        W 4823  38.016  23.720  12.294
33295W        W 4824  26.235  32.648   1.895
33296W        W 4825  13.003  11.036  10.768
33297W        W 4826   7.030  22.935  10.623
33298W        W 4827  11.242   1.761  14.816
33299W        W 4828  41.813  20.142   3.514
33300W        W 4829  44.363  33.445  10.860
33301W        W 4830  39.450  16.582  11.880
33302W        W 4831  14.643  26.221   0.677
33303W        W 4832   0.809  14.212   1.846
33304W        W 4833  40.063  39.770  14.239
33305W        W 4834  35.620  35.510  11.926
33306W        W 4835  23.672  44.471   2.623
33307W        W 4836  11.550   2.708   1.717
33308W        W 4837  30.069   3.858   4.396
33309W        W 4838  39.839   6.779   3.734
33310W        W 4839  12.818  12.247   3.237
33311W        W 4840  28.598  40.290   2.346
33312W        W 4841   0.591  19.285  12.394
33313W        W 4842  10.402  43.883   3.185
33314W        W 4843  44.441  11.810  10.378
33315W        W 4844   8.912  24.760  11.990
33316W        W 4845  18.286  31.911   3.666
33317W        W 4846  22.280   3.056   3.196
33318W        W 4847  14.429   8.168  10.804
33319W        W 4848  25.548   8.452  13.388
33320W        W 4849  30.089  20.264  10.770
33321W        W 4850  37.545  25.051  12.303
33322W        W 4851  22.605  39.736   1.398
33323W        W 4852   6.963  14.434   3.206
33324W        W 4853  13.325   5.343   3.278
33325W        W 4854  25.006  10.184  13.548
33326W        W 4855   0.987  34.632   3.748
33327W        W 4856   0.682   7.752  14.390
33328W        W 4857  17.157  10.388  12.295
33329W        W 4858  28.277  29.406   0.859
33330W        W 4859   7.653  37.203   4.211
33331W        W 4860   6.351  14.395   1.190
33332W        W 4861  35.583  21.699  12.104
33333W        W 4862  22.215  42.550  14.373
33334W        W 4863   2.379  36.827  11.389
33335W        W 4864  38.412  23.845  12.643
33336W        W 4865  40.814  41.203   3.093
33337W        W 4866  23.534   4.353   2.361
33338W        W 4867  44.437  12.776   3.679
33339W        W 4868  41.858   8.512  12.354
33340W        W 4869  31.082  42.891  12.871
33341W        W 4870  18.307  35.812   1.276
33342W        W 4871  20.232  32.075   4.133
33343W        W 4872  16.099  24.660  14.724
33344W        W 4873  36.857  23.238  12.028
33345W        W 4874  15.796  13.706   2.857
33346W        W 4875  23.270  13.675  13.922
33347W        W 4876  42.942  36.093   3.287
33348W        W 4877  36.996  41.923  14.120
33349W        W 4878   5.426  12.777  13.867
33350W        W 4879   3.257  38.898   2.342
33351W        W 4880   7.679  18.689   2.679
33352W        W 4881  36.011  25.855  14.429
33353W        W 4882  36.781  34.988  13.923
33354W        W 4883   7.424  10.813  14.805
33355W        W 4884   7.420   4.132   4.073
33356W        W 4885  40.270  29.481   0.070
33357W        W 4886  36.927  33.304   1.832
33358W        W 4887   5.796   1.154   4.630
33359W        W 4888  38.757  17.517  13.415
33360W        W 4889   1.912  39.415  10.629
33361W        W 4890  34.881  29.102  12.485
33362W        W 4891  38.008   3.975   4.201
33363W        W 4892  26.691  26.482  13.401
33364W        W 4893  17.738   4.743  12.056
33365W        W 4894  37.178  36.568  14.333
33366W        W 4895  32.783  37.645  14.226
33367W        W 4896   1.281  19.963   0.904
33368W        W 4897  23.242  23.177  14.901
33369W        W 4898  31.838  41.617  12.470
33370W        W 4899  12.258  19.270  11.884
33371W        W 4900  18.699   2.949   4.177
33372W        W 4901   1.334  14.698   1.196
33373W        W 4902  17.749  16.086   1.907
33374W        W 4903  39.013  17.242  14.693
33375W        W 4904  19.330   4.342  10.780
33376W        W 4905  15.568  20.775   1.385
33377W        W 4906   3.086   4.518   3.010
33378W        W 4907  13.161  15.996   2.334
33379W        W 4908  18.036  40.409  13.490
33380W        W 4909  22.940   0.509   1.701
33381W        W 4910  27.457  20.159   4.086
33382W        W 4911  15.194  38.382  10.626
33383W        W 4912  38.561  33.468  14.487
33384W        W 4913  37.405  22.360   1.441
33385W        W 4914  12.243  31.022   3.647
33386W        W 4915  37.553  19.504   4.116
33387W        W 4916   3.361  33.895  12.578
33388W        W 4917  30.639  21.467  13.737
33389W        W 4918  38.518  27.265   2.408
33390W        W 4919  35.589   8.221  13.404
33391W        W 4920  14.965  25.137   3.278
33392W        W 4921   9.837   9.227   3.342
33393W        W 4922  29.711  15.706  13.764
33394W        W 4923  40.519  29.186   0.487
33395W        W 4924  44.458  11.791  12.007
33396W        W 4925  27.321  31.132   4.681
33397W        W 4926  11.428   7.648  14.291
33398W        W 4927  20.916  28.036  14.272
33399W        W 4928  12.016   8.401  11.664
33400W        W 4929  25.952  30.151   4.067
33401W        W 4930  40.740  41.134   4.031
33402W        W 4931   9.746   2.469  11.192
33403W        W 4932  31.978  28.901  13.844
33404W        W 4933  41.963  43.794  13.072
33405W        W 4934  43.478  36.445  14.370
33406W        W 4935  30.621  25.521  12.921
33407W        W 4936  27.950  37.942  14.049
33408W        W 4937  11.149  31.740  13.019
33409W        W 4938  36.849  26.075   0.012
33410W        W 4939   5.002  36.863  11.127
33411W        W 4940  22.559  38.403   3.770
33412W        W 4941  44.305  16.730   2.889
33413W        W 4942  32.035  14.591   3.170
33414W        W 4943  21.121  43.887  13.001
33415W        W 4944  31.275  32.062  11.695
33416W        W 4945  34.136  16.490   0.016
33417W        W 4946  41.585  41.107   3.678
33418W        W 4947  27.479  19.764  12.472
33419W        W 4948  16.627  29.953  12.566
33420W        W 4949  34.082   0.282  11.862
33421W        W 4950   4.213   2.206   3.302
33422W        W 4951  14.219  20.132  13.792
33423W        W 4952  19.623  12.811  13.771
33424W        W 4953  41.196  13.549  10.599
33425W        W 4954  10.183  10.084   1.858
33426W        W 4955  12.433  14.183   4.489
33427W        W 4956   4.668   6.150   4.992
33428W        W 4957   8.943  22.748  13.803
33429W        W 4958   8.268   9.887  12.079
33430W        W 4959   5.113  23.624  14.908
33431W        W 4960  41.408  26.378   3.308
33432W        W 4961   6.645  30.075   2.476
33433W        W 4962  29.081  18.155   1.822
33434W        W 4963  33.387  36.452   1.223
33435W        W 4964   3.716  33.451   3.748
33436W        W 4965  23.175  12.285  13.475
33437W        W 4966  17.186   6.664   4.104
33438W        W 4967  25.226   1.779  10.576
33439W        W 4968   1.472  14.672   4.843
33440W        W 4969  12.634   6.907   1.008
33441W        W 4970  20.812   8.827  11.778
33442W        W 4971  26.484  37.901   1.172
33443W        W 4972  29.579  44.045   5.115
33444W        W 4973  30.379  32.634   3.292
33445W        W 4974   8.291  13.405  11.890
33446W        W 4975  26.830   7.210   4.860
33447W        W 4976  37.371  40.390  10.414
33448W        W 4977  22.059  20.790  11.228
33449W        W 4978  44.754   2.670  11.648
33450W        W 4979  29.697  27.589  14.432
33451W        W 4980  34.754  22.699  13.461
33452W        W 4981  33.623   1.063  14.419
33453W        W 4982  37.605   0.226   0.319
33454W        W 4983  31.518  22.965  12.607
33455W        W 4984  19.041   1.563   4.104
33456W        W 4985  28.082  24.755   3.153
33457W        W 4986  37.793  38.519   0.762
33458W        W 4987  31.486   1.700   3.722
33459W        W 4988  11.132   0.623  10.233
33460W        W 4989  15.462  41.841   3.052
33461W        W 4990  10.062  22.665   0.829
33462W        W 4991   7.901   0.497  11.865
33463W        W 4992  10.779   3.545  12.606
33464W        W 4993  28.711  23.047  13.480
33465W        W 4994  20.647  13.402  14.425
33466W        W 4995   3.928  23.626   0.454
33467W        W 4996   0.151  27.108   2.868
33468W        W 4997  35.903   7.626  11.019
33469W        W 4998  39.487  43.526  14.067
33470W        W 4999  17.849  20.395   2.224
33471W        W 5000  38.408  22.344  11.964
33472W        W 5001  28.542  25.408   0.773
33473W        W 5002   4.121   0.791  11.778
33474W        W 5003  38.726   9.473  12.149
33475W        W 5004  26.601  40.333  10.364
33476W        W 5005   6.423  39.576  10.635
33477W        W 5006   9.532  12.946  12.408
33478W        W 5007  27.164  19.554   1.431
33479W        W 5008  37.255   6.941  13.853
33480W        W 5009   6.233  38.164   2.862
33481W        W 5010  39.549   2.473  11.246
33482W        W 5011  11.632  12.549   4.393
33483W        W 5012   5.037  25.955   4.208
33484W        W 5013  41.827  19.476  12.574
33485W        W 5014  13.896  12.068   1.673
33486W        W 5015  26.317   9.035   0.327
33487W        W 5016  32.202  16.141   4.901
33488W        W 5017  22.937   5.185  12.701
33489W        W 5018  34.096  28.093  12.076
33490W        W 5019  17.127  14.560   4.633
33491W        W 5020   1.729   7.769   2.429
33492W        W 5021  31.078  35.506  13.883
33493W        W 5022  18.673  28.917  10.743
33494W        W 5023  44.831  21.297   2.784
33495W        W 5024  14.192  33.923   3.573
33496W        W 5025  10.604  26.570   2.387
33497W        W 5026  14.772  11.456  12.284
33498W        W 5027  39.408   0.289  12.091
33499W        W 5028   9.922   7.867   3.651
33500W        W 5029  11.612  27.903  12.923
33501W        W 5030  44.023   1.801   2.819
33502W        W 5031   7.338  22.319  12.603
33503W        W 5032  18.090   4.446  13.394
33504W        W 5033  19.677  15.223  12.838
33505W        W 5034  16.152  12.716  10.668
33506W        W 5035  15.085   2.264  14.801
33507W        W 5036  25.904  11.737   2.035
33508W        W 5037  21.017  16.715  13.925
33509W        W 5038  28.578   1.489  14.869
33510W        W 5039  20.548  29.752  14.915
33511W        W 5040  34.034  42.148   3.775
33512W        W 5041  11.805  41.437   4.098
33513W        W 5042  10.607  11.348  12.795
33514W        W 5043  21.523  19.064   2.701
33515W        W 5044  37.102  15.691   1.890
33516W        W 5045   6.373  12.273   3.198
33517W        W 5046  17.641   5.789  13.052
33518W        W 5047  44.557  12.759  10.297
33519W        W 5048   8.627   4.852   0.328
33520W        W 5049  27.515  29.486  12.982
33521W        W 5050  22.809  44.291  12.425
33522W        W 5051  34.856  28.402   2.282
33523W        W 5052  30.898  11.265   3.349
33524W        W 5053  10.202  40.402   1.925
33525W        W 5054  19.187  30.948   1.812
33526W        W 5055  27.535  12.321  11.158
33527W        W 5056  18.278  24.978  13.726
33528W        W 5057  23.238  20.792  12.340
33529W        W 5058  21.690  24.562  14.406
33530W        W 5059   2.229  44.868   0.940
33531W        W 5060  36.839  44.307  13.398
33532W        W 5061   9.213  43.009  10.555
33533W        W 5062  28.672  23.597  14.729
33534W        W 5063   8.657  28.645   3.275
33535W        W 5064  37.828  19.208   1.648
33536W        W 5065  12.903  18.893   3.998
33537W        W 5066  37.238  35.588   2.618
33538W        W 5067  43.284   4.993   0.873
33539W        W 5068  24.284  37.538   4.805
33540W        W 5069  35.415  32.622   1.976
33541W        W 5070  10.505  21.637  13.812
33542W        W 5071  12.432  21.775  14.816
33543W        W 5072   0.940  26.327   1.174
33544W        W 5073  15.748  12.436   0.059
33545W        W 5074  26.112  38.064  13.279
33546W        W 5075  27.712  29.038  10.771
33547W        W 5076   0.228  27.241   4.171
33548W        W 5077  11.597  23.973   3.699
33549W        W 5078  28.469  14.843  13.281
33550W        W 5079  36.083  26.128  11.774
33551W        W 5080  39.909  21.939  13.975
33552W        W 5081   6.341  37.953   0.219
33553W        W 5082  30.707  13.410   1.551
33554W        W 5083  32.139  35.061  14.823
33555W        W 5084  19.548  16.444  12.390
33556W        W 5085   1.032   4.206  10.629
33557W        W 5086  35.378  39.757  11.513
33558W        W 5087   5.371  38.044   3.584
33559W        W 5088  43.110  22.691  14.311
33560W        W 5089  32.923  12.351  12.834
33561W        W 5090  12.138  41.645  14.498
33562W        W 5091  44.439  29.304  14.545
33563W        W 5092  22.134  11.327   3.921
33564W        W 5093  25.571  37.971   2.167
33565W        W 5094  43.893  34.569   3.778
33566W        W 5095  15.922  15.486  13.966
33567W        W 5096  21.059  12.635   2.226
33568W        W 5097  14.131  40.554   1.246
33569W        W 5098  15.313  36.496   4.024
33570W        W 5099  29.636   1.370  12.162
33571W        W 5100  13.600  28.515   1.923
33572W        W 5101  11.805   0.786   2.051
33573W        W 5102  29.555   1.710  12.553
33574W        W 5103  36.981  14.303   0.437
33575W        W 5104  35.345  40.928  13.449
33576W        W 5105  22.795   9.658  13.440
33577W        W 5106  43.544  35.988   3.702
33578W        W 5107  42.500  37.793   3.236
33579W        W 5108   6.090  18.615   0.848
33580W        W 5109  11.895  41.276   3.091
33581W        W 5110  19.806  32.994  11.516
33582W        W 5111  25.937  34.124  12.082
33583W        W 5112   5.794  42.788   1.159
33584W        W 5113  15.040  34.946   0.746
33585W        W 5114  21.423   1.754   0.804
33586W        W 5115  11.612  31.146   4.533
33587W        W 5116  24.681  36.901   4.199
33588W        W 5117  32.948  44.406   4.494
33589W        W 5118  20.099   0.416  11.196
33590W        W 5119  36.138  44.821  13.955
33591W        W 5120  14.214   9.272  13.334
33592W        W 5121  33.596  44.826   3.283
33593W        W 5122   8.663  35.663  14.018
33594W        W 5123  34.659  14.707  11.263
33595W        W 5124  15.542  26.431   3.139
33596W        W 5125   4.095  41.531   3.970
33597W        W 5126  32.049  42.496  11.680
33598W        W 5127  23.668  33.509  11.632
33599W        W 5128  42.506  23.733  14.499
33600W        W 5129   8.135  28.044  12.129
33601W        W 5130  42.308   5.662  13.837
33602W        W 5131   8.874  36.571  14.013
33603W        W 5132  34.346  27.716   4.596
33604W        W 5133  42.761   7.618   3.281
33605W        W 5134  12.774  36.149   1.587
33606W        W 5135  14.492   0.870   2.807
33607W        W 5136  33.929  19.837  10.731
33608W        W 5137  13.415  32.357   0.202
33609W        W 5138  28.669  26.568  14.499
33610W        W 5139   8.510  35.211   1.431
33611W        W 5140  15.270  18.633   1.811
33612W        W 5141  41.547  15.120  11.722
33613W        W 5142  14.840  36.054   2.276
33614W        W 5143  37.952  38.020   0.642
33615W        W 5144  27.603  27.360  13.769
33616W        W 5145  29.647  29.974   1.833
33617W        W 5146   5.979  10.639   3.857
33618W        W 5147  12.795  19.668  13.299
33619W        W 5148   5.694  44.915  11.953
33620W        W 5149   2.226  31.341   1.476
33621W        W 5150  23.291   0.020   4.727
33622W        W 5151  11.612  28.037   2.560
33623W        W 5152  41.059  21.857  11.099
33624W        W 5153  14.175  44.535  11.638
33625W        W 5154  17.531   4.328   2.827
33626W        W 5155  29.005  41.440   2.900
33627W        W 5156   5.627  21.004  11.633
33628W        W 5157  33.074  40.980  12.292
33629W        W 5158  16.327  25.081  10.923
33630W        W 5159  24.642  33.493   1.502
33631W        W 5160  23.716  11.420  13.254
33632W        W 5161   5.411   9.332  11.995
33633W        W 5162  27.484  20.821   4.884
33634W        W 5163  12.062  11.788   3.349
33635W        W 5164  35.649  38.348  12.089
33636W        W 5165  26.384  29.218  11.481
33637W        W 5166  10.718  36.889  12.145
33638W        W 5167   8.213   3.266   2.480
33639W        W 5168  27.148  23.291   2.265
33640W        W 5169  25.931  28.094   0.611
33641W        W 5170   1.393  35.932  14.423
33642W        W 5171  38.969  35.984   2.836
33643W        W 5172  23.646  35.437   3.374
33644W        W 5173  20.133  38.149  10.199
33645W        W 5174  38.838   1.242  11.195
33646W        W 5175  11.890   5.160  10.670
33647W        W 5176  20.590  18.408   0.877
33648W        W 5177   9.288  21.279  13.377
33649W        W 5178  21.351  35.957  11.115
33650W        W 5179  34.906  29.553  14.857
33651W        W 5180  32.083  34.772  13.490
33652W        W 5181  29.727   7.700  12.503
33653W        W 5182  10.484  12.737  13.326
33654W        W 5183  18.143  23.854  11.731
33655W        W 5184  34.589   9.185  11.201
33656W        W 5185  39.430  31.390   2.340
33657W        W 5186  13.536   8.302  13.880
33658W        W 5187  26.174  35.631  13.359
33659W        W 5188  37.575  20.788  10.571
33660W        W 5189   6.348  39.918  14.431
33661W        W 5190  42.488  24.222  13.597
33662W        W 5191  11.713  23.498  10.051
33663W        W 5192  36.660  42.688  14.851
33664W        W 5193  30.166  33.584  14.923
33665W        W 5194  29.576  43.610  13.004
33666W        W 5195  26.072  35.987  12.449
33667W        W 5196   7.714  14.218   0.453
33668W        W 5197  20.135  13.377   0.538
33669W        W 5198   0.887  12.773   2.887
33670W        W 5199  24.554   0.667  14.834
33671W        W 5200  44.156   0.224   4.112
33672W        W 5201   0.517  21.823  12.668
33673W        W 5202  39.289   8.958   2.809
33674W        W 5203   1.191  15.612  12.360
33675W        W 5204  35.596  19.301  11.949
33676W        W 5205  43.246   8.345   0.950
33677W        W 5206  38.037  33.772   4.185
33678W        W 5207   2.002  43.476   4.153
33679W        W 5208   8.435   3.072   1.251
33680W        W 5209  26.662   4.492  11.981
33681W        W 5210  26.964  37.595   4.494
33682W        W 5211  25.794   8.383   0.045
33683W        W 5212   5.757  28.571  10.516
33684W        W 5213  23.615   8.848  11.179
33685W        W 5214  22.281  29.683  13.403
33686W        W 5215  19.606   2.511  12.958
33687W        W 5216  23.202   8.061   3.679
33688W        W 5217   9.186  26.616  11.604
33689W        W 5218  10.710  31.288   1.447
33690W        W 5219   9.759  36.902   3.912
33691W        W 5220  23.945  25.321   2.681
33692W        W 5221  35.351  22.042   3.174
33693W        W 5222  37.087  29.353  14.484
33694W        W 5223  20.188  16.803  13.349
33695W        W 5224  10.160  27.727   3.646
33696W        W 5225   1.293  14.522   3.991
33697W        W 5226  25.548   6.805  13.754
33698W        W 5227  39.020  27.462  11.150
33699W        W 5228  40.719  43.312  10.720
33700W        W 5229  43.476  31.850   2.353
33701W        W 5230  34.036  41.935  13.281
33702W        W 5231  29.165  44.960   3.109
33703W        W 5232  35.857  30.903   0.501
33704W        W 5233  24.636  20.949  14.850
33705W        W 5234  12.801  21.064  12.898
33706W        W 5235  37.192  14.328  14.539
33707W        W 5236  19.248  44.415   4.744
33708W        W 5237  38.223  10.009  11.795
33709W        W 5238   0.302  20.978   0.870
33710W        W 5239  42.452  13.428  11.045
33711W        W 5240  28.424  20.894  13.973
33712W        W 5241  40.573  25.205   4.568
33713W        W 5242  29.934  20.313  13.431
33714W        W 5243  29.560  12.379   3.554
33715W        W 5244  42.047  30.609  12.469
33716W        W 5245   6.215  33.564  13.862
33717W        W 5246  32.647  42.190  12.246
33718W        W 5247  29.880   8.714  14.950
33719W        W 5248  36.394  33.066   3.186
33720W        W 5249   7.849  41.309  12.147
33721W        W 5250  38.416  10.065   4.628
33722W        W 5251  24.222   0.951   1.903
33723W        W 5252  11.834  20.251   0.126
33724W        W 5253  12.320   1.357  13.088
33725W        W 5254  25.646  21.012   2.515
33726W        W 5255  23.255   9.795  14.420
33727W        W 5256  16.002  16.339  11.025
33728W        W 5257  40.532  20.849   2.679
33729W        W 5258  10.844  38.551   1.750
33730W        W 5259  41.323  39.565  10.770
33731W        W 5260  36.418  39.631   1.972
33732W        W 5261  21.547   7.552  11.768
33733W        W 5262  11.697  26.784  14.554
33734W        W 5263  39.819  37.925   2.557
33735W        W 5264  18.253  15.088   3.458
33736W        W 5265  44.042  42.939   3.217
33737W        W 5266  43.942  44.313  11.430
33738W        W 5267  13.341   8.060  11.943
33739W        W 5268  18.754  18.759   2.893
33740W        W 5269  32.327  37.093  11.035
33741W        W 5270   4.839   1.048  14.788
33742W        W 5271  23.079  34.035  12.205
33743W        W 5272  29.463  18.094  10.645
33744W        W 5273  17.357   0.952  13.562
33745W        W 5274  27.526  33.658   2.578
33746W        W 5275  39.424  13.642  13.782
33747W        W 5276  25.173   2.334   0.300
33748W        W 5277  32.030  29.488  12.964
33749W        W 5278  11.615  39.993  13.860
33750W        W 5279  24.605  39.280  13.466
33751W        W 5280  18.618  40.861  14.831
33752W        W 5281   9.746  13.938   2.832
33753W        W 5282  24.765  26.369   3.129
33754W        W 5283  11.345  31.615   1.183
33755W        W 5284   8.224   3.763  11.474
33756W        W 5285   7.749  27.251   3.164
33757W        W 5286  17.619   4.695  13.392
33758W        W 5287  32.856   3.833  14.098
33759W        W 5288   4.961  18.023   4.081
33760W        W 5289  16.017  23.552  12.159
33761W        W 5290  31.477  23.739  11.591
33762W        W 5291  10.864  16.544  11.192
33763W        W 5292   6.518  12.714  11.195
33764W        W 5293   1.329  37.421   4.379
33765W        W 5294  21.967  16.503   2.290
33766W        W 5295  11.824  19.189   4.910
33767W        W 5296  15.207   6.951  11.048
33768W        W 5297  22.308  33.753  13.539
33769W        W 5298  43.727  22.540   3.560
33770W        W 5299   1.318  38.072   0.470
33771W        W 5300  35.886  31.595   1.382
33772W        W 5301  32.427   6.990  13.124
33773W        W 5302  11.470   3.349   1.971
33774W        W 5303  38.395  44.472   3.010
33775W        W 5304  14.129  40.989   3.199
33776W        W 5305  42.113   0.940  10.266
33777W        W 5306  22.939  41.386  11.838
33778W        W 5307  37.816  27.144   2.848
33779W        W 5308  28.581   2.455   4.627
33780W        W 5309   5.393  44.517   3.230
33781W        W 5310  37.516   4.711   2.880
33782W        W 5311  27.704  12.696   2.257
33783W        W 5312  12.047  23.790   4.359
33784W        W 5313  26.737   5.911   1.285
33785W        W 5314  22.307   6.515  12.957
33786W        W 5315  31.532  24.120  10.248
33787W        W 5316   4.210  26.894  11.677
33788W        W 5317   2.340  20.064   4.388
33789W        W 5318  31.452  24.322  13.890
33790W        W 5319  25.333  43.282  13.546
33791W        W 5320  28.880  28.626  14.940
33792W        W 5321  38.599  24.708  12.094
33793W        W 5322  37.054  44.354   1.957
33794W        W 5323  27.996  13.137  11.199
33795W        W 5324   0.339  36.098  11.008
33796W        W 5325   3.199  36.735  13.281
33797W        W 5326   7.681  21.974   4.163
33798W        W 5327  37.661  19.733   4.544
33799W        W 5328  11.368  16.229   4.787
33800W        W 5329  20.624  37.038  12.170
33801W        W 5330   2.584   1.896   1.261
33802W        W 5331   1.813  24.657  12.132
33803W        W 5332   5.887  36.906  12.389
33804W        W 5333  14.074  29.515   0.277
33805W        W 5334  13.596  39.131  12.863
33806W        W 5335  24.086  26.817  12.544
33807W        W 5336  19.778  21.127   3.198
33808W        W 5337  27.130  27.790  14.972
33809W        W 5338  11.861   3.695   4.567
33810W        W 5339  34.471  18.975   3.100
33811W        W 5340  43.729   6.735  10.746
33812W        W 5341  33.961  23.442   1.416
33813W        W 5342  19.619  32.561  12.620
33814W        W 5343  22.150  10.252  12.953
33815W        W 5344  27.082  42.746  12.684
33816W        W 5345  41.467   3.646   0.481
33817W        W 5346  40.055  23.695   1.384
33818W        W 5347  43.816  41.044   0.856
33819W        W 5348  34.726   6.316  11.597
33820W        W 5349   5.606  22.944  12.415
33821W        W 5350  27.939  25.209  11.981
33822W        W 5351  37.569  34.817   3.767
33823W        W 5352   2.512  43.974   1.726
33824W        W 5353  10.288   5.868   2.507
33825W        W 5354   9.722  31.611  11.496
33826W        W 5355  20.640  24.163  11.215
33827W        W 5356  32.680   1.791  10.714
33828W        W 5357  10.719  30.950  14.547
33829W        W 5358  35.495  16.534   0.066
33830W        W 5359   6.279  43.950  10.514
33831W        W 5360  41.892   3.712   0.823
33832W        W 5361  44.120  43.011  12.468
33833W        W 5362  16.524  41.938  14.797
33834W        W 5363  10.673  41.507   4.372
33835W        W 5364  37.009  11.394   1.385
33836W        W 5365  35.242  26.713   3.773
33837W        W 5366  32.861  25.502  14.454
33838W        W 5367  31.617  24.134  13.438
33839W        W 5368  19.098  17.667   3.139
33840W        W 5369  36.521  39.949   0.772
33841W        W 5370  29.554  29.107   3.687
33842W        W 5371  24.350  25.203  11.127
33843W        W 5372  43.863  32.192   2.302
33844W        W 5373  12.690   8.311  11.133
33845W        W 5374  22.982  27.115  12.328
33846W        W 5375   9.327  40.777  14.522
33847W        W 5376   0.854  30.147   2.325
33848W        W 5377  32.532   1.116  13.549
33849W        W 5378  41.245  25.536  12.106
33850W        W 5379   8.458  32.998   2.848
33851W        W 5380  27.327  23.635  12.094
33852W        W 5381  25.524  39.005  13.544
33853W        W 5382   8.281  42.058   4.941
33854W        W 5383  13.330  29.605   2.690
33855W        W 5384   1.027  23.349   2.994
33856W        W 5385   3.738  40.024   1.043
33857W        W 5386  10.147   1.977  11.033
33858W        W 5387  12.578  15.734   4.311
33859W        W 5388  26.089   0.463  12.052
33860W        W 5389  33.081  10.107  11.995
33861W        W 5390  16.546  11.404  10.648
33862W        W 5391  20.761  44.519   3.075
33863W        W 5392  18.461   3.936  12.948
33864W        W 5393  27.355  22.625  11.171
33865W        W 5394  42.042  35.287  12.830
33866W        W 5395  40.876  13.343   3.683
33867W        W 5396  40.844  38.887   3.286
33868W        W 5397  19.282  22.802   3.532
33869W        W 5398  14.077   4.400   1.917
33870W        W 5399  16.090  38.925  14.997
33871W        W 5400  22.394  15.133  12.589
33872W        W 5401  11.158  27.162   0.817
33873W        W 5402  17.141  43.819   3.345
33874W        W 5403  22.562  14.730   0.029
33875W        W 5404  40.903  20.598   3.754
33876W        W 5405   1.798  36.879   2.716
33877W        W 5406  11.156  15.626  13.407
33878W        W 5407  32.073   7.152   2.210
33879W        W 5408  44.918  13.663   2.699
33880W        W 5409   4.342  44.340   0.312
33881W        W 5410   6.771   6.212   2.700
33882W        W 5411  19.245  13.737  11.204
33883W        W 5412  21.581  12.150  11.111
33884W        W 5413  30.938  26.516  12.122
33885W        W 5414  31.864   3.655  11.235
33886W        W 5415  43.826  21.920  14.792
33887W        W 5416   6.792  33.558  12.232
33888W        W 5417  34.430   5.564  10.790
33889W        W 5418   1.767  10.746   1.819
33890W        W 5419  34.129  39.815   0.133
33891W        W 5420  36.504  43.639   2.505
33892W        W 5421  24.820  42.456  13.437
33893W        W 5422  44.903  17.668  12.987
33894W        W 5423  37.363  12.928   4.678
33895W        W 5424  39.298  24.379  13.098
33896W        W 5425  11.299  18.591   0.493
33897W        W 5426  41.037  34.523  10.545
33898W        W 5427  26.767  16.819  13.635
33899W        W 5428   4.848  16.628  11.495
33900W        W 5429  21.804   9.135   2.893
33901W        W 5430  14.866  11.425   3.186
33902W        W 5431  39.448  12.310  14.328
33903W        W 5432  25.425  32.038   4.381
33904W        W 5433  26.221   5.097  10.162
33905W        W 5434  22.142  37.010  10.661
33906W        W 5435  41.870  20.630   3.699
33907W        W 5436  32.463   3.873  10.545
33908W        W 5437   0.289  10.586   4.867
33909W        W 5438  19.835  15.866   1.239
33910W        W 5439  19.724  20.999   0.304
33911W        W 5440  41.623  25.686   1.503
33912W        W 5441  41.549  35.908   1.995
33913W        W 5442   0.878  44.313   4.642
33914W        W 5443  36.366  27.228   3.247
33915W        W 5444  26.213  37.815   3.266
33916W        W 5445  23.582  33.096   0.420
33917W        W 5446  36.571  33.153   0.232
33918W        W 5447  18.406   2.331   0.916
33919W        W 5448  26.005   8.740  12.056
33920W        W 5449   3.040  10.839   1.929
33921W        W 5450  26.022  22.079  10.671
33922W        W 5451  41.794   5.066  11.210
33923W        W 5452  42.959   1.624   1.428
33924W        W 5453  43.778   3.852   3.214
33925W        W 5454   1.947  42.608  11.550
33926W        W 5455  18.576   1.879   1.105
33927W        W 5456  42.890  31.476   4.583
33928W        W 5457  19.265  38.749   2.693
33929W        W 5458  19.247   1.778  14.520
33930W        W 5459  25.525  17.999   4.060
33931W        W 5460  14.516  25.977  12.376
33932W        W 5461  25.997  26.959  12.968
33933W        W 5462  31.895  24.494  10.214
33934W        W 5463  24.097  31.485  14.955
33935W        W 5464  24.993  42.942  13.291
33936W        W 5465  25.492  15.623  12.996
33937W        W 5466   2.754  38.983   0.457
33938W        W 5467   9.943   1.243   0.804
33939W        W 5468   6.587   1.805   2.810
33940W        W 5469   7.631  34.219  13.353
33941W        W 5470   8.793  30.244  13.518
33942W        W 5471  17.665  36.909  14.782
33943W        W 5472   0.332  33.680  14.712
33944W        W 5473  16.204  28.210  10.080
33945W        W 5474   1.827  23.203   3.339
33946W        W 5475  33.632  30.939  13.886
33947W        W 5476  36.073  10.320   4.682
33948W        W 5477  15.343  31.670   2.403
33949W        W 5478   3.009  42.928  14.323
33950W        W 5479  28.788   8.700  11.916
33951W        W 5480  33.212  22.781  14.428
33952W        W 5481  15.746   5.126  14.819
33953W        W 5482  34.822  39.771   2.774
33954W        W 5483  22.376  44.301   4.781
33955W        W 5484   9.254   9.076  14.811
33956W        W 5485  23.685  22.718   0.806
33957W        W 5486  42.388   4.518   3.223
33958W        W 5487  10.648  32.753  11.524
33959W        W 5488   6.921  19.777  11.734
33960W        W 5489  39.088  36.994   0.943
33961W        W 5490  16.369  11.487   1.709
33962W        W 5491  27.526  23.785  14.745
33963W        W 5492  13.893  13.197  14.121
33964W        W 5493  43.340  14.599  12.860
33965W        W 5494   7.809  29.221  10.654
33966W        W 5495  37.774   6.595   3.152
33967W        W 5496  42.567  36.092   4.570
33968W        W 5497  23.018  22.649  10.900
33969W        W 5498  23.236  23.965  13.038
33970W        W 5499  12.809   7.197   2.176
33971W        W 5500  18.964  18.715   4.188
33972W        W 5501   8.361  13.325   0.169
33973W        W 5502  26.589  37.310  13.911
33974W        W 5503  20.448   1.764  14.809
33975W        W 5504  39.431  40.460  13.927
33976W        W 5505   3.173  25.150   4.712
33977W        W 5506   0.026  36.799  11.077
33978W        W 5507  14.768  33.345  10.036
33979W        W 5508   8.246  12.385  12.017
33980W        W 5509  36.884  10.854   4.343
33981W        W 5510  37.086  11.265   4.109
33982W        W 5511  10.827  41.325  11.582
33983W        W 5512  33.543   9.345   3.827
33984W        W 5513   1.979  15.394  10.668
33985W        W 5514   2.236   8.343   3.629
33986W        W 5515  26.927  10.593  14.870
33987W        W 5516  39.242  10.865   2.798
33988W        W 5517   9.313  13.855  12.165
33989W        W 5518  15.390  40.912   0.278
33990W        W 5519  33.586  25.457   3.717
33991W        W 5520   7.707  17.151   2.703
33992W        W 5521  13.123  21.605  13.627
33993W        W 5522  31.526  17.590  10.809
33994W        W 5523  26.993  17.800  10.696
33995W        W 5524  12.289  39.334   3.118
33996W        W 5525   6.380  30.960  14.570
33997W        W 5526   9.803  35.100  12.846
33998W        W 5527  33.185   7.419   0.839
33999W        W 5528  22.316   6.850  10.756
34000W        W 5529  26.551  19.272  11.736
34001W        W 5530  32.902  16.873  10.660
34002W        W 5531   1.976  17.426   4.170
34003W        W 5532  13.411   2.399  10.513
34004W        W 5533  29.541   9.657   3.383
34005W        W 5534  37.232  33.604  13.261
34006W        W 5535  41.304  29.876   1.825
34007W        W 5536  43.065  19.543   2.841
34008W        W 5537  28.865  37.078  10.633
34009W        W 5538  18.381  39.796   3.854
34010W        W 5539  17.645   6.268   2.333
34011W        W 5540  21.831   8.250  12.902
34012W        W 5541  24.095   2.839   4.341
34013W        W 5542  24.020  40.670   5.040
34014W        W 5543  15.664  33.811  11.070
34015W        W 5544  27.347  17.618   0.817
34016W        W 5545  41.857  39.775   3.879
34017W        W 5546   3.004   3.281  10.985
34018W        W 5547  33.066  31.648   4.151
34019W        W 5548  37.406   6.851   0.223
34020W        W 5549   0.483   1.887   1.426
34021W        W 5550   2.243  16.575  14.494
34022W        W 5551  25.772   7.340   1.213
34023W        W 5552  37.703  42.457  13.970
34024W        W 5553  36.949  24.728   0.408
34025W        W 5554  27.077  30.987   4.219
34026W        W 5555   4.695   1.540  14.778
34027W        W 5556  42.691  19.527  11.978
34028W        W 5557  20.076  29.908   2.772
34029W        W 5558   3.331   4.979   2.981
34030W        W 5559  11.665  28.225   2.089
34031W        W 5560  24.853  38.269  11.007
34032W        W 5561  37.588  35.615  14.427
34033W        W 5562  31.021  12.600   0.022
34034W        W 5563  30.566  24.935   1.371
34035W        W 5564  17.559  37.156   4.919
34036W        W 5565  36.485  12.210   3.247
34037W        W 5566  23.766   9.446  13.523
34038W        W 5567  29.257  12.090  12.501
34039W        W 5568  28.369  28.036   1.223
34040W        W 5569  26.948  34.179   0.903
34041W        W 5570  27.643  26.608  14.334
34042W        W 5571  16.086  18.471   3.596
34043W        W 5572  16.635   2.700   2.372
34044W        W 5573  35.199  10.649   0.144
34045W        W 5574  19.743  10.334  10.276
34046W        W 5575  26.560  17.191  12.694
34047W        W 5576  26.896  42.670   5.269
34048W        W 5577  44.811  10.271  12.588
34049W        W 5578  11.829  24.446  11.604
34050W        W 5579  16.422  42.451  12.649
34051W        W 5580  23.012   1.657   5.207
34052W        W 5581  33.172  16.534   1.626
34053W        W 5582   7.342  27.460   3.393
34054W        W 5583  38.750  23.905   3.199
34055W        W 5584  33.462  32.534  13.855
34056W        W 5585  44.036  22.245   3.829
34057W        W 5586  16.513  11.629   3.138
34058W        W 5587  23.297  42.016   1.554
34059W        W 5588  10.803  18.432   1.445
34060W        W 5589   8.927  16.649   4.765
34061W        W 5590  35.634  31.685  11.547
34062W        W 5591   2.273  18.221  12.488
34063W        W 5592  44.390  27.702   3.356
34064W        W 5593  31.018  29.044   2.709
34065W        W 5594  18.263  32.082  11.480
34066W        W 5595  40.639   7.926   0.536
34067W        W 5596  41.898  39.793   4.405
34068W        W 5597  11.092  27.134  12.091
34069W        W 5598  22.502  13.065   2.213
34070W        W 5599  12.238  41.479   4.398
34071W        W 5600  26.492  22.061   3.129
34072W        W 5601  44.838   2.891   3.940
34073W        W 5602  44.755  32.551  10.763
34074W        W 5603  32.237  15.814  10.014
34075W        W 5604  44.021  22.482  11.038
34076W        W 5605  16.756  14.684   1.003
34077W        W 5606  22.057  41.832   1.568
34078W        W 5607  28.521  30.365   1.182
34079W        W 5608  22.153  39.459  12.030
34080W        W 5609   0.072  25.369  13.345
34081W        W 5610   4.304  32.545  11.569
34082W        W 5611   4.179  20.230  14.265
34083W        W 5612  38.395   6.847  10.614
34084W        W 5613  31.526  38.533  10.405
34085W        W 5614  31.695  22.192   2.420
34086W        W 5615   4.928  16.405   4.051
34087W        W 5616  35.344   2.355  12.054
34088W        W 5617  14.195  44.767   4.593
34089W        W 5618  18.921  30.850   5.015
34090W        W 5619   1.486  44.971  11.490
34091W        W 5620  13.719  38.140  11.170
34092W        W 5621  35.463  21.662   3.863
34093W        W 5622  37.920  15.537  12.196
34094W        W 5623  33.035  30.190  11.124
34095W        W 5624  19.111  15.028  14.010
34096W        W 5625  41.911   2.871   1.214
34097W        W 5626  44.393  15.708   1.668
34098W        W 5627  31.283  12.618   1.321
34099W        W 5628  40.304  37.063   1.451
34100W        W 5629  40.435  26.598  13.902
34101W        W 5630  31.215  33.533   3.673
34102W        W 5631  16.064  42.884  12.792
34103W        W 5632  15.300  18.837   2.690
34104W        W 5633  29.272  28.922  11.020
34105W        W 5634  38.483  28.161  10.797
34106W        W 5635  32.133   0.228   1.139
34107W        W 5636  30.619  14.598  13.349
34108W        W 5637   3.316  30.565   1.865
34109W        W 5638  16.308  22.819  12.435
34110W        W 5639  27.894   6.333  12.675
34111W        W 5640  20.559  35.827  10.857
34112W        W 5641  21.591  14.727  11.935
34113W        W 5642   3.270  44.717   3.313
34114W        W 5643   3.964  29.151  14.923
34115W        W 5644  35.582  36.335  13.570
34116W        W 5645  28.505  27.563   2.319
34117W        W 5646  43.430  21.730  11.357
34118W        W 5647  42.552   7.154   1.989
34119W        W 5648  38.340  38.436  12.295
34120W        W 5649   9.001  32.898   2.835
34121W        W 5650   7.673  18.514   0.632
34122W        W 5651  17.797  44.815   0.941
34123W        W 5652  31.365  17.987   2.183
34124W        W 5653  16.419   6.100   0.011
34125W        W 5654   5.168  30.535  14.103
34126W        W 5655  15.184  11.568  12.007
34127W        W 5656  19.020  35.576   4.777
34128W        W 5657   6.685  31.902  14.248
34129W        W 5658   2.675  16.332  11.842
34130W        W 5659   5.274  39.718   4.131
34131W        W 5660  41.689   2.718  11.995
34132W        W 5661  34.126  33.870  13.491
34133W        W 5662  11.727  15.388   2.703
34134W        W 5663  26.637  25.547   0.651
34135W        W 5664   5.116   4.264   0.744
34136W        W 5665   6.693  24.674  14.475
34137W        W 5666  39.556   1.209  11.664
34138W        W 5667  34.323  34.526  12.192
34139W        W 5668  30.522  41.638  13.108
34140W        W 5669  30.233  43.844  11.600
34141W        W 5670  16.214  22.286  10.293
34142W        W 5671  19.777  27.707  10.832
34143W        W 5672  14.647  30.617   3.431
34144W        W 5673  33.546  16.007  11.899
34145W        W 5674  37.899  30.912  10.707
34146W        W 5675  43.857  21.445  11.233
34147W        W 5676  12.646  20.996  11.055
34148W        W 5677   2.275   8.138   0.452
34149W        W 5678  24.764  43.337   3.906
34150W        W 5679  41.937  10.192  12.016
34151W        W 5680   4.367  37.936   1.255
34152W        W 5681  29.476   0.770   2.758
34153W        W 5682   5.981  27.565   3.239
34154W        W 5683  31.442  30.494   0.725
34155W        W 5684  27.035  13.730   0.982
34156W        W 5685   9.224  25.014   4.705
34157W        W 5686   6.308  10.897   2.200
34158W        W 5687   4.363  30.060   4.201
34159W        W 5688   5.142  30.052   1.418
34160W        W 5689  10.155   3.483  13.331
34161W        W 5690  27.686  21.522  12.851
34162W        W 5691  44.044  35.735  14.058
34163W        W 5692  20.149   4.106   0.261
34164W        W 5693  35.914  32.561   4.326
34165W        W 5694  13.110  21.760   0.455
34166W        W 5695  22.958   8.277  11.949
34167W        W 5696   8.911  11.828  12.519
34168W        W 5697  40.955  15.261  11.016
34169W        W 5698  22.544  29.181   0.822
34170W        W 5699  11.152  21.540   4.731
34171W        W 5700  26.979  37.026  11.959
34172W        W 5701  22.537  22.099  13.799
34173W        W 5702  36.800   1.739   3.650
34174W        W 5703  13.462  31.556   3.201
34175W        W 5704   3.480  32.199   0.433
34176W        W 5705   9.886   7.231   0.441
34177W        W 5706   1.822   4.192  14.277
34178W        W 5707   5.412  14.020   4.980
34179W        W 5708  42.987  36.365   0.177
34180W        W 5709  44.828  12.415   0.434
34181W        W 5710  24.736  43.581   2.313
34182W        W 5711  30.840   1.870  13.584
34183W        W 5712   5.531  43.613   0.182
34184W        W 5713  28.771   6.280  13.797
34185W        W 5714   2.808  27.911  14.047
34186W        W 5715  15.862  39.335  13.360
34187W        W 5716   3.947  19.790   0.616
34188W        W 5717   7.768  32.413   1.853
34189W        W 5718   1.547   9.152  11.424
34190W        W 5719  17.770  23.068  12.583
34191W        W 5720   9.169  30.641   2.737
34192W        W 5721  44.500  17.709   3.285
34193W        W 5722   3.863  38.429  14.330
34194W        W 5723  11.468  16.547   2.273
34195W        W 5724  40.736  16.864   3.165
34196W        W 5725  26.159   9.686   4.633
34197W        W 5726  22.980  17.337  11.815
34198W        W 5727  34.497  34.838   1.511
34199W        W 5728  36.311  13.673  10.935
34200W        W 5729  31.937  19.405  12.787
34201W        W 5730   8.901  39.431   1.333
34202W        W 5731   6.467  29.753   1.498
34203W        W 5732  36.615  26.054  10.441
34204W        W 5733   1.566  28.452   3.106
34205W        W 5734   4.909   1.075   1.884
34206W        W 5735  32.025  36.936   1.472
34207W        W 5736  31.540   2.395   4.897
34208W        W 5737  26.466  14.296   4.128
34209W        W 5738  26.779  12.406  11.644
34210W        W 5739  34.157  42.155   1.650
34211W        W 5740   3.782  43.093  10.315
34212W        W 5741   3.985  28.099  14.757
34213W        W 5742  36.811   4.312  12.954
34214W        W 5743  34.544  30.875   3.122
34215W        W 5744   8.613  36.031   3.782
34216W        W 5745  44.345   3.936  14.261
34217W        W 5746   0.781  12.829   4.455
34218W        W 5747  40.433  26.255  11.682
34219W        W 5748  16.665  30.530   1.887
34220W        W 5749  18.641  39.829  11.110
34221W        W 5750  34.993  12.123   4.729
34222W        W 5751   9.842   7.295  12.228
34223W        W 5752   5.285  21.608   0.411
34224W        W 5753  10.199  14.786  13.371
34225W        W 5754  35.906  14.962   2.411
34226W        W 5755  23.576  24.283   4.643
34227W        W 5756  27.552  44.235  13.564
34228W        W 5757  31.491   1.404   4.816
34229W        W 5758   8.615  24.122   2.756
34230W        W 5759  13.812  41.754  13.914
34231W        W 5760   9.273  37.059   1.433
34232W        W 5761  19.668  14.187  14.799
34233W        W 5762   0.962   8.607   9.926
34234W        W 5763  38.866  31.560  12.899
34235W        W 5764  20.540  43.386   4.122
34236W        W 5765   9.036  15.337  12.159
34237W        W 5766  15.751  30.603  14.271
34238W        W 5767  27.186  38.794   1.337
34239W        W 5768  18.912  13.493   1.872
34240W        W 5769  40.380  18.257  14.560
34241W        W 5770  34.045  13.625  11.296
34242W        W 5771  33.533   0.484   0.446
34243W        W 5772   6.164  29.995   5.040
34244W        W 5773  42.871   9.194   4.404
34245W        W 5774  42.454  32.700   2.247
34246W        W 5775   9.180   8.670  13.293
34247W        W 5776  39.002   1.307   2.310
34248W        W 5777  19.721  32.976  14.328
34249W        W 5778  39.857   4.227  12.193
34250W        W 5779   9.397  13.217  11.530
34251W        W 5780  31.501  41.621  12.939
34252W        W 5781  21.173  17.340  14.455
34253W        W 5782   7.820  29.712   1.281
34254W        W 5783  35.818  23.203  14.994
34255W        W 5784  41.899   7.020  11.165
34256W        W 5785   9.121  17.282   4.278
34257W        W 5786  14.604  29.018   0.431
34258W        W 5787   3.233  33.515  12.926
34259W        W 5788  12.687   4.121  11.703
34260W        W 5789   1.430  29.809   4.275
34261W        W 5790  11.113   2.741   1.406
34262W        W 5791  22.408  33.941  13.999
34263W        W 5792  24.776   6.435  13.239
34264W        W 5793  44.308  20.160   0.013
34265W        W 5794  22.514  34.342  14.296
34266W        W 5795  12.389  23.469   1.988
34267W        W 5796  18.778   7.467   3.065
34268W        W 5797  30.370  26.036   3.391
34269W        W 5798  32.468  19.970  12.551
34270W        W 5799   2.793  26.540   2.226
34271W        W 5800   2.251   5.784   2.731
34272W        W 5801  27.152  17.246  11.549
34273W        W 5802  31.505  11.323  13.438
34274W        W 5803  20.226   5.176  14.068
34275W        W 5804  19.769  14.611  14.396
34276W        W 5805  25.196  33.556  12.762
34277W        W 5806  29.683   0.777  10.411
34278W        W 5807  13.229  44.751   2.728
34279W        W 5808  18.161  36.353   3.901
34280W        W 5809   8.427  14.985   0.569
34281W        W 5810  33.544  36.490  12.868
34282W        W 5811  39.284  18.206   2.114
34283W        W 5812  17.216  29.178  13.542
34284W        W 5813   6.663  33.546   1.721
34285W        W 5814   3.460  15.531  13.513
34286W        W 5815  42.371  22.168   2.900
34287W        W 5816  22.481  17.629  12.875
34288W        W 5817   0.943  32.785   4.536
34289W        W 5818  15.452  34.081  13.832
34290W        W 5819   7.085  13.754  10.581
34291W        W 5820  11.124  11.373   4.235
34292W        W 5821  41.930   2.659  12.834
34293W        W 5822   4.361  32.838   2.159
34294W        W 5823  19.714  43.622  14.037
34295W        W 5824  31.672  17.318   4.789
34296W        W 5825  18.742  43.871  13.627
34297W        W 5826  37.500  23.581   0.495
34298W        W 5827  12.664  44.055   0.295
34299W        W 5828  40.148   8.119   0.343
34300W        W 5829   3.405  44.943  13.937
34301W        W 5830  23.708  42.907   2.319
34302W        W 5831  18.666  17.733  14.301
34303W        W 5832   6.316  42.414  13.518
34304W        W 5833  11.661  26.942   1.735
34305W        W 5834  27.231   6.089  13.484
34306W        W 5835  21.039  13.407   1.017
34307W        W 5836  44.971  29.002  10.604
34308W        W 5837  42.335  12.975  13.913
34309W        W 5838  15.780  33.386  12.641
34310W        W 5839  12.773   8.860   3.705
34311W        W 5840  16.858  28.983   2.513
34312W        W 5841   8.790  34.269   3.070
34313W        W 5842  35.682  20.051  11.478
34314W        W 5843  28.113   9.651   4.152
34315W        W 5844  23.981  27.446  14.020
34316W        W 5845  17.599  14.749   3.971
34317W        W 5846  21.775  23.028  12.454
34318W        W 5847  32.114  42.463   1.937
34319W        W 5848  22.575   1.417   2.663
34320W        W 5849   9.688  33.115   3.490
34321W        W 5850   5.643  41.856  13.970
34322W        W 5851  13.888  26.456  11.065
34323W        W 5852   9.032  19.019   2.905
34324W        W 5853  24.108  33.560  11.904
34325W        W 5854  30.637  42.501   4.091
34326W        W 5855   1.941  11.953   2.315
34327W        W 5856  36.294  23.297  11.938
34328W        W 5857  24.160  36.666   3.287
34329W        W 5858  38.331  31.902   3.078
34330W        W 5859  26.198   6.200   4.439
34331W        W 5860  24.094  23.455  13.188
34332W        W 5861  23.048   8.775   2.773
34333W        W 5862  15.209   8.286   2.318
34334W        W 5863  28.191  10.861  12.016
34335W        W 5864   7.749  21.536  14.819
34336W        W 5865  24.546  35.891   4.177
34337W        W 5866  40.437  37.485  10.622
34338W        W 5867  15.494  34.985  13.995
34339W        W 5868  36.391  27.594  11.449
34340W        W 5869  10.634  24.971   1.233
34341W        W 5870   2.783  24.429  14.313
34342W        W 5871  39.501   1.559  13.742
34343W        W 5872  16.844  33.033   4.348
34344W        W 5873  39.439  12.111  13.017
34345W        W 5874  13.162   2.773   0.218
34346W        W 5875  11.817  40.830  14.838
34347W        W 5876   2.694  34.706  10.738
34348W        W 5877  10.529   1.768   3.366
34349W        W 5878  41.253  28.121  12.047
34350W        W 5879  32.337  10.607   0.884
34351W        W 5880  37.413  42.856   2.123
34352W        W 5881   3.704  16.157  11.988
34353W        W 5882   9.141  15.909   9.792
34354W        W 5883   7.418  21.600  13.040
34355W        W 5884   5.441  39.988  12.446
34356W        W 5885  12.015  29.004  12.971
34357W        W 5886  40.010  23.003  11.675
34358W        W 5887  25.151  42.586   0.709
34359W        W 5888  36.650   8.128  13.886
34360W        W 5889  41.699   4.173   0.956
34361W        W 5890  30.220   8.330  14.947
34362W        W 5891  22.287  10.980  14.392
34363W        W 5892   1.232  44.084  12.834
34364W        W 5893  18.583  37.005   3.884
34365W        W 5894  13.487  38.377   3.178
34366W        W 5895  24.644   8.078   0.806
34367W        W 5896  33.029   9.223   3.971
34368W        W 5897  18.720  41.115   4.171
34369W        W 5898  19.471  32.105   2.206
34370W        W 5899   9.081  42.903  11.578
34371W        W 5900  35.339  17.196  13.017
34372W        W 5901   3.920   6.251  13.280
34373W        W 5902   6.896  19.141   4.066
34374W        W 5903   6.715  10.614  11.920
34375W        W 5904   1.395  20.848   1.148
34376W        W 5905  16.770  26.513  12.771
34377W        W 5906  29.461  16.808   2.472
34378W        W 5907  28.158  11.808   0.314
34379W        W 5908  11.113  32.763  14.495
34380W        W 5909   4.938  20.503   1.806
34381W        W 5910  33.567  42.446  12.327
34382W        W 5911  36.811  24.437   4.111
34383W        W 5912  24.239   3.735  12.010
34384W        W 5913  31.498  41.398   0.494
34385W        W 5914  42.816  14.116   0.055
34386W        W 5915  11.231   4.615   0.459
34387W        W 5916  23.464  37.942   3.860
34388W        W 5917  31.499  19.817   0.284
34389W        W 5918  42.266  40.315   3.323
34390W        W 5919   7.737   9.183   2.888
34391W        W 5920  15.794  18.246   0.711
34392W        W 5921  42.931  26.676  13.317
34393W        W 5922  14.032  38.013   4.523
34394W        W 5923   8.268  28.452   2.346
34395W        W 5924   7.182  32.042  14.341
34396W        W 5925  40.523  41.525   1.243
34397W        W 5926  15.097  38.482   2.364
34398W        W 5927   6.827   1.710  14.026
34399W        W 5928  16.299  32.689  12.219
34400W        W 5929  36.381  14.762  14.297
34401W        W 5930  37.931  12.693   3.602
34402W        W 5931   3.760  41.822  12.525
34403W        W 5932  35.120  39.865   1.430
34404W        W 5933  26.241  19.758  13.434
34405W        W 5934   8.088  18.416  11.001
34406W        W 5935  17.242  34.003   4.121
34407W        W 5936   9.784  25.039   2.732
34408W        W 5937  32.473   8.867   0.429
34409W        W 5938  17.703  39.936   0.778
34410W        W 5939  43.452  22.823   3.237
34411W        W 5940  18.128  19.714  11.589
34412W        W 5941  43.337  36.780  10.730
34413W        W 5942  21.602  12.381   1.860
34414W        W 5943   0.687  33.277  14.396
34415W        W 5944  30.589  35.109   0.755
34416W        W 5945   3.600   5.385   3.133
34417W        W 5946   0.540  29.436  11.918
34418W        W 5947  30.623   1.838   4.871
34419W        W 5948  10.378  34.057   4.779
34420W        W 5949  14.823   8.693   3.636
34421W        W 5950  28.665  39.588   4.115
34422W        W 5951  14.334  42.486  11.522
34423W        W 5952  13.126  32.032   4.562
34424W        W 5953  19.736   3.732   0.918
34425W        W 5954  11.893  17.688   4.133
34426W        W 5955  12.392   7.329   0.813
34427W        W 5956  17.089   6.265   0.471
34428W        W 5957   0.225   3.243   0.749
34429W        W 5958  17.273  29.001   0.858
34430W        W 5959  11.112   8.327  13.905
34431W        W 5960   0.384  21.469  10.613
34432W        W 5961  42.466  32.044   0.306
34433W        W 5962  17.958  23.379   3.233
34434W        W 5963  13.440   2.850   3.016
34435W        W 5964  20.212  33.990  14.334
34436W        W 5965  24.718  11.634   0.771
34437W        W 5966  15.760   5.714   3.208
34438W        W 5967  11.684  28.633  12.488
34439W        W 5968   1.387  12.849  13.953
34440W        W 5969   3.358  36.356   1.003
34441W        W 5970  41.357  11.861  11.685
34442W        W 5971  27.914  40.378   0.811
34443W        W 5972   0.244  38.113   0.949
34444W        W 5973  42.050  44.730  12.104
34445W        W 5974  44.256  33.049   1.576
34446W        W 5975  23.226  25.529   2.187
34447W        W 5976   6.851  10.846   4.601
34448W        W 5977  21.036  34.367  12.990
34449W        W 5978  16.446  19.746  10.170
34450W        W 5979   5.424  17.787   2.307
34451W        W 5980  26.044  30.169   3.512
34452W        W 5981   6.025  16.730  13.360
34453W        W 5982  38.441   9.362   0.409
34454W        W 5983  35.036  22.560  14.426
34455W        W 5984  12.741  15.364   1.229
34456W        W 5985  29.654  12.612   1.391
34457W        W 5986  26.373  40.270   0.918
34458W        W 5987  11.617  36.383   1.254
34459W        W 5988  26.299  10.905   4.360
34460W        W 5989   4.956   5.345  14.076
34461W        W 5990   7.931   5.305  12.495
34462W        W 5991  15.720  28.938  13.479
34463W        W 5992  25.525  42.913   4.093
34464W        W 5993  26.411  28.556  13.389
34465W        W 5994  41.904  36.879   4.605
34466W        W 5995   4.503  23.049   3.765
34467W        W 5996  38.023  37.534   0.833
34468W        W 5997   1.496  22.134   1.359
34469W        W 5998  22.845  34.523  13.921
34470W        W 5999  33.157  15.661  11.007
34471W        W 6000  12.492  38.038  12.255
34472W        W 6001   4.359  19.074  11.476
34473W        W 6002  16.836   6.160  10.785
34474W        W 6003  13.164  32.092   4.056
34475W        W 6004  18.363  30.280  14.401
34476W        W 6005  40.409  11.695  14.472
34477W        W 6006  15.585   0.393   3.203
34478W        W 6007   3.916   9.919   0.951
34479W        W 6008  29.644  15.035   3.480
34480W        W 6009  16.251  41.078   0.255
34481W        W 6010  10.359  40.705  12.400
34482W        W 6011  18.561  44.890  14.967
34483W        W 6012  12.548  15.594  13.299
34484W        W 6013   6.203  10.066   4.537
34485W        W 6014  28.210  26.698   0.980
34486W        W 6015   4.314  40.236   3.367
34487W        W 6016  25.952  29.373  12.353
34488W        W 6017  21.480  41.539   2.637
34489W        W 6018  24.752  23.019   1.369
34490W        W 6019  28.689  44.910  11.118
34491W        W 6020  42.802  41.948   3.751
34492W        W 6021  35.919  21.271  11.625
34493W        W 6022   2.927  25.196   4.185
34494W        W 6023  29.557  39.267  10.402
34495W        W 6024  22.011  40.961  13.821
34496W        W 6025  32.840  19.649  12.425
34497W        W 6026  37.467   5.319  12.809
34498W        W 6027  18.744  28.535  12.285
34499W        W 6028   5.252  26.958   4.118
34500W        W 6029   1.465  27.772  11.737
34501W        W 6030  43.708   5.071  12.910
34502W        W 6031  29.490  16.396   2.162
34503W        W 6032  40.285   4.281   1.482
34504W        W 6033   6.189  25.117  13.045
34505W        W 6034  11.653  24.964  14.633
34506W        W 6035  20.632  32.511  11.598
34507W        W 6036  15.239  20.604  14.547
34508W        W 6037  36.019  22.694   3.206
34509W        W 6038  26.354  14.104  12.985
34510W        W 6039   3.552  36.794   0.792
34511W        W 6040  40.349  20.133  12.117
34512W        W 6041   3.678  12.651   3.289
34513W        W 6042   5.929  28.967  12.376
34514W        W 6043  11.136   6.200  11.798
34515W        W 6044   2.452   5.834  10.635
34516W        W 6045   4.978  43.569  12.403
34517W        W 6046  24.309  28.112  11.734
34518W        W 6047  44.261  44.994  11.233
34519W        W 6048  39.221  13.801  12.365
34520W        W 6049   4.347  33.772  12.720
34521W        W 6050  15.247  16.319  14.818
34522W        W 6051  33.650  28.422  11.264
34523W        W 6052  12.381   6.052   2.706
34524W        W 6053   8.925  19.205  11.151
34525W        W 6054  22.806   4.492  14.043
34526W        W 6055  27.169   7.202   1.731
34527W        W 6056  19.828  32.883   3.793
34528W        W 6057  27.984  38.882   0.303
34529W        W 6058  39.063   7.774   1.361
34530W        W 6059  44.203  23.770  13.985
34531W        W 6060   3.330   7.755  13.997
34532W        W 6061  34.142   7.235   2.306
34533W        W 6062   3.896  27.058  12.872
34534W        W 6063  20.685  21.094  13.054
34535W        W 6064  41.275  14.127  13.384
34536W        W 6065  41.342   3.514  11.673
34537W        W 6066   7.300  19.042   2.737
34538W        W 6067  33.083  30.881   2.920
34539W        W 6068  29.076  32.119  10.996
34540W        W 6069  19.524   8.473   0.913
34541W        W 6070  13.775   3.856   1.196
34542W        W 6071   8.665  16.590   3.349
34543W        W 6072  23.182   1.462   0.003
34544W        W 6073  20.571  21.631   4.156
34545W        W 6074  42.056  42.918  13.039
34546W        W 6075  26.575  43.850   0.830
34547W        W 6076  28.590  10.097  11.746
34548W        W 6077  15.592   3.988   1.437
34549W        W 6078   3.296  10.853   2.406
34550W        W 6079   2.333  31.394  12.625
34551W        W 6080  14.228  40.246   4.177
34552W        W 6081  25.987   7.966  14.427
34553W        W 6082  11.176  23.023   2.789
34554W        W 6083  38.075   1.524   2.033
34555W        W 6084  21.562  30.265  14.612
34556W        W 6085  22.264   1.239   3.267
34557W        W 6086   2.523   1.854   0.236
34558W        W 6087   9.419  44.249  12.426
34559W        W 6088  16.245   8.746   0.902
34560W        W 6089  10.299   2.209  13.058
34561W        W 6090   3.153  34.067   2.793
34562W        W 6091  30.206  23.518  14.542
34563W        W 6092   3.902  19.238   1.247
34564W        W 6093  16.557   9.937   0.365
34565W        W 6094  41.728  32.900   3.282
34566W        W 6095   2.993  15.174   2.252
34567W        W 6096  18.512   4.705   4.556
34568W        W 6097  42.115  16.223  10.462
34569W        W 6098  35.046  11.073  11.044
34570W        W 6099  29.684  38.835   3.806
34571W        W 6100   5.770  30.113  11.099
34572W        W 6101   0.287  44.053   1.511
34573W        W 6102  40.584  10.971   2.851
34574W        W 6103   4.819  16.034   2.562
34575W        W 6104  32.698  32.823   2.032
34576W        W 6105  23.060  21.694   1.443
34577W        W 6106  17.172  41.861   3.246
34578W        W 6107  33.327  42.951   4.582
34579W        W 6108  25.762  20.907  11.179
34580W        W 6109  11.811  27.697   1.240
34581W        W 6110   2.294   6.189   1.168
34582W        W 6111   0.044  10.645  11.944
34583W        W 6112   9.201  12.510   1.769
34584W        W 6113   3.398   4.224  14.332
34585W        W 6114  18.930   3.315  13.945
34586W        W 6115   8.592   5.717   1.480
34587W        W 6116   4.932  17.740  12.026
34588W        W 6117  32.856  30.586  13.460
34589W        W 6118   3.199  26.543  10.213
34590W        W 6119   6.049  11.204   4.118
34591W        W 6120  26.959  19.801  10.744
34592W        W 6121  41.209  34.153  14.428
34593W        W 6122  37.977  25.469  11.034
34594W        W 6123  17.234  24.007  10.612
34595W        W 6124  20.152  17.576   4.324
34596W        W 6125   9.790  36.983  11.962
34597W        W 6126  35.339  23.631  12.485
34598W        W 6127   4.648  13.827  13.459
34599W        W 6128  18.599  17.005   3.147
34600W        W 6129  29.430  44.873  11.676
34601W        W 6130  15.849   4.306   2.251
34602W        W 6131  42.993  12.461   1.237
34603W        W 6132  22.795   9.214  12.383
34604W        W 6133  40.466  12.157  11.546
34605W        W 6134  19.718  28.579  13.458
34606W        W 6135  28.220  10.402   9.923
34607W        W 6136   4.285  13.358   4.961
34608W        W 6137   9.843  25.443   4.340
34609W        W 6138  34.071   4.838   3.320
34610W        W 6139   9.121  43.688   4.038
34611W        W 6140  24.977  33.306   4.082
34612W        W 6141   8.151  17.612   4.577
34613W        W 6142   2.770  23.205  13.606
34614W        W 6143   2.537  16.874   1.949
34615W        W 6144  31.654  35.092   4.028
34616W        W 6145   7.478  33.738  11.701
34617W        W 6146  34.680  40.222   4.748
34618W        W 6147  15.020  15.670  11.939
34619W        W 6148   1.046   3.726   0.267
34620W        W 6149  15.715  34.336  11.043
34621W        W 6150  35.905  41.531  12.992
34622W        W 6151   7.139  27.974   0.913
34623W        W 6152   4.274  14.902   2.399
34624W        W 6153  21.640  18.548   3.586
34625W        W 6154  43.223  22.713  11.545
34626W        W 6155  21.635  22.163  14.858
34627W        W 6156   9.703   8.927   0.026
34628W        W 6157   6.888  39.611  11.601
34629W        W 6158   7.407  13.967  13.936
34630W        W 6159  42.043  39.322  11.439
34631W        W 6160   3.750  41.492  12.937
34632W        W 6161  26.117  21.057  11.571
34633W        W 6162  16.567  25.549  13.789
34634W        W 6163  38.510   6.702   1.831
34635W        W 6164   0.713  14.613  11.625
34636W        W 6165  25.216  37.049   1.149
34637W        W 6166  37.647   6.590  11.646
34638W        W 6167  34.319  38.333   3.347
34639W        W 6168   6.916  29.454  13.815
34640W        W 6169  40.420  26.966  12.958
34641W        W 6170  23.155  30.987   2.585
34642W        W 6171  41.036   9.878  12.036
34643W        W 6172  37.195  11.893  11.650
34644W        W 6173  28.058  30.638   4.507
34645W        W 6174  34.529  36.013  10.662
34646W        W 6175   8.812  32.776  13.015
34647W        W 6176  13.136  36.804   1.894
34648W        W 6177  29.446  17.331  14.813
34649W        W 6178  28.197  40.466   1.798
34650W        W 6179  28.902  38.471   4.163
34651W        W 6180  13.350   7.356   3.170
34652W        W 6181   7.277  37.782   0.484
34653W        W 6182  34.260   5.452  13.896
34654W        W 6183  20.235   4.364  11.031
34655W        W 6184  37.453   0.393   3.243
34656W        W 6185  23.272   8.463   0.976
34657W        W 6186  11.201  14.829   2.337
34658W        W 6187  31.755  29.684  11.116
34659W        W 6188  16.663  18.017   4.123
34660W        W 6189  25.010  30.605   1.145
34661W        W 6190   7.891  28.227  11.588
34662W        W 6191  42.808   7.243  13.301
34663W        W 6192  23.760  44.345   4.376
34664W        W 6193   6.127  16.755   5.374
34665W        W 6194  41.788  16.261  14.253
34666W        W 6195  12.085  19.738  14.380
34667W        W 6196  17.310  27.549  10.652
34668W        W 6197  44.517  25.583  12.179
34669W        W 6198   4.315  33.907  14.550
34670W        W 6199  27.995  11.548   4.604
34671W        W 6200  26.032  12.864  11.090
34672W        W 6201  39.561   7.267  14.864
34673W        W 6202   2.405   6.686   0.852
34674W        W 6203  24.341  31.344   0.922
34675W        W 6204  17.405  20.158  11.629
34676W        W 6205  43.535  44.069   0.723
34677W        W 6206  37.001  12.545   4.618
34678W        W 6207  27.947  26.523  10.159
34679W        W 6208   0.328  22.442   2.291
34680W        W 6209  25.907   6.156  11.646
34681W        W 6210   9.210  24.227  14.408
34682W        W 6211  43.433  34.604  13.905
34683W        W 6212  15.025  31.873   1.842
34684W        W 6213  31.741  23.031  11.278
34685W        W 6214   2.204  14.835   3.659
34686W        W 6215  29.551  27.557  14.993
34687W        W 6216  22.137  12.564  12.883
34688W        W 6217  18.714   4.895  11.185
34689W        W 6218  42.309   6.805  12.375
34690W        W 6219  43.075  23.765   4.183
34691W        W 6220  35.979   8.313   2.151
34692W        W 6221  29.698  41.549   1.323
34693W        W 6222  15.804  10.235  14.406
34694W        W 6223   7.166  24.564   1.808
34695W        W 6224   1.671  27.088   2.829
34696W        W 6225  10.841   2.293  11.959
34697W        W 6226  19.239   4.329  11.281
34698W        W 6227  41.246  40.439   1.897
34699W        W 6228  30.048  38.280  14.318
34700W        W 6229  30.231  29.096   3.369
34701W        W 6230  35.712  37.992   1.906
34702W        W 6231  20.918  28.275  12.976
34703W        W 6232  35.568  29.018   1.375
34704W        W 6233  43.296   1.598   3.489
34705W        W 6234  43.577  35.118   1.757
34706W        W 6235  13.141  30.867   2.348
34707W        W 6236  34.647  12.178   1.857
34708W        W 6237  34.439  40.018   4.188
34709W        W 6238  19.446   7.872   4.222
34710W        W 6239   5.431  33.467   1.222
34711W        W 6240  32.534  37.781   4.252
34712W        W 6241  42.298   5.137  13.317
34713W        W 6242  24.791  38.126   1.970
34714W        W 6243   8.903   8.688  14.907
34715W        W 6244   6.830  38.073  11.411
34716W        W 6245   2.945  32.059   3.222
34717W        W 6246   1.145  26.655   0.820
34718W        W 6247  41.423  13.780   1.057
34719W        W 6248  35.657  27.494   1.020
34720W        W 6249  38.765  12.547  13.991
34721W        W 6250  36.287   1.129   3.357
34722W        W 6251   6.742  20.427   3.557
34723W        W 6252  27.080   5.932   2.321
34724W        W 6253  27.627   2.191   1.451
34725W        W 6254  38.034   2.046  13.960
34726W        W 6255   3.421  18.341  13.534
34727W        W 6256  25.888  19.001   1.698
34728W        W 6257   2.395  37.407   1.655
34729W        W 6258  16.726   7.831  12.028
34730W        W 6259  33.563  16.042   4.405
34731W        W 6260  34.964   2.404  10.736
34732W        W 6261  16.601  40.589  13.409
34733W        W 6262  35.342   0.010  10.687
34734W        W 6263  29.624   5.968   0.543
34735W        W 6264  42.850  20.055  10.481
34736W        W 6265  23.283  32.146  13.678
34737W        W 6266  33.520  11.101  14.326
34738W        W 6267  39.621  30.970   4.097
34739W        W 6268  40.900   0.162  14.277
34740W        W 6269  22.200  41.047  14.328
34741W        W 6270   9.374  33.789   0.892
34742W        W 6271   9.254  43.926  13.520
34743W        W 6272  36.263  42.921  13.853
34744W        W 6273  38.498  34.965   2.051
34745W        W 6274   4.261  23.914   2.766
34746W        W 6275   7.731  23.738  14.085
34747W        W 6276  26.051   7.424   1.821
34748W        W 6277  16.769  36.289  14.771
34749W        W 6278  20.790   2.001  11.647
34750W        W 6279  33.884   4.278  11.570
34751W        W 6280  39.444  40.870  11.517
34752W        W 6281  43.453  38.473  14.287
34753W        W 6282  28.726  26.623  13.600
34754W        W 6283  38.920  35.378  14.762
34755W        W 6284   4.179  30.549   4.136
34756W        W 6285  15.292  39.869   3.389
34757W        W 6286  38.385  41.738   1.948
34758W        W 6287  21.014  37.210   3.652
34759W        W 6288   4.698  31.020  11.560
34760W        W 6289  25.563  41.435  12.363
34761W        W 6290  31.620   4.579  12.511
34762W        W 6291  28.695  23.472  12.680
34763W        W 6292   0.551  37.065   3.811
34764W        W 6293  23.286  13.597  11.113
34765W        W 6294   4.276   4.834  14.700
34766W        W 6295  12.533  17.062  14.857
34767W        W 6296  10.192  20.633  10.189
34768W        W 6297  19.290  14.043  13.809
34769W        W 6298  16.216  28.495   1.266
34770W        W 6299   0.555  35.912   0.988
34771W        W 6300   2.771  36.119  11.722
34772W        W 6301  13.274  20.603  10.409
34773W        W 6302  11.813  12.283  12.066
34774W        W 6303  44.264   8.418   3.274
34775W        W 6304  36.141  18.670   3.519
34776W        W 6305  18.339  22.559   3.688
34777W        W 6306  32.810  34.046   0.741
34778W        W 6307   7.496  34.481  12.866
34779W        W 6308  10.806  26.113  11.338
34780W        W 6309  43.927  17.374   0.852
34781W        W 6310  41.929  26.588   3.214
34782W        W 6311  34.043   8.955  12.884
34783W        W 6312  15.529  42.489   2.720
34784W        W 6313  16.213  28.870   0.855
34785W        W 6314  10.886   7.649   4.253
34786W        W 6315  22.688  18.143   4.593
34787W        W 6316  36.919  13.855  12.752
34788W        W 6317  26.774  42.446   4.801
34789W        W 6318  19.660  35.017  13.920
34790W        W 6319   8.249  41.489   4.209
34791W        W 6320  11.684  20.498  10.127
34792W        W 6321  39.488  42.591  13.621
34793W        W 6322   8.390  34.392  11.118
34794W        W 6323  24.290  23.529  14.568
34795W        W 6324  33.062  44.027   0.739
34796W        W 6325   0.774   8.430  12.575
34797W        W 6326  26.915  34.509  11.849
34798W        W 6327  43.038  44.977   4.484
34799W        W 6328   3.884  13.537  14.843
34800W        W 6329  34.989  36.584  14.391
34801W        W 6330  44.684   1.851  13.494
34802W        W 6331  35.746   2.898  12.993
34803W        W 6332  29.785  12.534  14.312
34804W        W 6333  42.852  29.495  11.623
34805W        W 6334  13.694  44.949   2.568
34806W        W 6335   6.915  37.309  14.871
34807W        W 6336   6.404  19.755  11.959
34808W        W 6337  29.920   6.878   1.431
34809W        W 6338  12.405  19.680  11.093
34810W        W 6339  32.673  35.344   1.359
34811W        W 6340  24.157  37.824   0.286
34812W        W 6341   8.061  39.424   0.953
34813W        W 6342  35.989  38.436   2.651
34814W        W 6343  24.126  33.426  13.748
34815W        W 6344  44.839   6.952  11.467
34816W        W 6345  24.742   9.160   4.624
34817W        W 6346  34.353  42.687   3.158
34818W        W 6347  25.274  39.351  12.780
34819W        W 6348  10.069  30.546  11.989
34820W        W 6349   7.813  20.082  13.107
34821W        W 6350  39.038  14.240   2.022
34822W        W 6351  18.271   2.297  11.805
34823W        W 6352  15.120  31.824  14.326
34824W        W 6353   9.450  43.755  11.230
34825W        W 6354   9.119  22.761   0.848
34826W        W 6355   6.360  22.534  10.124
34827W        W 6356  21.763  37.875  11.106
34828W        W 6357  25.702  22.725   4.078
34829W        W 6358   9.446  21.274   2.169
34830W        W 6359  33.161   1.869   4.393
34831W        W 6360  21.206   8.856   1.464
34832W        W 6361  30.404  21.072  11.147
34833W        W 6362  24.270  44.295   2.389
34834W        W 6363  21.131  35.891  11.925
34835W        W 6364  34.516  34.936  10.904
34836W        W 6365  42.008  26.942  10.548
34837W        W 6366  20.311  14.195   3.781
34838W        W 6367  23.530   3.376  12.485
34839W        W 6368   0.769   0.533   0.364
34840W        W 6369  34.910  33.366   2.283
34841W        W 6370  38.045  12.862  12.879
34842W        W 6371  19.472  37.850  11.088
34843W        W 6372  15.669  43.726  14.412
34844W        W 6373   7.770  26.143  10.532
34845W        W 6374  15.715  12.613   0.571
34846W        W 6375  37.243  28.963  14.890
34847W        W 6376  19.135  30.138  14.863
34848W        W 6377  17.224  22.317  13.977
34849W        W 6378  42.882  44.408  14.037
34850W        W 6379   9.027  11.879   1.178
34851W        W 6380  11.188  22.407  13.169
34852W        W 6381   2.718   2.910   0.505
34853W        W 6382  10.160  31.825   1.866
34854W        W 6383  29.443  24.982  13.474
34855W        W 6384   6.208  12.134   4.545
34856W        W 6385  29.573  29.589   4.349
34857W        W 6386  10.133  15.827   0.044
34858W        W 6387  33.944  16.145   1.947
34859W        W 6388   8.460  32.863   2.332
34860W        W 6389   2.816  36.610  10.894
34861W        W 6390  27.380   6.973   2.546
34862W        W 6391   2.201   6.259  10.762
34863W        W 6392  43.579  40.548  11.187
34864W        W 6393   8.444   1.595   0.846
34865W        W 6394  35.037  28.629   3.271
34866W        W 6395  38.525   5.180  11.786
34867W        W 6396  10.078  10.896  10.824
34868W        W 6397  43.578  12.881  12.554
34869W        W 6398  31.962  30.155   2.320
34870W        W 6399  36.881  22.528  13.491
34871W        W 6400   4.001  26.045   2.215
34872W        W 6401  18.827  19.990   3.416
34873W        W 6402  35.068  34.911  13.383
34874W        W 6403  31.679  28.882  14.362
34875W        W 6404  41.979  23.217  12.924
34876W        W 6405   3.682  35.108  11.571
34877W        W 6406  18.226   1.818  10.556
34878W        W 6407  16.932  23.614  10.673
34879W        W 6408  26.576   0.361   1.846
34880W        W 6409   2.575  38.666  12.463
34881W        W 6410  20.525  38.399  11.461
34882W        W 6411  33.465  24.706  12.739
34883W        W 6412  13.100   6.846  11.925
34884W        W 6413  32.175  31.652   0.764
34885W        W 6414  23.122  43.319   0.840
34886W        W 6415  40.780  41.313   1.701
34887W        W 6416  21.721  15.370   1.970
34888W        W 6417  25.061  21.404   1.038
34889W        W 6418  14.709  42.065   3.717
34890W        W 6419  36.799   0.264  12.470
34891W        W 6420   2.600   7.342  11.203
34892W        W 6421  41.786  25.696   0.182
34893W        W 6422  14.042  44.806   1.799
34894W        W 6423  29.460  35.845  14.298
34895W        W 6424  22.149  41.606   3.846
34896W        W 6425  26.116   7.359  10.595
34897W        W 6426  37.476   5.511  13.924
34898W        W 6427  16.489  42.913   5.039
34899W        W 6428  38.526   4.330  10.757
34900W        W 6429  19.341  20.102   3.358
34901W        W 6430   7.932  15.626   2.780
34902W        W 6431  18.982  26.126   3.325
34903W        W 6432  21.902  41.951  11.264
34904W        W 6433   8.284  27.594  11.389
34905W        W 6434  28.866  13.730   1.239
34906W        W 6435  39.488  37.082   1.862
34907W        W 6436  22.087  32.437   4.860
34908W        W 6437  27.212   4.892   2.181
34909W        W 6438  40.065  14.164  14.413
34910W        W 6439  33.469  27.107   1.446
34911W        W 6440   1.393  11.946   5.023
34912W        W 6441   8.126  31.047   2.343
34913W        W 6442  44.346  43.448   4.222
34914W        W 6443  40.757  22.538  13.808
34915W        W 6444  19.353  36.893  13.890
34916W        W 6445  41.948  29.911  11.940
34917W        W 6446  36.584  23.105  10.581
34918W        W 6447  35.087  15.305   5.096
34919W        W 6448   4.141  35.420   4.338
34920W        W 6449   2.962   3.742   2.305
34921W        W 6450  39.132  21.491   3.238
34922W        W 6451   3.040  26.716  13.335
34923W        W 6452   4.735  12.117  11.151
34924W        W 6453  40.294  12.688  14.961
34925W        W 6454  41.978  24.157  12.474
34926W        W 6455  42.831  22.336   2.708
34927W        W 6456  40.018  43.902  11.468
34928W        W 6457  34.929  41.215  13.327
34929W        W 6458  14.874  10.739  10.715
34930W        W 6459  35.904   4.475  14.957
34931W        W 6460  44.859   9.120   3.256
34932W        W 6461  32.136   6.733   4.265
34933W        W 6462  31.438  32.952  13.873
34934W        W 6463   7.865  16.716  10.783
34935W        W 6464  32.687  29.681  11.937
34936W        W 6465   7.240   8.200  11.196
34937W        W 6466  36.055  15.159   4.607
34938W        W 6467  14.242  27.608   1.804
34939W        W 6468  17.277   0.000  14.246
34940W        W 6469  17.745   1.056  10.660
34941W        W 6470  26.110   9.551  11.611
34942W        W 6471  37.942   0.986   4.614
34943W        W 6472  36.528  21.578   4.159
34944W        W 6473   2.049   4.784  10.149
34945W        W 6474  36.660  41.921   4.283
34946W        W 6475  19.838  21.548  13.426
34947W        W 6476  38.478  25.127  11.857
34948W        W 6477  38.847  26.779   1.786
34949W        W 6478  28.221  17.592  14.918
34950W        W 6479  15.557   3.460  11.154
34951W        W 6480  15.138  30.397   3.665
34952W        W 6481  36.556   5.410  11.088
34953W        W 6482  18.751  34.129   3.604
34954W        W 6483  28.940  27.008  14.408
34955W        W 6484  18.494  11.849   2.288
34956W        W 6485  17.132  23.731  12.854
34957W        W 6486  13.426  41.945  14.895
34958W        W 6487  39.995  42.114  10.709
34959W        W 6488  21.216   9.394   3.742
34960W        W 6489  41.484  14.726   0.019
34961W        W 6490  23.945  24.415   2.070
34962W        W 6491  22.259   0.382   1.015
34963W        W 6492  37.717  10.182   3.163
34964W        W 6493  30.542   0.901  10.705
34965W        W 6494  17.865  16.946  11.908
34966W        W 6495  36.202  10.164   3.152
34967W        W 6496  13.125   1.899   0.546
34968W        W 6497  25.413  21.359   4.641
34969W        W 6498  41.817  22.350   1.834
34970W        W 6499   0.683  22.648   1.884
34971W        W 6500  35.566   4.472  13.517
34972W        W 6501  32.967  34.874   1.728
34973W        W 6502  31.010   3.975  13.492
34974W        W 6503  14.662   8.674   0.079
34975W        W 6504  28.144  19.162  11.056
34976W        W 6505  29.581  15.600   0.947
34977W        W 6506  35.394  43.903  11.567
34978W        W 6507  29.956  39.055  14.734
34979W        W 6508   2.345  21.178   2.546
34980W        W 6509  32.299  23.481  11.848
34981W        W 6510   2.730  38.923  14.921
34982W        W 6511  23.026  21.717   0.028
34983W        W 6512   0.080  10.190  12.181
34984W        W 6513  13.751  29.941   4.528
34985W        W 6514  35.377  42.063  12.068
34986W        W 6515   9.598   2.954  12.945
34987W        W 6516  30.912  27.769  14.803
34988W        W 6517  23.754  40.805  14.395
34989W        W 6518  22.934  18.030   3.665
34990W        W 6519  41.425  19.370   0.804
34991W        W 6520  25.175  21.674  12.448
34992W        W 6521  36.952   6.758   1.356
34993W        W 6522  38.778  34.599  11.917
34994W        W 6523  32.537  31.035  11.769
34995W        W 6524  38.382  14.785  12.138
34996W        W 6525  10.158  20.789  10.690
34997W        W 6526  16.792   3.212  15.000
34998W        W 6527  13.615  13.789  11.033
34999W        W 6528   2.314  14.653   4.581
35000W        W 6529  21.955  22.230  14.456
35001W        W 6530   3.410  32.912   2.232
35002W        W 6531  33.331  11.749   2.946
35003W        W 6532  11.703   5.252  13.366
35004W        W 6533  40.577  27.184  11.655
35005W        W 6534  40.804  28.655  14.331
35006W        W 6535  10.360  12.708   3.114
35007W        W 6536   1.441  38.109   3.233
35008W        W 6537  36.062  18.919  14.617
35009W        W 6538   3.710  42.350   3.116
35010W        W 6539  12.664  28.525  10.582
35011W        W 6540  39.508  23.974   2.808
35012W        W 6541  41.087  20.872  11.073
35013W        W 6542  29.981  14.551  13.070
35014W        W 6543   4.540  21.247  14.883
35015W        W 6544  20.555  21.482  14.856
35016W        W 6545  23.225  32.462  12.975
35017W        W 6546  17.943  17.869   2.281
35018W        W 6547  13.661  23.157   3.237
35019W        W 6548  18.029  23.785   2.270
35020W        W 6549  26.743   8.816   3.243
35021W        W 6550  19.571  41.466  11.477
35022W        W 6551  16.794  18.970   1.689
35023W        W 6552  43.696  44.265   2.347
35024W        W 6553  32.338  35.091  11.532
35025W        W 6554   1.419  38.246  11.742
35026W        W 6555  13.898  13.633   0.843
35027W        W 6556  10.551  38.143   3.647
35028W        W 6557  44.076  22.982  11.185
35029W        W 6558  36.994   8.130  13.106
35030W        W 6559  14.772  22.737  14.804
35031W        W 6560   3.705  24.037   4.577
35032W        W 6561  14.608  44.939  10.941
35033W        W 6562  42.401  19.630   4.575
35034W        W 6563   9.373  16.747   3.791
35035W        W 6564  14.729  27.459  10.645
35036W        W 6565  44.676  34.234   4.193
35037W        W 6566   9.197   9.827  14.459
35038W        W 6567  13.357  23.764  11.195
35039W        W 6568  32.273   5.271   4.439
35040W        W 6569  18.653  26.360   4.179
35041W        W 6570  35.386  15.636   2.134
35042W        W 6571  24.036  19.519   1.898
35043W        W 6572  17.457  40.032   4.969
35044W        W 6573  18.421   6.448  10.677
35045W        W 6574   8.272  28.511   3.848
35046W        W 6575  23.153  28.102   0.603
35047W        W 6576  31.121  28.080  10.598
35048W        W 6577  27.301  42.853   1.022
35049W        W 6578  11.883  41.821  11.310
35050W        W 6579  26.270  13.800  13.590
35051W        W 6580   0.623  30.110   1.101
35052W        W 6581  41.777   4.200  11.163
35053W        W 6582  29.677  34.325   0.494
35054W        W 6583   5.971  41.903   2.759
35055W        W 6584  21.305  28.947   1.861
35056W        W 6585  24.593  20.813   1.735
35057W        W 6586  37.918  34.975   1.982
35058W        W 6587  24.406  27.122   1.858
35059W        W 6588   5.713  31.004   0.914
35060W        W 6589  39.343  31.348   1.468
35061W        W 6590   2.687  38.407  13.114
35062W        W 6591  28.188   1.249  13.921
35063W        W 6592  12.860   4.827  10.478
35064W        W 6593  13.530  15.812   4.029
35065W        W 6594   4.935  18.567   0.208
35066W        W 6595   2.339  35.671  12.012
35067W        W 6596  30.247   3.963   4.862
35068W        W 6597  24.170  20.659   3.809
35069W        W 6598  13.066  15.331  12.569
35070W        W 6599  29.947  40.120   2.301
35071W        W 6600  42.844  29.150  10.598
35072W        W 6601  38.464  27.653  10.705
35073W        W 6602  23.769  17.205   2.322
35074W        W 6603  27.618   4.193   1.374
35075W        W 6604  29.875  37.777   3.615
35076W        W 6605  33.971  44.288   4.565
35077W        W 6606  24.410  13.178   2.265
35078W        W 6607  16.357  37.803  13.847
35079W        W 6608  43.549  19.568  14.640
35080W        W 6609  19.614   3.831  12.155
35081W        W 6610  11.112  44.378  11.670
35082W        W 6611   8.341  16.644   2.320
35083W        W 6612  19.671   1.186  10.619
35084W        W 6613  29.343   3.009  13.511
35085W        W 6614  28.493  18.697  11.985
35086W        W 6615  36.538  27.889  12.713
35087W        W 6616  10.803  40.780  12.873
35088W        W 6617  35.881  22.752   4.090
35089W        W 6618   4.547   1.799  13.430
35090W        W 6619  21.187  40.913   9.826
35091W        W 6620  42.809   0.066  14.492
35092W        W 6621  19.368  39.330  10.519
35093W        W 6622  20.835   7.676   0.509
35094W        W 6623  12.113  36.582   1.133
35095W        W 6624  23.228  24.278   1.377
35096W        W 6625   7.422   6.660   0.139
35097W        W 6626  43.713  33.967  14.362
35098W        W 6627   4.704  35.112   0.943
35099W        W 6628  24.071   5.756   4.450
35100W        W 6629   1.004  22.937  13.502
35101W        W 6630  29.053  42.796  13.928
35102W        W 6631   3.414  43.130   0.050
35103W        W 6632  30.395  16.149  12.903
35104W        W 6633   7.335  22.596  13.023
35105W        W 6634  13.069  10.814  12.673
35106W        W 6635   8.956   6.789  12.824
35107W        W 6636  12.657  30.117  13.526
35108W        W 6637  22.406  40.428  12.086
35109W        W 6638  11.929  11.669   4.632
35110W        W 6639  35.546  30.840  13.732
35111W        W 6640  25.638  34.884   3.358
35112W        W 6641   3.163  22.541   1.721
35113W        W 6642  10.033   0.041  13.817
35114W        W 6643  44.449  13.422  11.111
35115W        W 6644  34.407  24.218  13.041
35116W        W 6645  31.927  35.113   3.577
35117W        W 6646  36.621  19.013  13.896
35118W        W 6647  16.064  18.965   1.123
35119W        W 6648  26.374  35.289  13.050
35120W        W 6649  20.633  18.966  12.134
35121W        W 6650  21.916  41.456   2.918
35122W        W 6651  39.779  16.920  11.573
35123W        W 6652  24.580  37.856   1.048
35124W        W 6653   4.406  19.425   3.204
35125W        W 6654  35.097  42.576   0.024
35126W        W 6655  23.570   2.374   2.665
35127W        W 6656  29.383  41.925   1.118
35128W        W 6657   8.909  15.158  12.664
35129W        W 6658  41.354  22.544   2.142
35130W        W 6659  25.909   0.163  11.590
35131W        W 6660  21.455  40.008  10.210
35132W        W 6661  18.090  41.329  13.522
35133W        W 6662   2.920  21.664   1.812
35134W        W 6663  14.091  36.882  14.278
35135W        W 6664  11.280   4.255   2.244
35136W        W 6665  27.362  21.291   0.049
35137W        W 6666   5.919  29.914   3.058
35138W        W 6667  44.487  35.912   0.349
35139W        W 6668  11.112  40.371   2.332
35140W        W 6669  43.648  23.210  11.963
35141W        W 6670  44.549  36.067  12.496
35142W        W 6671  20.509  25.340   2.438
35143W        W 6672   2.655  14.613   1.395
35144W        W 6673  12.092  38.701  11.507
35145W        W 6674  31.923  41.621   0.302
35146W        W 6675   9.559  21.750  11.282
35147W        W 6676  19.731   1.767   2.204
35148W        W 6677  37.008   0.280  10.636
35149W        W 6678  37.949   9.175  11.254
35150W        W 6679  13.437   9.226  13.904
35151W        W 6680  18.846  40.907  13.500
35152W        W 6681   5.723  43.150   4.845
35153W        W 6682  17.254  14.659   2.845
35154W        W 6683   7.204   7.857  13.825
35155W        W 6684  29.329  42.014   1.619
35156W        W 6685   3.471  25.326  14.460
35157W        W 6686  36.501  21.847   1.457
35158W        W 6687  36.910  23.402   2.567
35159W        W 6688  25.018  42.908   1.099
35160W        W 6689   7.768  11.567   0.678
35161W        W 6690  36.927  44.766  12.472
35162W        W 6691  18.804  23.230  12.454
35163W        W 6692  32.748   2.104  12.919
35164W        W 6693  20.022  28.031   4.099
35165W        W 6694  38.495   5.505  11.393
35166W        W 6695  13.698  20.493  14.500
35167W        W 6696  30.688  37.728   2.487
35168W        W 6697  26.852   0.451   0.953
35169W        W 6698  11.006  31.629  12.128
35170W        W 6699  16.738  33.940  11.611
35171W        W 6700  10.870  29.598  13.051
35172W        W 6701   9.072   0.779   4.474
35173W        W 6702   8.515  22.148   4.888
35174W        W 6703  36.993   7.638   0.909
35175W        W 6704  42.803  24.880   1.315
35176W        W 6705  25.488  40.411  14.008
35177W        W 6706  33.375  28.451  14.921
35178W        W 6707  24.374   2.867  14.656
35179W        W 6708  20.183  17.244  10.855
35180W        W 6709   4.753   8.651  14.505
35181W        W 6710  39.965  25.460   3.854
35182W        W 6711   4.648  39.460   1.256
35183W        W 6712  12.195  26.949  12.431
35184W        W 6713  27.510  23.945  13.376
35185W        W 6714   3.251  17.414  13.147
35186W        W 6715   4.760  12.311   2.689
35187W        W 6716  25.499  24.708  13.989
35188W        W 6717  41.321  14.801  10.922
35189W        W 6718  29.918   3.212  10.755
35190W        W 6719  24.629  11.815  11.574
35191W        W 6720   4.336  16.434   4.569
35192W        W 6721  31.373   1.442  10.697
35193W        W 6722   7.885   1.441   2.640
35194W        W 6723  15.638  30.952   0.546
35195W        W 6724  32.121  33.960  10.723
35196W        W 6725  30.611  27.015   4.620
35197W        W 6726  17.840  15.608  12.209
35198W        W 6727   8.927  23.997  13.418
35199W        W 6728  33.872  10.244  11.804
35200W        W 6729  25.224  13.576  14.349
35201W        W 6730  44.184  40.871   9.986
35202W        W 6731  20.683  22.245  13.563
35203W        W 6732   8.481  40.321   4.824
35204W        W 6733  23.906   3.964  11.624
35205W        W 6734  36.416   1.823  13.036
35206W        W 6735  24.612  39.352   4.224
35207W        W 6736  26.700  26.200  12.062
35208W        W 6737   7.170  23.991  12.979
35209W        W 6738  25.240  32.452   1.742
35210W        W 6739  44.804   1.369  13.948
35211W        W 6740  41.512  18.369  13.215
35212W        W 6741  38.487   4.799  12.137
35213W        W 6742  16.213  27.946   2.247
35214W        W 6743  23.237  20.064   0.897
35215W        W 6744   1.364   3.778   4.399
35216W        W 6745  32.889  28.418   3.141
35217W        W 6746  42.558  39.384   3.076
35218W        W 6747   2.429   4.688  11.904
35219W        W 6748  21.296  38.781   5.046
35220W        W 6749  42.014  43.284  11.031
35221W        W 6750   4.179   3.661  12.087
35222W        W 6751   6.374  33.003  11.974
35223W        W 6752  40.980  39.378   4.699
35224W        W 6753  12.176  15.704  10.325
35225W        W 6754  14.121  28.959   2.680
35226W        W 6755   6.833  44.426   3.106
35227W        W 6756  23.019   9.860  13.921
35228W        W 6757  43.411   9.287   0.622
35229W        W 6758  37.591  22.143   4.549
35230W        W 6759   7.700  14.549   1.424
35231W        W 6760  11.965  13.424  14.362
35232W        W 6761  15.095  41.623  11.836
35233W        W 6762  14.296  18.806  11.907
35234W        W 6763   4.190  10.576  11.356
35235W        W 6764  24.017  27.483  13.112
35236W        W 6765  19.196   0.788  12.910
35237W        W 6766  25.492  19.678  11.654
35238W        W 6767  28.235   0.251  12.956
35239W        W 6768   8.830  39.376   2.755
35240W        W 6769   8.834  10.149   2.850
35241W        W 6770  29.810  35.483  11.966
35242W        W 6771   6.837  31.050   3.849
35243W        W 6772  28.674  26.065  12.488
35244W        W 6773  26.266  11.705  13.035
35245W        W 6774   0.288  36.787   0.987
35246W        W 6775  34.386  28.823   2.698
35247W        W 6776  36.065   8.167  12.453
35248W        W 6777  38.109  16.522  14.821
35249W        W 6778   1.428  19.620  13.405
35250W        W 6779  34.964  21.834   4.102
35251W        W 6780  14.097   9.078   4.106
35252W        W 6781   5.221  39.960   4.582
35253W        W 6782   0.072  36.929  12.344
35254W        W 6783  33.609  27.348  12.412
35255W        W 6784  22.101  22.462  11.125
35256W        W 6785  44.934   6.242   2.585
35257W        W 6786   1.416   8.621  12.527
35258W        W 6787  28.941  40.515   0.085
35259W        W 6788  12.868   2.998   0.682
35260W        W 6789   9.841  39.873   3.721
35261W        W 6790  38.041  39.092   3.253
35262W        W 6791  15.731  38.780   2.799
35263W        W 6792  20.215  12.209  14.086
35264W        W 6793   8.099  27.665   3.791
35265W        W 6794   8.424  19.853  10.091
35266W        W 6795   4.704   2.423   2.496
35267W        W 6796   9.215  11.714   0.718
35268W        W 6797  23.813   3.226  12.898
35269W        W 6798  17.423  30.056   4.469
35270W        W 6799  14.634  29.519  12.414
35271W        W 6800  44.023  11.569  12.152
35272W        W 6801  20.180  29.638   1.755
35273W        W 6802   6.304   5.481   4.891
35274W        W 6803   9.278  27.103  12.818
35275W        W 6804  35.478  20.596  10.654
35276W        W 6805   5.302  16.421   0.464
35277W        W 6806  38.057  40.326   1.604
35278W        W 6807   4.245  41.043  12.428
35279W        W 6808  33.981  27.191  14.806
35280W        W 6809  35.150  26.053   0.750
35281W        W 6810  35.609  44.365  14.447
35282W        W 6811  34.525  33.695  12.871
35283W        W 6812  28.566  32.861   3.331
35284W        W 6813  34.490  25.592   4.907
35285W        W 6814  24.204   7.183   1.235
35286W        W 6815  13.400  42.444  10.562
35287W        W 6816  39.801  40.264   1.758
35288W        W 6817  44.884  39.919   0.795
35289W        W 6818  37.413   9.089   1.261
35290W        W 6819  20.404  37.841   4.214
35291W        W 6820   4.629  20.084   1.833
35292W        W 6821  19.535   8.119   0.542
35293W        W 6822  34.821   1.307   0.595
35294W        W 6823  17.563  18.637   3.312
35295W        W 6824  19.752  44.414  12.961
35296W        W 6825  25.514  34.542  14.392
35297W        W 6826  31.957   5.276  14.429
35298W        W 6827  20.696  10.440   1.686
35299W        W 6828   8.185  30.680   1.869
35300W        W 6829  27.696   4.003   1.831
35301W        W 6830  18.367  28.595   1.450
35302W        W 6831   8.906  29.643   4.088
35303W        W 6832  21.492   7.982   1.219
35304W        W 6833  14.335  16.601  14.013
35305W        W 6834  16.358  32.428  12.657
35306W        W 6835  39.018   3.148  12.964
35307W        W 6836  10.930  28.855   2.691
35308W        W 6837   9.854   2.377  11.698
35309W        W 6838   4.274   5.345  14.799
35310W        W 6839   1.985  44.311   4.710
35311W        W 6840   8.653  18.844   3.259
35312W        W 6841  15.969  22.253   0.915
35313W        W 6842  17.964   9.831  14.358
35314W        W 6843  38.354  13.857  14.771
35315W        W 6844  34.053   4.870  11.195
35316W        W 6845  31.141   5.830   1.757
35317W        W 6846   4.799  41.825  11.700
35318W        W 6847  10.626  20.028  14.310
35319W        W 6848  43.701  31.340  12.065
35320W        W 6849  34.390  43.196  12.112
35321W        W 6850   9.142  15.310   2.735
35322W        W 6851  13.691  36.492   1.339
35323W        W 6852  29.496  15.392  14.561
35324W        W 6853  22.585  39.361  11.428
35325W        W 6854  40.105  22.415   3.198
35326W        W 6855  27.244   9.120  13.841
35327W        W 6856  35.350   0.914  10.741
35328W        W 6857  18.919  33.811  13.457
35329W        W 6858  32.158  41.080   4.148
35330W        W 6859  21.174   8.133   4.140
35331W        W 6860  26.621  35.559  10.330
35332W        W 6861  26.909   3.979  13.826
35333W        W 6862  28.704  41.357  11.985
35334W        W 6863  21.068  35.138  11.002
35335W        W 6864  22.629  24.809  12.181
35336W        W 6865  19.058  20.303   3.756
35337W        W 6866  12.692  19.373   3.967
35338W        W 6867  41.084  19.907  13.872
35339W        W 6868  39.893  18.790   3.599
35340W        W 6869  37.824  31.031   2.668
35341W        W 6870  42.362  30.636   3.142
35342W        W 6871  12.079  24.101   3.587
35343W        W 6872   7.240  38.466   2.664
35344W        W 6873  28.431  20.515   1.717
35345W        W 6874  13.770   4.996  10.332
35346W        W 6875  29.538  31.570  11.617
35347W        W 6876  17.562  30.556   2.047
35348W        W 6877  41.976  44.921   0.404
35349W        W 6878   6.881  19.014   3.160
35350W        W 6879  16.789  35.220  11.180
35351W        W 6880  18.763  21.995  11.443
35352W        W 6881  23.167  17.564   1.283
35353W        W 6882  38.041  12.921  11.980
35354W        W 6883  26.357  10.259  12.018
35355W        W 6884  43.292  14.855  10.778
35356W        W 6885  11.780  28.948  10.706
35357W        W 6886  25.898  26.747   0.548
35358W        W 6887  34.519  39.097  14.424
35359W        W 6888  16.675  43.957   3.518
35360W        W 6889   0.235  16.553   1.959
35361W        W 6890  43.469  28.209  11.613
35362W        W 6891  16.207  19.312  10.655
35363W        W 6892   2.918  34.437  11.273
35364W        W 6893  44.333  37.637   3.840
35365W        W 6894  23.666  19.219  11.570
35366W        W 6895  14.415  29.002  13.113
35367W        W 6896   3.821  13.382  12.934
35368W        W 6897   0.251   7.290   4.132
35369W        W 6898  30.535  26.555  13.478
35370W        W 6899   7.734  20.210  11.618
35371W        W 6900  40.249  17.048   0.859
35372W        W 6901  27.349  14.175   3.551
35373W        W 6902  29.392  21.196  13.902
35374W        W 6903   4.340   5.971   3.761
35375W        W 6904  33.061  23.941   4.626
35376W        W 6905  42.183  43.819  12.072
35377W        W 6906   3.395  38.633   4.249
35378W        W 6907  29.380  10.285   0.761
35379W        W 6908  13.697  19.542   2.329
35380W        W 6909  22.063  25.537   4.676
35381W        W 6910  17.896  43.911  11.134
35382W        W 6911  30.990  43.882   0.253
35383W        W 6912   2.386  42.246   1.463
35384W        W 6913  43.556  20.527   1.487
35385W        W 6914   9.212  43.702   1.218
35386W        W 6915   9.957  28.547  11.202
35387W        W 6916  28.473  11.674  12.638
35388W        W 6917  24.158  35.785   4.529
35389W        W 6918   8.412  16.175   3.122
35390W        W 6919  38.168  12.672   4.595
35391W        W 6920   3.230  28.478   2.721
35392W        W 6921  27.988  37.480  13.150
35393W        W 6922  12.110   6.095  11.427
35394W        W 6923   4.028  14.271   2.605
35395W        W 6924  25.474   8.031  12.055
35396W        W 6925  25.134  41.279   4.559
35397W        W 6926  17.131   9.413  14.985
35398W        W 6927  43.602  20.743   0.307
35399W        W 6928  30.933   2.975   4.168
35400W        W 6929  31.526  40.454   1.348
35401W        W 6930  38.996  30.857  13.506
35402W        W 6931  14.548  28.551  13.333
35403W        W 6932  27.657  38.634  13.490
35404W        W 6933  29.011  23.734   2.354
35405W        W 6934  34.288   0.665   3.177
35406W        W 6935  15.019   6.717  10.262
35407W        W 6936  14.248  39.418   0.232
35408W        W 6937  12.009  41.129   0.674
35409W        W 6938  26.266  41.814   3.968
35410W        W 6939   1.689  30.976  10.977
35411W        W 6940  20.149  11.728  14.361
35412W        W 6941  15.284  17.377  10.977
35413W        W 6942  21.176  34.003   1.855
35414W        W 6943  13.095   0.297  12.073
35415W        W 6944  29.162  42.384  10.647
35416W        W 6945  33.593  20.903   3.139
35417W        W 6946  39.015  14.259   4.190
35418W        W 6947  32.032  16.602   5.068
35419W        W 6948  12.691   5.374   4.516
35420W        W 6949  14.248  34.799  11.909
35421W        W 6950  37.831   9.420   3.626
35422W        W 6951   1.894  12.377   3.266
35423W        W 6952   3.474  34.661   1.214
35424W        W 6953  35.317  39.266   2.511
35425W        W 6954   8.189  15.959   0.407
35426W        W 6955  33.523  14.726  11.960
35427W        W 6956  27.924  38.831  11.176
35428W        W 6957  34.797   1.435   4.663
35429W        W 6958   7.166  14.502  11.110
35430W        W 6959  37.151   8.242  13.578
35431W        W 6960  23.675  18.262   3.295
35432W        W 6961   0.328  20.772  11.179
35433W        W 6962  18.105   0.477   0.764
35434W        W 6963  26.698  35.373  12.072
35435W        W 6964   2.926  27.114   4.309
35436W        W 6965  29.550   8.989   2.667
35437W        W 6966  21.104  17.254   4.461
35438W        W 6967  18.131  15.159  14.931
35439W        W 6968  26.163  33.987   4.698
35440W        W 6969  19.947  43.096  12.774
35441W        W 6970  29.359  24.369   2.889
35442W        W 6971  11.725  10.567  13.974
35443W        W 6972  39.787  17.606  13.607
35444W        W 6973  39.718  18.694   2.779
35445W        W 6974  28.994  15.403   3.225
35446W        W 6975  39.861   2.113  14.532
35447W        W 6976  23.534  31.123   4.249
35448W        W 6977  16.929  22.696  14.351
35449W        W 6978  16.578  28.024  10.934
35450W        W 6979  19.620  35.399  11.477
35451W        W 6980  25.054  15.117   2.419
35452W        W 6981  18.523  44.377  14.328
35453W        W 6982   9.740   5.218  12.040
35454W        W 6983  23.055  15.312   3.680
35455W        W 6984  38.114  22.634   1.858
35456W        W 6985  32.200  18.007  12.355
35457W        W 6986   9.591  19.351   2.199
35458W        W 6987  17.052  34.888  12.406
35459W        W 6988  29.917   3.673  12.159
35460W        W 6989  43.800  40.453   2.213
35461W        W 6990   0.107  37.624  13.871
35462W        W 6991  23.758  25.040   0.248
35463W        W 6992  21.477  26.112   2.192
35464W        W 6993  10.617  43.293  14.451
35465W        W 6994   6.707  41.230  10.628
35466W        W 6995  40.746  22.133  13.473
35467W        W 6996  31.432  24.445  12.124
35468W        W 6997  29.604   5.137   1.246
35469W        W 6998  18.186  23.416   1.937
35470W        W 6999  21.224  19.227  13.817
35471W        W 7000   5.942  42.378   4.106
35472W        W 7001  14.060   0.865  13.440
35473W        W 7002  24.142  27.012  11.665
35474W        W 7003  13.403  38.558  14.867
35475W        W 7004  30.572  27.067   0.307
35476W        W 7005  40.361   7.403   1.505
35477W        W 7006  30.542  44.083  13.052
35478W        W 7007  16.022  26.273  13.065
35479W        W 7008   5.235  29.388  13.386
35480W        W 7009   3.201  18.216   4.334
35481W        W 7010  31.245  23.700  11.115
35482W        W 7011   2.944  26.759   0.336
35483W        W 7012   9.924   7.210  10.024
35484W        W 7013  13.682  20.777   4.269
35485W        W 7014   7.721  17.049   1.233
35486W        W 7015   3.543  21.500  13.422
35487W        W 7016  34.862  28.471   1.399
35488W        W 7017  31.667  21.689  13.874
35489W        W 7018   8.940  23.790   2.326
35490W        W 7019  10.141  43.042   2.567
35491W        W 7020   0.909  43.759  13.929
35492W        W 7021  21.134  16.573   1.464
35493W        W 7022  26.437  28.482  12.046
35494W        W 7023   8.171   2.989   0.809
35495W        W 7024  24.139  14.583  13.390
35496W        W 7025  24.248  29.085   3.649
35497W        W 7026  38.541  38.128   2.904
35498W        W 7027   5.376  43.462  14.191
35499W        W 7028  20.294   1.411   2.926
35500W        W 7029  43.276   0.875   4.094
35501W        W 7030  16.032  21.070   0.469
35502W        W 7031  19.963   6.503  14.425
35503W        W 7032  16.036  41.308  13.487
35504W        W 7033  27.934  39.763  13.110
35505W        W 7034  43.080  32.032   2.944
35506W        W 7035  20.702   6.112   1.930
35507W        W 7036   2.747  27.851   3.272
35508W        W 7037  23.420  32.443  11.798
35509W        W 7038  32.859  42.080   3.328
35510W        W 7039   2.304  34.095   0.014
35511W        W 7040  27.677  41.362  11.757
35512W        W 7041  18.021  35.165  11.175
35513W        W 7042   2.517  22.598   4.552
35514W        W 7043   5.207   1.235  11.035
35515W        W 7044  26.055   5.333   2.731
35516W        W 7045  39.553  42.914  10.495
35517W        W 7046   2.541  12.825   0.852
35518W        W 7047   5.392   4.909  12.928
35519W        W 7048  31.653   0.671  12.610
35520W        W 7049  42.761  17.235   1.237
35521W        W 7050  19.943  41.772   0.959
35522W        W 7051  24.436  29.640   2.862
35523W        W 7052   1.487  44.044   0.798
35524W        W 7053  29.078  13.103  12.603
35525W        W 7054  12.118   8.384   4.163
35526W        W 7055  42.976  35.100   2.232
35527W        W 7056  32.481  20.832  11.669
35528W        W 7057  27.574  19.004  10.812
35529W        W 7058   9.064  11.831   3.420
35530W        W 7059  34.977  43.375  11.155
35531W        W 7060  20.916   3.360   3.410
35532W        W 7061  15.112  38.100  11.955
35533W        W 7062  41.937   9.726  13.483
35534W        W 7063  14.741  17.243  12.622
35535W        W 7064  10.199  19.316  11.628
35536W        W 7065  26.114  11.247  14.105
35537W        W 7066  35.414  10.223  11.649
35538W        W 7067   7.037  19.559  12.747
35539W        W 7068  40.380   4.815  10.010
35540W        W 7069  39.437   7.767   4.183
35541W        W 7070  15.168  38.944   1.245
35542W        W 7071   6.901  21.226  14.596
35543W        W 7072  10.387  31.318  11.548
35544W        W 7073  28.475  44.118  12.508
35545W        W 7074   8.349  18.317   3.899
35546W        W 7075  34.780   5.714  12.420
35547W        W 7076   2.670  32.383  10.370
35548W        W 7077  19.040  32.471   0.494
35549W        W 7078  34.431  29.145  13.750
35550W        W 7079  23.753  11.645   1.916
35551W        W 7080  21.634  39.003  11.555
35552W        W 7081  23.701  15.883  10.366
35553W        W 7082  27.817  10.009   2.923
35554W        W 7083  13.317  44.533   1.305
35555W        W 7084  33.055   2.760  13.356
35556W        W 7085  39.813  12.288   1.412
35557W        W 7086  35.965  15.288  13.903
35558W        W 7087   4.600  20.186  13.836
35559W        W 7088  33.438  24.635   2.706
35560W        W 7089  32.995  35.409  12.523
35561W        W 7090  15.942  43.895   1.360
35562W        W 7091  28.222  38.898  10.703
35563W        W 7092  29.006  32.033  11.913
35564W        W 7093  28.235  36.444  12.971
35565W        W 7094  12.458  11.565   4.447
35566W        W 7095   8.269  31.973  14.236
35567W        W 7096  20.518  37.598   3.389
35568W        W 7097  27.043  31.581  10.544
35569W        W 7098   4.047  43.990   1.567
35570W        W 7099  21.389  44.971  11.433
35571W        W 7100  41.330  10.776  11.661
35572W        W 7101  10.184  12.700  14.262
35573W        W 7102  42.911   9.177   4.920
35574W        W 7103  17.701   8.265   3.914
35575W        W 7104  16.544  13.154  11.409
35576W        W 7105  18.548  42.665   1.381
35577W        W 7106   1.872  23.109   2.835
35578W        W 7107  38.884  29.458   4.713
35579W        W 7108  26.000  17.711   4.418
35580W        W 7109  25.125   7.837  12.370
35581W        W 7110  12.375  29.964   0.252
35582W        W 7111  26.007  31.452   4.617
35583W        W 7112   2.510  34.988  14.989
35584W        W 7113  39.281  12.793  14.858
35585W        W 7114  20.335  23.195  13.396
35586W        W 7115  18.780   4.814  10.669
35587W        W 7116  41.413  42.931  13.779
35588W        W 7117  22.997  24.447  12.063
35589W        W 7118  42.383  29.645  12.602
35590W        W 7119  15.538  29.504   2.397
35591W        W 7120  19.995  37.997   1.930
35592W        W 7121  14.776  35.729  13.458
35593W        W 7122   7.484  35.534   0.926
35594W        W 7123  17.041  22.655   4.796
35595W        W 7124  42.558  43.399  11.896
35596W        W 7125  22.280  26.568   2.393
35597W        W 7126  39.348  18.808  14.965
35598W        W 7127  33.096  17.250  14.771
35599W        W 7128   3.490  43.138   4.362
35600W        W 7129  27.059  25.344  12.145
35601W        W 7130   3.440  32.999  13.490
35602W        W 7131  16.176  26.090   2.464
35603W        W 7132  17.231  26.479  12.059
35604W        W 7133  34.849  12.157   1.354
35605W        W 7134  30.463  18.511   4.121
35606W        W 7135  37.534   5.363   1.617
35607W        W 7136   1.377  13.649  14.406
35608W        W 7137   3.224  24.428   3.555
35609W        W 7138  22.937   0.965  14.305
35610W        W 7139  32.640  31.034  13.329
35611W        W 7140  29.497  10.256   2.570
35612W        W 7141   1.195  10.925  12.606
35613W        W 7142  40.575  44.558   1.131
35614W        W 7143   1.473  34.557  14.045
35615W        W 7144  32.086  10.389   4.212
35616W        W 7145  43.391  11.758   4.053
35617W        W 7146  28.200  34.500  11.442
35618W        W 7147   3.249  11.779   2.257
35619W        W 7148  10.952  33.911   4.532
35620W        W 7149   5.928  39.442  14.152
35621W        W 7150   3.487  31.117   4.549
35622W        W 7151   5.367  35.727  13.474
35623W        W 7152   7.880  37.511  13.463
35624W        W 7153  43.887  29.669  10.669
35625W        W 7154  24.364  15.500   4.184
35626W        W 7155   6.304  16.767  12.441
35627W        W 7156  37.334  32.925  13.007
35628W        W 7157  26.351  17.741   0.793
35629W        W 7158  43.395   4.511  12.671
35630W        W 7159  18.216  15.135   2.926
35631W        W 7160  24.899   1.376  11.432
35632W        W 7161  17.067  40.666   2.302
35633W        W 7162  32.052  25.065   4.077
35634W        W 7163  28.158  14.011  13.402
35635W        W 7164   1.828  10.569  14.793
35636W        W 7165  34.168  11.613   2.929
35637W        W 7166  26.573  11.949  11.503
35638W        W 7167  26.730  41.555  14.086
35639W        W 7168  24.581   1.900  12.238
35640W        W 7169  31.216  20.333   2.109
35641W        W 7170  33.331   1.358   0.797
35642W        W 7171  32.416  31.021  12.427
35643W        W 7172  20.947  27.047   2.293
35644W        W 7173  42.786  26.927   1.194
35645W        W 7174  40.377  42.605   3.026
35646W        W 7175   3.299  29.379   3.195
35647W        W 7176  23.157  44.780  13.000
35648W        W 7177  17.332  25.146   0.397
35649W        W 7178  25.067  18.856  13.422
35650W        W 7179  43.087  36.180  11.520
35651W        W 7180  41.501  20.753  14.953
35652W        W 7181  13.843  12.563   2.595
35653W        W 7182  20.980  29.083  13.879
35654W        W 7183  34.394  40.463  11.114
35655W        W 7184  43.634  22.083  12.501
35656W        W 7185  37.623   1.047  11.899
35657W        W 7186  33.462  30.191  12.853
35658W        W 7187  12.894  10.327  13.479
35659W        W 7188   2.242  44.971   0.002
35660W        W 7189   1.319  22.073   2.424
35661W        W 7190  37.811   8.284   1.505
35662W        W 7191   7.792  17.923   2.196
35663W        W 7192  19.531  19.629   4.124
35664W        W 7193  13.479   8.665   4.880
35665W        W 7194  24.157  44.718  13.074
35666W        W 7195  30.484  42.280   2.659
35667W        W 7196   7.382  10.308   2.412
35668W        W 7197  38.611  31.500   0.963
35669W        W 7198  33.923  24.723  12.375
35670W        W 7199  27.425  34.546   3.531
35671W        W 7200  23.412  32.132   2.335
35672W        W 7201  42.463  27.110  10.309
35673W        W 7202  38.315  13.236  11.612
35674W        W 7203  37.735  27.332   2.140
35675W        W 7204  11.656  23.525  14.398
35676W        W 7205   7.634   8.300  14.029
35677W        W 7206  17.105  17.021   4.132
35678W        W 7207   4.450  42.298  12.050
35679W        W 7208  15.550  17.674  14.332
35680W        W 7209  16.720  22.110   0.672
35681W        W 7210  34.849  16.583  13.515
35682W        W 7211   7.154   5.658  11.282
35683W        W 7212   8.322  29.517   4.681
35684W        W 7213  10.352  39.390  14.287
35685W        W 7214  14.899  21.473  11.478
35686W        W 7215  19.718  25.314  12.169
35687W        W 7216  13.595  44.883   2.078
35688W        W 7217  43.836  21.104  12.341
35689W        W 7218  23.142   7.992   0.864
35690W        W 7219  19.252  25.170   4.236
35691W        W 7220   5.504  18.462   3.583
35692W        W 7221  29.868   4.398   4.859
35693W        W 7222  42.776   2.406   1.881
35694W        W 7223   7.558  12.216  11.629
35695W        W 7224  30.139  12.861  12.447
35696W        W 7225  19.244  25.702   3.111
35697W        W 7226   0.946  42.898  11.201
35698W        W 7227  26.501   0.254  14.408
35699W        W 7228  43.282  34.574  14.894
35700W        W 7229  22.260  10.765  12.169
35701W        W 7230  24.186  39.124  10.992
35702W        W 7231  43.444  32.379   0.235
35703W        W 7232  38.374   7.440   0.281
35704W        W 7233  12.171  13.096  13.536
35705W        W 7234  42.104  15.614  12.526
35706W        W 7235  42.526  40.117   2.276
35707W        W 7236  12.307  17.304  11.116
35708W        W 7237  19.067   4.260  13.438
35709W        W 7238  11.825  31.576  12.402
35710W        W 7239   1.616   1.996   3.174
35711W        W 7240   9.229   9.214   0.323
35712W        W 7241   1.793  23.530  11.179
35713W        W 7242  37.715  12.239   3.711
35714W        W 7243  10.414  41.906   4.110
35715W        W 7244  39.561  20.059   0.421
35716W        W 7245  16.072  21.143   4.054
35717W        W 7246   4.351   8.366   1.970
35718W        W 7247  39.336  30.785   3.107
35719W        W 7248  29.592  35.534   4.845
35720W        W 7249  19.876  20.019   4.207
35721W        W 7250  36.602  19.751   0.008
35722W        W 7251  21.635  34.882   4.650
35723W        W 7252   3.288  20.136   3.469
35724W        W 7253  34.297  31.900   2.223
35725W        W 7254  29.419  30.540  13.376
35726W        W 7255  28.040  37.271  14.570
35727W        W 7256  27.604   0.876   3.827
35728W        W 7257  22.368  24.752   4.041
35729W        W 7258  21.944  12.347   1.465
35730W        W 7259  26.118  32.009  12.232
35731W        W 7260  12.993  14.416  11.175
35732W        W 7261   5.649  44.328   2.761
35733W        W 7262   3.242   5.788  12.500
35734W        W 7263   3.553  31.970  14.035
35735W        W 7264   9.931  26.653  14.499
35736W        W 7265  23.986  20.192  14.392
35737W        W 7266  14.792  14.294  13.012
35738W        W 7267  42.030  35.802  12.940
35739W        W 7268   3.753   4.996  14.824
35740W        W 7269   5.560  36.390  11.452
35741W        W 7270   6.376  13.265  12.122
35742W        W 7271  29.529  34.867  14.274
35743W        W 7272  11.736  33.397   1.558
35744W        W 7273  36.445  28.070   3.677
35745W        W 7274  41.398   0.848   4.597
35746W        W 7275  33.523  31.782  11.705
35747W        W 7276  27.714  14.036   0.247
35748W        W 7277  43.853  24.204   2.549
35749W        W 7278   1.772  41.319   4.719
35750W        W 7279  31.749  17.029  14.872
35751W        W 7280  29.789  36.982  13.444
35752W        W 7281  19.131  29.642   2.685
35753W        W 7282  43.794  14.000   2.235
35754W        W 7283  24.592  27.178   1.331
35755W        W 7284  26.599   5.504   3.409
35756W        W 7285  42.505   8.867   4.854
35757W        W 7286   0.060   4.192   0.916
35758W        W 7287   2.647  43.687  10.736
35759W        W 7288  16.999  30.749   0.335
35760W        W 7289  38.559  20.738  10.652
35761W        W 7290  25.906  17.310  12.984
35762W        W 7291  26.498   5.004   2.626
35763W        W 7292   5.820   2.006   0.146
35764W        W 7293   3.914   7.383   3.798
35765W        W 7294  41.593  12.197  10.592
35766W        W 7295  30.783  26.470   2.603
35767W        W 7296   6.692  40.678   1.943
35768W        W 7297  17.374  15.285   5.072
35769W        W 7298  23.027  34.903  14.279
35770W        W 7299  38.657  43.355  10.544
35771W        W 7300  23.146  14.590  10.623
35772W        W 7301  19.670  40.098  12.922
35773W        W 7302  40.329  37.581   2.280
35774W        W 7303  15.220  34.184  12.975
35775W        W 7304  11.325  24.246  12.929
35776W        W 7305  20.892  26.994   4.582
35777W        W 7306  32.454  30.185   4.198
35778W        W 7307   4.454   3.214  10.201
35779W        W 7308  18.813  25.141  14.291
35780W        W 7309  19.129  11.157   4.173
35781W        W 7310   4.291  13.815  11.673
35782W        W 7311  25.391  43.138   2.662
35783W        W 7312  42.934  29.156   4.557
35784W        W 7313  11.636  23.246  12.019
35785W        W 7314  11.654  28.140  14.236
35786W        W 7315   8.111   8.304   1.481
35787W        W 7316  37.040  10.628  14.953
35788W        W 7317  24.396  19.550  13.038
35789W        W 7318  26.752  18.164   2.184
35790W        W 7319  38.493  24.689  11.144
35791W        W 7320  24.281  10.389  12.444
35792W        W 7321  17.609  36.353   0.784
35793W        W 7322  38.432  40.632   0.444
35794W        W 7323   7.349  38.468  14.953
35795W        W 7324  41.552  25.601  12.578
35796W        W 7325   3.346  28.927   2.912
35797W        W 7326  36.058  29.650   0.979
35798W        W 7327  43.503  27.543   2.754
35799W        W 7328   3.772  31.944   2.293
35800W        W 7329  36.552  35.328   3.218
35801W        W 7330  22.581  35.496  13.812
35802W        W 7331   2.685   6.608  13.896
35803W        W 7332  26.976  16.786  11.411
35804W        W 7333  27.385   0.814  10.373
35805W        W 7334  36.940  24.911   1.812
35806W        W 7335  44.911   1.264   0.927
35807W        W 7336  18.804  13.767  13.465
35808W        W 7337  10.115  33.553   4.067
35809W        W 7338  16.598  26.303  14.274
35810W        W 7339  12.888  12.831   3.852
35811W        W 7340   1.139  34.237  10.780
35812W        W 7341   2.781  20.083   1.454
35813W        W 7342   5.574  39.303   0.058
35814W        W 7343   9.757  29.475  12.464
35815W        W 7344  40.551  27.468   4.256
35816W        W 7345  14.057  10.541   3.183
35817W        W 7346  15.765   6.711  13.974
35818W        W 7347  22.718   8.332   0.886
35819W        W 7348  34.895  16.157  11.714
35820W        W 7349   8.820  27.939   2.330
35821W        W 7350   1.795  30.316   1.639
35822W        W 7351  38.389  19.717   3.396
35823W        W 7352  30.706   4.826   2.474
35824W        W 7353  16.537  26.024  14.699
35825W        W 7354   3.192   6.625  12.006
35826W        W 7355  44.847  31.079   4.597
35827W        W 7356  39.727  16.209   3.727
35828W        W 7357  16.906  40.340  12.137
35829W        W 7358  17.321  37.157  10.553
35830W        W 7359  43.069  42.803  14.449
35831W        W 7360  18.666  24.601  11.308
35832W        W 7361  19.322  38.621  14.462
35833W        W 7362   7.818   8.658  11.712
35834W        W 7363   0.218  35.028  12.510
35835W        W 7364  33.406  15.081  13.163
35836W        W 7365  34.949  28.993  10.699
35837W        W 7366  23.318  24.650  13.395
35838W        W 7367  11.077   9.255   4.626
35839W        W 7368  38.778  31.503   4.774
35840W        W 7369   8.907  32.592   0.907
35841W        W 7370  32.385  34.426  10.717
35842W        W 7371  17.000  24.261   2.747
35843W        W 7372   1.409   0.982  14.963
35844W        W 7373   2.811  38.844  11.472
35845W        W 7374   9.126  23.439  10.500
35846W        W 7375   3.378   5.125   4.861
35847W        W 7376  21.303  42.811   4.104
35848W        W 7377  10.691   7.522  14.021
35849W        W 7378  37.486  33.463   1.198
35850W        W 7379  26.444   7.207  12.361
35851W        W 7380   4.269  43.216  11.481
35852W        W 7381  22.761  10.737   4.456
35853W        W 7382  19.127   9.427   2.293
35854W        W 7383  21.569  34.029  14.286
35855W        W 7384  24.274   5.281   4.498
35856W        W 7385  14.020  37.284   3.157
35857W        W 7386  11.311  29.478   1.263
35858W        W 7387  28.682  37.825  14.974
35859W        W 7388  36.938  37.149   1.111
35860W        W 7389  27.382  42.794   1.775
35861W        W 7390  37.073   7.669  13.884
35862W        W 7391  19.293   2.521   3.203
35863W        W 7392  28.445  41.961   3.363
35864W        W 7393  40.880  20.657  10.641
35865W        W 7394   2.791  22.169   3.825
35866W        W 7395   9.260   3.218  11.565
35867W        W 7396  34.709  35.600   4.784
35868W        W 7397  38.791  20.686  12.523
35869W        W 7398  17.647  23.007  11.621
35870W        W 7399  35.448  21.524  11.635
35871W        W 7400  17.069   7.431  12.036
35872W        W 7401  14.815  36.200  10.840
35873W        W 7402  33.996  36.180  13.796
35874W        W 7403  29.098  29.392  12.106
35875W        W 7404   5.983   1.027  12.362
35876W        W 7405  20.225  35.532   4.056
35877W        W 7406  21.643  42.777  11.450
35878W        W 7407   3.958   6.533  11.593
35879W        W 7408  32.393  21.485   1.443
35880W        W 7409  22.139   1.547   1.472
35881W        W 7410  37.624  44.913  11.586
35882W        W 7411  12.561   7.454   0.354
35883W        W 7412   9.913  34.488   4.001
35884W        W 7413  24.352  11.743   4.608
35885W        W 7414   8.889  28.442  14.927
35886W        W 7415  42.386  28.561  11.289
35887W        W 7416  39.939  37.454  11.383
35888W        W 7417   1.925  23.621   2.765
35889W        W 7418   6.005  10.332  12.049
35890W        W 7419  20.571   8.623  10.499
35891W        W 7420  28.458  35.603  13.848
35892W        W 7421  22.202  44.142   0.480
35893W        W 7422  39.784  17.081  12.535
35894W        W 7423  17.810  11.893  13.878
35895W        W 7424   0.327  33.412  11.323
35896W        W 7425  25.942  22.046   3.141
35897W        W 7426  23.663  35.743  12.560
35898W        W 7427  42.340   6.283  12.344
35899W        W 7428  14.656  20.520  11.174
35900W        W 7429   8.952  36.120  12.024
35901W        W 7430  38.535  14.260   2.105
35902W        W 7431  15.267  22.712   3.351
35903W        W 7432   7.678   5.806  14.453
35904W        W 7433  33.117   7.840  10.835
35905W        W 7434  15.833   9.119   3.517
35906W        W 7435  31.441  12.451   2.591
35907W        W 7436  26.714  43.969  13.963
35908W        W 7437   3.050   8.271  12.478
35909W        W 7438  10.526  43.004   1.244
35910W        W 7439  19.771  41.930  11.293
35911W        W 7440  15.537  16.851  11.602
35912W        W 7441  32.129  44.431   3.348
35913W        W 7442  15.295  40.000  10.765
35914W        W 7443  28.013   1.394   4.174
35915W        W 7444  10.325  10.735  11.628
35916W        W 7445  25.245  44.539   0.728
35917W        W 7446  38.479   7.680  13.843
35918W        W 7447   8.909  13.735   4.815
35919W        W 7448  42.543  22.153   1.104
35920W        W 7449  27.979  23.413   1.698
35921W        W 7450  24.850  12.179  12.492
35922W        W 7451   0.425  10.496  13.309
35923W        W 7452  35.865  33.150   3.240
35924W        W 7453  25.249  42.360  14.900
35925W        W 7454  30.137  11.449   3.192
35926W        W 7455  32.395   8.657   0.914
35927W        W 7456   7.992  44.510  14.918
35928W        W 7457  38.682  24.348   4.223
35929W        W 7458  19.212  33.726  14.162
35930W        W 7459  22.582  36.290  13.409
35931W        W 7460  33.026   8.338  12.535
35932W        W 7461  24.536  21.349  12.591
35933W        W 7462  19.812   4.761   2.877
35934W        W 7463  22.718  41.179   3.210
35935W        W 7464  17.341  16.624   4.853
35936W        W 7465  20.970   9.603   3.154
35937W        W 7466   0.879   3.233   0.996
35938W        W 7467  24.166   6.131   1.373
35939W        W 7468  42.489  19.560   4.067
35940W        W 7469   6.644  30.675  12.420
35941W        W 7470   9.793   7.813  13.830
35942W        W 7471   9.884  16.821   3.770
35943W        W 7472  22.680  26.883   1.821
35944W        W 7473  20.963  25.853   2.725
35945W        W 7474   0.890  44.944  12.599
35946W        W 7475  37.935  14.304   1.396
35947W        W 7476  39.000   2.204   0.930
35948W        W 7477  13.350  25.240  14.077
35949W        W 7478   6.220   6.965   0.795
35950W        W 7479  44.434  34.081   1.815
35951W        W 7480   1.648  10.392   4.840
35952W        W 7481  16.206  39.533   1.434
35953W        W 7482  43.834  21.043  12.847
35954W        W 7483  21.578  28.208   3.620
35955W        W 7484  38.060  12.294  11.554
35956W        W 7485  34.417  36.995   3.884
35957W        W 7486  30.650  25.621  13.859
35958W        W 7487  25.145  33.223  12.386
35959W        W 7488  20.920   2.672  14.739
35960W        W 7489  40.105  39.539  12.512
35961W        W 7490  39.764  30.882   1.254
35962W        W 7491   5.841   4.881  12.040
35963W        W 7492  20.360  28.808   2.038
35964W        W 7493  32.406  34.266   2.320
35965W        W 7494  44.868  18.891   1.874
35966W        W 7495  27.823  36.589  10.378
35967W        W 7496  42.954  15.723   2.752
35968W        W 7497  12.709  39.422   2.641
35969W        W 7498  34.415  14.818   2.416
35970W        W 7499  36.318   9.203   2.227
35971W        W 7500  15.305  16.224   0.750
35972W        W 7501  28.768  13.009   3.730
35973W        W 7502  33.356   7.996   0.443
35974W        W 7503  23.045  41.953   3.539
35975W        W 7504  21.547   9.213  12.868
35976W        W 7505  12.105   7.429  12.642
35977W        W 7506  26.097  36.617   0.263
35978W        W 7507  24.179  23.466  10.754
35979W        W 7508  24.517   4.374   2.210
35980W        W 7509   2.680  30.863  13.442
35981W        W 7510  34.913  11.302   3.642
35982W        W 7511  32.323  42.833   2.263
35983W        W 7512  41.846   0.190  11.785
35984W        W 7513  27.540  37.471  14.518
35985W        W 7514   0.233   9.407   0.872
35986W        W 7515  35.520  39.228  14.063
35987W        W 7516  35.598  14.699   4.504
35988W        W 7517  20.254  17.723  11.902
35989W        W 7518  23.479  25.928   3.029
35990W        W 7519   5.201  34.543  13.835
35991W        W 7520  38.567   1.266  13.888
35992W        W 7521  39.489  29.592  11.802
35993W        W 7522   7.099  42.033   0.891
35994W        W 7523  20.531  26.680   4.376
35995W        W 7524  19.832   6.951  14.608
35996W        W 7525  36.981  30.010  13.273
35997W        W 7526  19.847  38.416   1.664
35998W        W 7527  34.820   2.700  13.168
35999W        W 7528  10.254  25.534   0.765
36000W        W 7529  13.104   1.759  12.159
36001W        W 7530  21.939  10.967   4.237
36002W        W 7531   9.335  17.841   4.200
36003W        W 7532  29.569  30.163  13.055
36004W        W 7533  39.244   9.456   3.756
36005W        W 7534  10.638  11.809  12.454
36006W        W 7535  11.406  25.928  10.777
36007W        W 7536  30.003  39.608  13.888
36008W        W 7537  20.052  22.496   3.318
36009W        W 7538  23.579  44.369   0.463
36010W        W 7539  39.538   2.156  12.398
36011W        W 7540  33.872  22.109   4.293
36012W        W 7541  37.059  43.291   1.861
36013W        W 7542  14.229  13.374   2.841
36014W        W 7543  26.970  29.329  12.996
36015W        W 7544  36.736  23.747  12.012
36016W        W 7545  18.596   1.477  14.246
36017W        W 7546   7.570  22.526  14.000
36018W        W 7547  41.255  13.967   5.036
36019W        W 7548  16.840  11.853   4.184
36020W        W 7549  29.185   3.901   3.829
36021W        W 7550  11.797  28.662  14.245
36022W        W 7551   4.785  28.047  13.562
36023W        W 7552  28.611  24.636  14.746
36024W        W 7553  31.210   3.123  11.538
36025W        W 7554  44.386  12.346   2.554
36026W        W 7555  22.893  39.787  11.617
36027W        W 7556  24.665  28.582  14.371
36028W        W 7557  13.749  37.595  13.738
36029W        W 7558   5.577  24.326  11.599
36030W        W 7559  31.427  30.626   2.864
36031W        W 7560  13.213  39.614   2.866
36032W        W 7561  34.516  30.949  11.781
36033W        W 7562   4.920  13.256  10.665
36034W        W 7563  43.274  10.805   1.801
36035W        W 7564  25.887  16.112  12.367
36036W        W 7565  20.533   2.684  11.951
36037W        W 7566  34.031  11.830   0.998
36038W        W 7567  27.741  32.102  11.057
36039W        W 7568  25.270   6.675   1.896
36040W        W 7569   5.275  23.977   0.907
36041W        W 7570  32.560  27.222   0.006
36042W        W 7571  37.860  13.318   1.290
36043W        W 7572  13.675  24.614   3.163
36044W        W 7573  15.269  17.105   0.412
36045W        W 7574  27.931   6.227   5.021
36046W        W 7575   5.132  12.797  14.859
36047W        W 7576   5.035  19.973   1.530
36048W        W 7577   8.865  13.230  14.999
36049W        W 7578   9.882  44.231  12.215
36050W        W 7579  16.541   6.990  13.521
36051W        W 7580  32.189  20.013  11.602
36052W        W 7581  10.384  30.686   2.770
36053W        W 7582  42.328  37.063   4.384
36054W        W 7583  39.879  31.633  12.037
36055W        W 7584  25.747  25.701  14.973
36056W        W 7585  12.433   5.892   0.913
36057W        W 7586  16.172  38.404   2.197
36058W        W 7587  28.617  11.173   1.282
36059W        W 7588  14.286  40.629   3.845
36060W        W 7589  37.763  42.322   4.836
36061W        W 7590  11.067  41.734   2.448
36062W        W 7591  25.656  23.153  14.011
36063W        W 7592  10.360  35.404  10.795
36064W        W 7593  20.031  25.542   4.101
36065W        W 7594  43.850  18.339  11.375
36066W        W 7595  29.868  22.640  10.770
36067W        W 7596  15.623  18.791  14.817
36068W        W 7597  34.414  25.523  13.031
36069W        W 7598  12.710  36.916   4.819
36070W        W 7599  23.224  41.039   3.409
36071W        W 7600  29.723  26.679  10.648
36072W        W 7601   6.880  23.555   1.261
36073W        W 7602  33.601  31.594   1.171
36074W        W 7603  38.474  24.743   4.471
36075W        W 7604  15.792  35.670  12.365
36076W        W 7605  11.408  40.526   4.939
36077W        W 7606   6.872  13.205   3.785
36078W        W 7607  19.242  25.577   2.602
36079W        W 7608  34.201  42.880  11.147
36080W        W 7609  38.040  39.386  14.364
36081W        W 7610   3.949   2.972  12.518
36082W        W 7611  20.635  22.289   3.888
36083W        W 7612  41.519  38.176   1.792
36084W        W 7613  18.817   7.759   5.038
36085W        W 7614  25.695  43.311   3.823
36086W        W 7615  41.194  15.813   1.773
36087W        W 7616  20.979  29.556  14.697
36088W        W 7617  44.398  34.621  10.965
36089W        W 7618  14.858  23.677  13.640
36090W        W 7619   6.270  31.612  13.000
36091W        W 7620   9.293  20.664  10.599
36092W        W 7621  15.831  21.592  14.214
36093W        W 7622   6.930  36.144   0.964
36094W        W 7623  25.947  11.367   1.399
36095W        W 7624  30.742  21.972  14.922
36096W        W 7625   2.123  35.182  12.013
36097W        W 7626   8.795  44.673  12.090
36098W        W 7627  25.624  39.466   4.587
36099W        W 7628  33.170   2.362  14.339
36100W        W 7629   4.853  27.699  10.202
36101W        W 7630  16.400  37.945  12.854
36102W        W 7631  32.064   9.649  11.598
36103W        W 7632  10.985  28.558   4.493
36104W        W 7633  43.883  15.022   2.193
36105W        W 7634  30.967  12.834   4.119
36106W        W 7635   7.646  44.854   0.103
36107W        W 7636  40.407  17.171   4.479
36108W        W 7637  37.897   4.846   3.730
36109W        W 7638   7.628  15.215   2.718
36110W        W 7639  20.118  33.401  11.525
36111W        W 7640  20.728  27.503  14.962
36112W        W 7641  28.504  44.061   0.852
36113W        W 7642  31.947  43.438  12.081
36114W        W 7643   1.044  13.595  12.926
36115W        W 7644  29.880  19.689   2.282
36116W        W 7645  27.472  43.431   0.498
36117W        W 7646  15.828  21.002  12.456
36118W        W 7647  10.328  15.877  11.266
36119W        W 7648   3.512   8.673  11.236
36120W        W 7649  42.850  43.549  10.416
36121W        W 7650   2.689  32.055   4.595
36122W        W 7651  12.434   9.112  14.034
36123W        W 7652  40.275   9.888   1.005
36124W        W 7653   4.149  35.315   0.409
36125W        W 7654  22.231  22.213   1.460
36126W        W 7655  42.824  26.423   1.311
36127W        W 7656   9.990  21.377   1.283
36128W        W 7657  12.427  28.086  11.532
36129W        W 7658  10.505  15.679   4.624
36130W        W 7659  16.402  24.200   3.726
36131W        W 7660  10.928  24.248   2.285
36132W        W 7661  36.133  19.240   1.303
36133W        W 7662   0.894  44.728  14.902
36134W        W 7663   9.218  40.074   0.949
36135W        W 7664   0.630   6.223   3.121
36136W        W 7665  37.576   1.545  14.377
36137W        W 7666  28.825   7.148  13.516
36138W        W 7667  17.877  35.195   3.082
36139W        W 7668  13.270  20.580   2.579
36140W        W 7669  26.598  41.793  11.577
36141W        W 7670  20.048  31.501   1.717
36142W        W 7671  25.329  40.013   3.870
36143W        W 7672  26.961  36.429  10.760
36144W        W 7673   5.783   3.821  12.780
36145W        W 7674  15.828  27.316  13.376
36146W        W 7675   6.614   3.367  14.698
36147W        W 7676   2.837  17.797   0.784
36148W        W 7677  35.956  42.305   1.753
36149W        W 7678  36.109   6.950  14.539
36150W        W 7679  17.762  12.639   1.715
36151W        W 7680   4.810  44.263   1.485
36152W        W 7681  34.079  36.798  14.983
36153W        W 7682   2.876  30.602   0.755
36154W        W 7683  35.149  16.451  13.941
36155W        W 7684  39.839   2.869  12.418
36156W        W 7685   2.032  17.653   0.537
36157W        W 7686  18.558  31.667   4.519
36158W        W 7687  40.553  23.139  13.503
36159W        W 7688   2.860   3.815   4.860
36160W        W 7689  24.067  34.359   1.871
36161W        W 7690  13.972  17.520  11.505
36162W        W 7691  38.318   7.366  13.443
36163W        W 7692  26.503  13.934  11.598
36164W        W 7693  12.164  43.216   1.775
36165W        W 7694  42.012  26.747  11.528
36166W        W 7695  30.232  26.916  13.682
36167W        W 7696   3.823  20.599  10.608
36168W        W 7697  17.282  26.399   3.621
36169W        W 7698  21.059  29.203  12.486
36170W        W 7699  36.536  29.899  14.779
36171W        W 7700  40.269  38.540   0.276
36172W        W 7701  14.756  32.091   0.537
36173W        W 7702   1.015  33.979   3.059
36174W        W 7703  24.545   5.487  11.333
36175W        W 7704  38.199   8.432   1.851
36176W        W 7705   6.381   0.787  14.024
36177W        W 7706  31.963  38.798   0.839
36178W        W 7707  21.409  12.269  10.642
36179W        W 7708   7.544  30.205   2.743
36180W        W 7709   9.264   8.435  12.336
36181W        W 7710  36.304  17.689   4.662
36182W        W 7711  22.045   4.667  13.533
36183W        W 7712  22.636   0.466   4.981
36184W        W 7713  16.977  11.141   0.015
36185W        W 7714  28.755  37.829  11.886
36186W        W 7715  30.720   6.431  14.329
36187W        W 7716  37.835   2.900  11.529
36188W        W 7717  29.493  21.366  11.151
36189W        W 7718  16.598  34.179   2.917
36190W        W 7719  34.468   6.456  13.974
36191W        W 7720  19.109  40.462   3.421
36192W        W 7721   1.200  19.792   3.785
36193W        W 7722  29.008  19.131  14.972
36194W        W 7723  13.426  24.577  11.955
36195W        W 7724  21.798  18.070  13.128
36196W        W 7725  25.626  37.863  11.535
36197W        W 7726  19.328  17.065   4.693
36198W        W 7727  43.207  44.035  13.814
36199W        W 7728  10.412   6.305  10.627
36200W        W 7729  40.913   9.903  12.518
36201W        W 7730  44.905  12.681   4.288
36202W        W 7731  15.698  16.661   1.410
36203W        W 7732  41.826  31.170  13.070
36204W        W 7733  23.296  36.025   4.933
36205W        W 7734  31.010  15.255  12.059
36206W        W 7735  34.367  11.971  12.917
36207W        W 7736  34.499  12.633  14.812
36208W        W 7737   3.708  26.211   0.240
36209W        W 7738  13.672  41.447  14.823
36210W        W 7739  12.686  10.136  12.060
36211W        W 7740   7.012  23.006   0.905
36212W        W 7741  20.766   0.865  10.749
36213W        W 7742  38.851  43.866  10.707
36214W        W 7743  42.762  39.794  10.625
36215W        W 7744  40.464  16.021   3.297
36216W        W 7745  13.419  40.999   1.841
36217W        W 7746  42.764  19.674   1.109
36218W        W 7747  24.757  26.626  10.603
36219W        W 7748  21.386   0.925  12.571
36220W        W 7749   5.704   3.937  14.207
36221W        W 7750  22.231  24.506  14.827
36222W        W 7751  13.131   0.741  11.142
36223W        W 7752  17.706  42.257  14.453
36224W        W 7753  20.743  36.517  10.908
36225W        W 7754   3.919  37.919  11.189
36226W        W 7755   9.863  34.064   3.554
36227W        W 7756   5.136   0.012  13.610
36228W        W 7757  18.098  41.646  12.472
36229W        W 7758  41.059  29.494   2.320
36230W        W 7759   1.828  26.746   3.175
36231W        W 7760  43.881  26.980   4.513
36232W        W 7761  27.973  17.146  12.867
36233W        W 7762  31.133  31.542   3.675
36234W        W 7763  10.853  28.650   2.204
36235W        W 7764  12.157  25.767  11.066
36236W        W 7765  25.495  38.363   3.271
36237W        W 7766  25.042  34.799  13.462
36238W        W 7767  34.582  25.563  14.933
36239W        W 7768  25.047  16.223  14.183
36240W        W 7769  42.361  29.330   4.178
36241W        W 7770   8.731  19.281   4.022
36242W        W 7771  42.520   0.454  14.765
36243W        W 7772  10.942   9.933   0.399
36244W        W 7773  17.351  38.451   2.900
36245W        W 7774  29.102  36.388  14.981
36246W        W 7775  39.538  33.982   1.685
36247W        W 7776  31.409  43.406  12.138
36248W        W 7777  16.801  41.304  12.067
36249W        W 7778  28.915  34.664  13.037
36250W        W 7779  42.857  26.528   3.109
36251W        W 7780  16.161  30.749   0.437
36252W        W 7781  32.139  15.123   1.255
36253W        W 7782  26.068  44.063  10.571
36254W        W 7783  35.780  15.257  12.577
36255W        W 7784  28.980  36.108   1.860
36256W        W 7785  39.546  24.935   1.803
36257W        W 7786  28.367  37.447  12.031
36258W        W 7787  26.922   9.870  14.530
36259W        W 7788  25.203  12.815   1.229
36260W        W 7789  10.283  11.558   1.872
36261W        W 7790  36.997   1.236  12.521
36262W        W 7791  13.919  26.242   1.713
36263W        W 7792  33.652  26.086  11.959
36264W        W 7793  28.246  22.722  12.445
36265W        W 7794  27.649  29.947   0.653
36266W        W 7795  13.054  16.770  14.497
36267W        W 7796  35.005  44.356  14.662
36268W        W 7797   1.821   1.434   4.226
36269W        W 7798  34.904  13.597   1.401
36270W        W 7799  39.965  36.971  11.974
36271W        W 7800  15.094  18.613  11.491
36272W        W 7801  20.682  28.526  10.486
36273W        W 7802  10.241  42.842  10.622
36274W        W 7803  27.087  33.237  11.453
36275W        W 7804  14.178  35.634   2.792
36276W        W 7805  10.858  26.146  13.738
36277W        W 7806  18.285  28.048   3.665
36278W        W 7807  39.837  43.441   3.262
36279W        W 7808  25.231  20.746   3.668
36280W        W 7809  22.028  40.185  11.105
36281W        W 7810  14.934  17.190   0.829
36282W        W 7811  31.133  22.681   2.827
36283W        W 7812   2.362  15.079  10.434
36284W        W 7813  12.786  43.332  14.518
36285W        W 7814  21.524  17.726  14.492
36286W        W 7815  43.888   2.938  13.288
36287W        W 7816  32.387  41.785   3.263
36288W        W 7817  36.963  32.624   4.495
36289W        W 7818  43.159   6.891  13.987
36290W        W 7819  21.174  28.086   0.394
36291W        W 7820   8.021   7.614   3.654
36292W        W 7821   2.602   3.372   4.426
36293W        W 7822  28.059  44.215   4.615
36294W        W 7823  36.479  26.167  11.431
36295W        W 7824  22.717   9.586   2.831
36296W        W 7825  15.098  36.945   3.734
36297W        W 7826  19.613  21.435  10.586
36298W        W 7827  23.946  24.462  14.230
36299W        W 7828  17.510  37.129  11.067
36300W        W 7829  22.171   3.176   4.091
36301W        W 7830  37.952  22.577  14.914
36302W        W 7831  20.568  38.142  10.596
36303W        W 7832  28.562  25.424   0.242
36304W        W 7833   1.242   5.238  12.362
36305W        W 7834  28.722   1.523  10.916
36306W        W 7835   2.561   6.857  12.499
36307W        W 7836   9.693  18.700  11.078
36308W        W 7837   4.639  42.602   3.283
36309W        W 7838  44.385  23.468  14.785
36310W        W 7839  31.319  33.076  13.374
36311W        W 7840  16.597  32.251   5.015
36312W        W 7841  37.135  17.075  13.331
36313W        W 7842   0.391   1.777   0.697
36314W        W 7843  23.137  36.796   2.369
36315W        W 7844  17.575  32.965   3.106
36316W        W 7845  29.523  21.338  14.978
36317W        W 7846  34.400   3.664  12.436
36318W        W 7847  16.995  39.366   0.635
36319W        W 7848  22.262  18.752   0.324
36320W        W 7849  43.363   4.324  13.554
36321W        W 7850  21.989  30.202   1.455
36322W        W 7851  34.520  37.879   0.949
36323W        W 7852  42.745   7.713   5.084
36324W        W 7853   2.198   3.935  13.893
36325W        W 7854   2.496  16.061   3.186
36326W        W 7855  18.890   1.754  12.478
36327W        W 7856  21.507  24.219  11.671
36328W        W 7857  30.374  13.293  11.720
36329W        W 7858  30.496  43.568  12.908
36330W        W 7859  40.349  34.984  12.948
36331W        W 7860  26.606  20.227  14.461
36332W        W 7861  33.840  44.555  14.494
36333W        W 7862  44.915  42.384  11.942
36334W        W 7863   0.829  17.833  13.240
36335W        W 7864   0.895  31.454   3.285
36336W        W 7865  23.125  19.647   4.030
36337W        W 7866  10.781  20.669   3.777
36338W        W 7867  29.091  25.774   1.957
36339W        W 7868  34.969  34.626  11.627
36340W        W 7869  37.568  30.836  12.144
36341W        W 7870   7.653  36.577   2.380
36342W        W 7871  21.323  18.383   0.428
36343W        W 7872  36.533   7.656   1.662
36344W        W 7873   5.223  13.555   0.939
36345W        W 7874  18.689  31.204  14.172
36346W        W 7875  15.275  30.089  11.626
36347W        W 7876  26.128  33.452  13.902
36348W        W 7877  15.907   3.648   1.781
36349W        W 7878  14.388  44.488  12.121
36350W        W 7879  44.079  40.583  11.310
36351W        W 7880   7.754  40.806  10.653
36352W        W 7881  28.305  35.082   5.146
36353W        W 7882  44.065  25.976  11.112
36354W        W 7883  18.203  41.089  13.965
36355W        W 7884   7.450   8.018  13.377
36356W        W 7885  19.771  24.762  13.030
36357W        W 7886  16.328   8.792   3.720
36358W        W 7887  17.685  36.137   3.736
36359W        W 7888  18.199  38.029  14.896
36360W        W 7889  42.434  44.439  12.405
36361W        W 7890  35.620  39.988   1.339
36362W        W 7891  32.428  10.788   0.006
36363W        W 7892  38.082   5.808   2.655
36364W        W 7893  30.577  14.558   3.339
36365W        W 7894  27.923   0.039   1.060
36366W        W 7895  25.242  28.799   3.642
36367W        W 7896  17.972  34.857  14.950
36368W        W 7897   8.279  30.028   4.374
36369W        W 7898  34.439  18.709   0.986
36370W        W 7899  42.273  20.042  14.365
36371W        W 7900   8.837  19.760   4.192
36372W        W 7901  18.112  42.239   3.073
36373W        W 7902  25.041   1.116  13.983
36374W        W 7903  33.548  15.503  11.805
36375W        W 7904  33.695  17.179  12.543
36376W        W 7905   0.194  18.696   3.775
36377W        W 7906  43.451  30.644   4.717
36378W        W 7907  39.141  23.900  13.107
36379W        W 7908  30.780  34.893   4.817
36380W        W 7909   0.685  23.551  12.755
36381W        W 7910  14.071  13.493   0.380
36382W        W 7911  17.621  42.963  10.011
36383W        W 7912  21.411  31.812   4.609
36384W        W 7913  28.089   2.456   1.568
36385W        W 7914  40.057   0.373  13.722
36386W        W 7915  30.119  25.742  12.939
36387W        W 7916  44.010  31.715  10.748
36388W        W 7917  26.276   9.113   4.976
36389W        W 7918  39.403  28.609  11.696
36390W        W 7919  26.576  28.076   1.885
36391W        W 7920  40.990  30.535   0.791
36392W        W 7921   1.372  20.169  14.923
36393W        W 7922  20.197  33.320   3.754
36394W        W 7923  19.569  14.138  11.266
36395W        W 7924  21.719  42.558  12.988
36396W        W 7925  10.580  41.081   2.804
36397W        W 7926  32.289  24.787   0.945
36398W        W 7927   3.501  39.824  13.370
36399W        W 7928  30.502  39.275  12.416
36400W        W 7929  41.473  27.524   2.409
36401W        W 7930  37.500  12.400  11.242
36402W        W 7931  26.563  17.945   1.224
36403W        W 7932  26.821   2.223  12.653
36404W        W 7933  41.694   7.217   0.498
36405W        W 7934  20.669   8.249   2.602
36406W        W 7935  32.144  39.054   1.763
36407W        W 7936  29.892  21.038  11.144
36408W        W 7937  23.647  37.495   0.016
36409W        W 7938  34.545   1.291  13.626
36410W        W 7939  11.189  17.622  12.947
36411W        W 7940  17.611  15.709   2.858
36412W        W 7941  34.087  27.686  14.680
36413W        W 7942   0.621   2.308   4.619
36414W        W 7943  40.043  15.745   0.198
36415W        W 7944  32.916   3.083  14.759
36416W        W 7945  24.515  11.383   0.370
36417W        W 7946  32.922  21.116   1.041
36418W        W 7947  27.485  38.229   0.362
36419W        W 7948  16.309  15.886  14.531
36420W        W 7949  29.156  40.799  11.603
36421W        W 7950  16.175  35.485  14.488
36422W        W 7951  23.255   1.879  12.433
36423W        W 7952  37.376  36.033   4.509
36424W        W 7953   8.728   9.696   3.842
36425W        W 7954  36.407  10.349   3.611
36426W        W 7955  30.137   5.474  12.059
36427W        W 7956  25.684   3.243   4.750
36428W        W 7957  34.112  35.720  11.335
36429W        W 7958  34.479   7.299   1.916
36430W        W 7959  21.218   1.043  13.566
36431W        W 7960  16.700  32.899   1.663
36432W        W 7961  30.895  32.798  10.702
36433W        W 7962   9.781   0.398   4.159
36434W        W 7963  19.021   4.785   4.522
36435W        W 7964   6.688   3.036  14.251
36436W        W 7965  25.212  38.780  11.855
36437W        W 7966  26.640  41.429  12.957
36438W        W 7967  12.861  40.329  14.320
36439W        W 7968   6.327  42.738   1.245
36440W        W 7969  14.621  10.951  14.809
36441W        W 7970  26.242   7.768   2.864
36442W        W 7971  23.014  13.706   2.263
36443W        W 7972   7.784   1.846  10.684
36444W        W 7973  12.387  44.364  10.903
36445W        W 7974  22.661  34.791  12.608
36446W        W 7975  12.157  13.902   0.230
36447W        W 7976  43.700  24.527   3.954
36448W        W 7977  28.559   7.669  14.832
36449W        W 7978  12.718  10.598   0.746
36450W        W 7979  23.655  11.142   0.226
36451W        W 7980  38.293   4.480   2.522
36452W        W 7981  44.675   3.975   1.710
36453W        W 7982  44.267  19.200   4.669
36454W        W 7983  21.690  44.348  11.623
36455W        W 7984  35.412  16.642  11.251
36456W        W 7985  35.065  22.290  13.202
36457W        W 7986  11.601  24.508  12.082
36458W        W 7987  25.507  13.880  14.032
36459W        W 7988  20.721  33.543   3.708
36460W        W 7989  33.199  36.501  12.473
36461W        W 7990  31.361  30.983  12.485
36462W        W 7991   8.131   0.918   5.406
36463W        W 7992  29.160  21.646   3.411
36464W        W 7993  25.051   7.943   2.197
36465W        W 7994  28.158  14.924   1.311
36466W        W 7995  15.002  22.713  12.104
36467W        W 7996  17.435  17.968  13.400
36468W        W 7997   9.971   1.369  13.969
36469W        W 7998   4.698  14.678  10.125
36470W        W 7999  15.990  39.713  12.913
36471W        W 8000  32.598  40.117   3.960
36472W        W 8001  32.507  32.162   0.323
36473W        W 8002   7.146  13.164   2.531
36474W        W 8003   6.752  27.083   2.232
36475W        W 8004  23.224  36.037  12.393
36476W        W 8005   4.257  31.339   2.410
36477W        W 8006   1.523  14.330   4.412
36478W        W 8007  37.835   1.820   1.241
36479W        W 8008  20.143   8.805  11.143
36480W        W 8009  37.579   2.064  14.393
36481W        W 8010  15.221  37.072   0.421
36482W        W 8011  19.908  32.709  13.588
36483W        W 8012  34.508  25.637   1.771
36484W        W 8013  30.242  32.372  11.170
36485W        W 8014  44.382   2.433  12.891
36486W        W 8015  20.788  10.183  13.478
36487W        W 8016  10.290  14.288   3.601
36488W        W 8017  14.370  17.435   3.133
36489W        W 8018  16.200  22.316  13.900
36490W        W 8019  11.780   1.281  13.761
36491W        W 8020  13.726  17.751  14.732
36492W        W 8021  41.422  22.158   2.463
36493W        W 8022  39.620  14.431   5.014
36494W        W 8023  35.476  43.297  12.798
36495W        W 8024  40.464   5.978  12.521
36496W        W 8025  27.853   6.619   0.840
36497W        W 8026  31.580   7.441  14.225
36498W        W 8027  13.650  34.132   1.396
36499W        W 8028  42.835  11.123  14.743
36500W        W 8029  34.326  35.500   0.851
36501W        W 8030  39.038  11.627  12.186
36502W        W 8031  37.466   8.100   4.170
36503W        W 8032   1.275  19.429   0.846
36504W        W 8033  13.135  16.597  11.126
36505W        W 8034  14.289  44.274  10.594
36506W        W 8035   0.364   0.449   1.144
36507W        W 8036  33.843  24.170   4.134
36508W        W 8037   9.353  19.047   5.220
36509W        W 8038  13.274   1.030  10.729
36510W        W 8039  26.183  35.612   1.863
36511W        W 8040  30.105  35.471   3.607
36512W        W 8041  12.605   5.435   3.534
36513W        W 8042  34.376  37.615  11.551
36514W        W 8043   2.979  37.669  14.083
36515W        W 8044  36.422  10.168   1.266
36516W        W 8045   2.351   8.426   1.138
36517W        W 8046   9.819  27.144   3.827
36518W        W 8047  17.016  11.235   2.490
36519W        W 8048  44.680  32.847  10.328
36520W        W 8049   2.968  35.958   4.183
36521W        W 8050  36.934  37.527   0.018
36522W        W 8051   7.443  27.493  14.492
36523W        W 8052   8.616  27.150   1.273
36524W        W 8053  40.045   9.026   1.270
36525W        W 8054   0.201  41.861  14.751
36526W        W 8055  36.384   1.605   4.915
36527W        W 8056  26.709  37.458   0.269
36528W        W 8057   3.894  24.503   2.759
36529W        W 8058   5.290  37.566   2.650
36530W        W 8059   3.302  28.714   1.852
36531W        W 8060   4.093  20.716   2.333
36532W        W 8061  19.818  19.571  11.608
36533W        W 8062  29.418  29.022   2.227
36534W        W 8063   8.809   9.421   4.259
36535W        W 8064  22.172  20.572  12.112
36536W        W 8065  15.054  33.813   2.675
36537W        W 8066  37.290   2.259   4.346
36538W        W 8067  20.149  38.990   1.823
36539W        W 8068   9.090  43.690   2.720
36540W        W 8069  43.476  11.846  10.829
36541W        W 8070   4.719  10.674  12.130
36542W        W 8071  38.380  13.764  10.676
36543W        W 8072  22.431  41.034  10.719
36544W        W 8073  22.742  41.092   1.754
36545W        W 8074  26.275  15.829  12.661
36546W        W 8075  43.951  30.003   2.209
36547W        W 8076   1.631   2.284   3.611
36548W        W 8077  21.372  35.675   0.084
36549W        W 8078  35.340   6.548   2.528
36550W        W 8079  38.029  31.837  13.030
36551W        W 8080  22.749  19.058   2.363
36552W        W 8081  41.918  30.445  10.266
36553W        W 8082  12.568  33.734   0.785
36554W        W 8083  37.973  28.011   3.705
36555W        W 8084  20.132  20.616  14.293
36556W        W 8085  27.665  12.556  11.610
36557W        W 8086   2.453  37.530  12.082
36558W        W 8087  20.812  15.067  12.015
36559W        W 8088  25.697  17.132  13.417
36560W        W 8089  32.814  18.842   4.176
36561W        W 8090  26.004  12.299   1.233
36562W        W 8091  15.562  24.182   4.696
36563W        W 8092  17.066   0.807  14.880
36564W        W 8093  14.422  38.443  14.902
36565W        W 8094  32.543  29.267   5.057
36566W        W 8095  34.991  19.269   4.825
36567W        W 8096  15.123  33.539   1.753
36568W        W 8097  24.197  18.246  14.343
36569W        W 8098  24.106  37.599  14.822
36570W        W 8099  21.768  22.688  12.050
36571W        W 8100  27.420  38.531  11.437
36572W        W 8101  37.273  24.052   0.324
36573W        W 8102  17.654   6.454   4.304
36574W        W 8103  11.804  26.890  11.602
36575W        W 8104  39.973  34.156  11.167
36576W        W 8105  37.860  11.607  14.877
36577W        W 8106  30.598   3.893  10.523
36578W        W 8107   5.755  22.508  10.574
36579W        W 8108  44.860  41.138  14.890
36580W        W 8109  21.034  36.941   2.347
36581W        W 8110  16.195  24.623   4.530
36582W        W 8111  19.491  35.278  13.318
36583W        W 8112  40.022  13.888  13.114
36584W        W 8113  21.085  36.392   3.101
36585W        W 8114  37.951  29.133  11.682
36586W        W 8115   5.339  36.948   4.031
36587W        W 8116  30.605   1.530  14.784
36588W        W 8117  15.395  19.691  11.927
36589W        W 8118  42.922  39.291   4.188
36590W        W 8119   7.115  41.919  13.664
36591W        W 8120  16.836  11.206   3.172
36592W        W 8121  29.198  36.563  11.320
36593W        W 8122  37.948   8.486   0.085
36594W        W 8123  26.070   4.423  14.065
36595W        W 8124  35.896  20.868   1.917
36596W        W 8125  23.633  21.557  11.164
36597W        W 8126  33.432  23.414   0.771
36598W        W 8127  14.331  43.448  10.712
36599W        W 8128   3.477  35.939   4.180
36600W        W 8129  17.339  38.540   1.201
36601W        W 8130   0.859  22.504  11.306
36602W        W 8131  35.304   9.395  13.874
36603W        W 8132   1.918  42.029  14.709
36604W        W 8133  26.462   1.251   3.075
36605W        W 8134  14.296  28.691   0.145
36606W        W 8135  29.700   2.526  11.440
36607W        W 8136   7.704  26.445   1.418
36608W        W 8137  27.590   9.854  14.982
36609W        W 8138  17.502   7.282   0.596
36610W        W 8139  21.464  18.281   2.256
36611W        W 8140  10.593  36.950  11.608
36612W        W 8141  12.873   7.165   3.118
36613W        W 8142  13.562  27.022   2.235
36614W        W 8143  15.667  13.597   2.374
36615W        W 8144  33.993  41.272  11.139
36616W        W 8145   7.666  26.405  12.166
36617W        W 8146  26.003  31.471   3.753
36618W        W 8147  32.029  38.447  14.964
36619W        W 8148  24.970  11.140  13.861
36620W        W 8149  11.325   0.393  12.397
36621W        W 8150  33.036   3.688   4.366
36622W        W 8151  16.338  18.013  10.167
36623W        W 8152  21.349  35.021   3.696
36624W        W 8153  11.448  19.118  14.953
36625W        W 8154  33.822  31.475   4.824
36626W        W 8155  44.389  19.141  14.715
36627W        W 8156  39.375  31.863   4.161
36628W        W 8157   3.585  27.250  14.323
36629W        W 8158  13.015  31.502   2.849
36630W        W 8159  41.334   7.367  13.608
36631W        W 8160  15.564  34.384   0.746
36632W        W 8161  29.733  23.634   1.277
36633W        W 8162  36.485  17.163   3.077
36634W        W 8163   8.893  29.964  13.964
36635W        W 8164  10.961  20.105  13.926
36636W        W 8165   5.806  28.577  14.087
36637W        W 8166   2.701  32.891  12.796
36638W        W 8167  10.426  31.760   2.299
36639W        W 8168  41.803  30.435   3.720
36640W        W 8169  22.902  34.007  14.102
36641W        W 8170   5.460   1.794   4.622
36642W        W 8171  36.245  22.504   4.356
36643W        W 8172  24.959  17.659   0.957
36644W        W 8173  28.059  32.386   1.815
36645W        W 8174  19.649  14.301   4.569
36646W        W 8175  11.184  26.968  13.878
36647W        W 8176  37.780   9.949  11.531
36648W        W 8177  37.910  43.376  12.960
36649W        W 8178  23.076  19.014   3.357
36650W        W 8179  11.152  34.107   0.982
36651W        W 8180  15.298  16.688   2.595
36652W        W 8181   4.931  21.254   3.988
36653W        W 8182  14.679  39.709   0.248
36654W        W 8183  20.037  10.903  12.371
36655W        W 8184  24.529  33.655  11.589
36656W        W 8185  36.135   2.679   0.301
36657W        W 8186  37.181  36.760  11.110
36658W        W 8187   6.476  23.573   3.765
36659W        W 8188  34.318  20.241   0.948
36660W        W 8189  41.995  22.711  13.039
36661W        W 8190  14.783   6.138   3.547
36662W        W 8191  18.174  31.810  11.900
36663W        W 8192  36.339  24.445   1.089
36664W        W 8193  37.916   0.523  13.023
36665W        W 8194  32.984   0.267  11.466
36666W        W 8195  43.516  35.108  14.023
36667W        W 8196  43.529  24.073   4.209
36668W        W 8197  22.709   4.256   4.689
36669W        W 8198  18.505  14.102   1.829
36670W        W 8199  27.043   5.664   2.761
36671W        W 8200   4.381  25.479   2.750
36672W        W 8201  30.666  25.039   2.866
36673W        W 8202  26.423  39.112   2.673
36674W        W 8203  39.661  25.140   3.232
36675W        W 8204  43.574  40.876   0.140
36676W        W 8205  40.481  33.842  13.280
36677W        W 8206  12.245   3.454  12.160
36678W        W 8207  43.937   1.355   3.750
36679W        W 8208  15.735   1.480  13.798
36680W        W 8209  15.983   7.050   4.981
36681W        W 8210  42.325  38.717  11.187
36682W        W 8211   7.832  44.396   0.430
36683W        W 8212  35.361  31.406   4.942
36684W        W 8213  39.120  21.165   2.813
36685W        W 8214  28.093  22.764   4.669
36686W        W 8215  12.222  32.918  12.277
36687W        W 8216  43.040  37.252  14.281
36688W        W 8217  14.265   6.263   5.461
36689W        W 8218  27.911  39.411  14.986
36690W        W 8219  22.285  22.138  10.294
36691W        W 8220  43.433  42.680   3.637
36692W        W 8221   7.506  37.499  10.308
36693W        W 8222   1.814  37.968  10.465
36694W        W 8223  43.943  34.327  12.529
36695W        W 8224  23.854  25.440  12.424
36696W        W 8225   2.458  26.508  10.541
36697W        W 8226  41.259  11.434  13.934
36698W        W 8227  18.094  18.308  14.691
36699W        W 8228  12.024   3.216   4.658
36700W        W 8229  44.468  11.880  12.911
36701W        W 8230   1.297  42.971   0.155
36702W        W 8231  43.382   3.297  12.530
36703W        W 8232  19.293   8.716   3.110
36704W        W 8233  11.902  18.327   2.906
36705W        W 8234   7.439  24.420  12.828
36706W        W 8235   6.712  27.898  11.312
36707W        W 8236  38.944  33.353  13.413
36708W        W 8237  38.359  17.195  11.578
36709W        W 8238  40.665  35.337   4.977
36710W        W 8239   2.888  31.474   0.208
36711W        W 8240  24.015   3.251  14.829
36712W        W 8241   9.848  16.051  11.110
36713W        W 8242   0.446   7.222   0.987
36714W        W 8243  36.950  40.100  13.994
36715W        W 8244  34.825   0.421   3.574
36716W        W 8245  30.465  17.642   4.657
36717W        W 8246   5.288  11.172  10.684
36718W        W 8247  31.980  38.797  10.904
36719W        W 8248  21.966  26.263   2.106
36720W        W 8249   9.789  14.981  13.886
36721W        W 8250  20.570  18.744  13.586
36722W        W 8251  40.429  40.146  12.573
36723W        W 8252  33.306  31.078  14.709
36724W        W 8253  29.407  13.238   4.952
36725W        W 8254  38.691  44.159   3.273
36726W        W 8255  39.232  37.992  13.051
36727W        W 8256  31.730  23.743  12.485
36728W        W 8257  12.710   0.215   1.229
36729W        W 8258  31.871  31.902  10.568
36730W        W 8259  27.048  12.970  13.630
36731W        W 8260  29.704  12.795   3.820
36732W        W 8261  19.688  36.771   1.905
36733W        W 8262   0.305  31.229  11.661
36734W        W 8263  13.143  14.264  12.409
36735W        W 8264   7.751  20.242  10.579
36736W        W 8265   1.888  17.968   2.820
36737W        W 8266  12.717  29.889   0.873
36738W        W 8267  18.111  19.907  11.120
36739W        W 8268  12.586  40.474   4.662
36740W        W 8269  36.324  35.019  10.759
36741W        W 8270  10.758  19.242  11.626
36742W        W 8271  44.111  21.545  13.486
36743W        W 8272  11.748  42.325  11.235
36744W        W 8273  13.467  27.004  13.498
36745W        W 8274  11.294   3.215   0.067
36746W        W 8275   5.024  27.236   3.707
36747W        W 8276  10.239   7.078   4.518
36748W        W 8277  19.377   2.034   0.787
36749W        W 8278  26.635   8.277   1.494
36750W        W 8279  36.992   5.964  12.476
36751W        W 8280  35.627  29.604   4.214
36752W        W 8281   1.326   8.199  11.710
36753W        W 8282  22.639  18.089   1.673
36754W        W 8283  33.969  39.048   4.657
36755W        W 8284  38.219   5.859   4.553
36756W        W 8285  19.295  17.229  11.926
36757W        W 8286  38.456  22.615   2.253
36758W        W 8287   1.789  42.521  14.513
36759W        W 8288  15.540  42.878  12.818
36760W        W 8289  34.004  23.793  11.669
36761W        W 8290   5.707  22.231  11.480
36762W        W 8291  29.201   2.305  10.716
36763W        W 8292  11.132  17.766  12.054
36764W        W 8293   1.921   6.651  13.506
36765W        W 8294  28.211   1.250  11.599
36766W        W 8295  29.067  28.246   4.491
36767W        W 8296   5.440   8.906  14.081
36768W        W 8297  40.535   2.874   0.235
36769W        W 8298  13.989  26.023  12.314
36770W        W 8299  13.641  16.116  12.398
36771W        W 8300   5.429   3.845   0.851
36772W        W 8301  10.787  42.805  14.279
36773W        W 8302  22.540   5.189   3.205
36774W        W 8303  38.726  22.660  12.680
36775W        W 8304  30.203  32.538  12.046
36776W        W 8305  20.003  39.829   2.135
36777W        W 8306  33.348  34.782  13.082
36778W        W 8307  30.672  26.409   3.598
36779W        W 8308  37.346  21.084  12.958
36780W        W 8309  25.502  40.464  11.136
36781W        W 8310  37.980  25.170   2.553
36782W        W 8311  34.408  28.319   2.644
36783W        W 8312   6.474  39.425  11.328
36784W        W 8313  13.934  10.760   2.331
36785W        W 8314  13.641  35.473   4.245
36786W        W 8315   9.104  29.903   3.681
36787W        W 8316  20.205  24.793   4.522
36788W        W 8317  35.634  22.037   0.983
36789W        W 8318   3.092  32.696   2.583
36790W        W 8319  18.311  14.256   0.848
36791W        W 8320  29.060  28.700   4.755
36792W        W 8321  14.505  33.136  10.492
36793W        W 8322   2.091  40.576  10.261
36794W        W 8323  12.235  43.480  14.389
36795W        W 8324  18.208  12.337  12.582
36796W        W 8325  27.248   8.327   1.177
36797W        W 8326  35.058   0.901  11.334
36798W        W 8327  21.073  32.318   3.589
36799W        W 8328  18.650  15.090  11.335
36800W        W 8329  39.614  32.067  12.901
36801W        W 8330  37.964  44.586   1.321
36802W        W 8331   0.595  40.341   1.304
36803W        W 8332  21.972  35.283  11.189
36804W        W 8333   2.333  33.134   0.253
36805W        W 8334  12.299   0.420  12.741
36806W        W 8335   2.785  33.835  14.376
36807W        W 8336  33.551   2.997  10.685
36808W        W 8337  40.568   0.411  11.530
36809W        W 8338  22.583  10.871  12.583
36810W        W 8339  18.365  14.719   4.550
36811W        W 8340   9.844  24.707  12.156
36812W        W 8341  11.303  25.521   0.766
36813W        W 8342   8.439  25.270   2.848
36814W        W 8343  42.893   3.473  13.025
36815W        W 8344  18.272  33.944   3.707
36816W        W 8345  27.037   9.694   3.645
36817W        W 8346  18.322  10.319   3.755
36818W        W 8347   5.328   2.954  13.606
36819W        W 8348  20.367  43.692   1.678
36820W        W 8349  44.340  10.177   4.584
36821W        W 8350  23.290  19.750  12.216
36822W        W 8351  19.188   4.781  11.003
36823W        W 8352  30.852   1.485  10.749
36824W        W 8353  21.583  21.799  12.665
36825W        W 8354  26.430  44.897   2.891
36826W        W 8355  25.400  36.040   4.175
36827W        W 8356  28.888  34.217  12.444
36828W        W 8357   6.252  13.150  12.650
36829W        W 8358  17.292   3.415   2.953
36830W        W 8359  44.381  39.044  14.368
36831W        W 8360  17.829  16.204  12.430
36832W        W 8361  41.530  40.968  13.856
36833W        W 8362  21.894  19.104   0.381
36834W        W 8363  18.489  43.477  14.386
36835W        W 8364  41.855   5.018   4.485
36836W        W 8365   1.210  22.297   0.916
36837W        W 8366  29.003  41.409   3.766
36838W        W 8367  34.988  34.887   4.133
36839W        W 8368  41.292  25.431  14.404
36840W        W 8369  34.306  13.403   0.393
36841W        W 8370  33.068  39.271   1.987
36842W        W 8371  40.440   9.632   2.772
36843W        W 8372  15.723   3.389   2.639
36844W        W 8373  30.140  22.160   3.642
36845W        W 8374  32.664   0.736   1.672
36846W        W 8375  10.093  10.781  10.325
36847W        W 8376  37.196  41.581  13.794
36848W        W 8377  37.903  20.394  11.192
36849W        W 8378   1.299  33.057  13.946
36850W        W 8379  36.765   9.716  13.062
36851W        W 8380  43.892  29.574  11.539
36852W        W 8381  35.034  32.370  12.854
36853W        W 8382  24.798  38.026   4.264
36854W        W 8383  15.570  42.757   2.261
36855W        W 8384  11.720  42.734  10.547
36856W        W 8385  37.964   8.364  13.583
36857W        W 8386  38.081  12.304   0.924
36858W        W 8387  12.359  12.790   0.916
36859W        W 8388  39.772   2.773   0.870
36860W        W 8389  32.129   8.607   4.429
36861W        W 8390  13.175   4.419   0.245
36862W        W 8391  15.995   3.216  11.305
36863W        W 8392  42.357  27.539   0.294
36864W        W 8393  10.206  41.168   3.649
36865W        W 8394  20.237  12.774   0.750
36866W        W 8395  11.834  33.404  12.035
36867W        W 8396  18.346  12.712   0.785
36868W        W 8397  30.184   6.889  14.406
36869W        W 8398   1.920  38.863  12.616
36870W        W 8399  32.300  19.598   4.988
36871W        W 8400  43.112  18.811  14.953
36872W        W 8401  16.172  16.286  11.967
36873W        W 8402  30.428  43.481   4.930
36874W        W 8403  26.059  17.713   1.223
36875W        W 8404  23.994  18.233   0.971
36876W        W 8405  35.086  39.038  14.291
36877W        W 8406  20.694  24.929  12.697
36878W        W 8407  10.302  40.882   3.206
36879W        W 8408  21.299  33.373   2.890
36880W        W 8409   9.255  25.684  10.677
36881W        W 8410  38.537  16.733  13.857
36882W        W 8411   1.137  21.803   0.868
36883W        W 8412  17.486  39.472   3.886
36884W        W 8413   7.738  24.404   3.662
36885W        W 8414  42.187  31.610   3.183
36886W        W 8415   5.615  17.350  11.927
36887W        W 8416  10.434  26.570  10.813
36888W        W 8417   3.671  33.683  13.044
36889W        W 8418  12.182  13.051  11.522
36890W        W 8419   0.901   9.644  13.953
36891W        W 8420  11.645   2.384   0.951
36892W        W 8421   5.155  17.599   1.047
36893W        W 8422  18.803  13.761  14.465
36894W        W 8423  42.509   4.261  13.889
36895W        W 8424  26.605  18.859  14.317
36896W        W 8425  25.040  10.194   1.325
36897W        W 8426  14.649  31.500  10.871
36898W        W 8427   5.369  30.477   2.387
36899W        W 8428  16.017  37.320   0.713
36900W        W 8429  21.783  42.491  10.225
36901W        W 8430  36.775  43.528   3.644
36902W        W 8431  12.912  12.851   2.137
36903W        W 8432  11.578  18.090   4.254
36904W        W 8433  36.383   2.671  13.549
36905W        W 8434  34.930   1.878   2.340
36906W        W 8435   7.772  34.011   4.747
36907W        W 8436  31.998  39.326  13.143
36908W        W 8437  19.313   5.814   2.719
36909W        W 8438  24.050  22.767  12.256
36910W        W 8439   6.091   0.705  14.430
36911W        W 8440   3.400  41.536   3.626
36912W        W 8441  41.016  23.822  14.296
36913W        W 8442  31.175  42.978  12.377
36914W        W 8443   5.177  21.883  14.948
36915W        W 8444  41.721  41.876  11.153
36916W        W 8445  25.072  11.754  14.391
36917W        W 8446   2.753  21.186  13.520
36918W        W 8447  31.667  14.104  12.055
36919W        W 8448  13.579   3.361  14.930
36920W        W 8449  22.769  15.334  10.302
36921W        W 8450  12.372  25.250   3.150
36922W        W 8451   5.826  10.115   2.274
36923W        W 8452  15.081  18.877  13.814
36924W        W 8453  27.907  21.434   3.919
36925W        W 8454  42.794  17.705   2.013
36926W        W 8455  36.609  22.102   2.817
36927W        W 8456  38.320  18.696  14.404
36928W        W 8457  26.055  44.461  12.284
36929W        W 8458   2.047  27.543   4.263
36930W        W 8459  18.177  38.417   0.676
36931W        W 8460  10.219  44.562  12.043
36932W        W 8461  39.114  44.396   1.835
36933W        W 8462  40.584  35.863  10.759
36934W        W 8463  16.989  25.203   2.910
36935W        W 8464  29.402  30.987   1.869
36936W        W 8465  18.116  22.345   3.282
36937W        W 8466  35.887   4.128   2.826
36938W        W 8467  14.832  31.364   1.837
36939W        W 8468  17.074  21.982   0.286
36940W        W 8469   1.303   5.821  11.144
36941W        W 8470  24.857   4.252   3.638
36942W        W 8471  24.249   1.018  14.325
36943W        W 8472  34.411  12.521  14.324
36944W        W 8473   2.738  11.925  11.116
36945W        W 8474  40.644  16.722   2.259
36946W        W 8475  24.723   1.388   3.340
36947W        W 8476  23.909  37.336  12.167
36948W        W 8477  25.032  42.894   3.830
36949W        W 8478  26.058  23.442  11.140
36950W        W 8479  40.623  16.717   0.827
36951W        W 8480   8.763   2.453   0.329
36952W        W 8481   0.443  12.191   0.097
36953W        W 8482   1.827  22.081  14.114
36954W        W 8483  16.845   1.009  14.447
36955W        W 8484   4.688  25.144   3.827
36956W        W 8485  31.936   7.286   1.694
36957W        W 8486  21.713  33.078   3.737
36958W        W 8487   5.260  17.145   4.194
36959W        W 8488   9.119  13.164   3.279
36960W        W 8489  33.032  40.512   3.372
36961W        W 8490  42.873  29.457   4.139
36962W        W 8491  27.045  21.708  13.565
36963W        W 8492  44.232   7.671   2.777
36964W        W 8493  14.458  33.297   2.813
36965W        W 8494  36.348  13.686  11.457
36966W        W 8495   2.847  30.096   3.078
36967W        W 8496   1.087  15.774  10.447
36968W        W 8497   0.491  42.179  13.570
36969W        W 8498  43.301  17.673  12.113
36970W        W 8499  31.108  39.403   2.797
36971W        W 8500  37.971  43.587  14.748
36972W        W 8501   7.602  27.633  14.015
36973W        W 8502  10.429   8.854   2.272
36974W        W 8503  30.871  19.224  11.023
36975W        W 8504  39.315  22.256  12.049
36976W        W 8505  24.181   7.892   4.893
36977W        W 8506  28.719  17.184  14.495
36978W        W 8507  32.515  33.391  11.059
36979W        W 8508  35.070  44.012  11.161
36980W        W 8509   4.592   2.927   3.309
36981W        W 8510   9.169  37.603  14.970
36982W        W 8511  34.506  34.621   3.777
36983W        W 8512  31.472  18.785   0.214
36984W        W 8513   2.368  43.035  14.857
36985W        W 8514  42.841  26.765   0.298
36986W        W 8515  20.534  14.334   4.319
36987W        W 8516  37.995  12.284   3.250
36988W        W 8517  16.431   3.738   3.084
36989W        W 8518  21.533  37.734   4.593
36990W        W 8519   7.391   0.268  14.368
36991W        W 8520  33.496  41.878  11.547
36992W        W 8521   7.720  38.419   4.659
36993W        W 8522  29.427  18.806  14.832
36994W        W 8523  39.429  33.142   0.844
36995W        W 8524  15.678  30.193  12.392
36996W        W 8525  14.144  39.241  12.512
36997W        W 8526  44.437  21.299   3.137
36998W        W 8527   0.291  39.907  12.681
36999W        W 8528  31.417   6.703   4.548
37000W        W 8529   4.809  43.218  10.969
37001W        W 8530  13.058  11.039   4.931
37002W        W 8531  38.063  23.524   2.738
37003W        W 8532  17.329  13.341   1.330
37004W        W 8533  18.046  31.611   0.072
37005W        W 8534  14.031  23.040  11.210
37006W        W 8535   8.850  18.876   3.725
37007W        W 8536  12.559  10.177   3.333
37008W        W 8537  10.071  26.261   0.243
37009W        W 8538  20.797  25.744  13.076
37010W        W 8539  25.921  10.850   3.961
37011W        W 8540  31.173   7.251  13.081
37012W        W 8541  37.889   5.444   4.442
37013W        W 8542  18.058  31.981   2.267
37014W        W 8543  41.754  41.518  10.015
37015W        W 8544  43.695  37.443   4.127
37016W        W 8545  30.008  15.622  10.650
37017W        W 8546  44.273  11.770  13.663
37018W        W 8547   6.343   2.854   0.969
37019W        W 8548  42.282  23.063   2.754
37020W        W 8549  40.015  36.652   2.071
37021W        W 8550  12.847   2.008   4.026
37022W        W 8551  28.537  16.075  11.946
37023W        W 8552  17.208  22.054   4.156
37024W        W 8553  24.514  30.327   3.185
37025W        W 8554  41.310  40.446   0.082
37026W        W 8555  35.447  25.780  11.959
37027W        W 8556   4.182  41.246   4.678
37028W        W 8557  29.659  19.073   0.332
37029W        W 8558  20.268   1.639   3.611
37030W        W 8559  37.551  37.734   2.685
37031W        W 8560  21.239  10.926   2.744
37032W        W 8561   4.271  26.080  14.308
37033W        W 8562  42.941   0.727   5.134
37034W        W 8563  39.589  27.108  14.912
37035W        W 8564  11.810  34.938  11.239
37036W        W 8565   3.902   9.879   1.885
37037W        W 8566  27.079  25.611   2.856
37038W        W 8567  36.923   9.130  14.815
37039W        W 8568  44.306  23.325  14.295
37040W        W 8569   2.286  19.872   1.332
37041W        W 8570  34.125  33.727  14.318
37042W        W 8571  43.578  25.987  10.955
37043W        W 8572  25.400  21.243  12.611
37044W        W 8573  43.489  15.469  10.278
37045W        W 8574   4.684  24.183  11.919
37046W        W 8575   0.773   6.812   2.644
37047W        W 8576  37.626  13.069  10.501
37048W        W 8577  16.692   6.682   4.300
37049W        W 8578   9.065  26.115   2.445
37050W        W 8579   3.918  20.770  12.836
37051W        W 8580  31.146   2.691  13.959
37052W        W 8581  42.067  10.108  14.757
37053W        W 8582  33.935  32.188   1.139
37054W        W 8583  27.587  42.277  14.830
37055W        W 8584  35.496  40.998   0.449
37056W        W 8585  44.504   5.763   3.874
37057W        W 8586  40.246   9.659  11.556
37058W        W 8587   6.995  17.234   0.168
37059W        W 8588  37.265   3.726   3.489
37060W        W 8589   3.442   5.918   0.895
37061W        W 8590  18.123  13.937  13.898
37062W        W 8591  32.163  35.871   2.358
37063W        W 8592  25.614  18.254  12.188
37064W        W 8593  29.582  25.155  10.696
37065W        W 8594  32.317  18.336  14.903
37066W        W 8595   1.469  42.833  11.591
37067W        W 8596  29.438  25.575   0.278
37068W        W 8597  39.567  31.455  14.750
37069W        W 8598   4.010  37.093  14.597
37070W        W 8599  40.327   4.325  14.540
37071W        W 8600   1.388  10.661   1.453
37072W        W 8601  26.129  15.637  10.511
37073W        W 8602  20.052  14.059  12.081
37074W        W 8603   9.122   3.756   3.637
37075W        W 8604  42.690  10.783  11.158
37076W        W 8605  20.112   1.355  14.769
37077W        W 8606  41.779   3.988  12.425
37078W        W 8607  36.847  17.490  13.507
37079W        W 8608  41.467  41.526   3.308
37080W        W 8609  43.973  27.100  12.108
37081W        W 8610  30.705   7.469   2.405
37082W        W 8611  40.513  39.830   4.800
37083W        W 8612  26.580   8.074  13.405
37084W        W 8613  25.298   9.146   4.620
37085W        W 8614  24.964  38.398   3.215
37086W        W 8615  31.460  23.967  10.729
37087W        W 8616   2.229  38.798   2.799
37088W        W 8617  36.877  39.586  13.985
37089W        W 8618   5.671   6.723   3.754
37090W        W 8619  21.134  31.903   0.032
37091W        W 8620   8.918   1.199  11.214
37092W        W 8621  16.061  32.577  10.483
37093W        W 8622   3.696  11.264   3.718
37094W        W 8623   1.809  36.123  14.160
37095W        W 8624   3.964  38.943  12.353
37096W        W 8625  17.680  38.736   1.617
37097W        W 8626   2.767  41.097   2.392
37098W        W 8627   2.037  29.776  14.007
37099W        W 8628  31.573  32.321   4.438
37100W        W 8629   5.818  43.609  13.335
37101W        W 8630  27.216  25.033  14.059
37102W        W 8631  38.411   9.070  10.032
37103W        W 8632  24.217   3.575  10.771
37104W        W 8633   6.407  27.011  14.424
37105W        W 8634  22.670  24.226   0.766
37106W        W 8635   3.230  20.692  14.534
37107W        W 8636   2.342  17.543   4.535
37108W        W 8637  44.308  34.545  14.094
37109W        W 8638  18.550   5.427   3.144
37110W        W 8639  19.493   0.764   0.385
37111W        W 8640  32.568   8.875  13.544
37112W        W 8641  27.489  13.865  13.856
37113W        W 8642   4.034  43.439  10.618
37114W        W 8643  43.947  42.075   2.703
37115W        W 8644  38.453  33.901   4.468
37116W        W 8645  11.348  32.884   1.685
37117W        W 8646   9.663   3.340  14.732
37118W        W 8647  10.273  26.020  10.102
37119W        W 8648  42.270  28.261  13.852
37120W        W 8649  31.626  29.013  14.894
37121W        W 8650  12.743  39.027  12.747
37122W        W 8651   3.899   0.790  12.614
37123W        W 8652   6.902   8.829   3.602
37124W        W 8653  18.636  22.076   0.961
37125W        W 8654  15.892  18.756   0.694
37126W        W 8655   7.260  21.508   0.816
37127W        W 8656   5.187   3.422   2.632
37128W        W 8657  38.782  22.927   0.425
37129W        W 8658  27.906  36.184  13.357
37130W        W 8659  33.475  20.421   3.067
37131W        W 8660   7.915  13.675   2.638
37132W        W 8661  20.496  12.371   1.391
37133W        W 8662   4.192  14.852  12.803
37134W        W 8663  31.930  20.192  13.961
37135W        W 8664  43.763  35.013   4.592
37136W        W 8665  16.556  30.926   0.922
37137W        W 8666  21.192  12.661   3.427
37138W        W 8667  41.883  38.954  11.752
37139W        W 8668  15.875  27.330  14.894
37140W        W 8669  29.912  40.832  12.958
37141W        W 8670  20.190  16.494  11.561
37142W        W 8671  39.975  38.280  11.983
37143W        W 8672  44.248   4.775   1.935
37144W        W 8673  29.444  18.622  13.388
37145W        W 8674  43.170  29.523   0.169
37146W        W 8675  29.994  27.563   0.813
37147W        W 8676  13.684  27.452   2.476
37148W        W 8677  20.227  41.989  10.985
37149W        W 8678  35.860  42.513  10.820
37150W        W 8679  25.621  34.051  13.375
37151W        W 8680  34.006   4.377   0.682
37152W        W 8681  20.975  32.554   4.041
37153W        W 8682  27.951  30.439  10.688
37154W        W 8683   2.888  42.521   2.855
37155W        W 8684  18.580  41.352   3.734
37156W        W 8685  23.760  40.606  10.800
37157W        W 8686   2.463  23.104  10.958
37158W        W 8687  14.665  34.603   0.733
37159W        W 8688  25.988  43.187   1.726
37160W        W 8689  30.139  18.536   2.693
37161W        W 8690  26.048  30.900   1.640
37162W        W 8691  28.147  44.945   4.578
37163W        W 8692  37.063   9.687  10.528
37164W        W 8693  15.791  43.260  13.032
37165W        W 8694  10.813   9.355  14.507
37166W        W 8695  25.797  11.314  12.564
37167W        W 8696  42.252   3.431   1.834
37168W        W 8697  18.895  15.971   3.836
37169W        W 8698  14.335  19.718  12.016
37170W        W 8699   0.468  13.007  10.483
37171W        W 8700  23.976   8.188   0.254
37172W        W 8701  27.549  22.244   2.596
37173W        W 8702  15.790   0.920   2.343
37174W        W 8703   0.262   6.285   0.443
37175W        W 8704  36.859  28.976  13.483
37176W        W 8705   2.775  19.294  14.729
37177W        W 8706  29.500  42.537   3.376
37178W        W 8707  21.087  36.509  10.521
37179W        W 8708  19.896  25.972  11.135
37180W        W 8709  24.215  10.377  13.861
37181W        W 8710  32.004  38.408  11.225
37182W        W 8711  27.395  30.439   4.023
37183W        W 8712   1.166   3.706  13.880
37184W        W 8713  12.139  37.645   3.057
37185W        W 8714  37.151   0.254   1.469
37186W        W 8715  23.238  39.323   3.647
37187W        W 8716   7.885  33.584   2.221
37188W        W 8717  17.849  10.381  12.903
37189W        W 8718  27.294  20.009  13.834
37190W        W 8719  26.088   2.568  10.625
37191W        W 8720  31.644  21.005  13.411
37192W        W 8721  39.891  14.846   3.169
37193W        W 8722   5.951  37.058   3.254
37194W        W 8723   7.205  44.241   1.850
37195W        W 8724  31.395  25.751  12.064
37196W        W 8725  10.271   8.120   4.270
37197W        W 8726  20.924   6.779  13.904
37198W        W 8727  30.928  39.573   2.311
37199W        W 8728   0.982  29.036  11.703
37200W        W 8729  42.339  21.986   4.772
37201W        W 8730   3.247  42.816   1.400
37202W        W 8731  26.401   2.537  12.076
37203W        W 8732  14.200  23.688   4.268
37204W        W 8733  10.300  29.959   3.235
37205W        W 8734   8.309  32.085   0.835
37206W        W 8735  11.674   3.684  12.408
37207W        W 8736  15.114  19.896  13.508
37208W        W 8737  20.463  31.495  13.009
37209W        W 8738  24.722   8.723   4.300
37210W        W 8739  23.962  14.672   0.713
37211W        W 8740  29.897  16.924   5.628
37212W        W 8741   5.007  35.967   4.119
37213W        W 8742  43.419  29.668  12.519
37214W        W 8743  25.559  34.960  11.179
37215W        W 8744  41.345  17.053   1.440
37216W        W 8745   2.363  37.878   1.888
37217W        W 8746  42.463  30.425   1.005
37218W        W 8747  15.325  17.904   4.146
37219W        W 8748  24.064  22.504   2.292
37220W        W 8749  37.874   8.005   1.934
37221W        W 8750  28.470  15.639   4.463
37222W        W 8751  16.848  44.154   2.374
37223W        W 8752  22.110   2.820  14.293
37224W        W 8753  42.022   1.704   3.755
37225W        W 8754  12.695  32.474   0.413
37226W        W 8755  16.224  42.551   4.695
37227W        W 8756  39.401   3.186   3.262
37228W        W 8757  40.819  33.070   0.296
37229W        W 8758  25.048  34.206  14.413
37230W        W 8759   3.402  27.316   1.756
37231W        W 8760   7.234  32.201   5.111
37232W        W 8761  42.397  27.279  14.858
37233W        W 8762  44.359  13.158   1.274
37234W        W 8763  41.955   7.613   1.273
37235W        W 8764  19.744  26.860  11.063
37236W        W 8765  19.918   3.853   2.628
37237W        W 8766  24.033  22.165  13.529
37238W        W 8767  30.033  11.932  11.311
37239W        W 8768   4.333  38.420  14.085
37240W        W 8769  36.869  19.765  13.018
37241W        W 8770  15.534  36.955  12.632
37242W        W 8771   8.838  27.043  12.525
37243W        W 8772  44.248  13.664  12.614
37244W        W 8773  21.649  30.955   3.348
37245W        W 8774  16.772   6.777  12.911
37246W        W 8775  30.767  16.085   1.733
37247W        W 8776  32.540  30.459  12.557
37248W        W 8777  42.720  27.985  10.869
37249W        W 8778  39.408  30.127  13.507
37250W        W 8779   3.683  23.745   4.143
37251W        W 8780  44.261  15.800   0.750
37252W        W 8781  13.175  17.727  12.929
37253W        W 8782  42.383  44.797  14.388
37254W        W 8783  33.654  33.894  12.852
37255W        W 8784  32.859  32.727   3.312
37256W        W 8785  31.639  15.161   4.078
37257W        W 8786  30.053  43.374  13.193
37258W        W 8787  12.112  27.932  14.124
37259W        W 8788   6.723  10.147  14.394
37260W        W 8789  33.161  33.077  10.913
37261W        W 8790   5.602   8.256  13.044
37262W        W 8791  42.076  18.749   5.044
37263W        W 8792  28.925  11.287   1.740
37264W        W 8793   3.209  43.478   0.430
37265W        W 8794  36.391  27.837   0.932
37266W        W 8795  16.216   4.626   3.654
37267W        W 8796   1.320  19.698  13.913
37268W        W 8797  19.516  41.482   4.825
37269W        W 8798  33.572  28.753  13.432
37270W        W 8799   9.075   3.250   2.713
37271W        W 8800  25.684   5.727   0.791
37272W        W 8801  43.823  39.773  11.468
37273W        W 8802  44.467  43.808  11.214
37274W        W 8803  40.677  42.389   2.191
37275W        W 8804   6.679  12.929   3.292
37276W        W 8805  35.960  12.052   5.174
37277W        W 8806  10.694   6.147  13.525
37278W        W 8807  22.098   1.481   2.845
37279W        W 8808  44.594   9.384  14.882
37280W        W 8809   7.395  22.829  12.525
37281W        W 8810   0.237  21.962   1.007
37282W        W 8811  33.999  12.664   4.636
37283W        W 8812  14.667  23.013  13.420
37284W        W 8813  16.113   9.364  14.418
37285W        W 8814  33.446  28.859   2.892
37286W        W 8815  32.391  39.439   3.345
37287W        W 8816  17.634  27.116   2.025
37288W        W 8817  23.376  34.815   0.681
37289W        W 8818  34.425  36.503  10.750
37290W        W 8819  12.220  44.322   0.492
37291W        W 8820   1.986   8.635  12.187
37292W        W 8821  24.089   6.275   3.532
37293W        W 8822  41.898  25.639   3.045
37294W        W 8823  15.930   1.545   2.608
37295W        W 8824  38.554  15.148   0.740
37296W        W 8825   1.313  29.793   4.830
37297W        W 8826  43.036   4.551   3.580
37298W        W 8827  18.361  23.129  11.272
37299W        W 8828  12.802  34.340   4.585
37300W        W 8829  21.600   5.672  11.396
37301W        W 8830  31.861  19.179  11.130
37302W        W 8831   8.485  33.930   4.149
37303W        W 8832  42.268   4.942   0.497
37304W        W 8833  40.763  12.279  13.281
37305W        W 8834  10.423  11.360  14.888
37306W        W 8835  40.627  28.972   3.682
37307W        W 8836  20.239   4.906  12.989
37308W        W 8837   8.634  41.782  14.755
37309W        W 8838   3.086  31.658   3.743
37310W        W 8839  30.999  10.240  10.666
37311W        W 8840  37.993  20.765  12.590
37312W        W 8841  43.745   8.266   4.164
37313W        W 8842  23.984   2.234   1.767
37314W        W 8843   1.241   3.238   1.364
37315W        W 8844  11.786   7.670  11.020
37316W        W 8845  11.362  34.507   0.693
37317W        W 8846  12.134   2.994  12.474
37318W        W 8847   7.891   1.457   3.179
37319W        W 8848  23.685  39.306  12.428
37320W        W 8849   8.097  16.819   1.903
37321W        W 8850   3.956   8.110  10.527
37322W        W 8851  44.106  15.861  13.522
37323W        W 8852  10.629  36.563  11.144
37324W        W 8853   6.753  21.629   0.877
37325W        W 8854   4.841   4.204  13.498
37326W        W 8855  26.714  40.926  14.828
37327W        W 8856  40.040  15.292   1.457
37328W        W 8857  30.579  43.853  13.961
37329W        W 8858  35.381  19.144   0.886
37330W        W 8859   2.477  29.560  14.144
37331W        W 8860  41.567   0.492   4.178
37332W        W 8861  29.994  13.667   2.400
37333W        W 8862   2.993  36.456   0.291
37334W        W 8863  13.827  27.044   0.224
37335W        W 8864  40.022  36.592  13.613
37336W        W 8865  31.341  32.075   4.054
37337W        W 8866  14.987  34.931  13.865
37338W        W 8867  34.937   0.447  12.154
37339W        W 8868   1.791  21.128   3.281
37340W        W 8869  16.960  14.672  14.843
37341W        W 8870  22.506   9.709  13.877
37342W        W 8871  19.852   8.689  12.480
37343W        W 8872  20.617   2.155  12.949
37344W        W 8873   4.369  11.263  10.666
37345W        W 8874  13.424  16.818  14.111
37346W        W 8875   0.781  41.469   2.406
37347W        W 8876  12.127  43.861   3.738
37348W        W 8877  19.562  25.231  13.036
37349W        W 8878  17.752  13.031  14.898
37350W        W 8879  36.738  43.107  13.928
37351W        W 8880  43.405   2.975   4.585
37352W        W 8881  33.918  36.834   1.845
37353W        W 8882  43.972   4.437   3.337
37354W        W 8883  19.268   7.596  13.036
37355W        W 8884  15.276  17.633   2.652
37356W        W 8885   4.723  44.053  14.076
37357W        W 8886  20.274  20.805  12.897
37358W        W 8887  32.630  29.192   4.099
37359W        W 8888  16.928  24.244  13.721
37360W        W 8889  27.707  14.667  11.943
37361W        W 8890  41.341  13.541   2.651
37362W        W 8891   1.035  39.335   4.190
37363W        W 8892  33.400  38.847  10.608
37364W        W 8893  23.294  31.607   4.329
37365W        W 8894  37.070  38.648   2.160
37366W        W 8895  23.625  39.314   3.251
37367W        W 8896   4.169  24.994   4.729
37368W        W 8897  36.478  19.548   1.777
37369W        W 8898  24.083  32.274   3.590
37370W        W 8899  24.189  39.804   2.837
37371W        W 8900   4.840   4.706   2.611
37372W        W 8901  13.818  12.167   2.966
37373W        W 8902  14.835  30.907  11.542
37374W        W 8903   8.804   4.972  11.194
37375W        W 8904  40.180  44.419  14.043
37376W        W 8905  16.831  26.728   2.783
37377W        W 8906   7.765   4.974  12.902
37378W        W 8907  24.246  43.800   2.233
37379W        W 8908  33.531  26.311   3.186
37380W        W 8909   2.225  42.437   4.951
37381W        W 8910  23.035  15.380  14.609
37382W        W 8911  24.480  18.468  12.149
37383W        W 8912  40.205   1.518   0.281
37384W        W 8913  20.133  18.173   2.665
37385W        W 8914  27.354  37.825  11.987
37386W        W 8915  23.177  33.853   0.356
37387W        W 8916  42.052   1.812   1.380
37388W        W 8917  38.470  15.982   0.231
37389W        W 8918  24.616  18.845   4.232
37390W        W 8919   2.273   9.789  14.749
37391W        W 8920   4.275  17.796   2.829
37392W        W 8921  24.025   4.760  13.371
37393W        W 8922  21.258  42.338  10.221
37394W        W 8923  26.811   3.892   4.926
37395W        W 8924  35.825   5.292   1.348
37396W        W 8925  18.682  12.722  13.852
37397W        W 8926  41.486  25.134  10.955
37398W        W 8927  25.185  23.469  14.815
37399W        W 8928  11.383  37.585   0.876
37400W        W 8929  38.886  37.463  14.086
37401W        W 8930   2.504  31.598   2.679
37402W        W 8931   5.730  37.036  13.075
37403W        W 8932   4.217   1.750  14.735
37404W        W 8933  32.872  16.162   1.852
37405W        W 8934  41.032   0.647   4.296
37406W        W 8935  41.761  24.882  13.806
37407W        W 8936  38.319  26.918  11.982
37408W        W 8937  44.439  42.881   3.594
37409W        W 8938  18.717  18.509  10.212
37410W        W 8939  14.744  40.505   2.612
37411W        W 8940  10.324  26.430   4.940
37412W        W 8941  17.282  15.060  11.180
37413W        W 8942  20.202  20.265  11.050
37414W        W 8943   8.692  11.655   0.789
37415W        W 8944   9.683   6.645   3.390
37416W        W 8945  37.899  17.803  14.358
37417W        W 8946  17.097  40.423   1.792
37418W        W 8947  23.291  21.257  10.972
37419W        W 8948  33.609  10.811   3.701
37420W        W 8949  38.455   3.253   4.763
37421W        W 8950   6.564  16.682   0.960
37422W        W 8951   7.694  22.884  14.379
37423W        W 8952  36.418   4.908  14.266
37424W        W 8953  34.628  29.037   2.301
37425W        W 8954  24.710  42.418  12.568
37426W        W 8955  13.039  29.666  10.703
37427W        W 8956  18.797  31.442   2.580
37428W        W 8957  42.497  18.615   3.617
37429W        W 8958   5.866  40.223   1.949
37430W        W 8959  17.534   1.955   4.172
37431W        W 8960  17.946  44.416   1.758
37432W        W 8961  23.539  30.527  12.448
37433W        W 8962  22.619  33.462   1.416
37434W        W 8963  30.069  12.778  13.912
37435W        W 8964  30.400  32.962  10.783
37436W        W 8965  28.221  30.119  12.880
37437W        W 8966  41.514  31.193  12.028
37438W        W 8967   5.677  16.554   4.529
37439W        W 8968  36.342  39.317   0.947
37440W        W 8969  16.327  37.063  13.262
37441W        W 8970  20.067  24.606  12.640
37442W        W 8971   7.901  24.628   3.202
37443W        W 8972  22.739  24.049  12.896
37444W        W 8973  40.475   1.649  12.983
37445W        W 8974  21.281  13.385   2.879
37446W        W 8975  44.461   4.982  14.951
37447W        W 8976  15.348  37.940  13.362
37448W        W 8977  14.534   0.449   3.113
37449W        W 8978  29.540  24.608  13.907
37450W        W 8979  12.186   7.534   3.767
37451W        W 8980  34.170  27.164   5.012
37452W        W 8981  36.957  44.500  13.965
37453W        W 8982  21.543  21.271  14.473
37454W        W 8983  17.051   1.004   1.888
37455W        W 8984  35.208   0.043  12.961
37456W        W 8985  41.430   0.514   1.739
37457W        W 8986  34.573  24.188  12.132
37458W        W 8987  37.833   2.499   3.617
37459W        W 8988  21.442  44.629   1.505
37460W        W 8989  11.255  25.910  13.939
37461W        W 8990   1.413   0.951   0.481
37462W        W 8991   6.487  38.486   0.922
37463W        W 8992  36.443  24.728   3.204
37464W        W 8993  12.637   8.888  10.562
37465W        W 8994  24.091   5.418   4.028
37466W        W 8995   3.219  27.981   3.845
37467W        W 8996   8.133  23.126   3.639
37468W        W 8997  39.464  24.011   3.743
37469W        W 8998  18.815  43.078  11.502
37470W        W 8999  10.904  37.806   0.916
37471W        W 9000  34.286  25.042   0.702
37472W        W 9001  17.657   8.663  11.752
37473W        W 9002  40.416  26.194  12.203
37474W        W 9003   6.853  38.939   1.155
37475W        W 9004   9.750  12.466  12.459
37476W        W 9005  37.272  27.406  11.935
37477W        W 9006  27.913  29.514  10.790
37478W        W 9007  36.124   2.288  12.953
37479W        W 9008  25.131  42.749   0.225
37480W        W 9009  15.463  13.746  12.335
37481W        W 9010  23.452   1.372   1.745
37482W        W 9011  27.265  32.435   3.255
37483W        W 9012  12.919  34.900   1.757
37484W        W 9013  39.768   6.684   4.513
37485W        W 9014   6.292   9.994   2.542
37486W        W 9015   8.177  24.000  13.973
37487W        W 9016   2.260  10.314   0.911
37488W        W 9017  18.045  17.288  13.818
37489W        W 9018  21.451  23.192   0.468
37490W        W 9019   1.998  21.309   4.896
37491W        W 9020   4.467  40.291   1.393
37492W        W 9021  37.889  39.081  13.952
37493W        W 9022  25.517   6.967   2.945
37494W        W 9023  24.180  21.082   5.165
37495W        W 9024   0.132  44.892   3.121
37496W        W 9025  42.257  43.948   4.375
37497W        W 9026  14.775  38.919   1.968
37498W        W 9027   6.210  24.920  13.527
37499W        W 9028  15.011  30.890  12.660
37500W        W 9029  26.657  36.388   3.169
37501W        W 9030  37.002  23.440   1.831
37502W        W 9031  20.636  31.602   2.962
37503W        W 9032  28.864   0.863  11.496
37504W        W 9033  36.571  12.769   2.597
37505W        W 9034  20.901  23.473   2.273
37506W        W 9035   5.590   0.775   2.438
37507W        W 9036  41.610  36.702   2.248
37508W        W 9037  43.327  10.508   0.369
37509W        W 9038  10.394  43.260  14.907
37510W        W 9039  42.869   9.122   3.117
37511W        W 9040  16.201  25.825   4.287
37512W        W 9041  23.194  42.809   3.925
37513W        W 9042  27.203  20.183   3.635
37514W        W 9043  37.946  15.160   4.120
37515W        W 9044  19.297   3.484  10.997
37516W        W 9045  16.125  12.237  11.561
37517W        W 9046   6.802  20.123  14.326
37518W        W 9047   8.551  22.460  12.852
37519W        W 9048   4.183  13.853   0.459
37520W        W 9049  44.675  38.550   2.437
37521W        W 9050  20.292   4.870   2.648
37522W        W 9051  11.074  36.517   4.249
37523W        W 9052   8.395   5.201   1.485
37524W        W 9053  32.876  24.725   1.312
37525W        W 9054  38.056  22.610  14.397
37526W        W 9055  28.451  27.923  13.954
37527W        W 9056   0.340   4.939   4.462
37528W        W 9057  14.169  39.342  10.762
37529W        W 9058  22.750  35.164   1.700
37530W        W 9059  28.098  15.183   0.848
37531W        W 9060  30.097  24.491   2.239
37532W        W 9061  23.852  44.318   1.393
37533W        W 9062   1.390  29.222  14.546
37534W        W 9063  38.395  22.589   0.265
37535W        W 9064  20.514  24.591   0.554
37536W        W 9065   0.519  44.294  14.378
37537W        W 9066  15.110   7.945  12.674
37538W        W 9067   9.198   7.960   4.267
37539W        W 9068  15.580   8.877   3.128
37540W        W 9069  42.852  13.498  10.727
37541W        W 9070  38.846  21.091  13.885
37542W        W 9071  15.415  25.868  11.454
37543W        W 9072   9.345  22.341   4.222
37544W        W 9073  42.967  27.483   3.416
37545W        W 9074  10.634  15.743   0.931
37546W        W 9075   2.069   6.297   0.706
37547W        W 9076  39.362  44.396  14.578
37548W        W 9077  27.442   5.345  12.554
37549W        W 9078  29.587  28.987   2.709
37550W        W 9079  31.072  38.753  12.936
37551W        W 9080  36.816  36.268   3.991
37552W        W 9081  11.756  13.522  10.402
37553W        W 9082  14.842  43.786   1.032
37554W        W 9083  17.790  26.464   1.192
37555W        W 9084   3.963   6.879   4.556
37556W        W 9085   9.511  23.402  13.224
37557W        W 9086   0.765  17.098  10.670
37558W        W 9087  13.291  35.337   2.354
37559W        W 9088  42.510  26.413  14.520
37560W        W 9089  14.729  11.249  13.788
37561W        W 9090   7.156  42.169   3.250
37562W        W 9091  30.476  30.951   0.146
37563W        W 9092  37.925   0.799  12.528
37564W        W 9093   4.924  43.749  12.890
37565W        W 9094  34.039  41.943   0.215
37566W        W 9095  19.546  43.394  12.572
37567W        W 9096  25.873  28.489   0.281
37568W        W 9097  35.842   2.454  14.410
37569W        W 9098  18.783  10.814   2.250
37570W        W 9099  37.351  12.351  12.721
37571W        W 9100  41.275  31.919  10.969
37572W        W 9101  32.789  29.891  14.924
37573W        W 9102  15.373   8.978  11.003
37574W        W 9103  37.927   4.826   1.624
37575W        W 9104  36.950  21.017   0.462
37576W        W 9105   8.115  44.208  11.254
37577W        W 9106  25.423  44.631   2.789
37578W        W 9107  21.890  25.380  11.867
37579W        W 9108  19.193  21.718   1.169
37580W        W 9109  16.376  39.557   2.867
37581W        W 9110  28.928  18.459  11.231
37582W        W 9111  23.410   3.251  11.501
37583W        W 9112  36.107   3.305   4.111
37584W        W 9113   5.416   7.002  14.923
37585W        W 9114  26.300  18.996  13.882
37586W        W 9115  27.562  33.348  12.544
37587W        W 9116  32.516  38.854   1.305
37588W        W 9117  18.070   7.151   3.761
37589W        W 9118  41.983  29.419  11.993
37590W        W 9119   7.890  22.057   2.332
37591W        W 9120  31.195  30.397   1.155
37592W        W 9121  23.924  18.733   4.712
37593W        W 9122  28.352  18.128   3.063
37594W        W 9123   6.344  38.742  11.753
37595W        W 9124  12.147  17.583  11.956
37596W        W 9125  14.689   4.792  10.079
37597W        W 9126  16.599  13.683  12.090
37598W        W 9127   1.849  39.453   0.716
37599W        W 9128  29.617  11.344  12.063
37600W        W 9129  26.974  34.997   2.919
37601W        W 9130  26.759  36.708  11.173
37602W        W 9131  37.351   3.237   0.426
37603W        W 9132  41.556   6.685   1.216
37604W        W 9133  42.011   5.241   0.836
37605W        W 9134  33.458   9.241  14.281
37606W        W 9135  40.167  42.473   2.315
37607W        W 9136  33.480  44.240  11.914
37608W        W 9137   4.529  14.153   4.629
37609W        W 9138   5.290  34.960  14.507
37610W        W 9139  30.899   0.239  12.298
37611W        W 9140  39.541  19.409  13.847
37612W        W 9141  42.284  40.760   4.781
37613W        W 9142  19.742   3.177  14.464
37614W        W 9143  33.293   3.827   2.906
37615W        W 9144  40.933  32.221  13.049
37616W        W 9145  25.461   6.286  12.528
37617W        W 9146  14.611   8.922  11.654
37618W        W 9147   4.726   5.610  11.030
37619W        W 9148  15.826  21.232   3.249
37620W        W 9149  27.889  37.184  13.579
37621W        W 9150   5.497  35.080   2.242
37622W        W 9151  25.411  32.955   1.880
37623W        W 9152   2.794  44.489  11.298
37624W        W 9153  16.078  38.302   3.146
37625W        W 9154  42.350  18.393  14.999
37626W        W 9155   5.406  40.451  13.621
37627W        W 9156   2.515   6.133  14.820
37628W        W 9157  41.039  25.628  14.002
37629W        W 9158  32.523  10.683   4.097
37630W        W 9159  26.948   6.893   1.330
37631W        W 9160  44.203  14.073   3.728
37632W        W 9161  33.413  12.671  10.201
37633W        W 9162  37.388  38.076  13.496
37634W        W 9163  33.650  42.391  14.285
37635W        W 9164  30.923  30.460  10.571
37636W        W 9165  44.838  29.716  14.371
37637W        W 9166   5.848  32.223   2.836
37638W        W 9167  37.887  31.533   2.353
37639W        W 9168  44.833  28.311  12.326
37640W        W 9169  29.107  37.524  11.415
37641W        W 9170  19.652  44.347   4.427
37642W        W 9171  21.803  38.885   1.462
37643W        W 9172  33.973  30.556   2.386
37644W        W 9173  33.115  22.575   2.599
37645W        W 9174   3.888  18.250  12.579
37646W        W 9175  40.786  21.661  11.500
37647W        W 9176  29.653   0.115   1.311
37648W        W 9177  19.586  42.491   3.726
37649W        W 9178  30.442   3.679  12.068
37650W        W 9179  44.584   5.397  12.986
37651W        W 9180  12.518  21.494  13.844
37652W        W 9181  35.225  22.337   0.977
37653W        W 9182  42.965  24.177   2.079
37654W        W 9183  16.347  39.417  14.531
37655W        W 9184  19.503  24.550   0.833
37656W        W 9185  31.925   2.950   2.388
37657W        W 9186  36.306  38.576   4.132
37658W        W 9187   1.169   5.939   0.365
37659W        W 9188  42.825  26.587  10.936
37660W        W 9189   9.874  16.573   1.455
37661W        W 9190   0.241  13.174   0.486
37662W        W 9191  13.143  16.222  12.420
37663W        W 9192   6.728   4.290  11.539
37664W        W 9193  42.994  36.110  12.386
37665W        W 9194  19.852  28.274   3.257
37666W        W 9195  27.205  15.342  11.512
37667W        W 9196  10.935  44.432   2.744
37668W        W 9197  16.225  28.986  13.603
37669W        W 9198   8.792  37.641   9.786
37670W        W 9199  12.045   2.687   1.846
37671W        W 9200  29.849  25.097  11.123
37672W        W 9201  12.769  28.715   1.848
37673W        W 9202   9.333  20.528   1.927
37674W        W 9203  38.022  38.718  11.965
37675W        W 9204  20.735  11.166  10.719
37676W        W 9205  24.556  21.624  11.651
37677W        W 9206  32.150  21.169  14.803
37678W        W 9207  21.155  40.275   1.401
37679W        W 9208  26.913  12.276   3.954
37680W        W 9209  31.324  19.207   4.882
37681W        W 9210  15.130  27.094   4.311
37682W        W 9211  23.720  19.401  14.728
37683W        W 9212  30.490   0.545   3.686
37684W        W 9213  32.784  15.032  12.616
37685W        W 9214  31.035  21.763   3.214
37686W        W 9215  33.170  31.850   2.803
37687W        W 9216  44.274   1.494   1.383
37688W        W 9217  20.348   2.359   1.508
37689W        W 9218   0.530  15.802  13.015
37690W        W 9219  34.888  43.913  11.649
37691W        W 9220  37.614  10.159   2.252
37692W        W 9221   6.750   0.317   0.510
37693W        W 9222  27.192  14.443   3.158
37694W        W 9223  14.826  15.129   4.893
37695W        W 9224  32.105  26.577  14.404
37696W        W 9225   8.349  44.642  13.881
37697W        W 9226  41.092   3.477  12.476
37698W        W 9227  17.208  15.135   4.615
37699W        W 9228   4.596  31.632   2.137
37700W        W 9229  37.027   5.180   0.431
37701W        W 9230  15.081   4.355  12.501
37702W        W 9231  26.553  23.915   3.287
37703W        W 9232   7.228  16.581  12.887
37704W        W 9233  26.311  22.653   1.421
37705W        W 9234  19.726  18.107  11.125
37706W        W 9235   5.246  36.054   1.113
37707W        W 9236  29.604   6.890  11.867
37708W        W 9237  36.504  34.114   4.666
37709W        W 9238  33.246  35.313  11.997
37710W        W 9239  28.353  41.288   0.868
37711W        W 9240  30.080  27.711  14.754
37712W        W 9241  23.639  21.979  12.116
37713W        W 9242  32.755  27.039  12.302
37714W        W 9243   0.749  12.859   2.387
37715W        W 9244   0.052  39.830  13.573
37716W        W 9245  40.316  27.111   1.217
37717W        W 9246  29.227  19.683  14.639
37718W        W 9247   6.004  42.830   0.214
37719W        W 9248  10.269  33.935  13.291
37720W        W 9249  25.240  11.162   3.837
37721W        W 9250  34.468   2.814  13.576
37722W        W 9251  40.289  37.911  14.080
37723W        W 9252  13.428  16.867   3.011
37724W        W 9253  39.184  41.746   2.344
37725W        W 9254  11.755  42.734  14.534
37726W        W 9255   1.838  10.311  12.137
37727W        W 9256  23.475  40.591  12.925
37728W        W 9257  16.110  11.665  12.054
37729W        W 9258   0.807  40.680   0.438
37730W        W 9259  36.517  14.771  13.372
37731W        W 9260  22.608  43.423   0.905
37732W        W 9261  23.512  20.086   4.751
37733W        W 9262  19.114   8.648  11.977
37734W        W 9263  21.496  15.980   0.899
37735W        W 9264   9.158  37.357   0.978
37736W        W 9265  39.574   5.172   0.505
37737W        W 9266  44.425  21.467   0.934
37738W        W 9267   6.257  13.759  14.779
37739W        W 9268  15.360  18.618   3.986
37740W        W 9269  28.938  21.079  11.099
37741W        W 9270  15.176  26.174   3.935
37742W        W 9271  41.765  24.750   2.612
37743W        W 9272   8.163  16.275  12.014
37744W        W 9273  10.532   3.334   5.027
37745W        W 9274   0.821  11.625   2.870
37746W        W 9275   3.442  26.032  13.893
37747W        W 9276  24.664  21.281   3.215
37748W        W 9277  35.120  23.007  10.817
37749W        W 9278   6.396  35.305  11.717
37750W        W 9279  36.640   8.672   1.618
37751W        W 9280  34.811  35.303  14.224
37752W        W 9281  28.069  11.194  14.734
37753W        W 9282  12.794   0.945  13.972
37754W        W 9283  29.768  15.648  13.270
37755W        W 9284   3.011  27.045   3.377
37756W        W 9285  30.930  10.800  11.185
37757W        W 9286  21.711  43.929  11.944
37758W        W 9287   9.757  29.935  11.433
37759W        W 9288  30.334  32.129  11.609
37760W        W 9289  20.497  20.097  10.601
37761W        W 9290   1.721  41.849  13.753
37762W        W 9291   7.977  43.978  10.320
37763W        W 9292  35.018  39.677  11.101
37764W        W 9293   3.773   1.412  13.303
37765W        W 9294   8.688  26.190   1.099
37766W        W 9295  15.970  27.006  13.869
37767W        W 9296  25.444  17.323  12.195
37768W        W 9297  14.536   0.663   4.804
37769W        W 9298  18.990  26.950   4.507
37770W        W 9299   5.012  29.358   3.821
37771W        W 9300   8.619   9.719  14.762
37772W        W 9301  38.040  38.351  10.989
37773W        W 9302  26.763  20.241  12.665
37774W        W 9303  40.933   6.269   0.484
37775W        W 9304  24.225   5.386   3.057
37776W        W 9305   8.771  40.126  11.910
37777W        W 9306  10.132  26.202  12.950
37778W        W 9307  38.971  28.189   0.426
37779W        W 9308  19.702  35.795  14.391
37780W        W 9309  18.603  15.919   0.942
37781W        W 9310  20.695   2.214  14.953
37782W        W 9311  15.728   3.837  14.464
37783W        W 9312   3.563   4.215  12.449
37784W        W 9313   2.098  26.023   0.319
37785W        W 9314  12.159   4.001  11.029
37786W        W 9315  35.874  18.114  10.641
37787W        W 9316  34.040  10.346  11.338
37788W        W 9317  18.587  43.360  11.954
37789W        W 9318  42.857   7.348  14.709
37790W        W 9319  13.797  26.892   4.738
37791W        W 9320  21.171  35.242  14.852
37792W        W 9321   6.706   4.574   1.378
37793W        W 9322   5.834   3.383  10.981
37794W        W 9323  27.416  35.859   0.496
37795W        W 9324  28.358  27.313  12.846
37796W        W 9325  37.918   6.314   3.800
37797W        W 9326  28.394   9.940  14.484
37798W        W 9327  19.726  18.468  13.528
37799W        W 9328  15.895  24.681   0.863
37800W        W 9329  44.837   9.817  13.928
37801W        W 9330  39.710  12.848  13.903
37802W        W 9331  15.553  25.666  13.804
37803W        W 9332  30.927  22.283   3.164
37804W        W 9333   2.812  12.730   4.115
37805W        W 9334  35.579  16.250   2.254
37806W        W 9335  29.666  16.260  13.486
37807W        W 9336  14.900  32.383  11.519
37808W        W 9337  38.624  18.277  12.023
37809W        W 9338   6.787  14.096  12.510
37810W        W 9339  42.559  16.223  10.818
37811W        W 9340  41.482   5.061   1.819
37812W        W 9341  12.308   8.073   3.730
37813W        W 9342  14.353  17.780   2.071
37814W        W 9343  20.833  40.068   1.757
37815W        W 9344  21.549  13.264  11.891
37816W        W 9345  38.981  38.215   3.602
37817W        W 9346  31.649  44.930   2.117
37818W        W 9347  42.522   2.724   4.611
37819W        W 9348  21.665  12.719  10.717
37820W        W 9349  41.941   0.769  14.002
37821W        W 9350   3.346   5.475  11.256
37822W        W 9351   2.537  38.002   4.298
37823W        W 9352  12.290  13.377   1.752
37824W        W 9353  24.245  34.782  10.778
37825W        W 9354  26.503  29.086  13.168
37826W        W 9355  21.144   3.561  10.342
37827W        W 9356   5.231  39.304  12.017
37828W        W 9357   0.350  19.482  13.848
37829W        W 9358  38.856  40.938  12.071
37830W        W 9359   5.902  36.371  10.306
37831W        W 9360  28.935  44.403   4.178
37832W        W 9361  11.801  21.979  12.865
37833W        W 9362  29.328   4.813  10.700
37834W        W 9363  43.514  20.933  14.841
37835W        W 9364  27.645  25.048   0.477
37836W        W 9365  44.960  24.008  12.884
37837W        W 9366  26.583  43.595  11.169
37838W        W 9367  29.783  18.094  11.640
37839W        W 9368  12.110  26.439  10.211
37840W        W 9369   1.030  16.098  13.600
37841W        W 9370  28.656  26.435   0.980
37842W        W 9371  26.091   3.779  11.567
37843W        W 9372  34.661  24.437   2.424
37844W        W 9373  22.248  38.627  10.978
37845W        W 9374  23.598  31.127  11.607
37846W        W 9375  21.254   7.274  11.256
37847W        W 9376   8.489  34.786   0.588
37848W        W 9377  37.552  38.741   1.939
37849W        W 9378   5.115  20.669   4.989
37850W        W 9379  37.907  35.469   2.320
37851W        W 9380  15.218  37.694  12.897
37852W        W 9381  21.990  33.218   4.499
37853W        W 9382  14.640   1.478  12.559
37854W        W 9383  19.014  41.760   2.725
37855W        W 9384  10.965  15.486   4.484
37856W        W 9385  22.667  37.337   1.778
37857W        W 9386   6.937  41.549  12.110
37858W        W 9387  29.215  10.325  14.367
37859W        W 9388  15.594  42.753   3.195
37860W        W 9389   1.047  18.461   0.580
37861W        W 9390  37.888  20.060   2.236
37862W        W 9391  17.210  27.292   2.269
37863W        W 9392  30.952  15.168  12.559
37864W        W 9393   1.447   7.398   4.142
37865W        W 9394  28.152  37.620  13.681
37866W        W 9395  28.182  35.770   1.184
37867W        W 9396  18.128  37.789  13.530
37868W        W 9397  42.473  39.526  12.103
37869W        W 9398   0.653  40.302  13.891
37870W        W 9399  18.754  12.378   3.231
37871W        W 9400  15.360   9.428   2.608
37872W        W 9401   8.384  30.579   2.336
37873W        W 9402   5.273  22.046   3.070
37874W        W 9403  21.625   7.457   4.016
37875W        W 9404  32.025   8.695   2.158
37876W        W 9405   0.980  18.370  12.047
37877W        W 9406  16.298  17.620  11.652
37878W        W 9407  15.247  43.857  14.045
37879W        W 9408  32.516  11.390   1.940
37880W        W 9409  44.601   1.098   1.355
37881W        W 9410  43.399  26.458   4.308
37882W        W 9411  13.142  32.550   4.600
37883W        W 9412  22.832  40.765   1.336
37884W        W 9413  37.858  14.276  10.882
37885W        W 9414  15.649  31.645  13.400
37886W        W 9415  40.899   7.929  14.723
37887W        W 9416  44.574   7.384   0.739
37888W        W 9417   7.263  14.551  12.031
37889W        W 9418   0.489  30.214   4.475
37890W        W 9419  15.650  16.485   2.287
37891W        W 9420  22.608   7.295   5.220
37892W        W 9421  32.472  12.746  10.578
37893W        W 9422   6.251  27.053   3.144
37894W        W 9423  35.082  38.038   2.739
37895W        W 9424   0.111  33.049   4.524
37896W        W 9425  17.852  41.421  14.847
37897W        W 9426  34.878  22.720   0.866
37898W        W 9427  21.475  13.970   2.315
37899W        W 9428  17.535   3.949  13.856
37900W        W 9429  40.032  20.231   1.847
37901W        W 9430  25.970   7.670  14.000
37902W        W 9431   0.974  21.109   0.333
37903W        W 9432   9.345  14.829   3.785
37904W        W 9433  23.433  13.419   2.434
37905W        W 9434  37.874  30.494  11.916
37906W        W 9435  14.761  24.576   1.619
37907W        W 9436  15.269   0.371   1.723
37908W        W 9437  13.853  12.355   3.445
37909W        W 9438  40.455  41.565  13.473
37910W        W 9439  21.980   9.225  11.890
37911W        W 9440  29.001  21.524  13.422
37912W        W 9441  15.601  18.996  11.997
37913W        W 9442  31.463  16.168  12.964
37914W        W 9443  38.903  11.939  14.891
37915W        W 9444   9.249   7.758   1.465
37916W        W 9445  12.840  20.526   0.724
37917W        W 9446  37.391   8.407  12.955
37918W        W 9447  14.688  27.696   0.929
37919W        W 9448  11.667  22.602   4.432
37920W        W 9449  16.641  30.568  14.366
37921W        W 9450   7.930   0.333  14.444
37922W        W 9451  12.932  13.109  11.847
37923W        W 9452  36.127  12.163   2.137
37924W        W 9453  40.753   9.844  13.356
37925W        W 9454   3.467  42.248   2.643
37926W        W 9455   2.016  28.578  10.507
37927W        W 9456  21.121  37.872   1.827
37928W        W 9457  34.195  22.110   2.490
37929W        W 9458  40.732   3.846   3.743
37930W        W 9459  15.250  43.734   3.318
37931W        W 9460  26.132  42.367  13.772
37932W        W 9461  21.441  34.042  13.796
37933W        W 9462   9.063  44.767   2.766
37934W        W 9463  27.954   8.138   3.844
37935W        W 9464  25.441  19.260   1.799
37936W        W 9465  23.443   9.895  14.942
37937W        W 9466   7.351  16.763   1.410
37938W        W 9467   1.792   8.748   1.124
37939W        W 9468  18.504  11.334   0.014
37940W        W 9469  16.379  28.466   4.962
37941W        W 9470  23.337  18.681  11.228
37942W        W 9471  36.832  25.385  11.980
37943W        W 9472   4.318  10.459  10.714
37944W        W 9473  41.252  15.682  11.048
37945W        W 9474  25.965  18.746   0.030
37946W        W 9475  38.914  12.258   4.857
37947W        W 9476  34.850   6.952   1.888
37948W        W 9477  12.138  11.186   4.565
37949W        W 9478  18.310   2.966  13.291
37950W        W 9479  31.471   2.352   4.372
37951W        W 9480  13.647  16.132  11.514
37952W        W 9481  43.642  37.581  11.411
37953W        W 9482   4.582   6.098  11.143
37954W        W 9483  10.132  42.258   2.287
37955W        W 9484  19.172  14.213   1.152
37956W        W 9485  14.672  44.835  13.533
37957W        W 9486  43.806  16.843   0.017
37958W        W 9487  37.660  28.648  14.986
37959W        W 9488  23.164  25.365   0.770
37960W        W 9489  12.596  34.191  10.347
37961W        W 9490  42.763  37.819   2.284
37962W        W 9491  14.733  25.966   1.117
37963W        W 9492  27.641  10.319   0.272
37964W        W 9493  44.399  23.073   2.235
37965W        W 9494   3.615   5.850   1.386
37966W        W 9495  25.202  23.197   2.142
37967W        W 9496  14.152  26.040  10.923
37968W        W 9497  22.543   1.968  12.887
37969W        W 9498  29.852   9.819  12.577
37970W        W 9499  12.137  30.990   2.327
37971W        W 9500  38.772  39.486   4.149
37972W        W 9501  14.778  20.997   3.752
37973W        W 9502   6.430  27.214  13.503
37974W        W 9503  12.600   8.293   4.843
37975W        W 9504  39.920   8.789   0.371
37976W        W 9505  44.611  18.987   1.367
37977W        W 9506  29.087  13.196  13.461
37978W        W 9507  38.821   0.025  11.042
37979W        W 9508  29.980  15.318   1.794
37980W        W 9509   7.188  28.959   4.693
37981W        W 9510  15.636  41.712   0.475
37982W        W 9511  35.711   1.474   1.295
37983W        W 9512   0.844  16.632   1.273
37984W        W 9513  27.209   7.412  13.574
37985W        W 9514  13.289   0.026  10.524
37986W        W 9515   2.279  39.439   1.051
37987W        W 9516   0.891   7.612   0.513
37988W        W 9517  31.065   3.596   4.745
37989W        W 9518  24.550  34.609   1.915
37990W        W 9519   4.917   7.279  13.485
37991W        W 9520  34.567   9.678   0.152
37992W        W 9521  19.284  14.234  10.635
37993W        W 9522   2.251   4.693   4.236
37994W        W 9523  20.606  15.836   4.471
37995W        W 9524  24.017   8.287  13.047
37996W        W 9525   9.795  23.217  10.963
37997W        W 9526  30.766  34.962  12.889
37998W        W 9527  36.655  21.333   2.384
37999W        W 9528  42.073   2.322   0.685
38000W        W 9529  11.705   2.843   1.237
38001W        W 9530  28.558  24.515  11.856
38002W        W 9531   7.185  33.984   1.667
38003W        W 9532   8.301   9.417  10.600
38004W        W 9533  19.705   8.528   5.001
38005W        W 9534  34.952  20.090   4.469
38006W        W 9535  38.625  43.986   2.311
38007W        W 9536  24.865   0.063  12.542
38008W        W 9537  15.841   9.100  11.196
38009W        W 9538  25.485  41.250   4.084
38010W        W 9539   7.953  18.944  12.538
38011W        W 9540   5.570   7.752  10.761
38012W        W 9541  18.329  25.440  13.501
38013W        W 9542  28.930  31.448  12.482
38014W        W 9543  10.742  20.588   4.657
38015W        W 9544  40.578  21.360  13.526
38016W        W 9545  19.734  31.107  10.729
38017W        W 9546  11.385  18.535   1.788
38018W        W 9547  37.312  27.667   3.574
38019W        W 9548  25.678  40.228  14.920
38020W        W 9549   6.617  41.569  12.549
38021W        W 9550  38.848  17.173  12.437
38022W        W 9551  25.788  19.487  10.086
38023W        W 9552  40.833   2.015   4.159
38024W        W 9553  12.455  20.590   2.159
38025W        W 9554  20.439  39.434  14.505
38026W        W 9555   5.317  26.399   4.152
38027W        W 9556  15.561   6.576  11.180
38028W        W 9557  40.877  26.976  14.977
38029W        W 9558   2.971  41.997   1.857
38030W        W 9559  21.790   8.915  13.278
38031W        W 9560  41.542  33.981   0.724
38032W        W 9561  28.116  13.329   0.454
38033W        W 9562  11.691  40.853   0.978
38034W        W 9563   4.376  11.667  13.987
38035W        W 9564  25.409  29.064   0.265
38036W        W 9565  35.144   8.636   3.258
38037W        W 9566   3.382  12.465   2.147
38038W        W 9567  24.839  43.700   4.759
38039W        W 9568   3.873  34.692   4.964
38040W        W 9569  33.358  35.584  13.336
38041W        W 9570  19.431  34.655  14.985
38042W        W 9571  34.494  14.484  10.812
38043W        W 9572  18.501  41.771  13.544
38044W        W 9573   7.389  33.432   3.104
38045W        W 9574  26.160  16.255   2.727
38046W        W 9575  27.091   7.283  11.511
38047W        W 9576   9.303  16.346   1.678
38048W        W 9577  19.521  21.568  13.964
38049W        W 9578   5.529  37.924  12.067
38050W        W 9579   4.235  15.068  14.616
38051W        W 9580  31.157  29.623  14.441
38052W        W 9581  11.877  33.933   1.416
38053W        W 9582  22.999  42.344   4.393
38054W        W 9583  12.523  18.699   5.109
38055W        W 9584  20.846  28.975   3.792
38056W        W 9585  28.530  27.443  10.653
38057W        W 9586  11.831  31.962   2.563
38058W        W 9587  14.524  26.489   4.498
38059W        W 9588  19.730  17.335  10.602
38060W        W 9589  30.498  14.721   0.131
38061W        W 9590   3.147  37.882  11.578
38062W        W 9591  12.367  42.096  13.658
38063W        W 9592  44.245   6.259  12.470
38064W        W 9593  18.953  27.484  11.640
38065W        W 9594   8.158  17.991  13.107
38066W        W 9595  27.058  33.677   0.780
38067W        W 9596  22.703   9.910   3.244
38068W        W 9597  35.292  37.824   3.308
38069W        W 9598  34.000  11.925  13.569
38070W        W 9599   3.940   3.208   4.302
38071W        W 9600  33.919  21.531  14.453
38072W        W 9601  23.934  28.775   4.553
38073W        W 9602   5.872   0.757  10.706
38074W        W 9603  30.495  33.365  12.149
38075W        W 9604   8.858   3.056   0.960
38076W        W 9605   4.305  17.222  13.118
38077W        W 9606  14.596  12.102   3.808
38078W        W 9607  41.820  38.098  14.789
38079W        W 9608  37.337  39.457   2.415
38080W        W 9609   0.619  13.958   0.641
38081W        W 9610  16.297   2.288  12.077
38082W        W 9611  29.485  42.733   0.287
38083W        W 9612  43.316  12.148   2.375
38084W        W 9613  10.818  18.528   0.809
38085W        W 9614   9.119  39.399   3.750
38086W        W 9615  34.079  34.884  11.157
38087W        W 9616  14.307  29.180  11.588
38088W        W 9617   8.193  30.426  11.451
38089W        W 9618  13.339  38.623  12.478
38090W        W 9619  35.426  17.087   3.907
38091W        W 9620  10.063  28.726  11.669
38092W        W 9621  16.281  12.228   1.294
38093W        W 9622  30.387  28.259   2.893
38094W        W 9623  41.095  22.252  12.530
38095W        W 9624  36.909   0.015  14.829
38096W        W 9625  23.521  42.030   3.696
38097W        W 9626   1.623  14.820  12.866
38098W        W 9627  26.928  38.713   0.894
38099W        W 9628  43.329  30.391   2.821
38100W        W 9629  18.258  40.722  10.699
38101W        W 9630   5.663  27.185  11.418
38102W        W 9631  41.352  14.285   4.627
38103W        W 9632  35.076  33.534   4.109
38104W        W 9633  25.713  40.417  13.502
38105W        W 9634  37.900  36.620   4.908
38106W        W 9635  17.726  25.515  11.424
38107W        W 9636  40.198  43.237  12.016
38108W        W 9637  42.800   2.273  14.896
38109W        W 9638  36.783  32.740   3.967
38110W        W 9639  10.664  29.572  14.013
38111W        W 9640  43.774  25.497  10.996
38112W        W 9641  39.699  30.498   3.318
38113W        W 9642  21.251  30.817  10.703
38114W        W 9643  21.810  29.245   3.820
38115W        W 9644  29.875  20.322  14.821
38116W        W 9645  21.327  19.250   3.653
38117W        W 9646  28.250   4.742   2.397
38118W        W 9647  11.742  42.127   0.357
38119W        W 9648  29.463  39.169   2.150
38120W        W 9649  33.000  21.151  13.621
38121W        W 9650  28.760  24.105  13.012
38122W        W 9651  22.890  12.250   3.872
38123W        W 9652  32.601   0.233   4.244
38124W        W 9653  30.043  43.253   2.351
38125W        W 9654  37.785  40.896  14.415
38126W        W 9655   0.255  27.042  11.676
38127W        W 9656  13.271  27.777  12.606
38128W        W 9657  38.472  10.861  12.053
38129W        W 9658  44.427  30.863   0.019
38130W        W 9659  16.037   9.625  13.950
38131W        W 9660  18.555  34.445   0.749
38132W        W 9661  29.042  37.520   4.578
38133W        W 9662  35.826  34.306   1.708
38134W        W 9663  39.026  18.071   2.863
38135W        W 9664   7.671  23.020  11.453
38136W        W 9665  43.017  18.689  12.951
38137W        W 9666  22.461  11.745  14.883
38138W        W 9667  15.120  31.003   0.791
38139W        W 9668   5.108   8.843   3.352
38140W        W 9669   9.086  14.255  11.941
38141W        W 9670   2.551  36.407   5.237
38142W        W 9671  23.245  18.204  11.947
38143W        W 9672  15.563   3.268   3.172
38144W        W 9673  39.802  29.443  13.990
38145W        W 9674  40.789  13.346   4.585
38146W        W 9675   8.139  27.189   1.537
38147W        W 9676  33.618  19.646  11.984
38148W        W 9677  41.904  24.413   1.703
38149W        W 9678  19.691  26.140   1.312
38150W        W 9679  44.921  18.459  12.358
38151W        W 9680   6.643  34.505   4.044
38152W        W 9681  22.084  22.921   4.316
38153W        W 9682  41.561   2.968   3.873
38154W        W 9683  14.518   9.003   3.215
38155W        W 9684   9.719  25.521   3.507
38156W        W 9685  43.132  36.561   3.977
38157W        W 9686  40.644  40.900   0.881
38158W        W 9687  39.721  21.099  14.441
38159W        W 9688  37.500   7.268   4.651
38160W        W 9689  17.743  42.807  12.361
38161W        W 9690  27.076  15.213   4.102
38162W        W 9691  27.882  27.128  14.189
38163W        W 9692   2.842  16.506   1.696
38164W        W 9693  33.974  21.798  12.467
38165W        W 9694  26.878  39.485  11.983
38166W        W 9695  30.629  36.391  13.770
38167W        W 9696   8.676   0.982  10.321
38168W        W 9697  14.204  25.271   1.812
38169W        W 9698  23.218  27.984   2.901
38170W        W 9699  24.099  34.837  13.417
38171W        W 9700  37.140  25.181   2.630
38172W        W 9701  41.964  11.867  14.503
38173W        W 9702  30.105  41.740   3.344
38174W        W 9703  40.927  25.113  13.404
38175W        W 9704   8.924  15.330   2.280
38176W        W 9705  42.786   4.707   2.148
38177W        W 9706  36.903  36.353  14.736
38178W        W 9707  29.372   2.920  14.865
38179W        W 9708  30.549   5.763  10.705
38180W        W 9709  34.530  17.951   0.291
38181W        W 9710  32.477  33.389  13.984
38182W        W 9711  11.647  33.020   2.935
38183W        W 9712  15.950  31.514  14.780
38184W        W 9713  37.650  37.545  11.062
38185W        W 9714   1.720  34.134   2.769
38186W        W 9715   9.198  23.429   3.218
38187W        W 9716  17.260  28.943   2.815
38188W        W 9717  26.129  16.067   1.268
38189W        W 9718  29.390   7.770   0.801
38190W        W 9719  15.129  22.230   4.079
38191W        W 9720  29.634  42.266  13.496
38192W        W 9721  30.109  29.447   5.043
38193W        W 9722   5.800  41.263   4.389
38194W        W 9723   7.884  11.266   1.953
38195W        W 9724  31.652   0.631   0.361
38196W        W 9725  22.122  15.616   4.418
38197W        W 9726   0.979  12.912   1.857
38198W        W 9727   8.811  40.841  13.740
38199W        W 9728  40.101  19.569  13.839
38200W        W 9729   9.936  44.009   0.163
38201W        W 9730  16.567  16.587   3.237
38202W        W 9731   6.648  12.889  12.936
38203W        W 9732  40.287  22.361  14.996
38204W        W 9733   0.522   2.280  10.713
38205W        W 9734  17.190  24.078   1.945
38206W        W 9735  30.985   7.063   1.508
38207W        W 9736  20.639  37.982  14.326
38208W        W 9737  37.868  11.860   0.741
38209W        W 9738  26.015   7.932   1.914
38210W        W 9739  25.673  17.700   0.196
38211W        W 9740  43.561  36.418  11.578
38212W        W 9741  24.994  42.395   3.216
38213W        W 9742  16.232  36.835  14.252
38214W        W 9743   0.278  42.393   1.337
38215W        W 9744  25.495  36.087   1.273
38216W        W 9745  11.222   6.765   1.460
38217W        W 9746  38.849  44.317   0.759
38218W        W 9747  22.684   3.676   3.911
38219W        W 9748   9.818   4.202  12.187
38220W        W 9749  30.109  10.565  11.912
38221W        W 9750  27.802  29.476  12.520
38222W        W 9751  10.290   1.735  14.771
38223W        W 9752  31.462   9.217  12.416
38224W        W 9753  17.688  32.917  11.391
38225W        W 9754   4.339  23.850  11.400
38226W        W 9755  41.340   8.211  14.453
38227W        W 9756  17.723  22.788  13.186
38228W        W 9757  38.983  18.842   3.239
38229W        W 9758  34.582  23.946   3.674
38230W        W 9759   1.124   8.951  11.677
38231W        W 9760  40.112  11.215  10.669
38232W        W 9761  14.205  22.857  14.435
38233W        W 9762  23.483  16.774   2.414
38234W        W 9763  22.048  18.481  14.913
38235W        W 9764   5.788  12.264   4.157
38236W        W 9765  35.305  24.513  12.579
38237W        W 9766   9.824  13.930   4.680
38238W        W 9767  12.506  35.634  13.026
38239W        W 9768  39.257  35.988  11.678
38240W        W 9769  16.929  38.588  14.782
38241W        W 9770  44.472  32.997   2.134
38242W        W 9771   2.427  27.904  11.081
38243W        W 9772   6.125  34.417   3.230
38244W        W 9773  31.153  19.451   1.874
38245W        W 9774  34.515  30.194   0.843
38246W        W 9775  13.466  16.155   0.853
38247W        W 9776  33.637  44.353   1.650
38248W        W 9777  30.617  26.556   4.091
38249W        W 9778   3.485  41.915  12.979
38250W        W 9779  30.469   6.123   2.847
38251W        W 9780  18.031  18.766   4.260
38252W        W 9781  38.914  12.663  11.233
38253W        W 9782  11.778   9.260  13.483
38254W        W 9783  16.553   2.332  11.626
38255W        W 9784   7.718  30.007   4.645
38256W        W 9785  23.152  12.405  10.602
38257W        W 9786   0.317  40.138  14.512
38258W        W 9787  31.923   3.885  13.613
38259W        W 9788   2.818  10.668  14.759
38260W        W 9789  44.773  20.153  10.634
38261W        W 9790  26.216   7.647  12.698
38262W        W 9791  14.435   8.440  11.609
38263W        W 9792  36.897  17.574   1.972
38264W        W 9793   8.992   1.765  14.337
38265W        W 9794  14.891  10.430  13.513
38266W        W 9795  42.476   2.991   3.183
38267W        W 9796  25.954  13.166   1.290
38268W        W 9797   4.862  38.002   2.222
38269W        W 9798  15.121  19.248  12.004
38270W        W 9799  44.054  30.051   4.297
38271W        W 9800  39.020  14.493   3.018
38272W        W 9801  22.291  24.890  13.468
38273W        W 9802  22.548  20.901   0.464
38274W        W 9803  28.393   7.237  11.009
38275W        W 9804   3.971  17.232  14.917
38276W        W 9805  11.462  14.880  11.132
38277W        W 9806  42.143   1.838   2.437
38278W        W 9807  31.102  10.048  12.500
38279W        W 9808  10.918  34.591   0.946
38280W        W 9809  26.190  21.057  13.045
38281W        W 9810  18.852   0.709   3.403
38282W        W 9811   1.383  19.763   3.321
38283W        W 9812  25.522  25.495  13.454
38284W        W 9813   9.326  37.832   3.273
38285W        W 9814  18.578  13.708   2.218
38286W        W 9815  39.191  27.636  12.927
38287W        W 9816   7.958  34.250  12.453
38288W        W 9817  41.768   2.971  13.379
38289W        W 9818   2.225  38.323   0.232
38290W        W 9819  30.982  29.514   3.441
38291W        W 9820  39.109  14.413   5.041
38292W        W 9821  33.482  25.148   1.959
38293W        W 9822  39.011  29.885  10.537
38294W        W 9823  13.183  17.804  13.842
38295W        W 9824  18.135  14.281   4.846
38296W        W 9825  21.212   1.774   4.533
38297W        W 9826  16.138   5.442   3.034
38298W        W 9827  21.663  12.289   2.844
38299W        W 9828  39.392  35.306   1.920
38300W        W 9829  20.901  32.503   1.274
38301W        W 9830  26.634  41.979  13.432
38302W        W 9831   1.806  17.107  13.296
38303W        W 9832  19.492  36.722   3.715
38304W        W 9833  41.995   4.252  11.621
38305W        W 9834  43.297  20.098  14.588
38306W        W 9835  19.136  31.206   4.263
38307W        W 9836   1.793  43.940  12.035
38308W        W 9837  10.975  21.712  14.764
38309W        W 9838  22.133  34.504  14.616
38310W        W 9839  42.285  28.920   0.779
38311W        W 9840  15.214  27.648   4.365
38312W        W 9841  35.855  44.815  10.684
38313W        W 9842  25.101  18.201   3.746
38314W        W 9843  34.525  42.897  10.750
38315W        W 9844   6.974   2.474  14.970
38316W        W 9845   4.045  15.347   4.174
38317W        W 9846  26.461   7.385   4.534
38318W        W 9847  11.906  42.608   5.050
38319W        W 9848  19.803  31.466   1.198
38320W        W 9849  10.832  17.221   2.113
38321W        W 9850  19.345  34.888   2.716
38322W        W 9851  13.408  32.703  14.841
38323W        W 9852  27.452   0.257   3.392
38324W        W 9853  25.775   0.776   4.183
38325W        W 9854  33.315  36.506  14.955
38326W        W 9855  17.852  24.793  14.391
38327W        W 9856   2.863  39.080   2.816
38328W        W 9857  20.626  21.097   2.899
38329W        W 9858   2.968  39.404  14.858
38330W        W 9859  30.946  36.382   1.938
38331W        W 9860  25.031  36.578   1.018
38332W        W 9861   4.429  35.400   4.807
38333W        W 9862  39.522  26.763   3.665
38334W        W 9863  19.979  17.343   3.341
38335W        W 9864  44.862   8.929   3.771
38336W        W 9865  12.113  36.935  14.362
38337W        W 9866  26.555  33.096   4.342
38338W        W 9867   7.399  31.601  14.035
38339W        W 9868   4.920   7.168  13.984
38340W        W 9869  17.679  12.546   0.180
38341W        W 9870  15.101  37.350   0.850
38342W        W 9871  36.811  21.555  12.527
38343W        W 9872  18.859   1.497   1.365
38344W        W 9873  43.681  40.433  12.062
38345W        W 9874   2.363  10.288  13.528
38346W        W 9875   9.655   9.720   2.283
38347W        W 9876  21.005   4.672  10.770
38348W        W 9877  28.755  18.653  13.949
38349W        W 9878  27.958  36.030   2.655
38350W        W 9879  31.878   1.861  13.134
38351W        W 9880  25.084  11.363  12.130
38352W        W 9881  10.136  39.520  13.305
38353W        W 9882  16.107   9.251   0.199
38354W        W 9883  37.942  37.520  13.979
38355W        W 9884  12.622  14.224  14.540
38356W        W 9885  30.079   1.733  10.374
38357W        W 9886   0.240   4.710  13.559
38358W        W 9887  35.345  41.971   2.792
38359W        W 9888  28.476  40.015  12.386
38360W        W 9889  28.824  22.908   1.943
38361W        W 9890   2.516  36.412   2.316
38362W        W 9891  44.789  36.975  11.915
38363W        W 9892  14.373  24.673  13.586
38364W        W 9893   8.895  39.100   0.373
38365W        W 9894   8.961  21.466  13.816
38366W        W 9895  43.393  33.885   3.806
38367W        W 9896  28.823  31.928   0.431
38368W        W 9897  38.761  37.336  14.591
38369W        W 9898   9.189   5.951   4.107
38370W        W 9899  29.576   0.472  12.605
38371W        W 9900   5.002  19.143   2.764
38372W        W 9901  40.007  28.199  14.550
38373W        W 9902  19.497  39.997   3.072
38374W        W 9903   5.093   5.998  11.142
38375W        W 9904  41.500  18.154   4.112
38376W        W 9905   5.630  15.859  12.045
38377W        W 9906   3.262  21.531  12.974
38378W        W 9907  17.888  26.984  14.449
38379W        W 9908  27.773  12.594  13.363
38380W        W 9909  11.162   3.635   0.882
38381W        W 9910  17.224  18.853  12.970
38382W        W 9911  22.963  36.282  14.777
38383W        W 9912  22.755  18.865   0.335
38384W        W 9913  17.820  40.403   2.248
38385W        W 9914  12.701  42.988  10.606
38386W        W 9915  19.506  27.916   2.005
38387W        W 9916  10.173   0.949   0.378
38388W        W 9917   2.758  19.621  10.775
38389W        W 9918  16.294  16.389  14.394
38390W        W 9919  36.979  37.143  13.791
38391W        W 9920  34.578   4.848   3.212
38392W        W 9921  14.278  17.120  12.887
38393W        W 9922  12.774  24.595  14.399
38394W        W 9923  30.664   9.065  10.956
38395W        W 9924  29.563  36.279   0.228
38396W        W 9925  39.761   9.798   4.694
38397W        W 9926  20.088   9.344   0.826
38398W        W 9927  30.616   8.162  13.963
38399W        W 9928  27.637   9.982   1.480
38400W        W 9929  34.548  39.247   0.736
38401W        W 9930   5.844  29.982   4.098
38402W        W 9931  33.956  32.032   3.567
38403W        W 9932  38.063  29.108   1.244
38404W        W 9933  39.914  15.207   3.553
38405W        W 9934  31.381  32.529   2.300
38406W        W 9935  11.814  36.811  10.773
38407W        W 9936  14.058  44.546   3.274
38408W        W 9937  23.519  23.431   1.233
38409W        W 9938   2.959  35.132  10.610
38410W        W 9939   2.446  29.784   2.975
38411W        W 9940  40.718  19.088   1.719
38412W        W 9941  18.659  40.868  13.958
38413W        W 9942  37.972  35.962   0.940
38414W        W 9943  29.598  17.343   4.178
38415W        W 9944  20.645  35.299  14.860
38416W        W 9945  38.826   4.913  12.751
38417W        W 9946  26.591  31.651   0.601
38418W        W 9947  32.163  36.060  11.065
38419W        W 9948  43.448   9.402   1.761
38420W        W 9949   2.959  33.889   2.352
38421W        W 9950  38.008   6.795   3.602
38422W        W 9951  12.388  39.839  11.185
38423W        W 9952   2.944  32.159  10.741
38424W        W 9953  11.456  40.539   2.694
38425W        W 9954  13.677  44.494   0.887
38426W        W 9955   7.669  11.880   4.207
38427W        W 9956  28.379  16.744  14.475
38428W        W 9957  30.582  17.859  13.508
38429W        W 9958  43.498  44.283  13.434
38430W        W 9959  38.506  30.092   1.365
38431W        W 9960   8.182   6.757  14.409
38432W        W 9961  33.365  30.531  14.828
38433W        W 9962   4.979  28.237   0.075
38434W        W 9963  11.150   5.910  10.808
38435W        W 9964   3.931   9.875  12.058
38436W        W 9965  31.137  43.369   3.390
38437W        W 9966  33.113  23.060   4.918
38438W        W 9967  38.968  43.673  11.559
38439W        W 9968  14.687  12.189   1.874
38440W        W 9969  32.698  35.142   9.789
38441W        W 9970   4.770  17.055   2.185
38442W        W 9971  30.873  15.097  14.308
38443W        W 9972  11.685  20.446  11.909
38444W        W 9973   6.513  42.510  14.058
38445W        W 9974   0.861   1.004   4.073
38446W        W 9975  26.529  19.161   3.166
38447W        W 9976   3.101   3.597   3.599
38448W        W 9977   8.947  36.269  13.223
38449W        W 9978   6.310  26.923  12.955
38450W        W 9979  21.197  20.177   0.174
38451W        W 9980   1.828  36.100  14.686
38452W        W 9981   9.709  35.138  12.348
38453W        W 9982  41.091  27.610   1.115
38454W        W 9983  22.708  41.521   0.815
38455W        W 9984  25.125   7.910   0.749
38456W        W 9985  17.772  10.145  13.387
38457W        W 9986  38.684   5.303  13.566
38458W        W 9987   2.297  20.096   3.820
38459W        W 9988  42.076  32.018  13.434
38460W        W 9989   7.614  37.241   4.975
38461W        W 9990  19.155  26.244  10.974
38462W        W 9991  33.205   1.361   5.125
38463W        W 9992  12.740   2.678  11.018
38464W        W 9993   7.579   5.530   2.690
38465W        W 9994  33.350  35.109  11.526
38466W        W 9995  40.033  14.783   1.250
38467W        W 9996   6.677  41.877  14.224
38468W        W 9997  41.283  40.038  12.908
38469W        W 9998  16.464  39.896  12.984
38470W        W 9999  23.080   6.669  12.539
38471W        W10000  16.376   8.510  11.574
38472W        W10001  11.195   5.691  13.971
38473W        W10002  28.371  27.100  14.443
38474W        W10003  41.958  30.972  13.885
38475W        W10004  19.351  39.074   0.810
38476W        W10005   1.760   1.985   1.895
38477W        W10006  30.638   7.677   4.125
38478W        W10007  21.447  44.353  13.533
38479W        W10008  18.742  15.626  13.138
38480W        W10009  37.889  12.066  11.130
38481W        W10010  28.428  20.793   0.712
38482W        W10011  42.473  30.891   2.691
38483W        W10012   8.860  38.585  11.134
38484W        W10013  25.856  42.155   1.918
38485W        W10014   3.833  41.820  10.722
38486W        W10015  11.369  21.419  13.360
38487W        W10016  42.534  43.822  11.636
38488W        W10017   3.397  44.039   0.824
38489W        W10018   6.030  24.712  12.787
38490W        W10019  34.040  27.944   0.537
38491W        W10020  25.184  24.236   0.225
38492W        W10021  19.597  44.307   2.195
38493W        W10022  29.461  37.730  12.430
38494W        W10023  41.655  28.519  14.520
38495W        W10024  27.102  43.949  13.544
38496W        W10025  18.477   9.672  10.637
38497W        W10026   9.562  34.112  10.236
38498W        W10027   5.990   2.396   2.397
38499W        W10028   8.072   0.073  14.886
38500W        W10029  11.379  27.614  14.097
38501W        W10030  36.319  41.513   2.516
38502W        W10031  34.415  10.394   4.853
38503W        W10032  44.215  19.724   4.758
38504W        W10033  29.398  27.097   1.330
38505W        W10034  40.301  39.051  11.238
38506W        W10035   1.458  25.980   4.013
38507W        W10036   1.940   5.813   3.174
38508W        W10037  10.885  41.236  13.799
38509W        W10038   4.634  43.425   3.025
38510W        W10039  38.453  17.938  10.886
38511W        W10040  21.696   9.991   4.167
38512W        W10041  41.040  37.110  14.780
38513W        W10042  21.755   8.785  12.055
38514W        W10043  12.467  20.527  11.525
38515W        W10044   8.520  37.525   4.634
38516W        W10045  11.111  23.397  12.157
38517W        W10046   7.308  36.977   4.555
38518W        W10047  25.122  30.895  13.850
38519W        W10048  13.522   0.777   2.737
38520W        W10049  15.011  19.805   3.675
38521W        W10050  25.757  12.640  14.443
38522W        W10051   9.386   3.229  10.521
38523W        W10052  37.961   8.156   0.511
38524W        W10053   5.744  35.090  11.125
38525W        W10054  43.354  29.228   3.257
38526W        W10055   4.723  31.103   3.285
38527W        W10056   1.388  15.657  14.804
38528W        W10057  25.650  22.585  13.908
38529W        W10058  41.332  28.702   4.598
38530W        W10059   6.962  32.145   1.179
38531W        W10060   1.257  14.290  13.900
38532W        W10061  42.316  19.156   0.008
38533W        W10062   8.884  14.056  10.622
38534W        W10063  27.201  19.296   3.812
38535W        W10064  27.061  10.381   4.339
38536W        W10065  25.146  23.988   4.457
38537W        W10066   1.331   2.724  12.213
38538W        W10067   3.958  42.327   0.194
38539W        W10068  36.462  38.075   4.052
38540W        W10069  12.294  23.612   0.917
38541W        W10070  23.736  17.631  14.908
38542W        W10071  13.898  37.824  12.494
38543W        W10072  44.010  36.496   2.228
38544W        W10073  23.074  17.131  12.791
38545W        W10074  40.112   8.070  13.384
38546W        W10075   7.743   1.827   5.139
38547W        W10076  21.208  11.402  10.785
38548W        W10077  19.521  40.829  10.734
38549W        W10078   5.257   3.912   1.747
38550W        W10079   1.932  10.180   4.397
38551W        W10080  44.399  34.035   0.157
38552W        W10081  34.904  31.090  12.577
38553W        W10082  25.587  33.463   1.931
38554W        W10083  34.516  30.702   4.130
38555W        W10084   4.600  38.062   1.731
38556W        W10085   4.706   9.312   2.882
38557W        W10086  32.971   9.405   2.772
38558W        W10087  25.482  43.796  11.241
38559W        W10088  37.540  11.685   1.786
38560W        W10089  25.075  32.562   4.809
38561W        W10090  26.220  37.043   1.333
38562W        W10091   5.418  25.860   0.316
38563W        W10092   5.759  24.644   1.346
38564W        W10093  14.232  26.633   1.600
38565W        W10094  29.095  35.538  12.524
38566W        W10095  39.327  23.843   1.717
38567W        W10096  11.600   1.943  11.047
38568W        W10097  43.428   2.551  12.132
38569W        W10098   7.708  34.698  12.435
38570W        W10099  36.112  44.751   2.181
38571W        W10100  34.611  36.589   1.259
38572W        W10101  44.890  22.155   4.134
38573W        W10102  17.360  24.261  12.802
38574W        W10103  40.087  24.466  13.423
38575W        W10104  39.013  15.650  13.032
38576W        W10105  40.004  24.561   2.380
38577W        W10106  17.304  41.906   0.358
38578W        W10107  35.293  19.865  10.241
38579W        W10108  13.320  19.971   4.345
38580W        W10109  39.888   8.424   2.428
38581W        W10110  38.204   7.298   3.464
38582W        W10111  39.771  34.651  13.854
38583W        W10112   2.003   5.912  14.044
38584W        W10113  40.816  34.652  12.145
38585W        W10114  29.739  35.151  12.957
38586W        W10115  12.907  19.224   4.400
38587W        W10116  40.294  11.289  14.966
38588W        W10117  21.035   3.690  10.825
38589W        W10118  12.379  33.433  11.879
38590W        W10119  32.203  31.673   3.808
38591W        W10120  44.529  11.816   3.214
38592W        W10121  20.700  32.035   3.275
38593W        W10122  30.147  28.521  13.885
38594W        W10123   9.891  23.010  13.372
38595W        W10124   6.914  39.084  13.388
38596W        W10125  35.539  34.428   4.528
38597W        W10126  35.150  17.715   0.012
38598W        W10127  27.948  17.153  14.962
38599W        W10128  10.867  42.963   3.774
38600W        W10129  33.398  30.232  12.357
38601W        W10130  39.266  24.937   0.141
38602W        W10131  15.705  22.687   0.861
38603W        W10132  17.567   7.438  10.323
38604W        W10133  43.515  21.864  12.960
38605W        W10134  11.299   4.245  13.919
38606W        W10135  42.350  13.630   2.764
38607W        W10136  21.484  21.484   1.359
38608W        W10137  43.947  17.915  11.632
38609W        W10138  38.906  29.560   4.208
38610W        W10139   8.871  26.018  12.501
38611W        W10140  35.122  33.456   1.788
38612W        W10141  27.037  32.419   4.335
38613W        W10142  17.364  24.881  10.338
38614W        W10143   8.862  17.267   1.737
38615W        W10144  31.608  31.648   0.336
38616W        W10145   6.870   1.387   4.149
38617W        W10146   6.978   6.930  11.125
38618W        W10147  41.884  29.905  10.586
38619W        W10148   1.446  38.845   4.904
38620W        W10149  15.384  19.095  14.492
38621W        W10150  12.791  29.035   3.891
38622W        W10151  35.246  12.106  12.987
38623W        W10152  25.213   2.671  12.613
38624W        W10153  30.083  19.787  14.902
38625W        W10154  17.563  38.867  13.759
38626W        W10155   9.740  32.452  12.629
38627W        W10156  22.620  14.151  14.227
38628W        W10157  14.028  18.077   1.803
38629W        W10158  25.410  19.817   0.327
38630W        W10159  22.227  14.391  14.443
38631W        W10160  17.243  37.814  14.466
38632W        W10161  29.001  20.025  11.115
38633W        W10162  22.704   4.340  12.007
38634W        W10163   8.265  25.170   3.723
38635W        W10164  30.074  18.084   1.966
38636W        W10165  20.614  16.143   0.844
38637W        W10166  11.875   4.653  11.593
38638W        W10167  22.529  42.916  11.849
38639W        W10168   8.873  21.775   2.131
38640W        W10169  26.443   5.885  13.970
38641W        W10170   2.376   6.766   3.538
38642W        W10171  38.427   0.556   0.198
38643W        W10172  19.258  36.701  14.969
38644W        W10173   8.819  41.197  12.505
38645W        W10174   0.823  37.660  13.461
38646W        W10175  11.094   8.822  13.826
38647W        W10176  27.374  24.513  10.537
38648W        W10177  13.179  40.960   3.263
38649W        W10178  44.918  32.973  13.448
38650W        W10179  41.269  37.013   3.247
38651W        W10180  41.919   3.392   1.253
38652W        W10181  31.144  16.354   3.074
38653W        W10182  18.687  27.565   1.629
38654W        W10183  17.400  37.318  11.550
38655W        W10184  36.917  40.967   3.082
38656W        W10185  39.117  35.700   5.100
38657W        W10186   6.846  34.348  14.353
38658W        W10187   1.850  38.476  10.627
38659W        W10188  39.891  27.518   0.545
38660W        W10189  14.051  25.114  12.325
38661W        W10190  40.076  22.773   0.335
38662W        W10191  23.445  31.008  12.989
38663W        W10192  29.652  34.609   3.355
38664W        W10193  26.593  37.820   0.630
38665W        W10194  20.160  43.439  13.758
38666W        W10195  42.209  33.675   4.680
38667W        W10196  43.640  36.459   2.822
38668W        W10197   8.256  43.945  12.639
38669W        W10198  33.157  15.521  10.027
38670W        W10199   2.463  24.659  14.767
38671W        W10200  12.185  40.513   3.249
38672W        W10201  41.233  26.436  13.055
38673W        W10202  30.619   8.621  14.769
38674W        W10203  11.092  20.526   1.338
38675W        W10204  40.297  24.430   0.850
38676W        W10205  15.634  19.226   3.873
38677W        W10206  14.652  38.448  14.384
38678W        W10207  32.110  12.607   2.337
38679W        W10208  33.189  19.674   4.465
38680W        W10209  23.100  40.069   4.118
38681W        W10210  44.993   6.864   3.414
38682W        W10211  31.313  30.787  11.675
38683W        W10212   8.358  28.168  12.920
38684W        W10213  22.028   1.842  12.988
38685W        W10214   9.682  12.720   0.513
38686W        W10215   3.554  22.488  10.643
38687W        W10216   0.033  33.338  13.024
38688W        W10217   2.559  38.077   0.870
38689W        W10218  42.498  10.848   0.915
38690W        W10219  38.476  35.580  13.909
38691W        W10220   8.607  30.968   2.092
38692W        W10221  29.592  30.703  10.213
38693W        W10222  43.202  40.313  13.875
38694W        W10223  43.300  36.284  13.535
38695W        W10224   8.823  37.086  13.002
38696W        W10225  43.478  18.247  10.966
38697W        W10226  11.157   6.768   0.014
38698W        W10227   6.017  20.629  10.458
38699W        W10228  12.295  14.092  12.474
38700W        W10229  34.152  13.550   4.104
38701W        W10230  10.393   0.422  12.459
38702W        W10231  22.680   3.755   3.404
38703W        W10232  24.248  44.158  14.314
38704W        W10233  39.313  37.263  13.410
38705W        W10234   4.357  13.376  14.553
38706W        W10235  16.121  42.933   1.409
38707W        W10236  32.490   8.673   3.411
38708W        W10237  14.798  32.872   2.896
38709W        W10238  32.723  17.177  12.317
38710W        W10239   9.848  24.237  12.393
38711W        W10240  10.141  41.420  14.392
38712W        W10241   7.144  12.193   1.221
38713W        W10242  31.448  21.216  13.861
38714W        W10243  37.938  14.704   2.185
38715W        W10244  43.614  14.212   1.751
38716W        W10245  29.089  40.024   1.217
38717W        W10246   1.901   2.235  13.421
38718W        W10247  44.370  28.572   4.721
38719W        W10248  36.190   4.693  10.734
38720W        W10249   1.830  36.842  12.512
38721W        W10250  39.330  15.684  11.026
38722W        W10251  10.813  28.615  12.101
38723W        W10252   2.856  32.842  14.527
38724W        W10253   1.150  34.729  14.843
38725W        W10254   8.176  20.634  14.376
38726W        W10255  25.855   1.987  14.936
38727W        W10256   4.756  19.711  13.963
38728W        W10257  25.171  43.361   3.085
38729W        W10258  24.368  43.174  12.159
38730W        W10259  40.235  12.722   5.006
38731W        W10260  11.842  34.815   4.569
38732W        W10261  35.428  15.719   0.731
38733W        W10262  44.548  23.655   0.768
38734W        W10263  13.793  33.076  14.863
38735W        W10264  14.602  13.394  12.132
38736W        W10265  26.599  33.644  12.397
38737W        W10266  25.262  35.650   1.488
38738W        W10267  35.508  16.789  11.743
38739W        W10268  38.054  15.267   3.074
38740W        W10269  17.237   7.019   0.239
38741W        W10270  20.572  25.193   3.640
38742W        W10271  38.529   1.894   2.884
38743W        W10272   9.839  27.151  13.636
38744W        W10273  44.276  44.850   4.849
38745W        W10274   5.224  32.898  13.549
38746W        W10275  40.319   6.147   1.330
38747W        W10276  31.037  29.732   1.618
38748W        W10277  33.396  17.705  10.397
38749W        W10278  15.742  33.360   3.145
38750W        W10279  20.812  14.217   3.888
38751W        W10280  10.110  20.944  13.147
38752W        W10281   0.454  14.302   0.991
38753W        W10282   0.780  11.737   3.841
38754W        W10283  30.910  30.632  11.994
38755W        W10284  23.467  21.005  11.894
38756W        W10285   8.418  37.378  13.602
38757W        W10286  21.435  17.162  10.336
38758W        W10287  23.536   0.680   2.361
38759W        W10288  29.947  19.259  14.905
38760W        W10289  19.669  43.876   0.518
38761W        W10290   1.425   5.679   4.093
38762W        W10291  42.156  43.404  12.804
38763W        W10292   5.014  41.311  14.923
38764W        W10293  10.150  37.429   1.247
38765W        W10294  25.417  19.731   3.787
38766W        W10295  41.791  25.646  13.449
38767W        W10296  22.210  18.027   2.384
38768W        W10297  27.083  16.558   0.381
38769W        W10298   8.155  44.815   4.059
38770W        W10299  12.239   8.395  13.058
38771W        W10300  17.582  36.646   3.583
38772W        W10301  15.261  34.520  14.017
38773W        W10302  19.800   4.074   3.604
38774W        W10303  41.759   0.867   1.270
38775W        W10304   9.666   7.247  13.539
38776W        W10305  13.084  43.302   3.785
38777W        W10306  29.530   8.186  14.301
38778W        W10307  19.341  43.162  11.607
38779W        W10308  13.310  29.196   4.453
38780W        W10309  30.877  11.748  14.503
38781W        W10310  42.622  23.588  10.423
38782W        W10311  12.318  32.068  10.867
38783W        W10312  41.127  13.385   0.754
38784W        W10313   8.760  37.428   0.273
38785W        W10314  31.040  38.232  14.758
38786W        W10315   2.361  15.160   3.284
38787W        W10316  13.384  20.090   2.355
38788W        W10317  20.264  37.509  12.411
38789W        W10318   1.712  38.474  13.967
38790W        W10319  19.979   2.606   3.743
38791W        W10320  14.860  13.594   2.812
38792W        W10321  20.864  31.837   1.959
38793W        W10322  35.414  24.002   3.874
38794W        W10323  14.681  37.108  10.415
38795W        W10324  27.414  41.986  12.872
38796W        W10325  37.916   8.480  13.058
38797W        W10326   2.216  35.837   0.503
38798W        W10327  33.334  11.384  10.725
38799W        W10328   7.450   6.293  12.499
38800W        W10329  35.828  39.962  11.680
38801W        W10330  43.080  25.071   3.370
38802W        W10331  38.177   2.422   4.567
38803W        W10332  23.017  13.427  10.707
38804W        W10333  38.452  41.784   4.602
38805W        W10334  41.849   9.199   2.255
38806W        W10335   6.365  37.786   4.929
38807W        W10336  37.868  20.293   3.715
38808W        W10337  40.181  44.649   3.374
38809W        W10338   3.392   3.527  12.624
38810W        W10339  35.456   5.376   2.268
38811W        W10340  44.388   8.944   2.432
38812W        W10341  21.143   6.817   3.370
38813W        W10342  34.630  14.710  13.046
38814W        W10343  25.901  12.231  13.863
38815W        W10344   9.326  30.094  10.666
38816W        W10345  21.328   6.320  11.254
38817W        W10346   9.630  25.676  11.077
38818W        W10347   6.601  33.077   3.352
38819W        W10348  15.362  22.145  13.414
38820W        W10349  36.070  15.060  11.229
38821W        W10350   2.534  44.024  11.513
38822W        W10351  12.178   9.083   2.807
38823W        W10352  10.690  25.676  10.775
38824W        W10353   9.663   2.237   0.834
38825W        W10354  35.710   4.040   1.855
38826W        W10355  17.644  44.014   1.637
38827W        W10356  39.260  27.708   2.182
38828W        W10357  43.883  14.761  12.370
38829W        W10358  39.262   3.468   3.766
38830W        W10359  14.449  33.917   4.019
38831W        W10360  23.891  33.107   3.240
38832W        W10361  43.891  13.417   1.391
38833W        W10362  14.967  33.353   2.854
38834W        W10363  36.869  39.884   4.107
38835W        W10364   4.705  36.420  11.968
38836W        W10365  33.574   6.591  14.978
38837W        W10366   6.904  25.386   3.568
38838W        W10367   4.858  26.067   5.082
38839W        W10368  34.894  35.413  14.942
38840W        W10369  20.031  35.098  11.014
38841W        W10370  13.182  16.610   1.068
38842W        W10371  23.975   0.872   3.694
38843W        W10372   2.370  31.014   1.837
38844W        W10373   0.516  33.762  14.223
38845W        W10374  17.098  14.298   0.244
38846W        W10375  13.192   1.400  10.332
38847W        W10376  26.879  16.110   0.512
38848W        W10377  29.566  24.925   2.860
38849W        W10378   8.803  10.620   0.884
38850W        W10379  36.645  37.971   2.835
38851W        W10380  19.049  14.438   4.924
38852W        W10381   6.924  20.515   4.552
38853W        W10382  29.519  34.839  13.415
38854W        W10383  13.015   0.382  14.442
38855W        W10384  26.074  18.030   3.301
38856W        W10385  29.795  13.616   0.295
38857W        W10386  40.387  14.535  13.431
38858W        W10387   1.249  11.814   0.304
38859W        W10388  29.945  37.019   3.246
38860W        W10389  10.097  27.542   2.149
38861W        W10390  13.533  15.214  11.245
38862W        W10391  21.963   1.336  12.870
38863W        W10392  31.171  39.267  10.866
38864W        W10393   2.597  33.191  10.109
38865W        W10394  41.294  14.384   2.251
38866W        W10395  14.060  32.460   2.626
38867W        W10396   8.420   5.126  12.537
38868W        W10397  14.798  15.775  12.418
38869W        W10398  12.907  11.567  12.955
38870W        W10399   6.714  30.449  13.858
38871W        W10400   8.055  26.727   1.710
38872W        W10401  20.952  40.424   2.805
38873W        W10402   3.334   1.965   0.958
38874W        W10403  43.737  22.546  10.627
38875W        W10404  30.149  33.038   5.677
38876W        W10405   8.760  27.980   0.110
38877W        W10406   0.414   3.393   3.332
38878W        W10407  26.745  13.230   1.712
38879W        W10408  30.664  15.726  11.403
38880W        W10409   6.438   3.866  14.909
38881W        W10410  14.781   4.935   0.154
38882W        W10411  18.256  17.115  10.647
38883W        W10412  11.186   5.222  11.908
38884W        W10413  13.496  26.030  12.149
38885W        W10414  21.768  39.853  14.524
38886W        W10415   1.382  15.203   0.437
38887W        W10416  36.297  14.096   2.827
38888W        W10417   7.814  16.753   2.383
38889W        W10418  37.384   9.120  13.405
38890W        W10419  41.548  36.019  13.802
38891W        W10420  23.703  42.541   3.664
38892W        W10421  12.090   3.460  13.524
38893W        W10422   0.991  35.969   1.322
38894W        W10423  20.251  27.673   2.200
38895W        W10424  27.051   7.332  10.608
38896W        W10425  30.500  33.144   3.202
38897W        W10426   9.770   9.284   0.399
38898W        W10427  15.851  16.061  11.600
38899W        W10428  28.077   7.206   3.530
38900W        W10429  42.853  36.407  11.934
38901W        W10430  26.628  17.575  14.904
38902W        W10431   0.318  23.212  14.677
38903W        W10432  17.665  27.380   4.925
38904W        W10433  34.640  24.096  13.563
38905W        W10434  23.479   2.541   0.881
38906W        W10435  40.380  14.318  13.951
38907W        W10436  11.232  44.134  13.773
38908W        W10437  25.435  33.481  14.560
38909W        W10438   0.802  44.793  13.950
38910W        W10439  28.556  27.426  13.913
38911W        W10440   8.894  18.146   2.741
38912W        W10441  30.929  14.826   0.430
38913W        W10442  41.104   5.410   1.981
38914W        W10443  10.875  20.082   2.239
38915W        W10444  28.592   9.629  11.963
38916W        W10445  13.275  43.890   4.717
38917W        W10446   1.185  17.211   3.841
38918W        W10447  14.744   9.313   1.357
38919W        W10448  31.600  16.856  13.875
38920W        W10449  11.823  26.738  12.120
38921W        W10450  18.588  16.170   4.634
38922W        W10451  36.328   3.464  12.706
38923W        W10452  23.719  10.258  13.895
38924W        W10453  26.712   3.357   2.143
38925W        W10454  26.891  11.843  10.651
38926W        W10455  40.157  24.051  14.650
38927W        W10456  35.959  24.720  14.876
38928W        W10457  23.650  23.633  11.940
38929W        W10458  31.818  42.758   2.229
38930W        W10459   9.773  23.783  11.705
38931W        W10460   6.251  43.930  14.475
38932W        W10461  10.499  19.204  12.056
38933W        W10462  33.942   5.163   0.234
38934W        W10463  36.874  16.725   4.655
38935W        W10464   0.051  18.914  13.515
38936W        W10465  31.659   4.958   0.856
38937W        W10466  28.600  31.204  13.380
38938W        W10467  18.641  14.028   2.848
38939W        W10468   3.662  17.829  13.499
38940W        W10469   5.882  36.435  13.828
38941W        W10470   8.667  29.975   1.763
38942W        W10471  28.332  30.739  14.226
38943W        W10472   8.632  17.175   2.581
38944W        W10473  31.540  18.008   0.746
38945W        W10474   4.279   2.972   2.888
38946W        W10475  19.715  42.386   1.487
38947W        W10476   7.905  40.071  14.439
38948W        W10477  15.878  38.472  11.516
38949W        W10478   0.926  27.409   2.672
38950W        W10479   5.351  15.536  10.678
38951W        W10480   3.184  44.792  11.180
38952W        W10481  41.992  26.173  14.378
38953W        W10482   8.304  44.304   3.310
38954W        W10483  13.620  20.219  10.433
38955W        W10484   5.966   6.791   2.558
38956W        W10485  41.753  38.499  11.577
38957W        W10486   0.385  43.858   1.022
38958W        W10487  22.329  13.260   2.817
38959W        W10488   3.214  42.720   4.246
38960W        W10489  35.020   4.053  11.599
38961W        W10490  29.313  38.551   5.126
38962W        W10491  33.053  11.668  13.937
38963W        W10492  32.191  43.047  12.469
38964W        W10493   5.463  22.242  12.124
38965W        W10494   9.583  27.548   2.057
38966W        W10495  36.348  28.580   1.417
38967W        W10496  35.987  26.189   0.253
38968W        W10497   7.181  29.348   3.827
38969W        W10498  34.448  16.691   3.741
38970W        W10499  31.483  22.981   4.135
38971W        W10500  12.350   0.356   1.563
38972W        W10501   4.851  36.844   4.191
38973W        W10502  25.118   2.345   3.574
38974W        W10503  25.521   4.424  13.352
38975W        W10504  36.331  34.558   0.040
38976W        W10505   8.647  43.750   3.861
38977W        W10506  19.564  44.831   4.653
38978W        W10507  29.283  23.570  14.774
38979W        W10508  37.789  21.648   3.763
38980W        W10509   5.478  23.068   4.111
38981W        W10510  24.776  15.787  14.002
38982W        W10511  36.545  15.597   1.798
38983W        W10512  20.276  33.418  13.289
38984W        W10513  43.738  19.598   2.046
38985W        W10514   9.366   2.438   4.681
38986W        W10515   0.907  29.169   0.795
38987W        W10516  23.967  14.358  11.514
38988W        W10517  18.324  12.914  10.832
38989W        W10518  18.869   6.735   3.760
38990W        W10519  44.732  39.638  13.952
38991W        W10520  13.918  33.345   0.313
38992W        W10521  38.361  37.119  13.992
38993W        W10522  31.373  10.664  11.433
38994W        W10523  12.063  37.817  13.991
38995W        W10524  23.089  44.912   2.868
38996W        W10525  16.554  17.843  12.331
38997W        W10526  37.416  43.274  13.158
38998W        W10527  30.903  20.734  13.320
38999W        W10528  40.471   0.251  13.992
39000W        W10529  23.296   3.924  13.453
39001W        W10530  33.623  18.491   2.253
39002W        W10531  36.151  39.992   3.655
39003W        W10532  15.256  44.960   2.601
39004W        W10533  23.977  36.389  13.567
39005W        W10534  38.450  33.470   4.037
39006W        W10535  19.272   6.228  13.028
39007W        W10536  40.205  13.538   1.265
39008W        W10537  28.091  32.485  10.969
39009W        W10538   3.481  38.558   3.265
39010W        W10539  20.493  30.618  12.955
39011W        W10540  40.058  16.984  11.149
39012W        W10541  21.619   7.645  14.429
39013W        W10542   7.726  40.393  12.874
39014W        W10543  29.944  17.231  10.810
39015W        W10544   9.866  43.209  13.128
39016W        W10545  11.704  14.196   3.145
39017W        W10546  20.294  36.511  11.200
39018W        W10547   5.964  15.645   4.360
39019W        W10548  14.700   4.486  12.802
39020W        W10549  35.145  10.254  13.459
39021W        W10550  20.490   4.511  12.807
39022W        W10551  23.846  22.438   0.396
39023W        W10552  38.820  30.590   4.225
39024W        W10553  42.556  33.941  14.802
39025W        W10554   9.731   5.004  12.504
39026W        W10555  25.066  44.816  12.964
39027W        W10556  33.958  29.910  11.465
39028W        W10557  19.306  36.400  14.075
39029W        W10558  32.643  39.192   1.702
39030W        W10559   1.720  28.936   3.222
39031W        W10560  20.041  36.469  12.444
39032W        W10561  31.990  35.902   1.451
39033W        W10562  40.813  36.085  11.666
39034W        W10563   8.665   0.135   2.797
39035W        W10564  18.317  21.341   3.330
39036W        W10565  18.013  39.799   2.972
39037W        W10566  22.823  22.053   0.339
39038W        W10567   5.830  24.440   1.846
39039W        W10568  30.106  43.022   3.766
39040W        W10569  35.048  43.473   1.622
39041W        W10570  28.291  26.481  10.654
39042W        W10571  26.492  20.161   0.822
39043W        W10572  14.328   4.885   0.430
39044W        W10573  13.340  16.651  12.671
39045W        W10574  11.742   0.683  14.400
39046W        W10575  27.154  26.632   1.611
39047W        W10576   1.443  38.427   2.199
39048W        W10577  32.344  31.995   4.209
39049W        W10578  40.301  20.525  13.983
39050W        W10579   2.800  31.195   4.238
39051W        W10580  43.043  36.893   0.180
39052W        W10581  44.911  30.555  12.356
39053W        W10582  43.482   2.393  14.429
39054W        W10583   0.798  28.914   2.883
39055W        W10584  21.521  21.648  14.922
39056W        W10585   3.686   9.140   3.143
39057W        W10586  38.774  36.409   0.246
39058W        W10587  34.094  34.379   2.300
39059W        W10588  21.792  16.906   0.997
39060W        W10589  20.211  34.875  13.442
39061W        W10590  23.636  42.215  14.260
39062W        W10591  39.486  30.650  14.418
39063W        W10592  32.853   6.989  12.373
39064W        W10593  16.539  25.061  13.286
39065W        W10594  13.300  43.184   2.307
39066W        W10595  26.573  24.158  12.003
39067W        W10596  23.693  34.526   4.388
39068W        W10597   8.966   6.857  13.815
39069W        W10598   2.535  41.381  11.482
39070W        W10599   2.321   4.063   2.866
39071W        W10600  30.891   1.238   3.372
39072W        W10601   3.373  26.976  11.651
39073W        W10602  22.501  40.360  13.120
39074W        W10603  28.876   5.791  13.984
39075W        W10604  21.596   5.502  10.470
39076W        W10605  15.196  15.544   1.444
39077W        W10606   2.270  38.598  12.881
39078W        W10607  38.385  26.619  10.675
39079W        W10608   4.389  14.342  11.851
39080W        W10609  39.333  26.930  13.501
39081W        W10610  33.101  26.050  11.969
39082W        W10611  37.584   3.638   4.264
39083W        W10612  25.194  13.136   0.451
39084W        W10613   2.449  12.075   2.369
39085W        W10614  11.167  28.089  13.993
39086W        W10615   3.485   0.446  14.915
39087W        W10616  33.918  39.234   3.360
39088W        W10617  43.483  12.254  12.209
39089W        W10618  33.447  11.363   1.412
39090W        W10619   8.269  26.428   0.893
39091W        W10620   6.858  19.012   0.924
39092W        W10621  33.655   8.235   1.735
39093W        W10622   9.866  31.549   4.789
39094W        W10623  36.255  23.479  13.924
39095W        W10624  22.139  12.718  11.612
39096W        W10625   4.762  17.232  14.431
39097W        W10626  14.881   2.920  13.991
39098W        W10627  41.477  18.724   3.611
39099W        W10628  33.989  21.558  13.513
39100W        W10629  28.656  26.018   1.805
39101W        W10630  40.354  27.072  12.097
39102W        W10631  23.736  16.944   3.729
39103W        W10632   7.825  20.201  12.119
39104W        W10633  13.209  41.298   4.773
39105W        W10634  13.113  11.145   1.423
39106W        W10635  39.785   9.755  13.833
39107W        W10636  34.091  44.242  11.485
39108W        W10637  30.521   7.547  11.124
39109W        W10638  39.650   7.855  13.370
39110W        W10639   8.740  24.556  13.586
39111W        W10640  14.063   7.048  13.214
39112W        W10641  20.059  12.696  11.896
39113W        W10642   7.818  24.909   3.639
39114W        W10643  29.243  31.555  12.077
39115W        W10644  44.755  40.557  10.686
39116W        W10645  29.551   9.489   2.864
39117W        W10646  37.093   1.633   1.650
39118W        W10647   5.783  44.865   4.018
39119W        W10648  36.005   4.904  11.679
39120W        W10649   3.256  35.072   1.446
39121W        W10650   2.906  30.213   3.604
39122W        W10651  19.840  38.522   0.883
39123W        W10652  30.245   0.833  14.303
39124W        W10653   1.244  44.877  11.914
39125W        W10654  16.550  41.414  14.409
39126W        W10655  40.333  28.806   4.489
39127W        W10656   9.362  39.691  14.535
39128W        W10657  33.552   4.372  10.162
39129W        W10658  13.717  13.637  13.499
39130W        W10659  12.624  38.475   2.345
39131W        W10660  26.241   5.729  10.490
39132W        W10661  40.810  32.475  11.066
39133W        W10662  35.185  30.040  11.552
39134W        W10663  17.719  20.740  14.438
39135W        W10664  19.614  22.245   1.713
39136W        W10665  23.527  32.860  14.037
39137W        W10666  26.973   1.014   3.725
39138W        W10667  18.441   9.736  12.815
39139W        W10668  22.702  24.249  14.821
39140W        W10669  14.511  21.532  10.409
39141W        W10670   3.859  12.655   1.890
39142W        W10671   1.701  10.833  12.773
39143W        W10672  39.730  30.915  11.462
39144W        W10673  20.471  25.746  12.210
39145W        W10674  37.732  15.127  12.426
39146W        W10675   1.668  17.535   0.155
39147W        W10676  15.125   9.108  14.522
39148W        W10677  27.069  26.995  12.131
39149W        W10678  23.250   5.326  13.107
39150W        W10679  12.217  32.835   2.859
39151W        W10680  36.188  37.986  11.059
39152W        W10681  23.714  32.364  13.140
39153W        W10682  30.831   9.104  13.664
39154W        W10683  44.464  13.993   4.149
39155W        W10684  33.804  13.570   0.442
39156W        W10685  38.960  14.798  11.003
39157W        W10686  11.531  32.157   2.162
39158W        W10687  18.628   8.461  12.110
39159W        W10688   4.643  22.571   1.659
39160W        W10689  43.743  33.983  11.228
39161W        W10690  31.701  19.702  14.312
39162W        W10691  23.442  31.198   2.192
39163W        W10692  35.882  19.750   2.118
39164W        W10693  16.349  24.053  11.518
39165W        W10694  28.001  13.237   3.321
39166W        W10695  31.334  21.264   2.374
39167W        W10696  29.488   7.665  13.353
39168W        W10697  15.639  24.573  14.942
39169W        W10698  21.009  11.830  10.453
39170W        W10699  42.072   7.114   1.462
39171W        W10700  42.555  12.626   0.306
39172W        W10701   8.911  36.909   1.102
39173W        W10702  10.473  18.191  11.069
39174W        W10703  24.201  10.847   0.895
39175W        W10704   8.277  42.130   2.306
39176W        W10705  25.702  26.544  12.441
39177W        W10706  41.483  40.547   0.599
39178W        W10707  38.258   4.259  14.297
39179W        W10708  31.537  12.742   0.213
39180W        W10709  33.389  28.191  10.493
39181W        W10710  18.724   6.879   0.926
39182W        W10711  25.700  22.116   3.606
39183W        W10712   3.155  41.047  11.126
39184W        W10713  26.630   1.255   1.827
39185W        W10714  24.423   2.742   2.363
39186W        W10715  23.546  18.166   0.660
39187W        W10716  41.468  23.138  13.787
39188W        W10717  10.278   9.856  13.822
39189W        W10718   3.387  32.762  11.439
39190W        W10719  20.210  18.487   1.248
39191W        W10720  11.678  14.197  11.022
39192W        W10721   5.980  17.147   2.419
39193W        W10722  11.496   4.384  10.314
39194W        W10723  43.563  38.453  12.914
39195W        W10724  17.735  13.528   0.577
39196W        W10725   6.287  10.935  10.580
39197W        W10726  35.866  40.767   4.162
39198W        W10727  11.408   0.537  13.311
39199W        W10728  12.039  22.704  14.760
39200W        W10729  29.723  16.749  13.309
39201W        W10730  40.813   5.750   0.966
39202W        W10731   9.035  34.357  10.617
39203W        W10732   4.226  33.641   3.824
39204W        W10733  22.786  15.144  12.185
39205W        W10734  33.117  11.652   2.444
39206W        W10735  26.656  19.554   1.471
39207W        W10736  41.931   0.739  12.209
39208W        W10737   6.430  36.661   0.271
39209W        W10738  29.156   9.904  10.677
39210W        W10739  34.402  33.416   2.329
39211W        W10740   8.110   5.347  14.985
39212W        W10741  33.929  42.809  14.252
39213W        W10742  26.777   3.985  12.944
39214W        W10743  23.527  41.081  10.777
39215W        W10744   8.819  19.161   0.364
39216W        W10745   0.836  29.085  12.189
39217W        W10746  22.069  39.982  11.987
39218W        W10747   4.335   4.017   2.876
39219W        W10748   4.866  20.998  14.560
39220W        W10749  13.197  13.453  10.976
39221W        W10750   7.438  31.979  11.483
39222W        W10751   7.610  11.003  12.100
39223W        W10752  17.814  40.834  14.368
39224W        W10753  29.596  38.433  13.501
39225W        W10754  32.107  20.399  10.726
39226W        W10755   5.309   2.831   0.847
39227W        W10756  26.693  32.638   0.908
39228W        W10757   8.876  29.857  14.928
39229W        W10758  40.836   2.537  13.447
39230W        W10759   8.093  39.873  14.881
39231W        W10760  14.353  32.790  13.496
39232W        W10761  43.346   9.191   1.280
39233W        W10762  37.841  29.313   2.196
39234W        W10763   0.726   3.274   3.754
39235W        W10764   4.303  23.865   1.659
39236W        W10765  44.794  19.578   2.318
39237W        W10766  22.583  34.082  11.945
39238W        W10767  42.457  18.503  14.385
39239W        W10768  31.864  39.750   1.439
39240W        W10769   7.451  10.614   1.546
39241W        W10770  20.788   6.035  13.399
39242W        W10771   0.864  28.425   3.588
39243W        W10772  13.219   3.383   3.042
39244W        W10773   3.945  27.741   2.791
39245W        W10774  10.543  39.805   0.474
39246W        W10775  16.306  21.193   2.343
39247W        W10776   3.250  37.887  12.492
39248W        W10777   1.951   9.245   1.056
39249W        W10778  15.275  28.022  13.524
39250W        W10779  11.332  39.503  13.855
39251W        W10780   8.707   2.805  10.422
39252W        W10781   8.860  21.721   4.592
39253W        W10782  28.559  32.653  13.017
39254W        W10783  33.687  15.506  14.323
39255W        W10784   3.514  42.588  13.529
39256W        W10785  42.079  34.804  13.042
39257W        W10786  27.175  43.952  11.932
39258W        W10787  26.167  22.562   4.242
39259W        W10788  36.910  23.178  12.560
39260W        W10789  13.140   2.786  10.302
39261W        W10790  11.225  23.535  10.839
39262W        W10791  34.772  24.042   1.460
39263W        W10792  16.394  44.913  11.024
39264W        W10793   9.461  23.161   4.549
39265W        W10794  35.138   5.818   2.956
39266W        W10795  23.193  29.845  13.397
39267W        W10796  39.120   8.273  12.508
39268W        W10797  42.124  43.352   4.195
39269W        W10798  12.668  43.042   2.657
39270W        W10799  29.435  35.787   9.827
39271W        W10800   7.066  44.925   4.354
39272W        W10801   9.176  13.912   4.425
39273W        W10802   7.635  42.970   3.789
39274W        W10803  21.892  25.766   2.004
39275W        W10804   9.845  43.263  12.592
39276W        W10805  39.793  11.767   4.237
39277W        W10806  41.441  36.586   0.948
39278W        W10807  11.210   0.213  14.677
39279W        W10808  37.115  14.432  14.007
39280W        W10809  29.807  41.367   0.389
39281W        W10810  26.209  32.406  13.999
39282W        W10811   7.799  30.833  14.799
39283W        W10812  41.832  10.064   0.958
39284W        W10813  18.537  29.491  14.817
39285W        W10814  31.401  42.556  13.106
39286W        W10815  38.027  21.674  11.101
39287W        W10816  14.249  27.283   1.405
39288W        W10817   1.581  19.292   3.235
39289W        W10818  42.338  37.538   4.636
39290W        W10819   9.592   9.173  13.963
39291W        W10820   3.991   1.768   0.205
39292W        W10821  27.945  37.349   4.469
39293W        W10822  18.812  26.494   2.703
39294W        W10823  18.802  35.116   4.519
39295W        W10824  40.137   2.520   3.608
39296W        W10825  41.231   2.299   1.531
39297W        W10826  10.238  33.450  13.124
39298W        W10827   0.062   9.473  14.736
39299W        W10828  37.364  18.283   2.210
39300W        W10829  27.057  16.092   2.957
39301W        W10830  32.409  40.599   2.367
39302W        W10831  41.910  13.821  14.871
39303W        W10832   3.145  28.582  11.208
39304W        W10833   7.203  20.069   1.837
39305W        W10834  44.008  41.800   0.267
39306W        W10835  41.932  40.288  11.777
39307W        W10836  44.239  30.807   0.530
39308W        W10837   4.928  10.170   4.395
39309W        W10838  44.672  15.631  11.063
39310W        W10839  37.488   0.608  12.700
39311W        W10840  26.863  35.371  12.951
39312W        W10841  18.993  41.965   3.210
39313W        W10842  28.380   5.356   4.547
39314W        W10843  41.508   8.359   2.235
39315W        W10844  29.110  24.226   2.191
39316W        W10845  31.964  28.378  11.103
39317W        W10846  43.361  21.412   0.973
39318W        W10847  41.053  16.163  11.108
39319W        W10848  33.655  27.397  11.602
39320W        W10849   7.185  39.468   3.578
39321W        W10850  17.497  26.402  14.347
39322W        W10851  19.976  13.091  11.133
39323W        W10852  10.858  21.521  10.662
39324W        W10853  44.137  29.159   2.223
39325W        W10854  41.825  35.576  11.126
39326W        W10855  35.957  43.448   3.340
39327W        W10856  11.749  28.695  14.784
39328W        W10857   8.098  21.475   1.323
39329W        W10858  16.855  16.253   3.688
39330W        W10859  12.502   1.490   2.353
39331W        W10860  21.500  41.379   4.219
39332W        W10861  36.412  19.992  13.151
39333W        W10862  20.876  40.696   1.275
39334W        W10863   5.728  42.806   1.685
39335W        W10864  14.101   5.398  12.062
39336W        W10865  31.529  34.524   2.335
39337W        W10866   0.099  31.929  14.735
39338W        W10867  36.845  42.574  12.969
39339W        W10868   7.310  13.233  13.614
39340W        W10869  36.583  43.371  12.709
39341W        W10870  34.787  17.328  10.758
39342W        W10871  42.322  10.644   0.457
39343W        W10872  30.136   1.247  14.005
39344W        W10873  29.873  33.129  10.934
39345W        W10874  31.002   0.678  14.779
39346W        W10875  24.186  12.886   1.796
39347W        W10876  25.229  39.200  11.537
39348W        W10877  16.018  22.267  12.440
39349W        W10878  26.789  19.106  13.897
39350W        W10879  10.745  17.352  13.030
39351W        W10880  44.498  27.933  14.847
39352W        W10881  10.311  12.794   2.572
39353W        W10882  30.037  36.879  12.995
39354W        W10883  18.749   4.858  12.125
39355W        W10884  38.831  21.629   0.484
39356W        W10885   8.955  12.183  14.914
39357W        W10886  12.385  26.641   4.625
39358W        W10887  14.421   4.200  14.928
39359W        W10888  42.454  17.035   2.372
39360W        W10889   3.078  23.762  12.407
39361W        W10890   1.666  34.349   1.037
39362W        W10891  44.130  16.680   3.376
39363W        W10892  26.430  44.285  14.404
39364W        W10893   5.042  28.643  14.755
39365W        W10894   7.745  30.935   1.928
39366W        W10895  31.510   4.421  13.005
39367W        W10896   6.588  37.328   5.080
39368W        W10897  20.892  36.295  12.428
39369W        W10898   4.618  20.221   0.833
39370W        W10899  16.690  25.939   0.344
39371W        W10900   7.830  22.674   3.655
39372W        W10901  11.897  31.911  13.384
39373W        W10902  21.839  25.687  13.046
39374W        W10903  27.891  34.529  12.166
39375W        W10904  12.490   0.820   2.771
39376W        W10905   2.848   7.801  11.220
39377W        W10906  37.586  34.984  13.488
39378W        W10907   3.813   4.167   3.638
39379W        W10908  30.224  16.321   4.982
39380W        W10909   7.410  28.248  13.542
39381W        W10910  34.505  26.059   0.183
39382W        W10911  32.383   9.904  10.705
39383W        W10912  26.008  38.095   1.300
39384W        W10913   7.841  42.765   1.382
39385W        W10914  20.552  26.618   3.371
39386W        W10915   3.968  34.014  10.652
39387W        W10916   1.326  36.389   1.374
39388W        W10917  39.762   8.098   0.978
39389W        W10918  29.037  21.671  11.142
39390W        W10919   1.869   0.295  11.772
39391W        W10920   0.224  25.551   1.505
39392W        W10921  14.660  33.309   3.284
39393W        W10922   6.978  40.178  10.903
39394W        W10923  15.296   7.385   2.244
39395W        W10924  43.412  12.521   5.105
39396W        W10925  34.282  22.555  13.304
39397W        W10926  27.990  12.775   1.794
39398W        W10927  21.531  17.503   3.646
39399W        W10928  13.124   6.877   0.346
39400W        W10929  40.940  37.773   0.401
39401W        W10930  17.901  10.873   2.766
39402W        W10931   7.177  11.268  14.944
39403W        W10932  11.011  25.676  13.513
39404W        W10933   5.958  13.872  10.988
39405W        W10934  19.746  44.372  11.052
39406W        W10935  33.605  37.143   4.716
39407W        W10936  25.976  25.084   4.109
39408W        W10937  12.879  12.506  11.982
39409W        W10938   6.974  41.504   0.738
39410W        W10939  22.003  36.139   2.684
39411W        W10940  20.813  38.696  11.148
39412W        W10941   0.997   2.260   0.228
39413W        W10942   1.551  32.427  12.093
39414W        W10943  14.576  40.788   1.366
39415W        W10944  33.422   6.279   2.857
39416W        W10945  26.882  38.034  12.046
39417W        W10946  43.732  41.868   2.274
39418W        W10947   8.923  32.647   3.310
39419W        W10948  39.931  42.800  13.432
39420W        W10949   0.359  15.623  13.963
39421W        W10950  13.382  14.173  10.257
39422W        W10951   1.558  21.750   1.751
39423W        W10952   2.943  16.046  11.517
39424W        W10953  40.611  14.321  12.624
39425W        W10954  40.401  16.548   4.931
39426W        W10955  41.235  31.995  10.436
39427W        W10956  22.336  44.073  13.586
39428W        W10957  16.326  30.558   4.134
39429W        W10958  26.550  31.506   1.086
39430W        W10959  16.328  21.552  11.148
39431W        W10960   7.419  26.625   4.177
39432W        W10961  38.328  44.718   1.662
39433W        W10962  34.921  22.340  11.137
39434W        W10963  44.916   5.187  14.820
39435W        W10964  29.074   8.060  12.460
39436W        W10965  23.570   5.051  14.877
39437W        W10966  44.453   3.843  10.767
39438W        W10967  43.013   3.021   3.913
39439W        W10968  21.701  12.420   2.353
39440W        W10969  42.983  34.693   3.691
39441W        W10970  18.681   8.321  14.044
39442W        W10971  20.170  12.270  12.184
39443W        W10972  20.149   7.808   0.944
39444W        W10973  23.825  25.623   1.376
39445W        W10974  15.698  11.775  13.725
39446W        W10975  35.074  18.500  12.032
39447W        W10976  41.071   2.080  10.851
39448W        W10977   5.953  23.510   0.132
39449W        W10978  15.982  10.056  14.859
39450W        W10979  42.923  42.362  13.005
39451W        W10980  33.082  34.890  11.130
39452W        W10981   9.271  16.586  14.857
39453W        W10982  15.579   9.402  10.800
39454W        W10983  35.978  34.505   1.237
39455W        W10984  36.965  16.663   4.120
39456W        W10985  28.574  18.178  14.902
39457W        W10986  27.183  30.829  10.895
39458W        W10987  32.861  41.585   3.130
39459W        W10988  24.628  23.077  12.354
39460W        W10989  14.310  24.971  14.035
39461W        W10990  22.762  33.416   4.164
39462W        W10991  11.137  26.655   0.909
39463W        W10992  38.813   6.796  12.482
39464W        W10993  24.535   8.567   3.351
39465W        W10994  44.875  15.790   2.415
39466W        W10995  43.148  37.883   3.653
39467W        W10996  17.265  19.542  14.634
39468W        W10997  22.889   3.225   4.573
39469W        W10998  38.171  33.937  14.841
39470W        W10999   1.223  41.673   1.431
39471W        W11000  21.615   4.914  13.253
39472W        W11001  29.618   9.841   1.510
39473W        W11002   3.671  36.022   4.996
39474W        W11003  29.499  32.750  10.714
39475W        W11004  10.325   4.520  14.213
39476W        W11005  44.331  26.301  14.819
39477W        W11006  27.105  18.144   0.942
39478W        W11007  31.093  18.520   0.518
39479W        W11008   5.084  44.814   1.278
39480W        W11009  18.056  43.119   3.524
39481W        W11010  37.337  25.459  12.057
39482W        W11011  22.508  44.066   2.740
39483W        W11012  24.505  44.895   1.142
39484W        W11013  38.302   2.313   1.846
39485W        W11014   1.101  19.160   2.242
39486W        W11015  42.858  15.158  12.461
39487W        W11016  19.172  17.309  12.779
39488W        W11017  16.970  31.998   3.269
39489W        W11018  22.624  42.514  14.955
39490W        W11019   7.430   0.444  13.032
39491W        W11020   2.015  14.801  13.962
39492W        W11021  12.689  20.315  14.580
39493W        W11022   8.125  31.679  10.541
39494W        W11023  17.441   9.141   2.970
39495W        W11024  22.218  18.660   1.244
39496W        W11025  28.075  37.660  12.402
39497W        W11026  33.463  31.269  11.635
39498W        W11027   1.559  11.420  13.834
39499W        W11028  33.486   3.421  13.136
39500W        W11029  19.735  31.041  12.858
39501W        W11030  36.607  32.878  14.756
39502W        W11031  12.229   3.346   3.207
39503W        W11032  12.271  43.051   3.283
39504W        W11033   5.958  12.709   0.198
39505W        W11034  34.672  21.813  12.051
39506W        W11035  12.765  11.032  13.005
39507W        W11036  41.740  44.296   1.539
39508W        W11037   6.004  15.643   3.846
39509W        W11038  34.158   5.136   2.275
39510W        W11039  34.970  24.441   3.182
39511W        W11040  19.714  44.572  14.006
39512W        W11041  38.666  35.564   0.452
39513W        W11042  30.237  13.317   4.522
39514W        W11043  40.784  34.754  11.250
39515W        W11044  27.942  23.180  12.504
39516W        W11045  31.097  29.182  10.857
39517W        W11046  13.133  25.755   2.712
39518W        W11047  21.996  27.121   3.607
39519W        W11048   3.277   6.082  12.075
39520W        W11049  25.426   8.236  12.523
39521W        W11050  12.840  41.430   0.959
39522W        W11051   4.767  13.367   0.688
39523W        W11052   7.152  33.907  12.099
39524W        W11053  25.504   8.076   1.907
39525W        W11054   0.614  40.288   1.815
39526W        W11055  19.603  14.140  13.395
39527W        W11056  15.298  10.811  12.480
39528W        W11057  36.868   6.507  11.252
39529W        W11058   8.558  40.795  14.304
39530W        W11059  41.601  22.814   1.775
39531W        W11060   5.623  13.025  14.870
39532W        W11061  39.496  36.652   1.240
39533W        W11062  21.967  36.213   2.180
39534W        W11063   3.060  33.448   4.393
39535W        W11064  19.375  29.745   0.981
39536W        W11065   9.335   2.172   1.232
39537W        W11066  27.975  42.426   4.053
39538W        W11067   5.752  42.310   1.955
39539W        W11068  14.852  29.695   3.716
39540W        W11069   8.784  33.561   1.803
39541W        W11070  36.454  25.705   2.419
39542W        W11071   3.081   1.817   1.405
39543W        W11072  24.684  27.424  13.481
39544W        W11073  19.591  28.217  14.574
39545W        W11074  43.475  17.125  13.800
39546W        W11075  44.279  23.009  12.774
39547W        W11076   8.734  42.070   4.630
39548W        W11077  34.103   3.820   3.342
39549W        W11078   9.788  42.696   1.903
39550W        W11079  31.065  44.104   0.755
39551W        W11080   9.736  18.183  11.519
39552W        W11081   3.344  33.517  13.432
39553W        W11082  20.011  13.792  14.709
39554W        W11083  30.644   2.377  13.610
39555W        W11084  22.217  12.164   4.437
39556W        W11085   0.930  14.199   3.739
39557W        W11086  30.681  29.340  12.020
39558W        W11087  19.540   0.564  13.813
39559W        W11088  26.442   2.221  13.688
39560W        W11089   3.276  10.492  14.531
39561W        W11090  37.761  19.323   2.853
39562W        W11091  18.781  31.742   0.042
39563W        W11092  16.109  15.834  11.192
39564W        W11093  39.426  37.088  10.683
39565W        W11094  25.803  35.093  12.186
39566W        W11095  32.634  41.966   2.810
39567W        W11096  26.933   3.929   0.306
39568W        W11097  13.746  24.729  11.167
39569W        W11098  22.745   5.828  13.335
39570W        W11099   6.194   2.857   2.664
39571W        W11100  44.033   7.904   4.365
39572W        W11101  20.117   1.354  13.757
39573W        W11102  30.039  21.736  13.564
39574W        W11103  20.366  23.192   0.608
39575W        W11104  11.823  13.708  10.872
39576W        W11105   1.203  24.651   2.239
39577W        W11106  38.848   8.739  10.627
39578W        W11107  41.708  22.449  10.779
39579W        W11108   1.729  30.513  11.614
39580W        W11109   0.940  15.658  11.120
39581W        W11110  33.336  38.263  14.819
39582W        W11111  34.117  30.030   3.587
39583W        W11112  41.429  21.732  14.725
39584W        W11113  21.802  39.895  13.416
39585W        W11114  22.533  28.746  10.556
39586W        W11115  10.697   8.392   4.049
39587W        W11116  21.927  41.574  12.035
39588W        W11117   7.382   3.927  11.620
39589W        W11118  13.590  23.624   1.587
39590W        W11119   6.332  34.614  10.293
39591W        W11120  28.657  29.049   3.386
39592W        W11121  40.523  27.582   3.641
39593W        W11122  25.953  16.343  14.503
39594W        W11123  35.337  29.524  13.532
39595W        W11124   0.839  20.764  11.054
39596W        W11125   2.259  35.907  13.951
39597W        W11126  42.577   2.973  10.799
39598W        W11127   1.446   6.663   1.904
39599W        W11128  41.561  12.729   0.383
39600W        W11129  26.682  28.920  13.646
39601W        W11130   9.696  20.564  10.949
39602W        W11131   9.981   6.736  13.013
39603W        W11132  18.620  38.626   1.339
39604W        W11133  32.709  35.084   4.036
39605W        W11134  15.273  21.241   2.571
39606W        W11135  32.642   6.833   0.448
39607W        W11136   1.498  13.782   4.478
39608W        W11137  40.364  38.562   3.699
39609W        W11138  41.982  13.223  11.095
39610W        W11139  31.724  32.675   0.600
39611W        W11140  12.659  11.022  12.097
39612W        W11141   9.253   8.737  12.779
39613W        W11142  42.571  35.749   4.164
39614W        W11143  32.852  14.073   3.749
39615W        W11144  28.573  27.535   0.822
39616W        W11145  21.306  41.392   0.072
39617W        W11146  18.722  14.633  12.817
39618W        W11147  15.576  15.941  14.887
39619W        W11148  21.732  35.376  11.627
39620W        W11149   8.894  37.092   1.817
39621W        W11150  35.008  40.468   2.315
39622W        W11151  23.009   1.448   1.508
39623W        W11152  26.927   2.869   2.299
39624W        W11153   6.018  29.458  13.709
39625W        W11154  20.548  11.085  14.044
39626W        W11155  22.183  44.752  13.797
39627W        W11156  20.385  27.452  12.514
39628W        W11157  32.199  11.134  14.016
39629W        W11158  11.896  32.239  11.107
39630W        W11159  37.520  29.077  14.446
39631W        W11160  15.586  37.343  11.984
39632W        W11161  35.753   0.294  12.417
39633W        W11162  15.224  11.108  13.849
39634W        W11163  22.124  21.160  11.592
39635W        W11164  40.422  34.419  11.113
39636W        W11165  38.997  26.125  14.528
39637W        W11166  37.627  38.525  10.769
39638W        W11167   5.914   4.767  11.200
39639W        W11168  29.644  42.313  10.469
39640W        W11169  43.651  27.031   2.829
39641W        W11170   7.474  44.353  12.056
39642W        W11171  30.847  26.847   5.069
39643W        W11172  11.193   8.625   0.451
39644W        W11173   6.410  26.275  12.008
39645W        W11174  40.548  24.665   4.530
39646W        W11175  38.403   5.836  12.496
39647W        W11176  28.924   2.668  13.483
39648W        W11177  14.296  16.255   4.363
39649W        W11178  24.446  28.758  11.674
39650W        W11179  38.127   1.552  13.054
39651W        W11180  35.943  31.111  14.458
39652W        W11181  17.957  26.202  14.435
39653W        W11182  21.958  11.664  14.763
39654W        W11183   1.659  40.585  14.932
39655W        W11184  42.975  37.432  11.964
39656W        W11185   5.396  32.936   3.832
39657W        W11186  14.038  42.983  13.399
39658W        W11187  27.912   0.992   2.831
39659W        W11188  33.080  17.318   4.212
39660W        W11189  34.825  37.308   3.872
39661W        W11190  11.924   0.941  11.986
39662W        W11191  27.127  40.103   2.300
39663W        W11192  34.491  11.852  10.950
39664W        W11193   1.436  41.354   3.776
39665W        W11194  20.700  20.792  12.597
39666W        W11195  36.984  41.095   4.705
39667W        W11196  39.384  20.557   1.707
39668W        W11197  16.541  14.315  14.752
39669W        W11198  12.229  26.980   0.279
39670W        W11199   2.967   0.982   2.877
39671W        W11200  15.975  38.301  11.042
39672W        W11201  16.038  23.746  12.651
39673W        W11202   6.231   8.210  11.224
39674W        W11203   2.346  22.366  12.889
39675W        W11204  19.729   2.248   2.343
39676W        W11205  39.281   9.542   4.722
39677W        W11206  27.240  23.628  14.325
39678W        W11207  39.395   0.379  14.352
39679W        W11208  31.852  23.998  13.944
39680W        W11209   3.371  44.254  10.449
39681W        W11210   6.154  41.895  13.926
39682W        W11211  12.952  35.986  13.907
39683W        W11212  31.086  18.043   0.300
39684W        W11213  32.673  16.116   4.646
39685W        W11214   3.843  13.307  10.710
39686W        W11215  44.951  39.561  14.856
39687W        W11216  42.884  38.973  14.982
39688W        W11217   5.947  22.576   1.467
39689W        W11218  12.901   9.113   4.190
39690W        W11219   9.846  15.795  13.561
39691W        W11220  29.008  25.410   0.507
39692W        W11221  14.344   1.397   2.802
39693W        W11222  39.196   9.354  11.980
39694W        W11223  19.222   1.017   1.266
39695W        W11224  23.918  28.855  10.323
39696W        W11225  40.502   6.601   4.111
39697W        W11226  22.539  19.338   0.311
39698W        W11227  43.476  22.095  10.707
39699W        W11228  10.237  10.778  12.149
39700W        W11229  25.640   8.288  10.617
39701W        W11230  39.578   5.372  12.341
39702W        W11231  32.208  11.571  14.809
39703W        W11232  20.706  42.891   4.956
39704W        W11233  37.883  17.291  14.393
39705W        W11234  18.487  13.275  12.485
39706W        W11235  10.734  10.088  14.023
39707W        W11236   2.581  22.211  10.451
39708W        W11237  13.281  20.110  11.718
39709W        W11238  28.611  44.079   0.054
39710W        W11239  42.782   5.483  13.938
39711W        W11240  35.566   0.990   0.476
39712W        W11241   1.764  33.179   2.679
39713W        W11242  16.195  23.791  14.199
39714W        W11243   9.525  21.697   3.475
39715W        W11244   3.915  37.237   4.064
39716W        W11245  30.025  23.222   3.203
39717W        W11246  38.306  42.269   4.715
39718W        W11247   5.683  37.777  11.616
39719W        W11248  12.229  34.308   2.878
39720W        W11249  30.140  35.895   4.383
39721W        W11250   6.317  36.741  11.056
39722W        W11251  30.617  30.395   4.821
39723W        W11252  30.952  11.816   4.241
39724W        W11253  41.437  30.614  14.488
39725W        W11254  14.259   6.854   3.587
39726W        W11255   0.704   3.230   2.427
39727W        W11256  15.553  10.886  14.899
39728W        W11257  31.154  27.967  12.456
39729W        W11258   3.878  44.009   4.702
39730W        W11259  44.772  13.439   0.403
39731W        W11260  12.288   9.347  12.573
39732W        W11261  42.947   8.324   0.202
39733W        W11262   8.856  17.713  12.369
39734W        W11263  11.737   8.817   2.716
39735W        W11264  35.030  24.760   3.603
39736W        W11265  31.125  40.291  13.101
39737W        W11266  34.107  25.381   3.686
39738W        W11267  22.600  17.059  12.064
39739W        W11268   7.312  19.897  12.389
39740W        W11269  28.208  10.755  10.889
39741W        W11270  44.843  34.388  13.212
39742W        W11271  43.485  26.534   2.857
39743W        W11272  15.167  14.531   4.716
39744W        W11273  32.558  33.257  13.482
39745W        W11274   1.273  18.787  14.056
39746W        W11275   0.587  34.698  12.916
39747W        W11276  38.935  22.700   2.726
39748W        W11277  28.418  44.354   1.889
39749W        W11278  31.000  38.852  11.100
39750W        W11279  20.633  33.161  14.228
39751W        W11280   4.501   5.140  11.128
39752W        W11281   0.305  14.232   1.993
39753W        W11282  32.483  10.900  10.290
39754W        W11283  23.990  26.716   2.797
39755W        W11284  10.776   0.080   3.694
39756W        W11285  24.831   6.148  12.663
39757W        W11286  24.825  38.329   0.846
39758W        W11287   7.389   5.516   0.384
39759W        W11288  30.285   8.947   3.307
39760W        W11289  28.461  22.918  14.349
39761W        W11290  26.046  24.714  12.625
39762W        W11291  19.588  23.646   4.578
39763W        W11292  17.239  35.506  12.132
39764W        W11293  40.026  14.641   4.804
39765W        W11294  12.601  43.242  12.928
39766W        W11295  28.702  22.559   3.062
39767W        W11296  39.102   6.565   2.632
39768W        W11297  35.021  14.801   2.404
39769W        W11298  31.943  29.986   4.118
39770W        W11299   9.821  40.447   3.648
39771W        W11300  43.714  23.107  14.069
39772W        W11301  39.288  35.435   3.645
39773W        W11302   3.527  23.302  12.995
39774W        W11303  44.883   5.671  12.646
39775W        W11304  42.243   9.751  13.995
39776W        W11305  22.792  39.822   2.792
39777W        W11306  27.228  19.768  13.368
39778W        W11307  27.788   6.345   0.376
39779W        W11308  32.505   3.687   3.700
39780W        W11309  11.240  28.962   1.272
39781W        W11310  41.079   6.914  14.951
39782W        W11311   9.911   0.865  14.055
39783W        W11312  22.691  31.662   2.008
39784W        W11313  11.298   4.850  12.226
39785W        W11314  41.762  34.778  11.164
39786W        W11315  22.955  16.243   1.714
39787W        W11316  19.140  27.028  11.863
39788W        W11317  37.879  18.584   2.264
39789W        W11318   9.001   7.116  12.039
39790W        W11319  44.030  20.284   1.335
39791W        W11320   6.841  10.323  14.893
39792W        W11321  20.932   8.213  12.348
39793W        W11322   4.832  44.482   0.471
39794W        W11323   4.739   9.569   0.081
39795W        W11324  21.065  16.318   0.637
39796W        W11325  36.989   5.086  11.154
39797W        W11326   7.561  36.278   2.802
39798W        W11327  35.995  38.004  12.361
39799W        W11328   0.770  27.117   0.396
39800W        W11329  31.211  23.644  14.457
39801W        W11330  12.275  12.061  14.276
39802W        W11331  35.846  18.312   0.907
39803W        W11332   3.323  12.311   3.076
39804W        W11333   6.860   3.271  13.838
39805W        W11334  27.597  18.168  14.593
39806W        W11335  27.303  23.930  10.644
39807W        W11336   5.561  40.105  14.583
39808W        W11337   1.030  25.215   5.124
39809W        W11338  28.987  14.340  13.264
39810W        W11339  32.016  39.428   4.997
39811W        W11340  28.857  16.239   2.807
39812W        W11341  33.682  30.547  12.088
39813W        W11342  15.339  21.471  12.910
39814W        W11343  40.708  42.397  11.518
39815W        W11344   0.137  15.628  10.847
39816W        W11345   5.118  30.600  14.686
39817W        W11346  21.032  30.889   4.507
39818W        W11347  35.991  43.198  13.465
39819W        W11348  33.098  43.430   1.467
39820W        W11349  23.748  37.044  12.604
39821W        W11350  37.963  21.611   1.928
39822W        W11351  27.326   9.330  12.097
39823W        W11352  38.538  41.534   0.531
39824W        W11353   5.103   7.851  11.550
39825W        W11354  18.776  25.248   0.514
39826W        W11355  11.929  41.456   2.254
39827W        W11356  19.590  13.473   0.552
39828W        W11357  21.991  17.141   4.186
39829W        W11358  24.653  38.548  14.243
39830W        W11359  38.917  11.161   4.170
39831W        W11360   3.167  30.369   4.138
39832W        W11361   4.165  17.182  13.620
39833W        W11362  27.531  13.308  11.042
39834W        W11363   7.872   6.816   4.513
39835W        W11364  19.981   9.930   3.223
39836W        W11365  34.030  40.531  10.686
39837W        W11366  15.661   9.653   1.284
39838W        W11367   6.821  21.074  10.666
39839W        W11368  38.353  31.110  11.614
39840W        W11369  34.406  21.497   0.347
39841W        W11370  11.786   1.930   0.702
39842W        W11371  27.875   9.917  14.029
39843W        W11372  14.346   7.235   5.209
39844W        W11373  34.272  30.176  11.752
39845W        W11374   2.001   5.397   0.814
39846W        W11375  35.839  30.636   1.731
39847W        W11376  21.255   8.699   3.309
39848W        W11377  18.070   4.985  13.498
39849W        W11378   9.585   7.491   2.897
39850W        W11379  40.315  43.273  11.040
39851W        W11380   6.866   5.473   0.315
39852W        W11381  24.225  18.231   2.532
39853W        W11382  29.941  42.250  14.835
39854W        W11383   3.629  17.277   5.143
39855W        W11384  11.668  36.118  14.807
39856W        W11385  30.148  25.850  13.870
39857W        W11386  33.394  33.471  14.107
39858W        W11387   1.349  25.095   1.997
39859W        W11388  34.571  31.454   3.616
39860W        W11389  16.897  44.513   1.537
39861W        W11390  16.955  38.605   3.791
39862W        W11391  25.377   9.399  12.269
39863W        W11392  31.933  38.295  10.142
39864W        W11393  29.083  13.196   2.526
39865W        W11394  11.273  19.204  11.636
39866W        W11395  28.584  34.961  13.307
39867W        W11396   9.802  28.836   1.553
39868W        W11397  23.554   7.988  13.781
39869W        W11398  42.541  18.481  11.088
39870W        W11399  15.014  44.026   2.920
39871W        W11400  40.674  21.964  12.910
39872W        W11401  28.461  40.410  12.915
39873W        W11402  18.082  31.463   0.807
39874W        W11403  34.675  16.619  14.002
39875W        W11404  37.521  10.784   1.792
39876W        W11405  16.643  18.575  14.221
39877W        W11406  32.065  38.445  14.427
39878W        W11407   1.524  30.499  11.103
39879W        W11408   0.717  12.991   0.497
39880W        W11409   7.116  28.563  10.704
39881W        W11410  16.109  43.828  10.619
39882W        W11411  31.210  24.585  12.577
39883W        W11412  22.616  20.114  14.912
39884W        W11413  33.136   7.577  11.843
39885W        W11414   1.251   9.227   2.283
39886W        W11415  44.808  38.761   0.252
39887W        W11416  41.897  19.711   4.775
39888W        W11417   5.353  21.734   1.781
39889W        W11418  14.093   7.830   2.646
39890W        W11419   0.288   2.445   0.402
39891W        W11420   1.997  27.284   3.223
39892W        W11421  18.872  23.037  14.387
39893W        W11422  42.682   2.212  13.391
39894W        W11423  39.316  37.264   2.337
39895W        W11424  12.120  25.491   4.495
39896W        W11425  39.885   1.463  11.986
39897W        W11426  38.112   4.864  14.756
39898W        W11427   5.731  42.253  14.451
39899W        W11428  28.272  11.662  14.820
39900W        W11429  36.171   8.782   3.231
39901W        W11430  38.774   4.308  14.376
39902W        W11431   8.430  10.344   4.395
39903W        W11432  31.461  43.453   2.445
39904W        W11433  20.797  13.826  10.619
39905W        W11434  20.574  30.692   4.585
39906W        W11435   8.197  27.018   4.441
39907W        W11436  31.717  27.002  14.389
39908W        W11437  15.143  32.275   3.974
39909W        W11438   4.522  28.816   3.115
39910W        W11439  23.225  16.702  12.543
39911W        W11440  29.389  36.452   2.813
39912W        W11441  19.741   9.359   2.625
39913W        W11442  12.276  36.398  12.167
39914W        W11443   4.683   0.915   3.439
39915W        W11444  13.582   7.179   3.729
39916W        W11445  27.765  20.250  13.713
39917W        W11446   4.395  11.326  13.559
39918W        W11447  24.250   4.490   4.541
39919W        W11448  38.896  35.127   4.256
39920W        W11449  19.326  20.607   4.723
39921W        W11450   5.899  16.974  13.819
39922W        W11451  23.712  20.175   0.714
39923W        W11452  12.533   0.303  14.238
39924W        W11453  24.557  30.315   0.413
39925W        W11454   2.831  39.169   3.615
39926W        W11455   3.723  38.138  12.038
39927W        W11456   5.873  22.623   2.466
39928W        W11457  41.315   1.846  14.703
39929W        W11458  32.941  13.846   2.755
39930W        W11459  11.413  41.497   3.226
39931W        W11460   2.863  21.944   2.271
39932W        W11461   4.441   8.690  12.074
39933W        W11462  30.902  42.977  14.047
39934W        W11463  36.536  17.567  10.757
39935W        W11464  38.275  15.715   4.745
39936W        W11465   7.156  12.019   4.126
39937W        W11466   3.931  44.241   3.824
39938W        W11467  28.281   9.678  12.352
39939W        W11468   4.820  21.687  11.180
39940W        W11469  15.294  40.997  13.023
39941W        W11470  10.659  23.001   2.900
39942W        W11471  15.513   8.692  13.041
39943W        W11472   2.317  10.224   1.930
39944W        W11473   5.524  40.344  14.133
39945W        W11474  41.898  17.764   2.751
39946W        W11475  30.522   3.290  14.112
39947W        W11476   8.713  20.960  11.636
39948W        W11477  43.384   4.797  13.771
39949W        W11478  10.109  13.929  14.941
39950W        W11479  37.053  21.053  13.388
39951W        W11480  32.888  17.046   3.369
39952W        W11481  16.040  32.600  11.005
39953W        W11482  28.356  36.455   2.917
39954W        W11483  10.295  30.634   4.791
39955W        W11484  35.694  19.246   2.349
39956W        W11485  37.198  20.734   1.450
39957W        W11486  17.639  39.093  14.763
39958W        W11487  33.055  27.373  14.861
39959W        W11488  42.483  29.987  11.054
39960W        W11489   5.964  38.971   3.779
39961W        W11490  20.266  10.430   3.753
39962W        W11491   2.070  27.694  11.420
39963W        W11492   8.709  24.531   1.802
39964W        W11493  29.480  38.933  14.938
39965W        W11494  12.296  18.989   1.254
39966W        W11495  37.993  15.736  13.045
39967W        W11496  22.509  35.122   0.850
39968W        W11497  26.169  28.273  12.538
39969W        W11498   8.155   8.929  10.752
39970W        W11499   2.725   3.208  11.941
39971W        W11500  12.265  44.193  14.987
39972W        W11501  23.472  21.653   2.449
39973W        W11502  30.759  43.380   0.283
39974W        W11503   2.452   3.196  14.026
39975W        W11504  31.583  19.136  11.546
39976W        W11505  24.525  11.908   0.342
39977W        W11506  42.337   7.253  14.534
39978W        W11507  12.729   4.200   3.644
39979W        W11508   1.572  14.617   0.325
39980W        W11509  23.426   7.243  11.322
39981W        W11510  44.682  40.486  13.498
39982W        W11511  44.176  43.559   4.757
39983W        W11512  40.125  40.804   3.646
39984W        W11513   4.977   0.273  12.008
39985W        W11514  38.093  15.198   4.757
39986W        W11515   2.768  29.001   0.673
39987W        W11516  41.524  12.085  12.829
39988W        W11517  30.666  34.498   4.464
39989W        W11518  13.910  43.702  12.498
39990W        W11519  30.706  10.107  14.294
39991W        W11520  22.179   3.436  11.079
39992W        W11521  23.674  11.164   3.667
39993W        W11522   5.900  30.484   4.226
39994W        W11523  33.950  16.968  13.538
39995W        W11524  14.286  39.796  11.575
39996W        W11525  10.350   1.845   1.954
39997W        W11526  31.911   0.288   3.696
39998W        W11527  17.094  34.625   4.857
39999W        W11528  26.570  40.434   0.124
40000W        W11529   8.238   1.899  10.479
40001W        W11530   0.701   7.267   4.390
40002W        W11531  23.600  11.784   1.421
40003W        W11532  14.448  17.256   0.691
40004W        W11533  40.379  29.515   2.838
40005W        W11534  27.117  32.896  11.076
40006W        W11535   2.799  20.819   4.162
40007W        W11536  14.531  33.984  11.442
40008W        W11537  35.946  28.020  13.908
40009W        W11538  20.775   0.766   3.657
40010W        W11539  25.697   8.652   0.705
40011W        W11540   9.142  13.780  14.336
40012W        W11541  44.521   6.887  13.887
40013W        W11542  27.465   0.027  11.630
40014W        W11543   1.405   3.160  11.944
40015W        W11544  32.437  21.243   0.233
40016W        W11545  23.740  34.111   1.224
40017W        W11546  21.256   5.017   2.240
40018W        W11547  29.217  12.729   2.308
40019W        W11548   2.745  35.975  14.223
40020W        W11549   9.868   4.342   1.684
40021W        W11550   3.862  10.397   0.804
40022W        W11551   1.945  37.373   0.272
40023W        W11552   2.803   7.330   1.355
40024W        W11553  32.454  28.704  10.462
40025W        W11554  18.488  20.669   0.256
40026W        W11555  10.760  36.530   2.904
40027W        W11556  26.661  41.267  11.535
40028W        W11557  32.518  22.167  11.518
40029W        W11558  14.924  38.607  11.920
40030W        W11559  37.859  35.318  11.042
40031W        W11560  16.599  28.570   0.675
40032W        W11561   7.459   0.811   3.732
40033W        W11562  21.130  31.878  14.533
40034W        W11563  22.063   0.167   3.114
40035W        W11564  27.094  10.736   1.948
40036W        W11565   5.540  25.513   3.655
40037W        W11566   7.718  40.496   2.154
40038W        W11567  14.055  18.292  11.176
40039W        W11568   6.849  12.776   1.838
40040W        W11569  15.551  18.016   0.301
40041W        W11570  29.576   0.623   1.354
40042W        W11571  25.641  22.949  12.512
40043W        W11572   2.479   9.591  11.556
40044W        W11573  43.436  26.618  11.529
40045W        W11574  44.258  25.042  13.963
40046W        W11575   7.999  33.336  10.435
40047W        W11576   3.401  18.197   0.989
40048W        W11577  31.486  27.068   5.446
40049W        W11578  22.552   6.426  12.513
40050W        W11579  43.891  28.521   4.525
40051W        W11580  43.753  19.579  12.082
40052W        W11581  15.704  27.857   2.354
40053W        W11582  22.204  25.171  10.576
40054W        W11583  44.247  20.808  12.641
40055W        W11584  16.495  22.193   3.699
40056W        W11585   1.175  12.625   2.255
40057W        W11586   4.515  29.910  13.205
40058W        W11587   3.153   7.316   4.674
40059W        W11588  30.733  15.764   4.504
40060W        W11589  17.802   2.314  12.025
40061W        W11590  18.200   2.810   0.785
40062W        W11591  36.283  16.726  11.223
40063W        W11592  28.584  10.141  12.524
40064W        W11593  31.940  11.813  10.695
40065W        W11594  41.590   9.703   4.150
40066W        W11595  35.584   6.973  14.529
40067W        W11596  42.480  25.496  13.969
40068W        W11597  37.112  25.585   2.148
40069W        W11598  26.732  39.421  11.483
40070W        W11599   5.711  38.885   1.962
40071W        W11600   6.860  19.678  12.242
40072W        W11601   3.843  43.269   0.847
40073W        W11602  31.558  21.267  10.682
40074W        W11603  10.957  29.523  13.569
40075W        W11604  30.043  41.098   3.510
40076W        W11605  30.853  15.290   0.224
40077W        W11606  23.752  32.619  12.670
40078W        W11607   0.883  13.187  10.757
40079W        W11608  29.847   3.799   1.691
40080W        W11609  44.233  28.588   0.708
40081W        W11610   7.704  39.949   2.935
40082W        W11611  28.218  41.950   2.351
40083W        W11612   9.861  36.571   0.849
40084W        W11613   3.625  18.245  14.797
40085W        W11614  33.487  18.969   2.360
40086W        W11615  13.232  43.621  11.520
40087W        W11616   5.823  29.483  14.435
40088W        W11617  17.876   0.283   1.225
40089W        W11618  34.553  13.212   4.111
40090W        W11619   7.849  29.048  14.843
40091W        W11620   7.245  12.254   0.718
40092W        W11621  21.017   8.315  11.838
40093W        W11622  14.723   7.252  12.022
40094W        W11623  19.489  10.291  13.939
40095W        W11624   2.518  23.012   3.702
40096W        W11625  31.345   5.462   4.615
40097W        W11626   0.394  44.519   4.574
40098W        W11627  29.460  14.374  14.352
40099W        W11628  19.207  29.624  11.709
40100W        W11629   3.992  21.407   1.864
40101W        W11630  15.145  16.134  10.494
40102W        W11631  42.080  37.102   0.781
40103W        W11632  31.412   3.308   3.985
40104W        W11633  43.581   9.244  14.005
40105W        W11634  24.259  29.360  10.557
40106W        W11635  27.701   4.815   3.240
40107W        W11636   1.737   6.438  12.593
40108W        W11637  35.391  27.000   4.533
40109W        W11638  42.599   8.828   3.438
40110W        W11639  19.555   4.326   2.774
40111W        W11640  21.864  41.257  10.801
40112W        W11641   0.238  30.151  13.270
40113W        W11642  21.169  20.206   4.585
40114W        W11643  17.082  44.799   4.009
40115W        W11644   9.663   2.139  12.576
40116W        W11645  32.156  12.666  12.037
40117W        W11646   0.007  39.623   1.211
40118W        W11647  17.279  16.221   1.731
40119W        W11648  17.358   8.532   4.190
40120W        W11649  13.143  16.917   1.855
40121W        W11650  32.225   6.708   0.886
40122W        W11651  13.017  13.359   3.131
40123W        W11652   5.515  13.703   2.197
40124W        W11653  33.199  15.103  12.300
40125W        W11654  19.421  25.070  10.326
40126W        W11655  18.756   9.993  14.694
40127W        W11656  28.056  36.609   0.953
40128W        W11657   2.246  41.819  11.609
40129W        W11658  39.728   9.665   3.792
40130W        W11659  44.398  19.646  14.890
40131W        W11660   9.660  42.935  12.255
40132W        W11661   5.676  16.255  11.699
40133W        W11662  20.563  14.091   1.869
40134W        W11663  35.573  18.729   4.843
40135W        W11664  39.909  19.001   4.322
40136W        W11665  40.015  30.808  11.054
40137W        W11666  21.728  34.907  14.818
40138W        W11667  43.939  12.322   0.376
40139W        W11668   8.428  43.070  14.138
40140W        W11669   1.322  16.086  13.155
40141W        W11670  42.227  40.822  14.761
40142W        W11671   1.353  10.326  14.829
40143W        W11672  10.663  36.865  14.738
40144W        W11673   1.257  14.316  12.101
40145W        W11674  30.499  12.466  12.059
40146W        W11675  21.759  24.378  13.435
40147W        W11676  42.409  21.356   4.050
40148W        W11677   2.704  36.684   4.129
40149W        W11678  30.083  15.602  12.873
40150W        W11679  15.087  15.198   0.721
40151W        W11680  39.229  13.009   2.668
40152W        W11681   1.169  40.471   4.640
40153W        W11682  40.007  28.120  10.623
40154W        W11683  38.350  24.336  12.826
40155W        W11684  15.660  31.532  14.266
40156W        W11685  28.943   8.593  11.007
40157W        W11686  15.815  23.661   0.960
40158W        W11687  22.617  35.237  14.398
40159W        W11688  17.723  44.263   4.445
40160W        W11689  24.138   2.018  13.418
40161W        W11690  42.853   5.957   4.585
40162W        W11691  39.451  27.875   1.688
40163W        W11692   3.313  14.030  10.475
40164W        W11693  24.968  20.280  13.455
40165W        W11694  43.572   2.817   1.339
40166W        W11695  37.321  10.509  12.148
40167W        W11696  19.244   6.787   0.966
40168W        W11697  24.507  36.732  12.745
40169W        W11698  28.989  34.753   4.120
40170W        W11699  17.352  35.430   4.174
40171W        W11700   2.520  12.934  14.604
40172W        W11701  44.542  14.925   2.894
40173W        W11702  27.806  34.096  11.418
40174W        W11703  44.773  13.568  12.537
40175W        W11704  24.567  34.583  13.334
40176W        W11705   3.934   0.170   4.091
40177W        W11706  22.420  41.965   0.738
40178W        W11707  35.286  36.296   2.368
40179W        W11708   8.551  22.139   1.960
40180W        W11709  26.044  17.840  10.743
40181W        W11710   5.833  39.278   3.395
40182W        W11711  12.509  22.995  11.718
40183W        W11712  29.649  23.128  10.727
40184W        W11713  21.934  10.108   2.233
40185W        W11714  30.976  43.949  14.320
40186W        W11715  37.095  11.561   3.692
40187W        W11716  11.905  12.389  14.350
40188W        W11717  42.951  11.787   2.122
40189W        W11718  43.691  26.469  11.100
40190W        W11719  44.905  43.471  11.542
40191W        W11720  18.897  44.199   0.389
40192W        W11721  29.697   5.580   3.668
40193W        W11722  38.426  12.274  11.171
40194W        W11723  39.952  35.794  14.247
40195W        W11724   6.721  12.254   0.919
40196W        W11725   5.657  34.585   3.199
40197W        W11726  30.657  15.996   0.870
40198W        W11727   8.618  25.941   2.108
40199W        W11728  25.260  11.558   2.849
40200W        W11729  29.627  24.947   0.898
40201W        W11730   0.457  25.528  10.625
40202W        W11731  11.585   0.849  12.473
40203W        W11732  13.079  24.698  12.333
40204W        W11733  10.422   5.276  12.511
40205W        W11734  38.132  41.363  11.696
40206W        W11735  33.403  22.324   4.193
40207W        W11736  23.262  32.557  12.429
40208W        W11737  43.307  28.198  12.495
40209W        W11738  13.876  18.278  14.854
40210W        W11739  25.603  37.687   0.994
40211W        W11740  17.626  19.300  13.592
40212W        W11741  42.220   8.298  11.556
40213W        W11742   9.598  26.131   1.673
40214W        W11743  15.095  10.960   3.290
40215W        W11744  12.628   7.696  14.908
40216W        W11745  41.043   8.113   1.309
40217W        W11746   3.912   6.467   4.252
40218W        W11747  28.724  40.391   3.801
40219W        W11748  25.481  28.023  10.732
40220W        W11749   3.391   8.575  12.079
40221W        W11750   8.015  15.217   4.448
40222W        W11751  36.403  36.077   3.672
40223W        W11752  32.012   6.821  13.480
40224W        W11753  16.056  22.442   3.637
40225W        W11754  25.892  24.589  14.458
40226W        W11755  12.712   7.279  14.308
40227W        W11756   3.840  43.841   3.369
40228W        W11757  17.511  34.201   2.274
40229W        W11758  28.003  19.212  10.552
40230W        W11759   6.145  32.363   0.774
40231W        W11760   8.946  43.092  11.099
40232W        W11761  15.035  18.355  13.885
40233W        W11762  27.366  20.376  11.483
40234W        W11763   6.984  18.221  11.661
40235W        W11764   2.912  27.408  13.896
40236W        W11765   8.751  10.388  11.575
40237W        W11766   0.950   4.261   4.029
40238W        W11767  25.141   7.511  14.023
40239W        W11768  44.302  37.630  12.147
40240W        W11769  36.360  41.033   1.920
40241W        W11770  27.570  14.784  13.322
40242W        W11771  15.618  24.051   1.217
40243W        W11772  21.118   8.215   2.361
40244W        W11773  40.082   7.346  14.004
40245W        W11774  10.181  18.594  13.272
40246W        W11775  40.990   9.249  14.801
40247W        W11776  23.492  27.153  14.803
40248W        W11777  23.024  26.423   0.768
40249W        W11778  18.338  33.922   4.236
40250W        W11779  29.561  41.453  10.722
40251W        W11780  23.163  35.935  14.414
40252W        W11781  42.807   5.170  12.569
40253W        W11782   9.774  19.278  12.838
40254W        W11783   7.318  37.070  13.005
40255W        W11784  30.268  31.438  10.898
40256W        W11785  35.309  14.246  11.827
40257W        W11786  11.165   7.220  14.401
40258W        W11787  44.929  16.631   3.717
40259W        W11788  26.992  12.244  12.097
40260W        W11789  32.656  22.657  14.004
40261W        W11790  31.394  29.577  12.508
40262W        W11791  10.771  37.784  12.883
40263W        W11792  38.842   2.531  11.766
40264W        W11793  19.108   0.125  11.056
40265W        W11794  16.368  11.262  11.732
40266W        W11795  39.483  33.380  14.010
40267W        W11796  40.977  23.951   3.921
40268W        W11797  12.618  41.062  12.079
40269W        W11798   4.507   6.882   0.296
40270W        W11799   5.469  39.009   3.656
40271W        W11800   9.729  38.083   3.096
40272W        W11801   1.785  10.301  11.583
40273W        W11802  19.559  44.420  11.947
40274W        W11803  31.216  40.000  13.913
40275W        W11804  28.698   0.383  11.625
40276W        W11805  39.436  21.912   2.555
40277W        W11806  19.073   1.247   1.781
40278W        W11807  42.356  44.641  10.626
40279W        W11808  13.519  22.897   4.839
40280W        W11809   9.282  11.410   0.312
40281W        W11810  32.829  29.561   3.823
40282W        W11811  32.669  30.460   3.606
40283W        W11812   9.903   8.480   4.356
40284W        W11813  11.265  22.736   4.136
40285W        W11814  16.864  17.612   1.363
40286W        W11815  26.033  36.072  10.546
40287W        W11816  43.189  23.040   2.843
40288W        W11817  33.178  29.478   1.719
40289W        W11818  17.078   5.469   3.116
40290W        W11819  10.698  32.369  10.608
40291W        W11820  40.284   8.229  12.901
40292W        W11821  34.625   9.175  11.719
40293W        W11822  40.059  29.838   2.188
40294W        W11823  15.158   7.021   0.671
40295W        W11824  23.090  30.270   4.453
40296W        W11825  32.834   0.777  13.281
40297W        W11826  40.747   6.495   0.058
40298W        W11827   0.615  14.678   4.601
40299W        W11828   1.670  12.211  13.020
40300W        W11829  26.712  37.067   1.161
40301W        W11830  25.726  43.845   2.326
40302W        W11831  26.455  12.491   3.194
40303W        W11832  39.381  26.540  10.655
40304W        W11833  34.340  14.155  12.921
40305W        W11834   2.546  21.490  11.550
40306W        W11835   3.450   6.524   3.787
40307W        W11836  12.612  25.539   4.308
40308W        W11837   4.489  42.692  13.903
40309W        W11838  31.452  12.330  14.908
40310W        W11839  40.340  29.552   4.046
40311W        W11840  35.885  24.215   1.852
40312W        W11841  22.010   1.214  12.091
40313W        W11842  36.390   1.210  12.198
40314W        W11843  40.665  39.878  14.769
40315W        W11844  15.202  10.845   0.257
40316W        W11845  15.794  36.313   0.421
40317W        W11846  21.516  23.932  11.193
40318W        W11847  24.227  13.693  13.733
40319W        W11848  19.498  31.613   0.769
40320W        W11849  32.578  18.087  11.109
40321W        W11850  31.355   0.970  13.442
40322W        W11851  19.755  15.730  14.393
40323W        W11852  30.977   0.388  13.292
40324W        W11853   7.973  23.162   0.895
40325W        W11854  40.584  40.049   3.691
40326W        W11855  30.211   3.310   2.152
40327W        W11856  24.842  37.528   2.663
40328W        W11857  38.032  18.744   1.781
40329W        W11858   1.985  29.137   4.845
40330W        W11859   3.849  12.695   2.404
40331W        W11860   7.728  19.721  10.901
40332W        W11861  23.230  12.251   4.255
40333W        W11862  44.122  34.342  11.313
40334W        W11863  42.413  21.501   4.560
40335W        W11864   8.637  18.563   0.351
40336W        W11865  24.681  16.555  14.408
40337W        W11866  14.382  29.987  12.438
40338W        W11867  20.216  26.522   4.926
40339W        W11868  32.846   0.945  11.974
40340W        W11869   8.755  25.132   0.922
40341W        W11870   1.627  16.982   2.883
40342W        W11871  44.281  21.250   0.466
40343W        W11872   2.029  32.989  14.839
40344W        W11873  25.155  12.684  11.865
40345W        W11874  30.552   6.155   4.802
40346W        W11875  37.318  28.710   4.498
40347W        W11876   3.230   8.389  11.630
40348W        W11877  41.535  12.257  11.983
40349W        W11878  43.905  15.141  13.552
40350W        W11879  40.451   3.903   4.190
40351W        W11880  33.433  17.235  13.280
40352W        W11881  37.263  26.872  11.986
40353W        W11882   0.634  44.829  13.027
40354W        W11883   2.293   9.803  13.739
40355W        W11884  14.893  18.274   1.681
40356W        W11885  17.211  40.820  10.726
40357W        W11886  34.418  38.073  13.561
40358W        W11887  24.279  18.085  11.004
40359W        W11888  11.388  23.028  12.422
40360W        W11889  20.152  32.433   2.186
40361W        W11890  21.581  28.728  14.925
40362W        W11891  10.672  30.012   1.785
40363W        W11892  20.558  27.498   3.910
40364W        W11893  29.576  14.680   2.622
40365W        W11894  21.600   2.393  14.947
40366W        W11895  29.558  14.573  12.424
40367W        W11896  29.660  11.760   3.793
40368W        W11897  37.407  30.586   1.859
40369W        W11898   0.308  25.046   3.420
40370W        W11899  38.521  21.577  13.033
40371W        W11900  19.698  24.258   2.314
40372W        W11901  27.630  14.916  11.004
40373W        W11902  42.017   6.051  11.145
40374W        W11903   6.560   5.358  12.286
40375W        W11904  35.669  13.834   0.414
40376W        W11905  21.327   8.977  14.491
40377W        W11906  29.047  11.559   2.945
40378W        W11907  34.320  38.569  13.712
40379W        W11908  43.486  19.744  12.479
40380W        W11909  40.901  22.850   3.266
40381W        W11910  34.453   2.274   0.782
40382W        W11911  23.758  20.770   0.060
40383W        W11912   8.149  30.035  12.763
40384W        W11913  14.683  12.283  12.946
40385W        W11914   2.958  25.759   3.667
40386W        W11915  40.878  35.888   0.068
40387W        W11916  11.847  35.658   3.169
40388W        W11917   8.819  38.805  11.590
40389W        W11918  25.479   1.915  13.975
40390W        W11919   6.343  37.084  10.675
40391W        W11920  13.709  43.291   3.114
40392W        W11921  21.111   9.715  11.487
40393W        W11922  37.867  13.796  12.581
40394W        W11923  24.546  41.949  14.316
40395W        W11924  38.034  42.529   3.818
40396W        W11925  36.079  30.021  13.485
40397W        W11926  34.589  18.685  11.990
40398W        W11927  26.444  33.161  12.031
40399W        W11928   9.913  38.195   0.845
40400W        W11929  19.679  42.916  12.374
40401W        W11930  35.457   9.069   4.974
40402W        W11931   4.955  15.869  12.928
40403W        W11932   4.236  10.202  14.072
40404W        W11933  19.251  17.827   3.610
40405W        W11934  24.023  33.942  13.687
40406W        W11935  42.016  35.613  10.652
40407W        W11936  11.991  33.000   4.877
40408W        W11937  29.569  42.379   2.776
40409W        W11938  21.095  27.578   1.641
40410W        W11939  40.501  34.095   0.761
40411W        W11940  40.971  42.020  14.953
40412W        W11941  21.680  26.569  13.304
40413W        W11942  27.040  33.402  12.709
40414W        W11943   4.148   4.324   0.894
40415W        W11944  23.285   0.004  14.896
40416W        W11945   0.898   6.388   3.555
40417W        W11946  20.740  16.850  13.486
40418W        W11947  26.616  34.817  13.914
40419W        W11948  35.953  43.506  14.465
40420W        W11949  42.772  34.990  14.316
40421W        W11950  38.641  42.326   3.308
40422W        W11951  20.157  36.151  10.827
40423W        W11952  42.346  34.183   4.357
40424W        W11953  36.450   0.200  14.968
40425W        W11954  24.459  39.041  11.436
40426W        W11955  39.084  18.661   1.947
40427W        W11956   3.425  23.413  11.493
40428W        W11957   3.170   6.687  13.739
40429W        W11958  27.942  16.836   0.387
40430W        W11959  32.110   7.661  10.654
40431W        W11960  13.672  10.640  11.624
40432W        W11961  13.211   0.795  13.014
40433W        W11962  12.132  37.553  12.941
40434W        W11963  23.765  28.675   2.851
40435W        W11964   4.733  20.982   1.747
40436W        W11965  17.638  37.079  14.273
40437W        W11966  32.036  39.940   1.929
40438W        W11967   9.588  33.588   3.273
40439W        W11968  14.301  17.107  13.900
40440W        W11969  37.818  32.424  14.914
40441W        W11970   5.165  17.242   1.890
40442W        W11971  17.804  33.346   4.171
40443W        W11972  44.757  21.807  14.826
40444W        W11973  36.205   6.403   0.773
40445W        W11974  22.650   7.806  10.647
40446W        W11975  17.596  37.848   1.185
40447W        W11976  33.146  18.838   0.770
40448W        W11977  12.255  25.781   3.048
40449W        W11978   6.222   0.342   3.688
40450W        W11979  42.429  11.695   3.855
40451W        W11980  29.624  40.482   3.264
40452W        W11981  17.856  33.451  11.203
40453W        W11982  23.181  12.795  12.189
40454W        W11983   6.243  18.992  14.404
40455W        W11984  20.719   6.939   4.216
40456W        W11985   7.867  12.839   0.867
40457W        W11986  16.573  18.491   1.820
40458W        W11987  38.226   9.879   2.819
40459W        W11988   6.731  41.726  13.360
40460W        W11989  42.628  12.650   2.683
40461W        W11990  34.074  17.025   0.094
40462W        W11991  36.513  16.675  10.765
40463W        W11992  26.987   0.227  11.531
40464W        W11993  36.834  22.139  14.460
40465W        W11994  15.122  31.267   5.026
40466W        W11995  10.901   3.001   3.574
40467W        W11996  36.007  44.838   0.825
40468W        W11997  18.955  14.269   3.193
40469W        W11998  25.656   4.580   1.163
40470W        W11999  10.720  44.753   3.115
40471W        W12000   6.282  25.282  12.040
40472W        W12001  23.066  15.124   1.428
40473W        W12002  24.104  35.868   0.228
40474W        W12003  42.044  32.612  12.755
40475W        W12004  14.559   7.964   3.201
40476W        W12005  28.445  12.159  12.023
40477W        W12006   3.332  20.242  14.280
40478W        W12007  24.962   7.495  14.965
40479W        W12008  13.859  27.256   1.853
40480W        W12009  14.055  29.025   0.467
40481W        W12010  44.308  29.991   3.831
40482W        W12011  18.754  23.780  14.057
40483W        W12012  22.769   8.019   2.106
40484W        W12013  42.097  23.566   3.744
40485W        W12014  37.867   0.777   2.418
40486W        W12015   2.038  17.705   3.239
40487W        W12016  38.926  19.777   3.602
40488W        W12017   5.470  19.689  14.451
40489W        W12018  44.790   4.404   0.392
40490W        W12019  35.093  31.438   2.197
40491W        W12020   3.966  33.977   4.943
40492W        W12021   3.051  38.510  13.511
40493W        W12022  12.224  19.275  13.079
40494W        W12023  14.793  11.943  14.980
40495W        W12024  37.574   9.932   1.087
40496W        W12025  33.600  29.084  12.175
40497W        W12026   5.264  35.941   1.622
40498W        W12027   1.431  12.535   3.061
40499W        W12028  20.737  38.330   5.400
40500W        W12029  17.303  35.859  11.593
40501W        W12030  10.002  14.502  13.785
40502W        W12031  21.580  30.893  11.121
40503W        W12032  21.128  21.192   4.605
40504W        W12033  31.382  28.547  11.739
40505W        W12034  39.835  17.509   3.151
40506W        W12035  43.250   1.151   0.752
40507W        W12036  41.027  32.992  13.341
40508W        W12037  19.050  39.044  14.355
40509W        W12038  22.262  15.054   1.902
40510W        W12039  31.350  20.961  11.086
40511W        W12040  33.685   5.868   2.259
40512W        W12041  29.885   6.207   1.932
40513W        W12042  17.049   5.806   1.584
40514W        W12043  40.951  16.426  12.060
40515W        W12044   4.027  23.189  13.115
40516W        W12045  27.132  36.517  12.105
40517W        W12046  16.630  26.572   4.516
40518W        W12047  17.734  21.981  14.876
40519W        W12048  11.804   6.896  12.772
40520W        W12049   8.770  38.565  12.091
40521W        W12050  38.656  31.335   2.665
40522W        W12051  12.773  33.075  13.012
40523W        W12052  34.305  44.810  14.898
40524W        W12053   5.643  15.310   4.006
40525W        W12054  29.431   9.824  11.223
40526W        W12055  23.837  15.151  11.078
40527W        W12056  38.551  23.048   3.007
40528W        W12057  12.894  17.607   2.695
40529W        W12058  20.576  24.961   2.103
40530W        W12059  12.850  41.498   2.842
40531W        W12060  12.740  30.150   2.301
40532W        W12061  24.362  42.851  12.590
40533W        W12062   8.254   3.245   0.355
40534W        W12063  31.139  35.092   4.035
40535W        W12064  18.210   0.030   2.514
40536W        W12065  27.161  32.271   2.771
40537W        W12066  25.819  38.963   0.277
40538W        W12067  34.781  14.325   4.484
40539W        W12068  13.715  31.581  13.520
40540W        W12069  33.844  33.616  13.870
40541W        W12070   6.790  16.335  13.029
40542W        W12071  28.635  32.173   4.974
40543W        W12072  38.524  14.644  14.440
40544W        W12073  30.178  17.559   1.833
40545W        W12074  24.043   2.728  12.018
40546W        W12075   9.446  15.686   2.885
40547W        W12076   0.871  23.632   0.801
40548W        W12077  43.327  30.181   4.516
40549W        W12078  38.769  14.133   4.622
40550W        W12079  24.238  22.986   2.194
40551W        W12080  10.671  41.989   4.564
40552W        W12081  30.086  30.664  14.520
40553W        W12082  26.474  16.571   4.530
40554W        W12083  33.121  29.647   0.360
40555W        W12084   9.303  44.194   1.209
40556W        W12085  42.776  15.136  14.739
40557W        W12086  20.259  19.309  11.497
40558W        W12087   7.887   2.771  11.063
40559W        W12088  43.740  34.131  11.751
40560W        W12089  10.282  18.121  13.753
40561W        W12090  38.123  23.051  10.672
40562W        W12091   9.776  37.813   3.561
40563W        W12092  18.992  32.128  14.731
40564W        W12093  37.994   5.314   1.887
40565W        W12094   8.144  27.082   4.944
40566W        W12095  13.851  31.594  14.028
40567W        W12096  14.833  29.120  10.587
40568W        W12097   9.961  30.264   4.998
40569W        W12098  28.203  36.343   1.971
40570W        W12099  30.205  39.448  12.036
40571W        W12100  41.252  32.026   3.200
40572W        W12101  10.901  11.654  13.822
40573W        W12102   5.383  41.041   3.871
40574W        W12103  18.204   0.062   0.352
40575W        W12104  25.474  30.972  12.907
40576W        W12105  20.349  26.585  13.133
40577W        W12106   3.876   5.216   3.749
40578W        W12107  41.318   8.771   0.909
40579W        W12108   2.767  28.453  13.188
40580W        W12109  38.896  15.532  10.069
40581W        W12110   1.528   4.366  10.656
40582W        W12111   5.885  22.622   3.671
40583W        W12112  30.552  36.689  10.762
40584W        W12113  16.309   1.977   0.418
40585W        W12114  10.789   1.844  14.033
40586W        W12115   2.408   8.788   1.827
40587W        W12116  21.233  29.115  14.806
40588W        W12117  21.249  12.159   4.166
40589W        W12118  25.487  35.851  11.656
40590W        W12119  33.547  42.251   2.261
40591W        W12120   5.653  30.924  11.502
40592W        W12121   7.933   7.643  14.442
40593W        W12122  30.731  39.018  11.506
40594W        W12123   9.391   1.814   0.790
40595W        W12124   7.849  18.196   2.637
40596W        W12125  27.576  18.313   3.320
40597W        W12126   2.298  13.573  11.603
40598W        W12127  37.158  27.171  12.435
40599W        W12128  41.121  31.409   3.936
40600W        W12129   4.020  41.058  12.891
40601W        W12130  36.932  15.824  12.502
40602W        W12131  28.877  11.569   4.144
40603W        W12132  15.305  26.056   0.251
40604W        W12133  16.227  23.101   0.410
40605W        W12134  14.232  20.589  10.409
40606W        W12135  24.153   6.629   1.259
40607W        W12136  10.440  34.533   4.062
40608W        W12137  32.477  12.035   3.028
40609W        W12138  40.959   4.640  11.134
40610W        W12139  29.640  12.395  13.467
40611W        W12140  14.268  18.495   0.773
40612W        W12141  12.359  41.447   0.456
40613W        W12142  42.903  32.825  11.109
40614W        W12143  32.404  34.946  10.633
40615W        W12144   1.321   1.159   2.192
40616W        W12145  23.893  19.333   0.229
40617W        W12146  20.276  44.374  12.932
40618W        W12147  43.302   2.213  13.965
40619W        W12148  23.600  28.186   1.308
40620W        W12149   8.369  36.698  14.808
40621W        W12150   6.411  11.119   2.657
40622W        W12151   7.267  10.835   0.306
40623W        W12152  14.208  31.105   0.829
40624W        W12153  24.908  42.453   4.128
40625W        W12154   0.546  10.718   2.869
40626W        W12155  12.672   7.375  10.903
40627W        W12156  41.613  14.197   1.803
40628W        W12157  36.318   2.877   2.786
40629W        W12158  19.594  28.182  12.677
40630W        W12159   1.359   0.781   4.775
40631W        W12160  32.356   5.858   3.737
40632W        W12161  18.920  37.393   2.707
40633W        W12162  31.454  35.452   5.007
40634W        W12163  19.330   7.820   2.246
40635W        W12164  22.284  40.980   4.450
40636W        W12165  20.294  33.120  11.131
40637W        W12166  34.039   4.141  13.350
40638W        W12167  43.704  41.345   2.261
40639W        W12168   9.045  37.502  12.479
40640W        W12169   6.925  42.597   0.437
40641W        W12170  25.756   2.504  11.105
40642W        W12171  10.325  12.294  13.554
40643W        W12172  34.260  30.251   2.703
40644W        W12173  39.210  11.557   0.092
40645W        W12174  10.850   3.383  14.057
40646W        W12175  22.800  24.659   1.846
40647W        W12176  33.697  35.884  11.096
40648W        W12177  22.159  16.189   1.293
40649W        W12178  13.192  22.079  14.424
40650W        W12179  23.524  44.616   3.525
40651W        W12180  28.550   0.028   2.179
40652W        W12181  12.347   1.970  11.431
40653W        W12182   7.901   8.940  14.788
40654W        W12183   7.880  10.700  14.559
40655W        W12184  21.708  26.334  11.382
40656W        W12185   5.828  30.518   4.755
40657W        W12186  30.160  41.859  11.572
40658W        W12187  14.526  38.891  13.238
40659W        W12188  16.247  28.200   2.699
40660W        W12189  42.228  29.644  14.819
40661W        W12190   5.863   1.482   3.233
40662W        W12191   1.337   7.694  11.169
40663W        W12192   0.295   5.720  11.144
40664W        W12193  39.377  18.916  13.985
40665W        W12194  11.210  42.200  11.274
40666W        W12195  12.083  28.826   1.331
40667W        W12196   1.924  22.574  11.479
40668W        W12197  36.056  10.359   1.876
40669W        W12198  21.652  22.861   1.295
40670W        W12199  20.596  30.134  12.780
40671W        W12200  38.022   6.169  10.710
40672W        W12201  10.925  37.123   3.443
40673W        W12202  20.749  40.076   4.110
40674W        W12203  34.170  41.059  12.983
40675W        W12204   9.427  31.047   0.681
40676W        W12205  31.935  26.118  14.613
40677W        W12206  40.066   0.390  14.886
40678W        W12207  25.219  37.917  11.146
40679W        W12208  35.102  20.752   0.783
40680W        W12209   8.299  27.935   2.201
40681W        W12210  31.229   4.054   4.875
40682W        W12211   8.727   9.825  14.253
40683W        W12212  12.243  20.260  14.341
40684W        W12213  15.862  31.058  12.893
40685W        W12214  22.635   7.105   2.459
40686W        W12215   1.271  41.116  14.385
40687W        W12216  10.389  38.433  14.968
40688W        W12217   4.710  39.917   3.307
40689W        W12218  29.936  11.290   3.664
40690W        W12219  30.537  28.392   3.710
40691W        W12220   5.955   5.440   0.053
40692W        W12221  10.165  37.501  14.876
40693W        W12222   3.203  25.019   2.367
40694W        W12223  30.088  10.092  12.159
40695W        W12224  35.511  30.037   3.983
40696W        W12225   6.320  40.865   3.691
40697W        W12226   5.165  17.788   1.860
40698W        W12227   2.390  33.059   2.223
40699W        W12228  33.977   7.734  13.333
40700W        W12229  22.499  21.693   0.140
40701W        W12230  41.870   4.667   0.765
40702W        W12231   8.998  12.671   2.787
40703W        W12232  24.732  11.595   2.743
40704W        W12233  31.997  36.383   2.770
40705W        W12234  42.959  16.661   3.945
40706W        W12235   9.255  34.603  12.222
40707W        W12236  30.863   8.750  10.610
40708W        W12237  23.183  11.579   1.222
40709W        W12238  25.163  10.670  12.664
40710W        W12239  21.030  21.396  13.305
40711W        W12240   6.303   0.630   4.095
40712W        W12241   7.873  12.338   4.162
40713W        W12242  23.715  36.966  14.043
40714W        W12243   8.646  29.530   0.282
40715W        W12244  10.169  35.401  13.931
40716W        W12245   3.034  32.435   0.406
40717W        W12246  33.870  18.020   2.247
40718W        W12247  28.892  30.164  14.868
40719W        W12248  27.769  36.937  12.346
40720W        W12249  24.518  37.337   3.015
40721W        W12250  39.043  40.021   4.647
40722W        W12251  16.701  15.067  14.254
40723W        W12252   0.314  43.767   3.234
40724W        W12253  18.116  30.936  14.286
40725W        W12254   7.127  24.943  12.121
40726W        W12255  16.669   0.281   3.847
40727W        W12256  18.345  20.537   2.103
40728W        W12257  11.568  32.975   0.329
40729W        W12258  31.504   6.766   2.799
40730W        W12259  13.281   6.462  12.934
40731W        W12260  14.903  37.558  10.551
40732W        W12261  34.112   6.435   3.830
40733W        W12262  36.905  39.089  13.253
40734W        W12263  24.562  32.465   1.221
40735W        W12264  27.105  16.044  13.603
40736W        W12265   4.794   2.810   2.842
40737W        W12266  30.487  42.913  11.143
40738W        W12267   7.768  12.830  14.412
40739W        W12268  34.980  28.118  14.913
40740W        W12269  11.724  16.078   2.263
40741W        W12270  43.742  38.316   4.197
40742W        W12271  22.777  25.216  13.496
40743W        W12272   9.477  39.502   1.264
40744W        W12273  18.825  21.215   2.210
40745W        W12274  42.941  23.453   1.906
40746W        W12275  35.111  20.056  13.304
40747W        W12276  18.943  44.447   1.979
40748W        W12277  23.648   4.276  13.611
40749W        W12278  19.339  40.767  13.501
40750W        W12279  35.860  10.293   4.208
40751W        W12280  42.868  42.799  12.375
40752W        W12281  26.135  25.444  13.061
40753W        W12282  25.574  10.547   2.211
40754W        W12283  25.238  11.377  10.758
40755W        W12284  37.020  42.300   3.391
40756W        W12285   7.782  31.914   1.678
40757W        W12286   9.637   0.791   1.564
40758W        W12287  17.345  26.978   0.659
40759W        W12288  21.350  21.701   0.414
40760W        W12289  28.548  23.649   2.705
40761W        W12290  42.002  38.594  12.116
40762W        W12291  23.345  31.477  14.426
40763W        W12292  30.935  19.580   3.610
40764W        W12293  23.804  23.556   4.195
40765W        W12294  21.666  35.155   0.712
40766W        W12295  27.025  43.871   2.130
40767W        W12296   8.325   5.710  13.773
40768W        W12297  21.487  11.331   2.448
40769W        W12298   6.792  43.680   2.675
40770W        W12299  35.496  40.680   2.351
40771W        W12300  14.569   5.626  11.972
40772W        W12301   1.484   2.639   0.730
40773W        W12302  26.416  39.750   0.162
40774W        W12303  25.027  38.947   4.169
40775W        W12304   3.960   5.197   4.920
40776W        W12305  11.633   5.355   5.008
40777W        W12306  17.161   4.109   0.345
40778W        W12307   5.311  40.928  13.887
40779W        W12308   9.947  12.384   0.812
40780W        W12309  13.358   2.772   1.253
40781W        W12310  10.884   4.429   3.669
40782W        W12311  25.619  22.820   0.307
40783W        W12312  39.964   0.198  10.824
40784W        W12313  18.751   7.310   2.557
40785W        W12314  44.336  10.662   4.854
40786W        W12315  18.615  42.947   2.813
40787W        W12316  39.566  17.271   1.307
40788W        W12317  36.363  34.531   0.557
40789W        W12318  35.074  35.894  14.967
40790W        W12319   8.034  30.618   0.819
40791W        W12320  38.008   6.715  14.517
40792W        W12321  44.265  19.083  12.977
40793W        W12322  26.520  13.342   2.846
40794W        W12323  40.782  41.959  14.003
40795W        W12324  20.344  22.532   4.236
40796W        W12325  24.548  24.536  11.541
40797W        W12326   0.454  33.624  13.232
40798W        W12327  41.085  31.029   0.968
40799W        W12328  43.441  29.791  13.919
40800W        W12329  14.381  41.385  12.044
40801W        W12330  21.603   1.468   2.665
40802W        W12331  25.239  39.916  14.824
40803W        W12332   5.693  25.948   2.816
40804W        W12333  24.584  39.362   4.766
40805W        W12334  34.977  22.142   4.522
40806W        W12335  12.721  27.589   2.865
40807W        W12336  26.247  14.327  12.530
40808W        W12337  12.055  32.466   1.296
40809W        W12338  11.963  17.208   0.957
40810W        W12339  43.278  18.259  13.981
40811W        W12340   8.168   5.384  10.698
40812W        W12341   2.599   9.890  13.288
40813W        W12342  12.909  32.165  13.584
40814W        W12343  21.005  37.862  10.670
40815W        W12344  15.206  21.259   0.245
40816W        W12345  11.832  32.157   3.796
40817W        W12346  38.888  30.282  11.311
40818W        W12347  27.086  42.418   1.970
40819W        W12348  19.231  35.499   4.325
40820W        W12349  42.356  20.757  10.670
40821W        W12350  27.701  25.475  10.653
40822W        W12351  35.281   1.876  10.707
40823W        W12352  13.745   7.222   4.242
40824W        W12353  39.883   8.294   1.438
40825W        W12354  33.236  36.348   4.513
40826W        W12355  15.106  34.515   1.007
40827W        W12356   5.619  20.453  11.125
40828W        W12357  34.506  13.655  11.984
40829W        W12358  30.303   4.293   1.454
40830W        W12359  42.344  22.002   0.651
40831W        W12360  16.704  38.125   4.146
40832W        W12361  16.293   2.641  12.449
40833W        W12362  14.570  10.136  11.978
40834W        W12363   3.889  11.779  10.162
40835W        W12364   8.636  24.169  11.191
40836W        W12365  31.935  21.582   1.169
40837W        W12366  14.188  13.246  10.656
40838W        W12367  39.524  19.294   0.848
40839W        W12368   3.208  31.517  10.152
40840W        W12369   7.993  40.578  14.404
40841W        W12370  40.392  19.530  12.922
40842W        W12371  11.345   7.819  10.761
40843W        W12372  33.031  42.481  11.647
40844W        W12373  14.797  27.237   4.690
40845W        W12374  37.016  12.750  11.139
40846W        W12375  34.634  21.578  13.923
40847W        W12376  18.417   4.912  11.630
40848W        W12377   9.178  38.874  13.863
40849W        W12378  29.629  15.526   3.663
40850W        W12379  10.081  21.735  14.779
40851W        W12380  24.707  15.542   2.825
40852W        W12381   8.151  35.779  13.972
40853W        W12382   3.441   6.888   1.394
40854W        W12383  26.951  12.830   0.932
40855W        W12384  32.483  16.439   2.161
40856W        W12385  37.913  34.990   0.071
40857W        W12386   5.890  11.599   4.888
40858W        W12387  29.441  19.045   0.812
40859W        W12388  18.292  27.188   9.953
40860W        W12389   8.414  39.306  14.475
40861W        W12390  23.172   7.771   4.569
40862W        W12391  11.886   1.711  13.093
40863W        W12392   3.647  21.193  13.010
40864W        W12393  41.463   0.852   0.390
40865W        W12394   1.953  44.897   2.773
40866W        W12395  13.684  18.133   0.750
40867W        W12396  15.478  25.060  11.715
40868W        W12397  15.261  27.111  11.286
40869W        W12398  31.559  15.497   4.483
40870W        W12399  34.362  15.134   0.305
40871W        W12400  12.710   7.167  12.830
40872W        W12401  19.112   6.910  14.561
40873W        W12402  14.709  22.168   1.135
40874W        W12403  19.535  37.039   1.464
40875W        W12404  23.656  32.193   5.140
40876W        W12405  13.395  25.772   4.261
40877W        W12406  14.779  36.613  13.980
40878W        W12407  35.939  29.983   2.303
40879W        W12408  34.029  37.744  10.296
40880W        W12409  17.810  17.199  14.260
40881W        W12410   0.804   5.275   4.045
40882W        W12411  31.612  21.066   9.877
40883W        W12412  44.133  22.949   2.666
40884W        W12413  31.964  15.081  13.542
40885W        W12414  18.012  37.222   4.673
40886W        W12415  32.937  34.586   4.208
40887W        W12416  17.057  11.407   1.289
40888W        W12417   4.836  31.075  12.039
40889W        W12418   6.142  22.294  12.862
40890W        W12419   3.979  21.140   3.621
40891W        W12420  28.936  10.928  11.613
40892W        W12421  40.301   2.441  10.748
40893W        W12422   5.922  39.877  12.850
40894W        W12423   6.128  16.792   3.235
40895W        W12424  29.611  39.244   4.115
40896W        W12425  18.189  15.802  13.364
40897W        W12426   4.489  29.418   3.675
40898W        W12427  24.979   1.996   4.332
40899W        W12428  35.132  20.081  11.432
40900W        W12429  19.369  11.621  13.772
40901W        W12430  33.948   1.394  11.647
40902W        W12431  43.261  15.699   3.191
40903W        W12432  27.797   5.739   0.709
40904W        W12433  43.743  27.730   0.930
40905W        W12434   1.607  26.238  14.207
40906W        W12435   0.761  27.930   0.359
40907W        W12436  41.605  40.386  12.158
40908W        W12437   1.549  32.956  11.570
40909W        W12438  23.973   5.781  14.058
40910W        W12439  25.478   7.829  13.804
40911W        W12440  41.700  32.963  14.492
40912W        W12441  37.474  23.476   3.368
40913W        W12442  17.450  33.571   3.876
40914W        W12443   8.627   5.205   4.195
40915W        W12444  14.619  24.532   2.105
40916W        W12445  20.668  18.112   4.580
40917W        W12446   9.285   4.288   0.445
40918W        W12447  23.272  17.338  10.852
40919W        W12448  30.219  42.453   1.765
40920W        W12449  26.665  28.596   0.803
40921W        W12450   7.680  37.043   1.163
40922W        W12451   4.479  32.425  14.535
40923W        W12452   1.598  27.438   0.318
40924W        W12453   0.315  19.600   2.360
40925W        W12454  13.765   1.633  14.446
40926W        W12455  26.731  39.505   2.802
40927W        W12456  13.731   2.904  12.871
40928W        W12457   0.407   1.051  14.765
40929W        W12458  13.607   7.354   1.750
40930W        W12459  18.679  33.844  12.942
40931W        W12460  12.088  44.959  13.532
40932W        W12461  34.841  16.062  14.031
40933W        W12462  24.957  26.509  13.028
40934W        W12463  38.472  32.953   3.148
40935W        W12464  35.953  16.764   2.987
40936W        W12465  36.142  20.084  10.634
40937W        W12466  25.210   8.896   0.908
40938W        W12467   0.964  44.462  11.163
40939W        W12468  18.756  40.598  10.681
40940W        W12469  25.668  31.122   2.225
40941W        W12470   0.725   7.387   3.899
40942W        W12471   8.238  11.589   2.355
40943W        W12472  33.339  15.452  10.553
40944W        W12473  26.543  36.399   2.237
40945W        W12474   0.998  40.776   4.218
40946W        W12475  11.149  39.054  11.833
40947W        W12476  22.968   5.403   1.021
40948W        W12477  18.628  32.402   2.824
40949W        W12478   5.818  33.147  13.101
40950W        W12479  44.986   3.742  13.118
40951W        W12480  27.596  10.764  14.951
40952W        W12481  30.031  19.448   3.368
40953W        W12482  30.960   5.329   1.972
40954W        W12483  14.884   1.047  14.715
40955W        W12484  21.521  16.778  10.695
40956W        W12485  26.734  19.816  11.736
40957W        W12486   0.213  37.225   1.314
40958W        W12487   4.842   2.679  10.983
40959W        W12488  23.440  30.998   3.252
40960W        W12489   6.821  32.262  14.696
40961W        W12490  29.492  27.165  10.622
40962W        W12491  15.574  19.320   0.047
40963W        W12492  34.009   1.403   0.480
40964W        W12493  34.629  19.772  11.093
40965W        W12494  24.074  33.662   1.216
40966W        W12495  17.164  35.545   4.657
40967W        W12496  32.372  33.923   3.168
40968W        W12497  13.618   5.069  11.348
40969W        W12498  43.787  35.584   2.712
40970W        W12499  34.356  34.430  11.700
40971W        W12500  13.739   7.630  14.363
40972W        W12501  27.011   6.701   2.780
40973W        W12502  36.354   8.385  12.858
40974W        W12503  40.517  39.558   0.908
40975W        W12504   2.949  32.816  10.242
40976W        W12505   4.198  42.454  12.943
40977W        W12506   3.931  17.950  13.004
40978W        W12507   5.490   9.262   3.430
40979W        W12508  18.790   5.215   2.699
40980W        W12509  13.713  20.495   0.403
40981W        W12510  31.519   3.410  13.000
40982W        W12511  25.428  16.677  10.655
40983W        W12512   3.632   3.706   3.801
40984W        W12513  39.415  31.977   1.627
40985W        W12514  20.312  43.907   2.190
40986W        W12515  12.719  34.120  12.996
40987W        W12516  10.237  37.410   2.767
40988W        W12517  43.907  21.070   2.352
40989W        W12518  15.300  17.724  13.140
40990W        W12519  31.510  33.853   4.638
40991W        W12520  15.536  16.001   2.134
40992W        W12521  26.876   0.633  14.469
40993W        W12522   7.409  37.493  14.887
40994W        W12523  44.586  23.219   1.759
40995W        W12524  11.152  28.990   0.380
40996W        W12525  43.962  29.094  13.273
40997W        W12526  36.542   2.284  13.247
40998W        W12527  14.369  10.693  10.846
40999W        W12528   8.637   1.503  14.052
41000W        W12529   3.163  15.671   4.956
41001W        W12530   3.895   8.933   1.798
41002W        W12531  21.561   9.466   4.147
41003W        W12532  31.410  41.913  14.307
41004W        W12533  17.325  11.908   0.452
41005W        W12534  27.554   2.444  10.969
41006W        W12535  40.308  35.106   3.155
41007W        W12536  32.962  33.642   2.201
41008W        W12537  17.582  36.586  13.039
41009W        W12538  26.212  43.316  13.685
41010W        W12539  22.160   4.612  12.576
41011W        W12540  29.880  43.317   4.163
41012W        W12541   0.865  21.761   4.468
41013W        W12542  40.306  36.186   0.006
41014W        W12543  14.077  10.152  13.841
41015W        W12544  15.594   8.003  13.337
41016W        W12545  13.469  42.731  11.616
41017W        W12546  11.948  14.639  11.139
41018W        W12547   0.993  42.794   1.674
41019W        W12548  34.597  14.218   3.093
41020W        W12549  37.019  38.549   2.681
41021W        W12550  25.688  18.012  14.739
41022W        W12551  32.414   1.441   4.995
41023W        W12552  15.173  27.308  11.768
41024W        W12553  19.120  42.691  11.595
41025W        W12554  19.072  18.550   2.383
41026W        W12555  14.299  21.816   0.314
41027W        W12556  34.455  31.709   4.190
41028W        W12557  23.830  21.657   2.821
41029W        W12558  12.098   3.594   1.733
41030W        W12559  30.859  14.203  14.268
41031W        W12560  39.265  14.371   3.743
41032W        W12561  40.466  20.363  13.492
41033W        W12562  18.656  33.942  13.893
41034W        W12563  23.727  17.112   0.528
41035W        W12564  27.671  41.961  11.502
41036W        W12565  13.148  23.441  13.859
41037W        W12566   8.294  40.335   1.280
41038W        W12567  29.928   1.222   0.064
41039W        W12568   1.269   9.901   3.689
41040W        W12569  42.733   3.739   0.217
41041W        W12570  18.247  13.389   4.395
41042W        W12571  35.361  43.201   1.291
41043W        W12572  15.972  28.412   4.108
41044W        W12573  30.054  34.761  11.350
41045W        W12574  42.587  22.714  14.402
41046W        W12575   2.098  40.574   2.846
41047W        W12576  11.156  35.566   4.061
41048W        W12577   6.322  20.817   2.298
41049W        W12578  16.681  30.464  12.436
41050W        W12579  26.737  26.909   0.329
41051W        W12580  26.698  17.545  14.007
41052W        W12581   3.302   2.355  13.411
41053W        W12582   0.534   0.203   1.589
41054W        W12583  21.895  38.886   2.326
41055W        W12584  14.122  13.649   2.432
41056W        W12585  26.658   9.304   1.860
41057W        W12586  28.503   2.451  11.050
41058W        W12587   5.891  41.980   1.277
41059W        W12588  18.937  21.985   4.090
41060W        W12589   4.878  30.451  10.927
41061W        W12590  40.098   0.795   2.399
41062W        W12591   0.334   2.787   4.690
41063W        W12592   8.451  12.696  12.409
41064W        W12593  32.216  10.688   3.639
41065W        W12594  21.731  20.680   1.806
41066W        W12595   6.831  18.706  14.520
41067W        W12596  17.160  13.167  11.942
41068W        W12597  34.322  35.471  12.148
41069W        W12598  25.432  31.644  14.910
41070W        W12599  29.518  24.670   3.295
41071W        W12600  16.945  44.404   3.295
41072W        W12601  33.432  27.884   4.047
41073W        W12602  16.697  18.532   4.142
41074W        W12603  41.286  39.925   1.830
41075W        W12604   8.728  36.325   3.359
41076W        W12605   9.606   8.751   3.273
41077W        W12606  11.226  25.547  12.644
41078W        W12607  44.782  28.234   1.773
41079W        W12608  44.546   1.248  10.761
41080W        W12609   2.416  25.179  13.458
41081W        W12610   6.419  43.358   3.776
41082W        W12611  17.062  18.239   3.663
41083W        W12612  40.761  31.110  10.723
41084W        W12613  18.254  28.529  13.871
41085W        W12614  38.390  22.320  14.768
41086W        W12615   0.948  42.547   4.479
41087W        W12616  35.317  17.115  11.409
41088W        W12617  42.760  20.855   3.637
41089W        W12618  19.130  35.057  12.595
41090W        W12619  16.751  22.064  13.026
41091W        W12620  19.079  15.941   1.633
41092W        W12621  41.786  15.336   3.274
41093W        W12622  31.450  14.092  12.920
41094W        W12623   6.374  25.788  13.742
41095W        W12624  19.362  23.154  14.259
41096W        W12625  30.519  44.278  12.579
41097W        W12626  14.161  37.329   0.767
41098W        W12627   5.314  13.359  13.548
41099W        W12628  37.649  34.484   4.136
41100W        W12629  44.229  11.687   3.615
41101W        W12630   0.193  13.557  11.587
41102W        W12631  41.054  32.123   0.524
41103W        W12632  39.396  26.018  10.439
41104W        W12633  26.511   1.888   4.878
41105W        W12634  26.799  25.219   3.124
41106W        W12635  28.667  24.949  11.576
41107W        W12636  39.244  27.146   1.817
41108W        W12637  33.390  30.915   3.917
41109W        W12638   6.873  23.195   0.430
41110W        W12639  44.233   5.307  12.598
41111W        W12640  11.643  39.782   3.154
41112W        W12641  44.509  22.886  14.133
41113W        W12642  15.664  34.971   2.427
41114W        W12643  39.515   4.159   1.663
41115W        W12644  17.730  29.972  14.833
41116W        W12645  35.546   1.501  11.881
41117W        W12646   1.679  37.415   4.739
41118W        W12647  29.945  35.362   1.800
41119W        W12648  42.830  26.395   3.642
41120W        W12649  27.910  22.593   2.403
41121W        W12650  33.608  34.984   4.281
41122W        W12651  12.941  37.321  13.399
41123W        W12652  24.692  21.475  14.828
41124W        W12653  32.501  28.208  10.344
41125W        W12654   4.417  20.461  11.992
41126W        W12655  11.353  34.485  13.377
41127W        W12656  21.215   7.541   1.733
41128W        W12657  24.718  23.545   1.386
41129W        W12658  36.525  13.311   1.786
41130W        W12659  37.595  23.745   1.423
41131W        W12660  27.145  22.750   4.533
41132W        W12661  23.561  39.150   0.489
41133W        W12662   6.183  30.831   4.550
41134W        W12663  21.490  39.507  11.505
41135W        W12664  29.427   4.214  11.121
41136W        W12665  39.353  43.109   0.331
41137W        W12666  19.947  22.959   4.231
41138W        W12667   5.932  19.604  10.167
41139W        W12668  40.826  41.910  13.500
41140W        W12669  42.021  11.284  11.362
41141W        W12670  16.801  38.499  11.730
41142W        W12671  18.885  26.418   2.190
41143W        W12672  31.356  37.479  11.860
41144W        W12673  19.203  27.431  10.276
41145W        W12674  17.098  36.849   2.698
41146W        W12675  39.630  16.591   3.162
41147W        W12676  23.702   9.003  12.580
41148W        W12677  10.720  44.471   2.284
41149W        W12678  11.256  12.591  11.460
41150W        W12679  12.672   8.869  13.653
41151W        W12680  17.280   1.706  13.046
41152W        W12681  29.983  20.265  11.622
41153W        W12682  15.671  12.873   1.855
41154W        W12683   8.234  32.188   1.705
41155W        W12684  44.368  38.136  10.833
41156W        W12685  33.811  21.704   1.161
41157W        W12686   3.858  33.523   4.696
41158W        W12687  32.360  28.029  11.204
41159W        W12688  24.253  22.088  11.724
41160W        W12689  21.684  44.234   0.417
41161W        W12690   4.406  26.933  14.495
41162W        W12691  39.335   2.270   3.066
41163W        W12692  34.003  43.878   0.483
41164W        W12693  27.500  26.576   0.388
41165W        W12694  43.829  13.894   0.376
41166W        W12695  42.327  25.718  12.935
41167W        W12696   2.067   5.042  12.027
41168W        W12697  20.831   3.162  12.962
41169W        W12698  43.412  28.509  14.505
41170W        W12699  44.934   2.548  12.428
41171W        W12700  14.208  33.401   2.377
41172W        W12701  43.208  34.661  12.206
41173W        W12702  19.783  13.208   2.404
41174W        W12703  37.850  19.798  14.089
41175W        W12704  27.067  41.429  10.778
41176W        W12705  12.602   5.377   1.131
41177W        W12706  11.463  22.687   1.160
41178W        W12707   2.903  37.737   3.568
41179W        W12708  42.116   8.772   3.270
41180W        W12709  13.821  35.873   3.109
41181W        W12710  14.573   2.127   1.777
41182W        W12711   1.944   1.827  10.739
41183W        W12712  25.242  41.423  14.837
41184W        W12713  22.025  17.360   4.644
41185W        W12714   2.812  10.204   0.020
41186W        W12715   2.477   4.829   9.818
41187W        W12716  15.322  23.014  12.938
41188W        W12717   2.163  42.973   3.165
41189W        W12718  31.718  38.865  13.950
41190W        W12719  43.580  30.650  12.493
41191W        W12720  16.672  24.751   0.496
41192W        W12721  31.931  29.512  10.329
41193W        W12722   4.022  35.470   2.024
41194W        W12723  41.298  33.420  13.915
41195W        W12724  12.508  26.118  12.031
41196W        W12725  23.124  32.311   1.326
41197W        W12726   3.827  15.255  12.827
41198W        W12727  27.548  26.462  11.522
41199W        W12728   4.266  24.561  13.002
41200W        W12729   9.224  41.386  10.828
41201W        W12730   8.278  39.255  13.394
41202W        W12731   6.389  12.961  13.986
41203W        W12732   5.370   0.632   4.133
41204W        W12733   8.433  22.604  13.828
41205W        W12734   6.710  21.095   3.953
41206W        W12735  28.377   1.315   3.333
41207W        W12736   3.579  21.526  14.728
41208W        W12737   3.397  43.290   3.338
41209W        W12738   3.167   3.968  11.263
41210W        W12739  38.889  12.703   2.953
41211W        W12740  44.320  22.111  14.752
41212W        W12741  41.785  14.705   4.332
41213W        W12742   7.851  30.641  13.351
41214W        W12743  20.529   3.763  10.936
41215W        W12744  33.417  39.855   4.317
41216W        W12745  41.031   1.209  13.029
41217W        W12746   7.278  27.229   1.387
41218W        W12747  43.991  13.816   4.330
41219W        W12748   1.479  32.035  11.546
41220W        W12749  24.967  28.214   4.839
41221W        W12750  24.083   6.561  14.341
41222W        W12751  12.692  33.007   2.745
41223W        W12752   5.245  19.707   1.137
41224W        W12753   3.560  22.745  12.452
41225W        W12754  27.720  13.785  11.822
41226W        W12755   4.230  15.247   0.517
41227W        W12756  32.017   7.596   4.568
41228W        W12757  26.529  34.453   0.717
41229W        W12758  38.978  10.675   0.988
41230W        W12759   2.236   6.081  12.574
41231W        W12760  28.951  26.106   0.680
41232W        W12761   7.276  43.438   0.985
41233W        W12762  20.546  22.073   1.938
41234W        W12763  24.269  32.177  14.444
41235W        W12764   0.510  15.396  11.186
41236W        W12765  37.770  29.493   1.423
41237W        W12766  25.523   5.288  14.366
41238W        W12767  23.539  14.402  12.820
41239W        W12768   2.665  37.402  13.379
41240W        W12769  29.414   7.562   2.292
41241W        W12770  13.608   7.757  10.542
41242W        W12771  31.577  17.241  10.425
41243W        W12772   8.975  31.396  11.977
41244W        W12773   6.252   1.451   0.900
41245W        W12774  32.862   2.775  11.617
41246W        W12775   2.872  42.906  11.064
41247W        W12776  44.313  38.570  13.437
41248W        W12777  20.101  26.539   4.045
41249W        W12778  19.115  30.878   1.268
41250W        W12779  36.210  33.518   2.721
41251W        W12780   5.707  33.637  14.367
41252W        W12781  37.810  34.440   1.839
41253W        W12782  27.257  25.547  14.020
41254W        W12783  27.469  25.856   0.861
41255W        W12784  17.804   5.207   3.641
41256W        W12785  35.506   3.199   2.639
41257W        W12786   8.776  20.666   2.157
41258W        W12787  30.032   0.065   4.601
41259W        W12788  11.659  18.071  11.694
41260W        W12789  25.079  26.478  11.249
41261W        W12790   3.311  33.577   2.888
41262W        W12791   3.923   2.421  13.223
41263W        W12792  34.830  21.183  10.886
41264W        W12793   6.853  17.272  11.891
41265W        W12794  40.722  14.225   2.242
41266W        W12795  29.557   6.162  12.944
41267W        W12796   7.992  37.065  13.900
41268W        W12797  41.158  36.177   0.686
41269W        W12798  42.948   1.462   3.820
41270W        W12799  31.856  44.268  11.132
41271W        W12800  36.043   5.506   4.394
41272W        W12801  12.643  31.759   4.542
41273W        W12802  35.390  14.193   0.013
41274W        W12803  16.306   6.297   4.384
41275W        W12804   1.852  11.803   3.697
41276W        W12805  11.543  25.048   2.180
41277W        W12806  17.252  37.019   3.181
41278W        W12807  34.105  41.036   2.248
41279W        W12808  15.484  29.097   0.122
41280W        W12809   8.246   6.734  13.343
41281W        W12810   0.851  36.168   3.792
41282W        W12811  25.911  28.587  13.408
41283W        W12812  28.727  40.802   0.866
41284W        W12813  10.413  40.952   4.091
41285W        W12814  39.614  13.405   3.776
41286W        W12815   5.523  21.506  11.657
41287W        W12816  33.407  26.482   5.280
41288W        W12817   7.643  14.327  11.117
41289W        W12818   4.439  20.214   2.763
41290W        W12819  10.393  13.355   3.839
41291W        W12820  24.749   6.606   1.907
41292W        W12821   4.788  42.160  13.439
41293W        W12822  11.266  14.669   4.402
41294W        W12823  13.767  38.509  14.516
41295W        W12824  18.515   4.461  11.904
41296W        W12825  25.302  31.628  12.081
41297W        W12826   6.783  10.250  13.870
41298W        W12827  14.668   2.745   0.396
41299W        W12828  31.896  19.185  13.681
41300W        W12829  25.636  16.650  14.254
41301W        W12830  19.388  25.281  10.839
41302W        W12831   7.953   6.237  11.610
41303W        W12832   2.761  21.245   0.777
41304W        W12833  36.295  41.408  14.857
41305W        W12834  29.945  15.090   0.414
41306W        W12835  41.927  22.774  12.482
41307W        W12836  35.450  14.380   1.462
41308W        W12837  34.161  21.687  14.916
41309W        W12838   8.835  34.774   0.171
41310W        W12839  23.237   2.865   1.733
41311W        W12840  34.553  27.888  14.780
41312W        W12841  31.525  36.962   4.393
41313W        W12842  20.442  39.062  10.970
41314W        W12843  14.373   7.475  13.286
41315W        W12844  13.703   8.779  11.148
41316W        W12845   4.207  39.843   4.327
41317W        W12846  14.084  35.687  14.770
41318W        W12847   3.851  21.113  10.409
41319W        W12848  24.532  10.093   3.325
41320W        W12849  27.514   1.422  13.482
41321W        W12850  30.410  37.046   0.101
41322W        W12851  22.187  29.916  13.883
41323W        W12852  35.242  33.995  12.058
41324W        W12853  42.855  16.865   1.619
41325W        W12854  12.132  24.615   2.343
41326W        W12855  38.526  32.568  13.660
41327W        W12856  28.710  11.911  11.525
41328W        W12857  27.089  29.268  12.495
41329W        W12858  18.098   5.386   2.296
41330W        W12859  32.678   6.227   2.086
41331W        W12860  16.837   9.318  13.778
41332W        W12861  27.713   9.531   2.773
41333W        W12862  33.144  43.336  11.609
41334W        W12863  31.520  25.487  13.023
41335W        W12864  38.367  30.711   1.471
41336W        W12865  40.365  35.483   1.717
41337W        W12866   2.656  19.674   3.629
41338W        W12867  43.492  39.089   2.190
41339W        W12868  24.186  44.554  11.904
41340W        W12869  27.911  13.686  11.121
41341W        W12870  35.979  42.470   4.780
41342W        W12871  43.165  26.585  12.811
41343W        W12872  29.433   2.782   3.152
41344W        W12873  27.292  26.726  13.426
41345W        W12874   2.137  24.700   4.202
41346W        W12875  20.699  41.735   3.600
41347W        W12876  24.634  23.996  12.362
41348W        W12877   6.348  26.475   3.350
41349W        W12878  10.798  21.060  12.123
41350W        W12879  32.285  29.943   0.208
41351W        W12880  26.545   0.719   2.853
41352W        W12881  14.300   7.266   0.742
41353W        W12882  34.131  33.858   2.143
41354W        W12883  38.070   3.345  11.543
41355W        W12884  21.800  13.320   2.823
41356W        W12885  41.129  28.628   0.840
41357W        W12886  34.132  21.614  14.004
41358W        W12887  16.891  36.599   1.440
41359W        W12888   2.393   9.254   2.925
41360W        W12889  38.902  26.513   4.968
41361W        W12890  18.455  39.878   4.681
41362W        W12891  19.502  38.358  14.889
41363W        W12892  44.586  19.939   4.087
41364W        W12893  24.585  25.113  10.677
41365W        W12894  42.448   7.166  10.798
41366W        W12895  27.221  28.186  11.079
41367W        W12896  12.091  42.243   1.619
41368W        W12897  30.511  43.998  10.662
41369W        W12898  39.201  43.953   2.958
41370W        W12899  23.217  12.562   1.559
41371W        W12900   9.843  33.587   2.726
41372W        W12901  21.361  20.937  11.905
41373W        W12902   0.483  32.119   0.468
41374W        W12903  42.985  35.570   3.924
41375W        W12904  14.248   4.707  10.362
41376W        W12905  37.299  16.807   4.970
41377W        W12906  30.996  30.241   1.601
41378W        W12907   3.602  29.520  10.281
41379W        W12908  36.139  25.682   1.981
41380W        W12909   0.950  41.954  13.463
41381W        W12910  32.086  30.086  11.028
41382W        W12911  39.420  26.074  11.927
41383W        W12912  26.048  15.808  11.699
41384W        W12913  18.863  19.358   4.806
41385W        W12914  27.500  33.160   2.792
41386W        W12915  44.819  19.063  13.035
41387W        W12916  15.384  14.999  11.475
41388W        W12917  19.205  43.912   3.287
41389W        W12918  11.903  43.201   1.037
41390W        W12919  19.587  42.072  12.205
41391W        W12920  13.576  40.315  11.612
41392W        W12921  16.690  33.454   4.591
41393W        W12922  24.524  20.903   4.112
41394W        W12923  14.292  29.453   4.547
41395W        W12924   8.253  19.169   2.689
41396W        W12925  41.646  38.284   0.490
41397W        W12926  11.802  20.033  12.630
41398W        W12927   4.716  14.130  12.443
41399W        W12928  38.752  28.566   4.585
41400W        W12929   3.783  22.821   3.346
41401W        W12930  18.866   1.077  13.328
41402W        W12931  31.685  22.737   3.696
41403W        W12932  21.962  23.775  13.070
41404W        W12933  16.873  38.968   2.247
41405W        W12934  28.093  19.851  13.793
41406W        W12935  34.005  41.041  10.685
41407W        W12936  32.104  22.639  13.025
41408W        W12937  10.241  28.432   2.296
41409W        W12938  13.312  36.980   4.115
41410W        W12939  33.052  41.752  12.944
41411W        W12940  33.270  26.928  12.424
41412W        W12941  12.838  35.659   1.468
41413W        W12942  20.746  42.304  11.700
41414W        W12943  14.686  41.472  12.564
41415W        W12944  31.173   5.875  11.934
41416W        W12945  11.576  28.049  11.992
41417W        W12946  26.798  16.006  11.962
41418W        W12947  24.511  31.886  12.343
41419W        W12948  12.808   8.205   0.906
41420W        W12949  14.051   8.734   3.259
41421W        W12950  14.072  23.988   3.858
41422W        W12951   0.509  12.528  10.641
41423W        W12952  25.292  38.069  12.189
41424W        W12953  44.413  18.249  12.621
41425W        W12954   2.496  39.961   4.520
41426W        W12955  22.936  34.467  12.971
41427W        W12956  28.229  18.070   2.564
41428W        W12957  25.223  27.607  14.364
41429W        W12958  38.085  14.211   2.331
41430W        W12959   7.582  11.963  13.850
41431W        W12960   9.473  12.969  10.747
41432W        W12961  20.302  30.856  13.371
41433W        W12962   8.989   3.691  12.879
41434W        W12963  42.516   9.100  14.656
41435W        W12964  38.916   5.881  12.792
41436W        W12965  13.522  44.129  13.077
41437W        W12966  27.350   1.229   0.268
41438W        W12967  36.369   9.964   1.749
41439W        W12968  19.253  39.148  13.880
41440W        W12969  41.067   7.174   4.126
41441W        W12970  29.035   8.361  10.537
41442W        W12971  30.611  43.052  12.979
41443W        W12972  26.873   1.107  11.241
41444W        W12973  29.473  19.761  11.146
41445W        W12974  44.767   9.240  12.472
41446W        W12975  34.231  20.436   0.480
41447W        W12976   9.933  31.835  11.095
41448W        W12977  35.907  18.848  13.761
41449W        W12978  32.943  11.253   0.163
41450W        W12979  21.759   8.110   0.366
41451W        W12980  21.649  44.562  13.963
41452W        W12981  23.268  14.330   2.929
41453W        W12982  14.668   3.508   2.406
41454W        W12983  30.811  11.163   2.711
41455W        W12984  20.576  10.835  12.440
41456W        W12985  27.629  22.723  14.013
41457W        W12986   8.846  22.113   2.936
41458W        W12987  34.504  14.373   4.036
41459W        W12988   9.290  10.155  13.571
41460W        W12989   0.742  36.081  13.016
41461W        W12990  21.455  30.297  12.955
41462W        W12991  29.967  25.230  12.807
41463W        W12992  15.633  14.689  12.837
41464W        W12993   0.990  18.546   2.947
41465W        W12994  18.975   6.159  12.222
41466W        W12995  24.610  21.311   1.824
41467W        W12996  22.361  33.578  11.909
41468W        W12997  30.409  39.090  11.109
41469W        W12998  12.220   2.495  12.616
41470W        W12999  36.439  37.548  11.096
41471W        W13000  13.397  37.837   0.883
41472W        W13001  27.465  42.399   0.754
41473W        W13002  22.234  22.706   3.829
41474W        W13003  10.291  13.246  13.547
41475W        W13004  28.070  28.658   2.782
41476W        W13005  27.328  35.218   4.987
41477W        W13006  43.921  29.035  14.140
41478W        W13007  32.323  10.459  11.626
41479W        W13008  34.270  18.576   3.369
41480W        W13009  29.663  38.409  11.112
41481W        W13010   7.224   8.752   1.072
41482W        W13011  13.826  20.784   9.619
41483W        W13012  28.040  38.159  12.564
41484W        W13013  29.170  32.405   3.801
41485W        W13014  11.258   3.840  14.362
41486W        W13015  44.561  41.424   3.869
41487W        W13016  21.222  20.915  14.182
41488W        W13017   5.161   1.350   3.892
41489W        W13018  37.864  37.105   1.119
41490W        W13019  37.531  16.420  10.740
41491W        W13020  13.887  43.022  12.015
41492W        W13021  40.311   3.059  11.562
41493W        W13022  20.298  12.273  11.680
41494W        W13023  35.425  13.107   2.275
41495W        W13024  19.112  21.657   9.707
41496W        W13025  31.594  34.958  14.823
41497W        W13026  26.484  37.923   0.120
41498W        W13027  42.546  40.427  12.575
41499W        W13028   9.262  21.905  13.909
41500W        W13029   3.092  36.073   0.638
41501W        W13030  43.853   6.177  14.954
41502W        W13031  27.144  35.388   0.378
41503W        W13032   7.809  11.184  13.368
41504W        W13033  24.718  34.853   2.324
41505W        W13034   0.637  17.127   3.779
41506W        W13035   2.574  27.253  10.591
41507W        W13036  19.207  26.543   3.569
41508W        W13037   1.526  14.785   2.125
41509W        W13038  24.050  43.583   1.792
41510W        W13039  17.232  35.292  14.635
41511W        W13040  35.388   8.738   2.809
41512W        W13041  13.506  31.069   3.358
41513W        W13042  34.368  44.879   1.363
41514W        W13043  35.054  41.474  13.789
41515W        W13044   4.000   6.815   0.335
41516W        W13045  13.978   9.231   3.133
41517W        W13046  24.233  36.840  10.435
41518W        W13047  30.370   2.612   4.156
41519W        W13048  15.574  37.117   0.970
41520W        W13049  25.599  29.465   3.747
41521W        W13050  28.249  21.007   4.254
41522W        W13051   1.888  10.902   1.301
41523W        W13052  29.900   6.961  13.976
41524W        W13053  32.621  44.016   2.808
41525W        W13054  44.563  24.211   0.889
41526W        W13055  37.844  18.795   4.581
41527W        W13056  31.656  20.325   3.926
41528W        W13057  16.058   1.007   4.575
41529W        W13058   0.198   1.799   4.628
41530W        W13059  27.902  10.874  10.107
41531W        W13060  11.031  29.217  12.727
41532W        W13061  17.877  28.381  12.441
41533W        W13062  24.928  42.786  14.287
41534W        W13063   4.052  42.361  13.827
41535W        W13064  40.268  43.441  11.544
41536W        W13065  36.830  36.842   3.198
41537W        W13066   7.842  13.359   0.780
41538W        W13067  28.897  28.629  12.413
41539W        W13068  16.003  41.958  14.645
41540W        W13069  38.850  28.856   2.808
41541W        W13070  35.898  29.198  11.597
41542W        W13071  31.261  43.945   3.293
41543W        W13072  30.716  20.654   1.963
41544W        W13073   5.410   9.762   3.316
41545W        W13074   0.011  20.993   0.216
41546W        W13075  22.642  35.549   5.054
41547W        W13076  32.461   0.785  14.963
41548W        W13077  20.310  43.904  13.562
41549W        W13078  13.779  12.816   2.137
41550W        W13079  21.164  38.642  12.500
41551W        W13080  31.923  40.850  13.985
41552W        W13081  40.956  35.325   0.206
41553W        W13082  14.666  29.553   0.282
41554W        W13083   8.344  23.517  11.820
41555W        W13084   1.666   6.891   2.695
41556W        W13085  19.165  32.263  12.624
41557W        W13086  10.802  36.842   4.749
41558W        W13087   5.222  26.935  13.939
41559W        W13088  28.959  44.805  10.691
41560W        W13089  29.357  19.715   0.829
41561W        W13090  39.851  32.304   0.882
41562W        W13091   0.374   5.851  12.593
41563W        W13092   6.249  26.670  10.726
41564W        W13093   6.929  23.422  12.000
41565W        W13094  35.526  25.319  11.767
41566W        W13095   8.398   9.751  13.824
41567W        W13096  20.541  35.791   2.301
41568W        W13097   6.765  37.995   3.584
41569W        W13098   2.975   7.908  14.334
41570W        W13099   9.817  18.950   1.949
41571W        W13100  17.262  41.311   1.213
41572W        W13101   9.389  44.147   3.924
41573W        W13102  12.180  13.584   2.710
41574W        W13103   4.350   8.239   0.505
41575W        W13104  39.026  35.503   3.190
41576W        W13105  38.847  20.651  13.593
41577W        W13106  33.967  24.568  11.113
41578W        W13107  17.622  29.118  12.935
41579W        W13108  27.759  12.569   4.076
41580W        W13109   1.115  25.737  14.326
41581W        W13110   4.888  34.255  10.744
41582W        W13111  17.831  32.115  12.638
41583W        W13112  12.998  21.314  14.068
41584W        W13113  24.708  12.458  12.969
41585W        W13114  41.856  14.727  10.649
41586W        W13115   0.428  15.006   3.659
41587W        W13116  21.098  27.123  12.978
41588W        W13117  27.162  37.830  13.459
41589W        W13118  29.133  37.112   3.657
41590W        W13119  10.011  18.739   2.887
41591W        W13120   2.237  32.547   1.681
41592W        W13121  42.957  18.332   1.390
41593W        W13122  14.786   4.295   3.080
41594W        W13123  39.516  26.374   0.382
41595W        W13124  20.155  36.932  14.859
41596W        W13125  44.068  15.760  14.903
41597W        W13126  32.462  33.147   4.639
41598W        W13127   3.730  16.807   3.204
41599W        W13128   9.396   9.645  13.562
41600W        W13129   6.931   6.870   0.024
41601W        W13130   3.763  26.518   4.065
41602W        W13131  32.706  12.301   4.017
41603W        W13132  41.684   6.534  11.108
41604W        W13133  41.527  17.668  11.587
41605W        W13134  43.939  33.412   1.345
41606W        W13135  37.354  26.233   1.393
41607W        W13136   9.818  24.656  11.653
41608W        W13137  16.528  32.957  12.670
41609W        W13138  41.894   0.772   4.734
41610W        W13139  18.669  41.078  10.256
41611W        W13140   2.419  21.051  14.798
41612W        W13141  13.375   4.598   4.537
41613W        W13142  39.514  36.991   3.607
41614W        W13143  29.678  11.370   2.418
41615W        W13144  32.876  13.455  14.456
41616W        W13145   6.238   6.872  13.386
41617W        W13146  36.619  25.150  11.104
41618W        W13147  20.081   9.661   1.467
41619W        W13148  26.738  26.453   1.880
41620W        W13149   1.424  37.280   0.863
41621W        W13150  13.774   9.265   0.283
41622W        W13151  41.583   8.880  11.164
41623W        W13152  26.397  35.965  11.486
41624W        W13153   6.115  23.694  10.379
41625W        W13154  15.345  13.291  11.574
41626W        W13155  36.091  26.719   1.218
41627W        W13156  21.178   2.175   2.391
41628W        W13157  10.563  29.583  10.686
41629W        W13158   1.258  37.415  14.890
41630W        W13159  23.262  30.982  12.498
41631W        W13160   0.720  40.822   3.221
41632W        W13161   9.922  33.743  11.146
41633W        W13162  14.095   8.635  12.400
41634W        W13163  18.648  40.753   3.821
41635W        W13164  40.771   8.613   3.984
41636W        W13165  12.062  33.101   2.446
41637W        W13166  40.945  38.874  14.460
41638W        W13167   6.455  12.916   4.154
41639W        W13168  16.163   1.553  10.937
41640W        W13169  31.014  25.340   3.190
41641W        W13170  24.871  16.134  14.687
41642W        W13171   9.243  30.602   0.911
41643W        W13172  24.496  33.831  13.888
41644W        W13173   9.212  39.521  10.411
41645W        W13174   8.493  31.285  10.692
41646W        W13175   5.825  30.985   4.979
41647W        W13176  44.992  42.598  14.887
41648W        W13177   0.337  25.709   1.991
41649W        W13178  12.271  32.261   2.143
41650W        W13179   0.400  31.801  10.241
41651W        W13180  31.467  23.071  10.342
41652W        W13181  11.535  18.660   2.779
41653W        W13182  39.018   6.116  11.670
41654W        W13183   6.361  41.063   2.261
41655W        W13184  37.466  36.535   4.595
41656W        W13185  24.929   1.057   3.685
41657W        W13186   9.251  40.929  14.032
41658W        W13187  25.541  42.361  12.890
41659W        W13188  21.362   7.634   0.478
41660W        W13189  40.964  18.084   2.608
41661W        W13190  39.339   3.390  14.753
41662W        W13191  34.866  10.602  11.056
41663W        W13192   8.285   1.781   1.365
41664W        W13193  27.018  32.068  10.728
41665W        W13194  21.819  15.206   0.643
41666W        W13195  24.264  40.800   9.901
41667W        W13196  17.396   9.805  13.533
41668W        W13197  20.100   0.299   3.587
41669W        W13198  37.782  38.908  11.135
41670W        W13199  24.929  38.137  11.497
41671W        W13200  42.718  10.829  12.912
41672W        W13201  23.114  44.030   3.723
41673W        W13202  12.885   6.385   3.777
41674W        W13203  38.014  11.807   1.232
41675W        W13204  20.895  10.122   0.896
41676W        W13205  28.508  35.402   0.013
41677W        W13206   6.809  24.601   0.433
41678W        W13207  11.969  33.781   4.811
41679W        W13208  23.647  41.285   3.230
41680W        W13209  25.463  19.763   1.791
41681W        W13210  41.198  43.023  12.883
41682W        W13211  25.585  16.226   2.742
41683W        W13212  17.349   5.287   2.727
41684W        W13213  43.559   6.657   1.293
41685W        W13214   1.842  25.482   0.951
41686W        W13215  23.751  44.310  12.494
41687W        W13216  13.785  39.041   1.531
41688W        W13217  34.857  41.408  14.866
41689W        W13218  38.743   6.774   4.595
41690W        W13219  35.520  41.595  14.352
41691W        W13220  16.309   9.028  11.630
41692W        W13221  19.476  33.383  14.539
41693W        W13222  39.989  33.957   0.803
41694W        W13223  29.700  18.037   1.213
41695W        W13224   1.877  38.496   3.338
41696W        W13225  24.605   0.372  11.979
41697W        W13226   0.923  43.559  12.104
41698W        W13227  23.177  26.784  14.465
41699W        W13228  33.410  39.491  11.866
41700W        W13229   5.760  35.116  14.421
41701W        W13230  39.806   1.138  14.365
41702W        W13231  23.938   2.348   5.135
41703W        W13232  38.868  14.298   0.908
41704W        W13233  23.884  42.262  11.131
41705W        W13234   3.023   5.262   2.671
41706W        W13235  23.702  26.256   2.556
41707W        W13236  19.282  37.386  13.724
41708W        W13237  24.480   1.841   2.330
41709W        W13238  40.118  16.642   2.229
41710W        W13239  11.181  23.770   0.159
41711W        W13240  21.853  37.133   2.676
41712W        W13241  44.728  14.916   0.744
41713W        W13242  22.245  16.564  12.530
41714W        W13243  34.131  26.000   1.867
41715W        W13244  36.865  34.146   0.955
41716W        W13245  16.234  22.908   3.748
41717W        W13246  29.994  27.653   0.270
41718W        W13247  36.541  24.740  11.414
41719W        W13248  30.536  20.124  13.639
41720W        W13249  22.509  10.833  11.331
41721W        W13250  40.516  20.864  13.343
41722W        W13251   4.724  35.379   3.173
41723W        W13252   4.734  23.603   3.163
41724W        W13253  15.142  20.499  11.359
41725W        W13254  20.486  28.859   0.323
41726W        W13255  32.475  12.371   2.639
41727W        W13256  40.435  39.196  12.335
41728W        W13257   6.260  26.041   1.312
41729W        W13258   0.587  20.916   2.378
41730W        W13259  20.118  11.071   1.326
41731W        W13260  20.636  10.349   2.541
41732W        W13261  16.736  25.687   2.881
41733W        W13262  10.181  40.265   2.434
41734W        W13263  29.991  19.145   4.370
41735W        W13264   0.802  30.887   2.853
41736W        W13265   0.783   1.894  14.332
41737W        W13266  17.010   2.690  14.177
41738W        W13267  44.561  31.982   1.153
41739W        W13268  27.920  36.689  13.457
41740W        W13269  12.697  21.446   0.397
41741W        W13270  19.812  43.263  11.428
41742W        W13271  20.045   0.953   2.855
41743W        W13272  18.115   0.962   2.653
41744W        W13273  24.469  16.600  11.255
41745W        W13274  34.633  10.120  14.788
41746W        W13275  16.869  29.847   2.032
41747W        W13276  40.109  20.049  14.040
41748W        W13277   5.432   5.828   0.822
41749W        W13278  33.478  42.902  13.500
41750W        W13279   2.964  12.759  12.939
41751W        W13280  35.565   1.987  11.133
41752W        W13281   2.442  15.945  11.577
41753W        W13282   1.420  37.889   4.584
41754W        W13283  36.581  43.363   3.176
41755W        W13284  23.079  43.228  13.893
41756W        W13285  27.254  18.200   2.310
41757W        W13286  43.598  23.185  11.178
41758W        W13287  44.518  29.168  12.542
41759W        W13288   7.254  24.502  11.921
41760W        W13289  28.705   9.317  14.014
41761W        W13290   7.964  31.221  10.757
41762W        W13291  10.043  27.066  11.070
41763W        W13292  24.772  11.940  12.950
41764W        W13293  21.137  24.870   1.515
41765W        W13294   3.402   1.361  14.491
41766W        W13295   2.203   6.865  14.967
41767W        W13296  11.960  25.309  10.311
41768W        W13297  42.778   4.728   1.630
41769W        W13298  42.760   0.153  12.885
41770W        W13299  20.579  26.171  12.891
41771W        W13300  13.168  35.012  13.741
41772W        W13301   6.022  16.214   5.460
41773W        W13302  15.004  11.819   4.597
41774W        W13303   3.311   2.199   3.167
41775W        W13304   1.663  15.453   1.466
41776W        W13305  10.638  10.334   0.570
41777W        W13306  40.343  16.656   1.330
41778W        W13307  36.095  14.867  10.742
41779W        W13308  42.024  32.591   0.225
41780W        W13309  36.018  16.841  11.909
41781W        W13310  24.871  10.770   1.779
41782W        W13311  28.027  12.574  12.055
41783W        W13312  18.130  13.323   2.878
41784W        W13313  37.345  18.988   2.781
41785W        W13314   5.699   5.789   2.623
41786W        W13315   4.973   4.483   4.197
41787W        W13316  17.055  19.149   3.432
41788W        W13317  32.338  25.734   0.298
41789W        W13318  16.345  16.708  11.192
41790W        W13319  14.091  10.943   2.805
41791W        W13320  35.820   8.177   0.146
41792W        W13321   4.925   6.334   1.802
41793W        W13322  17.295  27.935  10.316
41794W        W13323  28.578  37.294   4.573
41795W        W13324  13.345  41.040  14.340
41796W        W13325   7.110  38.451  13.901
41797W        W13326  17.022  26.190   4.419
41798W        W13327  12.349  42.779  12.936
41799W        W13328  20.962  19.130   4.609
41800W        W13329  28.763  44.310  12.994
41801W        W13330   2.416  36.353  12.833
41802W        W13331   6.271   1.365   4.835
41803W        W13332  14.617  38.060   1.401
41804W        W13333   8.101  38.673   3.414
41805W        W13334  29.030  33.056  10.701
41806W        W13335  29.734   9.392  13.891
41807W        W13336  28.086  34.114   0.422
41808W        W13337  35.948  13.370  13.797
41809W        W13338   8.731  24.772   2.277
41810W        W13339  15.754   7.247  12.437
41811W        W13340  27.572  24.573   0.302
41812W        W13341   8.136  33.892   3.238
41813W        W13342   7.802  23.068   2.357
41814W        W13343  25.691   3.226   2.887
41815W        W13344  24.315  31.426  14.057
41816W        W13345  18.631  20.094  11.958
41817W        W13346  18.529  28.248   0.459
41818W        W13347  27.907   1.167   4.623
41819W        W13348  10.794   2.229  14.390
41820W        W13349  32.162  36.602  11.076
41821W        W13350  14.801  39.928   3.404
41822W        W13351  35.826  28.459  10.758
41823W        W13352  43.751  23.582  13.848
41824W        W13353  43.083  43.074   4.930
41825W        W13354   5.944   1.517  11.107
41826W        W13355  29.392   8.760   4.493
41827W        W13356  34.451  41.814   3.746
41828W        W13357   4.932  20.081  14.811
41829W        W13358  41.183  26.452  11.123
41830W        W13359  39.940  29.568   3.194
41831W        W13360  35.099  16.757   2.855
41832W        W13361  20.986   9.822  12.460
41833W        W13362  38.129  19.055   3.281
41834W        W13363  14.534  18.612   0.335
41835W        W13364   9.456  32.051   2.605
41836W        W13365  35.522  11.252   4.925
41837W        W13366  26.374   1.499  12.084
41838W        W13367  31.884  35.266  13.527
41839W        W13368   3.547   7.254   4.282
41840W        W13369  31.738  12.811   1.187
41841W        W13370  40.574  34.659   3.128
41842W        W13371  27.064  32.940  12.439
41843W        W13372  15.075  15.009  12.521
41844W        W13373  40.360  22.250  12.013
41845W        W13374  18.118  44.576   2.238
41846W        W13375  16.593  31.580   4.345
41847W        W13376  11.761  14.408  12.073
41848W        W13377  10.385  15.079  14.376
41849W        W13378  28.946  19.314  11.609
41850W        W13379  24.494  30.077   1.863
41851W        W13380  41.456  32.214   2.744
41852W        W13381   4.919  23.423   0.397
41853W        W13382  19.012  24.082  11.995
41854W        W13383  20.643  12.110  12.035
41855W        W13384  35.712  42.264  11.723
41856W        W13385   8.144  14.295  11.113
41857W        W13386  30.917  38.475   1.748
41858W        W13387  19.589  15.946  12.499
41859W        W13388  32.105  41.839  10.497
41860W        W13389  27.931  16.655  11.589
41861W        W13390  25.446  27.191  11.603
41862W        W13391  26.076   9.658  12.126
41863W        W13392  41.949  40.189   0.460
41864W        W13393   0.775  22.033  13.356
41865W        W13394  27.571  23.653   1.885
41866W        W13395  31.342  37.199   1.675
41867W        W13396  37.635  18.929   1.086
41868W        W13397  38.087  11.690   2.702
41869W        W13398  32.101  10.114  11.325
41870W        W13399  21.338   3.837  12.276
41871W        W13400  31.151  13.617   0.030
41872W        W13401   5.715  26.559  12.708
41873W        W13402  11.185   4.129   0.190
41874W        W13403  14.126  27.359   2.751
41875W        W13404  43.976  17.369  11.672
41876W        W13405  39.603  21.797   0.714
41877W        W13406   2.523  41.493   2.627
41878W        W13407  42.156  28.002   1.535
41879W        W13408  16.320  22.535   1.184
41880W        W13409  20.115   8.312  12.214
41881W        W13410  11.261   5.825  14.468
41882W        W13411   5.283  32.956  11.094
41883W        W13412   6.711  12.284  12.394
41884W        W13413  19.101  32.661   2.783
41885W        W13414  19.249  12.149  14.962
41886W        W13415  38.918  24.223  13.450
41887W        W13416  23.077  38.515  13.396
41888W        W13417  16.112  42.703   3.173
41889W        W13418  16.053  44.830  10.612
41890W        W13419  11.205  30.137   1.852
41891W        W13420   2.863  23.953   4.351
41892W        W13421  43.637  29.992   2.808
41893W        W13422  29.545  30.550  10.726
41894W        W13423  36.475  40.735  14.364
41895W        W13424  12.213  31.932   4.084
41896W        W13425  33.679  11.388   2.795
41897W        W13426  24.719   6.660  12.781
41898W        W13427   3.428  34.072  11.860
41899W        W13428  20.701  15.314  14.387
41900W        W13429  22.679  17.109  11.108
41901W        W13430  14.785  19.663  10.230
41902W        W13431   1.746  12.392  12.121
41903W        W13432  28.364  43.481  14.321
41904W        W13433   5.462  18.155   2.651
41905W        W13434   9.641  11.755   1.014
41906W        W13435  40.923   3.505   5.042
41907W        W13436   0.769  21.230  10.838
41908W        W13437  10.905  18.764  12.391
41909W        W13438  42.869   8.104   3.208
41910W        W13439  17.077   1.698   4.240
41911W        W13440  37.584  23.122  10.688
41912W        W13441  27.841  35.158   3.040
41913W        W13442  11.843  21.945  11.506
41914W        W13443  44.450  21.660   2.734
41915W        W13444   6.791  13.950   3.120
41916W        W13445  29.781  34.311  11.209
41917W        W13446   1.442  32.413   2.118
41918W        W13447  24.503   7.148   0.791
41919W        W13448  31.096  19.047  13.768
41920W        W13449   4.356  16.712  12.962
41921W        W13450  44.799  14.634  11.870
41922W        W13451   3.507  36.863  14.314
41923W        W13452  17.313  28.017   0.835
41924W        W13453  30.016  39.088   1.120
41925W        W13454   6.241  28.696  12.655
41926W        W13455   9.978  43.872  13.294
41927W        W13456  39.324  34.052  10.432
41928W        W13457  34.998  38.125   3.602
41929W        W13458  33.284  21.141  11.293
41930W        W13459   8.706  21.337  14.269
41931W        W13460  34.432  22.703  11.939
41932W        W13461  25.775  38.492   2.844
41933W        W13462  23.532  28.845   3.304
41934W        W13463  27.056  30.672  12.699
41935W        W13464   5.026  21.006   0.320
41936W        W13465  44.232  31.269  13.417
41937W        W13466   1.603  26.035   0.425
41938W        W13467  44.797  25.605  12.636
41939W        W13468  42.406  35.011   2.895
41940W        W13469   4.339   7.109  11.174
41941W        W13470   2.837  19.405  12.147
41942W        W13471  24.278  27.747   2.902
41943W        W13472  15.157  40.887   2.634
41944W        W13473  15.505  11.065   1.522
41945W        W13474  43.672  18.187  14.315
41946W        W13475  34.937  23.283  11.735
41947W        W13476  42.098  32.973  13.543
41948W        W13477   6.489  34.477  12.991
41949W        W13478  21.711  41.054  12.123
41950W        W13479   4.251  26.317   0.811
41951W        W13480  17.168   9.681  11.615
41952W        W13481  42.895  35.837  11.180
41953W        W13482   9.151  35.584  11.197
41954W        W13483  29.845  32.207   1.342
41955W        W13484  24.984   7.333   4.983
41956W        W13485  13.812  38.842  12.501
41957W        W13486  20.514  15.715   1.802
41958W        W13487   4.754   4.429  14.452
41959W        W13488  35.911  17.723  12.511
41960W        W13489  31.594  25.062   0.274
41961W        W13490  40.331  18.071   0.902
41962W        W13491  19.199  36.559   1.797
41963W        W13492  13.458  29.172   0.775
41964W        W13493  18.454  36.121  10.851
41965W        W13494   3.507  14.267  14.342
41966W        W13495  21.148  24.041  10.474
41967W        W13496  15.983  26.720   1.718
41968W        W13497  25.890  29.164  11.655
41969W        W13498   1.736  13.720   0.375
41970W        W13499  11.726  29.641  14.690
41971W        W13500  41.309  14.249   0.799
41972W        W13501  11.629  14.839   1.719
41973W        W13502  33.000  37.381  13.837
41974W        W13503   6.386  31.954   4.543
41975W        W13504  35.376  12.393  14.333
41976W        W13505  33.560  31.079   1.075
41977W        W13506  33.473   9.306   2.661
41978W        W13507  37.004  39.030   4.575
41979W        W13508  13.428  25.164  10.251
41980W        W13509  14.273  36.194  12.921
41981W        W13510  24.733   3.971  12.032
41982W        W13511  17.552  16.217  13.854
41983W        W13512   4.123  28.049   0.377
41984W        W13513  44.236  15.260   0.062
41985W        W13514  13.570  32.955   0.303
41986W        W13515  14.675  30.520  12.575
41987W        W13516   4.529  41.916   1.778
41988W        W13517  31.423   6.250   4.300
41989W        W13518   4.739  39.961  14.007
41990W        W13519  36.029  22.209  11.489
41991W        W13520  39.460  37.007   2.759
41992W        W13521  36.463  40.883   3.325
41993W        W13522  30.573  19.963   0.851
41994W        W13523  41.919  38.364   1.446
41995W        W13524  13.254  28.523  12.875
41996W        W13525  25.165  34.476   4.654
41997W        W13526  29.161   1.723   0.448
41998W        W13527  13.311  13.925   1.971
41999W        W13528  22.813  36.953   1.002
42000W        W13529  38.558  22.468  13.115
42001W        W13530  10.996  38.908   0.354
42002W        W13531  26.668   6.093   4.278
42003W        W13532   0.291  21.796   3.324
42004W        W13533  25.502  22.648  12.073
42005W        W13534   9.894   6.244   4.603
42006W        W13535  30.518  14.228  11.588
42007W        W13536  27.117  38.417  12.358
42008W        W13537  32.231  14.677  11.415
42009W        W13538  25.178  42.777   2.357
42010W        W13539  19.204   8.461   0.309
42011W        W13540  26.829  30.985  13.635
42012W        W13541  32.130  30.751   3.700
42013W        W13542  33.952  37.349  11.502
42014W        W13543  44.572  21.488  14.434
42015W        W13544  41.475  38.597  12.017
42016W        W13545  35.634   4.264   3.702
42017W        W13546  33.511  29.521   0.020
42018W        W13547  33.779  29.098  11.086
42019W        W13548   7.277  25.065  10.823
42020W        W13549  40.094  29.206   1.440
42021W        W13550  12.219  20.682   4.196
42022W        W13551  24.177  18.100   4.054
42023W        W13552  32.726  28.137   2.692
42024W        W13553  36.459   8.677  11.634
42025W        W13554  24.562  28.685  11.184
42026W        W13555  30.763   4.429   4.324
42027W        W13556  10.310   4.218  12.909
42028W        W13557  40.724   9.432  11.571
42029W        W13558  17.073  43.877   3.857
42030W        W13559  11.810  35.058   2.653
42031W        W13560   6.747  26.849   0.234
42032W        W13561  42.459   8.857   4.323
42033W        W13562  32.459  36.788   3.295
42034W        W13563  11.965  19.243  12.377
42035W        W13564  20.819  33.009  10.923
42036W        W13565   8.367   2.804   2.314
42037W        W13566  21.444  33.545  11.632
42038W        W13567   4.807  43.785   1.766
42039W        W13568   2.723  20.090  12.017
42040W        W13569  17.746  11.761  14.374
42041W        W13570  36.788  24.596  12.674
42042W        W13571  21.543  35.574  12.050
42043W        W13572  37.943  43.862   1.738
42044W        W13573  15.253   0.470  10.706
42045W        W13574  32.424   5.369   1.351
42046W        W13575  27.414  11.865   1.385
42047W        W13576  37.567  35.502  13.415
42048W        W13577  38.009  21.556  14.337
42049W        W13578  29.051  40.343  12.842
42050W        W13579  18.867   8.179   3.624
42051W        W13580   9.779  36.382   3.260
42052W        W13581  24.225  14.217  12.608
42053W        W13582  12.265  30.449   2.290
42054W        W13583  43.312   1.815  13.033
42055W        W13584  12.193  34.954  10.903
42056W        W13585  23.802  43.290  13.490
42057W        W13586  36.608  30.178   3.384
42058W        W13587  14.818   2.574  12.031
42059W        W13588  35.814   0.226  13.880
42060W        W13589  15.771  30.905  11.007
42061W        W13590  43.349  15.313   0.385
42062W        W13591  15.923  19.083  10.045
42063W        W13592  37.282  37.021   4.293
42064W        W13593  25.512  27.083   4.529
42065W        W13594  22.111  18.569   3.220
42066W        W13595  14.344  24.103   2.148
42067W        W13596  28.003  27.690   5.061
42068W        W13597   5.527  36.884   0.014
42069W        W13598  16.321  20.303  13.955
42070W        W13599  15.720   1.722   1.292
42071W        W13600   9.191  32.031   4.597
42072W        W13601  44.105  41.300  10.288
42073W        W13602  23.968   9.396  14.020
42074W        W13603  36.585  21.086   3.688
42075W        W13604   2.496  44.535   2.333
42076W        W13605  20.807  41.378   0.885
42077W        W13606  44.347  18.038   1.778
42078W        W13607  16.667   8.280   3.779
42079W        W13608  39.604  44.738   3.752
42080W        W13609  21.026  27.886  12.110
42081W        W13610  17.689  22.704  11.012
42082W        W13611   8.299  11.082   2.256
42083W        W13612  42.340  12.842   2.295
42084W        W13613  41.415  13.798   0.546
42085W        W13614   8.625  40.933   1.592
42086W        W13615  21.216  35.642   4.703
42087W        W13616   8.375  36.706  14.158
42088W        W13617  24.527  22.128   1.238
42089W        W13618  29.900  13.439  11.531
42090W        W13619   8.257   8.528  11.341
42091W        W13620  35.123  27.530  12.587
42092W        W13621  30.505  17.508  12.551
42093W        W13622   3.446  11.070   1.212
42094W        W13623  13.618  36.434  11.228
42095W        W13624   3.439   8.155  11.218
42096W        W13625   6.692  42.390  12.661
42097W        W13626  12.766  10.607  13.973
42098W        W13627  13.691  19.377   3.824
42099W        W13628  27.628   7.465  13.894
42100W        W13629  17.220  19.049   2.259
42101W        W13630  23.152  30.791   4.259
42102W        W13631  33.648  22.032  13.617
42103W        W13632  29.353  13.924   2.371
42104W        W13633  37.460  42.664  14.434
42105W        W13634  35.519  41.012   1.958
42106W        W13635  34.525   8.366  13.891
42107W        W13636  19.648  27.633  12.128
42108W        W13637   1.733   4.397  11.118
42109W        W13638  35.981   3.966   4.793
42110W        W13639   4.187  34.756  12.546
42111W        W13640   4.619  37.517  12.984
42112W        W13641  23.505  22.154   3.658
42113W        W13642   4.779  25.984  14.510
42114W        W13643  20.834  39.780  13.637
42115W        W13644  24.747  40.950   0.262
42116W        W13645  16.569  44.463  14.896
42117W        W13646  36.211  28.746  13.371
42118W        W13647  28.361   1.319   0.335
42119W        W13648  36.384  11.659  10.952
42120W        W13649  32.696  40.936  13.488
42121W        W13650  26.703   6.206  13.569
42122W        W13651  29.346  11.597   1.835
42123W        W13652  41.950  24.668  12.411
42124W        W13653  19.273  12.276   2.297
42125W        W13654  30.731  27.397   3.670
42126W        W13655  32.058  18.047  10.403
42127W        W13656   7.696  19.348  11.680
42128W        W13657  12.926  21.218   1.317
42129W        W13658  33.625  24.995  13.524
42130W        W13659   2.524  33.059  10.616
42131W        W13660  19.394  29.432  12.212
42132W        W13661  34.582  37.646  12.497
42133W        W13662   9.138  17.878   0.288
42134W        W13663  27.516  20.045  10.672
42135W        W13664  44.445  28.469   3.833
42136W        W13665  23.092  38.762  12.933
42137W        W13666  18.671  22.552  14.290
42138W        W13667  12.331  33.423  10.387
42139W        W13668  32.423  39.000  12.328
42140W        W13669  44.002   4.338   1.318
42141W        W13670   9.205  20.209   1.467
42142W        W13671  33.509  11.112  11.177
42143W        W13672  42.295  18.039  14.593
42144W        W13673  38.892  23.613   0.833
42145W        W13674  31.529  41.292   1.515
42146W        W13675  25.188  38.577   3.731
42147W        W13676  21.060   2.480  14.260
42148W        W13677  30.548  33.709  12.569
42149W        W13678  34.364  12.881  12.357
42150W        W13679  42.432  38.294  12.070
42151W        W13680  22.480  12.733  13.851
42152W        W13681  44.172  22.550  13.048
42153W        W13682  25.529  32.363   1.299
42154W        W13683  38.571   3.857  12.008
42155W        W13684   8.252  42.286  10.675
42156W        W13685  13.360   6.124   0.901
42157W        W13686  37.275   0.363  13.566
42158W        W13687  39.592  13.763  14.287
42159W        W13688  38.049   9.702   4.587
42160W        W13689  36.315  36.927   3.314
42161W        W13690  19.746  38.547   2.594
42162W        W13691  15.848  43.259  13.526
42163W        W13692  30.556  10.046   1.686
42164W        W13693  24.474  12.275   3.652
42165W        W13694  44.671  14.319   3.741
42166W        W13695   7.500  44.452  14.031
42167W        W13696   8.033  12.347  11.086
42168W        W13697   8.657  30.126  11.545
42169W        W13698  32.058  33.407   2.432
42170W        W13699  23.717  10.341  14.854
42171W        W13700   7.486   7.376   5.137
42172W        W13701  13.436  44.940   0.975
42173W        W13702  19.278  34.309  12.609
42174W        W13703  17.023  32.352  11.201
42175W        W13704  15.631  20.712  12.098
42176W        W13705  13.753  28.999  10.946
42177W        W13706  33.464  13.736  12.459
42178W        W13707   8.102   2.917   4.233
42179W        W13708  25.648   9.324  11.489
42180W        W13709  34.532   4.483   0.770
42181W        W13710   7.480  10.778  14.270
42182W        W13711  20.003  41.629   4.062
42183W        W13712   7.389  32.127   0.358
42184W        W13713  17.569  17.186  11.523
42185W        W13714  16.102  21.526  12.006
42186W        W13715  20.632  23.427  11.939
42187W        W13716  44.895  11.300   1.881
42188W        W13717  17.096  20.929   2.793
42189W        W13718   3.320   1.353   4.865
42190W        W13719   2.435  44.447   3.693
42191W        W13720  36.031  22.582  13.111
42192W        W13721  19.522  38.021   1.700
42193W        W13722  21.695   7.432   2.243
42194W        W13723   6.776  10.125  12.445
42195W        W13724   6.367   7.439  10.774
42196W        W13725   3.161  42.922   4.735
42197W        W13726   9.406  15.304  13.026
42198W        W13727  12.221  17.399   3.665
42199W        W13728  24.989   5.991   0.430
42200W        W13729  35.175  19.853   2.672
42201W        W13730  12.829  38.563  10.878
42202W        W13731  35.600  26.102   3.128
42203W        W13732   8.393  26.615   2.728
42204W        W13733  24.216  38.959  13.424
42205W        W13734  25.075   3.014   1.815
42206W        W13735  43.225  12.888  13.006
42207W        W13736  15.320  38.333   4.294
42208W        W13737  38.089  28.838   0.250
42209W        W13738  39.867  31.691   2.310
42210W        W13739  10.245  34.156  11.166
42211W        W13740   9.747   2.672  12.518
42212W        W13741   3.022  12.259   4.036
42213W        W13742  20.400  40.833   3.703
42214W        W13743  20.968  20.179   1.591
42215W        W13744  29.916  34.561  14.100
42216W        W13745  26.390  39.054  14.378
42217W        W13746  44.326   9.168  14.440
42218W        W13747  13.791  23.153  10.767
42219W        W13748   4.251  12.077  12.993
42220W        W13749  13.641  42.248   2.140
42221W        W13750  21.210   7.624   4.257
42222W        W13751  35.760  44.586   3.229
42223W        W13752   2.847  29.445   0.467
42224W        W13753   4.205  13.130   0.009
42225W        W13754  42.075  23.549   4.917
42226W        W13755  29.807  24.934  14.747
42227W        W13756  30.108  21.980   3.171
42228W        W13757  16.174  33.361  10.534
42229W        W13758   8.132  29.434  10.293
42230W        W13759  35.766  29.127  13.343
42231W        W13760   6.433  33.868   3.863
42232W        W13761  28.101  14.707  11.055
42233W        W13762   3.358  24.319  14.405
42234W        W13763  26.889  23.486   4.109
42235W        W13764  15.556  29.600   2.889
42236W        W13765  25.189  15.812  14.979
42237W        W13766  41.574   2.470   1.173
42238W        W13767  12.821  16.273  13.592
42239W        W13768   6.914  27.387   2.628
42240W        W13769  10.362  32.680  12.595
42241W        W13770  29.630  16.648   0.970
42242W        W13771   6.276  12.778  11.652
42243W        W13772  22.667  34.731   2.734
42244W        W13773  37.080   9.692   4.544
42245W        W13774  44.220  22.818   1.804
42246W        W13775  12.597  16.073  14.022
42247W        W13776  10.522   0.701   1.072
42248W        W13777  37.630   0.220   2.727
42249W        W13778   8.950  38.074  14.819
42250W        W13779  14.962  34.089  13.990
42251W        W13780  19.000  33.124  11.066
42252W        W13781  28.462  15.752  12.350
42253W        W13782  37.610  39.089   0.214
42254W        W13783   3.827  38.386   0.924
42255W        W13784  44.422  11.250   4.741
42256W        W13785   3.866  41.358  11.644
42257W        W13786  40.343   3.916   3.246
42258W        W13787  44.504  16.177  13.453
42259W        W13788  14.311   4.949   2.863
42260W        W13789   0.130   1.679  12.194
42261W        W13790   3.504  17.672  11.507
42262W        W13791  21.470  44.019  11.043
42263W        W13792  37.153  41.806   4.153
42264W        W13793  22.368  19.570   1.766
42265W        W13794  41.485  44.474   3.561
42266W        W13795  43.630  23.917   9.654
42267W        W13796  32.801  25.994   0.268
42268W        W13797  36.908   2.734  12.373
42269W        W13798   7.714  30.444  14.333
42270W        W13799   3.326  11.771  14.059
42271W        W13800  10.621  36.292  12.923
42272W        W13801   4.685  10.855  10.614
42273W        W13802  21.579  17.729   0.823
42274W        W13803  31.084  18.125   2.813
42275W        W13804   6.193  16.359   2.471
42276W        W13805   5.304   8.673   2.314
42277W        W13806  26.972  27.960  14.485
42278W        W13807  42.536   4.235   2.268
42279W        W13808   1.429  39.309   4.669
42280W        W13809  22.510   8.349   4.234
42281W        W13810   2.471  21.595  12.373
42282W        W13811  28.275  31.133   1.437
42283W        W13812  35.413  24.900   1.282
42284W        W13813  12.954   6.943  11.140
42285W        W13814  39.487  10.676   3.255
42286W        W13815  40.219  43.487  10.546
42287W        W13816  34.561  11.825   3.660
42288W        W13817  18.674   4.967   1.216
42289W        W13818   6.198  17.144   4.117
42290W        W13819  22.664  19.154  14.852
42291W        W13820  43.073  28.556  11.696
42292W        W13821  25.650  23.421  10.716
42293W        W13822  17.243  25.155   4.604
42294W        W13823  30.730   4.227   4.796
42295W        W13824  28.796  44.430   0.410
42296W        W13825  37.484   2.528  10.751
42297W        W13826  36.752  11.106  12.958
42298W        W13827   3.891  26.980  14.640
42299W        W13828  38.395   2.586  11.135
42300W        W13829  16.816  20.737   3.854
42301W        W13830  35.393  15.154   3.335
42302W        W13831  10.063  39.115   4.172
42303W        W13832  27.070  14.943   3.274
42304W        W13833  33.511  34.494   1.729
42305W        W13834  19.763  44.708  10.607
42306W        W13835  27.967  24.266  14.061
42307W        W13836   4.418   4.722   2.261
42308W        W13837   5.223   2.642  14.017
42309W        W13838   7.856  11.815  14.588
42310W        W13839  12.785  43.472   0.010
42311W        W13840  19.421  28.677   0.378
42312W        W13841  21.834  43.741   4.113
42313W        W13842  27.342  24.785  14.906
42314W        W13843  18.145  35.857   3.700
42315W        W13844  16.166  11.765  12.970
42316W        W13845  14.861  20.044  12.964
42317W        W13846  11.074  30.349  12.094
42318W        W13847  28.183   7.312  14.700
42319W        W13848  37.059   4.054   0.016
42320W        W13849  30.307  37.932   0.396
42321W        W13850  39.202  14.102  12.831
42322W        W13851  36.499  11.886   2.433
42323W        W13852  11.271   3.772  13.341
42324W        W13853  41.436  23.126   2.178
42325W        W13854  34.729  34.636   0.544
42326W        W13855   3.821   6.282   1.721
42327W        W13856  42.020  39.538   1.666
42328W        W13857  35.132   8.797   4.677
42329W        W13858   6.994  21.742  11.387
42330W        W13859  24.095  23.999   4.033
42331W        W13860  38.605   5.901  10.988
42332W        W13861  36.870   0.680  10.300
42333W        W13862   4.396  41.239   1.839
42334W        W13863   4.577  22.466   4.504
42335W        W13864  19.807   2.772   3.269
42336W        W13865  14.238  30.529   2.139
42337W        W13866  15.689  32.063   0.538
42338W        W13867   8.607  20.380  14.691
42339W        W13868   4.958  21.651   4.316
42340W        W13869  10.794  16.544  12.520
42341W        W13870  27.396  44.886   1.489
42342W        W13871   8.832  19.299  11.876
42343W        W13872  14.744  26.075   3.214
42344W        W13873  44.973  38.505  14.816
42345W        W13874  44.362  24.694   3.431
42346W        W13875  12.876   4.681   3.707
42347W        W13876  37.764  27.931  11.199
42348W        W13877  10.882  10.417   2.295
42349W        W13878  18.714  19.848   4.637
42350W        W13879   8.102  44.582  10.886
42351W        W13880  44.233  21.571  11.588
42352W        W13881  13.964  17.793  11.074
42353W        W13882  16.473  11.661   4.520
42354W        W13883  26.392  20.922   4.668
42355W        W13884  18.784  40.860   4.611
42356W        W13885  32.598  17.233   2.485
42357W        W13886  14.032  41.479   3.750
42358W        W13887  15.938  11.268  14.431
42359W        W13888   5.094   2.129  13.956
42360W        W13889  27.706  20.084  12.860
42361W        W13890  16.170  39.984   3.131
42362W        W13891  25.967  26.201  14.337
42363W        W13892  12.226  11.363   3.129
42364W        W13893  41.073   8.199   4.040
42365W        W13894   2.157  22.079   1.005
42366W        W13895  25.637  20.012   2.205
42367W        W13896  34.743  34.828  12.927
42368W        W13897  10.203  20.278  10.582
42369W        W13898  44.880  33.356  12.067
42370W        W13899  19.595  30.411  12.053
42371W        W13900  27.121  10.369   2.412
42372W        W13901  31.904  23.102  12.980
42373W        W13902  39.935  10.832  12.970
42374W        W13903  25.930   2.858   0.267
42375W        W13904   2.715  16.241   3.661
42376W        W13905  23.600  21.124  14.521
42377W        W13906   7.682   5.508  12.926
42378W        W13907  15.574  25.787   5.166
42379W        W13908  12.745   0.567  12.994
42380W        W13909  18.568   6.143   2.627
42381W        W13910  42.917  12.906   4.545
42382W        W13911  28.119  31.381  13.343
42383W        W13912  18.670  31.874   2.832
42384W        W13913   9.806  26.942   4.794
42385W        W13914  36.399   4.469  14.594
42386W        W13915  23.343   9.549  11.669
42387W        W13916   6.711  34.866  12.007
42388W        W13917  14.574   5.932   4.482
42389W        W13918  11.674   5.831  14.186
42390W        W13919  13.560  24.070   3.849
42391W        W13920   8.901   5.730   1.063
42392W        W13921   0.298  19.684   1.736
42393W        W13922  11.691   5.239   1.549
42394W        W13923  19.988   8.283   0.758
42395W        W13924  13.137  44.771   3.686
42396W        W13925   1.859  26.464   3.618
42397W        W13926   9.419  38.436   4.693
42398W        W13927  14.571  29.138   2.511
42399W        W13928  35.483  35.644   1.685
42400W        W13929  13.354  22.505  14.773
42401W        W13930   2.267   2.276   2.014
42402W        W13931  20.132   4.801  13.501
42403W        W13932  30.165  30.684   0.467
42404W        W13933  17.741  24.239   2.205
42405W        W13934  29.902   4.171  10.933
42406W        W13935  26.898  10.098  11.118
42407W        W13936  13.008  42.518   1.373
42408W        W13937  28.058  17.167   0.856
42409W        W13938  40.769  42.938   3.092
42410W        W13939  20.707  43.429  12.544
42411W        W13940  38.896   4.209  14.879
42412W        W13941  39.905  25.768   4.247
42413W        W13942   6.712  16.982  14.216
42414W        W13943  37.028  25.921   1.713
42415W        W13944  24.037   7.711   1.246
42416W        W13945   1.257  18.060   4.266
42417W        W13946  12.799   3.241  14.291
42418W        W13947  17.022  39.850  11.156
42419W        W13948  17.934  42.221   4.128
42420W        W13949  30.768  10.144  11.464
42421W        W13950   6.349   5.141  13.724
42422W        W13951   6.034   8.438   4.178
42423W        W13952  12.774   7.798  11.211
42424W        W13953  38.887   1.829   2.283
42425W        W13954  15.409  23.095   0.787
42426W        W13955  21.580  32.516   1.955
42427W        W13956   6.694  12.366   4.412
42428W        W13957  10.662  35.825  13.159
42429W        W13958  39.682  34.354   1.362
42430W        W13959  26.718  34.311  10.827
42431W        W13960  34.920   1.765   4.250
42432W        W13961  22.236  26.052   3.927
42433W        W13962  37.034  22.010  10.726
42434W        W13963  38.786  35.473   3.659
42435W        W13964  39.243  21.745  12.267
42436W        W13965  18.047  33.083   1.464
42437W        W13966   0.385  38.458   0.148
42438W        W13967  15.069  30.720  13.154
42439W        W13968   4.194   4.682  11.676
42440W        W13969  17.672  34.983  14.468
42441W        W13970  16.336   5.110   3.830
42442W        W13971   7.822  18.673  14.421
42443W        W13972  39.623  30.492   2.806
42444W        W13973  41.129  34.984   3.591
42445W        W13974  29.619  16.822  10.281
42446W        W13975  44.334  40.567   4.157
42447W        W13976   8.761  20.034   4.633
42448W        W13977  16.502  41.862  10.977
42449W        W13978   2.524   8.760  11.179
42450W        W13979  24.463   2.846   0.201
42451W        W13980  19.506  23.896   1.413
42452W        W13981  13.622  31.999  13.795
42453W        W13982  43.113  29.618  10.634
42454W        W13983   9.707  35.532  13.087
42455W        W13984   4.627  44.947   2.965
42456W        W13985  30.728  25.436  10.951
42457W        W13986  37.599  15.330   3.331
42458W        W13987  39.938  44.799  14.422
42459W        W13988  21.619  23.107   4.501
42460W        W13989   5.758  19.200  14.478
42461W        W13990  21.031  36.428   0.756
42462W        W13991   0.422  36.838  13.662
42463W        W13992  44.788  15.273   4.650
42464W        W13993  39.622  28.899   4.614
42465W        W13994   9.317   7.904  11.578
42466W        W13995  13.413  28.060  14.831
42467W        W13996   3.098  29.244  12.426
42468W        W13997  28.640  20.229  13.533
42469W        W13998   8.960  34.999   0.647
42470W        W13999  26.418  39.999  12.257
42471W        W14000  36.093  43.022  10.623
42472W        W14001  25.608  23.985   1.278
42473W        W14002   7.300  26.744   3.650
42474W        W14003   4.307  15.842   1.241
42475W        W14004  33.736  42.332   0.101
42476W        W14005   8.774  40.600  11.228
42477W        W14006  23.947   9.383   4.126
42478W        W14007  40.499  15.128  12.976
42479W        W14008   1.059   1.456   1.794
42480W        W14009  17.037  17.653   1.871
42481W        W14010  38.116   1.762  10.814
42482W        W14011  36.566  42.551  11.972
42483W        W14012  19.704  11.277   2.238
42484W        W14013  15.182  14.336   2.829
42485W        W14014  34.136  44.902  11.111
42486W        W14015  11.387  34.858  14.327
42487W        W14016  33.990  15.131  13.817
42488W        W14017  43.805  37.517   5.059
42489W        W14018   2.763   6.126  11.487
42490W        W14019  26.934  32.687  11.514
42491W        W14020   6.142   1.050   3.179
42492W        W14021  31.955  19.296   3.699
42493W        W14022   2.805   9.573   0.926
42494W        W14023   1.385  41.902   2.603
42495W        W14024  44.311  30.448   0.938
42496W        W14025  18.839  19.154  12.434
42497W        W14026  15.767  28.364  14.906
42498W        W14027   7.139  10.466  14.479
42499W        W14028  43.487  15.088   0.863
42500W        W14029  36.019  42.549  12.095
42501W        W14030  35.824  27.185   4.883
42502W        W14031  12.896  27.976  14.863
42503W        W14032  44.844   9.924   1.280
42504W        W14033  42.169  14.322  13.392
42505W        W14034  43.347  42.489   4.116
42506W        W14035  11.274  17.147  10.745
42507W        W14036  10.857  24.825   4.633
42508W        W14037  10.929   0.970   0.904
42509W        W14038  17.901   7.396  11.604
42510W        W14039  43.682  32.926   0.772
42511W        W14040  30.483   1.286   0.731
42512W        W14041  24.914   4.199  11.590
42513W        W14042  33.078   2.830   0.894
42514W        W14043  27.356  35.479  13.072
42515W        W14044  35.502   8.359  11.164
42516W        W14045  17.353   2.378  13.937
42517W        W14046  40.228  11.168   0.469
42518W        W14047  19.831  40.751  13.393
42519W        W14048   5.672  23.606  11.259
42520W        W14049  10.866  35.319   3.703
42521W        W14050  41.900  24.479   0.763
42522W        W14051  21.272  27.410   0.298
42523W        W14052  11.608  32.026  13.996
42524W        W14053  28.539   1.697  11.356
42525W        W14054  33.861   4.011   3.775
42526W        W14055  20.454  27.178   2.211
42527W        W14056  24.765   3.788   0.388
42528W        W14057  31.855  44.042  14.809
42529W        W14058  25.607  27.251  11.131
42530W        W14059  26.405  11.430   2.699
42531W        W14060   7.813   2.046  13.151
42532W        W14061  36.998  38.986  13.749
42533W        W14062   2.273  10.279  14.932
42534W        W14063  44.880  30.024  10.689
42535W        W14064  42.785  13.289  11.431
42536W        W14065  18.670  36.205   1.724
42537W        W14066  41.413  20.270  10.699
42538W        W14067  25.063  33.677   3.728
42539W        W14068   8.044  30.452  10.393
42540W        W14069  19.800  21.554   2.445
42541W        W14070  41.431  13.639  13.439
42542W        W14071  12.125  34.079  13.026
42543W        W14072  37.868  44.834  12.559
42544W        W14073  16.132  35.898  10.729
42545W        W14074   0.155  41.385  11.110
42546W        W14075  25.582  32.646  10.679
42547W        W14076   7.824  41.911   4.754
42548W        W14077  39.326  22.656  14.895
42549W        W14078  10.679  44.848   1.711
42550W        W14079  41.829  23.125  11.504
42551W        W14080  28.159  36.360  12.058
42552W        W14081  11.081  12.536  10.739
42553W        W14082  37.389  32.043   0.655
42554W        W14083  42.318   8.642  14.949
42555W        W14084  39.269  42.763   2.291
42556W        W14085   2.840  28.012  12.385
42557W        W14086  36.009  15.906  13.076
42558W        W14087  22.479   2.637  11.056
42559W        W14088   4.943  44.252  13.651
42560W        W14089  34.453   0.368   4.262
42561W        W14090  11.364  26.750   3.047
42562W        W14091   0.012  42.752  12.537
42563W        W14092  25.644   3.508  11.645
42564W        W14093  19.987  30.234  14.299
42565W        W14094  19.869  14.811   4.100
42566W        W14095  42.312  28.552   2.025
42567W        W14096  11.411  15.665   1.323
42568W        W14097   0.339  39.473   0.260
42569W        W14098  32.708  41.811  13.403
42570W        W14099   3.687  23.231  14.010
42571W        W14100  44.787  27.522  13.335
42572W        W14101   5.163  27.765   3.696
42573W        W14102  24.990  19.741   2.695
42574W        W14103  19.138  26.908  12.514
42575W        W14104  28.205   6.037  12.407
42576W        W14105  14.869  20.847   1.411
42577W        W14106   1.243  22.153   0.020
42578W        W14107  13.377  30.349  11.391
42579W        W14108  10.269  36.926  13.902
42580W        W14109  26.529  41.250  14.444
42581W        W14110  18.708  19.514  10.911
42582W        W14111  29.642  20.842  14.888
42583W        W14112   0.795  32.658  13.581
42584W        W14113  27.445  32.318   4.053
42585W        W14114  14.604  33.470   0.991
42586W        W14115  34.284  43.691  12.144
42587W        W14116  39.003  25.720  13.786
42588W        W14117   8.707  36.300   0.317
42589W        W14118  15.446   0.423  12.480
42590W        W14119  36.401  42.817  11.002
42591W        W14120   2.982  19.824   2.287
42592W        W14121  28.396  23.582  11.442
42593W        W14122  12.790  27.706   0.318
42594W        W14123   9.156  10.324  10.671
42595W        W14124  32.367  36.528  14.984
42596W        W14125   1.929  34.735   4.113
42597W        W14126  15.596  38.722   4.572
42598W        W14127  41.900  18.423  13.541
42599W        W14128  10.125  23.432   2.060
42600W        W14129  15.743   3.096   3.619
42601W        W14130  43.862  13.687   0.870
42602W        W14131   7.585  13.448   3.313
42603W        W14132  41.419  33.813  11.173
42604W        W14133  36.350  16.830   3.858
42605W        W14134  20.066  21.787  12.987
42606W        W14135  26.380  15.589   1.296
42607W        W14136  18.067  33.000   3.876
42608W        W14137  11.726  43.530   3.749
42609W        W14138  20.490   1.439  14.374
42610W        W14139  43.016  14.881   5.099
42611W        W14140  23.149  13.628   2.814
42612W        W14141  30.601  15.712  14.329
42613W        W14142  30.533  19.388   2.952
42614W        W14143  41.456   1.823   1.439
42615W        W14144  42.226  32.910  12.378
42616W        W14145  17.348  11.731   4.381
42617W        W14146  15.228  30.102  12.133
42618W        W14147   6.897  31.072  14.347
42619W        W14148   0.279  17.582   4.643
42620W        W14149  27.206  12.853   2.291
42621W        W14150  18.612  20.137   0.339
42622W        W14151   3.964   2.295  10.012
42623W        W14152  41.374  38.856  12.476
42624W        W14153  21.478   5.943   2.351
42625W        W14154   3.218   9.307   3.270
42626W        W14155   2.841  40.006  12.434
42627W        W14156  18.295  30.156  12.527
42628W        W14157  20.987  15.144   2.465
42629W        W14158  40.055  35.558   0.577
42630W        W14159  37.073  40.079   4.569
42631W        W14160  41.776  41.478  12.437
42632W        W14161  42.476  26.434  13.473
42633W        W14162  41.676  29.914   3.128
42634W        W14163  36.069  10.518  10.311
42635W        W14164  39.911  31.968   4.359
42636W        W14165  11.370   4.786  11.598
42637W        W14166  20.008  44.369  11.652
42638W        W14167  27.418  22.757   2.879
42639W        W14168  28.163  30.005   2.445
42640W        W14169  17.775  37.132   1.297
42641W        W14170  31.009   2.438   0.297
42642W        W14171  32.342  13.196  10.364
42643W        W14172  16.497  14.864  14.691
42644W        W14173  37.051  12.882   1.227
42645W        W14174  43.445   4.916   2.752
42646W        W14175  16.283   5.288  14.820
42647W        W14176  15.575  39.914  11.997
42648W        W14177  17.365  14.371  10.784
42649W        W14178   0.056  28.563   3.217
42650W        W14179  42.840  17.118  13.370
42651W        W14180  28.307   4.325  11.907
42652W        W14181  14.777   9.666   1.758
42653W        W14182  43.808  32.785   4.884
42654W        W14183  29.099  41.484  13.033
42655W        W14184  27.926  13.630   2.338
42656W        W14185  25.223  26.880  12.455
42657W        W14186  27.086  42.033  12.135
42658W        W14187  34.812  36.817  13.956
42659W        W14188  31.665   5.927  12.064
42660W        W14189  37.187   3.807   4.021
42661W        W14190  35.028   9.347  11.457
42662W        W14191  28.604   3.409   3.684
42663W        W14192  26.061  11.070  11.369
42664W        W14193  18.085  36.603   0.806
42665W        W14194  20.925   8.820   4.631
42666W        W14195  30.884   4.974   1.201
42667W        W14196  13.078   3.532  12.493
42668W        W14197   3.491  35.327  13.438
42669W        W14198   4.190   8.748  14.788
42670W        W14199  12.778   2.533   1.429
42671W        W14200  18.080  21.070   3.696
42672W        W14201  15.961  15.342   0.326
42673W        W14202  40.712  16.228   2.383
42674W        W14203  28.623  35.352   4.842
42675W        W14204   5.691  38.015   1.733
42676W        W14205  36.859   7.672  12.135
42677W        W14206  43.805  34.621  11.617
42678W        W14207   5.823   5.198  12.954
42679W        W14208  28.023  18.839  14.440
42680W        W14209  39.721   7.902  12.050
42681W        W14210  14.479  15.545  13.792
42682W        W14211  29.635  23.128   1.299
42683W        W14212  27.340  40.448  12.956
42684W        W14213  17.760  39.761  11.484
42685W        W14214  33.530  29.703  13.004
42686W        W14215   0.318  21.092   2.839
42687W        W14216  22.484  10.647  13.062
42688W        W14217  24.150  28.229   1.960
42689W        W14218  20.013   2.714  11.229
42690W        W14219   2.837   9.339  14.028
42691W        W14220  40.731  19.519   3.740
42692W        W14221   6.980  25.486   4.077
42693W        W14222  36.796  33.624   3.756
42694W        W14223  29.722   6.967  11.374
42695W        W14224  26.056  39.403   0.051
42696W        W14225  21.624  10.831   1.283
42697W        W14226   5.353   4.158   2.373
42698W        W14227  18.055  23.955   4.953
42699W        W14228  15.744   7.560   9.867
42700W        W14229  24.164   8.943  11.587
42701W        W14230  39.718  32.178   2.920
42702W        W14231  37.830  37.630   0.327
42703W        W14232  29.942  39.659   4.621
42704W        W14233  20.769  32.179   0.762
42705W        W14234  26.417   3.528   1.108
42706W        W14235  11.425  11.128  11.613
42707W        W14236  44.532  25.731   0.748
42708W        W14237  22.595  34.047  13.017
42709W        W14238   2.805  35.056  13.639
42710W        W14239  13.561   7.300   0.304
42711W        W14240  44.270   3.281  11.531
42712W        W14241   3.433  23.770   0.401
42713W        W14242   4.039  43.899  14.435
42714W        W14243  11.156  13.745   4.462
42715W        W14244  39.855  12.285   4.910
42716W        W14245   6.409  39.817  11.665
42717W        W14246  12.297  38.126  14.908
42718W        W14247  33.851  16.721  10.937
42719W        W14248  30.613  23.282   2.288
42720W        W14249  22.184  29.871   2.971
42721W        W14250  10.718   2.868  10.246
42722W        W14251  34.136  40.264   0.424
42723W        W14252  18.836  21.366   3.325
42724W        W14253   3.293  17.142  10.791
42725W        W14254  29.986   3.546  12.861
42726W        W14255  16.772  41.532   4.212
42727W        W14256  44.247   9.746  12.973
42728W        W14257  15.887  18.986   0.239
42729W        W14258  17.647  30.962  11.839
42730W        W14259  13.867  14.804  12.289
42731W        W14260   7.861   4.307   1.813
42732W        W14261  29.524  13.707   2.839
42733W        W14262  26.288  30.129   1.239
42734W        W14263  16.012  28.649   2.693
42735W        W14264  15.578  34.108  12.345
42736W        W14265   8.801  27.063  12.003
42737W        W14266  34.821  27.127  14.627
42738W        W14267   0.838  42.969   4.753
42739W        W14268  24.003  44.831   1.289
42740W        W14269  24.753  44.157   4.493
42741W        W14270  40.691   0.621   0.419
42742W        W14271  41.933   5.393   3.239
42743W        W14272  14.338  11.621  13.760
42744W        W14273  27.724  17.726  14.865
42745W        W14274  10.995  20.735   2.753
42746W        W14275  30.855  19.406  10.100
42747W        W14276  31.470   0.426  13.461
42748W        W14277  18.508  37.770   2.313
42749W        W14278  12.130  19.715   4.156
42750W        W14279  42.041  13.458   3.794
42751W        W14280   8.866  14.285  12.424
42752W        W14281   4.168  34.461   0.472
42753W        W14282   3.824  25.040   1.011
42754W        W14283  41.951  32.623   2.278
42755W        W14284  31.391  31.350  12.825
42756W        W14285  16.685  28.158   2.365
42757W        W14286   8.318  37.338   2.487
42758W        W14287  25.896  11.059   1.866
42759W        W14288  22.222   4.892   2.092
42760W        W14289  26.080  22.899   2.806
42761W        W14290  22.799  21.566   3.775
42762W        W14291  27.181   6.613   3.633
42763W        W14292   2.346  23.760  13.619
42764W        W14293  22.243  38.910  12.970
42765W        W14294   2.474   0.836  13.990
42766W        W14295  40.373  21.689  12.521
42767W        W14296  42.208  44.927  12.571
42768W        W14297   3.318  37.785   0.352
42769W        W14298   7.725  25.494   1.743
42770W        W14299  24.447  41.735  13.026
42771W        W14300  11.390  38.556  10.641
42772W        W14301   7.626  38.522  13.819
42773W        W14302  15.083   0.495   1.221
42774W        W14303  23.423   2.045   0.952
42775W        W14304  32.566  41.399  11.138
42776W        W14305  33.883  16.154  13.923
42777W        W14306   6.297  23.228   2.570
42778W        W14307  22.218  20.848  14.334
42779W        W14308  12.695  38.314  10.393
42780W        W14309  28.289  37.789  12.856
42781W        W14310  31.970  26.276  13.128
42782W        W14311  29.891  16.480   5.331
42783W        W14312  17.280  20.324   0.904
42784W        W14313  14.304  26.948   4.624
42785W        W14314  12.381  32.504  10.611
42786W        W14315  18.170  37.520  11.995
42787W        W14316  17.169  10.449   5.111
42788W        W14317  40.820  23.579   2.708
42789W        W14318  42.875   5.764   4.072
42790W        W14319  14.485   4.876  11.600
42791W        W14320  13.190  39.119  12.499
42792W        W14321  19.460  28.463   3.865
42793W        W14322  29.334  33.479   3.318
42794W        W14323  28.199  39.697  11.370
42795W        W14324  15.699  28.188   2.777
42796W        W14325  30.288  12.628  14.381
42797W        W14326  26.979  43.699   0.488
42798W        W14327  30.870  12.622  10.709
42799W        W14328  19.149  31.468   3.703
42800W        W14329  20.642  41.477   3.161
42801W        W14330  25.058  31.364  12.473
42802W        W14331  41.205  19.136   1.928
42803W        W14332  10.898  21.995  12.540
42804W        W14333  32.977   4.238  11.120
42805W        W14334  37.100  34.035  13.480
42806W        W14335  29.630  29.382  12.050
42807W        W14336  20.367  44.699   1.773
42808W        W14337   5.383  30.217   4.851
42809W        W14338   9.830  44.688  12.627
42810W        W14339  26.563  11.865   1.822
42811W        W14340   9.702  12.157   4.147
42812W        W14341  31.127  31.582  13.426
42813W        W14342  36.419  17.581  12.882
42814W        W14343  16.174   7.213   4.520
42815W        W14344   3.985  30.334   4.557
42816W        W14345  43.423   6.546  14.676
42817W        W14346  36.489  26.040   1.686
42818W        W14347  14.420  34.397   2.453
42819W        W14348  28.391  10.615   3.170
42820W        W14349  34.113  13.152  12.749
42821W        W14350  15.679  28.405   0.498
42822W        W14351   9.338  30.640   0.366
42823W        W14352  18.398  15.186   2.424
42824W        W14353  33.044  30.496   1.565
42825W        W14354  10.887  14.196   4.269
42826W        W14355  11.619  25.587   2.765
42827W        W14356  33.444  44.794   4.171
42828W        W14357   9.429  20.792  12.382
42829W        W14358  29.549  20.188   1.015
42830W        W14359   2.113  36.642  11.801
42831W        W14360   4.783  43.256   4.080
42832W        W14361   9.819  40.552   2.713
42833W        W14362  24.751   9.867   1.647
42834W        W14363  36.313  28.944  11.114
42835W        W14364   3.497  41.038  12.916
42836W        W14365  36.043  20.066   0.292
42837W        W14366  15.894  28.864  14.921
42838W        W14367  44.465  36.953   2.284
42839W        W14368   8.734  42.656   3.211
42840W        W14369  15.093   3.250  13.102
42841W        W14370  26.374  22.486   0.946
42842W        W14371   5.390  25.708   1.768
42843W        W14372  26.253  31.166  12.249
42844W        W14373   7.970   3.979   0.891
42845W        W14374  15.796   6.256  11.531
42846W        W14375   4.942  11.878  14.807
42847W        W14376   6.920  28.452  13.391
42848W        W14377  35.298  16.537  12.668
42849W        W14378   6.946  19.256   0.470
42850W        W14379  41.703  39.294   4.074
42851W        W14380   9.185  12.487   0.388
42852W        W14381  35.554  19.109  14.532
42853W        W14382  36.890   6.387  14.894
42854W        W14383  12.598  24.740  12.584
42855W        W14384   6.255  10.779  12.068
42856W        W14385  34.158  19.311  13.383
42857W        W14386  11.128  33.242   2.596
42858W        W14387  30.905   6.147   3.622
42859W        W14388  42.045  22.554   0.470
42860W        W14389  31.717  34.651   3.594
42861W        W14390   5.693  11.632  11.468
42862W        W14391  36.962  40.811   1.113
42863W        W14392  22.575  35.533  12.893
42864W        W14393   6.759  40.072  11.383
42865W        W14394   9.492   0.404   1.008
42866W        W14395  32.433   3.489   0.549
42867W        W14396  15.880  19.165   1.556
42868W        W14397  15.277  36.086   0.305
42869W        W14398  43.299  38.362  12.435
42870W        W14399  10.079  25.441   3.873
42871W        W14400  40.046  12.100  10.431
42872W        W14401  14.277   6.809   0.176
42873W        W14402  21.443  15.995   4.796
42874W        W14403  16.739  23.828   0.500
42875W        W14404  42.343  39.865  14.824
42876W        W14405   4.696  36.250   2.761
42877W        W14406   5.740   9.745  11.479
42878W        W14407  35.609  15.356   3.842
42879W        W14408  15.742  13.987   0.331
42880W        W14409  36.381  30.349  13.866
42881W        W14410  31.396  10.566   2.289
42882W        W14411  11.927  39.972  11.408
42883W        W14412  40.288  25.940   3.278
42884W        W14413   0.112  27.481   2.232
42885W        W14414  31.395  31.740  14.862
42886W        W14415  19.664  38.320  10.293
42887W        W14416  41.438  40.217   5.070
42888W        W14417  23.040   2.314  13.810
42889W        W14418  18.051   1.669   3.297
42890W        W14419   5.316   4.993   4.820
42891W        W14420  16.358  25.344   4.253
42892W        W14421  12.399   9.841  12.683
42893W        W14422   4.026  18.845   4.171
42894W        W14423  22.725  39.326  13.596
42895W        W14424  33.519  36.043   0.073
42896W        W14425  10.900   7.673   2.662
42897W        W14426   0.926  17.398  13.556
42898W        W14427  33.060  19.747   0.887
42899W        W14428  37.105  19.758   0.917
42900W        W14429   1.387   2.905  10.979
42901W        W14430   3.065  42.431  10.756
42902W        W14431  26.609   5.636  11.337
42903W        W14432   7.955  33.362  13.721
42904W        W14433  44.480  19.590  13.496
42905W        W14434  29.095  37.923  14.647
42906W        W14435  36.592   8.868  12.586
42907W        W14436  10.197  43.205  11.443
42908W        W14437  41.509  12.611  10.928
42909W        W14438  40.793  39.844  12.978
42910W        W14439  31.449  13.559  12.923
42911W        W14440  16.185   7.968   1.558
42912W        W14441   5.747  24.483   0.437
42913W        W14442  16.245   6.234  13.386
42914W        W14443  30.045  21.467   3.228
42915W        W14444  31.160   7.977   1.378
42916W        W14445  31.328  37.974  11.619
42917W        W14446  31.028   0.011  11.603
42918W        W14447  13.363  41.472   0.251
42919W        W14448  28.107   6.154   0.730
42920W        W14449  20.567  15.219  11.582
42921W        W14450  38.224  40.237  10.830
42922W        W14451  17.950   9.358   4.750
42923W        W14452  22.974  22.458   3.322
42924W        W14453  24.242  15.547  12.577
42925W        W14454  44.498  18.756   4.536
42926W        W14455  37.514  27.435   4.183
42927W        W14456  32.992   6.480  14.269
42928W        W14457  35.845  43.523  13.087
42929W        W14458  35.183  42.314  14.091
42930W        W14459  24.733  31.621   3.733
42931W        W14460  32.445  23.264  11.427
42932W        W14461  34.827  30.073  14.924
42933W        W14462  23.487  44.482  14.103
42934W        W14463  26.188  38.036  11.319
42935W        W14464  16.338  14.793  11.592
42936W        W14465  26.647  32.148  13.860
42937W        W14466   1.740  35.956   3.656
42938W        W14467  32.636  28.960  11.497
42939W        W14468  21.082  13.846   2.721
42940W        W14469  40.932  39.589  13.474
42941W        W14470  21.630   4.604  11.370
42942W        W14471  41.879  16.491   0.786
42943W        W14472  22.448  35.681   0.121
42944W        W14473  16.285  16.907  12.016
42945W        W14474   3.663  33.648  12.072
42946W        W14475  38.893   3.718   2.676
42947W        W14476  24.346  17.850   0.776
42948W        W14477   1.815  15.517   0.378
42949W        W14478  28.216  38.792  12.975
42950W        W14479  39.012  39.707  14.339
42951W        W14480  16.368   8.956   2.471
42952W        W14481  21.742  14.255   0.248
42953W        W14482  33.755  19.779   3.658
42954W        W14483  16.319  27.896  12.828
42955W        W14484  12.761   9.772   1.767
42956W        W14485   8.848  21.948   1.600
42957W        W14486  13.692  33.619  14.921
42958W        W14487  22.811  36.456   1.240
42959W        W14488   0.962  30.447  12.879
42960W        W14489  25.012  18.706   3.748
42961W        W14490  11.082  31.212   2.359
42962W        W14491  40.228  32.964   2.919
42963W        W14492  30.175   5.836  11.585
42964W        W14493  35.032  34.880  11.184
42965W        W14494   7.078  12.771   3.576
42966W        W14495  19.544   7.695  11.176
42967W        W14496  17.081  44.319  14.925
42968W        W14497  37.267  11.007  12.311
42969W        W14498   7.200  41.639   3.085
42970W        W14499  16.614  32.427  14.199
42971W        W14500  35.460  24.437   1.088
42972W        W14501  44.069   2.763   1.215
42973W        W14502  14.588  41.813  14.277
42974W        W14503   6.865  22.125  12.670
42975W        W14504  10.685   6.345  13.052
42976W        W14505  12.730  42.329  12.573
42977W        W14506  37.441   5.657   4.196
42978W        W14507   6.221  11.602  14.283
42979W        W14508  12.267  20.936   1.785
42980W        W14509  16.949  24.745   4.163
42981W        W14510  26.943   7.217   2.734
42982W        W14511  19.284  35.150  14.872
42983W        W14512  34.710  42.966  13.572
42984W        W14513  30.941  13.848   1.646
42985W        W14514  23.642  42.627  10.438
42986W        W14515  38.922  12.151   3.120
42987W        W14516  26.641  36.122   5.094
42988W        W14517  43.701  40.442  13.917
42989W        W14518   8.911  36.013   4.216
42990W        W14519  11.937  41.757  12.957
42991W        W14520  31.662  16.797   1.753
42992W        W14521   2.623  33.561   0.424
42993W        W14522  16.332  40.395   2.818
42994W        W14523  33.133   1.280   0.322
42995W        W14524  12.161  23.790   0.065
42996W        W14525   3.439   6.463   0.043
42997W        W14526  22.698  14.152  11.043
42998W        W14527  36.641  31.913   2.739
42999W        W14528   1.400  15.652   4.578
43000W        W14529  33.903  36.595   3.081
43001W        W14530  28.641  30.381  12.147
43002W        W14531  11.769   3.988   1.671
43003W        W14532  20.077  26.450  14.265
43004W        W14533  20.992  14.168   1.592
43005W        W14534   3.709  25.179  12.800
43006W        W14535  25.728  32.889   2.771
43007W        W14536  33.095   3.306   0.515
43008W        W14537  19.568  17.792  14.089
43009W        W14538   8.895  27.234   0.829
43010W        W14539  30.130   0.935   4.928
43011W        W14540  33.058   5.798  14.808
43012W        W14541  21.732  18.533  11.167
43013W        W14542  38.861  41.897   1.818
43014W        W14543  38.528  16.275   2.876
43015W        W14544   6.796  29.542  13.312
43016W        W14545  14.644  15.195   2.716
43017W        W14546  42.794  42.409   2.286
43018W        W14547  12.194  31.385   1.245
43019W        W14548  19.574  17.842   2.020
43020W        W14549   5.150   3.378   0.061
43021W        W14550   2.722  28.399   2.685
43022W        W14551  33.390  44.822   0.882
43023W        W14552   1.721  40.401   3.751
43024W        W14553  18.160  34.833   3.369
43025W        W14554  10.760  14.728   3.096
43026W        W14555  34.486  14.392  13.446
43027W        W14556  15.413   3.952  13.295
43028W        W14557   6.891  15.677   2.813
43029W        W14558  12.180  27.170   4.586
43030W        W14559  41.699  32.146  10.690
43031W        W14560   4.754   8.772   4.995
43032W        W14561  37.373  11.742   0.673
43033W        W14562  10.094   9.348   1.403
43034W        W14563  36.121  28.153   0.364
43035W        W14564  19.567  44.754   0.046
43036W        W14565  44.787   1.922   3.686
43037W        W14566  10.125   0.454   2.738
43038W        W14567  14.011  10.930   4.134
43039W        W14568  31.597  38.872  11.687
43040W        W14569  44.359  25.992   4.678
43041W        W14570  28.900  30.238  13.523
43042W        W14571  16.945   3.283   0.492
43043W        W14572  26.744  10.754   4.584
43044W        W14573  41.460  15.738   2.641
43045W        W14574  34.371   4.883   3.739
43046W        W14575  41.059  28.030   3.667
43047W        W14576  11.684  13.204   3.396
43048W        W14577  16.185  30.353  10.781
43049W        W14578  14.561  42.454   0.045
43050W        W14579   3.030  12.007  13.472
43051W        W14580   8.094  13.471   2.201
43052W        W14581  10.566   8.685   1.801
43053W        W14582  21.524  19.282   1.690
43054W        W14583  28.584  29.741  12.960
43055W        W14584  33.646  25.022  11.006
43056W        W14585  16.562  40.859   2.831
43057W        W14586  27.171  32.566  12.836
43058W        W14587  15.185  10.879   1.911
43059W        W14588  13.655  21.761   0.922
43060W        W14589  40.781  38.287  11.468
43061W        W14590  37.799  26.701  11.502
43062W        W14591  11.721  10.689  11.803
43063W        W14592  19.198  16.446  12.753
43064W        W14593  26.577  43.065  14.960
43065W        W14594  20.496  11.133  11.183
43066W        W14595   0.426  22.260  13.012
43067W        W14596   7.625  40.261  14.887
43068W        W14597  14.237   3.389   2.881
43069W        W14598   3.322  37.420   4.905
43070W        W14599  33.033  15.365   4.134
43071W        W14600  18.107  29.589  11.641
43072W        W14601  28.063  21.531   1.378
43073W        W14602  17.274   0.813  11.839
43074W        W14603  19.000  42.879  13.066
43075W        W14604  31.039  13.198   3.282
43076W        W14605   8.340  19.402   4.696
43077W        W14606   1.103  25.948   1.503
43078W        W14607   5.107   5.191   0.865
43079W        W14608  20.857  36.853  13.464
43080W        W14609  28.546  11.687   3.062
43081W        W14610  14.665  12.832  13.077
43082W        W14611   6.961  35.631   0.845
43083W        W14612   1.765  28.599  10.951
43084W        W14613  41.516  36.783  11.576
43085W        W14614  21.674  15.353  13.084
43086W        W14615   6.882  23.736   2.995
43087W        W14616   7.493  30.029  14.017
43088W        W14617  40.834  22.757  11.491
43089W        W14618  21.754  38.483   2.857
43090W        W14619   8.404  22.080   3.196
43091W        W14620   6.183  33.010   2.264
43092W        W14621  43.003   4.838  11.895
43093W        W14622  27.254  29.007   3.552
43094W        W14623  10.304  18.819  14.100
43095W        W14624  35.508  36.467   0.434
43096W        W14625   4.816  12.225  14.404
43097W        W14626  21.234  15.458   4.207
43098W        W14627  33.091   9.363   1.789
43099W        W14628  18.851  32.573  14.400
43100W        W14629  28.065   8.618  11.121
43101W        W14630  36.560  29.860   3.805
43102W        W14631   9.614  27.924   1.703
43103W        W14632   1.342  21.066   3.043
43104W        W14633   8.772  33.224   1.385
43105W        W14634  34.316  24.224  14.546
43106W        W14635   6.865  36.609   4.634
43107W        W14636   4.305  42.701  11.532
43108W        W14637   5.381   9.248  10.618
43109W        W14638  12.406  13.071   1.353
43110W        W14639   1.353  10.136   3.211
43111W        W14640   1.058  13.750   4.736
43112W        W14641  18.574  36.587  12.794
43113W        W14642  36.562  43.527   1.929
43114W        W14643  30.705  31.674   1.728
43115W        W14644  15.088  23.135  14.812
43116W        W14645  30.962  24.332  11.866
43117W        W14646  38.556  20.435   3.814
43118W        W14647  28.203  10.725  13.496
43119W        W14648   8.486   2.158   1.087
43120W        W14649  18.685   0.771  11.568
43121W        W14650   6.670  41.450   2.379
43122W        W14651   5.257   6.254  14.501
43123W        W14652   6.815  42.488   1.320
43124W        W14653  22.263  18.292   1.957
43125W        W14654  29.601  25.929   4.746
43126W        W14655  27.248  21.650   4.538
43127W        W14656  43.164  10.394  13.377
43128W        W14657  30.159  38.023  12.277
43129W        W14658  37.013  33.614   1.421
43130W        W14659  44.702  24.490   3.121
43131W        W14660  12.290  25.748  13.284
43132W        W14661   6.871  21.712  11.897
43133W        W14662  28.511  29.846   1.198
43134W        W14663  29.050  30.526  12.428
43135W        W14664  43.538  37.459   0.760
43136W        W14665  15.393  10.464   4.452
43137W        W14666  15.168  35.407  13.937
43138W        W14667  37.010  33.907  12.453
43139W        W14668   2.453   4.340   1.516
43140W        W14669  39.100   1.771  10.425
43141W        W14670  21.369   8.013  12.575
43142W        W14671   2.506  37.882  13.130
43143W        W14672   1.435  27.035  14.555
43144W        W14673  40.514  22.482  11.143
43145W        W14674  17.350  29.662  13.624
43146W        W14675   7.866  10.570  11.743
43147W        W14676  17.666   3.588   3.254
43148W        W14677  21.809  22.755  10.441
43149W        W14678  34.228  42.978  14.736
43150W        W14679   6.311  42.496  10.145
43151W        W14680  40.318  41.500  13.953
43152W        W14681  42.408  22.974  12.669
43153W        W14682   7.477  33.182  13.901
43154W        W14683  44.858   7.460  14.502
43155W        W14684  41.955  36.011  10.003
43156W        W14685   9.617  26.732  12.438
43157W        W14686  35.872  11.625   4.924
43158W        W14687  16.365  20.434   1.727
43159W        W14688   1.908  19.072   3.667
43160W        W14689  27.666  32.414  13.583
43161W        W14690   2.393  43.407  12.970
43162W        W14691  18.241  37.079   0.985
43163W        W14692  30.078  24.256   0.455
43164W        W14693  26.549  43.938  10.768
43165W        W14694   8.636   3.363  13.110
43166W        W14695  24.312  14.635   3.688
43167W        W14696  41.525   7.203  12.093
43168W        W14697  24.908   5.633   3.801
43169W        W14698   8.643  17.014  11.551
43170W        W14699  40.793  36.153   1.364
43171W        W14700  19.780  40.179   3.505
43172W        W14701  32.245  36.950  13.243
43173W        W14702  14.931  38.905  12.927
43174W        W14703  33.775  44.314   5.018
43175W        W14704   4.122  37.475   3.270
43176W        W14705  32.753  18.693  12.003
43177W        W14706  21.198  40.985  12.217
43178W        W14707  37.772  12.677   4.942
43179W        W14708  17.001  29.133   2.010
43180W        W14709   6.276  17.655   3.136
43181W        W14710   3.278  42.443   3.371
43182W        W14711  17.382  29.783  14.489
43183W        W14712  15.064  43.813  13.567
43184W        W14713  43.741   0.511  13.985
43185W        W14714   1.669  15.826  14.012
43186W        W14715  35.166  12.776  13.620
43187W        W14716  35.897  27.043  13.846
43188W        W14717  41.736   1.241  12.416
43189W        W14718  16.869   0.801   3.259
43190W        W14719  42.339   1.843   1.963
43191W        W14720  28.105  43.039  10.951
43192W        W14721  41.523  31.377  13.984
43193W        W14722  31.169  14.167   1.313
43194W        W14723  15.665   7.227  14.052
43195W        W14724  36.496  38.574  12.642
43196W        W14725  23.027   5.654   2.266
43197W        W14726   0.022   6.140  11.316
43198W        W14727   8.884  18.525   4.553
43199W        W14728   2.853  14.396  10.974
43200W        W14729  43.588   1.862  12.581
43201W        W14730  41.458   0.361  12.532
43202W        W14731  24.238  26.935   2.362
43203W        W14732  22.737  44.348  10.592
43204W        W14733  17.144  34.802   3.560
43205W        W14734  15.380   8.011   0.485
43206W        W14735  16.654  32.096   3.990
43207W        W14736  23.149  17.747  10.557
43208W        W14737  40.903   4.960   4.620
43209W        W14738  15.382  33.598  14.393
43210W        W14739  20.680  29.809   4.138
43211W        W14740  18.543   5.567  14.353
43212W        W14741  41.379  31.675  11.903
43213W        W14742  16.660   4.208  11.520
43214W        W14743  40.611  44.285   4.078
43215W        W14744  40.059  44.038   0.398
43216W        W14745  33.641  13.553  14.109
43217W        W14746  12.098   2.541  11.671
43218W        W14747  44.705   8.217   1.166
43219W        W14748  31.901  20.424   4.365
43220W        W14749   4.790  28.284   2.066
43221W        W14750  12.996  17.059   0.819
43222W        W14751  26.142  21.597   0.405
43223W        W14752   5.619  44.781  10.727
43224W        W14753  44.793  34.546   9.590
43225W        W14754  31.981  13.687   3.216
43226W        W14755  11.824   3.663  11.897
43227W        W14756  44.995  32.891   2.194
43228W        W14757  26.713  33.936   0.484
43229W        W14758  13.317  12.830  12.111
43230W        W14759  27.482  25.006   4.326
43231W        W14760  10.702  13.680  13.501
43232W        W14761   4.831  13.277  13.332
43233W        W14762   5.715  43.849   4.171
43234W        W14763   6.211  26.590  12.584
43235W        W14764  31.632  34.619   2.821
43236W        W14765  40.455   8.429   3.577
43237W        W14766  28.758  18.911   2.735
43238W        W14767  38.133   2.847   1.904
43239W        W14768  19.438   9.859  11.480
43240W        W14769  16.847  13.638   2.658
43241W        W14770   6.398  32.653   3.137
43242W        W14771  10.583   9.302  11.121
43243W        W14772   9.903  23.999   0.795
43244W        W14773  42.289  20.851  11.476
43245W        W14774  44.546  43.982  14.013
43246W        W14775  32.039  42.891  10.872
43247W        W14776  23.023  32.402  14.384
43248W        W14777  31.859  20.106   1.278
43249W        W14778   6.750  24.801  11.806
43250W        W14779   4.081  10.402   4.120
43251W        W14780  43.047  25.100   1.956
43252W        W14781  43.407   0.730  14.287
43253W        W14782  28.553   5.141  11.619
43254W        W14783   7.101  21.985  10.952
43255W        W14784  18.945  33.407   0.041
43256W        W14785  25.161  24.506   1.709
43257W        W14786   1.149  40.405  14.144
43258W        W14787  26.275  26.669  11.716
43259W        W14788  22.181  23.008  12.151
43260W        W14789  25.191  17.293   4.709
43261W        W14790  37.798  22.574  11.344
43262W        W14791  24.031  39.242   2.187
43263W        W14792  12.753   7.768   3.692
43264W        W14793  10.816  31.517   4.925
43265W        W14794  17.765  34.705  11.065
43266W        W14795  42.662  12.561  13.938
43267W        W14796  12.647  15.658  12.767
43268W        W14797   0.896  38.690  13.594
43269W        W14798   7.375  19.728   3.767
43270W        W14799  18.064  36.346   3.402
43271W        W14800  37.997  43.490  11.520
43272W        W14801   7.330  29.126  11.098
43273W        W14802  20.587  43.108  13.965
43274W        W14803  34.920   2.688   0.307
43275W        W14804  30.484  16.696   4.741
43276W        W14805  10.445   6.416   3.741
43277W        W14806  24.019  42.480   0.536
43278W        W14807   1.558  44.399  14.475
43279W        W14808   5.747  21.986  10.512
43280W        W14809   3.045  44.001   1.754
43281W        W14810  41.218  21.320  13.929
43282W        W14811   2.001   0.475   3.123
43283W        W14812  35.467  30.958  13.236
43284W        W14813  31.185  26.503   2.938
43285W        W14814  28.906   9.358  13.526
43286W        W14815   4.000   8.707   1.311
43287W        W14816  16.816  24.580  12.034
43288W        W14817  14.849  30.000  14.361
43289W        W14818  10.815  32.820  12.371
43290W        W14819  23.150  39.309   2.666
43291W        W14820   5.732  44.029   3.648
43292W        W14821  20.264  26.992  10.306
43293W        W14822  34.010  20.223   3.859
43294W        W14823  31.738  27.950   4.324
43295W        W14824  23.730  17.562  12.380
43296W        W14825   0.833  42.249  13.931
43297W        W14826  23.425   7.810   3.273
43298W        W14827   7.181   1.432  11.220
43299W        W14828  22.710   2.706   4.329
43300W        W14829   0.262  17.929  11.540
43301W        W14830  28.495  18.595   0.321
43302W        W14831  13.318   6.126   3.665
43303W        W14832  15.228  22.131  14.740
43304W        W14833   6.923  40.658  12.476
43305W        W14834  28.616  31.846   9.854
43306W        W14835  25.183  28.167  11.703
43307W        W14836   5.524  33.329  11.752
43308W        W14837  25.677  30.614  14.910
43309W        W14838  18.060  34.998   4.745
43310W        W14839   5.308  18.777   1.551
43311W        W14840  23.107   6.170  10.725
43312W        W14841  34.007  19.134   1.515
43313W        W14842  12.758   2.192  11.207
43314W        W14843  22.228  27.463  12.546
43315W        W14844   1.918   4.931   1.009
43316W        W14845  34.102   4.169   4.224
43317W        W14846  36.639  23.603  12.708
43318W        W14847  35.493  41.574   4.090
43319W        W14848  38.253  40.894  13.540
43320W        W14849  44.445  20.208   3.211
43321W        W14850  29.055  42.778  14.947
43322W        W14851   7.480   4.319   2.155
43323W        W14852   2.374  18.078  10.666
43324W        W14853  27.262  25.029   1.179
43325W        W14854  20.954  23.677  13.907
43326W        W14855  39.055   2.397  13.509
43327W        W14856  36.586  10.628  13.024
43328W        W14857  42.412  17.601   1.147
43329W        W14858  31.487  38.673   0.704
43330W        W14859  41.451  26.589  14.053
43331W        W14860  37.970  31.364  11.382
43332W        W14861   5.318  29.080   1.709
43333W        W14862  39.327  36.501   2.802
43334W        W14863   1.578  27.492  11.320
43335W        W14864  44.376  33.651   3.772
43336W        W14865  40.079  25.206  13.011
43337W        W14866  34.182  17.905  13.300
43338W        W14867  20.676  26.676   0.372
43339W        W14868  18.292  24.976   1.415
43340W        W14869  43.924  12.380  11.446
43341W        W14870   6.179  33.788  14.473
43342W        W14871  40.670  10.309   3.143
43343W        W14872  21.321  40.867   1.622
43344W        W14873   6.641  17.111  12.845
43345W        W14874  41.856  29.529   2.823
43346W        W14875  25.464  40.323   1.872
43347W        W14876   2.420  39.942   0.954
43348W        W14877  41.985  43.012   0.951
43349W        W14878   5.631  17.016   1.854
43350W        W14879  25.025   0.811   2.287
43351W        W14880  27.469  15.530   0.380
43352W        W14881  26.796  12.687  14.501
43353W        W14882  19.100  28.655   0.774
43354W        W14883  13.171   8.513  12.146
43355W        W14884  16.314  25.575  14.811
43356W        W14885  14.227   3.473   0.233
43357W        W14886  29.997  34.005   0.211
43358W        W14887  27.386   6.734   3.150
43359W        W14888   8.922  14.580   2.018
43360W        W14889  35.913   7.149  14.051
43361W        W14890   5.832   3.411  10.473
43362W        W14891  21.337  29.102   3.831
43363W        W14892  28.678  23.880   0.448
43364W        W14893  18.373  25.147   0.217
43365W        W14894   3.244  11.729  11.011
43366W        W14895  18.280  10.425  12.589
43367W        W14896  36.832  11.846  11.233
43368W        W14897  13.637  37.556   2.016
43369W        W14898  13.753  32.046   0.408
43370W        W14899  10.203  27.129   0.538
43371W        W14900  36.046   7.431   2.683
43372W        W14901  12.284  33.953  11.698
43373W        W14902  35.972  32.984   1.468
43374W        W14903  25.973  37.169   2.241
43375W        W14904  30.133   9.353   0.729
43376W        W14905   1.481   3.760  13.429
43377W        W14906  30.686   0.041   3.632
43378W        W14907  41.835  44.047  11.083
43379W        W14908  20.787  33.918   1.502
43380W        W14909  15.197  29.442   4.672
43381W        W14910   4.301  32.733  12.091
43382W        W14911   3.220  41.454   3.134
43383W        W14912  23.001  14.063  14.595
43384W        W14913  16.871  21.341  12.452
43385W        W14914  42.691   5.468  12.154
43386W        W14915  42.801  39.946  12.100
43387W        W14916  36.553  10.872  14.825
43388W        W14917   3.198  38.923   3.871
43389W        W14918  30.499  17.121   1.814
43390W        W14919  44.532  26.338  10.219
43391W        W14920  28.514  12.626  10.590
43392W        W14921  27.234  31.343  12.991
43393W        W14922   7.376   7.626   3.076
43394W        W14923  13.575  29.664   0.496
43395W        W14924  17.237  13.662  11.077
43396W        W14925   4.794  32.407   4.720
43397W        W14926  42.524  29.848   4.164
43398W        W14927  10.316   1.847   4.679
43399W        W14928   1.824   6.281   1.329
43400W        W14929   6.886  19.786  11.190
43401W        W14930  14.079   6.342   4.082
43402W        W14931  43.347   3.482  13.610
43403W        W14932  34.439  17.261   0.835
43404W        W14933  11.120  36.101   1.029
43405W        W14934  30.752  39.496  11.971
43406W        W14935  43.476  38.270   2.783
43407W        W14936  37.464  32.819  14.966
43408W        W14937  37.749  33.923  12.047
43409W        W14938  28.450  38.774  11.147
43410W        W14939  34.075   6.578  10.528
43411W        W14940  26.486  25.113   0.921
43412W        W14941  11.930  19.390   1.127
43413W        W14942  44.987  22.593   4.909
43414W        W14943  33.921  17.271  14.018
43415W        W14944  33.625  43.512   1.517
43416W        W14945   2.636  38.461  11.171
43417W        W14946   1.157  32.605   3.306
43418W        W14947  14.720  29.685  14.756
43419W        W14948  35.035  43.484   0.867
43420W        W14949   7.014  35.101   4.598
43421W        W14950   1.263  13.306   0.863
43422W        W14951  24.452   2.416  14.893
43423W        W14952  25.698  31.845  14.497
43424W        W14953  18.864  27.185  13.973
43425W        W14954  33.842   9.341   4.244
43426W        W14955   1.340   6.448  14.527
43427W        W14956  43.290  20.771   2.927
43428W        W14957   1.088  40.911  13.374
43429W        W14958  35.196  28.467   4.604
43430W        W14959  13.642  26.094   4.634
43431W        W14960  42.476   0.373  12.485
43432W        W14961  26.974   4.813  13.537
43433W        W14962  22.709  33.609  13.254
43434W        W14963   3.727  35.963   2.780
43435W        W14964   4.166  32.736   3.264
43436W        W14965  39.570  11.254   2.757
43437W        W14966   2.673  13.758  11.238
43438W        W14967  23.983  40.473  12.936
43439W        W14968  31.012  42.940   4.160
43440W        W14969  33.514  33.622  11.009
43441W        W14970  28.766  38.784   3.742
43442W        W14971  17.170  24.643   3.695
43443W        W14972  39.524  29.699   2.137
43444W        W14973  32.902   4.756  11.088
43445W        W14974  21.138   5.147  10.601
43446W        W14975  19.334  36.874   3.230
43447W        W14976  17.818  33.405  13.939
43448W        W14977  40.422  15.396  10.216
43449W        W14978  36.860   1.344  13.397
43450W        W14979  41.982  41.992   1.156
43451W        W14980  14.566  40.241   3.019
43452W        W14981  40.249  44.387  11.635
43453W        W14982  18.733   0.420  12.749
43454W        W14983   7.394  17.639  11.213
43455W        W14984  10.768   8.647  10.553
43456W        W14985  39.499   2.240   0.202
43457W        W14986  40.549  25.966  12.657
43458W        W14987   9.235   7.678  12.968
43459W        W14988  10.389  38.481   0.824
43460W        W14989  12.218  42.523  13.373
43461W        W14990   3.898   4.856  12.862
43462W        W14991  17.774  43.901  14.642
43463W        W14992  13.386   9.153   2.969
43464W        W14993  35.629  31.054   1.971
43465W        W14994  38.790  44.200   2.767
43466W        W14995  29.395   5.900  12.103
43467W        W14996  44.563   9.618  14.344
43468W        W14997  22.685  35.034   2.202
43469W        W14998  44.054  25.295   4.098
43470W        W14999  13.913  11.279   2.442
43471W        W15000  39.892  23.124   2.727
43472W        W15001  20.060  30.039  12.878
43473W        W15002  41.082   7.457   1.370
43474W        W15003   6.402  10.619  14.885
43475W        W15004  15.100  19.871   0.447
43476W        W15005  32.387   1.899   3.335
43477W        W15006  30.184  33.296   3.591
43478W        W15007   5.252  24.172  12.949
43479W        W15008  25.555  26.913  12.031
43480W        W15009  23.776   6.592   3.790
43481W        W15010   0.841  37.128  13.432
43482W        W15011   5.222  25.189  11.126
43483W        W15012   7.769  15.652   0.475
43484W        W15013  39.416  25.069   0.768
43485W        W15014  11.283  36.242   3.410
43486W        W15015  40.311   2.065   2.353
43487W        W15016  41.021  12.831  10.936
43488W        W15017  34.044   1.373  13.763
43489W        W15018  29.970   1.888  10.863
43490W        W15019  43.224  18.512   3.628
43491W        W15020  26.109  34.922   4.093
43492W        W15021  31.057  23.030   2.409
43493W        W15022  38.977   6.447  14.869
43494W        W15023  44.698   3.526  13.533
43495W        W15024   3.869  35.265  14.235
43496W        W15025  19.318  29.266   0.784
43497W        W15026  18.113  15.107  12.372
43498W        W15027  39.920  17.521   4.698
43499W        W15028   7.854   0.913   4.967
43500W        W15029  23.055  38.319   2.379
43501W        W15030  13.697  11.102   0.318
43502W        W15031  10.724  39.843  13.156
43503W        W15032  15.926   9.738   2.394
43504W        W15033  30.061  32.214  13.814
43505W        W15034  20.992  26.591   4.125
43506W        W15035  29.083  26.783   1.669
43507W        W15036   9.651  32.315  12.140
43508W        W15037   1.071  28.970   4.360
43509W        W15038  13.230  19.646   2.605
43510W        W15039  12.839  34.570  10.652
43511W        W15040  30.353   3.929  12.976
43512W        W15041   4.185   9.615   2.688
43513W        W15042  34.518  12.103   0.970
43514W        W15043   2.325  36.931  14.280
43515W        W15044  22.591   2.399  12.622
43516W        W15045  16.848  44.967   1.792
43517W        W15046  36.021  27.959  11.590
43518W        W15047  23.778   4.649  12.911
43519W        W15048  36.864  18.803   1.500
43520W        W15049  13.671  44.722  10.268
43521W        W15050   1.243   4.820  10.702
43522W        W15051  15.344   8.712   1.250
43523W        W15052  17.189   3.410  14.718
43524W        W15053  40.781  21.731   1.226
43525W        W15054  12.613  36.548  13.076
43526W        W15055  28.702  11.519  13.079
43527W        W15056  27.209  16.289  12.092
43528W        W15057   4.490  15.115   2.841
43529W        W15058   7.005  30.127   2.863
43530W        W15059  41.221  36.865  14.299
43531W        W15060   9.821  23.619  10.668
43532W        W15061   1.691  36.267   4.579
43533W        W15062  13.646  33.433   0.764
43534W        W15063  42.896  18.202   1.910
43535W        W15064  10.325   5.013  14.333
43536W        W15065  41.609   5.749  10.417
43537W        W15066   5.355  24.725   2.996
43538W        W15067  28.856   9.816  13.789
43539W        W15068  39.825  17.728   1.455
43540W        W15069  35.075  40.921   1.269
43541W        W15070   3.036  12.830   0.758
43542W        W15071  23.012   2.794  12.892
43543W        W15072  17.164   9.173  11.857
43544W        W15073   4.158   7.799  13.746
43545W        W15074  38.112  18.165  13.890
43546W        W15075  31.979   7.618   2.374
43547W        W15076   2.982   7.838   3.778
43548W        W15077  27.920  11.329   2.648
43549W        W15078  19.709  39.940   3.951
43550W        W15079  36.368  11.628   4.745
43551W        W15080  37.441   9.834   0.601
43552W        W15081   0.910   6.177   2.680
43553W        W15082  27.965  37.865   1.340
43554W        W15083   9.359  23.886  11.429
43555W        W15084  16.347  36.872  12.366
43556W        W15085   6.677  33.470  13.050
43557W        W15086  36.006  36.154  14.865
43558W        W15087   5.783  17.041   4.450
43559W        W15088   3.903  41.064   1.776
43560W        W15089  11.732  25.681   4.193
43561W        W15090  11.782  10.906   1.810
43562W        W15091   6.806  13.801  11.000
43563W        W15092  36.519  29.682   4.488
43564W        W15093  24.985   1.809   2.313
43565W        W15094   1.559  13.617  10.685
43566W        W15095  38.849  29.100  10.199
43567W        W15096   6.819  28.166   3.282
43568W        W15097   0.944   5.376   1.754
43569W        W15098   7.224  34.902  11.993
43570W        W15099  33.532   1.900  13.243
43571W        W15100  21.746   5.205  12.837
43572W        W15101  37.464  37.080  12.534
43573W        W15102  29.638  30.156  11.665
43574W        W15103  33.397   6.275  14.586
43575W        W15104   5.878  12.377   3.323
43576W        W15105  10.711   8.224   2.667
43577W        W15106  22.782  16.616   2.840
43578W        W15107  15.306   0.908   1.473
43579W        W15108  41.401  24.581  14.013
43580W        W15109   8.728  23.387   1.404
43581W        W15110   0.357   0.814  12.566
43582W        W15111  33.387  22.238   1.726
43583W        W15112  43.599  42.936   1.262
43584W        W15113   0.937   7.408   0.985
43585W        W15114  25.117  35.143   1.398
43586W        W15115  39.051  13.486  11.248
43587W        W15116   0.539  32.166  11.578
43588W        W15117  31.197   0.920   1.638
43589W        W15118  30.478  14.745   2.323
43590W        W15119  16.148   0.103  13.379
43591W        W15120  24.176  20.493  12.528
43592W        W15121  31.264  13.013   3.724
43593W        W15122  32.084  23.019   4.616
43594W        W15123   6.333  29.417  14.570
43595W        W15124  43.773  25.055  11.241
43596W        W15125  28.654  16.038  11.181
43597W        W15126   1.337  25.539   1.728
43598W        W15127  43.200  33.924  14.440
43599W        W15128   3.232  10.549   0.046
43600W        W15129  28.075  10.323  13.789
43601W        W15130  34.436  23.244  11.093
43602W        W15131  29.362  16.079  13.862
43603W        W15132  20.105  30.607   1.709
43604W        W15133  29.946  15.061  14.505
43605W        W15134  36.977   0.029  12.920
43606W        W15135  27.617  19.303   3.120
43607W        W15136  26.192  29.232   3.668
43608W        W15137  35.637   8.805   0.250
43609W        W15138  31.024  21.654   2.368
43610W        W15139  34.353  32.729  14.552
43611W        W15140  44.414   8.421   0.773
43612W        W15141  21.311  25.709   4.497
43613W        W15142   4.832  32.989   1.889
43614W        W15143  27.102  15.089  13.404
43615W        W15144  24.632  38.425   3.590
43616W        W15145  24.201  16.528  14.204
43617W        W15146  42.924  44.173  14.926
43618W        W15147  44.447  26.219  13.489
43619W        W15148  37.056  12.261  10.995
43620W        W15149  15.620  39.822  11.166
43621W        W15150   8.682  32.332   3.657
43622W        W15151   3.219  10.789  10.863
43623W        W15152  41.155   0.179   4.069
43624W        W15153  34.980  30.675   1.429
43625W        W15154   5.309  23.353  12.556
43626W        W15155   9.793  14.061   1.889
43627W        W15156   0.302   9.599   3.919
43628W        W15157  18.305  25.147   3.207
43629W        W15158  22.146  33.339   2.660
43630W        W15159   7.523  12.701  12.565
43631W        W15160  28.544  38.253   0.297
43632W        W15161  15.361  37.443  12.453
43633W        W15162   8.431  42.232  14.847
43634W        W15163  42.823   0.975  10.786
43635W        W15164  21.686  33.402   1.975
43636W        W15165  41.006  31.644  12.773
43637W        W15166   3.388   6.017   3.702
43638W        W15167  17.711  10.893   4.537
43639W        W15168  32.364   2.002   2.436
43640W        W15169   8.443  17.508  11.091
43641W        W15170  41.355  22.938  11.570
43642W        W15171  23.762   4.238   2.815
43643W        W15172   3.309   4.215   3.650
43644W        W15173  41.915  38.092  11.818
43645W        W15174  26.653   7.687  12.430
43646W        W15175  39.833  28.181  11.943
43647W        W15176  32.667   8.866   4.899
43648W        W15177  18.130   0.807  14.815
43649W        W15178  13.179   5.114   2.831
43650W        W15179  25.274   0.933   1.740
43651W        W15180   3.840  37.925  13.057
43652W        W15181  19.422  40.180  14.898
43653W        W15182  19.235  39.535  14.274
43654W        W15183  14.752  29.447  11.913
43655W        W15184  15.361  39.919   4.823
43656W        W15185  28.889  35.685  12.971
43657W        W15186  38.545  15.005  12.758
43658W        W15187  26.014  16.378  13.145
43659W        W15188  19.818  42.926   4.684
43660W        W15189   5.409  20.712  12.939
43661W        W15190  20.646  13.097   0.838
43662W        W15191   2.915   6.662   0.684
43663W        W15192  36.649   0.291   1.515
43664W        W15193  18.241  27.073   0.859
43665W        W15194   5.185  14.423   3.283
43666W        W15195  25.722  32.262   4.728
43667W        W15196   2.626  44.900  14.000
43668W        W15197  20.130   4.951  10.174
43669W        W15198   8.902  43.759   1.870
43670W        W15199   1.342  12.864   2.687
43671W        W15200  35.884  27.955   0.878
43672W        W15201  26.178  36.529   4.010
43673W        W15202  40.276  42.487   0.392
43674W        W15203   7.426   4.220  13.353
43675W        W15204   5.735  20.511  13.850
43676W        W15205  31.530  26.518   3.982
43677W        W15206  33.393  39.459  13.095
43678W        W15207  43.190   3.965  11.988
43679W        W15208  31.536   1.797  11.600
43680W        W15209   4.808  31.077  13.368
43681W        W15210  15.732  42.024   2.661
43682W        W15211  39.945   1.026   3.806
43683W        W15212  18.031  39.028   1.886
43684W        W15213  25.085  31.514   4.100
43685W        W15214  21.521  12.645  11.215
43686W        W15215  36.541  13.354  13.485
43687W        W15216  32.604  22.690   3.823
43688W        W15217   2.751   5.292  12.809
43689W        W15218   9.762  44.228   0.952
43690W        W15219  14.578  30.108  12.911
43691W        W15220  21.505  20.520   2.765
43692W        W15221  44.392  39.657  11.667
43693W        W15222  42.302   7.178  13.203
43694W        W15223  38.292   1.342  11.123
43695W        W15224  36.908   7.956   2.820
43696W        W15225  24.525  26.713   0.242
43697W        W15226  35.357  21.181   4.519
43698W        W15227  19.512   1.351   3.400
43699W        W15228  25.457  14.731  12.910
43700W        W15229  30.087   1.834  11.358
43701W        W15230   9.423  38.460  12.168
43702W        W15231   0.290  24.380   4.479
43703W        W15232   0.915  10.436   1.545
43704W        W15233  31.580  16.621  14.342
43705W        W15234   4.206  20.735  12.402
43706W        W15235  36.002  17.530   4.110
43707W        W15236  40.993   4.208   3.484
43708W        W15237  10.584   6.425  14.315
43709W        W15238  39.900  14.229  11.945
43710W        W15239  31.069   1.623   1.292
43711W        W15240  35.875  32.540  11.572
43712W        W15241   6.482  31.927   3.606
43713W        W15242  41.343   6.801   1.689
43714W        W15243  16.137   5.814  13.067
43715W        W15244  34.479  12.879  13.950
43716W        W15245  44.261   3.908  10.210
43717W        W15246  30.900  24.538   2.793
43718W        W15247  27.988  36.383  10.820
43719W        W15248   0.250  18.548  10.639
43720W        W15249   7.325  33.484  10.942
43721W        W15250  24.494   4.912  12.515
43722W        W15251   7.718  18.176  12.907
43723W        W15252  41.775  29.619   3.817
43724W        W15253  19.763  26.075  11.625
43725W        W15254   1.925  20.209   1.787
43726W        W15255  22.383  23.146  13.142
43727W        W15256  29.493   6.621   1.347
43728W        W15257  11.209  31.666   4.139
43729W        W15258  20.322  32.014  13.913
43730W        W15259  10.639  28.088  13.889
43731W        W15260  18.568  16.113  13.067
43732W        W15261   0.831   1.662  13.026
43733W        W15262  20.191  37.799  14.029
43734W        W15263   4.167  22.308   1.752
43735W        W15264  13.237  33.812   2.376
43736W        W15265  39.535   3.665   4.234
43737W        W15266  16.870  13.081   4.851
43738W        W15267   7.099  19.038  12.883
43739W        W15268  44.343  41.436   0.101
43740W        W15269   8.101  20.328  14.791
43741W        W15270  19.761  10.736   3.714
43742W        W15271  36.698  28.237   2.253
43743W        W15272   7.446  13.135   1.015
43744W        W15273  42.853  22.997   4.914
43745W        W15274  26.484  34.073  12.088
43746W        W15275  14.707  31.537  12.764
43747W        W15276  25.929   8.226  12.139
43748W        W15277  26.521  20.443  13.118
43749W        W15278  23.263  43.082   1.490
43750W        W15279   9.824   1.244  12.215
43751W        W15280  34.950   8.292  13.373
43752W        W15281  35.490  36.843   3.649
43753W        W15282  23.974  11.067  12.982
43754W        W15283  22.658  26.425  11.084
43755W        W15284  30.614   2.889   3.773
43756W        W15285  26.171  42.257   3.689
43757W        W15286  40.341   6.977  10.673
43758W        W15287  44.674  32.796  11.231
43759W        W15288   6.723   2.223  13.873
43760W        W15289  37.805  27.888   4.251
43761W        W15290  38.902  26.382  12.426
43762W        W15291  28.949  41.480   4.275
43763W        W15292   1.593  11.881   0.979
43764W        W15293  18.615  15.583  11.147
43765W        W15294  21.286   9.668  12.889
43766W        W15295  31.794  18.839   2.939
43767W        W15296  36.357  14.231  14.763
43768W        W15297  20.172  13.523  13.931
43769W        W15298   9.714   0.220  12.064
43770W        W15299   7.202  29.174   2.494
43771W        W15300  12.677  36.904   3.759
43772W        W15301  43.748  24.662   0.282
43773W        W15302  21.225  16.614  13.432
43774W        W15303  16.353  11.271  13.027
43775W        W15304  36.316  16.433  12.035
43776W        W15305   0.721   7.324   4.891
43777W        W15306  16.463  38.593   3.765
43778W        W15307  39.479  43.891   4.236
43779W        W15308  20.810  43.919   4.104
43780W        W15309  37.067  41.945   2.992
43781W        W15310   5.842  32.771   0.689
43782W        W15311   8.924  27.601  12.445
43783W        W15312   0.889  15.775   3.753
43784W        W15313   3.216  21.829   2.665
43785W        W15314  18.169   3.681   3.112
43786W        W15315  27.611  10.681   1.028
43787W        W15316  31.632  38.348   4.716
43788W        W15317  30.797   7.496  12.861
43789W        W15318  26.576  44.266   4.064
43790W        W15319  34.596  41.764  12.203
43791W        W15320  11.684  11.269  10.071
43792W        W15321  20.356   2.636   0.581
43793W        W15322  19.016  28.543   3.622
43794W        W15323   5.876   5.673   1.748
43795W        W15324  37.334   1.532  11.305
43796W        W15325   8.516  42.831   3.654
43797W        W15326  37.554  25.386  14.038
43798W        W15327  14.464   9.855  11.173
43799W        W15328  35.957   1.573  14.376
43800W        W15329  32.338  13.164  13.516
43801W        W15330  20.943  33.460   1.291
43802W        W15331  35.066  31.409   0.818
43803W        W15332  14.294  11.173   3.759
43804W        W15333   9.086  42.000  11.640
43805W        W15334  11.749   2.547   5.027
43806W        W15335  11.720  39.313   2.903
43807W        W15336  34.701   5.151  13.898
43808W        W15337   3.880  14.546  14.018
43809W        W15338  20.441   5.181   1.628
43810W        W15339   6.725   7.347  12.982
43811W        W15340  24.298   9.503  14.412
43812W        W15341  16.445  11.882  13.386
43813W        W15342  34.057  40.920   1.217
43814W        W15343  26.109  27.858   1.023
43815W        W15344   0.156  34.635  11.072
43816W        W15345  30.046  40.536   4.074
43817W        W15346   8.818  29.592   2.081
43818W        W15347  13.902  21.955   2.229
43819W        W15348  28.973  13.605   2.175
43820W        W15349   6.342  20.429  13.575
43821W        W15350  24.555  29.138  13.498
43822W        W15351  39.361  23.286   0.924
43823W        W15352  15.690  42.276  14.251
43824W        W15353  30.193   7.860  12.585
43825W        W15354  26.029  36.460   4.509
43826W        W15355   5.818  21.732   3.674
43827W        W15356  36.221  43.857  14.827
43828W        W15357  35.399  20.486   4.086
43829W        W15358  40.586  38.859  13.781
43830W        W15359  15.703  41.910   3.507
43831W        W15360  23.211  11.134   1.975
43832W        W15361  25.963  25.097   2.837
43833W        W15362  26.659   7.096   0.605
43834W        W15363  17.358   4.776   0.018
43835W        W15364  26.487   8.043   4.995
43836W        W15365   0.600  30.027  12.900
43837W        W15366  26.503  25.408  12.492
43838W        W15367  27.900  36.541   0.057
43839W        W15368   3.235  40.814  12.541
43840W        W15369  27.919  31.957   2.107
43841W        W15370   7.611  24.232   2.825
43842W        W15371  26.367  33.521   4.567
43843W        W15372  28.704  39.955  12.845
43844W        W15373  42.494  15.169   2.162
43845W        W15374   1.415  31.044   3.583
43846W        W15375   8.141  41.504  13.433
43847W        W15376  18.035  19.152   2.715
43848W        W15377  32.129  28.082   0.458
43849W        W15378  22.516  37.340   1.281
43850W        W15379  25.690  31.640   2.129
43851W        W15380  28.615  40.798  14.519
43852W        W15381  40.360  26.256   5.019
43853W        W15382  21.745  38.010   1.463
43854W        W15383  16.689  32.584   4.172
43855W        W15384   4.050   9.734   1.406
43856W        W15385  39.030  35.415  13.364
43857W        W15386  39.954  25.927   3.676
43858W        W15387  21.304  18.776   1.373
43859W        W15388  16.120  18.607   4.872
43860W        W15389  35.505  10.772   4.142
43861W        W15390  13.039  39.623   0.843
43862W        W15391  16.913  14.398   3.298
43863W        W15392  15.614  33.116  14.457
43864W        W15393  30.844  29.981   1.186
43865W        W15394   9.493  20.074   3.675
43866W        W15395   4.630  11.151  12.422
43867W        W15396  37.331  32.186   3.371
43868W        W15397  21.652   0.504  13.848
43869W        W15398  11.026  38.131   3.828
43870W        W15399  34.580  34.080   3.849
43871W        W15400  22.489  15.829  11.621
43872W        W15401   3.971   5.352  13.478
43873W        W15402  30.283  29.794  11.217
43874W        W15403  38.993  36.028  12.113
43875W        W15404   2.213  40.279  10.691
43876W        W15405   4.301  39.284   3.181
43877W        W15406  28.584  27.223  11.470
43878W        W15407  38.063  32.023   2.210
43879W        W15408  38.467  17.327   1.392
43880W        W15409  11.789  26.674   1.310
43881W        W15410  14.607   8.671  14.012
43882W        W15411  39.687  27.485   1.907
43883W        W15412  28.604  25.509  13.049
43884W        W15413   2.739  11.274   1.902
43885W        W15414  28.042  24.173  11.506
43886W        W15415  30.652  17.745   0.288
43887W        W15416  11.734  36.031   2.710
43888W        W15417  21.073  21.756   2.734
43889W        W15418  19.733  40.609   4.676
43890W        W15419   8.164  44.997   0.825
43891W        W15420   9.742  21.011   3.090
43892W        W15421   1.333  24.966  10.683
43893W        W15422  12.764  44.996   2.618
43894W        W15423  33.915  20.338   1.263
43895W        W15424  28.373   9.683   3.630
43896W        W15425  32.583  16.304  14.947
43897W        W15426  19.848   7.721   2.288
43898W        W15427  22.481  31.265   0.856
43899W        W15428  25.743  39.311  12.571
43900W        W15429  40.553  22.670   2.594
43901W        W15430  21.829  41.354   0.677
43902W        W15431  42.319  24.714   4.157
43903W        W15432  12.603   5.577   4.029
43904W        W15433  21.952  30.806   2.683
43905W        W15434  30.909  41.527   9.835
43906W        W15435  35.059  21.194   2.867
43907W        W15436  35.422  21.997  13.708
43908W        W15437  41.654  16.280   2.358
43909W        W15438  40.151   7.575  13.432
43910W        W15439  23.300   1.311  14.368
43911W        W15440  42.374  42.029  11.955
43912W        W15441  23.153  18.039  12.807
43913W        W15442  23.117  33.650  14.869
43914W        W15443  25.559  36.887   0.756
43915W        W15444  26.945  35.583   3.149
43916W        W15445  37.495  31.191  12.697
43917W        W15446   1.054   4.262   4.521
43918W        W15447  26.444  10.133   2.840
43919W        W15448  30.764  39.004   9.984
43920W        W15449  28.688   2.830   0.955
43921W        W15450  42.753  23.499  11.320
43922W        W15451  34.314  34.605  12.685
43923W        W15452  11.391   4.547  14.970
43924W        W15453  36.923   6.869   4.064
43925W        W15454  38.900   5.284   1.374
43926W        W15455   3.921  36.339  12.867
43927W        W15456   1.903  34.451   0.006
43928W        W15457  40.377  27.003   3.115
43929W        W15458  27.898  14.603   3.812
43930W        W15459  11.578  17.764  13.400
43931W        W15460  30.436  20.566   2.380
43932W        W15461  17.692  41.365  12.615
43933W        W15462  44.869  35.843  13.785
43934W        W15463   8.750  19.627  13.517
43935W        W15464   5.868  41.718   4.858
43936W        W15465  17.574  19.103   4.157
43937W        W15466  16.523  35.898   4.167
43938W        W15467  38.966  36.379  10.764
43939W        W15468  21.695  21.158   3.749
43940W        W15469  11.100  43.868   1.283
43941W        W15470  42.350  34.471   4.788
43942W        W15471   1.153  18.068   1.847
43943W        W15472  10.259  22.088   2.392
43944W        W15473  17.981  11.316  14.953
43945W        W15474  21.636  13.034   3.230
43946W        W15475  41.021   1.380  14.757
43947W        W15476  13.053  35.242  12.262
43948W        W15477  10.052  42.223  13.811
43949W        W15478  23.071  41.902  10.252
43950W        W15479  36.055  32.580  13.559
43951W        W15480  23.460  12.726  13.460
43952W        W15481  43.304  20.969   0.694
43953W        W15482  34.336  11.430   1.763
43954W        W15483  21.111   9.909  10.747
43955W        W15484  34.415  26.592   3.229
43956W        W15485   1.829  43.596  11.165
43957W        W15486  14.534  38.038  13.840
43958W        W15487  27.128   7.488   1.283
43959W        W15488  24.754  12.152   0.739
43960W        W15489  27.018  44.869  11.926
43961W        W15490   8.247   1.032   1.736
43962W        W15491  29.161  11.154   4.275
43963W        W15492  24.248  30.635   4.040
43964W        W15493  31.352   8.439  11.063
43965W        W15494  31.041  40.779  12.942
43966W        W15495   0.950  38.017   4.807
43967W        W15496  36.440  11.196   4.458
43968W        W15497  38.641  39.992   2.266
43969W        W15498  34.391   6.612  13.284
43970W        W15499  19.077  17.005  14.872
43971W        W15500  25.244  23.644  12.027
43972W        W15501  24.753  34.165   1.419
43973W        W15502   6.830  13.081   1.319
43974W        W15503  27.606  23.296  14.877
43975W        W15504  17.080   4.666   1.290
43976W        W15505  36.158  25.176   4.516
43977W        W15506  15.594  32.687  10.293
43978W        W15507  21.230  21.909  14.369
43979W        W15508  32.643   0.509   0.402
43980W        W15509  13.042  20.699   1.185
43981W        W15510  26.184   9.779  13.382
43982W        W15511   3.753   7.284   0.325
43983W        W15512  30.446  34.864   1.306
43984W        W15513  40.491   5.741   3.601
43985W        W15514   3.735  41.357   1.196
43986W        W15515  17.083  13.695   3.112
43987W        W15516  10.088   8.218  13.012
43988W        W15517  15.032   5.920   4.117
43989W        W15518   9.829  10.096   2.676
43990W        W15519  21.105   5.523  14.929
43991W        W15520  37.004  15.063  13.068
43992W        W15521   3.499   6.345  13.565
43993W        W15522  24.905  41.968  12.868
43994W        W15523  10.239  39.786  14.635
43995W        W15524  36.625  34.799  13.481
43996W        W15525  28.217  26.648  13.506
43997W        W15526  29.553   2.482   0.779
43998W        W15527  37.834  15.075  14.261
43999W        W15528  39.847   4.723   0.355
44000W        W15529   7.079  14.869   0.415
44001W        W15530  13.742  36.414  12.223
44002W        W15531   4.811  27.772   2.256
44003W        W15532  36.405  24.430   2.724
44004W        W15533  30.940  34.488  13.093
44005W        W15534   0.858  39.858  12.383
44006W        W15535  41.507   8.299   0.778
44007W        W15536  12.102  10.156  11.060
44008W        W15537  18.759  43.058  10.459
44009W        W15538  37.591  16.753  11.599
44010W        W15539  15.241  24.654  11.985
44011W        W15540  40.902  14.227  14.983
44012W        W15541  29.738  13.308   3.671
44013W        W15542   0.440  39.872   1.441
44014W        W15543  16.248  35.920  13.373
44015W        W15544  32.696  40.106   2.201
44016W        W15545  23.177  36.231   0.511
44017W        W15546  12.125  30.437   0.272
44018W        W15547  44.017  43.336  12.970
44019W        W15548  44.342  30.897  11.630
44020W        W15549  31.773  28.162   3.008
44021W        W15550  25.578  12.903   4.099
44022W        W15551  15.742  34.011   2.136
44023W        W15552   1.998  10.812  12.324
44024W        W15553   5.131  41.471   1.036
44025W        W15554  22.134  23.204   3.773
44026W        W15555  28.136  22.351  11.254
44027W        W15556   9.203  11.174  14.345
44028W        W15557  33.537   7.886   2.734
44029W        W15558  41.930  31.121   1.898
44030W        W15559  37.964   1.008  14.972
44031W        W15560   5.395   4.505   0.377
44032W        W15561  39.899  34.388   4.523
44033W        W15562   5.780  30.215  11.942
44034W        W15563  40.024  27.984  11.473
44035W        W15564  23.692  28.556   4.130
44036W        W15565  20.689  17.106   0.335
44037W        W15566  11.835  31.999   0.630
44038W        W15567  31.043  18.145  14.335
44039W        W15568  29.925  31.674  12.915
44040W        W15569  29.199   7.638   3.924
44041W        W15570  29.520  33.212   2.304
44042W        W15571   5.425  20.011  13.268
44043W        W15572  17.700  33.326   0.744
44044W        W15573  30.154  32.634   3.925
44045W        W15574  29.383  28.717  14.929
44046W        W15575  17.959   7.850   1.306
44047W        W15576   3.804  42.842  12.270
44048W        W15577  33.189  36.174  14.154
44049W        W15578  21.145  19.327   3.164
44050W        W15579  21.626   5.650  11.930
44051W        W15580  24.108  32.606   1.438
44052W        W15581  32.059  44.887  14.473
44053W        W15582  31.876  32.910   3.154
44054W        W15583   4.960  17.098  13.981
44055W        W15584  17.550  39.023  11.039
44056W        W15585   6.780  29.665   4.107
44057W        W15586  37.439  36.371   0.477
44058W        W15587   9.352   5.973  12.390
44059W        W15588   6.629  25.725  13.305
44060W        W15589  24.824  23.768   2.824
44061W        W15590  35.203  20.819  11.140
44062W        W15591  16.362  41.349  11.727
44063W        W15592  37.052   5.305   4.152
44064W        W15593  14.446  39.516  14.755
44065W        W15594   7.623  14.164  11.991
44066W        W15595  32.315  27.155   1.439
44067W        W15596  42.338  40.984  13.194
44068W        W15597  37.709  39.598   3.107
44069W        W15598  21.198  35.504   3.585
44070W        W15599  38.994  36.495   4.409
44071W        W15600  21.207  36.844   4.011
44072W        W15601  44.866  37.499  11.063
44073W        W15602  26.704  15.801   3.814
44074W        W15603   4.455  25.064   4.281
44075W        W15604  40.048  29.708   0.788
44076W        W15605  33.566   8.457   0.297
44077W        W15606  39.313  25.100   3.609
44078W        W15607  12.240  17.894   3.806
44079W        W15608  26.049  44.574  10.647
44080W        W15609  10.717  31.815   1.482
44081W        W15610  24.576   7.089   2.022
44082W        W15611  27.726  27.967   4.295
44083W        W15612  26.441   2.393  11.570
44084W        W15613  38.870   2.692  13.862
44085W        W15614  20.491  17.574  12.882
44086W        W15615  36.557  36.295   1.437
44087W        W15616  25.608   3.133  12.528
44088W        W15617   2.402   5.711   0.949
44089W        W15618  10.371  10.333   2.298
44090W        W15619  17.284  14.160   0.854
44091W        W15620  34.577  42.536  13.296
44092W        W15621   6.324  43.010  10.700
44093W        W15622  17.200   2.253  13.044
44094W        W15623  11.439  30.151  14.818
44095W        W15624  37.041  24.448   4.585
44096W        W15625  37.974  13.920  12.097
44097W        W15626  18.509  31.737  11.133
44098W        W15627  20.545  13.306  10.535
44099W        W15628  37.628  19.782   0.915
44100W        W15629  38.028   7.860  14.020
44101W        W15630  25.130  22.638   0.290
44102W        W15631  28.672  10.616  13.365
44103W        W15632  43.615  19.040  14.687
44104W        W15633  10.719  20.286   2.718
44105W        W15634  12.071   8.387  12.571
44106W        W15635  22.996  42.902  12.061
44107W        W15636  38.527  12.059   4.101
44108W        W15637  43.256   0.204  12.980
44109W        W15638   8.183  12.434  13.454
44110W        W15639  12.405  24.350  11.978
44111W        W15640  33.967  24.285  11.550
44112W        W15641  16.860  31.012   1.794
44113W        W15642  16.035  24.328  12.492
44114W        W15643  21.195  31.156  13.537
44115W        W15644  34.662   6.464   3.793
44116W        W15645  19.039  20.050  10.713
44117W        W15646   8.147  20.167   9.782
44118W        W15647  21.942  24.650  10.587
44119W        W15648   9.135  24.811  10.822
44120W        W15649  25.594  23.141   0.916
44121W        W15650  36.207  24.105   2.245
44122W        W15651  28.871  34.090  11.188
44123W        W15652  21.684   6.419   4.087
44124W        W15653  37.775  43.415  11.054
44125W        W15654  28.976  31.174  13.725
44126W        W15655   1.239   1.873   4.689
44127W        W15656  20.073   4.858  11.102
44128W        W15657  24.674  32.419   4.160
44129W        W15658   4.614  32.389   0.037
44130W        W15659  12.886  29.845   4.281
44131W        W15660  31.901  24.483  11.906
44132W        W15661  32.085  30.094  12.131
44133W        W15662  34.339  10.260  12.987
44134W        W15663  38.391  20.522  12.825
44135W        W15664  13.336  42.994  12.031
44136W        W15665  19.655  14.006   9.800
44137W        W15666  12.801  19.594  13.939
44138W        W15667  19.548  41.575   3.799
44139W        W15668  23.468  38.560  14.561
44140W        W15669  25.751  37.968  11.051
44141W        W15670   7.980  20.673   0.189
44142W        W15671  14.969   5.682   3.669
44143W        W15672  14.641  30.816   0.885
44144W        W15673  29.584  11.398  14.835
44145W        W15674  44.193   7.316  10.997
44146W        W15675  30.459  34.599  11.603
44147W        W15676  18.063  15.114   4.355
44148W        W15677  25.978  15.304   0.875
44149W        W15678  31.051  24.724  13.049
44150W        W15679   2.429  20.050   1.827
44151W        W15680  32.291  26.846   5.018
44152W        W15681  33.433  30.725  11.658
44153W        W15682  10.636  38.949  11.080
44154W        W15683  25.010   6.481   0.217
44155W        W15684  42.904   4.011   4.478
44156W        W15685  15.138  43.572   2.253
44157W        W15686   5.691  26.309   2.070
44158W        W15687   9.444  11.496   3.586
44159W        W15688  27.156  12.358   2.595
44160W        W15689  13.667  10.650   2.788
44161W        W15690  20.222  29.283   2.151
44162W        W15691  14.375  16.309  11.128
44163W        W15692  22.786  42.464   4.857
44164W        W15693  25.420   4.847  11.101
44165W        W15694  35.206  12.152  10.383
44166W        W15695  40.950   8.618  11.186
44167W        W15696  34.303  38.081   2.269
44168W        W15697   7.184   6.635   4.195
44169W        W15698  35.917  41.891  13.972
44170W        W15699  34.082   0.286  14.852
44171W        W15700  42.211  40.516  12.969
44172W        W15701  23.769  18.034   2.406
44173W        W15702   5.181   4.692  10.729
44174W        W15703   9.118  21.774  13.419
44175W        W15704  35.049  37.613  10.084
44176W        W15705  43.586  34.163  14.824
44177W        W15706   0.942  32.332   0.297
44178W        W15707  31.046  41.320   1.753
44179W        W15708  16.859   6.741   0.510
44180W        W15709   3.985   0.763   1.659
44181W        W15710  20.557  39.636   0.367
44182W        W15711  13.065  39.762  13.244
44183W        W15712  28.676  37.859   2.909
44184W        W15713  12.549  31.366  12.143
44185W        W15714  25.605   3.084  10.284
44186W        W15715   0.738  17.252  11.941
44187W        W15716  16.186  23.942   4.138
44188W        W15717  37.779  19.774   3.744
44189W        W15718  24.660  16.718  13.499
44190W        W15719  13.044   5.604  10.847
44191W        W15720  33.887  34.813  12.457
44192W        W15721   8.197   4.961   2.344
44193W        W15722   4.643  39.886  11.843
44194W        W15723  11.878  24.790  10.910
44195W        W15724  30.700  26.505   4.609
44196W        W15725  24.674  15.678  10.707
44197W        W15726  44.181  38.131  12.113
44198W        W15727  33.781   1.455   1.953
44199W        W15728  18.431  42.450   0.712
44200W        W15729  39.401   9.038   0.332
44201W        W15730  35.646  36.257  12.133
44202W        W15731  23.934   7.116  11.602
44203W        W15732  31.680  15.613  14.460
44204W        W15733  24.748  23.611  12.993
44205W        W15734  43.132  24.176   0.789
44206W        W15735  27.448  32.148  13.200
44207W        W15736   5.336  36.316  12.797
44208W        W15737  37.453   8.389   4.587
44209W        W15738  44.527   9.049   1.931
44210W        W15739  12.368  20.758   0.865
44211W        W15740  40.063  19.215  14.418
44212W        W15741   8.081  37.629   2.834
44213W        W15742  40.318  18.063   4.641
44214W        W15743  11.085  36.495   0.300
44215W        W15744  26.835  19.593   2.396
44216W        W15745   2.708   3.037   1.778
44217W        W15746   3.926  22.800   0.819
44218W        W15747  19.056  24.989   1.880
44219W        W15748  43.456   0.480  13.393
44220W        W15749   7.746  34.179  11.672
44221W        W15750  22.295  21.752  12.878
44222W        W15751   9.734  22.202   1.089
44223W        W15752   6.870  20.038  12.612
44224W        W15753  32.273  14.761   0.824
44225W        W15754  12.129  30.209  11.178
44226W        W15755   2.338   2.470   3.422
44227W        W15756  31.854  17.340   3.733
44228W        W15757  37.316  14.399  13.518
44229W        W15758   6.533  39.553   4.791
44230W        W15759  12.288  22.992   0.164
44231W        W15760  28.005  29.049   4.278
44232W        W15761   9.254  28.627   3.977
44233W        W15762  17.158  27.215   4.766
44234W        W15763   3.337  17.791   1.624
44235W        W15764  35.536  39.514   1.583
44236W        W15765  31.135  32.475  11.071
44237W        W15766   6.886   7.817   0.185
44238W        W15767  32.551  33.189   0.428
44239W        W15768  20.750  13.601  12.128
44240W        W15769  30.005  27.054  10.388
44241W        W15770  34.686  32.425  11.473
44242W        W15771   9.681  32.059  12.937
44243W        W15772  15.093  12.626  12.847
44244W        W15773  24.669   6.594  11.952
44245W        W15774  11.950  40.676   2.831
44246W        W15775  10.331   1.551   3.773
44247W        W15776  10.373  24.225   3.096
44248W        W15777  39.292  29.427  13.842
44249W        W15778  17.925  15.404  13.196
44250W        W15779  22.177   1.415   0.987
44251W        W15780  11.962  37.058  11.191
44252W        W15781   6.422  36.498  13.857
44253W        W15782  41.455  43.943   3.658
44254W        W15783  22.780  39.873   0.914
44255W        W15784  10.681  18.286  13.409
44256W        W15785  40.370  20.845   0.806
44257W        W15786  14.443  25.155   4.333
44258W        W15787  17.220  23.598   1.744
44259W        W15788  36.496  42.365   3.543
44260W        W15789  29.211  15.219   3.670
44261W        W15790   4.683  32.161   0.872
44262W        W15791  42.568  20.206   2.148
44263W        W15792  44.816  11.645  10.766
44264W        W15793   2.059  13.167   4.082
44265W        W15794  27.090  36.628   4.097
44266W        W15795  42.195  23.210   4.251
44267W        W15796  38.850  22.070  11.938
44268W        W15797  15.524  33.469  13.121
44269W        W15798  31.894   9.850   0.858
44270W        W15799  35.626  41.834   1.367
44271W        W15800  39.378  19.165  12.957
44272W        W15801  38.951   9.136  11.250
44273W        W15802  11.276  25.937   3.418
44274W        W15803  12.758  11.369   0.254
44275W        W15804   9.330   8.554   4.790
44276W        W15805  20.030   1.426   2.477
44277W        W15806  37.344  20.535   1.912
44278W        W15807  14.144  20.577   4.155
44279W        W15808  26.860  31.100   3.732
44280W        W15809  11.705  16.731   0.830
44281W        W15810  32.009  31.372   2.861
44282W        W15811  11.402  24.159   2.367
44283W        W15812  39.611   0.220  11.597
44284W        W15813  18.315  35.500   4.036
44285W        W15814  10.089   9.200   4.709
44286W        W15815  13.232  33.127  12.623
44287W        W15816   0.963  23.505   0.298
44288W        W15817  15.868  35.452   4.788
44289W        W15818  36.061  16.488   4.140
44290W        W15819  38.574  25.744   2.160
44291W        W15820  13.921  23.930  11.097
44292W        W15821  40.328  10.043  13.127
44293W        W15822  28.105  21.819  11.325
44294W        W15823  16.206  44.868  12.473
44295W        W15824  35.001  12.376   0.805
44296W        W15825   6.216  25.535  14.676
44297W        W15826  28.375  23.027   0.554
44298W        W15827  15.727  20.454  13.423
44299W        W15828  39.868   7.924   2.291
44300W        W15829  38.363  15.587   0.541
44301W        W15830  20.054  42.753   2.693
44302W        W15831  17.299   0.379  11.568
44303W        W15832  14.209  42.049   0.388
44304W        W15833  39.547  33.675  14.983
44305W        W15834  20.117  24.605  10.746
44306W        W15835  26.865  16.786   2.189
44307W        W15836   9.099   5.952   1.621
44308W        W15837  27.426  17.712   1.386
44309W        W15838  14.852  30.515  14.315
44310W        W15839   4.238  43.768   2.918
44311W        W15840  34.794   8.388   4.570
44312W        W15841  15.233  36.698   2.295
44313W        W15842  30.600  33.377   2.273
44314W        W15843  19.818  42.746   3.175
44315W        W15844  32.416   9.356  13.310
44316W        W15845  23.729   0.286  12.622
44317W        W15846   3.076   0.131  14.884
44318W        W15847  34.866  27.185   3.187
44319W        W15848  37.413  14.993  11.137
44320W        W15849  32.482  26.930   1.899
44321W        W15850  30.020  16.361   0.748
44322W        W15851  10.838   2.803  12.003
44323W        W15852  14.319  37.932   2.544
44324W        W15853  28.683  36.127   0.631
44325W        W15854   1.345   9.137  10.713
44326W        W15855  34.072  41.042   3.185
44327W        W15856  37.129   8.871   1.711
44328W        W15857  10.343  39.037  13.402
44329W        W15858   9.639  17.228  11.575
44330W        W15859  28.042   7.337  14.208
44331W        W15860  26.148  32.449  11.982
44332W        W15861  13.750   1.007  13.868
44333W        W15862  15.523  14.511  11.319
44334W        W15863  10.911  43.302  14.042
44335W        W15864  32.198  22.898   0.278
44336W        W15865  44.685   0.951   2.879
44337W        W15866   8.742  30.413   1.365
44338W        W15867  23.632  38.029   1.535
44339W        W15868  38.553   0.335  13.856
44340W        W15869  40.646  40.967  12.685
44341W        W15870  30.499  42.395   3.186
44342W        W15871   2.464  10.740  12.028
44343W        W15872  38.117  43.103  13.994
44344W        W15873  28.670   4.372  13.455
44345W        W15874  37.717  12.518  14.064
44346W        W15875  24.961  38.957  14.198
44347W        W15876  41.548  12.231   0.686
44348W        W15877  35.960   3.844   3.824
44349W        W15878  16.205  33.207  12.982
44350W        W15879  21.089  26.219   1.033
44351W        W15880   8.928  25.737   1.190
44352W        W15881  38.123  22.125  11.563
44353W        W15882  29.424   2.864   2.147
44354W        W15883  15.085   1.036   0.231
44355W        W15884  18.782  44.808  13.595
44356W        W15885  25.657  19.485   2.227
44357W        W15886  37.054  19.016  10.555
44358W        W15887  17.162  30.846   4.118
44359W        W15888  26.210  41.066   0.724
44360W        W15889  39.288  17.334   2.118
44361W        W15890  44.412  42.010   1.489
44362W        W15891  29.419  44.957  12.989
44363W        W15892  43.222  19.603   1.918
44364W        W15893  35.544  38.790  14.349
44365W        W15894  19.752  18.658   1.012
44366W        W15895  15.087  21.722  11.073
44367W        W15896   1.948   2.451   0.621
44368W        W15897  43.851  38.930  10.747
44369W        W15898   7.219   2.153  13.610
44370W        W15899   6.252  28.853  10.386
44371W        W15900  21.469  31.455  13.186
44372W        W15901  28.981  38.424  10.632
44373W        W15902   8.380   0.243   0.393
44374W        W15903  38.407  41.783   1.427
44375W        W15904   9.233  22.894  10.380
44376W        W15905  13.822  28.385  12.052
44377W        W15906  42.312  12.761  12.955
44378W        W15907   8.527  36.945  10.656
44379W        W15908  16.304  12.530   3.171
44380W        W15909  28.159  26.594  14.443
44381W        W15910  38.032  37.990   4.715
44382W        W15911  12.029  19.111   0.670
44383W        W15912  21.078  25.884  13.486
44384W        W15913  35.108   7.934   1.697
44385W        W15914  32.017  23.784  13.320
44386W        W15915  17.186  38.030  13.942
44387W        W15916  43.507  31.579   3.765
44388W        W15917  20.728  26.167   0.317
44389W        W15918  44.353  11.800   2.739
44390W        W15919   5.128  35.912  14.797
44391W        W15920  26.575  21.963   4.082
44392W        W15921  16.361  18.286  14.893
44393W        W15922  20.460  24.490   1.947
44394W        W15923  26.145   3.426  14.739
44395W        W15924  32.295  19.806   2.669
44396W        W15925   4.367  15.831   2.745
44397W        W15926  28.429  44.776  10.703
44398W        W15927   6.508  20.459   5.329
44399W        W15928  32.464  21.677   0.503
44400W        W15929   0.913  27.174  11.112
44401W        W15930   2.084  18.682   0.315
44402W        W15931  23.431  19.597   3.629
44403W        W15932  32.464   4.360   0.576
44404W        W15933  11.458  34.832   1.342
44405W        W15934  33.074  40.239   4.180
44406W        W15935  37.595  32.581  11.054
44407W        W15936   5.292  15.380   4.454
44408W        W15937   5.221  36.384  11.069
44409W        W15938  29.456  17.672  12.894
44410W        W15939  16.739   8.893  11.284
44411W        W15940  15.592  22.499  12.591
44412W        W15941  37.757  39.471   4.038
44413W        W15942   4.403  22.754   2.212
44414W        W15943  21.127   2.947   3.651
44415W        W15944  29.883  22.491   1.369
44416W        W15945  37.111   9.389   2.144
44417W        W15946  24.171  37.469  12.580
44418W        W15947  42.029  10.700  14.561
44419W        W15948  38.147   7.193  11.379
44420W        W15949   0.367  20.487   2.181
44421W        W15950   0.268  38.455   4.637
44422W        W15951   8.206   3.760   2.662
44423W        W15952  41.165   9.204  11.700
44424W        W15953   5.208  21.448   3.059
44425W        W15954  26.029  34.032   3.628
44426W        W15955   0.688  15.171  11.649
44427W        W15956  27.647  14.079   5.004
44428W        W15957   2.083  23.230  11.944
44429W        W15958   0.726  32.486   4.983
44430W        W15959  27.498  43.044  14.351
44431W        W15960  14.853  28.122  14.907
44432W        W15961  21.112   0.479  12.627
44433W        W15962  19.157  40.007  14.098
44434W        W15963  44.927  42.425   3.218
44435W        W15964   8.423  25.695   1.282
44436W        W15965  11.927  42.303  10.765
44437W        W15966  11.467  30.113   0.780
44438W        W15967  42.081  18.764   0.302
44439W        W15968  37.566  43.533   3.178
44440W        W15969  32.462   3.932   3.232
44441W        W15970   0.900  30.055  12.463
44442W        W15971  11.431  43.355   2.602
44443W        W15972  40.984  36.070   2.227
44444W        W15973  39.918   1.851  13.834
44445W        W15974  29.496  15.535   1.808
44446W        W15975  15.116  43.211  14.847
44447W        W15976  11.623  22.682   0.661
44448W        W15977   0.870   1.620   2.817
44449W        W15978  18.083  34.330  14.863
44450W        W15979  39.792  14.786  12.842
44451W        W15980  26.512  37.659  12.062
44452W        W15981   7.118  41.525   2.129
44453W        W15982  40.200  35.991   4.244
44454W        W15983  35.818  22.227   4.120
44455W        W15984   3.255  36.875  11.676
44456W        W15985   5.915  16.561   1.328
44457W        W15986  36.385  40.128   1.828
44458W        W15987  36.236  40.490   2.188
44459W        W15988   9.174  27.768   2.997
44460W        W15989   4.281   8.646   4.248
44461W        W15990  10.806  25.939   4.584
44462W        W15991   5.156  23.717   2.831
44463W        W15992   4.912  35.092   1.409
44464W        W15993  21.858  43.322  11.025
44465W        W15994  38.841  42.676  11.653
44466W        W15995   3.626  36.513  13.941
44467W        W15996  38.462  13.155  12.086
44468W        W15997  31.147  14.019  14.683
44469W        W15998  35.043   2.761   1.785
44470W        W15999  22.608  22.541  14.770
44471W        W16000  10.333   8.169   0.061
44472W        W16001   8.121  19.350   3.803
44473W        W16002   6.230  30.458  12.013
44474W        W16003  16.581  18.015  11.847
44475W        W16004  36.564  22.806  11.925
44476W        W16005  39.661  40.762  10.680
44477W        W16006   5.856  13.157   4.541
44478W        W16007  40.737  35.323   1.365
44479W        W16008  19.265  36.479  11.319
44480W        W16009  38.832  27.694   3.603
44481W        W16010  11.397  15.324  11.607
44482W        W16011  29.181  22.758  13.962
44483W        W16012  42.226  21.032   3.660
44484W        W16013  35.991   5.582  12.430
44485W        W16014  35.189  28.048  13.516
44486W        W16015  37.952  21.082  13.402
44487W        W16016  43.594  20.597   4.633
44488W        W16017  20.354  20.642  13.379
44489W        W16018  44.817  39.175  12.966
44490W        W16019  42.645  31.510  11.961
44491W        W16020  16.577  11.862   2.391
44492W        W16021  29.256   2.240   2.210
44493W        W16022  39.287  43.825  11.958
44494W        W16023   3.752  41.241  12.483
44495W        W16024  14.369   4.251   1.232
44496W        W16025  32.970  22.230  12.159
44497W        W16026  22.764  41.718   2.149
44498W        W16027  13.799  39.590  11.092
44499W        W16028  23.955  10.705   2.304
44500W        W16029  35.005   0.973   4.857
44501W        W16030  14.705   9.584   0.350
44502W        W16031  22.703  23.393  13.538
44503W        W16032  18.304   7.426  14.263
44504W        W16033  43.599   7.593  13.324
44505W        W16034   6.187  19.085  13.169
44506W        W16035  32.860  28.643  11.113
44507W        W16036  26.225   2.346   4.693
44508W        W16037  35.935  19.702  13.147
44509W        W16038  26.600   4.265   2.423
44510W        W16039  38.985  26.321   2.024
44511W        W16040   9.899  18.392  14.915
44512W        W16041  27.888  36.071  12.847
44513W        W16042  19.179  12.659  12.522
44514W        W16043  33.523  28.462   1.613
44515W        W16044   7.216   9.950  14.421
44516W        W16045  20.532   3.467  11.368
44517W        W16046   4.245  24.018   0.350
44518W        W16047  35.476  27.596  11.901
44519W        W16048  42.842   8.696   0.950
44520W        W16049  13.955   4.184  13.421
44521W        W16050  31.907  22.216   4.128
44522W        W16051  26.820  36.590   4.534
44523W        W16052  32.189  22.025   4.527
44524W        W16053   7.957  33.915   4.275
44525W        W16054  19.655  28.054  11.183
44526W        W16055   0.298   0.662   1.655
44527W        W16056   2.862  27.050   0.918
44528W        W16057  31.027  37.867  13.405
44529W        W16058  27.287  13.383  13.884
44530W        W16059   9.318  39.001  11.614
44531W        W16060  41.473  30.856  14.000
44532W        W16061  11.126   5.420  12.852
44533W        W16062  38.587   8.799   2.140
44534W        W16063  19.167   8.242   4.430
44535W        W16064  41.901   7.159   3.679
44536W        W16065   7.717  35.970  10.239
44537W        W16066   2.975  34.877   0.964
44538W        W16067  39.481  14.278  11.580
44539W        W16068  41.955   7.962   4.125
44540W        W16069  30.718  35.848  10.289
44541W        W16070  38.874  34.675   4.562
44542W        W16071  19.753   7.235  11.217
44543W        W16072   2.391  31.665  13.071
44544W        W16073  24.888   3.502   4.560
44545W        W16074  22.378  24.695   4.567
44546W        W16075  10.205  41.700   4.545
44547W        W16076  19.559  21.048   0.794
44548W        W16077  34.137  43.404  11.719
44549W        W16078  18.180   1.742  14.148
44550W        W16079  30.919  19.813   3.105
44551W        W16080   5.103  20.180   1.014
44552W        W16081   7.007  44.976   4.888
44553W        W16082  42.901  29.596   1.456
44554W        W16083  25.583  20.954  13.897
44555W        W16084  29.831  28.118  13.870
44556W        W16085  20.226   0.031  11.663
44557W        W16086   7.255  16.620  12.379
44558W        W16087   5.236  13.164   1.925
44559W        W16088  37.405  37.341   0.181
44560W        W16089  17.753  12.846  11.510
44561W        W16090   7.336  31.474   4.039
44562W        W16091  23.165  28.611  11.904
44563W        W16092  38.947  12.179   4.369
44564W        W16093  21.132   8.677  14.909
44565W        W16094  36.739  35.600   2.734
44566W        W16095   3.575  23.283   0.320
44567W        W16096  44.647  16.744   3.288
44568W        W16097  44.496  39.830  14.829
44569W        W16098  17.170  43.506  14.016
44570W        W16099  26.705  25.703  12.061
44571W        W16100  28.147  12.064   1.699
44572W        W16101  38.491  23.812  12.138
44573W        W16102  40.263  40.412   0.389
44574W        W16103  24.793  19.116  13.809
44575W        W16104   8.825   4.329  11.915
44576W        W16105  28.050  13.611   4.834
44577W        W16106  36.795   6.938  12.563
44578W        W16107  27.043   7.824  13.252
44579W        W16108  17.615  28.571  11.975
44580W        W16109  19.236   4.027   4.207
44581W        W16110   7.412  33.847   2.695
44582W        W16111  20.850   4.699  12.142
44583W        W16112  29.300  40.498   4.605
44584W        W16113   6.825   3.471  11.930
44585W        W16114   6.946  27.107   3.561
44586W        W16115  14.868  20.644   0.951
44587W        W16116  37.315  28.010   4.391
44588W        W16117  44.967   2.487  11.002
44589W        W16118  35.327   3.197   1.677
44590W        W16119  22.132  37.096   4.395
44591W        W16120  42.315  37.031  10.686
44592W        W16121  14.773   6.584   1.927
44593W        W16122  40.763  40.403   0.990
44594W        W16123  23.608  24.238   0.393
44595W        W16124  27.816  39.408   3.232
44596W        W16125  22.965  10.798  14.832
44597W        W16126  13.262  44.873  10.016
44598W        W16127  25.623  28.545   4.487
44599W        W16128  19.800  18.697   3.781
44600W        W16129   3.198  36.108   1.889
44601W        W16130  16.826  26.949  13.034
44602W        W16131  30.431  16.760   2.815
44603W        W16132  21.518  28.500  14.024
44604W        W16133  16.289   1.606  12.363
44605W        W16134   5.680  22.299   0.754
44606W        W16135   4.072  44.220  14.030
44607W        W16136  24.354  21.253   1.334
44608W        W16137  19.954  19.706  12.183
44609W        W16138  30.422   0.332   0.859
44610W        W16139   4.165  25.557  14.219
44611W        W16140  43.936  20.769   3.742
44612W        W16141  25.777   0.856  14.544
44613W        W16142  25.028  41.889  10.987
44614W        W16143  20.288  13.564  11.915
44615W        W16144  21.215  22.531  14.896
44616W        W16145  37.151  29.651   2.658
44617W        W16146  31.188  22.437  11.406
44618W        W16147  43.795  44.808  11.396
44619W        W16148  35.783  13.103   2.675
44620W        W16149  10.044  40.438   3.164
44621W        W16150   7.274  27.255  13.882
44622W        W16151   3.790  21.169   4.111
44623W        W16152  11.744   0.063   0.390
44624W        W16153  18.198   2.673  14.377
44625W        W16154  12.837  29.520   1.333
44626W        W16155  37.496  44.754  12.931
44627W        W16156  10.720  29.681  14.957
44628W        W16157  32.662  24.188   3.697
44629W        W16158  42.848   7.907  12.909
44630W        W16159  33.844  43.973   1.354
44631W        W16160  30.496  21.716  14.539
44632W        W16161  44.495  28.654  12.516
44633W        W16162   3.835  43.444  11.115
44634W        W16163  10.812  22.120   0.020
44635W        W16164  25.485  13.758  13.054
44636W        W16165  17.243  18.658  12.101
44637W        W16166  35.522  42.034   1.894
44638W        W16167  39.983  18.345  14.233
44639W        W16168  40.267  35.031   2.199
44640W        W16169   5.469  11.817  14.834
44641W        W16170  29.621  20.022  10.729
44642W        W16171   9.094  21.626   1.280
44643W        W16172  28.465  30.864   0.992
44644W        W16173   9.390  39.903   3.996
44645W        W16174  41.828   5.502  12.574
44646W        W16175  18.995  29.425  12.553
44647W        W16176  27.515  29.333   3.884
44648W        W16177   7.027  10.727  14.018
44649W        W16178  20.637   8.978  11.331
44650W        W16179  21.764  38.529  13.684
44651W        W16180  23.112  16.564  13.508
44652W        W16181  21.993  29.445  12.438
44653W        W16182  12.119  33.399   4.464
44654W        W16183  17.500  25.162   2.789
44655W        W16184  37.538   6.074   5.067
44656W        W16185   3.222  16.990  13.451
44657W        W16186  26.679  23.115   2.410
44658W        W16187   6.353  21.028  12.349
44659W        W16188   1.240  18.532   3.816
44660W        W16189   3.203  28.823   0.886
44661W        W16190   8.576   2.048   0.579
44662W        W16191   4.270  37.848  12.769
44663W        W16192   6.074  36.390   0.734
44664W        W16193  18.048  12.717  13.385
44665W        W16194  39.696  44.957   2.163
44666W        W16195  11.119  36.445   1.415
44667W        W16196   4.014  34.016  13.643
44668W        W16197  40.786  26.495  14.838
44669W        W16198  16.113   3.998  12.880
44670W        W16199  23.737  18.661  13.546
44671W        W16200  23.881   5.920   4.951
44672W        W16201  18.156  14.232   2.845
44673W        W16202  31.352   5.258   4.135
44674W        W16203   5.853   9.147  12.981
44675W        W16204  28.019  13.210   1.423
44676W        W16205  38.435   4.305   4.371
44677W        W16206  32.189   4.357   1.332
44678W        W16207  20.150  13.186   1.042
44679W        W16208   3.887  34.268   2.351
44680W        W16209   6.386  25.063  12.545
44681W        W16210   2.719  12.612  12.487
44682W        W16211  13.283  12.763   4.641
44683W        W16212  20.621  17.947  14.140
44684W        W16213  37.145  39.437  13.548
44685W        W16214  13.991  24.015   0.883
44686W        W16215  38.561   2.750   2.293
44687W        W16216  43.986   4.697  13.141
44688W        W16217   3.107   7.663   2.541
44689W        W16218  35.804  26.958  12.957
44690W        W16219  21.129   6.331   5.049
44691W        W16220   6.872  20.000   4.485
44692W        W16221  29.404  28.636  12.522
44693W        W16222  16.689  44.782   2.358
44694W        W16223   7.593  37.756  14.422
44695W        W16224   3.121  36.429  11.936
44696W        W16225  27.223  39.937  14.064
44697W        W16226   0.707  30.661  10.619
44698W        W16227  41.098  10.725  14.909
44699W        W16228  13.496  30.660   4.772
44700W        W16229   3.786  34.654  14.803
44701W        W16230  14.287  39.834   0.550
44702W        W16231  12.060   5.865  12.063
44703W        W16232  15.134  23.207  14.213
44704W        W16233  31.576  30.683  11.246
44705W        W16234   5.714  30.973   4.162
44706W        W16235  26.039  23.573   4.129
44707W        W16236  10.335  25.012  12.429
44708W        W16237  42.732  40.025  13.926
44709W        W16238   1.223  24.012  11.559
44710W        W16239  17.590  17.118   2.749
44711W        W16240  21.183   6.572   1.248
44712W        W16241  25.790  21.390   3.414
44713W        W16242  33.020  19.185  12.530
44714W        W16243  32.465  26.802  14.726
44715W        W16244   7.764  35.603  10.605
44716W        W16245  36.924   8.244   1.540
44717W        W16246   8.799  10.872   2.228
44718W        W16247  26.137  20.562   0.343
44719W        W16248   2.291   5.812  11.571
44720W        W16249  17.871  14.907  13.044
44721W        W16250  44.876  29.531   1.276
44722W        W16251   2.136   1.242  13.413
44723W        W16252  22.692  33.173  11.981
44724W        W16253  23.701  30.016   3.312
44725W        W16254   3.268  36.902   2.389
44726W        W16255   0.274  41.886  10.471
44727W        W16256  36.993  13.612  10.687
44728W        W16257  37.813  31.622   0.017
44729W        W16258   2.553  18.698   1.943
44730W        W16259  10.106  22.532   4.585
44731W        W16260  25.381   3.966  10.411
44732W        W16261   5.772  23.564  14.023
44733W        W16262   4.363  37.369  11.457
44734W        W16263   0.300  15.580   2.212
44735W        W16264  18.273  23.503  12.101
44736W        W16265  38.343  42.451   4.229
44737W        W16266  26.482  24.534   0.299
44738W        W16267   8.154  40.561  12.595
44739W        W16268  25.680  27.652   0.538
44740W        W16269   6.188  11.146   4.859
44741W        W16270  44.592  19.675  11.721
44742W        W16271  33.695  39.346   4.333
44743W        W16272  37.773  39.931   4.293
44744W        W16273  12.320  26.702  11.928
44745W        W16274   4.802  11.661   0.289
44746W        W16275  32.043   5.676  12.806
44747W        W16276  35.583  13.693  13.448
44748W        W16277  24.672   5.298   0.740
44749W        W16278  40.413  11.323   2.477
44750W        W16279  13.089  22.696  13.142
44751W        W16280  41.939  28.123   3.103
44752W        W16281  18.636  38.746  11.674
44753W        W16282  25.455  37.124  10.215
44754W        W16283  20.199  23.489   3.333
44755W        W16284  29.065  20.540  12.031
44756W        W16285   1.881  32.790   3.833
44757W        W16286  37.389  24.236  12.496
44758W        W16287  25.496  29.370   2.363
44759W        W16288  26.789  27.473   9.952
44760W        W16289  20.037  24.346  12.024
44761W        W16290  41.027  28.214  14.547
44762W        W16291   5.235   7.379   3.285
44763W        W16292  25.562   0.844   4.643
44764W        W16293  36.096   3.989   0.059
44765W        W16294   7.605  36.395  12.802
44766W        W16295  42.453  39.336  12.578
44767W        W16296  30.614  13.579   0.717
44768W        W16297  20.047  43.459  11.821
44769W        W16298  13.678  28.312  13.829
44770W        W16299  30.374  35.135   3.278
44771W        W16300  18.567  25.211   1.853
44772W        W16301  33.008  22.941  11.508
44773W        W16302  41.968  14.426   3.215
44774W        W16303   1.896  24.420  12.566
44775W        W16304  28.264  14.272  12.522
44776W        W16305  33.454  44.959   0.371
44777W        W16306  38.037   9.923   3.525
44778W        W16307   6.859  30.872  11.528
44779W        W16308  42.875   8.186  14.273
44780W        W16309  34.833   5.216  12.927
44781W        W16310  17.007  43.853   4.370
44782W        W16311   7.574  28.756   1.254
44783W        W16312  42.747  30.568  13.848
44784W        W16313  11.433  44.781  11.607
44785W        W16314  37.458   5.350   0.663
44786W        W16315  23.276  23.030  14.000
44787W        W16316  16.197  14.316   2.771
44788W        W16317  18.477  25.136   4.711
44789W        W16318  18.613  35.421  11.967
44790W        W16319   9.754  31.506   1.744
44791W        W16320  37.200  10.250   3.286
44792W        W16321  36.736  31.532  10.997
44793W        W16322  37.449  28.741   2.674
44794W        W16323  28.723  16.450   4.100
44795W        W16324  22.589  26.560   0.397
44796W        W16325  27.114  18.628  13.483
44797W        W16326  21.137  21.677   1.808
44798W        W16327  27.718  43.977  14.734
44799W        W16328   2.573  27.361   3.332
44800W        W16329  39.605  27.564   4.087
44801W        W16330  34.654  19.105  11.680
44802W        W16331  42.062  43.725  10.755
44803W        W16332  10.203  26.075  13.429
44804W        W16333  35.861  42.385   2.271
44805W        W16334  26.478   1.998  11.933
44806W        W16335   2.926   3.507  13.334
44807W        W16336  10.473   5.863  13.139
44808W        W16337  36.257  31.159  12.165
44809W        W16338  32.233  32.824   0.671
44810W        W16339  44.006  15.342   3.385
44811W        W16340  32.071   3.707  12.185
44812W        W16341  26.585  37.852   3.602
44813W        W16342  13.245  38.120  11.600
44814W        W16343  13.280   2.722   0.736
44815W        W16344  23.041  37.972   2.846
44816W        W16345   9.116  39.597  13.212
44817W        W16346  32.808  41.526   0.383
44818W        W16347   3.346  26.949  14.684
44819W        W16348   6.172  42.286  12.615
44820W        W16349  26.855  24.120  12.502
44821W        W16350  18.290  11.328  14.528
44822W        W16351  37.619  21.131   4.794
44823W        W16352   4.905  20.466  10.438
44824W        W16353  33.774   2.769   1.931
44825W        W16354  11.400  11.745   4.677
44826W        W16355   8.615  32.960  12.551
44827W        W16356  42.240  39.019   2.875
44828W        W16357  36.961  37.503   2.829
44829W        W16358  31.548  27.314   1.940
44830W        W16359  21.121   3.859  13.148
44831W        W16360   6.283  32.654  13.877
44832W        W16361  16.056  31.634   4.534
44833W        W16362  35.908  19.144   2.830
44834W        W16363  14.732  27.427   4.209
44835W        W16364   5.878  36.431  11.043
44836W        W16365  43.875  17.637   4.446
44837W        W16366  16.130  39.331  12.547
44838W        W16367  22.732  36.486   3.798
44839W        W16368   1.924  21.557  14.284
44840W        W16369  39.542  43.533   0.073
44841W        W16370   5.312  39.205   4.109
44842W        W16371  40.931  35.706   1.078
44843W        W16372  34.040  21.608   2.178
44844W        W16373  32.277   9.558  12.317
44845W        W16374  17.104   5.722   2.103
44846W        W16375  41.776  15.745  12.925
44847W        W16376   3.872  20.118  11.211
44848W        W16377  19.271  23.631  12.028
44849W        W16378  16.226   6.813   2.192
44850W        W16379  25.248   7.305   1.321
44851W        W16380   8.348  31.040  14.156
44852W        W16381   6.312  39.074  13.004
44853W        W16382  37.582  11.605   2.715
44854W        W16383  36.876  42.587   3.847
44855W        W16384  16.543  24.437   4.833
44856W        W16385  33.949  35.120   2.687
44857W        W16386  13.153  36.873   0.712
44858W        W16387  42.459  30.171   3.755
44859W        W16388  15.197  36.590   4.521
44860W        W16389  14.707   1.971   3.103
44861W        W16390  20.997  10.163   4.095
44862W        W16391  38.309  26.042  11.198
44863W        W16392  30.178  17.515  12.121
44864W        W16393  10.681  22.243   1.549
44865W        W16394   2.217  41.302   1.188
44866W        W16395  31.449  39.143  13.018
44867W        W16396  18.335  31.696  14.633
44868W        W16397   0.624  15.346  13.270
44869W        W16398  28.105  11.665  10.773
44870W        W16399  44.216  24.514  13.921
44871W        W16400  31.405   1.378   1.664
44872W        W16401  27.179  22.053   0.923
44873W        W16402  29.401  31.077  13.426
44874W        W16403  29.863  36.720  13.902
44875W        W16404   2.886   8.618  14.741
44876W        W16405  26.475  39.209   4.221
44877W        W16406  24.036  13.288  10.684
44878W        W16407  21.688  36.812  13.361
44879W        W16408   5.747  44.355   4.089
44880W        W16409   4.688  12.067   2.215
44881W        W16410  10.626   2.449   1.773
44882W        W16411  17.114  36.794  14.191
44883W        W16412  43.765  15.908  11.450
44884W        W16413  19.779  26.800   4.946
44885W        W16414  30.839  28.782   1.803
44886W        W16415  13.698  11.802  10.729
44887W        W16416   8.209  10.432  13.083
44888W        W16417  44.025   2.413   2.340
44889W        W16418  17.382  35.686   3.350
44890W        W16419   2.339  22.224  11.296
44891W        W16420  15.819  15.154  12.517
44892W        W16421  23.129  42.966   1.969
44893W        W16422   3.355  10.335  11.119
44894W        W16423   0.263  43.278   2.305
44895W        W16424   4.041  10.748   1.795
44896W        W16425  28.732  16.782   1.859
44897W        W16426  41.047  17.027   2.417
44898W        W16427  42.065  28.045   0.238
44899W        W16428  16.236  12.467   4.135
44900W        W16429  21.519   5.785   3.259
44901W        W16430  43.763  30.036   1.187
44902W        W16431   1.825  35.290  11.026
44903W        W16432  10.118  40.764   2.333
44904W        W16433   1.886  35.086   0.853
44905W        W16434   9.342  42.338   3.694
44906W        W16435  30.622  28.906  11.464
44907W        W16436  27.199   2.164   4.514
44908W        W16437  14.191  15.308   2.409
44909W        W16438   9.386   9.302   2.623
44910W        W16439  20.241  17.294  12.146
44911W        W16440  25.754  38.812   3.337
44912W        W16441  31.514  15.841   0.451
44913W        W16442  26.703  41.462   4.810
44914W        W16443  40.588  35.123   0.901
44915W        W16444  38.833  28.640  10.576
44916W        W16445  35.000  35.798   3.638
44917W        W16446  35.000  21.952   2.324
44918W        W16447   9.708  27.427   1.549
44919W        W16448   8.748  24.478  11.579
44920W        W16449  17.846  15.406  12.690
44921W        W16450  16.761  18.037   1.671
44922W        W16451  14.604  26.677   0.941
44923W        W16452   2.423   5.153   0.064
44924W        W16453  35.022   2.494  13.747
44925W        W16454  21.265  32.883   2.757
44926W        W16455  16.529  14.013  14.332
44927W        W16456  41.527  33.885  13.826
44928W        W16457  23.500  24.306   0.893
44929W        W16458   7.021  40.583  11.211
44930W        W16459  24.145  35.388   3.583
44931W        W16460  30.707  41.926  11.018
44932W        W16461  37.386   1.307  13.933
44933W        W16462   5.938  32.121  12.503
44934W        W16463  21.549  32.973   1.705
44935W        W16464  18.789   2.415  14.032
44936W        W16465  37.400  25.743   2.835
44937W        W16466   3.897  20.540  13.317
44938W        W16467  31.640  19.141   3.332
44939W        W16468  18.182  17.453   1.461
44940W        W16469   3.316  15.474  10.791
44941W        W16470  10.255  41.138  12.627
44942W        W16471   5.439  11.282   4.191
44943W        W16472  18.301  44.940  11.369
44944W        W16473  17.405  22.520  14.451
44945W        W16474  44.552  38.415  11.351
44946W        W16475   9.058  39.436   4.644
44947W        W16476  39.306  31.963  12.502
44948W        W16477   5.825  26.232   4.149
44949W        W16478  43.948   1.794  11.542
44950W        W16479  15.885  25.076  13.089
44951W        W16480  40.788  10.020   0.991
44952W        W16481  38.093  19.089  13.540
44953W        W16482   3.701  20.551   4.739
44954W        W16483   2.448  41.524   3.547
44955W        W16484  36.548   0.305  14.471
44956W        W16485   7.320  20.117   0.079
44957W        W16486  39.271  32.078   2.670
44958W        W16487  32.577  15.575   4.069
44959W        W16488  41.890   8.903   5.035
44960W        W16489  26.670  21.002   4.222
44961W        W16490  18.669  24.176  11.613
44962W        W16491  20.138  10.364   2.344
44963W        W16492  40.790  40.824   1.381
44964W        W16493   2.018  31.279  12.238
44965W        W16494  33.388  32.027   3.242
44966W        W16495   3.759  34.240  11.437
44967W        W16496  37.139   5.745   3.238
44968W        W16497  17.282  37.920  12.157
44969W        W16498  41.789  40.168   0.952
44970W        W16499  26.890  37.391   0.789
44971W        W16500  39.104  29.066  10.655
44972W        W16501  32.424  35.948  11.492
44973W        W16502  17.541  27.129   3.449
44974W        W16503  42.298  18.004   0.819
44975W        W16504  18.295   2.446   2.250
44976W        W16505   4.230  40.528  12.555
44977W        W16506   2.841  23.686  13.767
44978W        W16507   5.347  44.850   3.677
44979W        W16508  32.877  41.828   4.306
44980W        W16509  28.279  30.950  11.490
44981W        W16510  42.596  22.235   1.616
44982W        W16511  12.087   3.000  11.428
44983W        W16512  40.372  10.563  13.073
44984W        W16513  33.557  22.287  12.901
44985W        W16514  14.095  28.957   3.641
44986W        W16515  16.597  41.779   1.621
44987W        W16516  34.407   7.402   4.638
44988W        W16517  44.774  31.560  14.904
44989W        W16518  20.560   5.862   0.200
44990W        W16519  32.489  44.734   0.843
44991W        W16520   1.393   4.103   0.120
44992W        W16521   0.284   2.178  12.238
44993W        W16522   4.611  24.931   5.101
44994W        W16523  20.051  43.274  14.232
44995W        W16524  28.442  29.370   2.589
44996W        W16525  23.172  44.066   0.326
44997W        W16526   1.206  32.658   0.885
44998W        W16527  36.958  11.766   0.376
44999W        W16528   1.319   1.822   1.033
45000W        W16529  33.830  20.185   0.753
45001W        W16530  42.982  11.777   2.614
45002W        W16531  35.652   5.026   0.827
45003W        W16532   1.842  24.430  14.006
45004W        W16533  41.313   2.050  13.819
45005W        W16534  19.240  24.083  10.702
45006W        W16535  44.164   8.415  13.912
45007W        W16536  28.538  42.886   5.016
45008W        W16537   1.848  10.276   3.065
45009W        W16538   4.768  31.792  10.560
45010W        W16539  43.243  25.626  13.336
45011W        W16540  27.411  44.157   1.912
45012W        W16541  22.505  20.605  13.950
45013W        W16542  13.172  31.595  14.576
45014W        W16543   7.399  42.526  11.921
45015W        W16544  19.235  16.862  13.019
45016W        W16545  25.177  10.735  14.496
45017W        W16546  27.938   2.573  14.144
45018W        W16547  24.571  43.922   0.424
45019W        W16548  18.229  26.186   3.843
45020W        W16549   1.495  28.479  14.083
45021W        W16550   8.249  36.444   2.121
45022W        W16551   8.290  37.038  12.845
45023W        W16552  19.087  28.074   0.301
45024W        W16553  39.908   9.429   2.136
45025W        W16554  29.837  42.025   1.443
45026W        W16555   4.152   3.277   2.503
45027W        W16556  29.150  17.649  14.514
45028W        W16557   1.472  35.319  11.554
45029W        W16558  13.498  17.164   0.878
45030W        W16559  19.795  36.395  10.559
45031W        W16560   3.819  11.886  13.188
45032W        W16561  20.765  41.185  14.388
45033W        W16562  15.609  37.374   4.010
45034W        W16563  27.174  41.659   4.731
45035W        W16564   4.401  22.489  12.072
45036W        W16565  27.968  20.737  13.842
45037W        W16566  29.981  17.306  14.741
45038W        W16567  35.996   7.634  13.867
45039W        W16568  24.129  17.272   1.179
45040W        W16569  13.879  36.036  10.982
45041W        W16570  20.636   1.496  11.567
45042W        W16571  14.038   2.416   4.652
45043W        W16572   2.186  31.875   2.365
45044W        W16573   1.905   2.934   4.702
45045W        W16574  29.747  39.286   0.703
45046W        W16575   6.117   3.891   2.903
45047W        W16576   4.466  44.861   0.355
45048W        W16577  30.560   2.224  12.052
45049W        W16578  38.550   2.234  11.471
45050W        W16579   2.776  21.980  11.469
45051W        W16580  22.095  11.265   3.411
45052W        W16581  23.981   9.970  12.426
45053W        W16582  24.070  27.956  13.931
45054W        W16583  31.892  26.717   3.209
45055W        W16584  26.011  32.907  12.730
45056W        W16585  26.961  36.318  13.358
45057W        W16586  23.109  29.504   0.046
45058W        W16587  33.309  44.537  14.476
45059W        W16588  10.457   0.426   3.142
45060W        W16589  13.328   5.020  13.972
45061W        W16590   7.119  13.667  13.250
45062W        W16591   6.467  32.158  10.399
45063W        W16592  19.993  28.464  14.268
45064W        W16593   2.383  25.923  11.974
45065W        W16594  25.881   2.227   3.828
45066W        W16595   4.854  18.958   0.566
45067W        W16596  32.496  19.823   2.170
45068W        W16597  11.747   4.470  14.039
45069W        W16598  31.140   2.606  12.505
45070W        W16599  33.796  18.959   4.180
45071W        W16600  32.075  34.124   2.808
45072W        W16601  13.511   3.211   4.633
45073W        W16602  11.963  26.561   0.504
45074W        W16603  30.469  13.175  14.408
45075W        W16604  14.651  25.490  14.053
45076W        W16605   5.359  20.930  11.168
45077W        W16606  12.275  42.685  14.696
45078W        W16607  35.893   8.286  14.342
45079W        W16608   1.384  42.368   3.377
45080W        W16609  15.581  23.734  13.104
45081W        W16610  14.418   7.162  12.869
45082W        W16611  20.768  12.887   3.163
45083W        W16612  23.264  43.832   2.378
45084W        W16613  17.472  27.969   4.234
45085W        W16614   1.706  36.477   1.737
45086W        W16615  12.458  14.529  11.145
45087W        W16616  19.123   9.625  14.493
45088W        W16617  10.796  30.766   2.395
45089W        W16618  33.502   4.179   1.740
45090W        W16619  24.775   5.183   4.877
45091W        W16620   9.777  29.974  12.373
45092W        W16621   7.804  25.186  10.773
45093W        W16622  38.963   9.812   3.415
45094W        W16623  31.666  42.899   3.830
45095W        W16624  10.631  40.150   2.073
45096W        W16625  30.277  24.498  12.401
45097W        W16626   9.066  15.742   0.904
45098W        W16627  22.417   3.355  13.790
45099W        W16628  39.175   6.946  14.734
45100W        W16629  36.494  41.585   1.501
45101W        W16630  30.345  41.216   0.902
45102W        W16631  17.905   0.809   3.116
45103W        W16632  43.635  39.963  13.690
45104W        W16633   9.179  33.972  13.371
45105W        W16634   8.113  14.613  14.124
45106W        W16635   7.123  42.417   4.645
45107W        W16636  43.715  44.273   2.868
45108W        W16637   8.915  17.048   3.488
45109W        W16638  42.943   5.674  12.576
45110W        W16639   2.814  30.330  13.525
45111W        W16640  21.091  32.580   0.771
45112W        W16641  38.936  25.503   2.439
45113W        W16642  44.472  10.796  14.712
45114W        W16643   4.520  34.062  11.988
45115W        W16644  44.788   7.431  10.605
45116W        W16645   5.389   1.822   3.715
45117W        W16646  43.375  18.036   0.228
45118W        W16647  28.040  38.299  14.479
45119W        W16648  14.075  32.969   2.731
45120W        W16649   2.264  44.374   2.777
45121W        W16650  33.662  17.236   3.669
45122W        W16651  23.649   5.930   3.215
45123W        W16652  13.139  42.635  12.415
45124W        W16653   0.807  17.267   4.636
45125W        W16654   9.426  21.242   1.294
45126W        W16655   0.008  32.168  11.639
45127W        W16656  40.917   7.198   0.824
45128W        W16657  44.874  13.204  13.622
45129W        W16658   4.748  19.035   3.196
45130W        W16659  38.496   1.833   1.932
45131W        W16660  15.848   2.790  13.466
45132W        W16661   0.038  24.276   1.688
45133W        W16662  38.010  31.313  14.377
45134W        W16663  34.585   2.523   1.744
45135W        W16664  40.428  35.890   0.414
45136W        W16665  16.685   1.281   0.496
45137W        W16666  33.132  16.321   3.729
45138W        W16667  23.574   3.871  11.202
45139W        W16668  35.865   8.540  10.826
45140W        W16669  20.220  33.394   0.767
45141W        W16670  26.571  11.159  13.219
45142W        W16671   8.060  13.889  13.589
45143W        W16672  28.082  35.982  13.898
45144W        W16673  23.028  18.863   4.702
45145W        W16674  36.057  36.315   4.633
45146W        W16675  15.220  24.033   4.173
45147W        W16676   6.632  13.276   1.916
45148W        W16677  32.417  41.767   4.685
45149W        W16678   6.865   8.967   1.393
45150W        W16679   6.650  18.767   2.267
45151W        W16680  19.057  31.652   1.059
45152W        W16681  34.610   4.309   1.520
45153W        W16682  31.353   5.142  11.648
45154W        W16683  26.144  15.505  10.999
45155W        W16684   9.252  20.955   2.887
45156W        W16685  35.383  16.313  11.633
45157W        W16686  10.214  23.939  11.445
45158W        W16687   5.947  13.676  11.476
45159W        W16688  35.935   7.680   0.429
45160W        W16689  16.583   0.983  13.979
45161W        W16690  22.372  27.586   4.729
45162W        W16691  35.592  14.353   0.465
45163W        W16692  42.235   7.984  11.130
45164W        W16693  27.995  14.936  13.625
45165W        W16694  43.824  14.014  13.945
45166W        W16695  16.647   3.663  10.666
45167W        W16696  38.116   4.221   3.334
45168W        W16697  25.960  30.549  14.096
45169W        W16698   9.969  20.094   1.205
45170W        W16699   0.064  23.155  11.126
45171W        W16700   9.992  33.509   0.324
45172W        W16701   0.783  30.343   2.791
45173W        W16702  13.916  16.386  14.311
45174W        W16703  43.077  33.934  13.369
45175W        W16704   5.864  34.170   0.852
45176W        W16705  19.964  20.723   0.688
45177W        W16706   0.584  44.980   1.121
45178W        W16707   8.125   3.350  14.841
45179W        W16708   8.974   0.310  14.575
45180W        W16709   4.421  34.912   0.563
45181W        W16710  10.442   4.443   3.403
45182W        W16711  35.635   1.834  13.402
45183W        W16712  39.196  16.056  12.163
45184W        W16713  12.819  35.640  14.361
45185W        W16714   7.739  30.442   1.820
45186W        W16715   0.925   4.970  12.687
45187W        W16716  41.432  18.401   3.226
45188W        W16717  36.400   4.240   2.721
45189W        W16718  34.896   8.693   4.145
45190W        W16719  33.953  13.177   3.803
45191W        W16720  17.534  26.898  11.976
45192W        W16721  20.952  18.090  10.716
45193W        W16722  21.557  21.537  13.963
45194W        W16723  13.067  23.649  10.772
45195W        W16724   1.066  27.776  12.069
45196W        W16725  43.645  26.049  13.114
45197W        W16726  25.629  27.888   3.615
45198W        W16727   2.857  38.448  14.713
45199W        W16728  44.868  41.847  13.394
45200W        W16729  16.573   6.018   0.903
45201W        W16730  11.634  29.759  12.375
45202W        W16731  28.981  42.404   3.366
45203W        W16732  19.699  11.627   3.628
45204W        W16733  15.257   0.510   4.597
45205W        W16734  11.194  14.739  12.294
45206W        W16735  34.597  36.512   3.739
45207W        W16736  17.673  30.519  10.540
45208W        W16737  20.772  19.681  11.573
45209W        W16738   6.193   8.941  12.623
45210W        W16739  16.520  29.428   3.349
45211W        W16740  36.963  20.266  11.125
45212W        W16741  18.307  21.157  12.485
45213W        W16742   0.471  43.463  13.890
45214W        W16743  21.968  25.332  13.637
45215W        W16744  17.089  28.528   0.847
45216W        W16745  43.048  41.025  13.093
45217W        W16746   7.763  33.188   1.154
45218W        W16747   2.646  38.992   4.596
45219W        W16748  26.064  13.778   0.899
45220W        W16749   3.840  35.572   0.081
45221W        W16750   9.628  28.973  12.467
45222W        W16751   7.361  19.110   1.022
45223W        W16752  18.577   3.727   0.970
45224W        W16753  18.925  36.072  11.506
45225W        W16754  32.931  30.721  14.419
45226W        W16755  16.866   5.321   3.603
45227W        W16756   6.970   5.582   1.906
45228W        W16757   8.409   8.214  14.447
45229W        W16758   7.374  40.310   0.343
45230W        W16759  43.704  42.852  10.709
45231W        W16760  37.945   7.930  13.003
45232W        W16761  25.934  18.277   2.353
45233W        W16762   3.741  41.240  14.719
45234W        W16763  44.767   8.371   4.394
45235W        W16764  10.280  31.443   3.182
45236W        W16765  13.872  36.460  13.117
45237W        W16766  32.514  20.555   0.494
45238W        W16767  30.147   3.247  13.295
45239W        W16768  38.967  43.910   1.915
45240W        W16769  41.842  38.250   3.235
45241W        W16770   9.840   3.161  12.358
45242W        W16771  10.131  30.145  13.820
45243W        W16772   6.936  10.145   2.943
45244W        W16773  25.578   0.395   3.851
45245W        W16774  21.494   6.620  11.652
45246W        W16775   4.331  12.956  12.123
45247W        W16776  15.040  29.516  14.333
45248W        W16777   4.679  29.638  11.940
45249W        W16778   6.932  44.397  13.556
45250W        W16779  19.330  11.451   4.614
45251W        W16780  36.519   8.237  11.899
45252W        W16781  39.581  18.342  14.839
45253W        W16782  21.365  35.903   3.874
45254W        W16783  19.840   6.264  12.498
45255W        W16784  18.735  24.958   2.325
45256W        W16785  36.267   7.318   1.257
45257W        W16786  24.467  36.832  11.314
45258W        W16787  42.430  26.626  14.984
45259W        W16788   0.797  41.327   1.289
45260W        W16789  22.378   4.649   0.257
45261W        W16790  21.820  31.773  12.948
45262W        W16791  41.421   0.091  14.475
45263W        W16792  39.292  14.779  12.918
45264W        W16793  22.254  35.565  12.419
45265W        W16794  42.712  35.358  11.192
45266W        W16795   7.596   1.223   2.247
45267W        W16796  24.220  36.040   2.337
45268W        W16797  37.116  13.297   2.898
45269W        W16798  26.232  38.624  12.028
45270W        W16799  36.068  26.060   3.867
45271W        W16800  29.496   6.217   4.954
45272W        W16801  39.921  20.457   4.621
45273W        W16802  14.619  22.191  13.930
45274W        W16803  43.911  35.519   4.684
45275W        W16804  26.537  40.377  11.097
45276W        W16805  25.079  37.724   2.244
45277W        W16806  17.804  29.915   3.707
45278W        W16807  20.758   7.965  11.448
45279W        W16808  11.126  23.522   0.636
45280W        W16809  19.658  44.517  14.557
45281W        W16810  44.226  30.888  13.793
45282W        W16811  19.612  42.529  10.525
45283W        W16812   3.393  43.573  12.269
45284W        W16813  44.423   1.510   4.870
45285W        W16814  32.106  25.212   2.292
45286W        W16815  34.897  32.425  14.007
45287W        W16816  10.119  36.420  12.916
45288W        W16817   1.019   1.696  13.913
45289W        W16818  10.686  22.244  11.157
45290W        W16819  39.016   5.243  11.589
45291W        W16820  31.724  43.726  14.426
45292W        W16821   1.953  41.211   1.784
45293W        W16822   2.034  43.301   3.634
45294W        W16823  40.918  10.877  14.436
45295W        W16824  36.142   4.904  14.709
45296W        W16825  44.821  18.033  10.579
45297W        W16826  33.506  16.142   3.370
45298W        W16827  43.667  26.431  12.777
45299W        W16828  22.097  13.199   4.273
45300W        W16829  33.235   3.578  11.858
45301W        W16830  22.744  38.968   2.734
45302W        W16831  14.797  11.171   3.651
45303W        W16832  31.878  23.658   5.598
45304W        W16833   2.734  30.407   1.208
45305W        W16834  39.052   0.998  10.788
45306W        W16835  11.854   5.363  14.025
45307W        W16836  23.567  17.231   1.829
45308W        W16837   7.829  32.291   1.328
45309W        W16838   1.787  14.520   1.360
45310W        W16839  31.418  29.650  13.428
45311W        W16840   7.847  44.513  13.363
45312W        W16841  20.535  21.335   3.727
45313W        W16842   8.455  42.366  11.139
45314W        W16843  44.976   5.200   1.693
45315W        W16844   5.441  17.112   0.940
45316W        W16845   0.475  35.345  14.457
45317W        W16846   1.249   1.336  12.440
45318W        W16847   8.682  39.082  12.038
45319W        W16848   3.389  29.984  11.922
45320W        W16849  11.954  21.095   2.235
45321W        W16850  31.120  20.606   0.424
45322W        W16851   8.477  11.626   3.852
45323W        W16852  43.941  38.295   0.459
45324W        W16853  42.057   8.701   4.607
45325W        W16854  18.811  38.617   3.180
45326W        W16855  24.333  37.940  13.421
45327W        W16856   2.161   2.256  12.963
45328W        W16857  19.274  22.164  14.775
45329W        W16858  19.141  13.400   4.586
45330W        W16859  37.035  18.532  14.857
45331W        W16860  23.999  14.327  10.910
45332W        W16861  18.821  14.389  10.281
45333W        W16862  38.074   5.833  14.878
45334W        W16863  22.399   5.878   3.785
45335W        W16864  29.059  16.216  11.934
45336W        W16865  35.996  19.609   2.584
45337W        W16866  27.092  40.545  12.061
45338W        W16867   8.406   3.302  10.631
45339W        W16868  10.916  44.006  13.389
45340W        W16869  39.806  14.648   2.248
45341W        W16870  16.595  42.907  13.914
45342W        W16871  33.882   4.814  13.581
45343W        W16872  37.310  19.524   2.728
45344W        W16873  11.895  31.127   2.815
45345W        W16874  26.251   1.527   2.320
45346W        W16875  27.050  20.592   4.736
45347W        W16876   2.723   8.973  10.755
45348W        W16877   1.761  37.169  13.344
45349W        W16878  38.447  33.883   0.420
45350W        W16879   0.846  39.831   3.161
45351W        W16880  20.021  16.612  14.310
45352W        W16881  18.775  14.203  10.755
45353W        W16882  22.787   6.630  12.113
45354W        W16883  30.424  13.376  13.155
45355W        W16884  36.926   3.812  13.911
45356W        W16885  33.971   9.352   3.259
45357W        W16886  26.052  41.231  12.409
45358W        W16887  30.140  19.827  14.344
45359W        W16888  32.823   7.422   3.538
45360W        W16889  25.596  36.852   3.631
45361W        W16890   6.212  16.317  11.592
45362W        W16891   8.312  36.074  11.130
45363W        W16892  37.192   7.656  14.380
45364W        W16893   4.152  20.735   4.559
45365W        W16894  18.626  20.237   1.751
45366W        W16895  13.821  29.069  11.451
45367W        W16896  28.363  38.294  12.987
45368W        W16897   5.231   2.202   1.256
45369W        W16898  22.737   5.304  13.158
45370W        W16899  37.410  43.563  12.169
45371W        W16900  44.483  42.030   2.755
45372W        W16901  11.631  15.768  14.336
45373W        W16902  11.059  38.151  12.021
45374W        W16903   4.142  17.514  12.478
45375W        W16904  10.067  15.184  14.889
45376W        W16905  38.738   5.787  13.828
45377W        W16906  17.140  25.540   1.727
45378W        W16907  11.309  17.250  12.130
45379W        W16908  40.607  31.219   0.398
45380W        W16909   4.287  35.925   2.067
45381W        W16910  36.219  33.135   0.661
45382W        W16911  15.251  12.143   0.801
45383W        W16912  14.830  37.319  12.449
45384W        W16913  24.679  13.791   4.646
45385W        W16914  21.190   4.777   0.685
45386W        W16915  31.478  12.906  14.212
45387W        W16916  10.433  30.026   0.774
45388W        W16917  26.064  18.350  12.503
45389W        W16918  21.293  18.834  11.015
45390W        W16919  32.099  11.652   1.255
45391W        W16920   2.819  41.888   4.169
45392W        W16921   2.868  35.657  11.938
45393W        W16922  12.458   4.540  13.609
45394W        W16923  29.925  22.584  12.049
45395W        W16924  28.605  28.099   3.343
45396W        W16925  23.227  22.075   4.712
45397W        W16926  21.417  28.488  12.906
45398W        W16927   8.201  41.817   3.425
45399W        W16928  16.273  23.556   1.765
45400W        W16929  22.960  38.249  10.137
45401W        W16930  28.067  16.721  14.023
45402W        W16931  24.128  36.305   0.491
45403W        W16932   9.326  38.002  11.473
45404W        W16933  41.821  13.785  11.152
45405W        W16934  36.618  24.932  11.898
45406W        W16935  29.293   4.831   2.454
45407W        W16936  35.542  31.827   3.289
45408W        W16937  11.671  31.812  12.873
45409W        W16938  36.453  26.995   2.743
45410W        W16939  40.832   4.752  12.923
45411W        W16940   8.887   9.255   2.412
45412W        W16941  34.108   4.264   2.673
45413W        W16942  19.280  27.723  11.319
45414W        W16943   2.923  30.677  13.877
45415W        W16944   9.638  23.228  12.397
45416W        W16945  15.286  40.468  13.026
45417W        W16946  39.778  11.107   3.234
45418W        W16947  12.025  31.135  13.359
45419W        W16948  20.776  29.167  14.361
45420W        W16949  32.892  28.520  10.170
45421W        W16950   1.743  25.220  14.947
45422W        W16951  23.083  25.684  13.562
45423W        W16952  13.216  41.490   1.713
45424W        W16953  37.535  14.032   2.838
45425W        W16954   6.175  29.132   0.860
45426W        W16955  28.553  23.060   2.380
45427W        W16956  16.321  42.242   3.303
45428W        W16957  39.140  18.003  11.158
45429W        W16958  44.882  44.987   2.678
45430W        W16959  19.549  15.394  11.705
45431W        W16960   0.299   2.957   0.336
45432W        W16961  26.879  14.314  11.542
45433W        W16962  25.740  19.184  12.817
45434W        W16963  34.139  34.969  14.751
45435W        W16964  32.847  37.842   3.611
45436W        W16965  42.016  21.611   0.468
45437W        W16966  28.239  37.080   0.875
45438W        W16967  15.226  29.881  13.161
45439W        W16968   2.372   8.612  14.463
45440W        W16969  33.580  17.211   4.594
45441W        W16970  33.563  35.336   0.284
45442W        W16971  17.139  12.718   3.564
45443W        W16972  21.794  31.713  13.487
45444W        W16973  35.478  37.371  13.565
45445W        W16974  23.527   6.388  12.516
45446W        W16975  11.767   5.286   2.439
45447W        W16976  36.769  30.707  13.927
45448W        W16977  28.413   4.443  11.159
45449W        W16978  30.669   7.028  12.945
45450W        W16979  23.129  18.064  14.392
45451W        W16980  13.390  15.645  10.806
45452W        W16981  33.992  26.190   0.180
45453W        W16982  42.357  26.764  13.097
45454W        W16983   2.484   4.152  10.684
45455W        W16984  12.453   4.919   4.566
45456W        W16985  25.251  25.132  14.258
45457W        W16986  44.879  38.432   1.374
45458W        W16987  41.343   0.949  11.863
45459W        W16988   9.639  41.460  12.779
45460W        W16989  24.476  19.357  11.801
45461W        W16990  16.581  25.624   1.370
45462W        W16991  37.470  41.011  13.726
45463W        W16992  10.217  24.903  10.741
45464W        W16993  41.015   7.795   1.759
45465W        W16994  10.173  21.120  11.673
45466W        W16995  12.268  38.508   0.927
45467W        W16996  23.949  40.804   0.446
45468W        W16997  40.970  22.920   2.349
45469W        W16998  31.688  12.287   1.287
45470W        W16999  31.059  24.509   5.389
45471W        W17000   4.688  19.857  11.624
45472W        W17001  32.436  24.469   1.345
45473W        W17002  19.221   5.904  14.448
45474W        W17003  12.512  25.033  14.316
45475W        W17004  26.631  28.892  11.806
45476W        W17005  15.212  23.542   4.044
45477W        W17006  33.663  20.553   2.152
45478W        W17007   8.356  18.870  13.986
45479W        W17008   8.152   9.149   1.896
45480W        W17009   2.675   8.104  11.612
45481W        W17010   7.302  11.692   3.415
45482W        W17011  24.303   2.084   3.218
45483W        W17012  27.660  29.113   4.726
45484W        W17013  42.512  31.353  14.822
45485W        W17014  40.075  29.985  11.380
45486W        W17015   5.473  27.046  13.501
45487W        W17016  37.477  28.108   3.353
45488W        W17017  24.433  34.453  11.169
45489W        W17018  15.189   4.858  14.305
45490W        W17019   8.025  12.316  10.486
45491W        W17020  41.148   1.799   2.294
45492W        W17021  42.900  37.870  11.089
45493W        W17022  18.608  38.075   1.249
45494W        W17023  35.328  21.141   0.523
45495W        W17024   2.728  28.002   0.900
45496W        W17025  26.106  17.760  12.868
45497W        W17026  39.701  25.981   2.661
45498W        W17027   3.741  10.331   2.839
45499W        W17028  30.138  28.474  10.655
45500W        W17029  24.012  22.216   1.334
45501W        W17030  24.129  21.934   0.866
45502W        W17031  14.387   6.431   4.493
45503W        W17032  21.745  36.619   2.882
45504W        W17033  30.794  26.087   4.297
45505W        W17034   7.378  21.176   3.628
45506W        W17035  16.052  37.860   2.908
45507W        W17036  15.634  36.883   3.776
45508W        W17037  24.468   0.627   0.965
45509W        W17038  30.362  12.645  10.705
45510W        W17039  34.893  44.956  13.984
45511W        W17040   3.423  33.083   2.729
45512W        W17041  32.852  31.596   1.895
45513W        W17042  34.152  15.551   3.207
45514W        W17043  18.554  29.440  11.424
45515W        W17044  37.897   5.294   2.929
45516W        W17045  31.087  42.497   0.514
45517W        W17046  28.573  18.394  10.832
45518W        W17047   9.454  16.161   3.113
45519W        W17048  18.980  16.380  11.024
45520W        W17049  29.293  38.743   0.428
45521W        W17050  29.856  14.011  14.404
45522W        W17051  38.978  12.778  14.427
45523W        W17052  28.613  29.625  14.280
45524W        W17053  43.058  21.837   3.738
45525W        W17054  21.575  36.482   0.822
45526W        W17055  36.994  37.983  14.092
45527W        W17056  31.880  32.506   4.827
45528W        W17057  40.173  36.386   0.484
45529W        W17058  44.082  34.868   0.931
45530W        W17059  36.698  10.065   3.282
45531W        W17060  42.872  30.650   0.711
45532W        W17061  37.423  10.204  11.180
45533W        W17062   2.869  14.252   1.703
45534W        W17063  17.081  26.140  12.490
45535W        W17064   9.360   3.019  12.477
45536W        W17065  14.979  15.841   5.047
45537W        W17066  38.064  32.988   1.887
45538W        W17067  38.924   2.168  13.990
45539W        W17068  15.965   2.656   1.655
45540W        W17069  25.933  35.061   1.707
45541W        W17070   3.396  23.416  10.647
45542W        W17071  20.609  39.555   4.111
45543W        W17072   0.196  36.594  11.947
45544W        W17073  21.812  32.393  12.226
45545W        W17074  44.460   4.913  13.151
45546W        W17075  26.488  44.373   1.687
45547W        W17076  15.167  12.813  11.747
45548W        W17077  29.223  27.439  14.266
45549W        W17078  34.755   5.806   9.809
45550W        W17079  14.807  25.484   0.927
45551W        W17080  30.553  11.566   2.900
45552W        W17081  10.672  39.376   2.420
45553W        W17082  22.257   2.992  10.766
45554W        W17083  27.161   4.203  11.020
45555W        W17084  15.077  30.786   4.123
45556W        W17085  16.697   5.641   4.933
45557W        W17086  20.277   0.848   4.899
45558W        W17087   6.994   1.571  11.667
45559W        W17088  15.660   7.037  13.558
45560W        W17089  17.576  13.804  11.878
45561W        W17090  26.455   3.110   0.676
45562W        W17091  12.859  26.699  13.803
45563W        W17092  43.408  15.869  10.629
45564W        W17093  30.155   7.170   1.045
45565W        W17094  20.800  24.158  14.779
45566W        W17095   9.400  22.616  10.801
45567W        W17096  38.381   3.999   2.747
45568W        W17097  40.178  37.854  13.348
45569W        W17098  33.685  39.545   2.665
45570W        W17099  23.152  44.448   3.184
45571W        W17100  37.884   1.676   2.578
45572W        W17101  23.134  41.028   2.911
45573W        W17102  25.952  41.666   2.799
45574W        W17103   6.949   8.953   4.461
45575W        W17104   3.745  20.489  12.409
45576W        W17105  40.916  11.426  14.319
45577W        W17106  15.006   7.344   5.123
45578W        W17107  19.086   9.188  14.192
45579W        W17108  35.395  40.456   1.319
45580W        W17109  27.238   7.268  13.089
45581W        W17110   3.871  21.691   4.173
45582W        W17111  21.633  15.547   4.595
45583W        W17112  22.523  40.884  13.051
45584W        W17113  43.718   0.429  11.744
45585W        W17114  15.741   4.452   3.524
45586W        W17115   7.915  15.209   3.121
45587W        W17116  18.599   7.363   4.753
45588W        W17117  16.024  36.423   2.674
45589W        W17118  17.693   2.444  12.916
45590W        W17119  16.826  16.208   0.074
45591W        W17120  16.996   4.965   3.213
45592W        W17121  39.993  33.685  10.940
45593W        W17122   9.154   1.499   2.272
45594W        W17123  34.358   9.223   0.356
45595W        W17124  28.480  44.041  13.835
45596W        W17125  28.706  16.237  14.487
45597W        W17126   4.986  23.728  12.928
45598W        W17127  22.048   9.751  12.422
45599W        W17128  23.465  24.634   1.968
45600W        W17129  44.382  18.710  13.911
45601W        W17130  13.926  33.040  10.623
45602W        W17131   3.270  24.611  13.974
45603W        W17132  24.928  23.231  11.925
45604W        W17133  25.122  15.722   4.674
45605W        W17134  40.884   3.838   3.147
45606W        W17135  36.402  34.436  12.522
45607W        W17136  34.914  21.059   1.996
45608W        W17137  17.811  23.511  14.159
45609W        W17138  38.419  17.094   2.240
45610W        W17139  38.464  21.536  12.440
45611W        W17140  30.007  26.011  11.095
45612W        W17141  20.293  34.683   0.444
45613W        W17142  38.219  20.244   4.413
45614W        W17143  11.050  17.177   2.737
45615W        W17144  13.282   6.834   3.159
45616W        W17145   9.123  18.841   4.164
45617W        W17146  12.100  44.529   0.985
45618W        W17147  19.690  31.297   2.123
45619W        W17148  28.591  35.485   1.419
45620W        W17149  32.885  38.553  14.690
45621W        W17150  19.148  13.320  14.325
45622W        W17151  21.039   7.593  11.676
45623W        W17152  35.042   5.888   4.639
45624W        W17153  17.709  22.237  10.804
45625W        W17154  15.675  10.709  11.134
45626W        W17155  25.700  16.565  14.899
45627W        W17156  24.692   2.946  13.359
45628W        W17157  12.154  15.788  14.336
45629W        W17158   0.840  41.949  11.848
45630W        W17159  10.397  13.356  12.359
45631W        W17160  35.057  41.793  12.443
45632W        W17161  21.436  29.629  11.660
45633W        W17162  23.939   1.694  12.923
45634W        W17163  22.415  43.921   0.948
45635W        W17164  11.066  17.488  14.341
45636W        W17165  36.294  17.166  11.516
45637W        W17166  42.416  39.522   0.469
45638W        W17167  12.171  14.904   0.373
45639W        W17168  41.739  21.036  14.539
45640W        W17169  10.203   7.776  10.620
45641W        W17170  32.954  40.587   0.152
45642W        W17171  43.798  30.828  12.001
45643W        W17172   4.889   2.104   1.675
45644W        W17173  37.830  31.390  11.865
45645W        W17174   9.290  32.219  12.505
45646W        W17175   9.799  15.256   0.895
45647W        W17176  24.109  35.554   2.196
45648W        W17177  28.564  22.965   3.662
45649W        W17178   9.124  42.540   2.258
45650W        W17179   6.949  36.925   3.319
45651W        W17180  41.067   4.803  14.903
45652W        W17181   8.366  39.430  11.456
45653W        W17182  19.132  27.438   4.590
45654W        W17183  22.147   6.932   4.622
45655W        W17184  13.066  29.183   1.699
45656W        W17185   5.432  38.620  12.635
45657W        W17186  40.758  27.768   2.727
45658W        W17187  10.536  32.079   5.059
45659W        W17188  21.065  21.205  13.775
45660W        W17189  22.122  41.562  11.549
45661W        W17190   6.274  25.077  14.861
45662W        W17191  10.213  43.660   4.485
45663W        W17192  44.295  40.635  12.873
45664W        W17193  32.095  25.150  13.280
45665W        W17194  35.653  37.065  13.947
45666W        W17195  44.080  39.533  14.826
45667W        W17196  17.288   3.929   3.125
45668W        W17197   7.718  44.028   2.880
45669W        W17198  41.331   3.182  13.578
45670W        W17199  40.299  44.758   0.746
45671W        W17200  22.709  30.850  14.054
45672W        W17201   2.455   8.421  14.958
45673W        W17202  28.721  21.582  12.565
45674W        W17203  24.713  35.097   4.560
45675W        W17204   7.668   4.548   3.105
45676W        W17205  10.931   0.328  14.141
45677W        W17206  12.590  34.347  14.780
45678W        W17207   7.145  33.390   4.111
45679W        W17208  25.524  23.642   3.905
45680W        W17209  26.232  18.958  11.467
45681W        W17210   5.833  25.672   4.116
45682W        W17211   5.759  36.500   3.234
45683W        W17212  10.453  21.757   1.093
45684W        W17213  36.096  40.202  13.511
45685W        W17214  21.990  14.089  14.783
45686W        W17215  36.726  44.736   3.214
45687W        W17216  37.425  41.072   0.349
45688W        W17217  35.082  42.769  13.284
45689W        W17218  36.935  26.053   2.206
45690W        W17219  23.986   6.339  11.123
45691W        W17220  44.949  33.855  13.072
45692W        W17221  16.119  37.441   4.118
45693W        W17222  16.604  34.134   3.777
45694W        W17223  21.810  14.069  13.847
45695W        W17224  38.609  16.108  11.210
45696W        W17225  37.047  17.947   4.209
45697W        W17226  19.658  28.831  11.498
45698W        W17227  19.144  18.258  12.423
45699W        W17228  10.306  34.964   0.787
45700W        W17229  19.619  28.594  13.951
45701W        W17230   2.435   0.229  11.879
45702W        W17231   8.563  39.176   4.110
45703W        W17232  22.560  16.497   1.436
45704W        W17233  38.508  29.316  12.025
45705W        W17234  14.022  22.790   4.658
45706W        W17235   0.298  22.319   3.388
45707W        W17236  20.641   3.592  14.852
45708W        W17237  25.222  43.209  11.782
45709W        W17238  33.273   1.674  14.147
45710W        W17239  12.177  18.179  10.796
45711W        W17240  15.099  32.897  11.537
45712W        W17241  35.826   4.227   0.437
45713W        W17242  43.962  20.088  13.115
45714W        W17243  26.519  38.403   2.383
45715W        W17244  25.115   2.245  13.835
45716W        W17245  43.061  27.847   2.802
45717W        W17246  24.387   7.153  11.022
45718W        W17247  18.534  25.634   0.801
45719W        W17248  24.370  22.022  13.982
45720W        W17249  27.090  40.922  10.702
45721W        W17250  39.986   1.026  11.119
45722W        W17251  29.960  10.217  13.543
45723W        W17252  41.443   1.562  13.841
45724W        W17253  21.974  18.874  12.108
45725W        W17254   5.578  16.168  14.456
45726W        W17255  25.780   7.706   3.644
45727W        W17256  36.069  31.484  11.752
45728W        W17257  15.409   9.306  11.418
45729W        W17258   8.739  11.805   5.181
45730W        W17259   4.230  42.043  12.474
45731W        W17260   5.098   4.803  11.608
45732W        W17261  33.389  35.583  14.841
45733W        W17262   0.401  22.672  13.943
45734W        W17263  35.657  38.360  13.537
45735W        W17264   5.900  27.536  13.088
45736W        W17265  10.799  40.803   1.259
45737W        W17266  16.375   1.634  14.996
45738W        W17267   6.827   3.683   4.576
45739W        W17268  17.849  10.358   1.142
45740W        W17269   0.429  11.554   4.720
45741W        W17270  25.251  17.772  13.915
45742W        W17271   6.633  37.436   2.708
45743W        W17272   9.163  27.054  14.289
45744W        W17273   3.510   9.085  12.016
45745W        W17274  31.999  19.312  14.174
45746W        W17275  33.090  25.423  14.933
45747W        W17276   5.464  40.301  12.988
45748W        W17277  26.505  14.546   0.897
45749W        W17278  12.282   9.914   1.544
45750W        W17279  33.069  33.874  14.285
45751W        W17280  10.236  34.398   3.619
45752W        W17281  40.562   4.761   2.233
45753W        W17282  22.782  33.971   2.365
45754W        W17283  11.667   5.387  12.856
45755W        W17284   4.735  24.129   0.445
45756W        W17285   1.552  31.802  13.388
45757W        W17286  31.329  18.715  11.709
45758W        W17287   5.330   8.242  13.486
45759W        W17288  34.553  30.401  14.374
45760W        W17289  40.890  35.517   1.843
45761W        W17290  25.022  36.495  14.402
45762W        W17291   7.026  32.883   1.844
45763W        W17292  18.690  29.891   2.610
45764W        W17293   1.069   4.841   5.207
45765W        W17294  19.541  43.361  14.472
45766W        W17295  17.176  31.096  11.571
45767W        W17296  26.039   3.439   0.667
45768W        W17297  41.276  13.196   4.021
45769W        W17298   8.681   6.818  12.361
45770W        W17299  42.271  44.314  11.024
45771W        W17300  26.217  44.468  13.350
45772W        W17301  40.562  19.108   0.399
45773W        W17302  37.833   2.751   1.361
45774W        W17303  32.083  25.908   3.594
45775W        W17304  14.613   3.360  13.905
45776W        W17305  41.272   9.072  14.404
45777W        W17306   0.388  43.185  13.465
45778W        W17307  27.383  12.166   4.071
45779W        W17308   3.381  12.173  10.727
45780W        W17309   7.318  25.554  14.590
45781W        W17310  14.677  23.054  14.377
45782W        W17311   3.078  33.985   0.903
45783W        W17312  17.748  21.782  10.570
45784W        W17313  40.374   0.746   4.034
45785W        W17314  11.251  26.932   3.542
45786W        W17315  15.907   9.650  12.410
45787W        W17316  13.356  39.283   1.858
45788W        W17317   2.852  17.241  11.929
45789W        W17318  28.419  25.264   2.203
45790W        W17319  27.845  44.133   0.226
45791W        W17320  19.839  37.488  10.647
45792W        W17321  40.007  27.602  10.571
45793W        W17322  34.172   5.819  14.519
45794W        W17323  31.541  41.490  14.028
45795W        W17324  10.871   8.166  10.692
45796W        W17325  14.435  35.940  13.804
45797W        W17326  23.706  18.268  11.036
45798W        W17327   1.428  12.610  14.963
45799W        W17328  39.011  14.981   9.885
45800W        W17329  21.688  36.624   2.362
45801W        W17330  23.510  15.795   1.867
45802W        W17331  22.560  12.245  14.737
45803W        W17332  11.711  44.184  12.028
45804W        W17333  13.201  16.622  12.086
45805W        W17334  28.816  13.691  12.113
45806W        W17335  31.583  16.301  13.444
45807W        W17336   2.871   6.252  14.325
45808W        W17337   5.724  13.233  13.889
45809W        W17338   0.327  18.267  11.055
45810W        W17339  43.569  21.606  13.438
45811W        W17340  11.842  21.845   0.743
45812W        W17341  29.404  29.504  13.378
45813W        W17342  42.818  43.827  11.211
45814W        W17343  25.236   9.698   3.754
45815W        W17344  23.627  21.241  10.612
45816W        W17345  15.314   3.936   4.660
45817W        W17346  40.003  30.826  13.256
45818W        W17347   1.328   5.157   4.083
45819W        W17348   2.159  29.047  10.270
45820W        W17349  32.620  14.493   5.023
45821W        W17350  17.996  29.557   2.088
45822W        W17351  25.594  34.296   2.295
45823W        W17352  37.652  43.001   5.158
45824W        W17353  30.245   2.493  13.935
45825W        W17354  26.674  21.079   3.705
45826W        W17355   2.768  16.258  12.905
45827W        W17356   2.827  22.902  11.230
45828W        W17357  10.442  44.074   0.218
45829W        W17358  10.632  33.291  13.924
45830W        W17359  37.111  22.798   1.337
45831W        W17360  10.624  32.875   3.789
45832W        W17361  30.392  32.505   0.766
45833W        W17362  11.292  18.030  13.782
45834W        W17363   9.099  14.135   2.297
45835W        W17364   9.855  35.485   3.378
45836W        W17365   8.398   8.443   4.038
45837W        W17366  10.899   5.242  13.992
45838W        W17367  30.243  16.794   0.948
45839W        W17368   5.919  20.150  12.492
45840W        W17369   7.246  23.778   2.226
45841W        W17370  10.850   8.522   5.007
45842W        W17371   1.698  21.539   3.583
45843W        W17372  29.503  23.311   3.033
45844W        W17373   7.177  43.366  13.201
45845W        W17374  18.843  28.832  11.830
45846W        W17375   4.290   1.239  12.518
45847W        W17376  17.766  28.952   2.763
45848W        W17377  29.848   5.839   2.298
45849W        W17378  38.738   9.907  11.886
45850W        W17379   7.866   7.033   5.008
45851W        W17380  31.905   0.014  10.578
45852W        W17381  31.578   8.205  11.452
45853W        W17382   6.468  26.898   3.604
45854W        W17383  38.121  32.434   3.850
45855W        W17384  36.162  24.769  12.040
45856W        W17385  43.049  44.023   0.442
45857W        W17386  37.464  25.043   1.634
45858W        W17387  26.550  24.129  14.745
45859W        W17388  44.836  38.294  14.291
45860W        W17389   0.431  33.125  13.383
45861W        W17390   2.684  17.327  14.294
45862W        W17391   5.610   8.823   3.177
45863W        W17392   2.797  28.511   0.850
45864W        W17393  18.083  18.399   2.254
45865W        W17394  27.742  10.846  11.087
45866W        W17395   3.356  25.714   0.786
45867W        W17396  26.059  24.595   3.458
45868W        W17397  35.935  24.408  14.243
45869W        W17398  32.568  14.261   2.192
45870W        W17399  36.080  28.530   2.764
45871W        W17400  34.434  32.182  13.977
45872W        W17401  41.190  21.940  11.642
45873W        W17402   0.837   1.348   2.270
45874W        W17403  40.509  30.046  14.308
45875W        W17404   2.709  12.072  14.333
45876W        W17405  31.551  30.146  11.114
45877W        W17406   8.604  16.510  11.465
45878W        W17407  10.655   9.089  13.799
45879W        W17408   8.130  44.333  12.957
45880W        W17409   6.781  16.203  11.765
45881W        W17410   4.063  40.353  13.817
45882W        W17411  10.604  22.179   2.795
45883W        W17412  44.895  34.910  13.413
45884W        W17413  34.331  37.723   4.987
45885W        W17414  41.698  14.622  14.023
45886W        W17415  19.313  26.486   4.966
45887W        W17416   9.256  29.982  11.657
45888W        W17417  40.863  26.154  10.773
45889W        W17418   6.742  37.445  13.292
45890W        W17419  20.051   7.860   4.614
45891W        W17420  37.398  17.274  10.567
45892W        W17421  17.296  37.495   0.456
45893W        W17422  43.911  32.185  10.952
45894W        W17423  28.597  29.059   0.668
45895W        W17424  42.924  26.189  13.617
45896W        W17425  27.726  37.036   0.969
45897W        W17426  43.459  12.085   4.825
45898W        W17427  23.055   0.794   0.728
45899W        W17428  37.563  32.080  11.157
45900W        W17429  24.500  12.872  12.546
45901W        W17430  39.237  44.323  11.579
45902W        W17431   9.226  31.469   0.977
45903W        W17432  15.386  37.157   2.457
45904W        W17433  37.870  16.291  11.557
45905W        W17434  31.747  42.266   0.019
45906W        W17435   5.395   0.700  12.894
45907W        W17436  44.664  36.742   5.031
45908W        W17437  25.433  33.053   3.181
45909W        W17438  36.958  14.790  14.347
45910W        W17439  44.391  35.805   3.628
45911W        W17440  19.057  13.563  13.865
45912W        W17441  29.409   4.498   4.561
45913W        W17442  10.953  24.562   1.386
45914W        W17443  25.076   8.129   2.688
45915W        W17444   1.468   4.480   0.526
45916W        W17445  12.711  38.833  10.461
45917W        W17446   8.878   3.345  14.117
45918W        W17447   5.606  29.046   2.144
45919W        W17448  28.930  10.155  10.276
45920W        W17449  12.804   1.268   2.765
45921W        W17450  41.039   5.419  14.122
45922W        W17451  30.635   6.290  13.821
45923W        W17452   3.219  26.526   3.252
45924W        W17453  39.618  44.956  10.511
45925W        W17454  12.648   4.479   0.232
45926W        W17455   7.201  14.858   3.360
45927W        W17456  34.479  41.070  13.535
45928W        W17457   1.519  39.444   0.314
45929W        W17458  41.984  27.648   2.382
45930W        W17459  22.689  43.958   0.491
45931W        W17460   9.082   0.167   1.343
45932W        W17461  32.086  11.618  13.923
45933W        W17462  17.034  21.491   0.426
45934W        W17463  44.442   0.418  10.434
45935W        W17464  10.383  43.748   4.959
45936W        W17465   8.345  17.149  11.993
45937W        W17466   2.963  43.826  12.408
45938W        W17467  20.163  17.430  10.332
45939W        W17468  22.839  20.267  12.502
45940W        W17469  25.831  32.556   2.326
45941W        W17470  25.997  36.032  13.608
45942W        W17471  16.974  10.178   4.704
45943W        W17472  37.482  42.988  12.326
45944W        W17473  30.669  40.979  12.461
45945W        W17474  17.036  41.016  14.894
45946W        W17475  21.519  35.530   2.214
45947W        W17476  40.262  36.509  11.955
45948W        W17477   9.439  19.198  11.117
45949W        W17478  38.879  16.291   0.383
45950W        W17479   7.430  41.478  11.884
45951W        W17480   5.935   6.476  13.385
45952W        W17481   8.159  26.146   1.322
45953W        W17482   2.962  36.045   1.142
45954W        W17483   7.169  16.379   4.711
45955W        W17484  30.965  39.809  13.507
45956W        W17485  21.753  29.366  11.985
45957W        W17486  20.025  43.418   4.092
45958W        W17487  21.680   3.767   3.397
45959W        W17488   1.954   6.587   1.772
45960W        W17489  36.747  14.059  13.967
45961W        W17490  36.291  25.160  13.978
45962W        W17491  32.518  42.721  10.561
45963W        W17492  28.421  24.943   1.800
45964W        W17493  24.758  15.738  13.482
45965W        W17494  43.295   0.428   2.674
45966W        W17495   6.815  40.927  13.892
45967W        W17496  22.078  34.823   0.950
45968W        W17497  23.907   4.906  11.217
45969W        W17498  18.021  37.200  11.124
45970W        W17499  35.004  26.432  14.338
45971W        W17500   1.863   2.970   3.100
45972W        W17501  25.163  44.510   4.535
45973W        W17502   4.480  32.944   4.037
45974W        W17503   4.261   7.389   1.512
45975W        W17504  11.384  32.140  11.122
45976W        W17505  18.707  10.711  13.854
45977W        W17506  23.933  39.828  14.456
45978W        W17507  44.881  23.185   4.110
45979W        W17508  43.451  12.093   0.460
45980W        W17509  39.457  10.309  11.619
45981W        W17510  39.093  32.024  12.999
45982W        W17511  22.709  26.187  10.629
45983W        W17512   5.977  26.000   3.704
45984W        W17513  40.135  36.022   0.861
45985W        W17514   7.204  35.083  13.310
45986W        W17515  10.247  28.557   0.212
45987W        W17516  10.870   6.817  14.465
45988W        W17517  24.444  44.809  13.931
45989W        W17518  27.156  11.812   2.633
45990W        W17519  21.565  18.311  14.979
45991W        W17520   0.664  18.295   0.907
45992W        W17521  37.048  12.595  14.357
45993W        W17522  12.755  13.227  10.839
45994W        W17523  36.575  28.696   3.239
45995W        W17524  24.962  20.388   3.301
45996W        W17525  14.100   4.910   0.934
45997W        W17526  17.317  17.236  14.335
45998W        W17527  24.309  29.619   3.690
45999W        W17528   4.909   4.344  11.021
46000W        W17529  26.679  14.610  11.187
46001W        W17530  42.050  30.768   1.181
46002W        W17531  29.032  10.708  11.151
46003W        W17532  21.816  23.520  11.102
46004W        W17533  30.971  22.278   4.132
46005W        W17534  44.677   2.420  10.585
46006W        W17535  22.287  31.637  13.557
46007W        W17536   3.233  15.017  10.567
46008W        W17537   5.082  28.987  14.357
46009W        W17538  25.981  33.972  14.857
46010W        W17539  22.252   6.682   1.881
46011W        W17540  35.965  40.960  13.823
46012W        W17541  33.359   2.802   0.476
46013W        W17542  24.117  18.717   2.367
46014W        W17543   4.378  25.271   0.925
46015W        W17544  39.905  37.500   0.946
46016W        W17545  30.068  40.879   1.783
46017W        W17546   0.562  26.160  11.865
46018W        W17547  29.720   0.940   3.196
46019W        W17548  34.191  15.249   2.590
46020W        W17549  14.127  44.988   4.115
46021W        W17550  23.171  27.937   4.460
46022W        W17551  41.263  34.827  11.986
46023W        W17552  38.914  32.694  13.994
46024W        W17553  37.780   1.159   2.788
46025W        W17554  31.891  25.530   3.925
46026W        W17555  18.191   2.251  10.807
46027W        W17556   2.243  21.061   0.688
46028W        W17557  18.153   1.208  14.223
46029W        W17558  21.059  43.237  10.747
46030W        W17559   1.071  17.149   2.011
46031W        W17560  33.148  34.367   2.092
46032W        W17561   1.495  12.757   0.796
46033W        W17562  11.122   4.003  11.192
46034W        W17563  27.313  32.491  12.345
46035W        W17564   1.366   5.909   2.211
46036W        W17565  19.078  38.085   0.816
46037W        W17566  27.723  34.484  13.478
46038W        W17567   3.847  18.795   0.276
46039W        W17568  25.012  29.002   3.205
46040W        W17569  36.837   2.927   2.731
46041W        W17570  13.991  41.062   4.586
46042W        W17571  30.971  41.023  14.340
46043W        W17572  30.396   7.392   3.783
46044W        W17573   6.005  26.108  12.495
46045W        W17574  41.862  20.986  13.133
46046W        W17575  15.119  23.503  11.019
46047W        W17576  29.179   0.277  10.716
46048W        W17577  37.795  40.527   1.200
46049W        W17578  13.824  37.444  13.203
46050W        W17579   9.355  13.170   0.979
46051W        W17580  31.490  32.820   4.547
46052W        W17581  38.563  18.769  12.971
46053W        W17582  24.325   0.948   0.597
46054W        W17583  43.302  12.476  12.729
46055W        W17584  17.937  25.011   4.628
46056W        W17585  43.485  37.342   2.294
46057W        W17586  29.636   7.263   0.885
46058W        W17587  11.771  21.037   1.741
46059W        W17588  32.595  20.321  11.782
46060W        W17589   4.718  30.059  10.599
46061W        W17590  29.516   4.941   0.360
46062W        W17591  19.801  38.701  14.256
46063W        W17592  27.538  30.978   3.323
46064W        W17593  13.739  14.417   3.925
46065W        W17594  39.904  10.553  14.345
46066W        W17595  19.535  25.967   2.701
46067W        W17596  25.204  39.917   2.697
46068W        W17597   5.878  27.471  14.407
46069W        W17598  13.096  37.708  13.975
46070W        W17599  19.167  35.175   0.924
46071W        W17600  32.475  14.649   0.338
46072W        W17601   6.926   7.360   4.399
46073W        W17602  28.064  19.703  12.897
46074W        W17603  17.538   9.924   1.921
46075W        W17604   7.829  39.554  12.505
46076W        W17605  21.420   0.302   4.219
46077W        W17606  30.642  30.883   2.617
46078W        W17607   5.192  20.474  12.444
46079W        W17608  27.081  39.993  13.020
46080W        W17609   3.577  31.726   1.805
46081W        W17610   9.744   0.895   0.046
46082W        W17611  21.353  28.910   2.834
46083W        W17612  11.586  32.425   2.616
46084W        W17613  41.046   7.887   0.225
46085W        W17614  13.937  14.539  10.381
46086W        W17615  16.701  35.777   2.260
46087W        W17616  26.980  13.219  12.058
46088W        W17617  13.156  43.270   2.779
46089W        W17618  26.269  17.985  11.203
46090W        W17619   9.330  32.071  14.673
46091W        W17620  38.930  33.892  13.377
46092W        W17621  11.828  20.007  11.651
46093W        W17622  21.174   9.737   4.919
46094W        W17623   5.712  21.006  14.559
46095W        W17624  31.273  38.865   5.062
46096W        W17625  38.979  12.101   0.388
46097W        W17626  29.588   7.839   3.579
46098W        W17627  12.070  21.196   2.803
46099W        W17628  10.214  29.680   3.664
46100W        W17629  39.456  37.035   0.275
46101W        W17630  24.266   1.421   4.704
46102W        W17631  13.322  41.365  13.750
46103W        W17632  43.532  12.693   2.375
46104W        W17633  28.744  19.038   0.429
46105W        W17634  39.551   7.453  14.002
46106W        W17635  22.516   0.494   4.455
46107W        W17636   7.922  15.663  11.486
46108W        W17637  37.130  16.387  12.456
46109W        W17638   7.614  19.240  10.748
46110W        W17639   3.536  40.392   0.364
46111W        W17640   0.302  25.073   2.897
46112W        W17641  39.301  30.147   0.705
46113W        W17642  25.678  30.492  12.400
46114W        W17643  10.900  28.804   4.023
46115W        W17644  24.503  18.594   3.801
46116W        W17645  21.187  35.924   2.784
46117W        W17646  32.919  23.465  11.521
46118W        W17647  40.607  44.036   0.355
46119W        W17648  10.937  43.455  10.697
46120W        W17649  19.670  21.050   2.392
46121W        W17650  12.637  14.061  11.118
46122W        W17651  30.544   4.003  14.548
46123W        W17652  18.664  24.744  13.148
46124W        W17653   1.508  11.205  10.874
46125W        W17654  22.746  31.906  11.400
46126W        W17655   8.313  11.638  14.454
46127W        W17656  16.016   8.754  14.266
46128W        W17657   2.094  15.900  10.195
46129W        W17658   2.299  35.633   3.594
46130W        W17659  23.495  42.787  12.503
46131W        W17660  24.249   4.170   0.712
46132W        W17661  43.763  40.286   3.219
46133W        W17662  10.813  37.759  10.597
46134W        W17663  44.451  41.718   1.074
46135W        W17664  15.259  19.574   0.889
46136W        W17665  26.167   6.470   0.852
46137W        W17666   2.529  15.773   2.757
46138W        W17667   1.362  41.324  11.597
46139W        W17668   9.634   4.854  14.181
46140W        W17669  44.892  38.873  12.075
46141W        W17670  31.682  14.267   1.999
46142W        W17671  25.178  32.359  14.757
46143W        W17672  39.966  36.455  11.464
46144W        W17673   6.941  36.087   1.850
46145W        W17674  18.384  22.111   2.905
46146W        W17675   4.017  40.585   2.539
46147W        W17676   7.108  14.022  12.058
46148W        W17677   9.096  14.298   0.503
46149W        W17678  26.280   0.970  12.028
46150W        W17679  33.665  31.952   0.746
46151W        W17680   3.848  26.444   2.501
46152W        W17681  33.341  33.981   2.884
46153W        W17682  13.063   1.941  10.892
46154W        W17683   6.744  40.544   2.896
46155W        W17684  29.370  17.759   0.910
46156W        W17685   8.090  39.889  10.033
46157W        W17686  25.425  25.369  12.513
46158W        W17687   6.189  10.269   3.540
46159W        W17688  31.668  26.091  13.498
46160W        W17689  28.233  40.324   3.690
46161W        W17690  26.940  27.707   2.326
46162W        W17691  40.088  33.009  12.228
46163W        W17692  25.476  33.780  10.912
46164W        W17693  28.716  42.848   3.770
46165W        W17694  22.175  25.188   1.708
46166W        W17695  13.811  18.580   0.996
46167W        W17696  32.563  31.537   4.170
46168W        W17697  24.766  15.105  14.654
46169W        W17698  15.784  25.003  11.310
46170W        W17699  24.500  33.620   2.020
46171W        W17700  20.156  17.708  14.271
46172W        W17701  21.436  14.862   0.720
46173W        W17702   8.941  15.778   2.831
46174W        W17703  37.017  10.079  14.294
46175W        W17704  29.075  35.112  13.414
46176W        W17705  10.826  41.283  12.555
46177W        W17706  22.606  34.761  14.604
46178W        W17707  13.104  41.099  12.369
46179W        W17708  19.035   5.559   0.705
46180W        W17709   8.583  38.795  14.414
46181W        W17710  23.221  43.030  14.354
46182W        W17711  36.147  42.753  14.775
46183W        W17712  33.933   5.913   3.836
46184W        W17713  31.114  22.302   0.870
46185W        W17714   8.556  26.901  10.192
46186W        W17715  32.176  29.213  13.401
46187W        W17716  35.387   0.478   4.307
46188W        W17717  10.275  12.196   4.877
46189W        W17718  16.238  25.708  11.547
46190W        W17719  40.911   6.008  14.844
46191W        W17720  11.721  31.630   4.035
46192W        W17721   8.375  14.664   0.148
46193W        W17722   2.996  23.280   3.722
46194W        W17723  25.468   9.064   2.488
46195W        W17724  44.368  30.985   2.660
46196W        W17725  18.340  30.297   4.462
46197W        W17726   8.347  38.840  12.378
46198W        W17727  20.547  26.562  12.077
46199W        W17728  16.754  37.874   4.588
46200W        W17729  39.888  13.694   4.220
46201W        W17730   2.863   5.167  11.889
46202W        W17731  17.162  40.530  11.643
46203W        W17732  13.776  27.694   2.915
46204W        W17733  13.409  27.492  12.213
46205W        W17734  39.885  29.673  12.168
46206W        W17735  32.100  13.032  14.974
46207W        W17736   0.444  16.639   3.710
46208W        W17737  16.820   6.514  14.528
46209W        W17738   1.906   4.389  13.809
46210W        W17739  31.108  34.752   4.426
46211W        W17740  28.991  30.660  14.933
46212W        W17741   4.911   0.991  11.604
46213W        W17742  34.222  24.268  12.524
46214W        W17743   8.852  22.136  13.713
46215W        W17744  26.124  20.713   3.791
46216W        W17745  19.483   8.357  12.656
46217W        W17746   1.878  38.571  11.675
46218W        W17747  35.434   8.874  10.886
46219W        W17748  12.604  10.157   4.229
46220W        W17749  14.009  44.967   3.612
46221W        W17750  18.367  18.388  11.030
46222W        W17751  22.114   9.458   3.772
46223W        W17752  42.824  24.491   3.727
46224W        W17753  30.653  29.874  14.490
46225W        W17754  38.897   2.260  10.440
46226W        W17755  31.393  32.836   0.973
46227W        W17756  20.001  44.194  14.408
46228W        W17757  31.778  24.108   0.719
46229W        W17758   1.747  23.065  14.015
46230W        W17759  44.275  12.084   2.109
46231W        W17760  33.293  10.644  11.165
46232W        W17761  11.684  35.594   1.821
46233W        W17762  40.816  40.340   2.806
46234W        W17763   1.983  42.877  12.172
46235W        W17764  10.608  42.479  10.862
46236W        W17765   8.419  27.061  10.685
46237W        W17766  34.649  24.247   0.791
46238W        W17767  27.705  33.218   1.679
46239W        W17768  18.427  15.114   3.955
46240W        W17769   9.869  26.980  11.619
46241W        W17770   3.939   1.739  10.753
46242W        W17771  43.770  25.640   1.282
46243W        W17772  21.299  23.135   5.017
46244W        W17773  38.856  37.994  11.339
46245W        W17774  40.975  42.818  12.481
46246W        W17775  37.559  14.546   0.752
46247W        W17776  42.857  19.780   2.307
46248W        W17777  34.108   7.669  10.511
46249W        W17778   9.921  35.477   1.940
46250W        W17779  40.770  27.552  13.395
46251W        W17780  20.702  26.692   5.005
46252W        W17781  27.553  41.423  11.266
46253W        W17782  22.310   6.843   3.705
46254W        W17783  41.754  27.416   1.961
46255W        W17784  36.597  11.364  14.655
46256W        W17785  32.629  10.285  13.842
46257W        W17786  34.471  13.178   3.211
46258W        W17787  11.151  12.609   2.791
46259W        W17788  21.924  43.455  11.910
46260W        W17789   8.355  42.837   1.314
46261W        W17790  24.952   9.322  13.871
46262W        W17791  44.691  36.489  12.008
46263W        W17792  43.599  42.509  11.962
46264W        W17793  42.131   3.891  14.631
46265W        W17794  37.379   5.145  11.522
46266W        W17795  30.027  10.281  10.480
46267W        W17796  29.591   2.177  12.347
46268W        W17797  42.711  44.163   4.205
46269W        W17798  16.585  16.142   4.101
46270W        W17799  24.540   2.842   4.079
46271W        W17800  35.914  15.820  10.590
46272W        W17801  16.512  18.187   2.797
46273W        W17802  20.998  27.581  14.522
46274W        W17803  24.728  16.220   4.275
46275W        W17804  18.535  19.555  12.379
46276W        W17805  29.335  31.409  11.161
46277W        W17806  15.330  39.201  14.342
46278W        W17807   2.854  38.399  10.705
46279W        W17808  17.663  38.618  14.257
46280W        W17809  13.796  42.344   3.174
46281W        W17810  16.511  37.880   3.243
46282W        W17811  38.255  18.594  12.559
46283W        W17812   5.115  10.707   4.129
46284W        W17813  35.170  19.181   2.326
46285W        W17814  33.740  15.085  14.630
46286W        W17815   0.045  41.340   3.694
46287W        W17816  32.802  35.893   1.655
46288W        W17817  14.312  27.573  11.648
46289W        W17818  42.454  14.764  10.468
46290W        W17819   5.262  19.611  10.803
46291W        W17820  42.548   6.767  14.657
46292W        W17821  13.122  29.562   0.872
46293W        W17822   2.790   0.755   1.418
46294W        W17823  18.902  20.551  12.102
46295W        W17824  35.848  33.525   2.289
46296W        W17825   6.454  27.098   2.662
46297W        W17826  34.009  29.402  12.351
46298W        W17827  38.053  33.389   0.931
46299W        W17828  10.817  32.083  12.007
46300W        W17829  19.144  23.458  12.858
46301W        W17830  16.876  28.452  13.926
46302W        W17831  38.175  34.385  10.160
46303W        W17832   5.084   2.773   3.281
46304W        W17833   3.363  31.490  12.816
46305W        W17834  28.176  16.060  10.438
46306W        W17835  19.731  28.056   3.680
46307W        W17836  18.794  34.762  13.359
46308W        W17837  18.396  42.054  11.582
46309W        W17838  37.476  17.675  11.620
46310W        W17839  13.282   2.214   3.834
46311W        W17840  28.498   8.740  11.441
46312W        W17841  36.809  34.430  11.291
46313W        W17842  27.462  42.564  10.596
46314W        W17843  43.389  38.009  11.658
46315W        W17844  44.712  37.996   1.145
46316W        W17845  20.150  44.664  14.312
46317W        W17846  32.827   2.943  12.869
46318W        W17847  22.108   7.940   3.375
46319W        W17848   6.372  15.343   2.169
46320W        W17849  14.194  33.481  10.755
46321W        W17850  38.213  44.808   2.160
46322W        W17851  34.556  16.789  14.477
46323W        W17852  16.820   8.486  10.954
46324W        W17853  11.194  23.257   4.156
46325W        W17854   0.098   7.711  10.926
46326W        W17855  17.680   1.304  14.461
46327W        W17856   2.411  19.284  10.571
46328W        W17857  21.085  11.052  12.826
46329W        W17858  36.863  40.077  14.942
46330W        W17859  10.981   7.899  11.099
46331W        W17860  22.956   1.734   3.802
46332W        W17861   4.753   2.936   1.908
46333W        W17862  18.823  24.459   2.282
46334W        W17863   3.198   3.134  13.590
46335W        W17864  31.556  44.379   4.559
46336W        W17865  37.100  32.651   3.561
46337W        W17866  20.312  33.524   2.324
46338W        W17867  37.873   6.401  11.143
46339W        W17868  34.058  32.647  13.050
46340W        W17869  27.613  43.410  11.312
46341W        W17870   7.330   3.649  12.523
46342W        W17871   3.269  25.032  14.837
46343W        W17872  40.132  27.718   2.005
46344W        W17873  22.356   3.644  10.257
46345W        W17874   3.896   1.264   1.677
46346W        W17875   3.355  33.547   0.653
46347W        W17876   5.726   5.473   2.201
46348W        W17877   3.798  25.191  13.317
46349W        W17878  28.914   0.413   3.076
46350W        W17879   5.737   1.380  13.975
46351W        W17880  24.292  15.385   4.737
46352W        W17881   7.712   6.212  12.064
46353W        W17882  27.430  26.900  13.940
46354W        W17883  44.252  34.811  14.555
46355W        W17884  23.137  29.507   1.795
46356W        W17885   5.066  21.369  14.886
46357W        W17886  36.562  16.075  13.992
46358W        W17887  22.561   5.384   1.614
46359W        W17888  20.040  13.624  12.919
46360W        W17889   1.332  42.823   4.740
46361W        W17890  22.288   9.360  11.491
46362W        W17891  15.264  11.152   2.367
46363W        W17892  10.873  24.742   0.820
46364W        W17893   3.331   2.213  14.553
46365W        W17894  33.999  35.694   3.372
46366W        W17895  13.922  17.832   0.204
46367W        W17896  25.051  30.078  11.921
46368W        W17897   5.716  29.521   0.348
46369W        W17898  38.495   4.756  13.492
46370W        W17899   8.516  10.210  10.002
46371W        W17900  43.341  36.517  12.058
46372W        W17901  38.153  13.060  14.944
46373W        W17902  40.964  39.017  10.653
46374W        W17903  24.045  42.025  12.859
46375W        W17904   9.481   0.273  14.457
46376W        W17905  37.860  36.530  11.583
46377W        W17906  31.514  16.158  14.707
46378W        W17907  37.454  13.736  12.920
46379W        W17908  26.956  29.994  13.521
46380W        W17909  14.084  25.858   3.857
46381W        W17910  35.350  17.483  11.787
46382W        W17911  38.352  22.762  12.349
46383W        W17912  23.633   3.007   0.739
46384W        W17913  41.966  28.652  14.102
46385W        W17914  27.223   5.818  12.473
46386W        W17915  33.109   4.265   4.305
46387W        W17916  44.498  15.152  11.133
46388W        W17917   0.297   6.995   2.702
46389W        W17918  44.006  19.712   0.256
46390W        W17919  36.584  14.990  11.306
46391W        W17920  27.112  18.744  10.769
46392W        W17921  38.520  37.621   0.723
46393W        W17922  17.794  19.222   0.489
46394W        W17923  21.222  27.075   1.836
46395W        W17924   9.132  44.512   4.181
46396W        W17925   7.150   1.001  14.484
46397W        W17926  44.291   3.376  10.642
46398W        W17927   2.964  26.092   1.444
46399W        W17928  24.208  25.185  13.503
46400W        W17929  35.772  22.580   4.588
46401W        W17930   6.663   1.389   2.172
46402W        W17931  35.171  12.367   3.356
46403W        W17932  21.771  44.423  12.582
46404W        W17933   2.438  14.105  10.801
46405W        W17934   8.172  12.912  13.218
46406W        W17935  36.514   6.194  12.976
46407W        W17936  16.764  41.516  12.559
46408W        W17937  19.469   7.277  14.376
46409W        W17938   7.780   7.273  13.057
46410W        W17939  31.459  44.498   4.068
46411W        W17940   8.474  12.334   3.505
46412W        W17941  22.825  16.787   3.786
46413W        W17942  13.177  20.223   3.926
46414W        W17943  30.916  14.304  11.899
46415W        W17944  34.800  30.963   2.277
46416W        W17945  17.358  20.754   1.694
46417W        W17946  15.299  41.800  13.868
46418W        W17947   3.291  44.702   2.776
46419W        W17948  15.113  36.031  14.448
46420W        W17949  24.060  20.052   4.165
46421W        W17950  24.104   5.980   3.982
46422W        W17951  32.104  39.579   0.907
46423W        W17952  44.208  31.173  12.050
46424W        W17953  27.063  15.732  14.736
46425W        W17954   8.984   3.891   1.506
46426W        W17955   0.694  36.411   3.337
46427W        W17956  31.046  40.785   3.225
46428W        W17957  22.999  16.703   2.287
46429W        W17958  38.117  27.980   2.359
46430W        W17959  37.325   2.805   4.532
46431W        W17960  21.405  25.804   3.866
46432W        W17961  29.398  25.492  14.339
46433W        W17962  35.934  33.919   5.066
46434W        W17963   1.278  16.167   3.826
46435W        W17964  28.031  44.462  13.363
46436W        W17965  14.866  37.057  14.267
46437W        W17966  20.616  20.182  14.427
46438W        W17967  11.833  10.531  11.323
46439W        W17968  40.815  43.361   3.383
46440W        W17969  10.837  42.685  12.813
46441W        W17970  31.315  42.862  10.259
46442W        W17971   2.337   8.215  12.027
46443W        W17972  24.966   0.945  10.957
46444W        W17973  41.559  37.077  14.877
46445W        W17974  31.574  32.599   0.104
46446W        W17975  12.662  15.673   0.765
46447W        W17976   3.514  41.922  12.080
46448W        W17977   6.885  12.412  12.842
46449W        W17978  15.567  40.699  11.400
46450W        W17979   6.725  43.877   1.620
46451W        W17980  44.800  30.409  13.234
46452W        W17981  13.429  30.616  14.919
46453W        W17982  12.369   6.763  14.010
46454W        W17983  11.470  21.988   1.797
46455W        W17984   5.784  44.172   4.584
46456W        W17985  44.804  14.052   4.524
46457W        W17986  34.992  33.939   1.562
46458W        W17987   6.699  14.789   2.417
46459W        W17988  18.675  37.066   3.353
46460W        W17989  11.426  33.196  11.156
46461W        W17990   5.086  31.555  14.856
46462W        W17991   7.236  38.968   0.826
46463W        W17992   1.661   0.735  12.000
46464W        W17993   5.620  36.701   2.684
46465W        W17994  21.444  25.367  11.521
46466W        W17995  31.139  36.051  11.981
46467W        W17996  16.286  40.851  11.578
46468W        W17997   7.340   1.818  10.924
46469W        W17998   3.411  13.221   0.825
46470W        W17999  36.967  37.055  10.672
46471W        W18000  38.682  13.124   0.825
46472W        W18001  43.216  20.382  12.480
46473W        W18002  25.457  29.275   3.281
46474W        W18003  41.383   9.173   1.873
46475W        W18004   2.064  10.584   5.092
46476W        W18005   3.489  10.516  14.060
46477W        W18006  44.086  30.672  10.776
46478W        W18007  16.446  23.744  10.698
46479W        W18008  42.867  30.645  14.332
46480W        W18009  27.518   2.687   3.295
46481W        W18010  22.229  41.524  10.540
46482W        W18011  23.467   5.849  13.909
46483W        W18012   3.947  37.525  14.287
46484W        W18013   8.293   0.809  11.688
46485W        W18014  35.518   8.111  11.623
46486W        W18015  13.085  35.173   2.811
46487W        W18016  33.003  29.676  11.085
46488W        W18017  33.055   2.180  10.678
46489W        W18018   0.679  23.198  13.158
46490W        W18019  39.592  34.965   0.749
46491W        W18020  13.863  42.167  12.955
46492W        W18021  36.896  43.201   4.584
46493W        W18022  43.941  12.591  14.938
46494W        W18023  10.717  16.283  12.965
46495W        W18024  17.815  37.239  12.412
46496W        W18025  21.432  38.128  12.859
46497W        W18026  22.921   5.739   1.427
46498W        W18027  16.246  33.302  14.209
46499W        W18028  28.174   2.829   0.908
46500W        W18029  14.242  26.012   0.936
46501W        W18030   9.662  43.632  14.381
46502W        W18031   2.648  42.123   5.024
46503W        W18032   0.424  33.561   0.691
46504W        W18033   3.454  27.460  10.582
46505W        W18034  44.185  13.677  10.757
46506W        W18035   0.095  39.059  12.515
46507W        W18036  28.674  36.803   4.516
46508W        W18037  18.343  36.681   3.115
46509W        W18038  24.103  33.879   0.366
46510W        W18039  28.601   0.480  12.197
46511W        W18040  37.924   4.794  14.269
46512W        W18041   1.394  43.444  14.941
46513W        W18042  20.492  44.257  14.336
46514W        W18043   5.679  40.055   0.508
46515W        W18044   9.321  26.632  10.530
46516W        W18045  28.682   8.322  12.685
46517W        W18046  42.339   2.031  12.805
46518W        W18047  40.271  17.555   3.454
46519W        W18048  26.534  34.689   4.644
46520W        W18049  39.276  17.159   3.702
46521W        W18050  42.388  12.727  10.446
46522W        W18051   5.337   7.878   3.074
46523W        W18052   5.450   1.907  13.277
46524W        W18053  34.675  36.066   4.481
46525W        W18054  15.177  23.606   3.165
46526W        W18055  20.095  24.535   4.077
46527W        W18056  23.565  13.374  11.490
46528W        W18057  16.593  15.229   1.109
46529W        W18058  18.496  21.739  14.826
46530W        W18059  15.266  35.521   3.583
46531W        W18060   9.761  11.124   4.271
46532W        W18061   8.230  16.905   4.215
46533W        W18062  13.658  30.147  13.045
46534W        W18063   3.016  30.135   1.818
46535W        W18064  16.790   7.523   2.268
46536W        W18065  27.672   9.548   1.761
46537W        W18066  29.542  43.047  13.907
46538W        W18067  15.037   4.115  12.053
46539W        W18068  29.405  10.185   4.974
46540W        W18069   3.416  41.741   4.113
46541W        W18070  18.197  14.651  12.659
46542W        W18071  22.064  24.139   2.442
46543W        W18072  31.487   8.607   3.243
46544W        W18073   9.373  22.509   1.734
46545W        W18074  23.553  18.738   1.860
46546W        W18075  40.050  37.455  13.963
46547W        W18076  14.407   6.244   1.977
46548W        W18077  20.414  31.675  11.120
46549W        W18078  38.771  33.217  11.142
46550W        W18079  13.301  37.608  11.636
46551W        W18080  41.496  44.768   0.795
46552W        W18081  39.665  28.154  13.098
46553W        W18082   0.532  44.884   0.259
46554W        W18083  14.596   4.859   1.153
46555W        W18084  27.554  42.408  11.208
46556W        W18085  33.537  17.981  14.572
46557W        W18086  44.374  27.507   2.867
46558W        W18087  10.083  23.566   9.966
46559W        W18088  32.959  19.809  10.654
46560W        W18089  14.912  19.130   1.739
46561W        W18090  12.453  13.672   4.290
46562W        W18091   3.806  10.682  12.612
46563W        W18092  25.485  17.701  11.520
46564W        W18093  27.679  42.221  12.232
46565W        W18094  35.604  10.161   1.980
46566W        W18095   9.937  34.869   0.299
46567W        W18096  40.457  36.506   2.312
46568W        W18097  29.054  21.575  14.838
46569W        W18098  43.203   9.902  13.011
46570W        W18099   9.182   7.260  13.313
46571W        W18100  16.835  26.070  13.860
46572W        W18101  19.767  34.537   0.821
46573W        W18102  43.116  23.194   1.109
46574W        W18103  16.336  35.445   3.444
46575W        W18104  44.358  31.980   4.628
46576W        W18105   4.679   9.421   3.864
46577W        W18106  32.107   9.440  10.737
46578W        W18107  41.556  17.750  14.930
46579W        W18108  33.552  20.871   4.738
46580W        W18109  27.517   7.001   0.658
46581W        W18110   1.713  26.966  12.342
46582W        W18111  14.682   5.843  11.514
46583W        W18112  43.151   0.390   4.197
46584W        W18113  37.894  10.120   0.076
46585W        W18114  42.799  37.787   4.605
46586W        W18115  19.067   4.955   2.287
46587W        W18116  30.821  30.638  12.968
46588W        W18117   1.488   1.828  13.524
46589W        W18118   1.334  38.588   0.633
46590W        W18119  29.466  24.294  12.073
46591W        W18120  35.620  44.703  12.851
46592W        W18121  31.864   5.461  10.445
46593W        W18122  14.317  25.154   0.477
46594W        W18123  28.753   0.878   1.734
46595W        W18124  37.428  19.551   0.307
46596W        W18125  30.021   3.410   3.626
46597W        W18126  42.848  12.996  10.465
46598W        W18127  25.458  29.489  14.505
46599W        W18128  26.110  34.597   4.951
46600W        W18129  39.396  24.579   4.416
46601W        W18130  28.455  25.980  12.945
46602W        W18131  23.562  44.833   3.070
46603W        W18132  15.113  24.263  11.645
46604W        W18133  28.665   2.824  12.031
46605W        W18134  38.806  21.651   3.610
46606W        W18135  12.698   6.845  11.583
46607W        W18136   6.318  28.859   1.894
46608W        W18137  43.538  22.660  11.126
46609W        W18138  30.919  29.201   0.752
46610W        W18139  15.980  41.891  12.391
46611W        W18140   6.220  37.482  10.366
46612W        W18141  28.614  40.500  10.687
46613W        W18142  29.921  11.657   1.154
46614W        W18143  30.110   9.064   0.278
46615W        W18144  13.571  19.045   0.856
46616W        W18145  31.946   9.129  13.106
46617W        W18146  10.163  22.095   3.871
46618W        W18147  19.988  41.854  11.931
46619W        W18148  15.342  12.748   4.019
46620W        W18149  28.834  36.093   4.928
46621W        W18150  22.839  21.308   4.485
46622W        W18151  41.524   0.353   3.138
46623W        W18152  27.010   4.771  11.142
46624W        W18153  33.904  41.548  10.697
46625W        W18154  25.095  11.342   2.261
46626W        W18155   2.985  31.601  12.375
46627W        W18156   0.033  31.476  14.450
46628W        W18157  30.404  44.437  14.031
46629W        W18158  30.091  12.250  10.558
46630W        W18159   4.790  29.337   4.559
46631W        W18160  43.627  19.584   1.012
46632W        W18161  14.590   8.726  12.139
46633W        W18162  36.867  31.949  12.345
46634W        W18163  22.762  30.988  12.385
46635W        W18164   2.726  33.678   2.742
46636W        W18165  30.191  34.384   0.561
46637W        W18166  15.050   2.780   0.805
46638W        W18167  35.563  19.193   3.220
46639W        W18168  28.975   5.114  12.525
46640W        W18169  39.983  24.802  12.206
46641W        W18170  34.826  37.821  11.708
46642W        W18171  13.772  16.869  12.876
46643W        W18172   7.724  38.849  14.935
46644W        W18173  17.685  15.723  14.620
46645W        W18174   2.702   7.378   5.052
46646W        W18175  33.726  36.539   0.263
46647W        W18176   4.992   7.659  12.584
46648W        W18177   7.587   7.799   4.823
46649W        W18178   7.706  26.943   1.336
46650W        W18179  16.468  35.498   0.916
46651W        W18180  17.667   2.223   3.663
46652W        W18181  43.146  30.112  12.570
46653W        W18182  26.767  26.220   3.301
46654W        W18183   0.684  31.275   3.704
46655W        W18184  12.076  14.827  14.463
46656W        W18185  35.674  42.843   2.363
46657W        W18186  35.871  16.576  11.476
46658W        W18187  22.480  24.271   4.288
46659W        W18188   9.618  31.506   2.608
46660W        W18189  18.716   0.999   0.545
46661W        W18190  13.414   0.264   4.576
46662W        W18191  38.351   3.982   0.858
46663W        W18192   6.124  43.023   0.843
46664W        W18193  37.991  44.809   2.722
46665W        W18194  32.602  40.879  11.059
46666W        W18195  44.359   3.647   2.030
46667W        W18196  35.071   3.154   2.158
46668W        W18197  28.058   3.263  10.604
46669W        W18198   5.414   6.683  12.023
46670W        W18199  33.291   9.327   0.142
46671W        W18200  21.174  33.943  14.622
46672W        W18201  39.928  27.178   4.225
46673W        W18202  15.012   9.653  14.937
46674W        W18203  14.241   1.400  10.439
46675W        W18204   6.692  17.562  12.526
46676W        W18205  28.569   1.172  11.232
46677W        W18206  39.898  36.254   4.567
46678W        W18207  11.211  42.454  14.511
46679W        W18208   9.380   4.388  14.109
46680W        W18209  29.382  41.440   0.932
46681W        W18210   5.766   4.961   4.501
46682W        W18211  24.229  11.838   3.769
46683W        W18212   5.721  44.250  10.721
46684W        W18213  35.578  36.258   1.334
46685W        W18214  18.932  16.278   0.784
46686W        W18215  12.298  28.437   4.107
46687W        W18216  10.801  23.069   0.492
46688W        W18217  26.432  21.600   2.844
46689W        W18218  10.266  17.509   1.314
46690W        W18219  35.626  22.907  10.843
46691W        W18220  38.447  13.737  14.278
46692W        W18221  43.386  34.795   2.197
46693W        W18222  21.484  27.580  10.632
46694W        W18223  14.541  39.928  12.000
46695W        W18224   8.304   4.186  11.202
46696W        W18225  30.967  35.318  10.721
46697W        W18226  14.792  12.937   0.660
46698W        W18227   0.505  35.875  14.455
46699W        W18228  33.193   9.663   1.163
46700W        W18229   9.569   4.853  12.971
46701W        W18230   6.894   7.586  10.779
46702W        W18231   6.886  38.537  12.524
46703W        W18232  38.238  18.663   0.763
46704W        W18233   9.577  28.545   3.579
46705W        W18234  44.720  23.995   2.327
46706W        W18235  40.224  18.993   1.938
46707W        W18236   7.436  22.499  11.685
46708W        W18237  26.349   3.007   1.162
46709W        W18238  14.392  10.263  11.499
46710W        W18239  36.472  31.438   3.652
46711W        W18240  44.759  39.130   3.622
46712W        W18241  15.762   7.849  14.814
46713W        W18242   7.218   7.890   1.649
46714W        W18243  27.657   5.988   1.634
46715W        W18244   1.870  14.354   1.865
46716W        W18245  15.408  34.578  14.520
46717W        W18246   2.902  37.499   0.450
46718W        W18247  44.975  38.496   2.855
46719W        W18248   8.239  44.795  12.040
46720W        W18249  43.276  29.278   1.738
46721W        W18250  29.626  35.387  12.482
46722W        W18251  44.599   6.275   4.816
46723W        W18252  37.836  20.692   1.851
46724W        W18253  13.561  10.175  13.859
46725W        W18254  43.940   8.873  14.201
46726W        W18255  22.517   8.349   9.901
46727W        W18256   8.733  38.989  13.545
46728W        W18257  13.315  41.561   1.183
46729W        W18258  38.487  21.045  11.546
46730W        W18259  13.261  44.747   4.653
46731W        W18260  28.003  42.556  12.511
46732W        W18261  32.158  19.217   2.790
46733W        W18262   3.788  34.176  12.810
46734W        W18263   8.152  26.396  12.585
46735W        W18264  37.224  41.274   3.348
46736W        W18265  34.996  24.251   3.651
46737W        W18266  12.600   8.129  13.977
46738W        W18267  38.931  35.307   2.254
46739W        W18268  31.186  15.729   3.026
46740W        W18269  20.411  43.734  11.150
46741W        W18270  11.721  26.944  13.036
46742W        W18271  20.805  23.710  11.016
46743W        W18272   4.456  18.272   2.732
46744W        W18273  15.570  25.435   1.333
46745W        W18274  21.612  16.994   0.268
46746W        W18275  17.039   4.050  13.958
46747W        W18276  25.122  25.133  10.659
46748W        W18277  13.263  36.351   2.137
46749W        W18278  32.912  30.553   0.509
46750W        W18279  38.713  41.223  13.054
46751W        W18280  32.610  22.986  11.056
46752W        W18281  44.016  21.286  14.268
46753W        W18282  30.112  39.334  10.752
46754W        W18283  40.414  18.094   3.334
46755W        W18284  43.002   0.284   3.384
46756W        W18285  12.248  17.187   0.505
46757W        W18286   3.363   3.050   2.719
46758W        W18287   9.939  17.553  12.666
46759W        W18288  39.851  17.810   0.950
46760W        W18289  16.152  40.916  10.685
46761W        W18290  44.500  30.830  13.366
46762W        W18291  23.494  15.928   0.237
46763W        W18292  28.380   2.831   4.181
46764W        W18293  21.684  25.287   1.884
46765W        W18294  22.191  20.635   3.133
46766W        W18295   4.014   4.428   4.052
46767W        W18296  29.282  44.261   0.371
46768W        W18297  18.563  12.669   4.534
46769W        W18298  10.247  20.879   3.194
46770W        W18299  33.858  19.233   1.005
46771W        W18300  31.102  23.702  13.097
46772W        W18301  12.562   6.910   0.478
46773W        W18302   4.275  22.232  11.626
46774W        W18303  34.162   0.730  13.179
46775W        W18304  31.874  29.914  14.901
46776W        W18305   8.782   1.517   1.370
46777W        W18306  19.088  44.963  14.905
46778W        W18307  37.773  15.297  10.402
46779W        W18308  44.062   0.221   1.585
46780W        W18309  11.642  31.777   0.182
46781W        W18310  27.547  15.144   3.171
46782W        W18311  11.574  11.230  12.963
46783W        W18312  30.670  28.580   1.242
46784W        W18313  27.480   1.618   3.352
46785W        W18314  34.855  35.332   3.397
46786W        W18315   1.337  38.911   3.868
46787W        W18316  27.984  44.398   3.181
46788W        W18317  12.302  30.846  14.195
46789W        W18318  13.780   2.222  11.160
46790W        W18319  22.670  42.416   0.847
46791W        W18320   3.685  17.888  14.373
46792W        W18321  15.316  36.218   2.175
46793W        W18322  25.746  13.308  11.587
46794W        W18323  28.025   6.399   2.178
46795W        W18324  31.184  26.710  12.543
46796W        W18325  41.375  14.302  14.751
46797W        W18326  19.622   4.904   1.041
46798W        W18327  21.708  40.317   4.026
46799W        W18328  24.747  37.079   4.712
46800W        W18329  29.650   2.226   4.826
46801W        W18330  12.690   1.174   4.134
46802W        W18331  39.610  40.246  14.385
46803W        W18332   5.768  31.241  11.864
46804W        W18333  17.182  39.366  14.411
46805W        W18334  29.579  23.466  12.991
46806W        W18335  11.780  34.055  13.933
46807W        W18336  33.264  10.070   4.224
46808W        W18337  25.837   9.235   4.726
46809W        W18338  43.259  13.130  11.285
46810W        W18339  34.290  32.111   4.539
46811W        W18340  12.769  23.702   3.763
46812W        W18341  38.624  23.813  11.637
46813W        W18342  29.693  22.840   3.025
46814W        W18343  27.548  13.565  14.324
46815W        W18344  11.096  42.824   5.063
46816W        W18345  42.280  16.183   2.904
46817W        W18346  23.490  38.815   3.899
46818W        W18347  43.725  11.747   3.596
46819W        W18348  24.056  26.557  14.328
46820W        W18349   4.924   4.742   0.411
46821W        W18350  22.088  43.485   0.962
46822W        W18351  41.116  32.837  12.013
46823W        W18352   4.672  36.036  12.514
46824W        W18353  32.767  24.619   3.440
46825W        W18354  22.555  12.565   0.547
46826W        W18355  38.824  40.199  14.770
46827W        W18356  31.453  35.565  10.750
46828W        W18357  24.087  27.224   1.017
46829W        W18358   3.998  22.059  12.017
46830W        W18359  26.121   5.357   4.607
46831W        W18360  35.714   0.280  10.903
46832W        W18361  13.332  19.661  14.800
46833W        W18362  11.591  19.624   4.107
46834W        W18363  22.179  35.291  14.098
46835W        W18364  10.284  25.773   0.310
46836W        W18365  33.437  14.694   4.030
46837W        W18366  23.740  30.014  11.542
46838W        W18367  17.118  37.625  14.980
46839W        W18368   6.030   6.652  14.523
46840W        W18369  33.113  15.264   2.773
46841W        W18370  12.426   7.622  14.054
46842W        W18371  43.369   8.355  14.301
46843W        W18372  38.393  11.258   0.113
46844W        W18373  43.412  28.065  10.723
46845W        W18374   6.582  44.901  10.894
46846W        W18375  11.381  35.912  12.846
46847W        W18376   5.935  29.135  12.877
46848W        W18377  19.647  42.884  14.265
46849W        W18378   4.645   9.012   3.541
46850W        W18379  38.066  17.039  14.821
46851W        W18380  12.265  20.077  11.385
46852W        W18381  32.389  23.993  11.895
46853W        W18382  38.434  26.929   4.539
46854W        W18383  23.563  39.505  14.239
46855W        W18384  12.345  10.607   3.730
46856W        W18385   0.950  37.976   1.283
46857W        W18386  40.104  33.483   1.343
46858W        W18387  17.799   6.636   2.666
46859W        W18388  13.181  25.974  10.951
46860W        W18389  29.445  18.819   2.248
46861W        W18390  15.055  12.121  13.835
46862W        W18391  25.268  42.324   2.700
46863W        W18392  34.347  24.086   4.145
46864W        W18393  12.785  20.547   2.756
46865W        W18394  15.301  12.368   3.091
46866W        W18395  31.434  11.746  11.589
46867W        W18396  43.690  42.856  13.558
46868W        W18397  26.996   0.562  10.120
46869W        W18398  39.425  31.384  13.891
46870W        W18399   6.206   3.074  10.734
46871W        W18400  23.957   8.320   1.678
46872W        W18401  37.095  31.584   2.785
46873W        W18402  44.925  18.905   0.268
46874W        W18403  25.488  16.120   3.244
46875W        W18404   7.321  42.717  10.691
46876W        W18405  25.745   1.061  11.422
46877W        W18406  24.656  36.976   1.025
46878W        W18407  22.615   1.710   2.233
46879W        W18408  36.225   4.451  14.095
46880W        W18409  38.606   3.975  11.131
46881W        W18410  43.029  15.647   4.570
46882W        W18411  40.625  27.121  12.518
46883W        W18412  24.370  34.565  10.327
46884W        W18413  25.873  18.617   1.331
46885W        W18414  23.471  11.627  14.581
46886W        W18415  36.462   1.310  10.830
46887W        W18416  14.357  44.957  11.881
46888W        W18417  37.848  36.402   2.831
46889W        W18418  15.952  19.718   4.082
46890W        W18419  12.128  22.081  14.460
46891W        W18420  12.446   3.994   1.731
46892W        W18421   8.189  30.510  14.127
46893W        W18422  20.562   2.403  14.435
46894W        W18423  42.445  41.122   2.372
46895W        W18424  11.180  37.878   0.476
46896W        W18425  42.979  29.793  11.125
46897W        W18426  37.590  17.825  13.133
46898W        W18427   2.165   8.045  11.561
46899W        W18428  18.875   5.230  12.501
46900W        W18429  29.638   8.595  12.995
46901W        W18430  21.281  31.166  12.363
46902W        W18431  24.316  44.823   3.741
46903W        W18432   1.441   2.261  10.934
46904W        W18433  29.071   3.850  11.396
46905W        W18434  28.186  41.829  13.090
46906W        W18435  44.460  10.279  11.107
46907W        W18436   3.915  33.021  13.292
46908W        W18437   9.948  23.788  12.666
46909W        W18438   8.771   6.194  10.490
46910W        W18439  23.456  37.865   0.818
46911W        W18440  33.233   9.590  11.928
46912W        W18441  43.468  39.025  14.328
46913W        W18442   9.760  37.973  12.365
46914W        W18443  12.190  26.280   4.957
46915W        W18444  33.561  30.680   3.095
46916W        W18445  18.639  17.275   2.723
46917W        W18446  35.839  33.484   3.640
46918W        W18447  19.084  38.784   0.439
46919W        W18448  15.299  29.914   3.860
46920W        W18449   6.281   8.622  13.117
46921W        W18450  40.560   7.444   3.600
46922W        W18451  13.387  33.471   0.322
46923W        W18452  43.802  33.934   1.210
46924W        W18453  29.933  44.055   4.589
46925W        W18454  29.015  17.696  11.543
46926W        W18455  37.880  41.421   0.375
46927W        W18456  23.551  43.242   0.285
46928W        W18457   4.604  26.458  14.440
46929W        W18458  11.367   0.161   2.184
46930W        W18459   2.924   5.749   0.868
46931W        W18460  42.391   6.014  14.670
46932W        W18461  37.376   0.054   1.893
46933W        W18462   5.874   2.357  14.443
46934W        W18463  28.614   9.266  11.124
46935W        W18464  33.589   7.978   4.953
46936W        W18465  35.624  40.144  14.306
46937W        W18466   4.521  27.198  11.001
46938W        W18467  30.679  15.043   4.089
46939W        W18468  41.408  21.112  13.478
46940W        W18469  20.284  37.862  14.941
46941W        W18470  44.408  35.383   0.086
46942W        W18471  44.100  16.727  10.464
46943W        W18472  11.091  36.941  12.586
46944W        W18473  28.136  43.297   0.472
46945W        W18474  14.931  17.774  10.947
46946W        W18475   3.438  23.104   4.601
46947W        W18476  34.546  33.911   4.797
46948W        W18477  31.127  24.050   3.628
46949W        W18478  34.585   4.911   4.200
46950W        W18479  36.047   1.588  11.998
46951W        W18480   2.715   3.494  10.631
46952W        W18481  35.659  44.348  11.467
46953W        W18482  32.884  31.367   2.804
46954W        W18483  38.299   1.600  12.537
46955W        W18484  15.035  24.655   0.247
46956W        W18485   6.412   8.692   4.491
46957W        W18486  32.223  37.376   4.354
46958W        W18487  43.726   1.477   1.802
46959W        W18488  21.484  13.145  11.379
46960W        W18489  38.900  34.472  14.483
46961W        W18490  19.688  41.964  14.679
46962W        W18491  35.329  19.648   1.240
46963W        W18492  18.055  21.603  11.571
46964W        W18493  16.043  41.591   4.748
46965W        W18494  24.582  25.247   1.853
46966W        W18495  31.082   1.457   2.149
46967W        W18496  23.062   0.537   4.611
46968W        W18497  12.047  15.545  11.162
46969W        W18498  44.235  28.954  14.967
46970W        W18499  37.979  32.729   4.258
46971W        W18500   8.222  26.077   4.917
46972W        W18501  19.327  39.270   1.737
46973W        W18502  14.402  35.374  13.445
46974W        W18503  13.545  26.071  12.661
46975W        W18504  39.604  23.769  13.867
46976W        W18505  28.379  38.697   3.378
46977W        W18506  14.609  21.484  13.255
46978W        W18507  17.100  28.880  12.104
46979W        W18508  15.168  20.433   1.354
46980W        W18509  28.388  28.452   0.920
46981W        W18510  15.779  22.729  11.613
46982W        W18511  18.487  11.309  12.406
46983W        W18512  39.517  21.252   0.917
46984W        W18513  22.040  25.212  13.134
46985W        W18514  14.136  42.726  11.050
46986W        W18515  17.002  41.743   1.303
46987W        W18516  42.081  27.482  12.065
46988W        W18517  43.906   0.837  11.040
46989W        W18518   8.150  13.193  14.214
46990W        W18519  27.692  35.532  11.128
46991W        W18520   1.288  26.427   4.179
46992W        W18521  14.846  40.395  12.079
46993W        W18522  43.479  31.492  14.404
46994W        W18523   1.056  26.964  14.963
46995W        W18524   0.857  43.984   2.569
46996W        W18525  23.810  12.149   1.701
46997W        W18526  43.335  42.591  12.775
46998W        W18527  44.633  42.835   5.133
46999W        W18528   0.066  10.019   1.725
47000W        W18529  28.965  25.580   5.032
47001W        W18530  11.198  44.543   3.192
47002W        W18531  10.116   7.679  12.898
47003W        W18532  38.314   6.696   2.329
47004W        W18533  30.134  23.256   1.427
47005W        W18534  36.355  44.049   1.207
47006W        W18535  22.263  42.259   2.762
47007W        W18536   6.381  39.834  12.591
47008W        W18537  11.301  26.111  13.434
47009W        W18538  22.248  32.830   2.754
47010W        W18539  44.845  33.496  13.489
47011W        W18540  41.851  29.238   0.756
47012W        W18541  28.542   4.208   0.888
47013W        W18542  18.165  30.618  10.619
47014W        W18543  37.986   4.704  12.062
47015W        W18544  33.596   7.430   4.145
47016W        W18545  21.653   2.563  12.951
47017W        W18546   6.767  43.848  10.715
47018W        W18547  17.000  15.654   1.815
47019W        W18548  33.364  37.342  12.703
47020W        W18549   1.015  30.028  13.654
47021W        W18550  40.756  13.341  11.453
47022W        W18551  11.331   1.034  14.079
47023W        W18552  31.985  10.269   4.738
47024W        W18553  10.663  28.241   0.292
47025W        W18554  13.273  40.630   2.835
47026W        W18555  39.280   4.311  13.308
47027W        W18556  23.237  11.598   1.742
47028W        W18557  42.490  14.751  14.549
47029W        W18558  19.573  35.122   1.653
47030W        W18559  25.251  35.867  10.970
47031W        W18560  11.728   6.725   4.807
47032W        W18561  38.941   1.330   0.265
47033W        W18562  19.163  37.743  11.728
47034W        W18563  26.462  27.008   4.567
47035W        W18564  23.617  21.831   4.446
47036W        W18565  44.175  37.351  13.465
47037W        W18566  23.938  41.823  13.320
47038W        W18567  34.444  20.754   4.635
47039W        W18568   1.767  16.360  10.887
47040W        W18569  30.150  32.088   4.649
47041W        W18570   9.787  31.345  14.325
47042W        W18571  29.824   4.929  10.579
47043W        W18572  23.579  14.846  10.754
47044W        W18573  13.348  42.852  12.898
47045W        W18574   3.186   7.507  14.794
47046W        W18575  34.047   0.175   3.998
47047W        W18576  22.407  28.434   1.319
47048W        W18577  40.923  40.065  12.500
47049W        W18578  24.170   7.936  11.788
47050W        W18579  44.838  39.137  13.922
47051W        W18580  29.503  13.362  12.426
47052W        W18581   3.667   6.908  14.948
47053W        W18582   0.747  19.343  12.877
47054W        W18583   1.970   5.235   1.873
47055W        W18584  35.318  18.603  10.730
47056W        W18585  20.034  40.831   0.898
47057W        W18586  14.470  23.088   2.870
47058W        W18587  34.435  16.207   3.953
47059W        W18588  41.499  14.823   3.909
47060W        W18589  28.042  19.104   0.913
47061W        W18590  12.307   0.729  14.016
47062W        W18591   1.181  10.930   2.258
47063W        W18592   0.319  28.609  13.116
47064W        W18593  19.272  34.912   0.424
47065W        W18594  31.940  10.742   3.188
47066W        W18595  28.549  38.115  12.518
47067W        W18596   2.454   6.849   2.151
47068W        W18597  10.374  17.232   0.740
47069W        W18598  37.029  13.644  13.221
47070W        W18599   9.338  36.909   3.619
47071W        W18600  11.214   1.458  13.515
47072W        W18601  33.618   5.428  11.162
47073W        W18602   9.296  22.143  10.535
47074W        W18603  12.359  16.312  14.415
47075W        W18604   5.858  14.914   2.866
47076W        W18605  35.520  14.775   0.116
47077W        W18606  12.015  10.225  13.686
47078W        W18607  32.196  42.486   0.290
47079W        W18608  28.043   4.243   0.588
47080W        W18609  14.436   3.930   0.384
47081W        W18610  21.953   5.176   4.146
47082W        W18611  35.152  13.545  12.688
47083W        W18612  22.265  22.519  10.633
47084W        W18613  44.277  18.886  10.609
47085W        W18614  44.004  44.879   2.934
47086W        W18615  28.578   7.157   4.935
47087W        W18616  31.933   3.411   0.436
47088W        W18617  16.277   3.563   4.453
47089W        W18618   1.019  19.577   2.914
47090W        W18619  43.304  11.979  12.626
47091W        W18620  32.109  44.856  13.425
47092W        W18621   6.857  10.365   0.829
47093W        W18622  33.999  33.440   0.778
47094W        W18623  28.160  32.364   0.925
47095W        W18624  26.146  36.308   3.118
47096W        W18625  18.048   0.314  14.427
47097W        W18626  27.146  34.643  11.023
47098W        W18627   8.174   7.922   1.814
47099W        W18628  34.098  27.045  13.565
47100W        W18629   1.366  10.912   2.762
47101W        W18630   1.224  38.048   3.705
47102W        W18631  27.957   2.051   1.875
47103W        W18632  34.586   2.943   3.664
47104W        W18633  38.770  39.360   0.705
47105W        W18634  40.618  26.672   0.311
47106W        W18635  44.056   4.360  14.422
47107W        W18636   8.276   7.259  14.308
47108W        W18637  19.250  18.298   4.083
47109W        W18638  10.909  17.640   2.532
47110W        W18639  25.351  13.689   0.737
47111W        W18640  17.532   5.134   3.182
47112W        W18641  20.677  28.659   3.391
47113W        W18642  31.106  19.811  14.935
47114W        W18643  23.489  29.654  12.387
47115W        W18644  29.646  30.900   1.416
47116W        W18645   6.890  21.186   0.603
47117W        W18646  10.649  17.827  10.711
47118W        W18647  17.668  30.889  14.670
47119W        W18648   0.055  19.945  12.424
47120W        W18649  12.340  13.251  14.670
47121W        W18650   3.551   4.512  14.869
47122W        W18651  37.562  41.859   1.332
47123W        W18652  38.767  39.707  14.868
47124W        W18653  27.064  13.169  12.554
47125W        W18654  11.692   4.467   4.680
47126W        W18655  43.822  19.158   1.769
47127W        W18656  31.579   3.195   4.915
47128W        W18657   8.274  20.460   2.413
47129W        W18658  19.773   0.663  14.953
47130W        W18659   2.943  34.208  12.536
47131W        W18660   2.162  23.747   2.252
47132W        W18661  23.087   3.927   4.168
47133W        W18662   8.131  24.991  13.612
47134W        W18663  32.372  39.243  14.404
47135W        W18664  20.122  25.504   3.210
47136W        W18665  42.742  29.257   1.829
47137W        W18666  30.340  26.700   4.929
47138W        W18667  25.242  41.464  11.177
47139W        W18668   5.688  15.098  12.543
47140W        W18669  10.579  41.781  11.948
47141W        W18670   1.966   1.473   1.795
47142W        W18671   6.940   0.595  12.948
47143W        W18672   3.943   7.525   1.889
47144W        W18673  39.908  15.143  14.362
47145W        W18674  31.311   2.003   0.337
47146W        W18675  13.754   6.315  13.844
47147W        W18676  31.491  26.521  14.563
47148W        W18677  30.913  33.522   2.659
47149W        W18678   0.977  36.009   0.709
47150W        W18679  43.866  12.356   1.311
47151W        W18680  18.492   7.226   0.152
47152W        W18681  20.776  38.103   3.727
47153W        W18682   6.142  37.217   2.727
47154W        W18683  29.198   5.742   3.585
47155W        W18684  32.555  42.430   1.356
47156W        W18685  11.290   6.738   2.889
47157W        W18686  29.525  41.053  14.446
47158W        W18687  23.422  27.596   4.177
47159W        W18688   1.352  31.063   1.145
47160W        W18689  38.437  34.010  11.079
47161W        W18690  21.294  22.486   1.342
47162W        W18691  23.012  31.658  10.974
47163W        W18692   4.135  22.591   0.341
47164W        W18693  13.651  32.367   2.918
47165W        W18694  25.441  22.566   3.540
47166W        W18695  10.412  20.105  11.333
47167W        W18696  14.777  30.195   4.801
47168W        W18697  27.263  27.142   1.725
47169W        W18698  24.137   3.589  14.380
47170W        W18699  11.976  21.779  11.970
47171W        W18700   9.109   2.384   1.678
47172W        W18701   7.211   2.639   2.438
47173W        W18702  44.873   5.652   3.412
47174W        W18703  31.517  20.126   2.920
47175W        W18704  16.237  19.241  13.070
47176W        W18705  33.520  43.385  12.553
47177W        W18706  31.895  42.454   0.864
47178W        W18707   8.377  33.496  13.442
47179W        W18708  38.285   1.516  13.538
47180W        W18709   2.880  23.778   3.863
47181W        W18710  18.792  12.365   0.874
47182W        W18711  36.505  26.230   3.121
47183W        W18712  22.721  10.382  12.671
47184W        W18713   6.175  22.535   1.935
47185W        W18714  42.975  33.434  13.128
47186W        W18715  39.566  27.951  14.606
47187W        W18716  24.047   7.680   3.874
47188W        W18717  36.515  15.738   3.106
47189W        W18718  39.839  32.660   3.182
47190W        W18719  41.368  23.453   0.689
47191W        W18720  23.190  43.778  13.304
47192W        W18721  26.447  39.373  13.688
47193W        W18722  31.421  28.574   3.686
47194W        W18723  22.517   9.142  11.905
47195W        W18724  24.489  39.521   1.372
47196W        W18725  21.022  13.156  11.132
47197W        W18726  32.326   2.006  12.006
47198W        W18727  32.442  27.469   2.225
47199W        W18728  37.972  25.052   1.535
47200W        W18729   1.786  16.297  14.248
47201W        W18730   6.130  22.266   2.755
47202W        W18731  39.208  33.101  14.381
47203W        W18732  27.739  43.529  12.676
47204W        W18733  30.679  28.129   4.144
47205W        W18734  42.444   3.314  12.873
47206W        W18735  37.255  13.961  14.156
47207W        W18736  12.722  32.577  12.828
47208W        W18737  15.502   5.153  12.306
47209W        W18738  18.303  26.633  14.418
47210W        W18739  43.690  33.454   3.135
47211W        W18740  44.006  44.335  13.347
47212W        W18741  42.984  17.269   0.760
47213W        W18742  26.558  40.325   4.999
47214W        W18743  18.110  41.001   1.683
47215W        W18744  13.536  38.926  12.077
47216W        W18745  27.673  34.037   1.263
47217W        W18746  23.622  29.097   0.384
47218W        W18747  19.067  41.566   3.530
47219W        W18748   0.932  40.997  11.576
47220W        W18749   5.426  39.761  12.909
47221W        W18750  31.352  22.607   2.343
47222W        W18751  30.160  41.007  12.542
47223W        W18752   3.523   1.898  13.339
47224W        W18753  21.084  31.943  11.997
47225W        W18754  40.185  25.821  14.869
47226W        W18755   6.111  32.797  14.360
47227W        W18756  19.520  17.241  14.810
47228W        W18757  24.198  32.617   2.292
47229W        W18758  30.723   9.193   3.280
47230W        W18759   1.754  27.981  14.123
47231W        W18760   7.397  19.808  13.004
47232W        W18761  39.349   3.987  13.708
47233W        W18762  22.974   2.496   0.083
47234W        W18763   3.054  40.646   2.703
47235W        W18764  31.404   7.249  12.010
47236W        W18765   0.739  19.503   2.060
47237W        W18766  31.916  17.673   2.344
47238W        W18767  13.014  43.848   3.833
47239W        W18768  17.121  33.317  10.894
47240W        W18769  17.787  21.209   0.357
47241W        W18770   2.406   6.526  13.447
47242W        W18771  35.907   8.719   2.796
47243W        W18772   3.611  18.997   3.163
47244W        W18773   6.365  14.075  13.826
47245W        W18774  26.912   8.852   1.951
47246W        W18775  18.116  36.484  13.283
47247W        W18776  34.035   0.262  13.430
47248W        W18777   2.229  38.841   4.862
47249W        W18778  44.259  28.013  13.950
47250W        W18779  15.072  19.712   2.757
47251W        W18780  22.675  44.809   2.086
47252W        W18781  11.705  27.155   3.655
47253W        W18782  17.340  41.731   2.399
47254W        W18783  35.883  27.984  11.065
47255W        W18784  41.619  21.712   2.680
47256W        W18785   2.438   1.810   0.751
47257W        W18786   9.807  32.346  11.007
47258W        W18787   1.997  32.586  13.003
47259W        W18788  11.622  41.375  13.174
47260W        W18789   1.686  12.151   2.787
47261W        W18790  18.738  42.971   0.905
47262W        W18791  31.350  18.058  13.329
47263W        W18792  21.240  36.761   5.489
47264W        W18793  21.171  20.701  12.339
47265W        W18794   3.308  11.426  12.736
47266W        W18795   5.796  34.380  14.896
47267W        W18796  30.754   0.083   1.220
47268W        W18797   9.264  44.989   0.756
47269W        W18798  43.457   1.423   1.288
47270W        W18799   5.175  39.797   0.806
47271W        W18800  18.221  28.669   2.115
47272W        W18801  14.512   7.685   4.533
47273W        W18802  41.528  11.341   0.031
47274W        W18803  36.771   9.134   2.414
47275W        W18804  17.517  24.165  13.569
47276W        W18805   9.814   0.885  11.259
47277W        W18806  39.250   0.514  14.912
47278W        W18807  35.951  10.751   4.425
47279W        W18808  27.629  12.389  14.750
47280W        W18809  18.320  39.995  13.543
47281W        W18810  19.253  21.483   2.379
47282W        W18811  32.092  25.748   1.283
47283W        W18812  35.985  33.656   3.155
47284W        W18813  18.789  11.092   2.697
47285W        W18814   7.001  41.816   2.627
47286W        W18815  12.336  14.972   2.753
47287W        W18816  16.116  31.420  11.599
47288W        W18817  16.754  20.382   4.250
47289W        W18818  30.527  18.872  11.543
47290W        W18819  23.125  39.446   2.155
47291W        W18820  10.271   9.886   3.974
47292W        W18821   1.630  11.357   4.598
47293W        W18822  20.145  35.644   1.386
47294W        W18823  29.521  31.203   3.199
47295W        W18824  13.829   8.245  11.994
47296W        W18825   0.566  22.286  12.474
47297W        W18826   8.650  36.357  14.479
47298W        W18827  44.922  28.550   1.376
47299W        W18828  13.634  25.439   1.559
47300W        W18829  27.525  41.819   2.117
47301W        W18830  34.410   5.280   2.912
47302W        W18831  28.836  13.816  14.521
47303W        W18832  19.533  16.205   4.303
47304W        W18833  19.616  27.556   4.836
47305W        W18834  31.991  13.085   2.256
47306W        W18835  29.953   1.350   1.090
47307W        W18836   0.412  28.655   4.844
47308W        W18837   2.328   9.858   1.164
47309W        W18838  11.153  10.670   1.270
47310W        W18839  39.586   4.275  11.573
47311W        W18840  41.494  35.498   4.331
47312W        W18841  39.332   9.240  13.411
47313W        W18842  19.769   7.397  13.945
47314W        W18843  40.937  14.308  14.470
47315W        W18844   0.766  22.492   3.216
47316W        W18845   5.874  44.104  13.277
47317W        W18846  25.770  19.552  12.084
47318W        W18847  18.236   9.849  11.914
47319W        W18848  27.619  32.846   3.214
47320W        W18849  43.863  33.784   3.565
47321W        W18850  20.746  27.952  12.584
47322W        W18851  18.003  33.744  14.908
47323W        W18852  25.912  22.308  13.032
47324W        W18853   7.498   5.174   4.076
47325W        W18854  11.036   9.358  14.965
47326W        W18855   4.384   0.855  14.970
47327W        W18856  18.186  22.781  13.491
47328W        W18857   0.317  19.062  12.869
47329W        W18858  24.204  25.810  12.304
47330W        W18859  38.899   7.463  10.847
47331W        W18860   1.740  35.860  10.362
47332W        W18861  12.642   1.547  11.545
47333W        W18862  14.774   9.202  12.084
47334W        W18863  40.466   2.153   3.407
47335W        W18864   8.855   7.414   0.821
47336W        W18865   7.235   9.380   2.748
47337W        W18866   2.816  34.030  11.612
47338W        W18867  37.372  31.499  13.547
47339W        W18868  18.115  12.129  12.103
47340W        W18869  43.077  19.294   1.286
47341W        W18870  25.062   7.119   2.740
47342W        W18871  27.531  38.770   3.779
47343W        W18872  23.903  43.438   2.777
47344W        W18873  15.710  39.377   1.503
47345W        W18874  36.677  35.578   0.394
47346W        W18875  36.941  24.381   1.827
47347W        W18876  23.047  18.658  11.727
47348W        W18877  33.812  20.801   0.429
47349W        W18878  12.577  35.878   0.614
47350W        W18879  12.168  40.786   4.537
47351W        W18880   1.410  32.369  10.633
47352W        W18881   6.887   7.815   2.257
47353W        W18882  15.520  27.939  11.104
47354W        W18883  11.377   6.787  13.061
47355W        W18884  11.656  12.716  10.799
47356W        W18885  27.481  29.935  14.856
47357W        W18886  23.326   4.906  14.190
47358W        W18887  15.793   4.460   1.265
47359W        W18888  31.109  35.092   0.752
47360W        W18889  11.863  44.664  11.899
47361W        W18890  32.641  40.071   4.845
47362W        W18891   2.052  31.088  14.315
47363W        W18892  10.546  34.430  10.837
47364W        W18893  40.603  39.972   1.239
47365W        W18894  19.525  36.043   2.681
47366W        W18895  43.850  40.110   3.727
47367W        W18896  20.466  15.566   3.172
47368W        W18897  36.422   6.048  11.861
47369W        W18898  18.841  41.491  12.861
47370W        W18899  32.303   9.990   2.080
47371W        W18900  17.991  24.497  14.825
47372W        W18901  28.037   0.805  12.872
47373W        W18902  17.566   9.893   3.594
47374W        W18903  23.189  21.723   1.932
47375W        W18904  30.524  15.382  12.239
47376W        W18905  33.523   3.981   4.164
47377W        W18906   1.860  42.914   2.729
47378W        W18907  20.054  23.238   2.617
47379W        W18908   3.867   4.353  11.910
47380W        W18909  21.272  44.326   4.412
47381W        W18910   2.879  22.340  14.480
47382W        W18911   6.703  38.534   1.413
47383W        W18912  14.979  26.031  10.668
47384W        W18913  38.749  21.442   4.708
47385W        W18914  31.161  29.608   2.115
47386W        W18915  19.094  18.896   5.004
47387W        W18916  22.692  33.185  14.055
47388W        W18917   5.649   5.545  13.291
47389W        W18918  42.540  42.552  11.239
47390W        W18919  31.898  30.119   3.274
47391W        W18920  29.262  17.195   4.559
47392W        W18921  39.712  37.872  13.130
47393W        W18922  10.971   7.633  13.509
47394W        W18923  30.969  17.260   3.617
47395W        W18924  14.865  21.205  12.893
47396W        W18925  39.081  16.880   4.116
47397W        W18926  23.001  33.424   4.616
47398W        W18927  23.927  37.814  10.799
47399W        W18928  33.378  26.726   4.568
47400W        W18929   4.552  31.757   1.179
47401W        W18930  36.114  22.651  11.722
47402W        W18931  40.019  33.303  10.588
47403W        W18932  37.032  21.282   0.017
47404W        W18933  24.310  17.191   4.302
47405W        W18934  40.103   8.740   3.160
47406W        W18935  21.607  13.358   0.411
47407W        W18936  22.284  26.557   4.595
47408W        W18937  39.361   0.989   0.159
47409W        W18938  25.211  15.205  12.863
47410W        W18939  31.819  19.655  11.433
47411W        W18940   4.451   2.922  12.567
47412W        W18941  41.841  33.537   3.881
47413W        W18942  29.211  18.465  12.954
47414W        W18943  27.877   6.504  14.017
47415W        W18944   1.449  13.195  11.492
47416W        W18945  10.627  21.065   4.104
47417W        W18946   7.709  17.931  14.296
47418W        W18947  22.677  36.007  13.839
47419W        W18948  22.097  16.431   4.253
47420W        W18949  33.155  43.945  13.526
47421W        W18950  32.575   2.043   1.449
47422W        W18951   9.650  21.150  13.013
47423W        W18952  36.067  36.363  14.372
47424W        W18953  28.386  44.492  11.190
47425W        W18954  26.425  29.571  12.914
47426W        W18955  41.589  24.104   0.913
47427W        W18956   8.656   7.867   1.011
47428W        W18957   6.832  32.036   4.784
47429W        W18958  29.318   0.300   3.779
47430W        W18959   3.224  39.698   0.981
47431W        W18960  40.056  41.073  13.094
47432W        W18961  30.315  11.831  10.760
47433W        W18962  11.576  12.873   1.820
47434W        W18963  32.932  23.949   3.291
47435W        W18964  13.620  35.441  14.817
47436W        W18965   8.772   2.698   1.933
47437W        W18966  13.309  24.666   0.717
47438W        W18967  39.105  42.271  11.153
47439W        W18968   2.970   4.280  11.622
47440W        W18969  15.109  29.740  10.534
47441W        W18970  30.651  30.005   0.377
47442W        W18971  31.513  39.116   0.379
47443W        W18972  25.036   7.633  13.439
47444W        W18973  30.364  14.535  10.751
47445W        W18974  16.670  33.882   2.501
47446W        W18975  33.402  23.506   3.133
47447W        W18976  21.791  34.871  11.559
47448W        W18977  44.441   3.738  12.396
47449W        W18978  34.914  41.563  10.741
47450W        W18979  21.502   4.429   1.428
47451W        W18980  34.190  37.471   1.045
47452W        W18981  19.059  14.184  13.379
47453W        W18982  28.012  41.541  12.691
47454W        W18983  19.262   1.401  11.348
47455W        W18984  38.608  18.648   1.135
47456W        W18985  29.322   8.624   4.002
47457W        W18986  30.115  35.876   2.809
47458W        W18987   5.047  10.036   2.390
47459W        W18988  38.422  33.571  11.327
47460W        W18989  43.928  35.651  12.774
47461W        W18990  14.602  25.023   1.389
47462W        W18991   3.764  22.137  14.955
47463W        W18992  11.826  32.305  12.851
47464W        W18993  29.190  26.959   5.159
47465W        W18994  27.602  18.836   1.057
47466W        W18995   6.218  41.836   3.629
47467W        W18996   5.862  40.635  11.561
47468W        W18997   9.119  31.627   2.707
47469W        W18998  20.814  18.292  14.466
47470W        W18999  37.035  44.537  12.934
47471W        W19000  22.217   9.646   0.903
47472W        W19001  44.913  42.646   4.721
47473W        W19002   9.894  34.586   0.768
47474W        W19003  11.775  37.059  12.066
47475W        W19004   3.655  31.926   0.027
47476W        W19005  44.753  35.441   4.132
47477W        W19006   3.983  30.174  12.469
47478W        W19007  26.967  40.735   1.419
47479W        W19008  30.362  15.243  11.475
47480W        W19009  18.698   9.396   0.551
47481W        W19010   4.662  42.799   2.754
47482W        W19011  20.994   4.274  13.439
47483W        W19012  13.368   6.366  11.810
47484W        W19013  36.439  16.301   0.360
47485W        W19014   7.941   7.751  10.788
47486W        W19015  25.389  20.409   4.876
47487W        W19016   1.931  40.348  11.126
47488W        W19017  34.734  25.114   4.931
47489W        W19018   0.637  37.975   1.741
47490W        W19019   4.545  32.453   2.485
47491W        W19020   2.279  29.588   3.430
47492W        W19021  19.467  30.594  13.007
47493W        W19022  41.323   9.774  10.773
47494W        W19023  24.148  27.015   0.020
47495W        W19024  28.992   0.295   2.208
47496W        W19025  30.365  36.171  12.425
47497W        W19026  37.965  40.809   3.766
47498W        W19027  26.240  25.816   3.321
47499W        W19028  40.864   7.318  11.516
47500W        W19029  30.982  17.748  12.515
47501W        W19030  42.363  22.196  14.342
47502W        W19031  38.764   4.317   0.791
47503W        W19032  31.691  29.404  12.096
47504W        W19033  12.679  31.168   1.340
47505W        W19034  40.998  11.111  12.562
47506W        W19035  10.220   0.990  12.006
47507W        W19036   4.356  21.467  11.165
47508W        W19037  34.788  34.314  12.007
47509W        W19038  39.691  15.075  10.500
47510W        W19039   7.651  25.112  13.444
47511W        W19040   1.122  12.349   3.704
47512W        W19041  34.349   1.168   1.381
47513W        W19042   9.892   1.544  11.790
47514W        W19043   9.884  16.676   0.535
47515W        W19044  28.913  24.883   1.820
47516W        W19045  14.760  35.239  14.664
47517W        W19046  28.844  25.215  11.160
47518W        W19047   6.049  29.925  13.099
47519W        W19048  17.290  25.900  11.147
47520W        W19049   0.506   5.239  11.956
47521W        W19050  31.002  38.110   2.581
47522W        W19051   6.770  44.444   4.387
47523W        W19052  16.323   6.759  11.943
47524W        W19053  33.526  14.531  13.970
47525W        W19054  18.297  23.052  10.755
47526W        W19055   2.689  18.312   4.255
47527W        W19056  36.089  44.083  14.379
47528W        W19057   5.420  17.275   3.200
47529W        W19058  24.503  24.187   2.632
47530W        W19059  37.654  34.316  11.045
47531W        W19060  14.758  39.765   1.440
47532W        W19061  31.863  32.903  11.552
47533W        W19062  25.009  13.146  14.541
47534W        W19063  27.048   9.593  11.170
47535W        W19064  25.977   7.375   4.291
47536W        W19065  25.982  10.366  13.466
47537W        W19066  18.717  28.036   3.948
47538W        W19067  40.974  28.019  10.622
47539W        W19068  23.173  21.129  12.768
47540W        W19069   0.284  35.016   2.791
47541W        W19070   9.301  37.079   4.107
47542W        W19071   4.906  36.936   1.240
47543W        W19072  19.658  43.057   1.732
47544W        W19073   2.970  37.447  10.417
47545W        W19074  39.930  39.231   1.155
47546W        W19075  10.095  38.327   3.873
47547W        W19076  11.605  27.906   0.800
47548W        W19077  30.848  38.730   4.717
47549W        W19078  39.903  19.310  11.532
47550W        W19079  25.756   6.199   1.004
47551W        W19080   0.598  31.538   9.817
47552W        W19081  24.629  43.813  14.437
47553W        W19082   9.668  14.262   1.409
47554W        W19083  42.982   9.232   0.896
47555W        W19084  23.204  43.912  14.832
47556W        W19085   2.743  34.883   0.488
47557W        W19086  22.617  38.853  11.324
47558W        W19087  27.986  35.009   2.558
47559W        W19088  34.280  29.627   4.607
47560W        W19089  31.021  31.121  14.485
47561W        W19090  39.451  26.642  14.738
47562W        W19091  36.554  10.246  11.154
47563W        W19092  32.474  22.056   0.856
47564W        W19093   2.939  35.962   3.283
47565W        W19094  44.135  30.325   0.384
47566W        W19095  37.798   3.427  11.105
47567W        W19096  10.900  20.017  14.747
47568W        W19097  31.207  22.590   5.040
47569W        W19098  12.353  27.121   0.784
47570W        W19099  16.703  32.591  11.928
47571W        W19100  14.731  14.093  10.558
47572W        W19101  32.614  21.534   0.974
47573W        W19102  22.771  19.434  11.132
47574W        W19103  43.546  44.000   4.047
47575W        W19104   4.229  30.415  12.086
47576W        W19105  36.962  27.333  14.488
47577W        W19106  18.622   7.566  13.424
47578W        W19107   8.471  12.887  14.879
47579W        W19108  25.105  30.324  10.670
47580W        W19109  24.143   4.246  12.027
47581W        W19110  32.832  10.429   0.888
47582W        W19111   6.411  40.027  12.128
47583W        W19112   0.277  13.712  12.684
47584W        W19113   9.132  26.707  12.126
47585W        W19114  35.676  21.608  13.923
47586W        W19115  27.931  17.836   1.447
47587W        W19116  13.698  32.426   0.979
47588W        W19117  35.606  14.519  14.663
47589W        W19118  23.623   1.752   1.367
47590W        W19119   5.928  41.461  13.008
47591W        W19120  36.614  29.359  11.121
47592W        W19121   9.455  30.487   2.347
47593W        W19122  40.132  28.378   0.900
47594W        W19123  15.140  39.378   1.593
47595W        W19124  21.771  31.046  12.491
47596W        W19125  28.382  15.809   0.313
47597W        W19126  41.001  17.653   1.676
47598W        W19127  27.956  35.335  11.832
47599W        W19128  21.123  33.325   4.577
47600W        W19129  17.545   3.871  10.542
47601W        W19130  32.997  13.619  12.230
47602W        W19131  37.967  32.488   4.720
47603W        W19132  12.264   9.715  14.867
47604W        W19133   3.349  14.351   0.915
47605W        W19134  42.000   5.947   4.141
47606W        W19135  39.297  39.779  10.583
47607W        W19136  32.938  35.917   4.617
47608W        W19137  16.507  22.505  11.164
47609W        W19138  32.606  13.874   1.337
47610W        W19139  43.457  43.898   3.140
47611W        W19140   9.409   3.769  10.657
47612W        W19141  21.495   8.287   0.797
47613W        W19142  38.733  43.641  13.321
47614W        W19143  36.860  18.764   2.940
47615W        W19144  36.320  25.439  14.416
47616W        W19145  19.139   9.110   4.209
47617W        W19146  23.554   7.144   4.905
47618W        W19147  15.176   4.827  13.244
47619W        W19148  26.864  11.659   2.221
47620W        W19149  34.103   9.248   1.867
47621W        W19150  24.115   4.051  14.608
47622W        W19151  17.396  31.052   0.444
47623W        W19152  25.142   4.922  10.671
47624W        W19153   5.074   4.303  14.831
47625W        W19154  38.625  29.030  10.850
47626W        W19155   6.265  38.615  14.026
47627W        W19156  18.244  26.920  14.846
47628W        W19157  23.716  23.703   2.185
47629W        W19158  27.490  12.098  13.430
47630W        W19159  39.323  15.871   3.818
47631W        W19160  38.241  20.108  13.097
47632W        W19161  34.369  36.906   4.907
47633W        W19162  14.292  32.617  14.559
47634W        W19163  22.235  18.362   4.611
47635W        W19164  43.472  34.562  12.620
47636W        W19165  27.493  23.045   0.807
47637W        W19166   7.346  42.809   0.232
47638W        W19167  19.302  18.046   4.527
47639W        W19168  24.187  11.178  11.367
47640W        W19169   0.520  10.160  10.620
47641W        W19170  29.683  15.550  11.496
47642W        W19171   8.696  21.080  11.137
47643W        W19172   4.954  35.001   2.340
47644W        W19173  39.444  29.196  11.010
47645W        W19174  32.183  12.384  13.121
47646W        W19175  17.108  20.721  14.352
47647W        W19176   6.401   7.935  12.549
47648W        W19177  32.872  14.103  10.457
47649W        W19178  22.614  40.291  14.588
47650W        W19179  20.274  37.455   0.274
47651W        W19180  43.184  37.589  13.348
47652W        W19181   5.954  24.389  14.114
47653W        W19182  13.135  37.260   2.190
47654W        W19183  22.770  37.825  13.550
47655W        W19184  11.090  23.956  13.896
47656W        W19185  17.297  24.969   3.245
47657W        W19186  36.441   5.141  11.724
47658W        W19187  12.209  36.861   1.926
47659W        W19188  16.751  33.266   2.650
47660W        W19189  33.591  12.107  11.083
47661W        W19190   7.219  38.605   1.339
47662W        W19191  28.912  44.814   2.661
47663W        W19192  25.603  24.977  10.181
47664W        W19193   9.430   2.937   3.274
47665W        W19194  28.329  28.916  11.945
47666W        W19195  20.016  40.292  13.683
47667W        W19196   6.797  25.967  10.684
47668W        W19197   4.835  36.693   3.681
47669W        W19198  23.226   9.093  10.925
47670W        W19199  11.851   4.295   3.860
47671W        W19200  40.322  42.420  10.976
47672W        W19201  19.650  38.280   4.697
47673W        W19202  44.710  24.200  14.956
47674W        W19203  24.213  11.339  10.883
47675W        W19204  19.529  25.015   2.819
47676W        W19205   1.180  42.321   2.878
47677W        W19206  12.417  22.294   4.105
47678W        W19207  19.660  33.311   1.360
47679W        W19208   2.353  40.834   4.680
47680W        W19209  38.871   9.780   3.911
47681W        W19210   5.699   2.913  10.590
47682W        W19211   2.299  28.360   0.815
47683W        W19212  43.282   2.668  11.647
47684W        W19213  27.498  44.722   3.375
47685W        W19214   4.132   2.695   3.313
47686W        W19215  40.022   8.440  14.965
47687W        W19216   5.352  16.428  10.522
47688W        W19217  22.016  16.567   3.222
47689W        W19218  42.791  31.189   1.395
47690W        W19219  21.356  22.137  10.690
47691W        W19220  20.745  28.434   3.849
47692W        W19221  27.909  44.621   0.728
47693W        W19222   6.424   9.732   4.196
47694W        W19223  14.753   6.996  11.578
47695W        W19224   2.518   8.953  14.827
47696W        W19225   8.680  41.725   3.205
47697W        W19226  21.239   6.731   1.755
47698W        W19227  19.749  19.534   3.260
47699W        W19228   1.959  24.781  11.649
47700W        W19229   7.866  22.976   3.223
47701W        W19230  11.623  32.858  14.444
47702W        W19231  38.199  19.230  11.246
47703W        W19232  24.016   0.361  11.185
47704W        W19233  16.159  43.926  14.333
47705W        W19234   2.865   2.258   0.278
47706W        W19235  14.093  40.630   4.893
47707W        W19236  10.407  39.257  14.762
47708W        W19237  12.554  31.974   0.554
47709W        W19238  26.745  16.531  12.000
47710W        W19239  10.104  37.931  11.948
47711W        W19240  15.784  31.948  10.859
47712W        W19241  12.393  29.990  12.564
47713W        W19242   7.275  29.994  11.658
47714W        W19243  40.467  17.135  10.900
47715W        W19244  19.526  34.608   1.729
47716W        W19245  36.435   5.323  12.544
47717W        W19246  36.674  26.026   0.853
47718W        W19247  33.952   2.373  12.549
47719W        W19248  41.946   0.674  13.162
47720W        W19249  22.198  14.538   1.823
47721W        W19250  12.786   9.386  13.516
47722W        W19251  15.232  20.572  12.397
47723W        W19252  24.114  26.439   0.531
47724W        W19253  38.582  25.932   3.281
47725W        W19254  28.125  29.408  14.480
47726W        W19255  41.972  32.175   4.519
47727W        W19256  22.371  30.143   0.811
47728W        W19257  25.518  32.519  13.339
47729W        W19258   3.913   2.394   2.898
47730W        W19259  19.798  11.077  14.490
47731W        W19260   4.509   1.856   0.163
47732W        W19261   5.974  43.369  11.218
47733W        W19262   9.726  34.489   2.729
47734W        W19263  34.028  35.917  13.353
47735W        W19264  41.706  19.767  13.020
47736W        W19265  16.744   4.852  12.450
47737W        W19266  41.976  34.879   1.641
47738W        W19267  36.834  34.553   0.172
47739W        W19268   2.891  19.098   1.301
47740W        W19269  19.849   0.154   1.814
47741W        W19270   7.918   1.531  14.956
47742W        W19271  13.246  33.684  11.424
47743W        W19272  33.863  22.082  14.072
47744W        W19273  15.067  37.529  12.030
47745W        W19274  32.948  31.193   3.306
47746W        W19275  15.179  41.837   2.016
47747W        W19276  30.400  17.062  11.521
47748W        W19277  10.754  39.034  14.439
47749W        W19278  13.353   2.825  11.959
47750W        W19279  24.100  24.089  11.499
47751W        W19280  16.332  36.363   0.024
47752W        W19281  28.632  37.614  12.456
47753W        W19282  32.443  17.749   0.257
47754W        W19283  16.108  12.469  14.288
47755W        W19284  15.603  41.485   2.684
47756W        W19285  14.699  34.140   0.992
47757W        W19286  23.411  19.011  12.584
47758W        W19287  13.154  42.373  12.884
47759W        W19288  26.158  43.800  14.425
47760W        W19289  40.962  40.352   1.466
47761W        W19290  39.915  10.404   2.103
47762W        W19291  26.022  38.430   4.099
47763W        W19292  30.708   5.755   2.097
47764W        W19293  42.432  44.030   1.263
47765W        W19294  13.889  17.647  12.348
47766W        W19295  39.040   3.816   4.091
47767W        W19296  15.011  12.981   2.432
47768W        W19297  22.231   6.431   2.848
47769W        W19298   4.423  41.916   4.095
47770W        W19299  10.588  15.134  10.951
47771W        W19300  35.458  41.885  10.898
47772W        W19301  24.642   8.720  12.416
47773W        W19302  15.355  25.555  11.887
47774W        W19303  39.165  13.287  12.481
47775W        W19304  25.031  18.903   1.179
47776W        W19305   7.115   8.607   3.204
47777W        W19306  26.572   7.456  11.915
47778W        W19307  17.609   9.202  14.917
47779W        W19308  43.602  14.280   5.079
47780W        W19309  34.263  38.960   4.045
47781W        W19310   9.366   4.075   4.040
47782W        W19311  11.324  11.949  13.955
47783W        W19312  15.256  28.718   0.422
47784W        W19313  32.924  42.372  12.625
47785W        W19314  35.302  27.525   2.430
47786W        W19315  36.595  26.331   9.899
47787W        W19316  36.571  36.448   0.949
47788W        W19317  33.673  27.630  11.106
47789W        W19318   3.700  19.628  10.087
47790W        W19319   6.835  32.593   3.434
47791W        W19320   9.689  37.111  10.563
47792W        W19321   8.715  32.274  12.974
47793W        W19322  31.484  29.102   1.432
47794W        W19323   8.510  10.984  12.267
47795W        W19324  13.337  41.740  11.105
47796W        W19325  16.356  32.920  13.446
47797W        W19326   3.855  22.226   2.224
47798W        W19327  35.009  25.233  11.725
47799W        W19328  13.345   9.730  14.029
47800W        W19329  28.092  41.459   4.639
47801W        W19330   3.414  39.507   0.093
47802W        W19331  13.282  18.000  13.367
47803W        W19332   0.643  34.346  14.202
47804W        W19333  36.298  24.100  10.873
47805W        W19334  42.534  28.225   0.159
47806W        W19335  11.315  42.398  12.124
47807W        W19336  43.882  25.427   2.221
47808W        W19337   3.385  43.010   0.931
47809W        W19338  43.506  19.257  14.223
47810W        W19339  17.642  29.643  12.874
47811W        W19340  20.071  15.791   0.778
47812W        W19341  44.396  43.509  13.366
47813W        W19342  32.123  42.412   4.494
47814W        W19343   3.607  17.514  10.995
47815W        W19344  38.131  28.604  14.755
47816W        W19345  43.778  24.844  13.909
47817W        W19346  30.043   0.902   4.419
47818W        W19347   6.869   5.000   1.117
47819W        W19348  34.346  24.277   1.225
47820W        W19349  35.998  26.489   4.306
47821W        W19350  43.070   9.715   2.273
47822W        W19351  10.222  19.667  14.790
47823W        W19352  19.616   3.926  12.662
47824W        W19353   9.936  35.401   0.343
47825W        W19354  29.120  34.853  11.659
47826W        W19355  15.231  30.624   0.442
47827W        W19356  30.117  26.984   3.669
47828W        W19357   9.161  10.334  12.359
47829W        W19358  27.963  25.734   0.826
47830W        W19359  26.636   7.880  12.912
47831W        W19360   4.345  32.916  13.605
47832W        W19361  35.569  40.916   1.468
47833W        W19362   6.366  30.899   0.103
47834W        W19363  34.475  13.492  10.555
47835W        W19364  11.197  24.438  14.035
47836W        W19365  40.820  27.609  10.907
47837W        W19366  12.198   1.520   3.344
47838W        W19367  22.027  10.752  14.012
47839W        W19368   4.398  31.548   4.131
47840W        W19369  24.439  26.188  13.983
47841W        W19370  19.041   3.807   4.650
47842W        W19371   6.362  17.742  13.863
47843W        W19372  35.400  35.082   0.452
47844W        W19373  11.642   9.416   1.919
47845W        W19374   2.982  13.740  13.087
47846W        W19375   8.843  40.376   3.513
47847W        W19376   4.761  37.853  13.945
47848W        W19377  43.780  39.312  13.498
47849W        W19378   4.204  42.850   2.369
47850W        W19379   3.523  16.780  11.091
47851W        W19380   7.720  32.654   3.909
47852W        W19381  34.078  10.057  10.918
47853W        W19382  35.731  35.596   3.276
47854W        W19383  14.256  28.570  12.876
47855W        W19384  21.124  42.869   4.591
47856W        W19385  24.139  33.619  14.234
47857W        W19386  29.058  42.379   2.846
47858W        W19387  10.684  11.063   4.099
47859W        W19388   2.304  17.389  11.202
47860W        W19389  11.290  43.821   0.783
47861W        W19390   9.886  22.480  10.685
47862W        W19391   6.878  18.082   0.960
47863W        W19392  27.235  10.507  11.932
47864W        W19393  25.773  42.493  11.100
47865W        W19394  33.581  41.364   4.082
47866W        W19395   9.223  17.527  14.921
47867W        W19396  33.145  20.625   2.248
47868W        W19397   1.764   4.007  14.752
47869W        W19398   3.393  21.175   5.051
47870W        W19399  35.543  22.512   3.295
47871W        W19400  43.999  40.789   0.419
47872W        W19401  34.680  37.845  11.235
47873W        W19402  19.782  10.580  12.054
47874W        W19403   2.485  42.899  12.863
47875W        W19404   1.184  31.222  12.612
47876W        W19405  27.487  28.321   0.898
47877W        W19406  37.079  38.571  11.486
47878W        W19407  28.147  24.744  11.646
47879W        W19408  37.062  19.542  14.834
47880W        W19409  38.537  26.751   2.295
47881W        W19410  36.614  21.065   1.910
47882W        W19411  28.713  41.529   3.360
47883W        W19412  30.342  15.209   0.018
47884W        W19413  18.126  27.746  12.127
47885W        W19414  10.804   7.118  14.895
47886W        W19415  28.564  36.604   0.757
47887W        W19416   7.782  34.463   0.216
47888W        W19417  18.514  40.885   2.478
47889W        W19418  28.149  22.687  13.872
47890W        W19419  16.057  33.427   3.850
47891W        W19420  37.452  35.859   9.754
47892W        W19421  44.562  32.201   2.817
47893W        W19422  42.901  31.064  12.697
47894W        W19423   7.929  20.642  10.869
47895W        W19424  16.011  25.506   0.245
47896W        W19425  16.514   2.193   0.910
47897W        W19426   5.355   8.848  13.556
47898W        W19427  13.514  36.058   2.736
47899W        W19428   1.859  32.558  13.962
47900W        W19429  13.095  35.970   0.705
47901W        W19430   8.308  42.338   0.348
47902W        W19431   6.412  18.189  14.754
47903W        W19432   9.397   8.576  14.737
47904W        W19433  31.629  34.208   1.705
47905W        W19434  17.752  37.783   3.371
47906W        W19435   9.800  11.910  11.454
47907W        W19436   2.154  42.426   2.838
47908W        W19437   0.993  43.741   1.616
47909W        W19438  38.149  36.380  13.510
47910W        W19439  25.069  10.819   2.264
47911W        W19440  16.073  23.745   3.608
47912W        W19441   4.202  15.390   0.017
47913W        W19442  18.744  25.018  12.250
47914W        W19443  32.454  44.144  12.030
47915W        W19444  43.674  27.256   4.095
47916W        W19445   2.538  21.678   0.896
47917W        W19446   0.281  28.387  13.582
47918W        W19447  20.083  25.671   2.329
47919W        W19448  25.489  27.688  13.052
47920W        W19449  22.796  17.225   4.959
47921W        W19450  20.120  30.557  14.684
47922W        W19451  28.304  32.576  10.251
47923W        W19452  29.922  31.083  13.536
47924W        W19453   4.355  39.093  12.025
47925W        W19454  13.989  30.475   2.588
47926W        W19455  27.933   6.799  14.432
47927W        W19456   7.910   7.139  11.616
47928W        W19457  43.899   6.706  14.841
47929W        W19458  21.566  20.811   2.300
47930W        W19459  21.287  32.099   1.770
47931W        W19460  29.906   4.873  12.658
47932W        W19461  17.917  34.582  12.872
47933W        W19462  29.662  12.894  12.601
47934W        W19463  37.397  34.042  10.649
47935W        W19464  42.219  37.462  12.442
47936W        W19465  19.540   0.018   2.776
47937W        W19466   9.658  28.333   1.348
47938W        W19467  24.563  18.661  13.885
47939W        W19468  40.474  12.799  10.324
47940W        W19469  39.997  43.324  13.346
47941W        W19470  12.545   2.464   2.228
47942W        W19471   8.782   4.653   2.835
47943W        W19472  16.451  23.938  12.409
47944W        W19473  10.919   2.044  12.465
47945W        W19474  14.795  17.865  11.969
47946W        W19475   0.983  31.796   0.237
47947W        W19476  12.087   9.387   4.575
47948W        W19477  13.686  27.146  12.478
47949W        W19478  19.768   7.887  14.681
47950W        W19479  43.322  27.450  11.181
47951W        W19480   3.849  23.494  14.473
47952W        W19481  17.433   3.350  12.891
47953W        W19482   4.035  29.119   3.871
47954W        W19483  39.273  24.347   1.848
47955W        W19484  26.852  23.075  12.600
47956W        W19485  19.749   5.090   3.669
47957W        W19486   4.854  38.781   2.270
47958W        W19487  34.055   3.666   2.316
47959W        W19488   6.256   1.909  11.158
47960W        W19489  33.014   1.803  13.217
47961W        W19490  39.265   8.230   0.782
47962W        W19491  23.021  20.504   0.724
47963W        W19492  40.691  28.132  10.199
47964W        W19493  20.996  43.007  14.415
47965W        W19494  41.005  36.257   2.727
47966W        W19495  28.359  27.101   3.276
47967W        W19496  11.157  39.396  12.224
47968W        W19497   8.658  20.064  12.212
47969W        W19498  18.517  16.212  13.973
47970W        W19499  18.640  24.718   0.474
47971W        W19500   8.339   3.746   4.048
47972W        W19501  23.283  29.133  13.976
47973W        W19502  35.106  28.854   2.232
47974W        W19503  31.509  38.603  13.189
47975W        W19504  26.755  39.847  10.236
47976W        W19505  41.465  27.685   4.579
47977W        W19506   1.203  18.698  14.586
47978W        W19507  25.984  17.547  11.161
47979W        W19508  18.069  31.127   4.212
47980W        W19509  39.384   9.188  11.525
47981W        W19510  22.202  19.020   2.307
47982W        W19511   7.255   0.067   1.415
47983W        W19512  11.625  13.699   4.113
47984W        W19513  18.224   1.754  12.040
47985W        W19514  14.910   9.576  11.163
47986W        W19515  36.958  13.189  13.800
47987W        W19516   3.325  15.879  14.902
47988W        W19517  44.283  19.686   2.189
47989W        W19518   0.377  37.761  12.766
47990W        W19519  18.270  33.069   4.903
47991W        W19520  27.779  39.879   4.468
47992W        W19521  31.543   2.182   1.316
47993W        W19522  30.643  34.321   0.281
47994W        W19523   5.693  10.770  12.183
47995W        W19524  36.424   8.634  14.865
47996W        W19525  31.840  40.333   4.841
47997W        W19526  27.591  16.557  14.201
47998W        W19527  26.617  26.546   2.796
47999W        W19528  26.519  35.629  14.769
48000W        W19529  11.421  33.664  11.392
48001W        W19530  13.649  25.394  13.576
48002W        W19531  43.463   5.701   3.886
48003W        W19532  26.573  18.012  13.094
48004W        W19533  26.862  33.433   1.195
48005W        W19534  27.384   2.911  14.967
48006W        W19535   1.242  11.216   1.274
48007W        W19536  30.500  42.940  10.225
48008W        W19537  10.184  35.725   0.688
48009W        W19538   2.380  19.690  12.080
48010W        W19539  13.293  39.779  10.923
48011W        W19540  26.534  19.125   4.829
48012W        W19541  30.965  29.979   3.174
48013W        W19542  23.903  27.428   3.237
48014W        W19543   8.157  29.922  11.551
48015W        W19544   6.613   1.778   1.807
48016W        W19545  13.606  10.292   4.057
48017W        W19546  37.322  28.464   2.241
48018W        W19547  28.180  17.148   2.368
48019W        W19548  25.200  32.116  11.180
48020W        W19549  11.488  40.672  10.110
48021W        W19550  29.687  16.159  12.576
48022W        W19551  43.067  36.944  11.136
48023W        W19552  44.438   9.148   3.600
48024W        W19553   3.016  32.961   4.959
48025W        W19554  11.237  44.883  12.484
48026W        W19555  38.468  10.681  11.188
48027W        W19556  23.247  30.096  13.885
48028W        W19557  43.302  11.312   0.009
48029W        W19558  23.981  20.591  14.071
48030W        W19559  31.680  41.800  14.770
48031W        W19560  16.502  44.773   1.299
48032W        W19561  21.259  36.511  13.497
48033W        W19562  14.095   2.752  12.529
48034W        W19563  21.269  25.355   4.138
48035W        W19564  38.173  15.151   1.087
48036W        W19565   9.664  21.117   1.723
48037W        W19566   9.130   1.865   2.891
48038W        W19567  41.779  35.074   4.582
48039W        W19568  33.092  29.416   3.413
48040W        W19569   3.973  37.385  12.827
48041W        W19570  36.488  15.607   2.612
48042W        W19571  18.197  16.619   0.530
48043W        W19572   3.751  30.740   0.225
48044W        W19573  44.258  23.774  11.655
48045W        W19574  15.613  19.800   5.024
48046W        W19575  43.832  11.660  11.675
48047W        W19576  25.205  12.456  12.741
48048W        W19577  35.969   1.324  10.663
48049W        W19578  42.480  24.705  13.160
48050W        W19579  25.449  29.147   0.820
48051W        W19580  16.857   8.188   2.481
48052W        W19581   6.316   8.155  10.361
48053W        W19582   5.117   9.328   0.653
48054W        W19583  39.355  12.600   3.189
48055W        W19584  29.322  13.788  12.152
48056W        W19585  44.376  39.795   2.544
48057W        W19586  32.738   8.287   0.936
48058W        W19587  20.344  34.991  11.500
48059W        W19588  27.041   2.853   3.216
48060W        W19589  12.823  12.306  12.481
48061W        W19590  20.482  25.507   1.959
48062W        W19591  17.501  42.330  13.642
48063W        W19592   0.951  25.212  14.476
48064W        W19593  32.422  43.972   0.362
48065W        W19594  18.301  20.536  13.327
48066W        W19595  19.495  35.772   3.979
48067W        W19596  43.469  30.611  14.497
48068W        W19597  11.899  10.861   3.720
48069W        W19598  31.671  44.232  11.595
48070W        W19599  15.558   3.196  11.595
48071W        W19600  31.870  13.246   0.922
48072W        W19601  34.821   7.376   3.749
48073W        W19602   8.812  12.602   3.842
48074W        W19603  37.295  40.372   1.211
48075W        W19604  29.943  35.953  11.510
48076W        W19605   6.614  23.107  12.611
48077W        W19606  39.378  28.189  13.580
48078W        W19607   3.909   1.078  12.177
48079W        W19608  35.896  26.999   4.419
48080W        W19609  30.935   8.843   4.519
48081W        W19610  26.616  33.180   3.795
48082W        W19611   3.157  19.813  12.096
48083W        W19612  17.735   2.938  12.839
48084W        W19613  21.703  44.953   1.844
48085W        W19614  33.488  12.794  13.388
48086W        W19615  38.840  33.517   0.503
48087W        W19616  43.860  33.958  10.231
48088W        W19617  33.032   8.869  13.791
48089W        W19618  18.167  21.719   2.627
48090W        W19619   0.810  39.218  11.068
48091W        W19620  17.327  27.214  14.807
48092W        W19621  29.611   9.433  14.809
48093W        W19622  43.596  20.038   1.314
48094W        W19623  43.211   9.628  13.932
48095W        W19624  34.936  42.564  12.839
48096W        W19625  20.549  11.373   1.296
48097W        W19626  34.419  37.341   2.750
48098W        W19627  29.710  23.114  13.436
48099W        W19628  37.583   8.779  11.144
48100W        W19629  32.815  36.269   5.045
48101W        W19630   3.385   8.965   1.904
48102W        W19631   7.626  39.801   4.333
48103W        W19632   8.336  34.124  11.551
48104W        W19633   0.798  39.055  14.562
48105W        W19634  20.701   2.891  14.333
48106W        W19635   4.194  12.297   1.371
48107W        W19636  12.164   3.963   0.877
48108W        W19637  35.334  24.934   5.111
48109W        W19638  24.055  18.101  14.920
48110W        W19639   2.224  20.725  13.838
48111W        W19640  31.573  31.249  11.212
48112W        W19641  39.346   6.582   1.646
48113W        W19642  40.760  16.995   4.147
48114W        W19643  44.225  11.073   1.127
48115W        W19644  34.751  44.065   2.404
48116W        W19645  10.011  26.402   3.523
48117W        W19646   7.226  44.132  11.629
48118W        W19647  30.481   6.646   4.614
48119W        W19648  40.262  38.466   4.204
48120W        W19649  29.913   5.082  14.577
48121W        W19650   7.891  23.231  14.026
48122W        W19651  42.365  38.911   0.884
48123W        W19652  26.643  40.269   3.364
48124W        W19653  34.690  18.521  12.926
48125W        W19654   6.312  37.789  12.576
48126W        W19655  36.390   0.433   1.948
48127W        W19656  28.454   6.286  10.996
48128W        W19657   7.612  23.067   1.764
48129W        W19658  24.678  34.392  14.738
48130W        W19659  44.490   9.384  12.052
48131W        W19660  13.352  12.728  10.231
48132W        W19661  13.379  19.439  12.595
48133W        W19662  27.399   4.354   4.062
48134W        W19663  19.562  20.585  14.446
48135W        W19664  11.464  29.587  13.655
48136W        W19665  12.669  39.061   3.970
48137W        W19666  18.791  11.875  11.193
48138W        W19667  29.090  33.993   0.750
48139W        W19668  38.635   6.300  12.559
48140W        W19669  15.851  39.878   4.626
48141W        W19670  43.355  10.505   2.304
48142W        W19671  18.542  17.970   4.067
48143W        W19672  29.094   2.029  12.394
48144W        W19673  26.381  35.631   5.123
48145W        W19674  11.296  40.999   3.163
48146W        W19675  24.173   2.330   0.337
48147W        W19676  13.428   5.173  12.497
48148W        W19677  41.521  30.646  11.582
48149W        W19678   2.497  29.289   2.820
48150W        W19679   9.931   9.264   2.270
48151W        W19680  37.987  16.813   3.873
48152W        W19681  30.533  20.991  11.629
48153W        W19682  15.254   7.675   4.312
48154W        W19683   4.817  11.122  11.915
48155W        W19684   5.293   9.830  13.028
48156W        W19685   7.359  32.414  11.204
48157W        W19686  36.970  12.212  13.065
48158W        W19687  44.800  11.521   2.866
48159W        W19688   0.168   4.305  11.091
48160W        W19689  12.316  23.956  12.293
48161W        W19690  40.936  29.994   0.688
48162W        W19691  17.797   2.334   0.233
48163W        W19692  14.190  23.783   3.377
48164W        W19693  14.334  20.731   4.635
48165W        W19694   7.654   5.656  14.962
48166W        W19695  39.787  30.399  11.254
48167W        W19696   6.938  37.051  10.711
48168W        W19697  11.753  15.802   4.632
48169W        W19698  44.390   2.532  11.074
48170W        W19699   9.996  37.664   0.783
48171W        W19700  43.958  30.861   4.005
48172W        W19701  36.439   9.117  14.610
48173W        W19702  19.781  26.183   2.300
48174W        W19703   7.303  29.481  11.749
48175W        W19704  21.418  44.461  12.055
48176W        W19705  11.311  37.998   2.259
48177W        W19706  36.886  24.605  12.191
48178W        W19707  11.312  23.952   0.893
48179W        W19708  28.002  11.877   3.159
48180W        W19709  30.024  44.372  14.737
48181W        W19710   5.072   7.295   4.149
48182W        W19711  34.657  25.630   3.645
48183W        W19712   5.999  27.028   1.725
48184W        W19713  14.039  32.992  14.306
48185W        W19714  20.140  29.920  11.013
48186W        W19715   8.161   7.422   1.724
48187W        W19716  14.714  13.742   4.817
48188W        W19717  40.747  22.184  10.783
48189W        W19718   2.209  37.495   1.188
48190W        W19719  24.108   2.323   2.756
48191W        W19720  16.081  13.035  12.714
48192W        W19721  23.233  26.098   1.699
48193W        W19722  24.444  36.134   2.810
48194W        W19723  25.718  14.996   1.857
48195W        W19724  43.493   4.941   4.306
48196W        W19725   9.677  12.882   4.839
48197W        W19726  32.112  41.991  10.984
48198W        W19727  28.187   3.298   0.219
48199W        W19728  31.986   6.012  11.584
48200W        W19729   8.682  18.129  14.343
48201W        W19730  23.652   7.060   2.763
48202W        W19731  37.879  32.913  11.487
48203W        W19732  36.589  10.750  10.877
48204W        W19733   7.156   4.881  11.530
48205W        W19734  36.087  41.548  12.038
48206W        W19735  27.483  27.233  14.929
48207W        W19736  25.972  22.564   0.615
48208W        W19737   3.856  30.963   3.040
48209W        W19738  35.438  29.137  10.590
48210W        W19739  21.043  38.161  14.025
48211W        W19740  15.648   4.939   0.508
48212W        W19741  19.035  27.357   1.247
48213W        W19742  17.629   9.293   1.397
48214W        W19743  14.563  16.564   4.050
48215W        W19744  21.962   5.766  14.053
48216W        W19745  38.354  38.541   2.154
48217W        W19746  25.658  11.803   4.193
48218W        W19747   2.678  13.669   3.112
48219W        W19748  27.549  32.941  13.524
48220W        W19749  21.713  35.107  14.280
48221W        W19750   5.476   6.895  12.692
48222W        W19751  40.211  14.499  12.891
48223W        W19752   6.842  13.208  13.887
48224W        W19753  27.697  13.520   0.212
48225W        W19754  15.073  26.996  13.493
48226W        W19755  34.174  38.059   1.282
48227W        W19756   6.279  43.837  13.495
48228W        W19757  11.059  30.682   4.108
48229W        W19758  24.117  25.603   4.641
48230W        W19759  18.260  29.992   1.523
48231W        W19760  15.349  32.653   1.448
48232W        W19761  40.802  22.196   2.723
48233W        W19762  18.521  18.997  12.815
48234W        W19763   8.679  12.047   3.112
48235W        W19764   6.952  11.787   0.053
48236W        W19765   8.117  39.639   4.358
48237W        W19766   5.612   5.198   0.985
48238W        W19767  20.933  30.160  13.847
48239W        W19768  28.380   5.633  11.638
48240W        W19769   2.628   1.345   2.691
48241W        W19770  14.403  24.404   3.814
48242W        W19771  35.303  44.812   4.709
48243W        W19772  29.426  43.114  13.011
48244W        W19773  19.208  12.805   3.732
48245W        W19774  32.523  25.519   2.256
48246W        W19775  28.903  19.489  14.265
48247W        W19776  15.681  10.710  13.532
48248W        W19777  31.591  18.984   0.676
48249W        W19778  17.124  17.830  12.993
48250W        W19779  10.549  19.467   1.395
48251W        W19780  32.050  41.308  10.344
48252W        W19781  13.647  37.926   2.840
48253W        W19782   7.932   5.510   0.451
48254W        W19783  33.702  36.557   0.809
48255W        W19784  18.521  36.546  14.377
48256W        W19785   2.999  16.403   4.080
48257W        W19786  16.461  14.316   1.206
48258W        W19787  43.259  13.324  10.468
48259W        W19788  19.961   1.802  11.185
48260W        W19789  11.804  14.053  10.492
48261W        W19790  27.476  35.069   4.517
48262W        W19791  29.700  29.139  14.924
48263W        W19792  42.104   8.900  10.291
48264W        W19793   2.945  44.701  14.539
48265W        W19794  34.823  26.770   3.495
48266W        W19795  29.261  31.566   0.766
48267W        W19796  44.962  12.815   3.780
48268W        W19797   0.171  41.877  13.832
48269W        W19798  12.943  21.691  14.945
48270W        W19799   1.454   9.413   3.796
48271W        W19800  33.679  16.043   4.911
48272W        W19801  36.989  34.139   1.488
48273W        W19802   9.090  16.784   1.892
48274W        W19803  31.085  19.047   0.498
48275W        W19804  23.030  17.510   2.880
48276W        W19805  12.615  22.219   1.907
48277W        W19806  11.720  24.500   2.671
48278W        W19807  41.913  19.315  13.073
48279W        W19808  12.258   0.772  10.926
48280W        W19809  19.297  22.625   1.834
48281W        W19810  40.889   0.396   4.777
48282W        W19811  26.627  12.702   4.104
48283W        W19812  23.507  10.932   3.214
48284W        W19813  32.588   8.642  11.163
48285W        W19814   4.181  10.269   1.261
48286W        W19815  15.433   5.534  11.801
48287W        W19816   3.331  40.592  13.849
48288W        W19817  24.065   3.989  14.041
48289W        W19818   7.863  30.606   2.372
48290W        W19819   1.763   9.904  12.866
48291W        W19820  43.090  41.525  10.372
48292W        W19821  11.135  44.331   1.002
48293W        W19822  12.311  32.824  14.013
48294W        W19823  13.223  28.574   3.622
48295W        W19824  24.413  12.760   0.765
48296W        W19825  14.630  23.691  11.182
48297W        W19826   4.256   2.283   0.941
48298W        W19827  28.061  23.542  14.906
48299W        W19828  39.896   8.756  10.690
48300W        W19829  14.309  26.166  11.931
48301W        W19830   5.207  15.020  12.408
48302W        W19831   0.442   3.961   1.262
48303W        W19832  14.586  20.222  14.723
48304W        W19833  39.933   0.093   3.552
48305W        W19834  34.667   7.137  12.932
48306W        W19835  39.008  40.476   3.110
48307W        W19836   4.321  23.080  12.656
48308W        W19837   7.398  18.257  13.578
48309W        W19838   8.839  30.933  10.885
48310W        W19839  20.747  25.464   1.108
48311W        W19840  14.223  17.644  12.778
48312W        W19841  20.050   7.193  12.655
48313W        W19842   7.272  29.589  14.152
48314W        W19843   3.004  40.362   0.299
48315W        W19844  23.611   0.817   2.872
48316W        W19845   4.843  25.409  12.954
48317W        W19846  13.384   3.298  12.877
48318W        W19847  36.008  11.318   2.782
48319W        W19848  23.627   9.502   2.804
48320W        W19849  26.653  24.139   0.709
48321W        W19850  44.271  10.225   1.267
48322W        W19851  37.836  23.658   0.943
48323W        W19852  42.977  40.238  14.330
48324W        W19853  22.144   2.685   2.355
48325W        W19854  28.939  11.951  14.260
48326W        W19855   4.195  30.027  10.680
48327W        W19856   7.379  34.326   3.007
48328W        W19857  38.349   5.084   3.776
48329W        W19858  37.002  29.922   1.315
48330W        W19859  41.286  11.708   3.268
48331W        W19860  13.750  19.722  10.486
48332W        W19861  38.367  42.473  11.557
48333W        W19862  28.399   1.242   1.730
48334W        W19863   6.294  18.397   1.281
48335W        W19864   1.655  30.953  13.352
48336W        W19865   6.761  40.514  11.652
48337W        W19866  31.596   9.102   3.231
48338W        W19867  24.084  31.329   3.346
48339W        W19868  21.277  12.771   0.256
48340W        W19869  13.118  14.368   1.814
48341W        W19870   8.377   7.037  11.923
48342W        W19871   8.673  26.013   1.598
48343W        W19872  37.476  32.022  14.201
48344W        W19873  19.608  33.999  13.950
48345W        W19874  16.658   2.444   4.085
48346W        W19875  32.212  29.626  11.305
48347W        W19876   9.344  40.807  13.067
48348W        W19877  22.151  43.124  13.504
48349W        W19878  15.284   6.563  10.713
48350W        W19879  13.543  32.988  14.428
48351W        W19880  28.904  28.322  14.529
48352W        W19881   1.782  41.133  10.557
48353W        W19882   7.842  32.020   3.614
48354W        W19883  34.018  12.585   0.537
48355W        W19884  40.621   5.922  14.375
48356W        W19885  34.339   3.464  11.877
48357W        W19886   5.489  37.514   1.138
48358W        W19887  36.799  28.688  14.866
48359W        W19888  39.553  22.182   3.733
48360W        W19889  28.073   5.666   2.686
48361W        W19890   1.610  27.152   1.463
48362W        W19891   1.845  25.042  12.515
48363W        W19892  29.630  30.249  13.798
48364W        W19893  21.419  18.081  11.535
48365W        W19894  37.441  14.082   0.510
48366W        W19895  15.193   0.923  12.867
48367W        W19896   8.171  15.701  14.498
48368W        W19897  31.950   5.599   3.507
48369W        W19898  13.591  40.489  10.640
48370W        W19899  34.205  10.132  14.503
48371W        W19900   5.285   8.025  11.112
48372W        W19901  12.057  12.771  12.157
48373W        W19902  15.108  39.466  10.551
48374W        W19903  12.406   9.937  11.454
48375W        W19904  14.064   7.855   3.146
48376W        W19905  41.021   0.378   3.329
48377W        W19906   2.438  22.605  14.048
48378W        W19907  28.339  29.975  12.047
48379W        W19908  15.695  43.954  14.856
48380W        W19909  19.498   8.833   3.857
48381W        W19910  17.038  19.942   0.489
48382W        W19911  22.100  24.496  13.789
48383W        W19912  30.351  44.388   3.015
48384W        W19913  16.733  41.315   2.664
48385W        W19914  42.320  27.958  10.533
48386W        W19915   8.390   5.175  13.501
48387W        W19916  23.928   4.248   0.044
48388W        W19917  36.993   7.154   4.829
48389W        W19918  43.653  32.371   4.546
48390W        W19919  23.752   7.712  12.059
48391W        W19920   7.679  20.031  14.729
48392W        W19921  34.924  36.875   0.908
48393W        W19922  15.928  19.051   5.128
48394W        W19923  20.382  18.070   0.286
48395W        W19924   3.820  37.969   1.268
48396W        W19925  11.741  24.234   0.699
48397W        W19926   4.223  28.881   4.930
48398W        W19927  17.735  21.098   0.893
48399W        W19928  22.014  24.618   0.742
48400W        W19929  17.223   3.169  14.246
48401W        W19930  20.158   2.687   0.070
48402W        W19931   7.861  11.401   4.195
48403W        W19932  11.400  34.447   0.171
48404W        W19933   9.073   8.735  10.711
48405W        W19934  27.391  21.468   4.080
48406W        W19935  17.197   6.484   2.858
48407W        W19936   6.832  15.561   4.545
48408W        W19937  16.212  11.730  11.545
48409W        W19938   3.263  10.309   1.922
48410W        W19939  15.055   7.975   0.919
48411W        W19940  32.014   8.836  14.738
48412W        W19941  21.655  34.193   1.213
48413W        W19942  27.915   0.293  11.431
48414W        W19943  12.785   6.462   4.805
48415W        W19944  32.871  32.213   3.320
48416W        W19945   8.699  29.246  12.580
48417W        W19946  33.518   7.253  11.702
48418W        W19947  23.625  44.793  10.664
48419W        W19948  35.738  19.722   4.487
48420W        W19949   9.623   1.718  13.072
48421W        W19950  27.348  30.898  11.813
48422W        W19951  22.504  21.289  14.243
48423W        W19952  11.799  34.010  11.428
48424W        W19953  19.023  24.489   1.728
48425W        W19954  22.613  38.907   1.832
48426W        W19955   2.230  34.859   3.239
48427W        W19956  23.184   6.670   1.263
48428W        W19957  28.745  25.653   2.319
48429W        W19958  14.177  41.169   2.717
48430W        W19959  26.994   8.653   2.820
48431W        W19960   2.790  11.797   1.968
48432W        W19961  44.921  25.146   4.622
48433W        W19962  21.555  33.025   3.226
48434W        W19963  44.699  17.705  14.824
48435W        W19964  39.472  18.049  13.564
48436W        W19965  25.289   9.328   0.377
48437W        W19966  15.571  30.517   1.795
48438W        W19967  16.134   2.481   4.535
48439W        W19968   7.579  28.080  11.183
48440W        W19969  20.696  16.883   2.660
48441W        W19970  21.804   0.456   0.767
48442W        W19971   4.862  30.624   2.375
48443W        W19972  38.650  12.958  14.807
48444W        W19973  33.052  42.408   2.210
48445W        W19974  32.136  30.845   0.294
48446W        W19975  42.774  14.591   0.805
48447W        W19976  15.570   8.238  12.373
48448W        W19977   6.397  23.649   2.873
48449W        W19978   1.325   9.824  14.820
48450W        W19979  44.894  13.712  14.946
48451W        W19980  11.211  24.045   5.004
48452W        W19981  27.149  23.466   3.188
48453W        W19982   7.750   8.703   2.642
48454W        W19983  30.076   3.723  10.775
48455W        W19984  11.161  25.407  13.927
48456W        W19985  36.371  28.626   2.364
48457W        W19986   8.319  29.054   3.122
48458W        W19987   4.409  37.459   4.214
48459W        W19988  40.801  16.282  14.077
48460W        W19989  24.550   9.087  14.746
48461W        W19990  11.117  43.706   4.515
48462W        W19991  38.022  40.729  10.851
48463W        W19992  31.066  43.048   0.528
48464W        W19993  19.743  24.233  14.955
48465W        W19994  21.414  41.494  12.090
48466W        W19995  44.289  33.814   1.393
48467W        W19996   0.656  10.204   4.961
48468W        W19997  16.165  42.398   4.179
48469W        W19998   3.166   0.553   3.644
48470W        W19999  10.143   8.181  11.267
48471W        W20000  41.849  24.705  14.309
48472W        W20001  21.766  15.186  12.116
48473W        W20002  40.505  19.949   1.700
48474W        W20003  16.213  35.979   0.380
48475W        W20004  16.047  44.020   1.848
48476W        W20005  32.582   8.338   4.600
48477W        W20006   1.180  37.491   1.338
48478W        W20007  34.557  34.982  13.394
48479W        W20008   7.166   3.634   4.145
48480W        W20009   4.737  37.853   4.219
48481W        W20010  18.750  38.006   4.527
48482W        W20011  15.591  31.548   5.066
48483W        W20012   9.856  14.685  12.034
48484W        W20013   4.181  43.740  11.440
48485W        W20014  43.727   3.920  13.567
48486W        W20015   8.959  12.464  13.170
48487W        W20016  43.936  22.131   0.998
48488W        W20017  20.149  22.303   2.192
48489W        W20018   1.347  17.724  12.478
48490W        W20019  18.173  19.923  10.184
48491W        W20020  16.095  35.926   3.397
48492W        W20021  34.857  29.910  11.170
48493W        W20022  23.764  25.178  13.061
48494W        W20023  24.080  31.799   1.824
48495W        W20024  26.597  32.313   4.073
48496W        W20025  36.950  39.358   4.157
48497W        W20026   5.571  16.047  13.482
48498W        W20027  24.205   5.009  14.437
48499W        W20028  43.985  19.930   4.344
48500W        W20029   4.320  11.614  12.506
48501W        W20030  23.092  36.886  12.016
48502W        W20031   9.873   2.735   2.727
48503W        W20032  12.616  43.394   1.980
48504W        W20033   5.763  36.586   0.382
48505W        W20034  23.165  12.777   3.659
48506W        W20035   5.867  37.904   0.391
48507W        W20036  11.914  44.997   0.882
48508W        W20037  25.964   2.685   1.811
48509W        W20038   2.141  15.612  14.062
48510W        W20039  10.639  18.765  12.816
48511W        W20040   2.468  23.103   4.494
48512W        W20041  26.556   4.860   4.587
48513W        W20042  15.387  39.345   3.578
48514W        W20043  23.202   4.732  10.695
48515W        W20044  44.613   7.453   4.211
48516W        W20045  27.636  33.543   0.883
48517W        W20046  31.637  30.890  12.054
48518W        W20047  24.111  30.190   4.318
48519W        W20048  43.898  33.768   1.725
48520W        W20049  34.558  15.256   1.686
48521W        W20050  19.025   7.673  11.207
48522W        W20051  28.087  15.149   3.236
48523W        W20052  22.642  39.950  12.820
48524W        W20053  14.723   7.061   0.936
48525W        W20054   4.325  12.599   2.795
48526W        W20055  16.348   2.705   0.899
48527W        W20056   4.506   9.955  10.470
48528W        W20057  16.294   8.443   2.324
48529W        W20058  36.602   2.918  11.021
48530W        W20059   6.326  31.700  10.726
48531W        W20060  12.684  35.037  10.791
48532W        W20061  23.077  43.054   0.352
48533W        W20062  23.824  37.788   1.957
48534W        W20063  27.679  11.767  14.793
48535W        W20064  13.056  24.308   0.458
48536W        W20065  41.067  27.056  11.631
48537W        W20066  15.280  29.071  14.184
48538W        W20067   5.043   2.648   4.524
48539W        W20068  23.237  11.287  11.481
48540W        W20069  39.850  28.692   2.871
48541W        W20070   0.332  25.386   4.361
48542W        W20071  23.656  14.710  13.509
48543W        W20072  31.291   3.101  12.627
48544W        W20073  19.700  31.683   2.463
48545W        W20074   2.721  33.446  11.947
48546W        W20075  19.971  11.134  11.236
48547W        W20076  15.719  25.976  14.914
48548W        W20077  22.299  24.359  13.323
48549W        W20078  43.221  17.024   1.276
48550W        W20079  42.527  18.363   0.486
48551W        W20080   3.085  22.764   2.663
48552W        W20081  44.818  13.864  12.980
48553W        W20082   4.570  15.607   3.612
48554W        W20083  18.871  41.997   3.739
48555W        W20084   4.057   2.837  13.501
48556W        W20085  40.569  37.271  12.552
48557W        W20086  20.051  21.322   9.839
48558W        W20087   6.841  19.257  11.964
48559W        W20088  39.322   0.662  11.592
48560W        W20089   7.250  30.492  10.778
48561W        W20090  36.797  28.106  10.946
48562W        W20091  11.793   2.205  14.514
48563W        W20092  44.749  14.563  14.396
48564W        W20093  27.384  38.634   1.818
48565W        W20094  20.167  12.620  10.874
48566W        W20095  14.533  20.102  13.356
48567W        W20096  21.690  33.948  11.456
48568W        W20097  30.648  41.928   3.345
48569W        W20098  37.316  16.624  11.186
48570W        W20099   7.407  28.521   1.702
48571W        W20100  40.809  14.258   0.505
48572W        W20101   5.015   3.821   3.322
48573W        W20102   7.049  42.963  11.051
48574W        W20103  25.351  37.024   0.244
48575W        W20104  35.836   9.276  14.005
48576W        W20105  31.406  16.637  14.846
48577W        W20106  15.693  19.506   9.808
48578W        W20107  42.089  14.684   2.405
48579W        W20108  17.820  32.796  11.864
48580W        W20109   2.931  43.334   3.112
48581W        W20110  11.625  26.000  11.910
48582W        W20111  41.952  42.272   2.737
48583W        W20112  13.556  30.617   4.152
48584W        W20113  26.536  41.482  13.609
48585W        W20114   5.410  35.405   1.461
48586W        W20115   3.763  27.965   2.333
48587W        W20116  34.344  28.072  10.745
48588W        W20117  32.137  43.377  11.611
48589W        W20118  19.771  11.641   4.859
48590W        W20119  40.925   2.270  12.925
48591W        W20120  35.981  34.824   1.719
48592W        W20121  28.660  27.023  12.512
48593W        W20122  41.699  28.464   4.901
48594W        W20123  13.574  36.372   4.767
48595W        W20124  15.271   5.641   0.513
48596W        W20125  14.187  26.501   2.120
48597W        W20126  44.334  23.253   4.840
48598W        W20127  14.858  11.626   0.416
48599W        W20128  31.833  33.777   3.114
48600W        W20129  37.859  23.085   1.770
48601W        W20130  33.969  33.509   3.315
48602W        W20131  21.582  24.044   1.844
48603W        W20132  42.152  25.737   4.255
48604W        W20133  25.038  12.358   2.223
48605W        W20134  36.048  32.994  10.942
48606W        W20135  35.962  31.115   1.562
48607W        W20136  19.597  17.661   0.519
48608W        W20137  43.104  20.333  11.304
48609W        W20138  39.996  13.117  13.567
48610W        W20139  12.118  27.035  13.862
48611W        W20140  38.330   1.431   1.130
48612W        W20141  28.287  39.478   1.964
48613W        W20142  25.730   8.216  12.932
48614W        W20143  13.827   9.725   0.581
48615W        W20144  14.004  41.023  12.078
48616W        W20145  42.105  35.962   1.939
48617W        W20146  11.039  37.115  13.499
48618W        W20147  14.782   6.060   0.653
48619W        W20148  44.435  25.060   1.924
48620W        W20149  43.479  11.226  14.111
48621W        W20150   1.251  40.341  14.701
48622W        W20151  13.605   1.712  11.265
48623W        W20152   8.153   0.864  14.480
48624W        W20153   3.420  29.211   1.802
48625W        W20154  20.505  12.156   4.752
48626W        W20155  35.480  37.608  11.606
48627W        W20156  41.826  30.684  12.933
48628W        W20157   8.373   4.143  13.416
48629W        W20158  15.097  40.364   1.361
48630W        W20159   9.835  36.154   2.257
48631W        W20160   2.101  16.038  11.146
48632W        W20161   6.887   7.486   2.680
48633W        W20162  11.445  19.857  13.010
48634W        W20163  33.644  10.606  14.294
48635W        W20164  37.385  42.568   4.565
48636W        W20165  17.213  11.415   0.421
48637W        W20166  36.901  23.103   4.120
48638W        W20167  32.450  30.929   4.919
48639W        W20168  20.274  24.297   3.633
48640W        W20169  20.340   3.217  13.042
48641W        W20170   9.377  36.051   3.230
48642W        W20171  28.871  24.781   4.648
48643W        W20172  24.185  31.568   4.859
48644W        W20173  19.189  27.083  10.675
48645W        W20174  17.182   9.387   0.519
48646W        W20175  42.273  35.023   1.220
48647W        W20176   8.028  42.957  11.277
48648W        W20177  44.711   6.833  13.113
48649W        W20178  36.049  34.531  10.792
48650W        W20179   5.663  32.518  11.624
48651W        W20180  12.570  36.544  11.229
48652W        W20181  19.361  13.342   2.689
48653W        W20182  22.205  42.104   4.062
48654W        W20183  16.532  17.711   4.528
48655W        W20184   6.262   0.357  13.412
48656W        W20185  24.914   2.428   4.060
48657W        W20186  24.908  15.628   4.192
48658W        W20187  31.102  41.068   2.410
48659W        W20188  41.396   7.864  14.828
48660W        W20189  30.845  30.684  14.880
48661W        W20190  29.128  35.322   5.538
48662W        W20191  38.015  13.838   2.698
48663W        W20192   9.153  10.746  14.665
48664W        W20193  42.539  30.109  13.323
48665W        W20194  36.518  22.072  14.870
48666W        W20195  16.270  42.746   0.302
48667W        W20196  34.973  29.919   0.829
48668W        W20197  37.966   0.747  14.496
48669W        W20198  28.169  20.065  11.202
48670W        W20199  20.226  44.371  13.883
48671W        W20200  43.984  20.800   1.325
48672W        W20201  43.245   9.725  11.016
48673W        W20202   9.747  28.878  14.732
48674W        W20203  28.260  18.988   2.650
48675W        W20204   5.778  38.923  13.944
48676W        W20205  44.096  37.878  12.562
48677W        W20206  10.607  41.281  13.000
48678W        W20207  34.257  42.230   2.925
48679W        W20208   2.905  19.025  13.405
48680W        W20209  33.729   9.797  12.560
48681W        W20210  31.151   5.389  12.439
48682W        W20211   0.740  39.507   3.564
48683W        W20212  32.070  23.255   5.085
48684W        W20213   6.985  11.817  12.391
48685W        W20214   8.376  27.930  14.762
48686W        W20215  17.858  27.782   5.197
48687W        W20216   0.844  34.005  11.164
48688W        W20217  19.033  12.148   1.784
48689W        W20218  36.646  39.122   0.412
48690W        W20219  42.588   6.411   4.682
48691W        W20220  43.804   3.880  12.810
48692W        W20221  16.154   5.068  14.377
48693W        W20222   6.127  32.142  12.992
48694W        W20223   2.886  11.156  12.563
48695W        W20224  37.285  20.050   3.201
48696W        W20225   2.643  19.627   4.534
48697W        W20226   3.462  43.824  13.583
48698W        W20227   0.881  38.411  12.652
48699W        W20228  21.977  16.729  12.951
48700W        W20229  25.911  21.151   4.634
48701W        W20230  35.808   3.334  12.044
48702W        W20231  40.827  11.277   4.486
48703W        W20232  25.767  36.620  11.230
48704W        W20233   3.143  34.082   1.938
48705W        W20234  23.421  33.758   3.668
48706W        W20235  39.101  41.821  14.843
48707W        W20236  29.572   8.435   1.971
48708W        W20237  21.240  17.734  12.152
48709W        W20238   8.964  24.540   2.681
48710W        W20239  25.200  41.442   2.281
48711W        W20240  33.115   3.169  10.934
48712W        W20241  18.136  34.105  11.500
48713W        W20242   4.761  18.445   2.308
48714W        W20243   3.017  41.384  13.937
48715W        W20244  39.785  24.188  13.073
48716W        W20245  40.529  13.294  14.817
48717W        W20246  44.453  17.523   0.270
48718W        W20247   0.912  32.863   0.479
48719W        W20248  32.088   9.446  14.072
48720W        W20249  28.570  21.319   1.365
48721W        W20250  36.596   8.398   0.405
48722W        W20251  20.245  41.776  12.849
48723W        W20252  22.598   5.643   4.619
48724W        W20253   4.769  27.249   0.064
48725W        W20254  21.109  29.975   1.558
48726W        W20255  19.297  35.143   4.698
48727W        W20256  42.728   9.928  14.968
48728W        W20257  19.729   8.682   3.397
48729W        W20258  17.659  24.065   1.714
48730W        W20259  24.087   2.779   1.975
48731W        W20260  30.632  40.371   0.226
48732W        W20261  41.170   8.156   2.574
48733W        W20262   8.350  44.342  14.288
48734W        W20263  38.709  25.421   0.856
48735W        W20264   4.945  31.535  11.843
48736W        W20265  26.610  37.946   4.588
48737W        W20266  33.592   1.572   2.694
48738W        W20267  36.072  41.917   2.254
48739W        W20268  37.818  18.986  10.907
48740W        W20269  40.968  13.582   4.144
48741W        W20270   6.349  13.148  10.985
48742W        W20271  31.362  43.320   4.729
48743W        W20272  29.380  32.001   1.480
48744W        W20273  10.579  20.531   1.355
48745W        W20274  29.222  33.611  14.851
48746W        W20275  44.538  27.440   2.215
48747W        W20276  40.523  39.932  13.435
48748W        W20277   9.565  31.847   0.848
48749W        W20278  24.229   6.292  10.067
48750W        W20279  28.005  26.513   3.978
48751W        W20280   2.733  40.886  12.484
48752W        W20281  43.030  18.003  11.798
48753W        W20282  11.281  17.727  11.572
48754W        W20283   3.395  21.824   0.536
48755W        W20284  28.001  26.076  10.422
48756W        W20285  17.841   0.941   0.828
48757W        W20286  44.930  32.121  12.615
48758W        W20287   8.570   5.446   2.392
48759W        W20288   1.021  17.166   1.492
48760W        W20289   1.866   3.000  10.777
48761W        W20290  19.387  15.382  14.290
48762W        W20291  13.672  37.383   0.992
48763W        W20292  12.548  19.099   0.795
48764W        W20293  43.204  39.030   1.293
48765W        W20294  11.194  19.980  12.393
48766W        W20295  42.278  21.953  11.134
48767W        W20296  13.935   2.397  12.873
48768W        W20297  41.470  18.736  12.873
48769W        W20298  23.579  20.261   1.761
48770W        W20299  17.996   5.277  12.064
48771W        W20300  12.627  40.357  12.554
48772W        W20301   7.939  32.965  11.232
48773W        W20302  32.170  12.560   1.347
48774W        W20303   1.833   3.993  12.016
48775W        W20304  21.243  22.464   2.268
48776W        W20305  36.318  20.797  14.298
48777W        W20306  27.474  21.110   2.303
48778W        W20307   9.828   5.362  13.859
48779W        W20308  38.089  14.393   4.124
48780W        W20309  32.995   8.827  14.438
48781W        W20310   1.506  12.696   3.528
48782W        W20311  43.959  15.748  14.352
48783W        W20312   4.444  40.747  12.960
48784W        W20313  30.564  29.003  12.724
48785W        W20314  17.384   7.205   3.175
48786W        W20315  26.073  21.319   2.415
48787W        W20316  13.201  25.993  11.450
48788W        W20317  33.176  31.362   3.734
48789W        W20318  28.202  25.096  12.471
48790W        W20319   4.364  35.328  14.361
48791W        W20320  10.957  10.276   0.980
48792W        W20321   9.552  41.498   4.249
48793W        W20322   6.793  10.424   3.350
48794W        W20323   4.282  25.228  12.509
48795W        W20324  13.685  17.676   4.375
48796W        W20325   2.352  12.641   3.100
48797W        W20326  28.635   9.262   1.905
48798W        W20327   0.189   6.824  12.917
48799W        W20328  27.087  24.732  14.462
48800W        W20329  26.036  25.703  12.574
48801W        W20330  33.599   0.070   3.730
48802W        W20331   3.327   1.330  13.046
48803W        W20332  29.495  17.572  12.384
48804W        W20333  25.501  31.858   1.218
48805W        W20334   4.429  10.392  13.627
48806W        W20335  44.543  35.123  14.270
48807W        W20336  33.427  37.349   3.686
48808W        W20337  12.631  29.419   3.115
48809W        W20338   2.684  34.115  13.846
48810W        W20339   4.801  36.641  14.565
48811W        W20340  38.622   5.304  12.294
48812W        W20341  35.858   0.834   0.039
48813W        W20342  11.168  37.679  12.139
48814W        W20343  14.289  12.384   2.882
48815W        W20344  34.705  25.670   1.295
48816W        W20345  30.567   2.466  14.364
48817W        W20346  36.518  22.400   0.282
48818W        W20347  42.260  35.029  14.402
48819W        W20348  13.679  28.673  12.543
48820W        W20349  38.859  32.670   1.941
48821W        W20350   7.943  22.883  10.587
48822W        W20351   6.086  33.021   3.328
48823W        W20352  32.407  40.525  13.754
48824W        W20353  32.113  33.381   4.332
48825W        W20354   0.046   1.758   0.281
48826W        W20355  32.059  33.353   3.332
48827W        W20356  41.307   3.932  12.622
48828W        W20357   7.629  25.139  14.398
48829W        W20358  31.806   0.498   4.190
48830W        W20359  17.637   5.617   0.757
48831W        W20360  10.702  18.905   2.783
48832W        W20361  23.738  32.917   4.577
48833W        W20362  34.019  27.074  12.204
48834W        W20363  25.111   4.980   0.671
48835W        W20364  36.616  24.775   3.701
48836W        W20365  43.970  27.962   3.283
48837W        W20366  18.543  39.086  13.535
48838W        W20367  42.269  34.350   1.771
48839W        W20368  39.096   9.514   2.455
48840W        W20369  23.685  39.558   2.632
48841W        W20370  40.504  20.602  11.983
48842W        W20371  20.243  41.489   3.564
48843W        W20372   3.823  30.923  11.098
48844W        W20373  30.891  13.303  11.885
48845W        W20374  33.828   0.548   1.759
48846W        W20375  11.354   3.022  11.170
48847W        W20376  17.838   6.432   1.285
48848W        W20377  33.427  35.919   2.834
48849W        W20378  12.980  38.250   3.248
48850W        W20379   3.867   5.359   4.414
48851W        W20380  20.251  42.171   4.845
48852W        W20381  36.608  20.865   4.157
48853W        W20382   0.494  18.119  14.617
48854W        W20383  13.300  42.480   3.010
48855W        W20384  29.984  27.146  12.328
48856W        W20385  10.910  11.432  14.296
48857W        W20386  21.515  34.538   3.631
48858W        W20387  21.673  35.417  14.718
48859W        W20388   0.378  35.190  12.997
48860W        W20389  37.294  36.347  12.920
48861W        W20390  28.074  26.473   4.467
48862W        W20391   6.808   0.787  12.302
48863W        W20392  17.385   6.687   1.208
48864W        W20393   8.564  36.888   1.483
48865W        W20394  41.077  33.557   2.300
48866W        W20395  17.653  29.963   0.738
48867W        W20396  34.426  42.947   4.656
48868W        W20397  15.649  17.134   5.131
48869W        W20398  20.587  30.012   2.827
48870W        W20399  27.548  26.354   2.419
48871W        W20400   1.117   5.966  12.929
48872W        W20401  15.084  31.842  11.955
48873W        W20402   7.300  30.547  14.058
48874W        W20403  27.580  44.229   3.500
48875W        W20404   9.811  28.106   3.726
48876W        W20405  15.538  15.583   2.830
48877W        W20406  15.782  41.278   0.174
48878W        W20407  31.119  25.119  13.425
48879W        W20408   6.968   4.302   1.946
48880W        W20409  23.031  40.983   0.060
48881W        W20410  21.643  40.377   3.262
48882W        W20411   6.229  23.023  11.605
48883W        W20412  44.230  10.665  13.028
48884W        W20413  32.420  39.827  14.920
48885W        W20414   4.201  29.205   3.298
48886W        W20415  43.828  39.568  13.959
48887W        W20416  39.350  13.699  14.749
48888W        W20417  26.007  14.510  12.989
48889W        W20418  24.972  27.392  11.593
48890W        W20419  27.116  24.500  11.188
48891W        W20420  16.616  25.944  13.404
48892W        W20421  30.199   2.647  14.775
48893W        W20422  12.308   5.253   2.303
48894W        W20423  33.540  28.193  14.002
48895W        W20424   1.858   4.825   0.483
48896W        W20425  10.424  28.398  12.572
48897W        W20426  18.502  40.324  11.028
48898W        W20427  32.075  31.153   2.397
48899W        W20428  43.472  37.962   3.242
48900W        W20429  25.075   8.241   4.639
48901W        W20430   5.252   1.958   2.854
48902W        W20431  19.237  13.759   0.259
48903W        W20432  43.388  12.019  10.338
48904W        W20433  15.228  11.850   1.781
48905W        W20434  43.840  33.094   4.048
48906W        W20435   9.683   3.224   4.400
48907W        W20436  33.622  36.538   2.632
48908W        W20437  37.688  33.011   0.975
48909W        W20438   5.904  35.365   1.300
48910W        W20439  35.321   0.816   0.062
48911W        W20440  31.030   9.253  12.132
48912W        W20441  27.230  40.449  11.589
48913W        W20442  18.867  21.133   4.120
48914W        W20443  20.094  27.858  11.982
48915W        W20444   8.426  28.059   1.117
48916W        W20445  29.499  39.400   4.650
48917W        W20446  18.316  35.920   3.218
48918W        W20447   4.710  38.876   2.761
48919W        W20448  38.921  30.962   4.712
48920W        W20449   6.371  29.549  11.596
48921W        W20450   0.213  28.451  11.677
48922W        W20451  28.483  32.733   2.839
48923W        W20452  16.096   3.251  13.478
48924W        W20453   3.959  44.553   1.452
48925W        W20454  22.547  22.333   3.613
48926W        W20455  40.231  44.702  11.120
48927W        W20456  22.253  16.650   1.010
48928W        W20457  41.374  29.455   0.022
48929W        W20458  17.715  35.840  14.828
48930W        W20459  14.446  38.958   4.602
48931W        W20460   9.643  10.290  10.545
48932W        W20461  29.181  30.001  10.757
48933W        W20462  21.763  23.806   2.752
48934W        W20463  20.211   2.219  14.767
48935W        W20464   7.819  18.997   0.772
48936W        W20465   3.491  44.866  11.587
48937W        W20466  14.573  28.143  13.034
48938W        W20467  35.997   9.305  12.049
48939W        W20468   1.213  21.692   3.711
48940W        W20469  44.424  40.328   2.670
48941W        W20470  35.561  16.180  11.113
48942W        W20471   1.892  40.925   2.366
48943W        W20472   5.284  12.119   2.758
48944W        W20473  20.524   9.850   1.247
48945W        W20474  29.165  22.970   0.844
48946W        W20475  38.149   2.422  13.079
48947W        W20476  20.536   4.920  12.493
48948W        W20477  24.541  13.158  14.783
48949W        W20478  17.560   1.446   4.358
48950W        W20479  34.947  22.749  11.598
48951W        W20480  34.554  40.883  12.194
48952W        W20481  21.215  27.639  12.830
48953W        W20482  25.015  14.659   2.143
48954W        W20483  12.727  38.151  14.525
48955W        W20484  28.382  22.456   2.663
48956W        W20485  27.940  18.117   3.677
48957W        W20486  22.593  42.829   5.174
48958W        W20487  42.041  39.931   2.820
48959W        W20488  42.444   7.444  14.042
48960W        W20489  33.652  17.652   1.918
48961W        W20490  43.871  28.244  10.928
48962W        W20491  22.170  24.183   3.723
48963W        W20492  41.327  29.815  11.503
48964W        W20493  36.594  30.722   3.200
48965W        W20494  13.942  15.630  13.943
48966W        W20495  24.357  20.744   1.276
48967W        W20496  36.338  26.153  14.812
48968W        W20497  34.385  16.855  11.037
48969W        W20498  43.961  12.124   2.810
48970W        W20499  19.961  26.533  12.662
48971W        W20500  20.477  13.034  11.002
48972W        W20501   0.292  33.137  14.780
48973W        W20502  34.196  44.991  13.038
48974W        W20503  29.087  10.315  13.851
48975W        W20504   8.702   1.660  11.235
48976W        W20505  34.002  38.901  11.518
48977W        W20506   9.888   8.057   1.939
48978W        W20507  15.162   5.488   2.617
48979W        W20508  36.905  31.542  11.472
48980W        W20509  14.839  40.834   2.207
48981W        W20510  39.926  40.214   0.751
48982W        W20511  39.425  28.453   0.316
48983W        W20512  42.276  41.283   4.807
48984W        W20513  24.598   6.768   0.113
48985W        W20514  43.984   5.495   3.924
48986W        W20515  34.182  23.335  13.712
48987W        W20516   0.224  29.688  13.067
48988W        W20517  27.922  36.568   2.351
48989W        W20518  33.175  39.807  13.845
48990W        W20519  32.643  14.017  13.487
48991W        W20520  10.316  16.265   1.775
48992W        W20521  31.095  19.607  12.916
48993W        W20522   8.299  25.192   1.232
48994W        W20523  24.448   3.425   1.213
48995W        W20524  41.859  36.460   4.300
48996W        W20525  31.621  17.386  11.629
48997W        W20526   7.414  18.860  12.432
48998W        W20527   4.441  30.494  10.661
48999W        W20528   9.931  40.296   4.662
49000W        W20529   9.486  14.437  13.752
49001W        W20530  14.106  38.276  13.582
49002W        W20531  11.688  39.586   4.393
49003W        W20532  21.738  41.096   4.617
49004W        W20533   9.978  28.529   4.512
49005W        W20534  30.663  29.473   1.930
49006W        W20535  20.158  18.261   4.563
49007W        W20536  20.495   4.167  13.198
49008W        W20537  14.545  36.690  14.445
49009W        W20538   0.436  21.189  14.975
49010W        W20539   1.197  15.895   3.361
49011W        W20540  20.083   3.513   2.226
49012W        W20541  16.132   8.434  12.444
49013W        W20542  36.087  14.590   2.734
49014W        W20543  19.529  33.013   2.365
49015W        W20544  30.050  16.639   0.135
49016W        W20545  35.439   9.814  13.388
49017W        W20546  15.871  29.422  11.182
49018W        W20547   3.485   7.704   4.565
49019W        W20548  22.986  13.366   1.473
49020W        W20549  24.245  17.236   5.058
49021W        W20550   0.808  10.706   4.822
49022W        W20551   2.401  28.435   3.860
49023W        W20552   0.249   3.268   1.672
49024W        W20553  14.620  14.859  12.348
49025W        W20554  25.834   1.128   1.041
49026W        W20555  39.754  43.951  14.788
49027W        W20556  25.082   8.455  14.513
49028W        W20557   7.908  15.651   9.945
49029W        W20558  29.078  24.759  14.404
49030W        W20559  15.415  30.117   2.109
49031W        W20560   0.302  26.223   1.901
49032W        W20561  27.124   9.737   3.113
49033W        W20562  41.359  17.247  11.357
49034W        W20563  41.169  28.775  11.086
49035W        W20564  31.152  24.878   1.639
49036W        W20565  11.666  13.786  13.832
49037W        W20566  29.437  38.995   2.622
49038W        W20567  40.732  32.612   3.257
49039W        W20568  34.748  34.399   1.414
49040W        W20569   3.280   3.450   0.816
49041W        W20570   5.712  41.008  12.434
49042W        W20571  38.377  20.741   1.848
49043W        W20572  25.745  28.474  14.385
49044W        W20573  22.087  16.671  10.788
49045W        W20574   6.848  21.996   2.248
49046W        W20575  44.463   9.885   0.910
49047W        W20576  27.980  11.547   4.083
49048W        W20577  29.154  23.749  12.926
49049W        W20578  27.523  22.085  14.820
49050W        W20579  11.824  30.256   4.113
49051W        W20580  20.621  39.035   0.495
49052W        W20581  38.810  15.772  13.906
49053W        W20582  30.588  19.841   0.313
49054W        W20583  41.818   6.586   1.654
49055W        W20584  37.912   7.633   0.455
49056W        W20585  13.596  42.455  12.617
49057W        W20586   7.183  30.997   4.256
49058W        W20587  27.237  39.396   2.767
49059W        W20588  25.108  24.717  14.948
49060W        W20589  39.730  26.977   1.847
49061W        W20590  42.362  37.049   4.903
49062W        W20591   2.521  43.077  11.509
49063W        W20592  16.742  33.799  13.977
49064W        W20593   0.385  12.112   2.256
49065W        W20594  24.781   8.369  11.059
49066W        W20595  32.708  10.811   4.575
49067W        W20596  23.661  17.798  11.406
49068W        W20597   5.245  37.761   4.027
49069W        W20598   2.017   1.014  13.878
49070W        W20599  41.453  40.032   0.539
49071W        W20600  24.015  10.775  11.671
49072W        W20601   5.317  14.861   4.585
49073W        W20602  23.557  33.984   4.416
49074W        W20603  43.799  10.595  11.671
49075W        W20604  32.551  44.995   0.386
49076W        W20605  44.500   6.200  11.222
49077W        W20606  38.305  19.216  13.042
49078W        W20607   2.335   3.466   5.158
49079W        W20608  23.161  32.277   0.284
49080W        W20609  25.567  10.841   3.582
49081W        W20610  11.823   0.364  11.527
49082W        W20611  43.822  14.525   2.274
49083W        W20612  29.969  35.770  12.372
49084W        W20613   7.819   5.457  13.961
49085W        W20614  30.524  36.634  11.669
49086W        W20615  28.262  18.374  11.261
49087W        W20616  40.635   4.788   4.193
49088W        W20617   7.644   2.671  13.983
49089W        W20618  20.470  41.557  11.817
49090W        W20619  27.400   5.246   0.820
49091W        W20620   0.309  18.706   2.209
49092W        W20621   1.886  16.904   0.991
49093W        W20622  29.504  38.420  10.622
49094W        W20623   6.898  18.718   2.727
49095W        W20624  26.207  10.692  14.322
49096W        W20625  19.854   2.197  11.613
49097W        W20626  34.079  22.581   1.309
49098W        W20627   0.720  15.722  12.196
49099W        W20628  33.441  42.750   1.463
49100W        W20629  37.299  40.221   4.126
49101W        W20630  27.076  26.977  13.032
49102W        W20631   0.453   9.227   1.689
49103W        W20632  33.618  10.795  13.009
49104W        W20633  35.223  37.284   3.512
49105W        W20634  44.215  34.586  12.891
49106W        W20635  25.243  20.231   3.743
49107W        W20636  13.014  28.921   0.005
49108W        W20637  30.961   7.706   3.707
49109W        W20638  16.374  28.660  14.877
49110W        W20639  40.590  22.497   3.082
49111W        W20640  36.068  22.869  12.694
49112W        W20641  36.627  40.817  10.619
49113W        W20642  30.195   1.584   3.849
49114W        W20643   6.625  24.105   0.491
49115W        W20644   5.154  41.440  11.648
49116W        W20645  37.515  37.070   1.948
49117W        W20646  34.048  11.232   4.185
49118W        W20647   4.809  13.815   3.873
49119W        W20648  22.636  38.018  14.034
49120W        W20649   1.511  39.028   3.390
49121W        W20650  26.865  39.979   0.045
49122W        W20651  20.882  38.715   3.763
49123W        W20652  43.345   2.695   0.679
49124W        W20653  38.770  35.077   3.314
49125W        W20654  30.630  21.137   1.723
49126W        W20655  34.799  21.070   0.516
49127W        W20656  14.306  24.630   4.953
49128W        W20657  31.407  33.100  11.548
49129W        W20658  37.412  21.760  11.877
49130W        W20659   7.350   5.932   4.480
49131W        W20660  27.873  44.437  11.113
49132W        W20661   1.864  15.274  12.827
49133W        W20662  38.568  15.617   2.648
49134W        W20663   4.353  11.282   1.203
49135W        W20664  11.613  28.040   3.565
49136W        W20665  24.166  11.624  11.615
49137W        W20666  27.209  29.943  14.413
49138W        W20667  44.816  43.596  12.482
49139W        W20668  43.380  36.790  14.805
49140W        W20669  37.122  15.756  13.487
49141W        W20670  24.092  36.866   2.425
49142W        W20671   2.517  40.388  11.949
49143W        W20672  13.769  41.003  10.680
49144W        W20673  39.481   1.213   3.933
49145W        W20674  29.907  14.809   1.796
49146W        W20675  43.275  11.714  14.040
49147W        W20676  16.117  17.275   1.942
49148W        W20677  21.692  34.750   0.393
49149W        W20678  34.931  44.862   2.897
49150W        W20679  25.285  24.582  11.460
49151W        W20680   5.701  33.114  14.460
49152W        W20681  22.626   3.811  12.034
49153W        W20682  18.720  16.391  12.605
49154W        W20683   3.181  39.108  12.938
49155W        W20684  19.074  23.023   1.633
49156W        W20685  28.411  25.436  14.298
49157W        W20686  27.795  41.783   1.675
49158W        W20687  10.373  29.164  14.015
49159W        W20688  39.417  31.585  11.192
49160W        W20689  17.560  25.553  13.940
49161W        W20690  43.999   2.100  12.809
49162W        W20691  24.101  15.129  14.051
49163W        W20692  16.157   5.834   4.573
49164W        W20693  31.144  29.985   4.734
49165W        W20694   2.718  43.175   4.825
49166W        W20695  38.410  19.095   1.504
49167W        W20696  24.509  44.196  12.105
49168W        W20697  24.624  32.012  11.857
49169W        W20698  22.456  39.596  12.417
49170W        W20699  31.712  15.541  11.215
49171W        W20700   5.705  14.040   1.745
49172W        W20701  32.967   2.714   4.267
49173W        W20702  44.866   1.744   5.031
49174W        W20703  44.430  44.923   3.825
49175W        W20704  29.049  33.032  12.120
49176W        W20705  23.023  23.493  13.956
49177W        W20706   0.875  39.172   2.354
49178W        W20707  24.613  26.135  12.509
49179W        W20708  19.341  27.074   1.558
49180W        W20709   6.316  15.344   4.629
49181W        W20710  14.300   5.304   2.256
49182W        W20711   8.724  42.493   0.979
49183W        W20712  38.352  36.546   4.584
49184W        W20713  42.512  11.436  11.155
49185W        W20714  21.349  26.660  12.927
49186W        W20715  36.273  22.543  10.375
49187W        W20716  25.654   2.281   4.691
49188W        W20717  22.277  44.290  14.461
49189W        W20718  29.184   4.909  11.656
49190W        W20719  30.236  34.935  13.827
49191W        W20720  44.390  12.303   3.080
49192W        W20721  41.617  11.634  12.084
49193W        W20722  39.564  30.146   4.646
49194W        W20723  26.990  39.532  14.786
49195W        W20724  36.054  25.306  10.576
49196W        W20725  15.467  15.165   0.360
49197W        W20726   4.807   3.008  12.935
49198W        W20727  27.928  22.887   1.687
49199W        W20728   7.744  34.074   2.341
49200W        W20729  41.865   3.047  12.494
49201W        W20730  33.951  30.943   3.325
49202W        W20731  40.107  24.920   3.319
49203W        W20732  40.285  39.751  12.942
49204W        W20733  30.172  26.463   3.781
49205W        W20734   0.786  18.468   1.804
49206W        W20735  37.134  38.519  13.556
49207W        W20736  27.184  13.205   2.934
49208W        W20737  32.361  44.285  11.149
49209W        W20738  30.538   9.693   0.854
49210W        W20739  24.327   5.077   0.355
49211W        W20740   8.966  40.423   5.006
49212W        W20741   7.802  14.941  12.117
49213W        W20742  12.498  31.077  14.993
49214W        W20743  38.301  36.410  12.985
49215W        W20744  42.771  27.507  11.103
49216W        W20745  40.273  25.015  12.574
49217W        W20746  38.830  25.256   2.015
49218W        W20747   4.844  15.666  10.637
49219W        W20748  33.635   2.183   3.596
49220W        W20749  39.296  35.544   2.760
49221W        W20750  11.120  11.750  13.368
49222W        W20751  43.371  40.940   0.600
49223W        W20752   9.633   2.132  14.374
49224W        W20753   9.149  24.952   3.657
49225W        W20754  29.461  26.015   1.652
49226W        W20755  19.235  30.120   2.408
49227W        W20756   2.514  23.684  11.518
49228W        W20757  33.634  27.999  14.929
49229W        W20758  28.418  23.350   3.325
49230W        W20759  11.861  37.931   3.882
49231W        W20760   6.328  14.836   1.479
49232W        W20761  30.671   8.370   4.662
49233W        W20762  26.089  32.247   4.134
49234W        W20763   5.156  35.320   2.889
49235W        W20764  34.006  26.019  14.312
49236W        W20765   7.572   5.860   3.094
49237W        W20766  14.567  14.447  14.476
49238W        W20767  19.710  16.069   2.297
49239W        W20768  26.896  15.363   3.608
49240W        W20769  42.331  26.239   2.128
49241W        W20770  42.881  36.968  14.698
49242W        W20771  19.775   4.695   5.129
49243W        W20772  40.865   1.136   4.450
49244W        W20773  18.499  44.935  12.741
49245W        W20774  32.993  10.373   4.526
49246W        W20775  29.057  14.740   1.441
49247W        W20776  14.371  36.819   3.177
49248W        W20777  18.000  44.761  14.958
49249W        W20778  24.525  22.816   3.926
49250W        W20779   2.197  23.172   0.790
49251W        W20780   8.838  43.268  14.459
49252W        W20781  21.720  33.614   3.900
49253W        W20782  24.093  35.362  13.457
49254W        W20783   2.362  13.488  14.021
49255W        W20784  11.433  21.668  12.078
49256W        W20785  37.432  11.312   2.319
49257W        W20786  17.719   9.093  14.430
49258W        W20787  16.686  18.847   0.267
49259W        W20788   0.179  31.855   5.616
49260W        W20789  43.201  31.509   4.166
49261W        W20790  17.675  18.523  14.959
49262W        W20791  21.660   8.816  14.876
49263W        W20792   9.266  42.940  12.616
49264W        W20793   4.368  18.123   3.229
49265W        W20794   4.082  12.614  14.924
49266W        W20795  28.946  35.619   5.166
49267W        W20796   6.750  27.597   4.816
49268W        W20797  16.311  25.281  12.874
49269W        W20798  16.707  12.379   0.335
49270W        W20799  42.769   4.732   0.623
49271W        W20800  15.153  34.512   4.284
49272W        W20801  35.033   3.471  13.430
49273W        W20802   0.302   6.786   4.438
49274W        W20803  25.984  21.712  11.963
49275W        W20804  32.578  14.662  11.826
49276W        W20805  16.774  16.101  13.503
49277W        W20806  18.845   3.537  11.204
49278W        W20807  39.455  21.110   4.137
49279W        W20808  42.798  36.460  11.219
49280W        W20809  30.793  15.689  11.883
49281W        W20810  13.294  43.529   4.203
49282W        W20811  28.967  28.491  11.065
49283W        W20812  23.014   4.448   4.171
49284W        W20813  32.691  15.408   2.332
49285W        W20814   1.448  37.744  11.679
49286W        W20815  43.504  39.391   3.042
49287W        W20816  33.877  34.814   0.821
49288W        W20817  28.787  15.878   4.050
49289W        W20818  27.926  33.566  13.029
49290W        W20819  22.455   9.192  13.755
49291W        W20820  28.402  23.956   0.006
49292W        W20821  30.047  19.939   3.162
49293W        W20822  39.024  15.241  10.732
49294W        W20823  40.242  17.986   3.822
49295W        W20824  34.312  44.598   2.264
49296W        W20825  36.419  30.571   4.506
49297W        W20826   8.194  27.125   0.181
49298W        W20827  12.371  41.585  13.851
49299W        W20828   8.770   1.136  12.590
49300W        W20829   0.102  36.718  12.831
49301W        W20830  43.232  41.401   0.405
49302W        W20831  21.054  15.344   5.082
49303W        W20832  44.319  16.926  11.713
49304W        W20833  39.380  38.484  13.513
49305W        W20834  43.035  16.155   3.134
49306W        W20835  42.452  33.641  11.131
49307W        W20836  17.287  32.675  12.614
49308W        W20837  22.989  24.013  13.965
49309W        W20838  24.028  18.191  12.831
49310W        W20839  43.349  39.289  11.978
49311W        W20840  39.057   7.065   2.737
49312W        W20841  35.272  29.336   2.331
49313W        W20842   2.018  41.586   3.225
49314W        W20843  26.976  18.311   3.689
49315W        W20844   3.756  41.247  13.393
49316W        W20845  32.367  35.433  13.540
49317W        W20846  16.623  30.511   4.564
49318W        W20847  39.043  29.103   3.221
49319W        W20848  41.741  11.271   1.846
49320W        W20849  34.071   3.800  11.533
49321W        W20850   8.290  28.831   4.654
49322W        W20851  15.629  32.219   1.476
49323W        W20852  33.862  37.359   1.914
49324W        W20853  41.227  11.294   1.881
49325W        W20854  15.790  32.148  11.705
49326W        W20855   1.922  10.723   0.763
49327W        W20856  26.638  14.796   4.071
49328W        W20857   3.374  34.543  13.180
49329W        W20858  31.832  17.383   4.302
49330W        W20859   6.589   3.990  14.400
49331W        W20860  35.846  30.658  11.534
49332W        W20861  16.675  38.045   1.012
49333W        W20862   0.859  32.583  12.559
49334W        W20863  41.058  20.468   2.924
49335W        W20864   3.403  40.929   1.815
49336W        W20865  31.875   9.711   3.868
49337W        W20866  17.144  19.323  12.813
49338W        W20867   5.185  10.361   1.659
49339W        W20868   9.305  33.558   1.836
49340W        W20869  22.971   1.781   0.908
49341W        W20870  17.629  40.264   1.760
49342W        W20871  31.883  29.757   3.654
49343W        W20872  21.636  38.287   4.395
49344W        W20873   4.360   6.742   2.289
49345W        W20874  44.327  15.880  10.748
49346W        W20875  26.499   0.982  11.551
49347W        W20876  32.944  38.573  13.362
49348W        W20877  25.320  24.432  13.593
49349W        W20878   4.213  26.644  13.012
49350W        W20879  22.144  17.532  14.793
49351W        W20880  16.789   3.440  14.406
49352W        W20881   7.370  31.506  12.213
49353W        W20882  14.815  13.125  12.556
49354W        W20883   5.488  29.974  11.580
49355W        W20884   1.951  32.328   1.284
49356W        W20885  15.519  41.206   1.367
49357W        W20886   4.417  11.969   0.413
49358W        W20887   7.175  17.908   3.474
49359W        W20888  36.577  26.208   3.626
49360W        W20889   3.423   6.741  10.500
49361W        W20890  12.250  31.472   4.877
49362W        W20891   7.235  18.706  14.843
49363W        W20892  40.806  15.799  13.879
49364W        W20893  31.894   2.539   1.489
49365W        W20894   2.937  22.798  12.161
49366W        W20895  34.620  29.054   3.593
49367W        W20896   2.307  39.533  13.849
49368W        W20897  35.273  44.439   3.267
49369W        W20898   0.441  42.827  11.003
49370W        W20899  29.969  31.766   2.761
49371W        W20900  40.492  14.545  14.396
49372W        W20901  18.603  31.018   3.314
49373W        W20902  12.427  24.226  13.848
49374W        W20903   5.376  31.190  11.155
49375W        W20904   6.162  38.491   3.674
49376W        W20905  16.161  16.361   0.429
49377W        W20906  35.388  28.079  10.919
49378W        W20907  41.083  27.623  11.925
49379W        W20908  13.306  13.777  14.263
49380W        W20909  37.761   9.931   1.786
49381W        W20910   8.189  31.479   0.031
49382W        W20911  21.427  30.619   1.374
49383W        W20912   8.351  37.104  11.108
49384W        W20913  40.589  18.726  13.378
49385W        W20914  29.492  42.516  13.937
49386W        W20915  20.197   2.490   2.369
49387W        W20916  16.286  13.781   0.431
49388W        W20917  12.825  44.887  14.311
49389W        W20918  40.501  27.679   0.344
49390W        W20919  27.304  22.063  13.316
49391W        W20920   5.292  17.985   3.675
49392W        W20921  23.143  23.132  12.441
49393W        W20922  29.127  11.620  13.414
49394W        W20923  21.307   9.287   1.188
49395W        W20924  18.697  32.396   0.887
49396W        W20925  43.553  25.275  14.627
49397W        W20926  38.983  41.017   1.942
49398W        W20927  20.133   2.157   4.574
49399W        W20928  27.634   6.540  11.408
49400W        W20929  43.763   8.204  11.596
49401W        W20930  16.390   8.273  11.131
49402W        W20931   1.529   3.351  13.968
49403W        W20932  18.695  30.434  14.796
49404W        W20933  21.108  10.666   0.060
49405W        W20934  11.187   8.227  12.952
49406W        W20935   3.718   3.727   0.412
49407W        W20936  16.119   7.261   0.386
49408W        W20937  21.593  36.131   2.989
49409W        W20938  35.309  16.250  13.088
49410W        W20939  19.013   6.504   4.198
49411W        W20940  36.658  26.123   2.639
49412W        W20941  18.536   5.958   3.149
49413W        W20942  27.002  13.411  13.384
49414W        W20943  14.619  22.539  10.658
49415W        W20944   1.433  26.126  12.441
49416W        W20945  33.018  22.565   4.782
49417W        W20946  35.552  10.189  11.148
49418W        W20947  27.542  26.709   3.363
49419W        W20948  43.537  24.684  13.071
49420W        W20949  18.772   5.805   1.836
49421W        W20950  16.585  37.272  14.961
49422W        W20951  38.323   5.784   1.875
49423W        W20952   1.144  21.425   1.755
49424W        W20953  23.106  31.597  14.909
49425W        W20954  29.089  24.566  14.899
49426W        W20955  42.419  30.451  14.581
49427W        W20956  30.209  38.173   3.664
49428W        W20957  20.717  25.562  14.037
49429W        W20958  11.889  39.418   1.280
49430W        W20959   1.785   4.519   2.318
49431W        W20960  13.089  25.153  12.561
49432W        W20961  16.428  30.143  10.383
49433W        W20962  12.673   8.871   2.839
49434W        W20963  28.613  12.112   1.905
49435W        W20964  10.630  39.225  11.650
49436W        W20965  30.888  19.290   0.931
49437W        W20966   6.171  39.039  12.167
49438W        W20967  33.457   4.579   5.247
49439W        W20968  34.773   8.852  10.202
49440W        W20969  12.775   3.717   4.561
49441W        W20970   2.900  11.168  13.067
49442W        W20971  20.306  10.417  13.458
49443W        W20972  38.625  19.208   3.194
49444W        W20973  28.102  27.458  12.414
49445W        W20974  39.056  16.228  14.390
49446W        W20975  31.966  27.311   5.526
49447W        W20976  36.502  21.386   0.466
49448W        W20977  22.534   9.712   3.685
49449W        W20978   9.450  29.658  14.335
49450W        W20979  30.896  43.374   3.859
49451W        W20980  38.493  13.618   0.993
49452W        W20981  14.674  33.882  14.995
49453W        W20982  16.213  20.686  14.940
49454W        W20983  22.612  43.022   2.808
49455W        W20984  32.934  17.785   0.822
49456W        W20985   0.752   6.853  13.335
49457W        W20986  16.588  42.809   2.255
49458W        W20987  43.196  14.297  13.679
49459W        W20988  17.186  24.649  10.978
49460W        W20989  19.506  26.566   4.426
49461W        W20990   6.188  13.317   3.279
49462W        W20991  14.174  20.792   0.464
49463W        W20992  34.183  26.862   3.717
49464W        W20993  16.167  43.973   3.714
49465W        W20994  16.314  15.592   3.166
49466W        W20995  22.797   3.649   1.214
49467W        W20996  14.752  36.032   0.884
49468W        W20997  30.660  31.406  13.316
49469W        W20998  10.834  21.416  13.484
49470W        W20999   3.643  30.172   0.778
49471W        W21000   9.885  16.180   0.819
49472W        W21001   3.960   6.199  13.797
49473W        W21002  14.822  36.818   1.874
49474W        W21003   7.025  13.556   2.852
49475W        W21004   9.225   2.467  14.381
49476W        W21005   8.738  36.854  14.473
49477W        W21006  41.919   6.375   0.330
49478W        W21007   9.803   5.896   0.741
49479W        W21008  17.095   0.970  12.685
49480W        W21009   1.722   2.929   1.695
49481W        W21010  17.678  24.755  13.024
49482W        W21011  29.191  41.037  13.344
49483W        W21012  22.928  13.253  14.013
49484W        W21013  31.624  30.094  12.432
49485W        W21014  43.509  40.368  12.543
49486W        W21015  38.337  27.152   2.859
49487W        W21016  13.743  17.300   4.730
49488W        W21017   0.327  22.769   3.149
49489W        W21018  13.913  38.522   0.002
49490W        W21019   4.438  22.308  10.746
49491W        W21020   5.928  14.409  12.642
49492W        W21021  28.505  11.630   0.659
49493W        W21022  36.597  41.244  11.924
49494W        W21023  32.358  13.247  14.591
49495W        W21024  39.315   7.113  13.043
49496W        W21025  37.166  24.946   4.725
49497W        W21026  22.568  35.073   4.708
49498W        W21027  15.061  44.725  10.817
49499W        W21028  19.131   2.164   0.301
49500W        W21029  36.268  37.789  11.938
49501W        W21030  20.798  38.486  14.356
49502W        W21031   9.650  23.476   4.188
49503W        W21032  22.719  17.111   2.088
49504W        W21033  21.557   2.821  11.300
49505W        W21034  29.029  28.835  11.458
49506W        W21035   2.568  38.797  10.522
49507W        W21036  35.292  38.531  11.726
49508W        W21037  26.037   6.236  12.119
49509W        W21038  23.203   2.248   0.511
49510W        W21039  22.280  10.290  12.437
49511W        W21040  31.961  44.542  14.839
49512W        W21041  33.639  13.392  14.721
49513W        W21042   6.118  25.991  14.497
49514W        W21043  32.430  44.610   2.344
49515W        W21044  26.512  35.886   3.163
49516W        W21045  18.528  17.047   1.471
49517W        W21046  43.634  34.677   4.209
49518W        W21047  37.062  24.698  13.462
49519W        W21048  42.240  37.021  14.436
49520W        W21049   7.181  18.680  13.809
49521W        W21050  38.938  27.467  12.488
49522W        W21051  28.285  41.938   0.063
49523W        W21052  26.087  19.623   2.958
49524W        W21053  20.003  12.135   1.390
49525W        W21054  10.215  31.325  14.886
49526W        W21055   4.440  30.703   4.563
49527W        W21056  32.408   7.120   1.664
49528W        W21057  37.579  27.185  12.761
49529W        W21058  25.905  25.972   4.080
49530W        W21059  31.073  17.547   1.595
49531W        W21060   3.457  16.431   4.753
49532W        W21061  29.031  41.630  11.423
49533W        W21062  42.113   1.714  14.022
49534W        W21063  34.073  33.809  12.559
49535W        W21064  23.782  34.920  13.807
49536W        W21065  13.780  32.017  14.356
49537W        W21066   9.368   9.188   3.113
49538W        W21067   9.856   4.059  13.952
49539W        W21068  37.065   4.928   2.779
49540W        W21069   8.431  21.659  12.978
49541W        W21070   4.627  17.741  14.422
49542W        W21071  14.078  10.925  11.774
49543W        W21072  32.533  38.312   1.266
49544W        W21073  42.529  29.578   3.288
49545W        W21074  41.829  17.569   2.234
49546W        W21075  42.357  27.004   0.319
49547W        W21076   4.742  35.001  13.645
49548W        W21077  17.044  10.613   3.919
49549W        W21078  35.331   5.315  14.764
49550W        W21079  17.175   2.296  14.953
49551W        W21080   8.740  41.268   2.937
49552W        W21081  41.826  43.339   1.319
49553W        W21082  23.080   1.857   4.289
49554W        W21083  43.053  34.103  14.898
49555W        W21084  44.667   5.340   1.303
49556W        W21085  10.947  40.262  11.530
49557W        W21086   4.854   3.038  12.282
49558W        W21087  27.187  11.515   3.065
49559W        W21088  20.008   3.183  14.925
49560W        W21089  28.507  32.037  11.777
49561W        W21090  38.914  20.647   4.117
49562W        W21091  29.593  34.834   1.805
49563W        W21092  29.975  17.519   3.407
49564W        W21093  36.183  21.196   4.164
49565W        W21094  33.218  21.797   4.136
49566W        W21095   8.276  12.924   2.134
49567W        W21096  15.314  22.126  10.834
49568W        W21097  32.488  19.173   4.422
49569W        W21098  28.071   8.515  12.922
49570W        W21099  10.727  34.658   1.462
49571W        W21100   3.461  32.572   1.394
49572W        W21101  22.717  28.948   3.719
49573W        W21102   2.877  15.572  14.990
49574W        W21103  32.557  30.043  12.899
49575W        W21104  31.317  25.819   3.145
49576W        W21105   9.127  19.996  12.589
49577W        W21106  12.449  10.129   0.669
49578W        W21107  40.549  11.220  11.630
49579W        W21108   4.912   5.808  13.831
49580W        W21109  12.867  10.579  12.244
49581W        W21110  37.386  37.774  14.926
49582W        W21111   2.152  40.555  14.801
49583W        W21112  35.868  27.494  13.061
49584W        W21113   6.113  13.334   4.107
49585W        W21114   2.343  35.141   5.006
49586W        W21115  33.913  22.590   3.201
49587W        W21116   9.138  12.336   3.550
49588W        W21117  18.350   4.249   1.745
49589W        W21118   3.852  11.735  14.057
49590W        W21119  31.164  12.739  12.447
49591W        W21120  23.460  40.494   2.865
49592W        W21121   2.246   8.561  11.552
49593W        W21122  34.507  15.213  12.989
49594W        W21123  21.442  27.608  11.441
49595W        W21124   7.693   6.174  14.815
49596W        W21125  31.837  16.995  12.537
49597W        W21126  18.242  18.336  11.882
49598W        W21127  14.669   4.911  11.132
49599W        W21128  21.130   0.801   1.814
49600W        W21129  44.997  30.227   3.569
49601W        W21130  19.664  36.312   2.185
49602W        W21131  30.471  44.135  12.037
49603W        W21132  30.134  10.285  12.627
49604W        W21133  29.394   9.173   3.260
49605W        W21134  39.650  40.057  12.128
49606W        W21135   6.609  12.687  12.050
49607W        W21136   4.022   3.613   2.109
49608W        W21137  22.188  42.756   2.671
49609W        W21138  27.508  28.547  12.610
49610W        W21139   1.835  43.823  13.967
49611W        W21140  34.268  28.462   0.352
49612W        W21141  39.359  17.512   0.891
49613W        W21142  41.010  31.913   3.958
49614W        W21143  31.583  26.553  10.760
49615W        W21144   1.483   0.280  12.112
49616W        W21145  20.480  40.517  13.845
49617W        W21146  10.736  16.820  12.987
49618W        W21147  44.487  20.498   1.310
49619W        W21148  38.421  35.217   0.758
49620W        W21149   4.748  44.340   2.552
49621W        W21150  23.705  35.167   4.735
49622W        W21151   2.491  17.655  11.616
49623W        W21152   8.408  13.124  11.465
49624W        W21153  18.807  29.110   3.624
49625W        W21154   2.998  16.189  13.807
49626W        W21155   5.611  40.793  11.979
49627W        W21156   7.287  41.852   1.746
49628W        W21157   7.039  44.202   3.570
49629W        W21158   5.208  24.204   3.765
49630W        W21159  27.185  22.773   0.406
49631W        W21160  29.528  27.563   0.540
49632W        W21161  40.068   5.672   2.703
49633W        W21162  37.485  16.258  12.962
49634W        W21163  25.531  37.000   3.135
49635W        W21164  34.493   0.077   0.328
49636W        W21165   5.174  14.553   2.317
49637W        W21166  36.176  32.168   2.694
49638W        W21167  16.219   4.485   2.592
49639W        W21168  15.092  25.806  14.312
49640W        W21169  20.091  42.402   0.240
49641W        W21170  30.091  39.602   2.334
49642W        W21171  10.245   4.006  14.277
49643W        W21172  30.546  38.615   0.808
49644W        W21173   8.672  26.900  14.395
49645W        W21174  36.912  29.453  11.503
49646W        W21175   9.426  28.388   1.804
49647W        W21176  26.216   2.818  14.308
49648W        W21177  25.116   4.431  11.168
49649W        W21178   0.386  21.792   0.545
49650W        W21179  40.468  15.081  11.157
49651W        W21180  42.862  24.384   4.733
49652W        W21181  29.971  19.005  10.939
49653W        W21182   3.403  31.139  13.568
49654W        W21183  24.666  10.200   2.483
49655W        W21184  41.530  23.941  11.585
49656W        W21185  33.989  19.104  11.173
49657W        W21186  13.984  31.306   1.377
49658W        W21187  21.167   3.342  11.212
49659W        W21188   5.723  42.644  13.329
49660W        W21189  33.931  18.953   3.421
49661W        W21190  42.239  37.328  11.104
49662W        W21191  16.101  40.265   0.356
49663W        W21192   0.183  20.602  13.031
49664W        W21193   4.298  30.335  10.190
49665W        W21194  37.473  33.874   0.270
49666W        W21195  25.550  31.833  12.906
49667W        W21196  14.289  11.202   0.529
49668W        W21197  33.369  25.398  14.493
49669W        W21198  23.806  12.380  11.500
49670W        W21199  41.479  41.840   1.396
49671W        W21200  25.304   9.422  14.257
49672W        W21201   0.339   1.207   3.359
49673W        W21202  17.711  41.966  14.012
49674W        W21203  24.044   3.217   4.700
49675W        W21204  15.353   6.868   0.216
49676W        W21205   1.263  43.519   2.390
49677W        W21206  29.621  36.574   3.297
49678W        W21207  44.634  13.102   4.082
49679W        W21208  40.983   5.238  13.099
49680W        W21209   8.431  43.933  13.156
49681W        W21210  19.086  43.462  13.552
49682W        W21211   2.161  32.042   0.909
49683W        W21212   4.972  24.705   3.673
49684W        W21213  20.106  30.586   2.244
49685W        W21214  21.536  22.544   3.111
49686W        W21215   9.099  28.158   5.056
49687W        W21216  20.008  14.325   4.168
49688W        W21217   3.099  16.542  11.611
49689W        W21218  39.433  43.260   1.384
49690W        W21219  40.797  26.223   1.308
49691W        W21220  37.585  24.832   2.442
49692W        W21221  11.712  39.488  12.016
49693W        W21222  24.168  30.266  11.623
49694W        W21223   3.691  32.676   1.858
49695W        W21224   6.828  30.699   0.267
49696W        W21225  38.139  34.898   1.080
49697W        W21226   3.017   2.897   1.353
49698W        W21227  11.405  22.621  14.134
49699W        W21228  27.092  28.899   4.584
49700W        W21229  17.657  35.621   3.793
49701W        W21230   3.484  32.702   5.136
49702W        W21231  30.545  29.623  13.877
49703W        W21232  38.581  35.946  11.198
49704W        W21233  10.381   9.182  13.364
49705W        W21234  40.526  10.907   0.796
49706W        W21235  14.274  34.265   4.404
49707W        W21236   3.430  10.298   3.265
49708W        W21237  36.943  26.481  10.314
49709W        W21238  18.591  37.923   0.687
49710W        W21239  44.449  12.090   0.218
49711W        W21240  37.900   3.460  13.470
49712W        W21241   7.410   2.224  10.586
49713W        W21242   1.856  19.821  11.978
49714W        W21243  43.709   4.790  14.427
49715W        W21244  41.480  24.074  14.130
49716W        W21245   3.809  18.068   2.215
49717W        W21246  44.888  41.614  10.729
49718W        W21247  41.685  43.222  12.832
49719W        W21248   7.838  28.260   1.580
49720W        W21249  11.289   5.487   3.199
49721W        W21250  25.959  33.864   0.788
49722W        W21251   8.916   7.918  14.386
49723W        W21252   1.867  41.297  12.521
49724W        W21253  35.281  12.574  11.943
49725W        W21254   2.626  32.913   1.736
49726W        W21255  41.350  12.582   1.903
49727W        W21256  27.968  27.631   1.943
49728W        W21257  22.962  13.576  13.058
49729W        W21258  14.127   1.866   2.838
49730W        W21259  37.637  43.065  10.406
49731W        W21260  27.079  15.846   3.429
49732W        W21261   5.184  35.953   2.150
49733W        W21262   2.418   0.882  12.485
49734W        W21263  24.654  40.496   2.378
49735W        W21264  32.666  34.834   3.150
49736W        W21265  28.211  20.154  11.930
49737W        W21266  33.003  10.095  14.114
49738W        W21267   0.657  31.444   5.093
49739W        W21268  43.610  44.907  12.197
49740W        W21269   9.160   2.501  13.286
49741W        W21270  11.774  32.368  14.428
49742W        W21271  28.557   8.421  14.143
49743W        W21272  42.881  16.817   4.921
49744W        W21273  24.891  27.884  11.357
49745W        W21274  18.553  24.394   1.454
49746W        W21275  19.216  15.785   2.865
49747W        W21276  19.780  36.542  14.909
49748W        W21277  34.541  36.052   3.972
49749W        W21278  19.709  14.022   0.704
49750W        W21279  13.397  27.204   0.018
49751W        W21280  31.947   9.289   2.873
49752W        W21281  10.182  10.550  11.165
49753W        W21282  16.947  14.581  12.057
49754W        W21283  15.010  18.209   4.393
49755W        W21284  41.278  32.098   1.403
49756W        W21285  31.474  28.019  13.796
49757W        W21286  39.126  38.916  13.922
49758W        W21287  38.817   2.486   5.157
49759W        W21288  13.151  21.475   1.724
49760W        W21289   5.322  43.279  10.918
49761W        W21290   4.259   2.654  12.135
49762W        W21291  35.350  13.347   1.257
49763W        W21292   3.880  28.598   1.666
49764W        W21293   0.033   5.278  11.093
49765W        W21294   0.547  13.760  13.787
49766W        W21295   1.801  29.437   3.196
49767W        W21296  16.360  31.055   2.863
49768W        W21297   8.725   2.201  13.107
49769W        W21298  16.262  11.832   0.391
49770W        W21299  39.546  35.780   1.725
49771W        W21300   8.044  31.115   0.597
49772W        W21301  10.562   7.283  13.596
49773W        W21302  38.736  33.470  12.953
49774W        W21303  40.565   1.466  14.936
49775W        W21304  22.373  33.254  13.657
49776W        W21305   0.952  34.112   3.913
49777W        W21306  33.680  40.008   0.387
49778W        W21307   2.596   0.406   0.252
49779W        W21308   8.379  11.306   4.277
49780W        W21309  31.123   1.370  13.034
49781W        W21310   6.115  19.570   5.025
49782W        W21311  39.507   6.698   2.129
49783W        W21312  29.539  29.222   0.802
49784W        W21313  24.645   3.722   2.839
49785W        W21314  42.902  18.821   1.246
49786W        W21315  32.488  18.778   1.305
49787W        W21316  27.066  19.129   2.436
49788W        W21317   1.028  30.895   1.937
49789W        W21318  29.021  21.775   2.438
49790W        W21319  32.335  28.144   1.013
49791W        W21320  12.344  36.516  13.525
49792W        W21321  33.891  16.260  11.573
49793W        W21322   7.799  17.098   0.741
49794W        W21323   5.839   2.275  11.722
49795W        W21324  17.837  33.350   4.690
49796W        W21325  38.438   4.014  12.502
49797W        W21326  18.089  22.238   2.404
49798W        W21327  43.361   1.086   2.637
49799W        W21328  16.087  40.338   4.620
49800W        W21329  16.181   5.649  12.172
49801W        W21330  25.774  12.318   3.224
49802W        W21331  22.718  28.082   3.045
49803W        W21332  21.489  21.234  13.500
49804W        W21333  12.089  33.545  14.812
49805W        W21334  32.119  22.407  10.401
49806W        W21335  16.232  42.644   1.857
49807W        W21336  13.612  27.381   4.776
49808W        W21337   2.802  10.387   2.812
49809W        W21338  15.759  34.848  11.035
49810W        W21339  33.367   9.807   1.849
49811W        W21340  43.377  24.124   1.265
49812W        W21341  29.208   0.330  11.575
49813W        W21342  22.637  22.084   4.080
49814W        W21343  28.567  13.343  14.409
49815W        W21344   9.920  30.091   0.819
49816W        W21345   5.828   8.194  12.425
49817W        W21346  44.844   2.194   0.464
49818W        W21347  41.408  14.853  10.410
49819W        W21348  39.030   7.713  11.663
49820W        W21349  11.327  21.331   3.425
49821W        W21350  34.567  10.904   3.784
49822W        W21351   5.575  31.423  14.715
49823W        W21352  43.210  22.597   3.653
49824W        W21353  15.753  20.660   3.851
49825W        W21354   5.285  12.643   1.754
49826W        W21355  13.931  44.741  12.060
49827W        W21356  20.812  29.998   2.138
49828W        W21357  18.154  41.166   2.729
49829W        W21358  25.222   2.249   1.451
49830W        W21359  23.744  40.435  11.659
49831W        W21360  43.067  13.395   4.702
49832W        W21361  33.585  21.015  14.821
49833W        W21362   2.351  13.848   2.722
49834W        W21363   5.297  14.735  11.117
49835W        W21364  28.600  32.981   2.068
49836W        W21365  26.933  28.986  10.730
49837W        W21366  41.411  42.511   4.058
49838W        W21367  27.438  40.041  12.112
49839W        W21368  23.200  25.224   3.605
49840W        W21369  22.444  35.017  13.074
49841W        W21370  11.077  27.620   4.161
49842W        W21371   0.800  42.975   3.278
49843W        W21372   8.350   0.512   1.728
49844W        W21373   3.134  15.920  12.782
49845W        W21374  13.758  11.582   1.749
49846W        W21375  13.074  21.988   1.804
49847W        W21376  38.709   5.228  14.433
49848W        W21377   0.312  39.094  14.300
49849W        W21378  43.393  18.717   3.133
49850W        W21379   4.323   9.804  12.376
49851W        W21380   7.293  40.346  12.602
49852W        W21381  32.907  13.980  12.577
49853W        W21382  23.218  41.346   4.852
49854W        W21383  15.179  20.763   0.062
49855W        W21384  12.556  33.047   3.232
49856W        W21385  20.798  35.898   0.830
49857W        W21386  21.537  16.169   1.384
49858W        W21387  18.671   3.275   2.238
49859W        W21388  15.334  31.284   3.828
49860W        W21389  39.319  40.719   1.171
49861W        W21390  20.030  24.248   4.499
49862W        W21391   3.817  23.486   2.818
49863W        W21392  44.374  14.520  10.424
49864W        W21393  39.311  38.272   2.324
49865W        W21394   8.761  26.668   1.872
49866W        W21395   5.949  16.740   2.755
49867W        W21396  23.512  17.794  10.931
49868W        W21397  24.693  12.869   1.202
49869W        W21398   4.053  42.413   1.265
49870W        W21399  35.393  11.908  11.175
49871W        W21400  12.810  36.861   4.304
49872W        W21401   5.358  14.442  11.585
49873W        W21402  14.210   5.981  14.528
49874W        W21403  15.038   4.622   2.337
49875W        W21404   6.516  16.671   0.007
49876W        W21405  14.797  20.314  12.513
49877W        W21406  20.011   4.117   1.160
49878W        W21407  31.175  16.652   4.202
49879W        W21408  11.556   9.562  13.926
49880W        W21409   2.373  44.367  13.300
49881W        W21410  41.732  26.405  12.941
49882W        W21411  37.247  22.179  13.480
49883W        W21412  37.838   5.675  10.780
49884W        W21413  19.620  16.240  14.319
49885W        W21414  44.465  10.303  14.895
49886W        W21415  44.250  14.842   1.659
49887W        W21416  24.220  20.108   0.767
49888W        W21417   0.940  11.400  14.265
49889W        W21418   5.809  26.464  10.906
49890W        W21419  43.396  42.442  14.763
49891W        W21420  18.117  26.931  13.433
49892W        W21421   9.640   0.892   1.075
49893W        W21422  21.060   6.341   3.089
49894W        W21423  29.312  29.432  11.122
49895W        W21424  43.471  12.136   3.258
49896W        W21425   2.859  36.389   3.728
49897W        W21426  32.032  10.267  10.849
49898W        W21427  15.112   5.191   0.862
49899W        W21428  21.032  10.625   2.296
49900W        W21429   5.628   3.415  12.498
49901W        W21430  30.050  18.083   2.472
49902W        W21431  25.089  25.022  12.828
49903W        W21432  14.852   9.879  14.258
49904W        W21433   5.781   0.393   3.930
49905W        W21434   0.779  22.621   0.153
49906W        W21435  12.162  14.635   4.489
49907W        W21436  11.063  19.965   1.348
49908W        W21437   8.839   5.791  14.936
49909W        W21438  29.621  16.525   3.470
49910W        W21439  17.721  18.730  11.512
49911W        W21440  37.515   9.091  10.289
49912W        W21441  11.101  30.025  13.508
49913W        W21442  17.183  37.318  14.200
49914W        W21443  42.285  17.632  12.926
49915W        W21444  43.910  37.000   2.356
49916W        W21445  27.926   5.845  10.234
49917W        W21446  35.653  25.486   0.763
49918W        W21447  36.305  40.501   4.152
49919W        W21448  33.959  18.015  12.389
49920W        W21449   4.402  32.057   4.164
49921W        W21450   9.882  21.888  12.965
49922W        W21451   4.435  19.182   1.183
49923W        W21452  36.914  13.891   1.328
49924W        W21453  14.126  19.173  14.764
49925W        W21454   9.848  43.362   3.584
49926W        W21455   4.399   1.244  10.699
49927W        W21456  27.145   7.112   3.813
49928W        W21457  10.220  41.728   3.658
49929W        W21458   1.506  21.191   0.203
49930W        W21459  43.897  25.476  12.479
49931W        W21460  38.997  31.058   2.377
49932W        W21461  30.338  34.896   2.779
49933W        W21462   8.121  16.890  13.855
49934W        W21463  35.003  31.373   4.542
49935W        W21464  14.364  14.765  13.599
49936W        W21465  39.496   0.843  12.079
49937W        W21466  14.289   9.760  13.580
49938W        W21467  42.325  38.134  14.849
49939W        W21468   2.809  40.055   1.738
49940W        W21469  31.432   8.859  12.855
49941W        W21470  13.119  37.270   1.662
49942W        W21471  13.324  43.478   3.369
49943W        W21472  43.146   5.406  11.068
49944W        W21473   5.385  33.114  14.037
49945W        W21474  17.581  23.654   3.621
49946W        W21475  18.616   6.829   4.192
49947W        W21476  20.371  25.680  11.144
49948W        W21477  42.715  15.628   4.159
49949W        W21478  25.920  44.861   2.762
49950W        W21479  10.254  33.992  12.022
49951W        W21480  36.031  10.665   2.867
49952W        W21481  13.411  11.731  12.938
49953W        W21482  12.629   6.223  14.842
49954W        W21483  44.526  23.228   0.302
49955W        W21484  12.250  16.199   4.470
49956W        W21485  13.811  17.375  12.920
49957W        W21486   9.290   5.323  13.811
49958W        W21487  27.535   7.015  11.566
49959W        W21488   2.947   5.880   3.442
49960W        W21489  14.451  38.667   3.727
49961W        W21490   2.857  28.950  12.771
49962W        W21491  24.559   7.493   1.683
49963W        W21492  28.711  33.597  14.821
49964W        W21493   5.102  13.637  12.027
49965W        W21494   4.471  37.117   0.987
49966W        W21495  30.411   7.401   4.581
49967W        W21496   3.204  39.335   3.134
49968W        W21497  30.528  20.017  10.597
49969W        W21498  35.107  40.640   0.303
49970W        W21499  20.790  11.352  11.567
49971W        W21500  36.959   6.779  14.280
49972W        W21501  31.025  18.491   1.866
49973W        W21502  17.237  25.598   4.191
49974W        W21503  16.165  30.131   2.662
49975W        W21504  10.852   9.149   0.798
49976W        W21505  39.000  25.035  12.073
49977W        W21506   8.361  31.484   3.638
49978W        W21507   2.303  34.085  11.812
49979W        W21508  26.439  23.170  14.342
49980W        W21509  27.507   6.631  11.956
49981W        W21510  17.538  44.906   1.400
49982W        W21511   4.874  38.341   4.182
49983W        W21512  28.781  36.570  13.839
49984W        W21513  27.383  40.970  12.027
49985W        W21514  44.045  13.533  12.122
49986W        W21515  35.499  10.797   4.671
49987W        W21516  16.257  16.191  13.401
49988W        W21517  37.385  43.959   1.415
49989W        W21518   6.037  25.475   3.682
49990W        W21519  32.107  28.184  13.317
49991W        W21520   7.506  37.347  12.558
49992W        W21521   8.915  27.928  12.022
49993W        W21522  38.876   5.367  10.137
49994W        W21523  11.840  37.118  13.011
49995W        W21524  42.508  12.654  11.648
49996W        W21525  28.443  33.516  12.880
49997W        W21526   9.754  35.573   0.924
49998W        W21527  38.737  30.722   5.148
49999W        W21528  43.986  18.724   4.646
50000W        W21529  29.000  31.353  14.381
50001W        W21530  42.940  23.852   1.135
50002W        W21531  20.252  43.990  14.810
50003W        W21532  27.679  12.212   3.655
50004W        W21533  41.419  20.527   4.634
50005W        W21534  16.069  32.174   2.216
50006W        W21535  32.741  29.218   1.728
50007W        W21536  36.382  39.655  11.074
50008W        W21537  15.669  16.242   3.629
50009W        W21538  37.912   5.687  14.407
50010W        W21539  24.601  24.988   2.284
50011W        W21540  35.607  19.224   1.359
50012W        W21541  12.671  18.991  14.858
50013W        W21542  21.531  16.738  14.786
50014W        W21543  17.538  18.524  10.665
50015W        W21544  36.816  32.053  11.376
50016W        W21545  41.421  13.027  11.234
50017W        W21546  39.016  22.753   1.299
50018W        W21547  16.323  33.820  13.463
50019W        W21548   2.965  13.291   4.087
50020W        W21549  40.269  29.033   2.282
50021W        W21550  44.887  32.920   4.990
50022W        W21551  22.689  26.427  13.314
50023W        W21552  36.001   2.681  13.909
50024W        W21553  13.231   9.119   1.206
50025W        W21554  17.609  16.068  11.984
50026W        W21555   9.320  28.105   3.844
50027W        W21556  23.585  38.925  12.837
50028W        W21557   6.207   2.921   1.779
50029W        W21558  11.800   8.326  12.137
50030W        W21559  38.386  37.379  13.308
50031W        W21560  16.984  35.580   1.858
50032W        W21561  15.986   3.741   4.060
50033W        W21562  13.287   4.836  13.487
50034W        W21563  41.239  34.114  11.588
50035W        W21564  23.058   5.871   4.706
50036W        W21565   4.925  38.091  12.514
50037W        W21566  17.068  16.429  13.758
50038W        W21567   2.013  22.839   3.642
50039W        W21568   5.227   8.179   2.175
50040W        W21569  13.810  16.375  11.960
50041W        W21570  19.113  13.017   1.731
50042W        W21571   3.782  44.541   2.869
50043W        W21572  23.544   3.691   4.030
50044W        W21573   2.198  44.997   9.988
50045W        W21574  34.524  13.974   4.779
50046W        W21575  18.726  28.681  13.143
50047W        W21576   0.280   5.837   0.967
50048W        W21577  14.086  38.865   5.011
50049W        W21578   3.280  20.517  10.688
50050W        W21579   8.484  36.708  13.176
50051W        W21580  25.580  22.498   2.628
50052W        W21581   8.566  32.537  13.424
50053W        W21582   1.122  19.808   4.288
50054W        W21583  39.533  16.725   3.856
50055W        W21584  30.661  18.128  12.600
50056W        W21585  14.404   4.025   3.302
50057W        W21586  37.201  21.051  11.182
50058W        W21587  10.842  22.152  11.649
50059W        W21588  17.611  30.709   3.318
50060W        W21589   9.581  38.978   1.430
50061W        W21590  39.475   2.308  13.267
50062W        W21591  17.581   9.609  11.305
50063W        W21592  15.064  13.822  11.952
50064W        W21593   2.534  24.372   5.113
50065W        W21594  40.603  20.084  13.933
50066W        W21595  27.994   0.508  10.955
50067W        W21596   7.768  21.993  12.467
50068W        W21597  17.822  40.855  11.365
50069W        W21598  14.111  32.656   1.766
50070W        W21599  29.443  16.362   1.387
50071W        W21600  27.263   4.755   4.350
50072W        W21601   9.079  11.662   2.445
50073W        W21602  21.765  34.401   4.486
50074W        W21603  25.079  22.221  13.491
50075W        W21604  14.665  10.944   4.771
50076W        W21605   7.638  38.029  10.930
50077W        W21606  38.458  29.535  14.467
50078W        W21607  27.260  41.002   2.231
50079W        W21608  15.561  31.996  12.143
50080W        W21609  21.500  39.985  13.844
50081W        W21610   5.883  28.696  14.984
50082W        W21611  14.541  44.268   0.376
50083W        W21612   5.866  40.889  13.819
50084W        W21613  13.594  37.637  11.204
50085W        W21614  36.510  20.747  10.680
50086W        W21615   2.919   6.179  13.764
50087W        W21616  37.180  14.146  13.090
50088W        W21617  35.685  16.191   2.911
50089W        W21618  36.657  11.330  13.604
50090W        W21619  41.008  30.543  12.318
50091W        W21620  18.244  27.734   1.418
50092W        W21621  27.523  42.796  13.901
50093W        W21622  30.121  26.407  13.855
50094W        W21623  36.520  21.588   1.924
50095W        W21624  29.696  40.799  13.452
50096W        W21625  21.784  17.018   3.720
50097W        W21626   6.205  38.884   0.737
50098W        W21627  13.374   5.299   2.349
50099W        W21628  20.022  16.790   3.268
50100W        W21629  10.414  18.770   1.939
50101W        W21630   8.336  21.193   3.544
50102W        W21631  39.451  40.266   2.374
50103W        W21632  24.300  19.089  13.952
50104W        W21633  33.777  44.295   0.286
50105W        W21634  43.850  29.265   3.183
50106W        W21635  31.410  42.420  13.598
50107W        W21636   5.259   6.982  11.084
50108W        W21637  43.818  32.557   3.126
50109W        W21638   8.226   3.734   0.225
50110W        W21639  28.466  41.325   3.794
50111W        W21640  11.118  18.062   3.324
50112W        W21641  38.852  42.291   1.038
50113W        W21642  31.108   6.495   2.336
50114W        W21643  22.677  32.818  13.675
50115W        W21644  18.858  24.982   0.955
50116W        W21645   0.963  36.994  12.948
50117W        W21646  34.404   1.754  13.840
50118W        W21647  21.256  12.206   0.067
50119W        W21648   6.450  23.159  13.957
50120W        W21649  16.844   1.577   3.795
50121W        W21650  40.297  25.317  11.644
50122W        W21651  35.426  23.964  10.711
50123W        W21652  19.689  29.904   1.895
50124W        W21653  37.499  19.213  14.336
50125W        W21654  28.810  42.210   0.856
50126W        W21655  41.325  27.414  12.328
50127W        W21656  23.629  26.927  12.024
50128W        W21657  33.098  23.239  11.962
50129W        W21658  35.004  41.793   1.756
50130W        W21659  27.892  26.555   1.353
50131W        W21660  10.357   5.493  14.506
50132W        W21661  29.143  40.530   0.542
50133W        W21662  40.059   3.307  12.631
50134W        W21663  36.380  30.682   1.694
50135W        W21664  12.312  44.869  14.063
50136W        W21665  37.073   2.872  11.919
50137W        W21666  19.664  10.412  10.777
50138W        W21667  37.136  19.043  11.953
50139W        W21668  31.292  24.578   2.104
50140W        W21669  24.087  23.754  14.992
50141W        W21670  26.732  38.535  12.034
50142W        W21671  41.411   6.087   3.399
50143W        W21672   4.849  28.530  14.291
50144W        W21673  26.699  44.154   1.226
50145W        W21674   5.525   3.168   1.217
50146W        W21675  26.550  11.305   0.553
50147W        W21676  39.543  20.097   4.707
50148W        W21677  15.308  11.538   5.369
50149W        W21678   1.424  20.180   4.011
50150W        W21679   9.892   8.816   3.681
50151W        W21680  42.543  13.732   2.272
50152W        W21681  40.913   9.809  14.718
50153W        W21682  44.775  20.198   3.649
50154W        W21683  40.536  28.653  13.783
50155W        W21684  39.205  38.050  11.697
50156W        W21685  19.986  35.424   3.101
50157W        W21686  10.347  20.099   2.196
50158W        W21687  18.696  28.166   1.442
50159W        W21688   4.827   6.887   4.390
50160W        W21689   8.903   9.974  13.270
50161W        W21690  14.713  34.420   1.445
50162W        W21691  23.187  21.783  13.491
50163W        W21692  24.515  39.016   1.486
50164W        W21693  24.139  32.021  14.933
50165W        W21694  30.548  19.263  13.077
50166W        W21695  21.177  34.120   2.351
50167W        W21696  36.365  33.497   1.017
50168W        W21697  34.837  36.752   2.935
50169W        W21698   1.523  38.319  14.658
50170W        W21699  32.181  11.587   2.289
50171W        W21700  37.748  26.098   4.432
50172W        W21701  13.153  40.044  12.413
50173W        W21702  24.573   0.478  12.648
50174W        W21703  23.443  24.804  13.920
50175W        W21704  29.302  19.191  14.515
50176W        W21705  20.290   8.489   3.864
50177W        W21706  43.341  18.379  12.586
50178W        W21707  26.742  25.720   3.227
50179W        W21708  27.052  32.085  14.530
50180W        W21709  19.575   2.631  11.465
50181W        W21710  26.102  18.711  14.257
50182W        W21711   0.693   0.078  13.460
50183W        W21712  24.641  33.827   3.217
50184W        W21713  39.567  24.186  11.698
50185W        W21714  20.202  18.735   0.783
50186W        W21715  34.460  41.857  14.061
50187W        W21716   2.864  30.432   2.693
50188W        W21717  17.631  11.709  14.874
50189W        W21718   2.578   4.360   0.634
50190W        W21719  34.529  14.661   4.807
50191W        W21720  21.653  13.647  13.504
50192W        W21721  39.973  11.639   3.743
50193W        W21722  36.295  41.382  13.335
50194W        W21723   9.465  44.891  14.825
50195W        W21724   1.363  16.538   2.673
50196W        W21725  21.660  20.092   4.488
50197W        W21726  22.032  25.882   0.290
50198W        W21727  24.054  44.350  13.465
50199W        W21728  41.855  20.265   1.712
50200W        W21729  35.446  31.733  14.753
50201W        W21730  22.486  17.135   4.522
50202W        W21731  42.380  28.729   0.252
50203W        W21732  13.129  41.755   3.725
50204W        W21733  10.672  10.820  13.525
50205W        W21734   8.797   7.275  11.118
50206W        W21735  42.871   1.864   1.894
50207W        W21736  18.668  31.246  10.992
50208W        W21737  39.208  32.969   2.186
50209W        W21738  11.277  37.254   1.873
50210W        W21739  33.977  15.837   4.070
50211W        W21740   1.952  31.595  14.304
50212W        W21741  33.072   3.981  12.114
50213W        W21742  44.321  25.549   1.949
50214W        W21743  44.356  31.807  10.364
50215W        W21744  24.295  10.806   4.505
50216W        W21745   5.991  29.877   1.760
50217W        W21746  37.956   5.328   2.419
50218W        W21747  40.759  33.151   2.360
50219W        W21748  21.254  32.740  14.838
50220W        W21749   5.454  43.034   3.171
50221W        W21750  32.370  13.383  12.086
50222W        W21751  23.103  35.571  10.696
50223W        W21752  38.914  29.015  13.920
50224W        W21753  22.306  27.070   4.653
50225W        W21754  43.247  25.168   1.481
50226W        W21755  26.574   6.512  13.151
50227W        W21756  35.958  23.999   4.516
50228W        W21757  15.147  37.584   0.390
50229W        W21758  13.784  32.421  14.009
50230W        W21759  10.103  11.698   4.960
50231W        W21760  10.615  39.474  11.155
50232W        W21761  17.276  33.337  10.405
50233W        W21762  43.059  34.949  13.882
50234W        W21763  28.410  18.079   0.401
50235W        W21764  24.215  28.808  12.371
50236W        W21765  41.803   7.261  14.518
50237W        W21766  29.630  41.787   3.608
50238W        W21767  39.905  21.410  14.811
50239W        W21768   2.837  13.581  14.994
50240W        W21769  17.493  14.045  13.426
50241W        W21770  40.455  33.628  10.694
50242W        W21771  37.106  44.554   4.272
50243W        W21772  35.343  31.450   1.715
50244W        W21773  42.244  38.378  10.792
50245W        W21774  15.076  11.190  14.771
50246W        W21775  25.673  44.822  10.393
50247W        W21776   1.447  11.654   1.448
50248W        W21777  27.650  17.181   2.373
50249W        W21778  35.084  24.386   0.400
50250W        W21779  20.590   0.938  14.487
50251W        W21780  39.450  13.246   0.041
50252W        W21781  38.299  16.275  12.028
50253W        W21782  34.077  40.281   4.496
50254W        W21783  31.840  18.170   2.140
50255W        W21784  39.382   1.365  12.107
50256W        W21785  20.279  24.276  11.570
50257W        W21786  10.842  39.399   3.415
50258W        W21787  23.273  39.569   0.691
50259W        W21788  10.382   3.947  13.346
50260W        W21789  29.221  30.576   1.461
50261W        W21790   2.726  44.769   0.012
50262W        W21791  25.611  17.995  10.193
50263W        W21792  17.216  33.659   1.877
50264W        W21793  25.659  32.130  10.574
50265W        W21794  12.420  14.628   1.513
50266W        W21795   0.295   9.296  10.715
50267W        W21796   3.139  12.220  11.167
50268W        W21797  18.457  24.244   5.124
50269W        W21798  18.029   3.768   4.839
50270W        W21799  12.604  42.824  12.459
50271W        W21800   4.360  18.125  14.206
50272W        W21801  44.271  25.117  10.370
50273W        W21802   0.667  11.650  11.662
50274W        W21803  32.990  22.970   2.949
50275W        W21804  26.046   3.821   2.851
50276W        W21805   2.273  16.263   3.967
50277W        W21806  13.185  35.306  10.949
50278W        W21807  11.788  30.599   2.101
50279W        W21808   5.289  31.986   2.121
50280W        W21809   7.404   5.835  14.021
50281W        W21810   8.885  35.121   4.847
50282W        W21811  30.603   9.401  11.344
50283W        W21812   1.049  41.920   0.698
50284W        W21813  27.941  36.663  11.687
50285W        W21814  30.165   1.255  13.010
50286W        W21815  21.086   6.171  10.810
50287W        W21816   0.286  35.941  10.512
50288W        W21817   4.712  24.193  11.422
50289W        W21818  22.984   8.219  10.577
50290W        W21819  34.071  36.189  14.317
50291W        W21820  28.613  28.857   1.146
50292W        W21821  18.991  20.511   0.508
50293W        W21822  44.471   6.400   2.297
50294W        W21823   5.371  35.242  13.648
50295W        W21824  35.923  19.402   1.743
50296W        W21825  16.200  15.106   4.456
50297W        W21826   5.935  40.990  11.176
50298W        W21827  20.723   1.732   3.826
50299W        W21828  34.050  28.333  11.590
50300W        W21829   0.943  33.115  12.499
50301W        W21830  37.138  35.538   1.728
50302W        W21831  26.487  31.003  14.951
50303W        W21832  34.774   4.301  13.752
50304W        W21833  29.562  14.694   3.125
50305W        W21834  10.347  15.818   0.521
50306W        W21835  36.794  20.032  12.523
50307W        W21836  44.366  18.502   1.458
50308W        W21837   3.108  44.251   1.282
50309W        W21838  11.703  36.489  12.050
50310W        W21839  44.794   8.103   0.260
50311W        W21840  27.350  44.440  12.002
50312W        W21841  44.022  39.758   3.333
50313W        W21842  29.683  16.807   1.879
50314W        W21843  10.360  34.998   1.436
50315W        W21844   2.219   2.771   1.768
50316W        W21845  22.995  15.718   1.724
50317W        W21846  34.956  35.741  10.643
50318W        W21847  15.386   7.720   5.045
50319W        W21848  40.346   0.906  11.549
50320W        W21849  15.828  43.769  13.517
50321W        W21850  18.441  27.703   0.117
50322W        W21851  40.036  13.222  12.554
50323W        W21852  14.171  30.874  12.898
50324W        W21853   7.911  32.427   0.824
50325W        W21854  20.582  38.260  14.774
50326W        W21855  10.901  29.053  14.036
50327W        W21856  40.276  33.431   4.677
50328W        W21857  23.595  25.670   0.840
50329W        W21858  42.099   2.944   3.890
50330W        W21859  41.744   7.059   1.871
50331W        W21860   6.661   6.782  11.508
50332W        W21861  44.866  18.789  11.525
50333W        W21862  11.173  44.956  11.190
50334W        W21863   0.378  42.175   3.218
50335W        W21864  30.533   4.727  13.366
50336W        W21865  14.533  43.910   2.022
50337W        W21866  31.031  22.789  12.630
50338W        W21867  34.617  39.010   0.278
50339W        W21868  22.278  23.635   4.900
50340W        W21869  44.494  27.172  10.758
50341W        W21870   6.229  14.593  12.088
50342W        W21871   6.875  17.524   4.254
50343W        W21872   2.763  27.543  10.983
50344W        W21873  20.195  29.664   4.095
50345W        W21874  41.333   5.955  13.887
50346W        W21875  26.402  10.167  11.055
50347W        W21876  42.498  27.951  11.863
50348W        W21877  28.160   1.038  13.337
50349W        W21878  32.433   0.758   0.818
50350W        W21879  34.656  38.725  12.226
50351W        W21880   5.876  43.247  12.454
50352W        W21881  36.367  31.688  13.290
50353W        W21882  27.184  27.847  10.700
50354W        W21883  32.129  22.452   3.718
50355W        W21884  40.087  14.237  10.884
50356W        W21885   6.861  36.942  14.486
50357W        W21886  39.847  20.595  11.313
50358W        W21887  32.901  38.871   2.713
50359W        W21888  10.223  38.089   4.289
50360W        W21889  20.542  26.189   2.759
50361W        W21890  32.874  21.391   4.097
50362W        W21891   2.005   1.934   2.337
50363W        W21892  40.364   2.908  13.351
50364W        W21893  36.921   4.996   4.720
50365W        W21894  41.161   7.843  13.358
50366W        W21895  17.806  20.330   5.650
50367W        W21896   0.244  11.160   2.238
50368W        W21897  38.788  43.893  11.981
50369W        W21898  19.543  32.127  14.765
50370W        W21899  16.956  23.646   5.306
50371W        W21900   7.502  37.515   1.912
50372W        W21901  38.393   8.027   3.615
50373W        W21902  41.319   4.962  13.923
50374W        W21903  36.476  44.805  12.729
50375W        W21904  10.152  14.670  12.452
50376W        W21905  17.208   8.885  14.987
50377W        W21906   3.928  31.426   2.823
50378W        W21907   2.420  27.647  12.435
50379W        W21908  31.219   6.848   0.703
50380W        W21909   1.980   4.702   1.484
50381W        W21910   8.535  19.234   5.144
50382W        W21911  37.938   7.067   2.208
50383W        W21912   3.182  15.321  11.362
50384W        W21913  24.099  37.887   2.501
50385W        W21914  24.922  12.261  11.991
50386W        W21915  27.315   7.582   2.831
50387W        W21916  14.780  32.899   4.740
50388W        W21917   0.503  19.700  12.092
50389W        W21918  10.313  17.203   3.685
50390W        W21919  20.419  16.595   2.311
50391W        W21920  39.579  17.129   4.652
50392W        W21921   0.306  33.699  12.709
50393W        W21922   0.033  11.290  14.042
50394W        W21923  33.144  29.987   1.684
50395W        W21924  10.101  28.567   1.223
50396W        W21925  35.603  16.774   1.274
50397W        W21926  26.470  12.108   1.226
50398W        W21927  43.466  22.064   1.662
50399W        W21928  13.101  28.154   0.309
50400W        W21929  35.496   0.453  13.469
50401W        W21930  37.776  25.511  12.373
50402W        W21931  32.591  16.701   0.388
50403W        W21932  10.978   9.573   2.120
50404W        W21933  32.980  40.037   3.156
50405W        W21934  10.364  40.082   2.917
50406W        W21935  21.729  20.442  13.531
50407W        W21936  21.094   1.390  13.181
50408W        W21937  25.529  37.998   2.693
50409W        W21938   5.974   9.296   4.351
50410W        W21939  22.235  42.037  14.347
50411W        W21940  31.107  30.142  14.468
50412W        W21941  24.641  10.073  14.996
50413W        W21942  26.698  41.061  11.023
50414W        W21943  41.333  24.011   4.710
50415W        W21944  18.097  44.553  14.097
50416W        W21945  35.829   2.527   4.789
50417W        W21946  35.660   5.215   4.192
50418W        W21947  22.796  15.289  10.850
50419W        W21948  20.978  23.500  12.889
50420W        W21949  14.177   9.373  11.054
50421W        W21950  13.228  20.715   0.424
50422W        W21951  11.675  37.305   1.204
50423W        W21952  14.093  40.282  11.696
50424W        W21953   3.650  24.980   4.677
50425W        W21954  23.086  32.243   4.956
50426W        W21955  23.718  29.190   3.637
50427W        W21956   6.142   1.074   0.263
50428W        W21957  30.024  36.295   3.688
50429W        W21958  32.045   5.397  12.359
50430W        W21959  21.072  14.149  11.962
50431W        W21960  16.729   0.467  13.935
50432W        W21961  19.710  30.860  11.163
50433W        W21962  39.980  26.649   4.416
50434W        W21963  28.931  15.307   5.080
50435W        W21964  27.302  12.756  13.237
50436W        W21965  34.517  42.484  11.075
50437W        W21966   2.379   7.367  13.844
50438W        W21967  33.796   0.764  14.840
50439W        W21968  35.176  43.100   3.229
50440W        W21969  29.128  16.602  10.634
50441W        W21970   5.270  37.900  13.386
50442W        W21971  13.457  13.489  11.906
50443W        W21972   3.790   1.045  14.380
50444W        W21973  28.471   5.230  10.696
50445W        W21974  16.720  24.665  12.967
50446W        W21975  27.637  40.294   0.377
50447W        W21976   5.304  36.879  14.438
50448W        W21977  27.985   8.011   1.908
50449W        W21978  21.228  43.273  13.415
50450W        W21979  36.590  23.170  11.538
50451W        W21980  36.928   7.311  13.521
50452W        W21981  38.317   9.795   0.083
50453W        W21982  24.177  22.194  11.210
50454W        W21983   5.171  29.863   2.853
50455W        W21984  23.160   7.698  13.952
50456W        W21985  22.656  28.554  12.422
50457W        W21986  27.008   3.305   3.676
50458W        W21987  30.492  10.534  10.565
50459W        W21988  25.206  25.713  11.203
50460W        W21989  26.844  18.038   2.736
50461W        W21990  30.384  11.304   0.439
50462W        W21991  15.624  28.163  13.925
50463W        W21992  14.773  37.449   9.987
50464W        W21993  44.562   5.347   2.772
50465W        W21994  13.195  20.714   4.127
50466W        W21995  15.017  20.079  10.510
50467W        W21996   2.979  26.127   4.123
50468W        W21997  13.351   9.718   2.406
50469W        W21998  12.730  25.729  13.972
50470W        W21999  13.711   2.744   0.409
50471W        W22000   7.512  32.703   1.044
50472W        W22001  22.903  31.443   2.638
50473W        W22002  12.093   8.671   0.392
50474W        W22003  35.156  36.354   2.884
50475W        W22004  20.133  33.796   0.308
50476W        W22005  24.191  21.597   0.463
50477W        W22006  33.396  11.125  13.401
50478W        W22007   4.825  16.319  12.122
50479W        W22008  10.045  40.521  11.668
50480W        W22009  10.302  13.203   2.908
50481W        W22010  34.505  35.075   4.838
50482W        W22011   3.599  26.659   3.596
50483W        W22012   6.867  15.792   3.709
50484W        W22013  44.326   0.335   2.358
50485W        W22014   2.423   3.321  14.550
50486W        W22015  28.586   0.377   1.792
50487W        W22016  24.511  11.128   2.968
50488W        W22017  19.304  33.613   3.415
50489W        W22018  41.075   2.808  14.402
50490W        W22019  34.052   7.985   2.686
50491W        W22020   8.368  10.762  12.717
50492W        W22021  27.186  22.214   4.565
50493W        W22022  30.050  27.481   9.838
50494W        W22023   2.683   2.544   1.824
50495W        W22024  27.221  20.108  11.073
50496W        W22025  27.980   4.749   4.988
50497W        W22026  14.248  22.127   2.599
50498W        W22027  30.644  43.842   0.918
50499W        W22028  20.151  15.540   3.721
50500W        W22029  35.049  15.214   3.725
50501W        W22030  27.637  17.607   2.861
50502W        W22031  34.016   8.175  13.027
50503W        W22032   2.052  13.928  13.017
50504W        W22033  29.749   6.704   4.990
50505W        W22034  24.443  23.617  13.572
50506W        W22035  43.048   2.702  14.354
50507W        W22036  39.014  15.213  12.757
50508W        W22037   6.333   0.688  12.530
50509W        W22038  29.220  16.141  14.360
50510W        W22039  30.566  39.951  14.879
50511W        W22040   6.047  18.021   4.279
50512W        W22041  35.559  24.535  14.592
50513W        W22042  13.239   0.519   5.004
50514W        W22043  39.793  31.104   1.718
50515W        W22044  29.644  40.326  11.132
50516W        W22045  43.968  30.596  14.290
50517W        W22046  43.708   8.218   1.696
50518W        W22047   6.718   4.254   2.766
50519W        W22048  23.193  32.190   3.579
50520W        W22049   3.934  27.666   0.030
50521W        W22050   0.029  22.837  14.452
50522W        W22051  34.052  26.188   2.369
50523W        W22052  36.322  12.717  10.583
50524W        W22053  14.225  33.180  13.835
50525W        W22054   8.293   6.363   3.402
50526W        W22055  13.281   3.714   1.191
50527W        W22056  35.070  19.572   3.103
50528W        W22057  13.120  33.537   4.237
50529W        W22058  11.222  29.701  14.869
50530W        W22059   5.409  25.108  10.644
50531W        W22060  23.831  16.311   0.281
50532W        W22061   1.682   7.485   3.663
50533W        W22062  32.587  16.488  11.562
50534W        W22063  37.961  21.192  11.628
50535W        W22064  39.055  10.156   0.316
50536W        W22065  28.639   9.155  14.864
50537W        W22066  14.773  13.200  11.654
50538W        W22067  23.449  40.123   4.591
50539W        W22068   5.485  39.325   0.748
50540W        W22069  26.456  17.739   3.654
50541W        W22070  27.538  34.774  10.688
50542W        W22071  28.684  35.218  12.511
50543W        W22072  20.631  17.463  14.354
50544W        W22073  32.941  32.016   1.263
50545W        W22074   0.712  41.900  14.801
50546W        W22075  22.616  36.092   9.793
50547W        W22076  25.019  29.448  13.050
50548W        W22077  36.981  21.036   2.646
50549W        W22078  18.339  34.984   1.039
50550W        W22079  25.018  20.536   1.805
50551W        W22080  16.657  32.988   3.817
50552W        W22081  10.681  36.396   3.940
50553W        W22082  40.815   4.288   4.018
50554W        W22083   6.058  23.555  11.627
50555W        W22084  43.100  41.381  14.901
50556W        W22085  39.453  42.516   4.566
50557W        W22086  12.862  39.465   3.668
50558W        W22087  25.399  26.055   4.806
50559W        W22088  26.553  38.849   3.097
50560W        W22089   7.272  32.985   0.236
50561W        W22090  23.472  19.135  12.075
50562W        W22091   4.620  39.153  14.465
50563W        W22092  38.356   5.387  14.858
50564W        W22093  19.032  11.896  12.857
50565W        W22094  29.394  30.073  11.212
50566W        W22095  17.190  34.378   0.599
50567W        W22096  36.550   4.784  12.983
50568W        W22097  41.904  31.645   4.468
50569W        W22098   1.785  23.457   0.969
50570W        W22099   0.905   5.936  11.905
50571W        W22100  42.288  11.710  11.555
50572W        W22101  27.729  32.529  11.967
50573W        W22102  25.984   7.731   2.410
50574W        W22103   2.249  39.061   0.693
50575W        W22104  26.951  13.315   0.700
50576W        W22105  43.682   1.237   0.075
50577W        W22106  28.418  15.253  13.584
50578W        W22107  23.551  14.212  13.347
50579W        W22108  41.490  41.390   4.858
50580W        W22109  26.831  21.549  11.589
50581W        W22110  11.099   8.482  12.423
50582W        W22111   4.232  16.776   1.997
50583W        W22112   6.299  22.724  14.821
50584W        W22113  27.269  12.585   0.061
50585W        W22114  11.666  21.527   1.761
50586W        W22115  15.339   2.323  13.920
50587W        W22116  35.604  37.366   0.345
50588W        W22117  28.984   0.761  10.545
50589W        W22118  33.758  23.776  13.658
50590W        W22119  33.126  38.256  13.017
50591W        W22120   4.409  43.020  13.500
50592W        W22121  25.131  33.694   1.341
50593W        W22122  13.934  18.940  12.687
50594W        W22123  35.540   2.070   4.048
50595W        W22124  15.633  16.779   0.546
50596W        W22125  36.886  40.907   2.102
50597W        W22126  41.485  26.859   5.100
50598W        W22127  30.669  34.401   1.337
50599W        W22128  22.480  34.605  11.175
50600W        W22129  27.740  36.990  10.903
50601W        W22130  37.160  39.885  11.360
50602W        W22131  17.217  18.789  11.594
50603W        W22132  17.448  30.439   2.916
50604W        W22133   6.309   1.075  11.585
50605W        W22134  42.013  44.858   2.374
50606W        W22135  44.083  34.940   0.038
50607W        W22136   0.954  23.983  12.011
50608W        W22137  33.396  35.039   3.211
50609W        W22138  25.090   5.716  13.392
50610W        W22139  16.156   4.381   1.634
50611W        W22140  16.529  14.551  11.119
50612W        W22141  13.166  13.664   4.831
50613W        W22142  29.882   1.846   4.217
50614W        W22143  35.362  43.557  13.993
50615W        W22144  26.655  24.250  13.760
50616W        W22145   7.752  29.978  14.630
50617W        W22146  26.595  30.851  10.883
50618W        W22147   1.672   7.703  13.380
50619W        W22148  18.292   6.792  12.602
50620W        W22149  18.206  18.890   1.352
50621W        W22150  22.970  30.177  10.768
50622W        W22151   2.549  14.976   1.843
50623W        W22152  21.165   4.398   3.685
50624W        W22153  27.479  16.729   1.329
50625W        W22154  10.809  19.247  13.041
50626W        W22155  10.825   3.700   4.035
50627W        W22156  42.874   4.162  11.124
50628W        W22157  44.248  18.801   1.031
50629W        W22158  41.812   5.906   3.108
50630W        W22159  25.699  10.846  11.733
50631W        W22160  25.736  31.871  10.085
50632W        W22161  40.929  26.096   3.332
50633W        W22162   0.776  21.058   1.766
50634W        W22163  30.750  41.369   2.182
50635W        W22164  14.678  24.751   4.589
50636W        W22165   1.921  13.535   1.202
50637W        W22166  16.139  10.141  13.050
50638W        W22167  16.422  30.071   1.862
50639W        W22168  23.409  34.800  10.568
50640W        W22169   8.883   3.403   4.100
50641W        W22170   4.595  12.793  14.928
50642W        W22171  28.914   7.884   2.382
50643W        W22172   1.016  19.692   0.498
50644W        W22173  43.888  35.210   5.109
50645W        W22174  12.724  34.164   1.218
50646W        W22175   7.396  39.883   3.838
50647W        W22176   6.206  40.247   1.137
50648W        W22177  36.797  31.031  13.055
50649W        W22178  32.313   6.227   4.629
50650W        W22179   3.707  41.046   4.636
50651W        W22180  20.767  20.683  14.454
50652W        W22181  37.917  36.198   0.446
50653W        W22182  17.071   7.363   2.733
50654W        W22183  40.739   0.912   1.680
50655W        W22184   9.377   7.309   4.158
50656W        W22185  32.567   2.495   1.233
50657W        W22186  21.027  13.164  10.610
50658W        W22187  16.230  43.807  12.467
50659W        W22188  36.225   6.954   5.073
50660W        W22189  31.960  44.308   2.151
50661W        W22190  25.280  19.239   3.731
50662W        W22191  34.395  22.258   1.615
50663W        W22192  40.907   1.506   4.085
50664W        W22193  17.980  20.524   0.310
50665W        W22194  10.119  16.742   1.899
50666W        W22195  40.990  12.161  11.495
50667W        W22196  11.376  40.518  14.817
50668W        W22197   1.927  24.957   0.832
50669W        W22198   5.103  41.941   0.209
50670W        W22199  24.274  19.581   1.446
50671W        W22200  44.260  34.821   4.545
50672W        W22201   7.155  28.382  12.495
50673W        W22202  23.222  30.449   1.714
50674W        W22203   1.338  22.195  13.901
50675W        W22204  27.602   9.740  10.626
50676W        W22205   3.882  16.163   4.621
50677W        W22206   4.684  41.286  12.593
50678W        W22207  11.702  39.404  13.507
50679W        W22208  27.167  30.165   4.380
50680W        W22209  14.384  11.684  11.170
50681W        W22210  43.851  34.293  13.965
50682W        W22211  20.960  13.103   1.438
50683W        W22212   3.206   2.760  11.503
50684W        W22213  42.109  12.780   4.021
50685W        W22214  16.007  15.831  12.134
50686W        W22215  26.620  13.427  12.455
50687W        W22216   7.268  40.123   1.322
50688W        W22217  30.629  36.740  13.375
50689W        W22218  35.836   6.298  14.772
50690W        W22219   5.357  16.326  12.082
50691W        W22220  24.512   1.354  14.632
50692W        W22221  23.678  17.718  10.455
50693W        W22222  25.184  29.083  14.784
50694W        W22223   4.674   8.899   4.036
50695W        W22224  15.118  39.912   2.427
50696W        W22225   0.931  25.387   3.688
50697W        W22226   0.253  16.552  13.560
50698W        W22227  17.288   4.171  14.468
50699W        W22228   0.933  21.273   2.203
50700W        W22229  10.761  24.605  11.640
50701W        W22230  25.056  28.186   0.497
50702W        W22231  13.378  21.687  14.099
50703W        W22232  34.865   6.205   4.236
50704W        W22233   3.895  31.380   4.771
50705W        W22234  33.031   5.975  14.328
50706W        W22235  38.702  11.103   3.339
50707W        W22236  28.876  34.510  12.013
50708W        W22237  32.381  32.832  11.538
50709W        W22238  43.726  42.933  12.897
50710W        W22239   9.371   3.295   0.465
50711W        W22240  25.654  42.379   1.480
50712W        W22241  38.566  23.250  11.580
50713W        W22242  16.650  30.675  11.036
50714W        W22243  17.567  39.102  12.299
50715W        W22244   5.885   0.779  11.547
50716W        W22245  19.891  18.208   3.188
50717W        W22246  14.731  21.146  11.860
50718W        W22247  11.657  11.586  11.624
50719W        W22248  14.245  21.045   0.943
50720W        W22249  13.235  19.620   1.089
50721W        W22250  41.282   6.746  12.498
50722W        W22251  15.279  43.342  11.819
50723W        W22252  40.947  14.243  11.119
50724W        W22253  41.987  16.737   2.714
50725W        W22254  10.674   5.011  10.627
50726W        W22255  15.099  23.257  12.530
50727W        W22256  44.261  26.662   0.664
50728W        W22257  33.908  43.954  12.378
50729W        W22258  21.994  12.077   2.013
50730W        W22259  20.308  41.032   3.231
50731W        W22260   2.092  35.721  13.489
50732W        W22261  35.992  36.506   0.283
50733W        W22262  27.134  44.495  13.345
50734W        W22263   6.633   2.097  14.968
50735W        W22264  26.058  11.212  13.028
50736W        W22265  30.398  36.984   2.100
50737W        W22266  15.830  39.728   1.139
50738W        W22267   3.188   7.923   0.114
50739W        W22268  10.062  39.933   0.639
50740W        W22269  19.006  37.323   3.877
50741W        W22270  16.293  16.274   1.992
50742W        W22271   2.234   5.753   3.613
50743W        W22272  22.255  33.004   1.344
50744W        W22273  39.561  36.877   0.771
50745W        W22274  41.290  28.942   3.232
50746W        W22275   3.723  17.508   3.105
50747W        W22276  30.403   8.350  13.502
50748W        W22277  38.025  38.309  10.455
50749W        W22278   7.261  41.693   1.255
50750W        W22279  40.846   9.966   2.756
50751W        W22280  12.893  37.770   4.065
50752W        W22281  14.785  37.687   0.016
50753W        W22282  31.293  22.938  12.108
50754W        W22283  39.752  34.888   4.610
50755W        W22284  39.811  26.997   1.315
50756W        W22285  11.374   6.381  10.906
50757W        W22286  34.957  22.204  10.293
50758W        W22287   1.267   8.449   0.509
50759W        W22288   3.991   8.913  11.997
50760W        W22289  41.044  15.575   0.117
50761W        W22290  42.031  10.544   0.045
50762W        W22291  29.032  26.626   0.665
50763W        W22292  30.173   6.182  13.596
50764W        W22293  38.452  16.230  12.591
50765W        W22294  19.692   2.273  11.123
50766W        W22295  23.270  13.645   3.739
50767W        W22296  25.645  19.083   4.107
50768W        W22297  16.798   1.154   4.627
50769W        W22298  26.192  26.474  13.020
50770W        W22299  15.403  10.305  12.437
50771W        W22300  42.841  29.076   0.167
50772W        W22301  20.864   4.191   1.491
50773W        W22302   2.431  27.177  14.049
50774W        W22303  24.260  29.241   4.524
50775W        W22304  12.167  24.212  13.311
50776W        W22305  26.615  40.040  13.630
50777W        W22306  39.917  22.578   2.731
50778W        W22307  29.077  33.482   2.438
50779W        W22308  30.496   5.212   0.221
50780W        W22309  29.599  39.861   0.213
50781W        W22310   8.056  23.586  13.659
50782W        W22311  23.541  25.742  11.567
50783W        W22312  10.304  20.359   3.156
50784W        W22313   7.980  40.935   0.743
50785W        W22314  28.478  27.872   2.854
50786W        W22315  29.125  34.351  11.581
50787W        W22316  33.396  14.554   3.173
50788W        W22317  41.913  14.643   1.880
50789W        W22318  35.387   2.338   4.557
50790W        W22319  18.298   7.680  13.001
50791W        W22320   3.206  35.469   3.160
50792W        W22321  26.169  18.052   0.447
50793W        W22322  20.112  44.844   3.865
50794W        W22323  27.177  34.271  14.363
50795W        W22324  14.725  13.223   4.610
50796W        W22325  34.715   4.247  12.045
50797W        W22326  29.586   5.699  11.189
50798W        W22327   0.853   9.876  11.712
50799W        W22328  13.170  41.649  11.566
50800W        W22329  37.930  30.064  13.385
50801W        W22330  34.544   0.213   3.182
50802W        W22331  19.962  24.804   0.688
50803W        W22332   4.593  38.808  11.199
50804W        W22333  26.659  37.103   2.687
50805W        W22334  40.972  39.264   3.625
50806W        W22335   3.809   8.555  13.926
50807W        W22336   8.762  25.947  10.675
50808W        W22337   4.922  25.803   2.002
50809W        W22338   4.918  35.459  13.460
50810W        W22339  23.200  19.336  11.394
50811W        W22340  36.981  10.220  11.422
50812W        W22341  24.735  22.300   0.239
50813W        W22342   5.038  25.685   3.781
50814W        W22343   4.402  26.528  12.350
50815W        W22344  38.636  24.672   1.214
50816W        W22345  44.570  10.393   2.278
50817W        W22346   5.500  19.279  11.951
50818W        W22347  35.029  43.287  13.283
50819W        W22348  20.088  35.987  14.092
50820W        W22349  13.921  30.476  14.815
50821W        W22350   7.776   8.145  11.677
50822W        W22351  31.357  30.561  13.399
50823W        W22352  16.158  16.478   4.743
50824W        W22353  34.563  28.333  11.187
50825W        W22354  43.456  26.216   0.005
50826W        W22355  26.792  34.057  11.661
50827W        W22356  38.416  13.108   0.388
50828W        W22357  29.072  44.952  14.844
50829W        W22358  42.615  12.849   4.120
50830W        W22359  16.101  31.709   0.932
50831W        W22360  15.903  43.770  12.997
50832W        W22361   9.325  35.829   0.798
50833W        W22362   6.968   0.307   1.792
50834W        W22363  44.444  26.301   4.286
50835W        W22364   2.794  17.814   4.446
50836W        W22365  28.273   4.725  11.576
50837W        W22366  31.044  38.093   2.064
50838W        W22367  31.488   4.188  13.477
50839W        W22368   0.582  31.837  14.878
50840W        W22369  38.527   2.463  14.210
50841W        W22370  25.802  28.023  12.814
50842W        W22371  36.995  40.349  11.710
50843W        W22372  38.807   5.300   2.993
50844W        W22373  40.958   7.759  10.703
50845W        W22374  14.411  26.590   3.222
50846W        W22375  34.936  32.333   0.312
50847W        W22376  28.072  17.901  11.127
50848W        W22377  14.162  24.556   2.375
50849W        W22378  21.209  38.901   1.858
50850W        W22379  13.383  28.080   2.082
50851W        W22380  29.527  43.613  10.937
50852W        W22381  37.305  32.428  11.463
50853W        W22382  42.799  27.593   0.604
50854W        W22383   6.321  40.367  13.477
50855W        W22384  43.070  15.737  13.494
50856W        W22385   7.278   8.172   1.149
50857W        W22386   2.313  44.477  10.591
50858W        W22387   1.079  15.621  13.208
50859W        W22388  12.146  18.079   0.432
50860W        W22389  23.021  32.484  10.460
50861W        W22390  18.146   0.934  11.531
50862W        W22391  39.451  21.230   0.007
50863W        W22392   5.796   4.764   0.716
50864W        W22393  10.580   4.853  13.894
50865W        W22394  13.359  35.373   3.839
50866W        W22395   7.411  14.777   2.884
50867W        W22396  32.040  43.958   3.591
50868W        W22397  25.496  31.455   2.605
50869W        W22398   8.806  23.722   4.467
50870W        W22399   7.265  29.300  13.482
50871W        W22400  16.886   9.131   0.916
50872W        W22401  29.126   5.336   1.212
50873W        W22402  30.583  39.109   1.271
50874W        W22403  26.508  22.049  12.458
50875W        W22404  40.869  10.535   0.930
50876W        W22405  16.294  15.704   2.356
50877W        W22406  33.333  39.163   2.681
50878W        W22407   9.135  42.400   1.287
50879W        W22408  13.683   8.703  12.914
50880W        W22409   4.272  44.697   4.059
50881W        W22410  22.654  19.584   2.422
50882W        W22411  13.079  22.956   2.681
50883W        W22412   0.324   8.134  14.332
50884W        W22413  41.520  26.391  14.521
50885W        W22414  23.773  22.063   2.276
50886W        W22415   9.300   2.374   0.238
50887W        W22416  22.092  32.408  11.418
50888W        W22417   8.260  20.405   0.516
50889W        W22418  10.835  40.139   0.752
50890W        W22419  25.004  15.454  14.343
50891W        W22420  40.449  25.107  11.206
50892W        W22421   1.059  21.466  12.549
50893W        W22422  44.235  28.568   9.814
50894W        W22423   1.754  13.435  14.733
50895W        W22424  10.737  40.960  13.375
50896W        W22425  22.243  14.123   4.542
50897W        W22426   7.725  11.492  12.961
50898W        W22427   0.398   4.016   4.143
50899W        W22428  33.638  16.566   0.171
50900W        W22429  28.548  31.488   1.681
50901W        W22430  39.999  29.573  11.667
50902W        W22431   9.644   5.430  14.835
50903W        W22432   4.626  38.554  11.960
50904W        W22433   6.730  21.322   4.833
50905W        W22434   3.804  43.452   3.025
50906W        W22435  23.502  23.756   0.212
50907W        W22436  13.390  20.418   0.878
50908W        W22437   2.330  44.261   4.256
50909W        W22438   7.379   0.604  11.641
50910W        W22439  26.585   8.741  10.733
50911W        W22440  16.036  13.240   3.770
50912W        W22441   0.963  36.695   3.719
50913W        W22442  23.477  17.142  14.858
50914W        W22443  39.146  29.087  13.472
50915W        W22444  26.616  44.390   0.746
50916W        W22445  25.927  34.406  13.118
50917W        W22446  37.271  29.845  12.189
50918W        W22447  13.288  30.854  11.437
50919W        W22448  14.740  41.404  11.058
50920W        W22449   5.297  35.557  11.651
50921W        W22450  20.565  31.373   1.970
50922W        W22451  13.036  32.649   1.508
50923W        W22452  28.390  28.525   1.944
50924W        W22453  19.210  39.066  10.119
50925W        W22454   8.063   5.064  12.032
50926W        W22455  32.962   3.711   4.870
50927W        W22456  26.132  22.692   4.820
50928W        W22457  41.310  33.500  14.796
50929W        W22458  37.564   8.384   3.327
50930W        W22459  14.179  43.363   4.479
50931W        W22460  44.433   7.270  11.447
50932W        W22461  43.851   4.030   2.644
50933W        W22462   0.752  14.236  13.791
50934W        W22463  41.525   8.244  13.565
50935W        W22464  39.320  27.630  11.552
50936W        W22465  32.628  40.805   3.422
50937W        W22466  21.246  27.667  13.523
50938W        W22467  38.085  33.254  13.491
50939W        W22468  20.809  40.963   1.716
50940W        W22469  15.561  43.463   3.674
50941W        W22470  26.243  44.911   3.746
50942W        W22471  25.408  27.981   0.825
50943W        W22472   4.129  15.815  12.475
50944W        W22473  19.136  43.305  10.721
50945W        W22474  31.131   4.732   3.660
50946W        W22475  26.927  15.768  12.754
50947W        W22476  41.191  19.561   3.536
50948W        W22477  35.123   3.823  14.828
50949W        W22478  20.262  34.450  12.434
50950W        W22479   9.739  25.250  14.479
50951W        W22480  10.300  44.627   3.748
50952W        W22481   3.486  26.965   3.182
50953W        W22482  15.514  12.535  12.006
50954W        W22483  30.462  36.998   3.395
50955W        W22484   5.580  14.923  11.493
50956W        W22485  13.356  21.515   3.222
50957W        W22486  19.155   4.738   1.275
50958W        W22487  40.581  37.966  13.650
50959W        W22488   5.860  32.981  11.639
50960W        W22489   5.766  20.792   3.788
50961W        W22490  19.065  22.656  10.693
50962W        W22491  25.134   3.773   3.209
50963W        W22492  26.723  26.469  11.620
50964W        W22493  20.307  38.328   0.232
50965W        W22494  44.212  39.268   0.682
50966W        W22495  17.709  18.722   1.353
50967W        W22496  41.988  17.448  13.671
50968W        W22497  31.123  26.161   3.895
50969W        W22498  33.132  24.001   3.760
50970W        W22499  21.334  36.917  10.314
50971W        W22500   5.778  38.413  13.997
50972W        W22501   8.152  29.176   5.029
50973W        W22502  23.978  31.454  10.742
50974W        W22503  41.669  32.655  10.748
50975W        W22504  11.155  17.533  10.419
50976W        W22505   9.535  27.452  10.897
50977W        W22506  42.321  29.454   0.846
50978W        W22507  30.245  20.696   2.849
50979W        W22508   2.326  31.361   2.238
50980W        W22509  26.535  10.898  11.478
50981W        W22510  32.376  29.426  10.072
50982W        W22511  17.286   2.436   1.346
50983W        W22512  14.190   5.665  11.615
50984W        W22513  20.629  24.455  13.441
50985W        W22514  32.036  13.336  11.695
50986W        W22515  34.172  44.413  12.452
50987W        W22516  39.085  35.193  13.853
50988W        W22517  26.016  23.175  12.209
50989W        W22518  16.699   8.825   0.006
50990W        W22519  29.040  18.984  12.024
50991W        W22520  35.132  44.993  11.164
50992W        W22521  17.482  44.853  14.973
50993W        W22522  39.187  38.831  12.147
50994W        W22523   2.023  14.863   1.955
50995W        W22524  40.630  23.909  13.867
50996W        W22525   7.762  41.514  12.668
50997W        W22526  20.739  10.864   4.607
50998W        W22527   5.265  39.923  11.608
50999W        W22528  18.163  39.410   1.434
51000W        W22529  12.086  20.818  11.869
51001W        W22530  29.128  12.670  14.725
51002W        W22531  44.234  33.434  11.380
51003W        W22532  44.517  36.962  13.815
51004W        W22533  18.630  29.682   1.292
51005W        W22534  39.820   1.332  13.367
51006W        W22535   2.886  13.210  10.458
51007W        W22536  26.056  17.295  10.693
51008W        W22537  18.538  22.821  12.292
51009W        W22538  16.546  21.048  11.201
51010W        W22539   4.371   8.156  12.081
51011W        W22540  41.969  17.292  13.172
51012W        W22541  25.575   7.710   0.561
51013W        W22542  22.215  37.472   0.392
51014W        W22543   0.965  36.457   5.049
51015W        W22544  16.216  31.069  14.821
51016W        W22545  27.000  20.064   0.734
51017W        W22546  28.035  20.643  12.004
51018W        W22547   3.451  22.204  14.555
51019W        W22548  44.280  23.781   2.169
51020W        W22549  31.014  22.074   0.382
51021W        W22550  44.484  25.177   0.347
51022W        W22551  13.110   5.424  12.874
51023W        W22552  20.251  38.589   3.195
51024W        W22553  24.278  35.641  14.795
51025W        W22554   7.621  39.574   2.225
51026W        W22555  11.786   4.761  13.250
51027W        W22556  11.857  39.476   3.908
51028W        W22557  37.924  20.248  12.672
51029W        W22558  39.000  17.658  12.462
51030W        W22559  37.012  24.940  12.999
51031W        W22560   7.621  17.115  13.892
51032W        W22561  36.927  32.429   3.120
51033W        W22562  33.520  28.608  11.741
51034W        W22563  28.480  18.157   1.721
51035W        W22564   4.983  10.807  10.158
51036W        W22565   9.368  10.893  11.621
51037W        W22566  38.540  29.805  10.271
51038W        W22567  23.450  11.596  11.151
51039W        W22568  30.081  33.891  11.150
51040W        W22569  27.064  42.877   2.271
51041W        W22570   3.291  21.214  12.100
51042W        W22571  14.663  28.626  14.769
51043W        W22572   3.696  26.519   0.811
51044W        W22573  34.289   3.956  12.005
51045W        W22574  35.944  14.696   0.910
51046W        W22575  17.654  37.602  13.334
51047W        W22576  40.023   9.061  13.506
51048W        W22577  40.567  36.528  11.521
51049W        W22578  30.746  18.149   3.225
51050W        W22579  35.599   4.698   3.337
51051W        W22580  35.664   5.225  10.949
51052W        W22581  44.287  27.802   1.353
51053W        W22582  29.413  35.561  12.946
51054W        W22583   3.392   6.334  14.522
51055W        W22584  39.315  33.095  11.900
51056W        W22585   7.055  39.682  14.253
51057W        W22586  26.531  30.864   4.065
51058W        W22587  10.587   2.460   0.939
51059W        W22588  25.188  36.103  14.702
51060W        W22589  23.228   6.303  13.972
51061W        W22590  11.902  18.613   1.788
51062W        W22591  27.513  44.914  12.118
51063W        W22592   3.393  37.843   2.846
51064W        W22593  37.677  43.926   2.379
51065W        W22594  13.104   1.039   1.266
51066W        W22595  31.643  10.330   2.679
51067W        W22596  37.562  38.060  12.521
51068W        W22597  38.786  24.741  11.612
51069W        W22598  44.983   9.276  12.946
51070W        W22599  44.208  35.644  12.059
51071W        W22600  25.593  28.128   4.097
51072W        W22601  28.157  29.973   1.918
51073W        W22602   4.726  37.089   1.724
51074W        W22603  24.406   2.314  14.378
51075W        W22604   6.559  28.988  14.365
51076W        W22605  26.664  30.943  12.450
51077W        W22606  17.786  23.074  10.664
51078W        W22607  24.952   2.525   1.805
51079W        W22608  27.028  36.612   2.226
51080W        W22609   2.533  36.894   1.679
51081W        W22610   4.212  13.135  14.043
51082W        W22611   9.413  23.579   2.775
51083W        W22612  30.504  36.128  10.696
51084W        W22613   8.251  26.657  11.017
51085W        W22614  11.618  23.559   4.048
51086W        W22615  41.520  42.518  13.498
51087W        W22616  36.156  43.497   2.878
51088W        W22617  44.535  17.729  13.375
51089W        W22618  36.332  40.360   3.316
51090W        W22619  24.187   7.221  13.513
51091W        W22620  32.344  37.451   0.489
51092W        W22621  21.939  27.366   4.433
51093W        W22622  34.058  41.790  11.129
51094W        W22623  13.134   9.695  10.715
51095W        W22624  17.762  36.616   1.215
51096W        W22625  25.445  20.202  11.450
51097W        W22626  39.056   4.755   4.138
51098W        W22627  13.558  19.236   1.923
51099W        W22628   5.157  40.533  10.819
51100W        W22629  44.725   2.501   1.801
51101W        W22630  27.891  38.935   3.460
51102W        W22631   9.942   5.637   3.234
51103W        W22632  31.558   2.951   1.734
51104W        W22633  15.959   8.288   4.538
51105W        W22634  21.030  25.074  11.384
51106W        W22635  34.437  22.642  14.798
51107W        W22636  41.790  15.225  10.402
51108W        W22637   5.278  34.867  11.047
51109W        W22638   2.926  40.870  10.670
51110W        W22639  37.422  20.556  12.900
51111W        W22640  37.102  27.735  10.730
51112W        W22641  31.183  11.239  13.828
51113W        W22642  24.108  27.901   3.358
51114W        W22643  41.466   0.457  14.855
51115W        W22644  26.658   0.969  14.825
51116W        W22645  13.322  39.034  11.624
51117W        W22646  22.709   8.328  14.425
51118W        W22647  26.221  39.996  10.436
51119W        W22648  33.327  28.575  10.861
51120W        W22649   8.592  39.340   2.294
51121W        W22650   4.421  28.051   4.652
51122W        W22651   4.603  31.604  11.007
51123W        W22652  22.309  43.074   4.155
51124W        W22653   2.507   7.364   1.952
51125W        W22654  30.078   9.725   2.900
51126W        W22655  29.650  36.455  13.505
51127W        W22656  15.210   8.901   0.763
51128W        W22657  23.741   3.640  12.110
51129W        W22658  34.894  38.961  10.582
51130W        W22659  33.090   5.151   4.109
51131W        W22660  10.361  21.598  11.864
51132W        W22661   4.775  44.853   0.839
51133W        W22662  42.420  21.254  14.553
51134W        W22663  33.953   7.182  14.630
51135W        W22664   7.649  37.075   2.212
51136W        W22665  11.652  41.821  14.397
51137W        W22666   7.112  14.022  12.895
51138W        W22667   2.857  39.932   0.673
51139W        W22668  31.385   7.589   0.038
51140W        W22669  33.183  20.835   5.221
51141W        W22670  43.331  23.508   2.629
51142W        W22671  15.508  29.069  11.119
51143W        W22672  14.572  27.147  11.884
51144W        W22673  27.607   9.848   4.892
51145W        W22674  33.498  12.289   2.790
51146W        W22675  34.912  33.805   2.558
51147W        W22676  42.342  36.537   4.434
51148W        W22677  22.710  31.678   3.339
51149W        W22678  40.346  32.876   4.813
51150W        W22679  39.925  40.021  12.585
51151W        W22680  17.602  19.316  14.124
51152W        W22681  19.264   3.354  14.350
51153W        W22682  20.814  32.420  12.094
51154W        W22683   3.838   9.299  12.335
51155W        W22684  42.471  21.131  13.777
51156W        W22685  21.991  11.142   2.444
51157W        W22686  15.682  12.275  14.537
51158W        W22687  43.426  17.270  10.918
51159W        W22688  11.804  40.923  12.381
51160W        W22689  13.254  31.968  10.663
51161W        W22690  14.272  32.190  14.225
51162W        W22691  31.732  15.773  11.673
51163W        W22692  31.393  27.562   4.203
51164W        W22693   9.341  13.420  12.454
51165W        W22694  18.032  24.662   0.788
51166W        W22695  25.803  17.027   4.115
51167W        W22696  27.494  21.879  14.331
51168W        W22697  34.148   1.669  12.106
51169W        W22698   6.455  28.227   4.563
51170W        W22699  23.935   6.764  13.431
51171W        W22700  36.468  43.855   3.060
51172W        W22701  36.358  32.675  10.682
51173W        W22702  34.472   2.581   4.522
51174W        W22703  39.584  37.509   2.741
51175W        W22704  44.887   2.930   3.429
51176W        W22705  25.608  23.517   2.210
51177W        W22706  23.385  31.418  13.900
51178W        W22707   6.886   6.070   1.751
51179W        W22708  37.411  31.302   2.393
51180W        W22709  29.057  38.794  14.190
51181W        W22710  24.242   1.260  12.897
51182W        W22711  44.263  15.353   4.573
51183W        W22712  30.575  32.367  14.423
51184W        W22713  25.582   1.396   1.872
51185W        W22714  30.533  37.171  11.658
51186W        W22715  22.308  21.245  11.113
51187W        W22716  34.470  24.245   3.240
51188W        W22717  28.057  18.123  14.832
51189W        W22718  40.303   7.256   2.027
51190W        W22719  44.432   4.312   3.073
51191W        W22720  23.702  21.768  13.470
51192W        W22721  21.967   1.186   2.412
51193W        W22722  39.358  41.927   4.612
51194W        W22723  42.405  19.187   4.900
51195W        W22724  14.190   5.100  13.383
51196W        W22725  31.520  40.323   3.574
51197W        W22726  20.525   7.136  10.577
51198W        W22727  19.218   6.881  11.578
51199W        W22728  25.256  44.804  13.448
51200W        W22729  13.816  31.611  12.893
51201W        W22730  29.392  12.746   1.816
51202W        W22731  43.304  32.041   4.777
51203W        W22732   7.258   4.693   0.901
51204W        W22733  40.474  34.130  14.884
51205W        W22734  37.079  13.170  12.071
51206W        W22735  37.838  29.025   0.765
51207W        W22736   3.423  39.585  12.913
51208W        W22737  14.386  24.664  10.554
51209W        W22738  36.437  22.580   0.767
51210W        W22739   8.202  13.600   4.352
51211W        W22740  29.978   5.724  13.445
51212W        W22741  28.959   5.317   2.543
51213W        W22742  41.302  17.112  13.942
51214W        W22743  22.788   2.915   0.416
51215W        W22744  40.540  35.482   2.222
51216W        W22745   2.768  25.920   4.558
51217W        W22746  19.336  30.530   4.089
51218W        W22747  39.237  13.440  13.321
51219W        W22748  26.211  12.096   3.420
51220W        W22749  26.637  34.805  10.816
51221W        W22750  14.782   7.363   2.286
51222W        W22751   4.479   5.459  13.829
51223W        W22752  25.925   5.955   1.744
51224W        W22753  35.156  21.947   0.582
51225W        W22754  40.944  42.583  12.018
51226W        W22755  33.104  30.071   2.522
51227W        W22756  12.582  19.925  14.915
51228W        W22757  15.501  25.557   0.164
51229W        W22758  28.319  20.970   2.692
51230W        W22759  29.816  13.191  11.067
51231W        W22760  42.963  29.074   1.383
51232W        W22761  16.832  25.096  13.746
51233W        W22762  25.478  41.748  10.712
51234W        W22763  38.891   9.163   4.714
51235W        W22764  13.069  16.606   2.751
51236W        W22765  31.571   6.256   2.422
51237W        W22766  34.006   0.887   2.777
51238W        W22767  35.847  13.414   3.544
51239W        W22768  21.960  37.652   3.770
51240W        W22769  34.906   7.958   4.872
51241W        W22770  15.658  14.352   4.584
51242W        W22771  16.649  21.214   2.787
51243W        W22772  33.948  42.618   1.502
51244W        W22773   0.254  24.487  13.028
51245W        W22774  43.410   6.381   2.716
51246W        W22775  19.862  20.873   4.061
51247W        W22776  15.038  28.743   3.254
51248W        W22777  23.715  23.237   0.810
51249W        W22778  35.885  15.881   3.344
51250W        W22779  18.109  11.817   3.608
51251W        W22780  31.025  44.373   2.723
51252W        W22781   2.748   1.453  10.772
51253W        W22782  35.503   0.476  10.482
51254W        W22783  39.391  32.898   1.317
51255W        W22784   2.974  30.031  14.832
51256W        W22785  27.609  11.318  11.175
51257W        W22786   7.412   3.421  10.754
51258W        W22787   8.803  27.154  13.931
51259W        W22788  35.804  25.526   2.351
51260W        W22789  21.065  29.954  12.945
51261W        W22790  32.002  28.618   3.169
51262W        W22791  42.551  17.150  10.862
51263W        W22792  38.830  25.675  10.700
51264W        W22793  35.491  42.575  12.084
51265W        W22794  34.667  20.537  10.329
51266W        W22795   2.835  20.272  13.344
51267W        W22796  16.348  25.191  12.383
51268W        W22797  35.658   2.379   2.279
51269W        W22798  44.510  38.011   4.152
51270W        W22799  14.222  44.263  14.078
51271W        W22800  29.625  27.168   4.959
51272W        W22801  35.565  26.626  14.597
51273W        W22802  17.856  32.599  14.371
51274W        W22803  44.824  25.767   3.628
51275W        W22804  31.008   4.174  13.995
51276W        W22805  13.870   9.177   1.733
51277W        W22806  25.980  34.766  11.482
51278W        W22807  37.901  16.251  14.417
51279W        W22808  11.951   0.325   3.784
51280W        W22809  15.068  22.323   3.590
51281W        W22810  44.969  27.102   4.614
51282W        W22811   1.849  14.598  11.071
51283W        W22812  43.153   4.320  13.078
51284W        W22813   9.983  17.673  10.199
51285W        W22814  28.211   6.282  13.681
51286W        W22815  28.436  30.420   1.732
51287W        W22816  29.957  37.974  11.293
51288W        W22817  15.321  19.663  12.419
51289W        W22818  15.386   8.294   0.036
51290W        W22819  12.509  12.310   0.791
51291W        W22820  28.568  26.442   4.681
51292W        W22821  27.042  24.980  10.982
51293W        W22822  38.681  36.885   4.291
51294W        W22823  30.523  16.503  14.875
51295W        W22824  13.329   0.710  13.934
51296W        W22825  32.444  21.611   2.909
51297W        W22826  35.386  22.275  14.698
51298W        W22827   8.699   9.873  11.312
51299W        W22828  35.852   3.267   3.151
51300W        W22829  39.400  26.774  12.938
51301W        W22830  15.609   5.774   1.431
51302W        W22831  39.405  14.316   2.409
51303W        W22832  12.108  42.464  14.018
51304W        W22833  14.769   4.745   2.784
51305W        W22834  14.082  36.098  12.450
51306W        W22835  25.509  33.953  14.308
51307W        W22836  31.445  22.076  13.067
51308W        W22837  16.846  27.468  13.034
51309W        W22838  37.565  31.012  13.537
51310W        W22839  29.727  40.489  12.579
51311W        W22840  44.700  18.532  13.465
51312W        W22841  31.494  43.138   4.257
51313W        W22842   8.256  23.548  14.184
51314W        W22843   5.207  38.080   2.716
51315W        W22844  18.179  43.471  11.625
51316W        W22845  41.771  25.220  14.256
51317W        W22846  44.473  31.744  13.481
51318W        W22847  10.463  10.087   0.998
51319W        W22848  28.166  27.113   0.678
51320W        W22849   1.847  39.919  10.821
51321W        W22850  28.540  35.989   1.602
51322W        W22851  12.106   5.486  13.537
51323W        W22852  11.638  12.762   5.055
51324W        W22853  19.623  14.386  12.515
51325W        W22854  14.725  41.759  12.153
51326W        W22855  41.542  23.677  12.023
51327W        W22856  43.772   1.520  14.205
51328W        W22857   8.408  21.046   1.316
51329W        W22858  28.231  33.073   0.321
51330W        W22859   4.489  40.864   0.733
51331W        W22860  13.180  23.307   0.446
51332W        W22861  20.892   3.413   3.915
51333W        W22862  13.142   3.402  11.130
51334W        W22863  22.020  24.984   4.811
51335W        W22864  38.555  44.673  10.786
51336W        W22865   9.087   5.874  10.768
51337W        W22866  34.072  36.856  10.611
51338W        W22867  30.014  29.529   4.047
51339W        W22868  10.358  31.485   4.543
51340W        W22869  24.289  37.128   4.465
51341W        W22870   9.416  25.015  13.878
51342W        W22871  37.850  40.091  13.027
51343W        W22872  34.069  27.103  11.697
51344W        W22873  23.960  32.602  13.542
51345W        W22874  23.020   9.577  14.833
51346W        W22875  26.472  24.758   4.860
51347W        W22876  40.674   8.186  13.818
51348W        W22877  20.823  31.927  13.760
51349W        W22878  12.623  22.442  13.530
51350W        W22879  31.734  35.948   2.801
51351W        W22880  22.813  24.876  12.674
51352W        W22881  22.046  40.955  12.843
51353W        W22882  20.730  25.494  14.549
51354W        W22883  24.400  29.409   0.218
51355W        W22884  32.489  38.294   4.307
51356W        W22885   8.288  33.908  14.641
51357W        W22886  39.835  40.609   2.294
51358W        W22887  11.203   8.098   0.387
51359W        W22888  14.781  12.390   4.179
51360W        W22889  26.014  14.054  11.705
51361W        W22890  16.734   5.212  13.963
51362W        W22891  24.799  32.687  14.783
51363W        W22892  13.105  17.743   3.513
51364W        W22893   1.583  13.663  12.969
51365W        W22894  29.935  24.883   3.549
51366W        W22895  19.915  39.205  11.197
51367W        W22896  32.329  31.603   4.637
51368W        W22897  34.087  32.514   4.816
51369W        W22898   0.905   8.760   1.243
51370W        W22899  37.347  36.264  14.989
51371W        W22900  14.194  26.650  12.140
51372W        W22901  42.405   5.905   3.806
51373W        W22902  23.993  16.802  12.131
51374W        W22903   0.962  40.726  11.127
51375W        W22904  44.510  17.189  13.566
51376W        W22905  34.640  12.992  10.942
51377W        W22906   2.038  30.610  11.096
51378W        W22907   3.313  35.256  10.969
51379W        W22908  15.237  19.355   3.576
51380W        W22909  28.942   3.975  11.882
51381W        W22910  31.638  18.053  14.423
51382W        W22911  13.635  30.641  13.268
51383W        W22912   1.824  21.202  13.604
51384W        W22913   8.836  43.944   4.696
51385W        W22914  30.375  31.252  13.775
51386W        W22915   4.909  15.381  14.277
51387W        W22916  12.899  16.960   3.083
51388W        W22917  29.878  41.972   2.921
51389W        W22918  30.549  41.108   1.785
51390W        W22919  27.838  21.035  14.591
51391W        W22920  21.072  36.012  14.395
51392W        W22921  25.475  21.949   4.699
51393W        W22922   2.377   9.084   0.327
51394W        W22923  10.616  25.248   4.113
51395W        W22924  16.662  17.782  13.254
51396W        W22925   3.687  15.938   1.783
51397W        W22926   1.460  24.068   3.203
51398W        W22927  16.041  12.195  13.314
51399W        W22928   7.378  12.787   1.754
51400W        W22929  14.440  21.567  11.659
51401W        W22930   5.276  11.837   0.386
51402W        W22931   3.784  16.859  14.622
51403W        W22932  13.062  33.131  14.412
51404W        W22933  43.788  22.765   1.243
51405W        W22934  33.158  31.580  10.937
51406W        W22935  20.242  42.246   2.606
51407W        W22936  24.971  17.782   4.687
51408W        W22937  22.243   1.598  14.986
51409W        W22938  12.425  17.595  11.537
51410W        W22939  19.491  24.230   1.822
51411W        W22940  22.663  27.862   2.112
51412W        W22941  42.938  30.158   2.076
51413W        W22942  30.142   8.775  12.465
51414W        W22943   6.480  31.054   1.538
51415W        W22944  37.629  40.290  13.488
51416W        W22945   7.369   8.438   0.688
51417W        W22946  11.691  23.501  12.964
51418W        W22947  28.932  44.226   3.669
51419W        W22948  32.939  40.113   1.343
51420W        W22949  36.427  32.184  10.586
51421W        W22950   5.122  33.227   3.235
51422W        W22951  38.035  22.102  13.790
51423W        W22952  25.651  24.212  11.368
51424W        W22953   2.685   3.036  13.576
51425W        W22954   8.592  36.389  13.570
51426W        W22955  26.570  30.833  11.408
51427W        W22956   0.229   2.819  12.811
51428W        W22957  15.769  25.018   2.244
51429W        W22958  22.679  22.017  14.764
51430W        W22959  22.512  30.929   0.459
51431W        W22960   1.794  33.828  11.990
51432W        W22961  39.251   4.923   3.123
51433W        W22962  42.111  17.563  12.450
51434W        W22963  40.848  20.521   2.452
51435W        W22964   2.536   4.255   4.131
51436W        W22965  12.070  25.559   1.875
51437W        W22966  15.601  38.023   3.209
51438W        W22967  16.255  37.094   2.218
51439W        W22968  10.271  16.048   2.606
51440W        W22969  24.745  32.485  12.055
51441W        W22970  38.420  32.054   4.065
51442W        W22971  30.065  41.350  12.953
51443W        W22972  21.518   6.099  11.692
51444W        W22973   1.619  18.138   4.622
51445W        W22974  32.510  34.519  12.713
51446W        W22975  36.796  26.571   2.839
51447W        W22976   6.127   2.370  13.984
51448W        W22977  42.902  21.750   9.976
51449W        W22978  19.743   5.586   3.615
51450W        W22979  15.429  19.810  13.964
51451W        W22980  17.344  33.603  12.615
51452W        W22981  32.532   8.730   2.904
51453W        W22982   3.892  30.522  11.472
51454W        W22983   9.882   1.193   2.613
51455W        W22984  18.573   0.273   3.319
51456W        W22985  24.492  21.651   4.547
51457W        W22986  28.242  17.987  12.506
51458W        W22987  11.721  43.518  13.395
51459W        W22988   9.103  42.121  12.493
51460W        W22989  20.112  14.190   0.075
51461W        W22990  21.679  33.297   0.813
51462W        W22991  37.548  32.011   2.949
51463W        W22992  26.523  33.584  14.274
51464W        W22993  18.136  43.044  12.594
51465W        W22994  41.889  14.102  14.081
51466W        W22995  28.872  15.123  11.443
51467W        W22996   3.800  28.703   1.162
51468W        W22997  27.845   9.803  12.581
51469W        W22998  24.706  12.927   0.318
51470W        W22999  32.465  10.772  12.011
51471W        W23000  18.108  18.869   3.154
51472W        W23001   2.472   0.708   3.299
51473W        W23002  37.882  23.479   2.258
51474W        W23003  39.517  43.046  14.798
51475W        W23004  34.940  28.377  12.056
51476W        W23005  23.462  34.363  12.009
51477W        W23006   6.684  14.173   4.518
51478W        W23007  18.405  40.002  10.203
51479W        W23008  34.394  26.534  10.987
51480W        W23009  19.779   7.767   3.866
51481W        W23010  44.412  13.070  13.916
51482W        W23011  22.740  44.488  14.340
51483W        W23012   1.731  19.511  11.551
51484W        W23013  18.802  38.286  13.441
51485W        W23014  25.093   4.705  13.304
51486W        W23015  33.486  29.936   4.258
51487W        W23016  34.528  15.691  14.312
51488W        W23017  44.012  40.250  12.422
51489W        W23018   4.924  17.127   4.627
51490W        W23019  34.505   5.282   1.915
51491W        W23020  21.688  25.111  10.471
51492W        W23021   3.321  11.849   1.742
51493W        W23022  40.354  12.563  14.455
51494W        W23023  28.061  14.425   1.335
51495W        W23024  25.423  34.674   1.279
51496W        W23025  32.325  41.972   2.218
51497W        W23026  13.085  39.051  13.623
51498W        W23027  38.341   4.318   3.838
51499W        W23028  44.307  10.380  12.479
51500W        W23029   6.468   8.183  13.393
51501W        W23030  25.466   6.257  10.914
51502W        W23031  32.195   0.440   4.516
51503W        W23032  16.242  21.980  12.955
51504W        W23033   8.796  29.224  11.010
51505W        W23034  42.737   4.261  10.281
51506W        W23035  15.467   7.075  10.635
51507W        W23036  27.049   3.799   2.897
51508W        W23037  35.428  26.271  11.054
51509W        W23038  37.360  14.639  12.945
51510W        W23039  39.935  26.138  12.029
51511W        W23040  44.887  15.309   0.425
51512W        W23041   5.374  37.785  10.925
51513W        W23042  17.157  33.851   2.345
51514W        W23043  20.676  25.989   1.905
51515W        W23044  19.276  20.830  11.019
51516W        W23045  30.025  10.823  11.339
51517W        W23046  11.893  18.447  12.034
51518W        W23047  35.453  40.893  13.970
51519W        W23048  12.670  13.521   1.333
51520W        W23049  14.247  24.893   3.868
51521W        W23050  34.663  10.811  11.528
51522W        W23051  30.904  24.469   1.811
51523W        W23052  37.211  17.763   2.314
51524W        W23053  31.701  42.249  14.017
51525W        W23054  20.459  38.338   4.950
51526W        W23055  27.441  42.456   1.323
51527W        W23056  36.374  11.806   4.237
51528W        W23057  11.466  19.558   2.303
51529W        W23058  29.303  13.231  14.754
51530W        W23059  11.704  17.684  12.889
51531W        W23060  40.377   5.415   0.253
51532W        W23061  39.440  21.040   3.194
51533W        W23062  13.227  19.058   2.798
51534W        W23063  35.506  20.487  14.326
51535W        W23064   6.179  14.798   2.437
51536W        W23065  36.777   4.900  12.526
51537W        W23066  44.718  40.545   1.330
51538W        W23067  30.547  43.774   3.825
51539W        W23068  14.732  38.399  13.379
51540W        W23069  23.978  42.912   0.867
51541W        W23070  22.223   2.887   1.879
51542W        W23071  14.102  14.689  11.723
51543W        W23072  26.391  33.453   1.439
51544W        W23073  44.413   3.437   0.167
51545W        W23074  19.068  40.266   2.663
51546W        W23075  25.514  32.366   2.729
51547W        W23076  37.086  32.990   2.266
51548W        W23077  30.904  17.099  11.614
51549W        W23078  18.625  40.431  13.546
51550W        W23079  18.376  26.508   2.397
51551W        W23080  40.227  34.498  12.999
51552W        W23081   0.366  23.906  11.553
51553W        W23082  10.241  19.010  10.716
51554W        W23083   3.745  18.771   4.753
51555W        W23084  32.226  40.935  12.552
51556W        W23085  37.458  30.790   2.353
51557W        W23086  44.277  32.144  12.018
51558W        W23087   3.413  22.691   0.765
51559W        W23088  42.706  18.312  11.552
51560W        W23089  12.121  21.488  11.562
51561W        W23090  36.604  28.075   0.511
51562W        W23091  43.587  34.197   4.941
51563W        W23092   1.134  43.266  11.742
51564W        W23093  31.923  12.837  10.775
51565W        W23094   9.844   7.161   1.957
51566W        W23095  23.947  39.046  11.440
51567W        W23096  42.505  37.022  12.447
51568W        W23097  27.710  41.980   3.980
51569W        W23098   2.697  26.199   2.777
51570W        W23099  43.493  10.716   2.910
51571W        W23100   7.207  43.483   2.407
51572W        W23101  20.040  11.597   1.320
51573W        W23102   8.630  26.027   3.699
51574W        W23103  34.724  39.175   4.145
51575W        W23104  14.916  21.113  13.441
51576W        W23105  20.487  12.822  13.547
51577W        W23106  21.506   8.329  11.963
51578W        W23107  32.018  27.417  10.216
51579W        W23108  40.132  28.485  14.058
51580W        W23109  40.965  20.010   3.771
51581W        W23110  16.375   2.823  13.371
51582W        W23111  26.899  24.085  10.972
51583W        W23112   5.241  13.324   1.433
51584W        W23113   5.689  26.712   3.969
51585W        W23114  12.307  28.936  10.613
51586W        W23115   5.471   4.192   4.137
51587W        W23116  17.742  25.684   4.850
51588W        W23117   3.744  19.217  11.133
51589W        W23118  23.050   8.389   3.283
51590W        W23119  43.775  44.484   0.469
51591W        W23120   9.397  25.803  12.122
51592W        W23121  32.700  23.095  13.721
51593W        W23122   3.427   8.756   2.375
51594W        W23123  31.923  35.902  12.421
51595W        W23124   8.520  11.580  10.468
51596W        W23125  22.865  19.746  13.095
51597W        W23126  26.185   1.566  10.823
51598W        W23127  42.369  43.349   0.181
51599W        W23128  19.324  18.780  12.369
51600W        W23129  39.631   0.307   4.338
51601W        W23130  32.533  34.936   0.791
51602W        W23131  12.210  24.993   1.327
51603W        W23132   0.244  29.926   0.801
51604W        W23133  16.318   8.354   1.227
51605W        W23134  28.407  11.969  14.402
51606W        W23135  15.113  38.014   1.231
51607W        W23136  30.008   9.306  10.739
51608W        W23137  41.607  15.310   2.378
51609W        W23138   6.493  25.990  12.435
51610W        W23139  44.303  34.876   3.095
51611W        W23140  35.844  32.588  10.670
51612W        W23141  18.319  31.130   0.464
51613W        W23142  12.855  22.181   3.304
51614W        W23143  38.996  23.436   0.354
51615W        W23144   7.630  31.115   3.279
51616W        W23145  38.419  40.736  13.986
51617W        W23146  42.802  25.403   1.274
51618W        W23147  33.489  30.667   1.406
51619W        W23148  44.710  44.211   1.723
51620W        W23149  23.828  41.479  14.923
51621W        W23150  33.873  19.960  14.322
51622W        W23151  34.872   3.160   0.519
51623W        W23152  15.815  16.184  14.438
51624W        W23153  21.722  11.161  14.043
51625W        W23154   8.188  17.697   3.783
51626W        W23155  26.562  25.680  14.747
51627W        W23156  21.457  14.117   1.787
51628W        W23157  43.010  35.624  10.733
51629W        W23158  22.213  35.805  14.022
51630W        W23159  26.945  44.104   3.725
51631W        W23160  12.084  39.852  14.364
51632W        W23161  29.559  41.215  13.018
51633W        W23162  20.262  35.664   2.733
51634W        W23163  18.180  12.226  14.438
51635W        W23164  40.793  38.368  14.407
51636W        W23165  20.654   8.857   1.656
51637W        W23166  30.194   6.878  10.811
51638W        W23167  28.162   4.411   4.615
51639W        W23168  13.223  27.208   4.459
51640W        W23169  22.195   7.914  13.019
51641W        W23170  19.149  26.084  11.949
51642W        W23171   5.459  36.082  12.164
51643W        W23172   6.341   7.751   3.918
51644W        W23173  12.373   0.738   4.093
51645W        W23174   7.900  14.750   4.710
51646W        W23175   2.581  27.732  12.938
51647W        W23176   3.288  31.555  13.868
51648W        W23177  13.220  33.546   3.290
51649W        W23178  11.506  37.847  10.271
51650W        W23179  20.044   6.400   2.649
51651W        W23180  18.714  18.762   4.639
51652W        W23181  33.405  10.591   0.744
51653W        W23182  43.099   2.976  10.685
51654W        W23183  42.713  28.927   4.138
51655W        W23184  28.977   4.488   3.104
51656W        W23185  39.511  35.363  13.525
51657W        W23186  29.622  36.652  11.613
51658W        W23187  21.171   8.714  13.943
51659W        W23188  41.111   2.323   1.012
51660W        W23189  21.108  40.640  11.122
51661W        W23190   1.899  39.366   1.776
51662W        W23191  28.463  41.271  11.133
51663W        W23192   3.852   5.992   4.441
51664W        W23193   8.469  13.803   0.398
51665W        W23194   3.864  24.702  11.203
51666W        W23195   5.078  21.736   2.675
51667W        W23196  25.273  28.156  13.067
51668W        W23197  42.425  12.197   0.595
51669W        W23198  29.579  42.918   4.539
51670W        W23199  14.595   1.621   1.778
51671W        W23200  43.376  21.007  10.128
51672W        W23201   4.229  26.410   2.856
51673W        W23202   5.497  26.532   1.205
51674W        W23203  36.119  38.311   2.110
51675W        W23204  11.772  28.447  13.777
51676W        W23205  37.850  39.520  14.822
51677W        W23206   7.752  26.799   3.387
51678W        W23207  38.792   8.334   1.668
51679W        W23208  32.541  16.996   1.388
51680W        W23209  17.089  19.936   2.650
51681W        W23210  34.573  24.491  11.572
51682W        W23211   2.297  16.060  12.059
51683W        W23212  27.346  30.546  11.432
51684W        W23213  37.463   5.787  12.614
51685W        W23214  22.088  13.340   3.267
51686W        W23215  38.222  25.515  12.671
51687W        W23216  36.054   6.031   3.739
51688W        W23217  26.429  24.095  10.739
51689W        W23218  33.061  29.220   2.146
51690W        W23219  44.070  41.837  11.611
51691W        W23220  20.805  12.766   1.802
51692W        W23221  23.012   1.879   3.306
51693W        W23222  12.791  43.983   4.868
51694W        W23223  14.094  26.254  10.468
51695W        W23224  15.628  36.602   0.867
51696W        W23225   6.253  15.687   0.850
51697W        W23226  44.404   1.257   1.881
51698W        W23227  22.005   4.824   4.569
51699W        W23228  21.672  19.502  11.580
51700W        W23229  33.328  30.423   4.598
51701W        W23230  43.941  40.462   2.712
51702W        W23231   7.605  35.398  13.220
51703W        W23232  10.727  10.619   3.164
51704W        W23233  30.365   5.523  12.936
51705W        W23234  44.472  42.544  11.625
51706W        W23235  24.437   0.755   1.464
51707W        W23236  35.388  31.068  11.625
51708W        W23237  31.752   2.783   4.573
51709W        W23238  37.344   6.804  10.797
51710W        W23239   1.279  33.883   2.590
51711W        W23240  32.267  28.166   3.285
51712W        W23241  41.966   3.181   3.155
51713W        W23242  38.472  16.465  10.579
51714W        W23243  38.804  43.525   2.221
51715W        W23244  23.316   7.201   3.382
51716W        W23245  19.985  33.862   0.804
51717W        W23246   9.919   6.459  11.581
51718W        W23247  43.055  28.517   4.148
51719W        W23248  40.959  24.060  12.456
51720W        W23249  35.182  33.988   0.039
51721W        W23250   6.482   7.328  13.450
51722W        W23251  30.511  39.848   2.493
51723W        W23252  37.841   6.125  11.552
51724W        W23253  37.805   4.322   3.714
51725W        W23254  32.977  15.041  14.857
51726W        W23255  17.566  21.028   3.704
51727W        W23256  34.159  44.452   1.727
51728W        W23257  43.839  14.657  13.375
51729W        W23258   4.746   2.496  11.445
51730W        W23259  20.583  19.866   2.776
51731W        W23260  39.382  34.503  11.980
51732W        W23261  29.743  35.050  13.846
51733W        W23262   8.597  16.253   1.211
51734W        W23263  19.893  31.758  11.127
51735W        W23264   3.558  10.754   1.979
51736W        W23265  31.348  24.347   0.839
51737W        W23266  29.961  30.370  12.036
51738W        W23267   5.016  44.178   3.353
51739W        W23268   5.761  23.498   0.610
51740W        W23269  15.697  26.214   2.687
51741W        W23270  25.323  22.232  13.042
51742W        W23271  31.907   5.432  13.848
51743W        W23272  31.184  40.009   2.149
51744W        W23273  30.223  39.492  14.858
51745W        W23274  27.913  44.730  10.613
51746W        W23275  14.235  37.185  12.652
51747W        W23276  18.559  20.994  12.040
51748W        W23277  14.504  39.311  12.893
51749W        W23278  32.990  19.239  14.237
51750W        W23279  44.404   0.714   4.943
51751W        W23280  34.430  36.383  13.979
51752W        W23281  13.049  16.200   3.694
51753W        W23282  36.374  34.641  13.036
51754W        W23283  39.449  28.945  13.947
51755W        W23284  11.107  26.039   0.355
51756W        W23285  34.413  44.853  12.587
51757W        W23286  39.850  14.382   0.424
51758W        W23287   5.930  21.779  12.909
51759W        W23288   2.228   2.370   2.525
51760W        W23289   8.290  43.458  12.439
51761W        W23290  41.369  31.997   0.903
51762W        W23291   8.379  26.204  11.229
51763W        W23292  35.488  34.660  11.602
51764W        W23293  17.597  11.240   1.287
51765W        W23294  37.686  26.439   0.111
51766W        W23295   8.894   1.009   4.895
51767W        W23296  25.392  37.496   2.816
51768W        W23297  23.564  15.634   4.618
51769W        W23298   3.391  26.541  12.123
51770W        W23299   9.068  11.713   2.936
51771W        W23300   7.294  44.838   0.931
51772W        W23301  33.906  32.490   3.846
51773W        W23302  44.691  34.529  14.456
51774W        W23303   9.271  31.622   1.951
51775W        W23304   0.920   6.396  12.114
51776W        W23305  32.304   0.540   3.975
51777W        W23306  43.809  25.312  10.508
51778W        W23307  26.532  16.546  11.491
51779W        W23308  21.760  22.194  12.358
51780W        W23309   3.447  31.605  13.344
51781W        W23310  26.975  10.175   2.873
51782W        W23311  26.687  26.114   1.429
51783W        W23312   0.903   2.357   2.134
51784W        W23313   8.303  14.102  14.326
51785W        W23314   6.969  16.287  13.516
51786W        W23315   6.852   4.642  11.150
51787W        W23316  35.947  37.008   0.498
51788W        W23317  39.479   8.181   3.210
51789W        W23318  13.277  25.128  11.625
51790W        W23319  25.154  40.788  11.711
51791W        W23320  12.602  12.435  13.005
51792W        W23321   4.806  37.571  11.651
51793W        W23322  28.558  41.413  12.829
51794W        W23323  41.752  15.657  11.055
51795W        W23324  44.899  18.646  13.948
51796W        W23325  38.037  28.392   4.072
51797W        W23326  15.876  26.687   3.656
51798W        W23327  24.696  21.517  13.828
51799W        W23328  44.873  14.450   4.203
51800W        W23329  16.325   3.387  11.651
51801W        W23330  25.443  28.560  11.914
51802W        W23331  37.441  18.209  11.474
51803W        W23332   2.987  18.260   3.562
51804W        W23333   3.376  44.547   4.950
51805W        W23334  38.444  37.631  12.871
51806W        W23335   4.257  40.972  10.832
51807W        W23336  18.108  37.937   4.980
51808W        W23337  24.051  28.993   0.725
51809W        W23338  44.900   6.572   2.982
51810W        W23339  31.561  24.001  14.372
51811W        W23340  43.490  36.316  14.888
51812W        W23341  15.286  34.883   2.082
51813W        W23342  36.451  31.747   4.072
51814W        W23343   6.379   5.974   2.372
51815W        W23344  44.831  22.575  11.801
51816W        W23345  38.170  31.981  14.824
51817W        W23346  43.222  24.687   0.310
51818W        W23347  25.672  43.035   0.322
51819W        W23348  14.161  39.272   3.228
51820W        W23349  11.623  26.472   0.874
51821W        W23350  22.640  44.024   4.420
51822W        W23351  15.026  42.068  14.345
51823W        W23352  25.528   8.827  11.303
51824W        W23353  36.069  39.832   1.549
51825W        W23354  20.837  13.873  14.440
51826W        W23355  36.628   5.894   3.290
51827W        W23356  20.818  38.182  11.074
51828W        W23357   8.148  36.610  11.113
51829W        W23358  19.094  23.714  14.815
51830W        W23359  11.278  16.204  11.142
51831W        W23360  40.554  23.097  12.624
51832W        W23361  22.440  30.153  11.998
51833W        W23362  40.875  29.720  12.642
51834W        W23363   8.230  26.287  13.177
51835W        W23364   8.621  39.497   3.679
51836W        W23365  34.551  32.058  10.370
51837W        W23366  44.122  24.227  10.726
51838W        W23367   3.934  38.285  11.569
51839W        W23368   1.471  12.167   1.407
51840W        W23369  31.872  13.570  11.213
51841W        W23370   4.262  36.770   2.492
51842W        W23371  24.698  41.011   4.679
51843W        W23372  11.758  37.888   4.763
51844W        W23373  19.415  40.661   5.101
51845W        W23374  37.046  42.357  11.224
51846W        W23375  16.111  22.766  10.140
51847W        W23376  35.065  11.573   0.355
51848W        W23377  26.875  39.633  13.807
51849W        W23378  26.675  29.544  13.370
51850W        W23379  38.686  41.448   0.044
51851W        W23380  35.501  42.393   4.505
51852W        W23381   3.041  21.160  10.118
51853W        W23382   5.727  15.386  11.660
51854W        W23383   5.965  16.216  12.145
51855W        W23384   8.621  29.198  14.314
51856W        W23385  21.988   3.571  14.704
51857W        W23386  42.701  39.488  13.947
51858W        W23387  14.763   6.254  12.594
51859W        W23388  29.571  42.443   4.802
51860W        W23389  16.704   6.605   4.826
51861W        W23390   0.840  23.055  10.592
51862W        W23391  43.831  36.599  12.901
51863W        W23392  21.631  43.283  11.502
51864W        W23393   1.237  15.051   4.087
51865W        W23394  19.094  36.802   1.293
51866W        W23395  42.032  31.566  14.841
51867W        W23396  14.586  20.333   4.289
51868W        W23397  14.672   8.840  14.530
51869W        W23398  17.607  25.489   1.191
51870W        W23399  19.180   5.574  11.612
51871W        W23400   6.108  42.364   4.627
51872W        W23401   5.169  34.229   1.905
51873W        W23402  30.020  27.227   1.856
51874W        W23403  33.313  36.313   0.474
51875W        W23404  22.171  18.038  13.842
51876W        W23405  22.575  13.379  12.734
51877W        W23406  30.938  28.277  14.938
51878W        W23407  35.216  37.949  11.322
51879W        W23408   7.366  31.041   3.771
51880W        W23409  39.325  24.998   2.851
51881W        W23410   3.975  37.556  14.841
51882W        W23411   9.953  30.161  10.440
51883W        W23412  18.749  17.053  10.473
51884W        W23413  30.725   3.236   4.566
51885W        W23414  31.466   2.102  11.175
51886W        W23415  15.660   7.383   4.558
51887W        W23416  42.921  21.766   0.829
51888W        W23417   9.209  43.514   2.241
51889W        W23418  32.911  28.127  11.137
51890W        W23419  43.020  23.018  11.965
51891W        W23420  20.205  16.227   0.517
51892W        W23421  36.511  11.449   2.765
51893W        W23422  17.729   0.720   4.707
51894W        W23423  17.151   5.622   4.130
51895W        W23424   6.958   7.201  11.599
51896W        W23425  14.564  10.735   2.768
51897W        W23426   9.727  22.510   3.216
51898W        W23427  10.128   5.351   3.645
51899W        W23428  33.372  24.097  11.115
51900W        W23429  32.499  42.437  11.421
51901W        W23430  26.554  44.427   3.047
51902W        W23431   4.658   6.783  13.784
51903W        W23432  14.762  43.044   2.665
51904W        W23433  11.777  40.927   1.477
51905W        W23434   4.797  32.995   2.403
51906W        W23435   3.819  28.409   0.169
51907W        W23436  40.050   4.412  14.103
51908W        W23437   3.863  38.361   4.159
51909W        W23438  43.502  10.362   1.651
51910W        W23439  43.952  29.054   0.375
51911W        W23440  27.385   5.767  11.544
51912W        W23441   9.637  22.307  12.054
51913W        W23442  25.087  37.931   0.316
51914W        W23443  19.595  41.004  13.890
51915W        W23444  33.519   3.001  13.437
51916W        W23445  40.356  22.461   1.276
51917W        W23446  31.962  26.177  10.792
51918W        W23447  35.726  20.771  11.067
51919W        W23448  43.956  34.493   2.916
51920W        W23449  27.742  10.673  10.579
51921W        W23450  30.093   5.939   3.736
51922W        W23451   8.930  22.514  10.608
51923W        W23452   6.343  27.446   1.527
51924W        W23453  35.864  20.258  11.043
51925W        W23454  38.991  21.971   4.583
51926W        W23455  21.238  11.469   3.632
51927W        W23456   2.243  14.168  13.469
51928W        W23457  12.395  16.530  13.404
51929W        W23458  22.459  13.654   2.308
51930W        W23459  21.073  17.229   2.689
51931W        W23460  24.497  19.246   1.814
51932W        W23461  28.179  19.625  10.864
51933W        W23462  33.917  29.310  14.763
51934W        W23463  44.342  40.126  12.951
51935W        W23464   0.971  37.193   2.208
51936W        W23465   7.344  19.059  11.914
51937W        W23466  33.351  39.050   0.912
51938W        W23467  29.374  21.082  12.809
51939W        W23468   7.921  38.317  10.627
51940W        W23469  14.196  25.504  14.279
51941W        W23470  17.196   1.598  10.429
51942W        W23471  17.158  19.323   1.826
51943W        W23472  40.264  13.738  14.769
51944W        W23473  37.659  15.636  13.593
51945W        W23474  26.698  29.090   2.381
51946W        W23475   8.403   5.187   2.834
51947W        W23476  25.635  30.231   3.192
51948W        W23477  13.097  27.899   1.621
51949W        W23478   5.747   3.454  14.435
51950W        W23479  11.204  19.565   0.823
51951W        W23480   1.462  30.231   4.599
51952W        W23481  29.022  30.462  10.918
51953W        W23482  22.520  35.199  14.911
51954W        W23483  15.689  17.166   4.126
51955W        W23484   1.983  34.479  11.228
51956W        W23485   5.926  42.255   3.584
51957W        W23486  13.255   8.925  11.324
51958W        W23487   0.342  35.990  13.988
51959W        W23488  36.652  33.678  11.756
51960W        W23489  21.468  23.745   3.623
51961W        W23490  39.977  40.537  13.936
51962W        W23491  36.270   8.587  11.159
51963W        W23492  20.031   5.004   2.213
51964W        W23493   4.713  35.393   2.647
51965W        W23494   5.995  41.043   3.044
51966W        W23495  35.792  17.169  11.551
51967W        W23496  16.880   9.903  13.525
51968W        W23497  36.340  14.252   3.800
51969W        W23498   2.777  23.127   3.269
51970W        W23499  19.222  33.094  11.529
51971W        W23500  28.088   1.091   3.731
51972W        W23501  34.789  43.553   2.507
51973W        W23502  12.815  28.380  12.167
51974W        W23503  30.641  12.055   0.881
51975W        W23504  25.117   1.525   4.563
51976W        W23505  17.725  12.119   4.164
51977W        W23506  19.549  43.362   2.161
51978W        W23507  32.458  17.937  13.752
51979W        W23508  21.513   3.457  10.718
51980W        W23509  41.178  17.115   2.922
51981W        W23510   1.431  44.225   3.191
51982W        W23511  41.466   7.664  12.329
51983W        W23512  20.008  37.901   0.386
51984W        W23513  39.927   6.292  11.415
51985W        W23514  18.741  35.326   2.678
51986W        W23515  13.414  11.688  11.138
51987W        W23516   6.542  25.282   4.302
51988W        W23517   6.868  17.810  12.961
51989W        W23518  36.141  25.029   3.552
51990W        W23519   7.752  43.882   4.538
51991W        W23520  36.139   8.150   4.269
51992W        W23521   7.457  13.646  12.814
51993W        W23522  36.980  22.862   0.013
51994W        W23523  13.615  12.911   4.242
51995W        W23524  41.874  33.254   4.583
51996W        W23525  28.806  15.986  14.933
51997W        W23526  44.938  42.540  10.437
51998W        W23527  22.906   5.740   3.795
51999W        W23528  33.563  37.246   4.206
52000W        W23529  27.336  23.785  12.925
52001W        W23530  10.584  42.163   0.906
52002W        W23531  28.064  15.219   9.767
52003W        W23532  38.123   1.519   4.575
52004W        W23533   4.216  40.787   0.295
52005W        W23534   5.107  28.317   3.802
52006W        W23535   9.394  36.347   3.712
52007W        W23536  33.946  16.726   3.922
52008W        W23537  39.422   2.361   4.571
52009W        W23538   2.371  17.902   4.146
52010W        W23539  25.091  12.213  13.226
52011W        W23540  13.781  10.089   1.694
52012W        W23541  10.674  25.154  10.681
52013W        W23542   7.714  13.332  11.395
52014W        W23543  22.553  27.953   1.289
52015W        W23544  14.368  43.936   0.925
52016W        W23545  21.558  37.996   2.721
52017W        W23546   0.800  21.066  13.772
52018W        W23547   1.250  31.249   0.305
52019W        W23548  10.430   7.846   2.407
52020W        W23549   4.210  21.258   2.310
52021W        W23550  42.564  35.950   3.676
52022W        W23551  24.248  10.783   2.706
52023W        W23552  44.837  44.942  12.477
52024W        W23553  37.138   7.490  11.017
52025W        W23554  25.730  39.903   2.596
52026W        W23555  10.825   2.723   3.112
52027W        W23556   7.243  33.372  12.419
52028W        W23557  37.622  44.208  13.733
52029W        W23558  15.204  15.705   2.434
52030W        W23559  33.345  31.488  13.138
52031W        W23560  37.964  22.500   3.678
52032W        W23561   2.784  22.298   4.883
52033W        W23562  36.381  10.306  10.672
52034W        W23563  35.154  35.843   2.103
52035W        W23564  14.543  40.766  14.998
52036W        W23565  24.844  36.931   0.193
52037W        W23566  21.819  16.256  14.008
52038W        W23567  14.717  33.926   0.522
52039W        W23568  15.383   7.400   5.481
52040W        W23569  29.165  34.311  14.361
52041W        W23570  29.999   6.780   0.376
52042W        W23571  40.915   2.424   3.853
52043W        W23572  12.777  39.418   0.288
52044W        W23573  21.635  41.983  10.326
52045W        W23574  37.897  34.581   3.200
52046W        W23575   5.726  14.080  11.669
52047W        W23576  20.140  22.866  12.069
52048W        W23577  37.376  23.598   4.337
52049W        W23578  16.247  24.200  11.036
52050W        W23579  12.234  18.116   0.964
52051W        W23580  14.108  33.348  11.909
52052W        W23581  30.456  33.975   3.615
52053W        W23582  18.804  17.251   1.883
52054W        W23583  19.391  22.887  11.648
52055W        W23584  43.982  29.616   4.030
52056W        W23585  11.579  29.455  10.715
52057W        W23586   5.966  14.400  14.352
52058W        W23587  38.056   9.797  10.596
52059W        W23588  40.702  32.094   3.132
52060W        W23589  14.165   4.769   4.185
52061W        W23590  25.051  37.380  12.841
52062W        W23591   3.696  37.180   0.045
52063W        W23592   0.932  33.612   4.153
52064W        W23593  11.594   1.519   1.478
52065W        W23594  28.396  36.009  14.308
52066W        W23595   8.642  13.902   4.326
52067W        W23596  41.020  32.104  13.559
52068W        W23597   6.856  14.084  14.008
52069W        W23598  26.081  34.148  13.564
52070W        W23599   9.788  11.791  13.032
52071W        W23600   7.592   5.067   2.900
52072W        W23601  42.460  25.593   0.916
52073W        W23602  13.606   2.343   4.362
52074W        W23603   6.063  21.907  14.420
52075W        W23604  37.878  42.839   0.340
52076W        W23605  32.028  15.824   0.498
52077W        W23606  28.139   5.613  13.314
52078W        W23607  40.654  29.744   3.225
52079W        W23608  31.018  44.188  14.813
52080W        W23609  19.087  43.444  11.221
52081W        W23610  28.076  17.849  13.809
52082W        W23611   4.463  42.930  14.396
52083W        W23612  29.236  22.597   2.968
52084W        W23613   9.278   0.955   1.874
52085W        W23614  27.527  30.931  12.791
52086W        W23615  28.110   3.825  12.898
52087W        W23616  11.205   5.029   3.371
52088W        W23617  39.752   4.205  13.498
52089W        W23618   9.721  36.678  13.123
52090W        W23619  16.673  43.526  11.529
52091W        W23620  43.441  21.645   3.446
52092W        W23621  41.683   4.883  14.810
52093W        W23622  15.748  44.027  13.977
52094W        W23623  19.655  15.354   0.246
52095W        W23624  20.266   5.715   4.906
52096W        W23625  33.821   8.771   0.648
52097W        W23626  17.043  16.861   2.417
52098W        W23627  24.665  42.261   1.288
52099W        W23628  16.734  24.645  13.488
52100W        W23629   7.484  43.411  11.101
52101W        W23630  21.569  31.981   1.334
52102W        W23631  19.102  21.992   2.414
52103W        W23632  38.560   8.955  14.216
52104W        W23633  28.017  44.546   3.670
52105W        W23634  16.456  24.963  11.947
52106W        W23635   7.476   0.347  12.097
52107W        W23636  36.540   1.816   0.819
52108W        W23637  35.902   9.146   4.040
52109W        W23638  26.981  42.696   1.399
52110W        W23639  21.196  40.951   2.115
52111W        W23640  37.566  13.015   2.764
52112W        W23641  13.764   3.802   4.048
52113W        W23642  42.729  13.814   4.740
52114W        W23643  25.213  15.261   4.439
52115W        W23644  19.943  36.000   4.074
52116W        W23645   7.109  19.763  13.444
52117W        W23646  21.787  26.592  12.014
52118W        W23647  20.599  18.645  10.418
52119W        W23648  24.781  21.105   2.286
52120W        W23649  11.759   1.504   4.316
52121W        W23650  30.606   2.435  10.294
52122W        W23651   9.112  34.372  14.998
52123W        W23652   2.380  39.946   1.474
52124W        W23653  10.226  15.315   4.412
52125W        W23654  24.730  14.763  13.392
52126W        W23655  24.505  35.624   2.775
52127W        W23656  24.962  19.510   1.831
52128W        W23657   5.133   3.435  13.771
52129W        W23658  13.315  20.943   4.597
52130W        W23659   1.637  36.558   5.625
52131W        W23660  20.625  26.955  11.097
52132W        W23661  33.017  43.010  13.733
52133W        W23662  15.739  16.240  13.516
52134W        W23663  11.612  20.894   0.363
52135W        W23664  12.090  29.483   0.427
52136W        W23665  31.137  18.344  10.253
52137W        W23666   3.744   2.125  11.014
52138W        W23667  18.715  24.055   0.986
52139W        W23668  35.926  34.223   0.746
52140W        W23669  16.005   7.615  12.177
52141W        W23670  34.938  27.136   0.641
52142W        W23671  14.418  33.349  14.315
52143W        W23672  10.346  41.174   4.589
52144W        W23673  43.597  43.075   4.949
52145W        W23674  42.670   5.568   3.514
52146W        W23675  44.959   6.855  10.661
52147W        W23676  22.517  15.858  12.826
52148W        W23677   5.713  17.135   9.839
52149W        W23678  21.793   6.860  10.664
52150W        W23679   7.900  12.865  11.275
52151W        W23680   4.914  11.895   3.101
52152W        W23681   6.490  31.528   0.881
52153W        W23682   4.360  35.851   3.585
52154W        W23683  17.767  39.597   3.480
52155W        W23684   5.357  20.033   2.470
52156W        W23685  37.822  36.776  13.454
52157W        W23686  16.558  36.557   1.831
52158W        W23687  38.782  24.119  14.353
52159W        W23688  18.961   8.686   2.695
52160W        W23689  14.574  30.600  13.073
52161W        W23690   1.919  24.054  12.916
52162W        W23691   2.780   6.880  13.459
52163W        W23692  16.381  21.793  11.657
52164W        W23693  15.729   6.796  14.815
52165W        W23694  27.348  34.917   1.181
52166W        W23695  18.826  29.206   2.179
52167W        W23696   5.192  15.014   4.100
52168W        W23697   5.873  13.108  14.430
52169W        W23698  13.121  19.303  13.035
52170W        W23699   6.457   1.467   3.196
52171W        W23700  24.733  26.900  13.394
52172W        W23701   6.052  12.649   3.715
52173W        W23702  33.958  34.839  10.641
52174W        W23703   8.064  31.008   4.533
52175W        W23704  11.271  39.332   0.284
52176W        W23705  38.129  34.285   4.185
52177W        W23706  22.278   8.653   1.065
52178W        W23707   1.785  44.776   4.585
52179W        W23708  31.515  15.255   2.626
52180W        W23709  36.801  15.350  11.612
52181W        W23710   4.320  23.708  13.839
52182W        W23711  38.956  15.999  12.647
52183W        W23712   5.748  22.467  13.275
52184W        W23713  41.881  29.645  12.440
52185W        W23714  23.346   1.032  12.709
52186W        W23715   5.069   9.944  14.926
52187W        W23716  11.267  29.231   0.817
52188W        W23717  18.408  23.472   2.440
52189W        W23718  12.823  44.465  11.141
52190W        W23719   6.539  16.173  12.608
52191W        W23720  27.859  18.085   2.956
52192W        W23721  25.159   5.450  12.941
52193W        W23722  11.064   3.380  14.538
52194W        W23723  35.421   3.829  12.404
52195W        W23724   3.030  19.596   1.365
52196W        W23725   6.960  44.407  11.976
52197W        W23726  11.511  43.346   0.655
52198W        W23727  40.540   6.813  12.002
52199W        W23728  20.352  30.136   2.371
52200W        W23729  36.832  18.317  12.678
52201W        W23730  25.458  40.758  12.396
52202W        W23731  14.337  39.356  13.403
52203W        W23732  35.219  30.339   4.263
52204W        W23733   3.275  19.281  13.928
52205W        W23734  26.510  30.372  11.965
52206W        W23735  26.752   2.331  11.139
52207W        W23736  25.648  10.032   2.149
52208W        W23737  30.153  24.912   0.584
52209W        W23738  42.254   0.832   0.898
52210W        W23739  21.002  41.830   2.680
52211W        W23740  34.862  10.691  13.293
52212W        W23741  44.594  10.891  11.885
52213W        W23742  30.751  41.078   3.797
52214W        W23743  32.939  37.546   3.213
52215W        W23744   5.267  27.237   2.772
52216W        W23745  38.111  17.729   3.751
52217W        W23746  10.395   1.022   1.925
52218W        W23747  44.306  34.123  13.768
52219W        W23748  24.253  42.369   2.743
52220W        W23749  16.558   8.367   5.865
52221W        W23750  28.659   0.262  10.735
52222W        W23751  24.217  40.150  14.946
52223W        W23752  42.897  40.601   1.706
52224W        W23753  11.340  15.203  12.096
52225W        W23754  33.047  35.092  13.395
52226W        W23755  33.398  38.977   4.045
52227W        W23756  10.272   3.862  12.369
52228W        W23757   7.866  36.777  14.932
52229W        W23758  36.048  33.891   4.567
52230W        W23759   4.689  21.740  14.837
52231W        W23760  22.273  20.143  14.084
52232W        W23761  31.682  29.452   2.211
52233W        W23762  28.892  31.130   0.771
52234W        W23763   7.685  35.880   3.091
52235W        W23764  31.341   7.127   1.103
52236W        W23765  14.089  18.647  14.556
52237W        W23766  32.388   1.808   0.485
52238W        W23767  31.239  38.076   1.588
52239W        W23768   4.347  14.631   0.726
52240W        W23769  31.749  40.731  11.134
52241W        W23770  10.135  36.266   4.621
52242W        W23771   1.488  33.766   2.115
52243W        W23772  20.614  20.582  10.748
52244W        W23773  34.673  12.698   3.119
52245W        W23774  12.293   9.281   0.728
52246W        W23775  17.803  11.279   1.762
52247W        W23776  36.121   6.668   2.338
52248W        W23777  17.526  17.142  13.826
52249W        W23778  30.357  32.183  12.383
52250W        W23779  25.653   7.898   0.078
52251W        W23780  20.507  29.288  13.917
52252W        W23781   8.510  37.782  14.331
52253W        W23782   7.539  13.678  10.787
52254W        W23783  26.074  13.801  12.632
52255W        W23784   4.197  21.985   3.856
52256W        W23785  34.627  44.360  12.704
52257W        W23786  18.088  19.560  12.628
52258W        W23787   3.725  13.833   0.247
52259W        W23788  40.997  30.169   4.057
52260W        W23789   0.941  30.253  11.990
52261W        W23790  26.054  14.773  14.860
52262W        W23791  14.581   2.952   5.011
52263W        W23792   1.353  44.482  14.931
52264W        W23793  23.635  23.665  14.736
52265W        W23794  37.141  18.242   4.654
52266W        W23795  43.249  15.301  14.844
52267W        W23796  35.842  43.758  12.636
52268W        W23797  24.686  11.655   1.670
52269W        W23798  11.198  13.109   2.738
52270W        W23799  40.960  25.139  14.724
52271W        W23800  21.810   3.475  12.957
52272W        W23801  32.873  10.099  10.693
52273W        W23802  18.826  19.854   1.459
52274W        W23803  41.373   3.286  10.863
52275W        W23804  37.319   5.775  10.754
52276W        W23805  20.204  39.504   1.744
52277W        W23806  32.358  40.054  11.457
52278W        W23807   4.259  21.492   0.265
52279W        W23808   5.922  38.001   1.221
52280W        W23809   2.573   5.231  13.817
52281W        W23810  20.765   4.788  11.637
52282W        W23811  26.395   7.024  13.255
52283W        W23812  37.427  36.446  13.471
52284W        W23813  13.528   0.399  14.524
52285W        W23814   2.484  11.185  13.869
52286W        W23815   0.340  40.975   4.980
52287W        W23816  42.481  15.755   1.335
52288W        W23817  40.990  43.956  13.066
52289W        W23818   3.468  42.161  14.808
52290W        W23819  22.333   6.961   1.477
52291W        W23820  19.733  10.185   1.526
52292W        W23821  43.363   4.284   1.814
52293W        W23822  36.567  33.800  11.258
52294W        W23823  37.275  18.273   0.819
52295W        W23824  20.229  29.905  10.501
52296W        W23825   4.127  32.127  14.877
52297W        W23826  43.829   1.656  11.067
52298W        W23827   4.328  36.182   3.155
52299W        W23828  36.436  13.834  12.552
52300W        W23829  43.128  12.740   2.718
52301W        W23830  33.362  17.747   2.812
52302W        W23831  11.635   5.682   2.786
52303W        W23832  21.133  42.362   4.430
52304W        W23833   6.901  23.398  10.811
52305W        W23834   0.750  26.045   2.836
52306W        W23835  26.265  15.667  13.668
52307W        W23836  20.031  40.596   2.882
52308W        W23837   4.819   5.985  10.690
52309W        W23838  29.087  40.483   2.506
52310W        W23839  18.613  43.940  10.565
52311W        W23840   9.163  28.676  14.157
52312W        W23841  21.914  43.349   4.456
52313W        W23842  11.950  32.436  13.940
52314W        W23843  31.923  10.866  11.691
52315W        W23844   1.134  10.393   0.294
52316W        W23845   1.975  21.667  13.785
52317W        W23846  12.738  17.174   0.330
52318W        W23847   4.741   3.418   1.690
52319W        W23848  27.559  31.167  12.200
52320W        W23849  27.413  43.259   2.653
52321W        W23850  15.641  15.653   1.208
52322W        W23851  41.883  12.268   4.021
52323W        W23852  34.316  23.072   1.373
52324W        W23853  23.031   5.117   2.222
52325W        W23854  29.204   9.754  13.345
52326W        W23855  28.492  30.940  10.940
52327W        W23856   6.937  27.014  13.563
52328W        W23857  38.045  39.249  10.804
52329W        W23858  32.647  17.172  11.032
52330W        W23859  31.673  12.817  12.506
52331W        W23860  16.178  39.078  12.095
52332W        W23861  29.437  14.013   0.225
52333W        W23862   1.407  14.888  11.154
52334W        W23863  33.928  38.502  14.028
52335W        W23864   9.212  37.886  12.873
52336W        W23865  22.238  27.994  12.575
52337W        W23866  26.724  13.090   3.762
52338W        W23867  11.915  17.419   3.251
52339W        W23868   0.753  43.493   3.317
52340W        W23869  13.329  32.488  10.718
52341W        W23870  25.202  27.958   2.864
52342W        W23871  27.853  42.280  10.804
52343W        W23872   4.090  37.101  13.524
52344W        W23873   8.181  26.123   2.338
52345W        W23874  23.066  30.668   3.413
52346W        W23875   4.912  25.938  12.939
52347W        W23876  28.441   7.359  12.399
52348W        W23877  34.045  43.399   0.249
52349W        W23878   7.994  30.019  14.187
52350W        W23879  42.402  29.614  13.109
52351W        W23880  40.463   7.117  12.403
52352W        W23881  26.576  30.866  11.956
52353W        W23882  43.661  25.174   1.112
52354W        W23883  20.627  12.631  12.101
52355W        W23884  22.289  19.255  14.427
52356W        W23885   7.744  29.515  14.378
52357W        W23886  25.404  44.791   2.240
52358W        W23887  20.067   4.935   4.786
52359W        W23888  41.295  11.579   4.127
52360W        W23889  25.114  11.737   0.397
52361W        W23890  44.311  41.032   3.266
52362W        W23891   9.738  29.458   3.622
52363W        W23892  13.074   6.352  13.382
52364W        W23893  37.602  19.038   3.242
52365W        W23894  13.131   5.814  14.561
52366W        W23895  18.668  39.775   1.938
52367W        W23896  25.297   9.945   0.928
52368W        W23897  29.050  39.011   1.285
52369W        W23898  16.827   2.768  11.531
52370W        W23899  30.175  38.857  12.983
52371W        W23900  38.539   2.214   2.308
52372W        W23901  11.775  41.402  12.612
52373W        W23902  11.027  12.471  14.077
52374W        W23903  34.064  18.530  13.118
52375W        W23904  10.066  32.137   2.321
52376W        W23905   7.168   9.257  14.133
52377W        W23906  18.640  44.611   9.787
52378W        W23907  26.413  28.951   1.720
52379W        W23908  38.304  23.643   4.042
52380W        W23909  11.772   4.625  12.244
52381W        W23910  37.653  21.255  14.980
52382W        W23911  18.163   3.855   2.090
52383W        W23912  27.654  34.079   3.498
52384W        W23913  37.666   2.431   4.645
52385W        W23914  18.319   4.184   4.667
52386W        W23915  11.237   6.757  14.092
52387W        W23916  30.607  38.872   3.356
52388W        W23917  41.974  13.239   1.892
52389W        W23918  21.666   8.961  11.567
52390W        W23919   7.667  12.276  13.447
52391W        W23920  36.812  31.662   4.676
52392W        W23921   6.080  24.397  12.401
52393W        W23922  37.795  16.824   4.709
52394W        W23923   1.286  39.377  11.066
52395W        W23924  32.013   5.376  13.313
52396W        W23925  24.827  15.657  11.632
52397W        W23926   9.131  40.871   4.610
52398W        W23927  39.407  40.047   2.831
52399W        W23928  12.268  40.932   1.654
52400W        W23929  12.786  24.360  14.896
52401W        W23930   3.360  19.696   1.796
52402W        W23931  44.447  34.665   2.648
52403W        W23932   4.321  11.153  14.914
52404W        W23933  34.763  29.717   1.781
52405W        W23934   1.380  25.476  14.688
52406W        W23935  44.845  12.700  14.957
52407W        W23936  14.843   3.650  11.179
52408W        W23937  40.517  20.174  11.632
52409W        W23938   0.497  39.612  10.406
52410W        W23939   3.054   3.882  12.476
52411W        W23940  14.428  37.027  13.928
52412W        W23941  40.912  19.222   0.804
52413W        W23942  43.531  31.002  14.854
52414W        W23943  42.794  30.774   5.154
52415W        W23944  41.076  44.251  14.654
52416W        W23945   8.623  23.408   3.186
52417W        W23946  13.731  14.836   2.446
52418W        W23947   7.214  26.336  13.880
52419W        W23948  20.256   3.649  10.485
52420W        W23949  27.846  42.512   2.140
52421W        W23950  23.384  16.035  10.750
52422W        W23951  30.125  23.089   3.737
52423W        W23952  25.243   1.407   2.512
52424W        W23953  41.165  12.589   1.387
52425W        W23954  22.678  43.865  10.745
52426W        W23955  31.618  16.287  10.771
52427W        W23956  42.055  34.339  11.057
52428W        W23957  24.879   6.849  14.465
52429W        W23958  31.573  21.777   0.237
52430W        W23959  20.578   8.451  12.054
52431W        W23960  41.799  40.295  10.785
52432W        W23961  25.193  29.800  12.709
52433W        W23962  17.860  13.148   2.192
52434W        W23963  18.686  24.518   4.391
52435W        W23964  15.819  43.180   4.050
52436W        W23965  42.675  39.121   1.347
52437W        W23966  23.707  33.757  11.188
52438W        W23967  38.834  41.867  12.040
52439W        W23968  36.552  39.303   3.814
52440W        W23969  15.130   8.002  11.596
52441W        W23970  44.765  17.346   4.582
52442W        W23971  22.204  21.053  13.841
52443W        W23972  32.118  15.854  13.966
52444W        W23973  27.741  20.659   2.331
52445W        W23974  22.037  29.144   0.244
52446W        W23975  23.489  30.629  14.286
52447W        W23976   1.448  14.203   0.686
52448W        W23977  29.077  22.216   4.741
52449W        W23978  34.964  19.759   4.070
52450W        W23979  32.348  42.402   2.903
52451W        W23980  24.262   4.755  12.068
52452W        W23981  27.523   0.163   1.896
52453W        W23982  38.657  28.544  11.094
52454W        W23983  22.527  13.710  14.461
52455W        W23984  19.456  17.372   3.369
52456W        W23985  36.102  44.333   4.269
52457W        W23986  20.146  20.642   4.454
52458W        W23987  38.258  43.655   1.364
52459W        W23988  34.062  42.436  13.369
52460W        W23989  16.679  12.809  13.542
52461W        W23990  14.936  35.299   4.585
52462W        W23991  35.029  37.010   4.297
52463W        W23992   1.781  12.341   1.807
52464W        W23993  33.536  14.961   2.852
52465W        W23994  16.014  24.457   3.123
52466W        W23995  35.919   7.855   2.932
52467W        W23996  19.091  39.661  10.830
52468W        W23997   2.822  38.904  10.960
52469W        W23998  32.857  30.516  14.909
52470W        W23999   9.458  19.254   3.098
52471W        W24000  34.039  31.315  14.964
52472W        W24001  28.013  40.012  13.556
52473W        W24002   4.845  44.403   2.008
52474W        W24003  43.359  44.669   2.180
52475W        W24004   8.688   8.926  14.412
52476W        W24005   5.311  42.189   2.214
52477W        W24006  37.551  13.117   4.220
52478W        W24007  16.717  30.195  10.830
52479W        W24008  15.180   7.282  11.428
52480W        W24009   6.963  18.913  11.117
52481W        W24010  43.421   2.175   0.690
52482W        W24011  31.581  33.851  14.793
52483W        W24012   5.996  39.276  10.575
52484W        W24013  29.809  15.163   2.629
52485W        W24014   7.886  21.766  12.931
52486W        W24015   7.847   0.876   0.455
52487W        W24016  32.563  41.533   2.341
52488W        W24017  24.804  17.110   4.423
52489W        W24018  31.453  24.829   3.070
52490W        W24019  33.012  33.417  13.288
52491W        W24020  44.948  20.093  12.910
52492W        W24021  40.075  35.781   4.722
52493W        W24022  33.648   4.763   0.779
52494W        W24023  18.326  27.017  12.973
52495W        W24024  26.897  21.243   2.954
52496W        W24025   2.900  18.313   0.862
52497W        W24026   3.828  26.029   0.770
52498W        W24027  35.582  18.405  12.040
52499W        W24028  17.011  30.469  14.906
52500W        W24029  23.975  34.701  11.213
52501W        W24030  26.723  13.541  14.514
52502W        W24031  11.339   6.451   1.873
52503W        W24032   3.779  10.341  11.938
52504W        W24033   8.691  29.609   3.583
52505W        W24034  24.004   1.477  11.416
52506W        W24035   0.213   7.651  14.142
52507W        W24036  36.909   1.033  12.991
52508W        W24037  31.885  32.421  12.428
52509W        W24038  18.367  27.514  10.846
52510W        W24039  28.456  31.490   0.424
52511W        W24040  29.153  11.625   3.697
52512W        W24041  44.394  12.187  13.343
52513W        W24042  30.248  21.274   0.783
52514W        W24043  37.740  26.057  13.332
52515W        W24044  18.580  12.149  12.899
52516W        W24045  37.692  43.081  11.460
52517W        W24046  29.688  15.875   1.388
52518W        W24047  44.315   1.337  11.641
52519W        W24048  37.745  26.557   0.722
52520W        W24049   5.919  23.085  14.813
52521W        W24050  42.227  39.545   4.846
52522W        W24051  16.760  32.070  11.675
52523W        W24052  23.986  44.082  12.051
52524W        W24053  44.454  20.165  10.219
52525W        W24054  35.560   6.862   2.921
52526W        W24055   4.268   5.693  14.407
52527W        W24056   0.970   3.860  13.427
52528W        W24057  44.257  38.409   3.414
52529W        W24058  43.626  31.795   0.667
52530W        W24059  19.033   2.376   0.909
52531W        W24060   6.385   5.197   0.225
52532W        W24061   5.221  39.499  12.492
52533W        W24062  11.115  37.135  14.753
52534W        W24063  34.571  15.143  12.091
52535W        W24064   4.182   2.792  11.642
52536W        W24065   9.135  28.772  11.993
52537W        W24066  39.084  26.501  13.310
52538W        W24067  41.747  42.370  10.738
52539W        W24068  24.006   8.701   0.368
52540W        W24069   5.155  30.105   0.875
52541W        W24070  35.651  32.820  11.206
52542W        W24071   4.423  15.793   2.207
52543W        W24072  39.252  36.824   3.188
52544W        W24073   6.037  14.312   0.206
52545W        W24074  33.633  27.589   0.656
52546W        W24075  32.021   0.360  14.302
52547W        W24076   9.316   6.755   4.831
52548W        W24077  23.490  10.454  13.469
52549W        W24078   3.582  21.718  13.893
52550W        W24079  20.161  29.458   3.619
52551W        W24080   8.420  37.591   1.072
52552W        W24081   6.799   3.547  14.267
52553W        W24082   0.486  17.661  14.378
52554W        W24083  11.842  18.321   4.643
52555W        W24084  29.051  35.638   1.667
52556W        W24085   4.749  40.398   3.739
52557W        W24086  27.081   5.454   1.252
52558W        W24087  39.787  20.295   0.837
52559W        W24088  24.307   9.745  12.110
52560W        W24089   0.328  14.773   3.213
52561W        W24090   4.797   9.808  12.177
52562W        W24091  13.326  20.532   1.570
52563W        W24092  13.777  39.811   0.382
52564W        W24093  19.668  33.712   4.559
52565W        W24094  15.713  41.817  12.950
52566W        W24095  29.848  18.525   1.307
52567W        W24096  35.854  28.474   2.226
52568W        W24097  10.884  37.628  13.370
52569W        W24098  36.809  35.360   0.853
52570W        W24099  15.701  40.550   3.641
52571W        W24100   9.469   4.362   3.569
52572W        W24101  29.513   4.814   4.075
52573W        W24102  27.379  22.196  10.869
52574W        W24103  16.370  44.240   0.339
52575W        W24104  16.257  32.474   3.914
52576W        W24105  25.660  26.173  14.773
52577W        W24106  42.374  25.708   1.434
52578W        W24107  31.879   0.043  14.922
52579W        W24108   9.117  18.387   0.398
52580W        W24109  31.432  15.711   1.263
52581W        W24110  33.347  27.681  10.622
52582W        W24111  14.281   4.871   1.943
52583W        W24112   6.184  31.916  14.342
52584W        W24113  14.693  33.915   4.480
52585W        W24114  37.848  30.042   2.781
52586W        W24115  19.505  14.079  12.117
52587W        W24116   4.020  26.600   0.417
52588W        W24117  31.525  10.755   4.168
52589W        W24118  42.782  34.504   0.053
52590W        W24119  39.569  24.096   4.509
52591W        W24120  28.117  25.584  12.905
52592W        W24121  16.250  32.556   4.442
52593W        W24122  44.149  38.424  11.669
52594W        W24123  41.240  27.533  14.254
52595W        W24124  32.075  21.117  13.839
52596W        W24125  36.420  27.443  14.904
52597W        W24126  26.463  12.175  12.004
52598W        W24127   4.736  44.794  10.998
52599W        W24128  36.556  31.913   0.920
52600W        W24129  33.659   6.778  12.148
52601W        W24130  12.881   8.400   1.465
52602W        W24131  29.435  40.043   2.409
52603W        W24132  10.086  24.919   5.009
52604W        W24133   8.852  17.299   0.865
52605W        W24134  30.118   0.708   3.396
52606W        W24135   3.999  35.647  14.569
52607W        W24136  11.660  13.206   3.894
52608W        W24137  16.695  23.500   3.116
52609W        W24138  12.379   0.574   3.223
52610W        W24139  31.491  30.691   4.946
52611W        W24140  27.487  36.618   0.738
52612W        W24141  38.427  39.059  14.425
52613W        W24142  35.974   5.612   3.481
52614W        W24143  36.809  41.593  13.077
52615W        W24144  16.452  31.059  10.325
52616W        W24145  40.403   8.684   0.221
52617W        W24146   5.454  41.926   2.876
52618W        W24147  42.272   7.870   1.743
52619W        W24148  35.767  20.856   0.302
52620W        W24149  28.310  32.907   3.758
52621W        W24150  11.939  11.179   2.229
52622W        W24151  44.631   4.275  10.182
52623W        W24152   4.480  15.059   4.164
52624W        W24153  41.971  23.322   1.889
52625W        W24154  39.135  41.079  10.736
52626W        W24155   6.795  29.547  14.363
52627W        W24156  29.119   6.925   2.802
52628W        W24157  27.991   0.001  13.342
52629W        W24158  34.879  39.251   1.868
52630W        W24159  25.601  10.070  14.993
52631W        W24160  23.801   9.303  11.678
52632W        W24161  27.538  39.912   2.046
52633W        W24162   5.148   5.455  13.180
52634W        W24163  25.904  23.102   3.354
52635W        W24164  26.739   1.376   2.297
52636W        W24165  33.948  19.089  14.260
52637W        W24166  41.568   1.989   3.660
52638W        W24167  32.331  25.777   0.823
52639W        W24168  23.050  36.581   4.199
52640W        W24169  14.709  12.901  12.093
52641W        W24170  13.402  36.976   3.172
52642W        W24171   7.294  42.058  10.647
52643W        W24172  29.924  43.034  11.972
52644W        W24173  11.121  42.106   0.898
52645W        W24174  32.909  35.625   3.369
52646W        W24175  29.908  14.681   3.760
52647W        W24176  28.609  43.273   4.673
52648W        W24177  40.566  30.918  10.289
52649W        W24178  38.733   6.346   3.995
52650W        W24179  42.474   9.240  13.343
52651W        W24180  21.744   7.625   1.773
52652W        W24181   5.376  17.322  14.983
52653W        W24182   5.543  22.744   4.635
52654W        W24183   3.028  41.420   3.988
52655W        W24184  41.265  33.258   3.110
52656W        W24185  43.288  26.123  12.124
52657W        W24186   6.152  35.457   4.066
52658W        W24187   2.009  18.218   2.104
52659W        W24188  19.750  17.789   3.462
52660W        W24189  25.694  41.048  12.761
52661W        W24190  37.313   3.239   2.292
52662W        W24191  31.103   9.975   1.405
52663W        W24192  43.523   0.693   2.305
52664W        W24193  39.527  20.492  13.477
52665W        W24194  38.355  41.030  12.145
52666W        W24195  44.858   6.672  14.913
52667W        W24196  19.775  16.355   0.218
52668W        W24197  37.011  19.092  12.546
52669W        W24198  38.338  29.646  10.736
52670W        W24199  29.131  30.029  11.685
52671W        W24200  19.404  41.149   3.531
52672W        W24201  27.411  36.518  12.549
52673W        W24202  41.755  44.937   3.365
52674W        W24203  24.228  30.736   2.249
52675W        W24204  29.047  17.603  12.142
52676W        W24205  34.248  41.284   2.736
52677W        W24206  41.768  14.200   0.511
52678W        W24207  31.558  25.347   3.071
52679W        W24208   3.472  36.595  12.849
52680W        W24209   4.769  44.290   0.960
52681W        W24210  29.577  17.277   0.719
52682W        W24211  23.656  40.253  13.276
52683W        W24212   8.238  36.520   0.285
52684W        W24213  28.421  17.087  12.600
52685W        W24214  14.172   3.884   1.985
52686W        W24215  35.334  19.543  10.642
52687W        W24216  19.534   5.427   2.298
52688W        W24217  16.227  31.260   0.305
52689W        W24218  43.301  26.171   1.450
52690W        W24219  42.326  15.733  13.831
52691W        W24220   2.979  39.908  13.381
52692W        W24221  22.220  24.450   3.271
52693W        W24222  26.984  21.914  10.693
52694W        W24223   3.394  10.326  13.355
52695W        W24224  16.165  29.682  10.496
52696W        W24225  25.721  44.553  11.415
52697W        W24226   9.909  12.942  11.546
52698W        W24227  36.360  39.278   3.317
52699W        W24228   1.470   7.892   2.859
52700W        W24229  37.438  29.061  12.619
52701W        W24230   9.436  32.881   2.162
52702W        W24231  13.061  19.217   1.827
52703W        W24232  23.685   4.628   3.661
52704W        W24233  15.422  25.740   3.782
52705W        W24234   6.772  31.510  12.819
52706W        W24235  27.418   3.401   0.892
52707W        W24236  22.522  32.444   2.391
52708W        W24237  15.170  33.303   4.862
52709W        W24238  30.386   1.746   0.491
52710W        W24239   4.609  35.796  14.807
52711W        W24240   1.014  41.797  14.374
52712W        W24241  38.108  33.340  11.690
52713W        W24242  33.142  12.188   1.698
52714W        W24243  30.975   0.169   4.228
52715W        W24244  44.394  35.587  12.556
52716W        W24245  37.479  37.285  13.882
52717W        W24246   5.406  42.711   2.271
52718W        W24247  25.188   1.527   3.564
52719W        W24248  12.921  27.486   4.859
52720W        W24249   4.297  42.437   2.897
52721W        W24250   8.761  38.693   4.153
52722W        W24251  28.046  43.981   3.482
52723W        W24252  41.419  41.999   0.469
52724W        W24253  41.813   4.393  13.188
52725W        W24254  26.552  30.455  14.870
52726W        W24255   0.436  22.763   1.402
52727W        W24256  17.338  35.178   0.967
52728W        W24257  29.415  27.788  12.847
52729W        W24258  38.494  17.200  13.054
52730W        W24259  44.483  44.536   1.374
52731W        W24260  43.491  21.132  14.323
52732W        W24261  41.806   1.252   3.603
52733W        W24262   1.254   1.982   2.811
52734W        W24263  11.146  41.915  14.398
52735W        W24264  37.795  25.601   3.691
52736W        W24265  39.380   5.808  12.141
52737W        W24266   7.781  42.013   1.784
52738W        W24267   8.378  11.244  14.067
52739W        W24268   8.252  41.196  11.805
52740W        W24269  44.961  36.284  14.804
52741W        W24270   6.845  18.132   1.968
52742W        W24271   3.767  43.768  13.159
52743W        W24272  15.651  40.171  11.556
52744W        W24273  14.428   7.626  11.131
52745W        W24274  29.629  44.133  13.002
52746W        W24275  26.634   3.777  13.421
52747W        W24276   6.991  23.980   0.847
52748W        W24277   2.757  14.758  10.603
52749W        W24278  27.617   3.420  12.323
52750W        W24279  36.515  44.802  14.563
52751W        W24280  22.540  44.017  14.064
52752W        W24281  33.012  15.181  10.892
52753W        W24282   3.560  35.062   2.888
52754W        W24283  11.106  26.004  12.975
52755W        W24284  31.039  34.973  13.312
52756W        W24285  11.706  10.369   2.847
52757W        W24286  24.488  31.642  13.302
52758W        W24287  30.316  34.360  11.166
52759W        W24288  35.838  24.225   4.082
52760W        W24289  36.621   5.882  10.251
52761W        W24290   7.205   1.376   4.576
52762W        W24291  11.782  15.689  11.574
52763W        W24292   2.642  17.085  10.453
52764W        W24293  14.588  31.021  11.097
52765W        W24294  20.298  35.394   4.556
52766W        W24295  27.289  14.785  10.613
52767W        W24296  33.477  38.236  12.109
52768W        W24297  33.881   7.507   4.595
52769W        W24298   5.437  38.882   1.397
52770W        W24299   6.887  21.500   2.007
52771W        W24300  17.025  31.578  11.748
52772W        W24301   3.358  32.702  14.481
52773W        W24302  29.418   4.155   1.386
52774W        W24303  33.930  40.257  11.108
52775W        W24304  40.349  31.563   1.221
52776W        W24305  26.609  29.916   3.341
52777W        W24306  26.521   3.363   3.463
52778W        W24307   6.259   4.368   4.553
52779W        W24308  21.285  11.395  11.443
52780W        W24309  27.029  31.543  14.353
52781W        W24310  24.024  17.058   3.309
52782W        W24311   4.767  42.714   4.009
52783W        W24312  39.839  33.655   3.363
52784W        W24313  12.325  26.317   2.836
52785W        W24314  35.887  27.540  13.743
52786W        W24315  11.548  18.674   5.263
52787W        W24316   0.461   6.623  13.735
52788W        W24317  38.957  24.270   1.144
52789W        W24318   1.027  31.754  13.471
52790W        W24319  26.173  29.190   1.277
52791W        W24320   9.116  24.005   2.748
52792W        W24321  17.492  25.086  12.089
52793W        W24322   6.520  21.584  11.517
52794W        W24323  10.237  18.067  13.257
52795W        W24324  42.817   7.830  13.877
52796W        W24325  40.597   2.085  11.655
52797W        W24326  35.147   7.214   4.144
52798W        W24327  11.918   7.919  12.919
52799W        W24328  29.834  34.929   2.911
52800W        W24329  35.983   4.534   2.496
52801W        W24330   9.517  28.811   4.376
52802W        W24331  42.307  12.541  14.870
52803W        W24332  33.568  31.110  12.894
52804W        W24333  38.867   9.215   1.472
52805W        W24334  22.217  44.541   4.351
52806W        W24335  37.299  14.404   4.496
52807W        W24336  10.767  43.695  12.990
52808W        W24337  18.765  20.298   4.931
52809W        W24338  12.908  33.866  13.541
52810W        W24339  33.126  12.105   3.795
52811W        W24340  17.633  23.010  14.847
52812W        W24341  18.637  11.098  12.890
52813W        W24342  25.866   8.171  13.927
52814W        W24343   0.220   5.866   4.638
52815W        W24344  25.003  36.906   1.972
52816W        W24345  37.344  39.314  14.005
52817W        W24346  42.269  34.084   1.309
52818W        W24347  41.755  15.118   1.654
52819W        W24348  36.997  40.774   0.384
52820W        W24349  42.002  39.516  12.415
52821W        W24350   1.041  37.703   2.313
52822W        W24351  32.902   9.272  13.479
52823W        W24352  35.966  12.612  13.446
52824W        W24353   7.047   9.409  11.499
52825W        W24354   5.722  24.090  13.170
52826W        W24355   1.707  25.322   2.319
52827W        W24356  38.345  39.571   2.185
52828W        W24357   0.786  43.531  13.481
52829W        W24358  20.756   6.627   1.875
52830W        W24359  15.074   2.271   4.245
52831W        W24360  34.574  23.014   0.153
52832W        W24361  15.700  13.665  14.307
52833W        W24362  33.294  19.030   4.209
52834W        W24363  32.759   2.783   1.780
52835W        W24364  23.663  15.457   0.371
52836W        W24365  13.545   0.776  13.417
52837W        W24366  27.184   5.964  14.396
52838W        W24367   9.283   1.247   4.540
52839W        W24368  42.211  28.796   4.111
52840W        W24369   2.509   1.874   2.268
52841W        W24370  23.682  14.215   0.716
52842W        W24371  16.811  39.442  14.752
52843W        W24372  33.024  18.078   1.237
52844W        W24373  22.741   0.857  10.909
52845W        W24374  41.043  41.375  10.709
52846W        W24375  34.288  33.088   3.353
52847W        W24376   0.096   6.813   3.955
52848W        W24377  12.086  36.449   4.220
52849W        W24378   7.247   3.417  11.595
52850W        W24379  44.416  11.157   2.019
52851W        W24380  18.057   0.312  11.111
52852W        W24381  38.887  23.984   0.277
52853W        W24382   2.527  39.357   0.126
52854W        W24383  35.787  41.650   3.227
52855W        W24384   6.188   8.442  14.159
52856W        W24385   3.816  38.950   3.064
52857W        W24386  24.210   4.774   1.422
52858W        W24387   8.300  18.745   0.745
52859W        W24388   7.552   1.822   1.944
52860W        W24389  31.613  42.455   1.281
52861W        W24390  10.611  33.512  14.471
52862W        W24391  24.698  24.775   0.929
52863W        W24392  39.332  13.217   4.591
52864W        W24393  16.878   1.449   2.904
52865W        W24394  32.826  23.550  14.977
52866W        W24395  31.575  39.774   3.648
52867W        W24396   7.528  10.817  13.758
52868W        W24397  17.181  32.362  14.976
52869W        W24398   8.690  32.135   1.414
52870W        W24399  27.487  12.780   1.805
52871W        W24400  40.587  20.226   2.123
52872W        W24401  31.581  34.873  13.282
52873W        W24402  23.605   8.748  14.995
52874W        W24403   8.649  37.834  10.758
52875W        W24404   3.214  40.676   0.664
52876W        W24405   6.398  26.119   1.805
52877W        W24406  38.884  22.073  10.198
52878W        W24407  42.467   8.412   3.151
52879W        W24408  23.001  15.516  13.355
52880W        W24409  22.198  11.760  13.863
52881W        W24410   0.926  12.369   1.394
52882W        W24411  17.969  10.427  14.755
52883W        W24412  32.605  25.991   3.483
52884W        W24413  25.143   6.529  11.758
52885W        W24414  40.359  15.615  12.114
52886W        W24415  38.312  42.126   3.664
52887W        W24416  27.089  27.940  10.165
52888W        W24417  44.994  39.795  11.145
52889W        W24418  33.077   4.720  13.076
52890W        W24419  15.859  24.144  12.967
52891W        W24420  35.393  37.836   0.386
52892W        W24421  24.214  12.386   1.930
52893W        W24422  34.392   6.205   3.447
52894W        W24423  31.422  36.940  13.630
52895W        W24424  22.487  32.518   3.939
52896W        W24425  19.587  36.201   3.711
52897W        W24426   8.916  37.522   3.353
52898W        W24427  33.549  39.294  10.380
52899W        W24428  20.696  15.855  14.418
52900W        W24429  20.059  40.597   3.401
52901W        W24430  30.956  17.975  13.004
52902W        W24431  37.036  15.057  10.661
52903W        W24432  26.111   8.901   0.936
52904W        W24433  15.206   6.042  10.731
52905W        W24434   7.659  41.259   5.046
52906W        W24435  21.998  42.409   5.412
52907W        W24436   2.485  34.686   1.393
52908W        W24437   3.343  15.159  13.125
52909W        W24438  33.548  40.034   3.853
52910W        W24439  33.934   1.457  14.271
52911W        W24440  17.574  14.388   0.442
52912W        W24441  19.576  38.905   5.299
52913W        W24442   8.681   4.487  11.423
52914W        W24443  16.221  18.134   3.225
52915W        W24444  23.923  28.474  13.002
52916W        W24445  13.966  38.548   0.530
52917W        W24446   7.589  40.194  11.923
52918W        W24447  28.986  16.989  13.908
52919W        W24448  14.471  16.257   0.872
52920W        W24449   1.091  11.752   0.819
52921W        W24450  34.488  41.996   0.479
52922W        W24451   5.891  44.272  14.642
52923W        W24452  41.513  39.992  10.483
52924W        W24453  10.591  15.254   1.185
52925W        W24454  34.886  26.666  11.671
52926W        W24455  20.562   0.523   0.899
52927W        W24456  43.620  10.619  13.394
52928W        W24457  16.343  32.929  10.762
52929W        W24458   6.409   7.847   2.096
52930W        W24459   3.440  16.804   0.012
52931W        W24460   4.848  26.798  12.454
52932W        W24461  34.458   6.359   0.577
52933W        W24462   0.463  14.152  12.456
52934W        W24463   9.833  29.652  11.973
52935W        W24464  24.920   1.260  12.324
52936W        W24465  44.007  14.730  10.731
52937W        W24466   8.119  30.232   0.495
52938W        W24467  24.513  25.639  10.822
52939W        W24468  21.281  10.005   4.491
52940W        W24469  23.416  34.193  11.126
52941W        W24470  38.802  18.789   0.681
52942W        W24471  32.160  22.558   2.718
52943W        W24472   6.757  12.831  10.747
52944W        W24473  14.635  16.713  10.959
52945W        W24474  44.595  23.451   1.268
52946W        W24475  43.867  16.837  11.981
52947W        W24476  40.329   3.474  10.805
52948W        W24477  34.354  24.518  13.562
52949W        W24478  20.037  10.367  12.986
52950W        W24479   6.393  19.246   4.071
52951W        W24480  21.428  19.721  13.937
52952W        W24481   9.257  26.523   1.775
52953W        W24482   8.785  40.073  11.148
52954W        W24483  42.753  19.784   0.623
52955W        W24484   0.075  23.320   1.920
52956W        W24485  10.672  21.232  11.636
52957W        W24486  18.203   0.275   1.642
52958W        W24487  25.719   5.827  13.128
52959W        W24488  32.984  12.148   2.711
52960W        W24489  11.825   1.285  12.768
52961W        W24490  14.771  27.604   0.059
52962W        W24491  31.412   4.201   2.141
52963W        W24492   8.227  37.062   0.191
52964W        W24493  30.540  32.925   3.670
52965W        W24494   3.892   3.263  13.866
52966W        W24495  20.422   9.013   2.408
52967W        W24496  10.568  31.267   2.348
52968W        W24497  39.322  35.670   1.220
52969W        W24498  33.670  18.152  14.102
52970W        W24499  37.321  25.640  12.556
52971W        W24500   4.938  43.035   3.162
52972W        W24501   0.951   4.344  12.226
52973W        W24502  34.399  12.868   0.288
52974W        W24503  32.968  34.546  13.380
52975W        W24504  16.004   6.746  12.328
52976W        W24505  36.057   5.843  14.963
52977W        W24506  38.204   6.200  11.887
52978W        W24507  41.508  44.105  14.337
52979W        W24508  33.359  24.123   1.792
52980W        W24509   9.725  31.498   1.216
52981W        W24510  34.035  10.570   3.573
52982W        W24511   6.263  40.073   2.283
52983W        W24512   5.321  30.997  13.168
52984W        W24513  21.971  27.378  10.593
52985W        W24514  28.680  24.142  10.650
52986W        W24515  36.015  10.780  14.868
52987W        W24516   0.926  38.150  14.827
52988W        W24517  44.021  23.285   3.191
52989W        W24518  13.522   2.612  11.460
52990W        W24519  10.764   8.371  14.301
52991W        W24520   3.404  41.132  10.691
52992W        W24521  33.593  32.461  12.913
52993W        W24522  12.846   9.722  12.325
52994W        W24523  14.235  38.479  13.123
52995W        W24524  16.287   4.987  13.152
52996W        W24525  27.088   8.875  10.694
52997W        W24526  38.408   7.978   0.288
52998W        W24527   4.566  19.804   4.965
52999W        W24528  28.978  18.156  13.954
53000W        W24529  43.947   9.328  12.969
53001W        W24530  16.829  42.745  12.515
53002W        W24531  12.503  25.023   2.611
53003W        W24532  26.894  43.254   2.648
53004W        W24533  30.972  31.725   4.150
53005W        W24534   0.420   1.817  12.622
53006W        W24535  28.384  28.868   3.825
53007W        W24536  41.632  12.845   1.360
53008W        W24537  40.154  31.752  11.625
53009W        W24538   3.849  33.724  12.573
53010W        W24539  16.720   2.372  12.618
53011W        W24540  16.967  29.952   4.098
53012W        W24541   7.266   0.851  12.077
53013W        W24542  30.786  13.486  10.956
53014W        W24543  31.467   3.789  12.054
53015W        W24544  14.144  24.149   4.730
53016W        W24545   6.419  13.839   1.697
53017W        W24546  35.670  21.061  13.417
53018W        W24547   7.210  37.955   1.838
53019W        W24548  17.541  34.355   4.388
53020W        W24549  27.274  16.021   5.056
53021W        W24550  11.790  32.888  11.958
53022W        W24551  40.003  33.605  12.016
53023W        W24552  39.482   7.807  12.493
53024W        W24553  26.923  17.762  11.601
53025W        W24554  26.198  39.759   1.948
53026W        W24555  31.812  36.064   1.008
53027W        W24556  16.322   9.628  14.844
53028W        W24557  23.606  41.090   0.740
53029W        W24558  34.910   6.111  13.006
53030W        W24559  39.548  34.178  14.962
53031W        W24560   8.917  12.753   1.273
53032W        W24561  32.216  23.745   0.872
53033W        W24562   8.823  15.605   1.850
53034W        W24563   8.814  12.063   3.822
53035W        W24564  38.847  25.993  11.118
53036W        W24565  26.489  19.602  10.899
53037W        W24566   9.809  16.341  12.826
53038W        W24567  19.087  22.680  13.435
53039W        W24568   4.279  28.236  13.476
53040W        W24569  14.036  37.371  11.028
53041W        W24570  15.310  17.150   2.353
53042W        W24571  33.460  43.362   5.155
53043W        W24572   7.482   4.720  13.315
53044W        W24573  36.393  29.210  13.468
53045W        W24574  33.941  23.035   1.019
53046W        W24575  32.334  14.352  13.252
53047W        W24576  22.473  18.324   3.717
53048W        W24577  15.029  41.922   0.685
53049W        W24578   3.499  28.980  14.523
53050W        W24579  19.739   6.026  12.962
53051W        W24580  22.216  14.086   2.112
53052W        W24581  37.980  29.693   4.157
53053W        W24582  15.351  37.865   4.078
53054W        W24583  21.319   7.652  13.960
53055W        W24584  11.026  24.662  11.206
53056W        W24585   6.839  41.826  11.470
53057W        W24586  10.350   3.552   3.908
53058W        W24587  30.465  40.801   0.521
53059W        W24588  10.098  22.262   2.856
53060W        W24589  10.298  29.951   4.116
53061W        W24590   7.849  40.076   0.344
53062W        W24591   1.342  28.514   4.527
53063W        W24592  17.068  13.546   4.631
53064W        W24593  38.559  19.642  12.890
53065W        W24594   0.618  42.299   0.903
53066W        W24595   0.500   6.316   1.722
53067W        W24596  23.230  11.189  14.407
53068W        W24597   7.721  12.297   0.955
53069W        W24598   0.869  10.747   3.700
53070W        W24599   5.795   1.450   0.003
53071W        W24600   1.728  28.261   4.275
53072W        W24601  23.397   7.116  14.515
53073W        W24602   3.258  16.678   1.456
53074W        W24603  14.803   1.257   2.616
53075W        W24604  29.491  27.604   2.432
53076W        W24605  43.830  41.370  11.612
53077W        W24606  43.029  10.886   1.162
53078W        W24607  23.572   9.762  13.995
53079W        W24608   2.382  32.420  11.593
53080W        W24609  36.432   5.762   4.624
53081W        W24610   7.198   4.951  10.626
53082W        W24611  33.570  11.856   3.711
53083W        W24612  30.617  38.473  14.911
53084W        W24613  18.067  25.174   3.654
53085W        W24614  31.481  22.683   4.561
53086W        W24615  12.311  27.570   3.166
53087W        W24616   6.706  22.631  11.358
53088W        W24617  43.673   8.480   1.236
53089W        W24618  20.460  21.353  11.168
53090W        W24619  39.878   2.320  14.058
53091W        W24620  38.811  30.140   0.917
53092W        W24621   4.295  36.096  13.864
53093W        W24622  37.852  31.428   3.710
53094W        W24623  30.105  16.199  14.868
53095W        W24624  31.942  38.475  11.744
53096W        W24625  17.530  30.198  14.225
53097W        W24626  35.541  15.830   4.012
53098W        W24627  22.543  13.093  11.563
53099W        W24628  39.020   6.432  10.682
53100W        W24629   6.374  23.697  12.033
53101W        W24630  20.992  21.776  12.487
53102W        W24631   8.299  27.104  13.740
53103W        W24632  29.386  34.604   3.810
53104W        W24633  14.535   8.170   0.226
53105W        W24634  18.686  10.408   4.102
53106W        W24635  31.386  11.940   2.625
53107W        W24636   3.841  24.057  14.443
53108W        W24637  28.205   5.836  11.050
53109W        W24638   9.697  20.679  12.830
53110W        W24639  11.682  26.365  14.195
53111W        W24640  31.512  30.356  12.904
53112W        W24641   5.685  22.253   3.350
53113W        W24642  34.062  39.952   3.807
53114W        W24643  32.949  42.879   0.211
53115W        W24644   6.876  44.361   0.436
53116W        W24645   1.066  31.419   1.973
53117W        W24646  40.486  32.105  13.284
53118W        W24647  31.714   3.735  12.620
53119W        W24648  43.219  31.032  10.822
53120W        W24649  38.979  29.294   0.472
53121W        W24650  12.660  20.170  10.992
53122W        W24651   4.819   1.502   5.102
53123W        W24652   3.603   0.255   3.685
53124W        W24653  16.247   4.041   4.714
53125W        W24654   9.670  26.501  11.438
53126W        W24655  29.333  22.684  10.732
53127W        W24656   0.882  30.751   5.301
53128W        W24657  22.023  40.551   2.774
53129W        W24658  19.599  35.678  13.616
53130W        W24659  21.648   0.419  11.586
53131W        W24660  13.563  35.229   5.061
53132W        W24661  42.291  42.954   4.521
53133W        W24662  10.060  14.688  14.269
53134W        W24663  16.126  29.751   3.528
53135W        W24664   9.471  33.089  13.762
53136W        W24665  28.286  16.266  10.909
53137W        W24666  31.417  42.897   5.042
53138W        W24667  10.828  32.467  14.174
53139W        W24668  17.394  42.740  11.981
53140W        W24669  38.759  20.154   0.881
53141W        W24670  33.563  17.134  11.150
53142W        W24671  20.195  31.383   3.168
53143W        W24672  19.390  30.504   3.170
53144W        W24673  25.383  33.945  10.417
53145W        W24674   7.414  35.124  12.442
53146W        W24675   4.493  29.387   1.353
53147W        W24676  20.150   8.912  10.650
53148W        W24677  33.558  33.064  10.604
53149W        W24678   6.119  19.686   2.384
53150W        W24679  38.383  30.387   0.032
53151W        W24680  20.590  32.529   0.433
53152W        W24681  25.380  39.503  11.934
53153W        W24682  21.726  44.499   4.600
53154W        W24683   5.733  27.316   2.302
53155W        W24684  16.477  44.236   1.369
53156W        W24685  35.024  31.444  14.793
53157W        W24686   4.832  37.578  12.533
53158W        W24687  18.733  42.083  11.196
53159W        W24688   5.740  28.498  12.552
53160W        W24689  12.287  41.916   4.086
53161W        W24690  42.399   5.937   0.186
53162W        W24691  13.857  35.903  12.908
53163W        W24692  20.528  40.798   2.819
53164W        W24693   5.070  14.188  10.652
53165W        W24694  22.252  44.913  11.034
53166W        W24695  33.789  16.586   2.247
53167W        W24696  20.166   4.412  14.847
53168W        W24697   2.782  41.434   4.460
53169W        W24698  30.635  29.966  11.546
53170W        W24699   8.184  32.372  14.755
53171W        W24700   5.300  32.739   3.163
53172W        W24701  35.086  36.281   3.842
53173W        W24702  41.605  34.475  13.564
53174W        W24703   2.654  19.198   1.870
53175W        W24704  43.689   9.758  12.085
53176W        W24705  26.327   3.855   4.780
53177W        W24706  38.460   2.297  13.742
53178W        W24707  42.022  16.672   1.250
53179W        W24708   3.697   9.916  11.068
53180W        W24709  36.030  36.024   1.209
53181W        W24710  18.985  43.228   3.086
53182W        W24711   8.944  17.020  10.125
53183W        W24712  37.942  23.056  14.724
53184W        W24713  13.172  10.240  10.142
53185W        W24714  32.943  21.057  14.401
53186W        W24715  14.283  29.720  13.836
53187W        W24716  39.741   5.299   0.994
53188W        W24717  28.655  30.651   3.806
53189W        W24718  32.451  20.089   4.946
53190W        W24719  10.779  22.193   1.037
53191W        W24720  11.818  32.991   1.882
53192W        W24721  25.674   6.598  12.198
53193W        W24722  21.838  26.809   4.505
53194W        W24723  40.438  10.741   3.850
53195W        W24724  27.019  24.810   1.622
53196W        W24725  38.653  28.076   2.389
53197W        W24726   2.291  38.940   1.252
53198W        W24727  35.337  19.204   3.685
53199W        W24728  38.839   9.610  10.094
53200W        W24729  17.423   7.999  10.314
53201W        W24730  14.616  12.223   2.466
53202W        W24731  15.541  36.968   0.012
53203W        W24732  33.806   7.487   3.639
53204W        W24733  36.834  40.823  11.514
53205W        W24734   2.724  40.440   0.736
53206W        W24735  27.656   9.297   4.095
53207W        W24736  30.462  17.384   2.249
53208W        W24737   0.075  34.035  14.419
53209W        W24738   5.372   7.504  14.837
53210W        W24739  28.498  25.660   3.179
53211W        W24740  31.240   7.740  13.303
53212W        W24741  11.254  22.887  11.942
53213W        W24742  12.881  34.514   0.196
53214W        W24743  18.675  38.981   5.005
53215W        W24744   9.011  37.020   3.220
53216W        W24745  39.527   0.193  12.589
53217W        W24746   5.731  36.907  14.082
53218W        W24747   0.818  25.510   4.560
53219W        W24748  28.708   6.958  13.996
53220W        W24749  36.305  29.471   3.589
53221W        W24750  28.502  16.942   1.399
53222W        W24751   0.195  29.468  14.004
53223W        W24752  21.239  29.418  14.266
53224W        W24753  44.031   7.879   4.924
53225W        W24754  20.214  26.715  13.836
53226W        W24755  22.644  15.978   1.396
53227W        W24756  19.660  26.515   0.562
53228W        W24757   3.630  31.403  11.121
53229W        W24758  13.595   5.359   4.579
53230W        W24759  22.158  28.416   2.855
53231W        W24760  31.721  23.123  13.994
53232W        W24761  33.528  31.886   4.185
53233W        W24762  24.324  17.754   2.784
53234W        W24763  43.657  24.023  14.817
53235W        W24764  30.524   8.425  12.952
53236W        W24765  38.812  18.803  14.274
53237W        W24766  42.287  14.230  12.074
53238W        W24767  33.039   3.464  12.359
53239W        W24768  29.554  16.421  11.101
53240W        W24769  21.796  26.027   3.140
53241W        W24770  16.294   2.967   3.623
53242W        W24771  12.615  19.549   4.838
53243W        W24772   1.870  41.117  13.021
53244W        W24773  11.661  17.668   0.727
53245W        W24774  23.640  34.927   3.082
53246W        W24775   4.797  10.661   3.141
53247W        W24776  34.349  43.072   1.343
53248W        W24777  36.923  36.284  11.122
53249W        W24778  13.203  17.762   2.115
53250W        W24779  37.668  26.553   3.213
53251W        W24780  41.415  38.883  11.541
53252W        W24781  36.028  39.978   0.534
53253W        W24782   7.798   5.639   4.401
53254W        W24783  24.721  22.966  11.491
53255W        W24784  38.843  31.252  14.896
53256W        W24785   3.721   2.395   3.388
53257W        W24786  10.273  21.157  12.170
53258W        W24787   8.539   0.819  11.251
53259W        W24788  39.322  12.341  10.648
53260W        W24789  18.204  40.369   4.652
53261W        W24790  25.018  40.925  12.194
53262W        W24791  19.263  32.580   2.284
53263W        W24792  18.655  13.539   2.731
53264W        W24793  16.095   1.841  11.941
53265W        W24794  33.493  37.405  13.727
53266W        W24795  39.904   9.776  12.942
53267W        W24796  32.398  22.846   4.257
53268W        W24797  11.978   1.014  11.440
53269W        W24798  26.631  15.788  14.447
53270W        W24799  12.139  20.770  14.172
53271W        W24800  14.161  20.697  13.220
53272W        W24801  23.967  38.280   4.331
53273W        W24802   7.251  24.232  12.374
53274W        W24803  42.436  23.589  11.923
53275W        W24804  43.371  30.653   1.878
53276W        W24805   1.236  43.107  10.448
53277W        W24806  20.413  11.160  12.079
53278W        W24807   8.899   7.745   3.382
53279W        W24808  29.151  22.311  13.072
53280W        W24809  31.627  25.895   1.018
53281W        W24810   5.716  31.842  12.907
53282W        W24811  40.354  11.656   0.380
53283W        W24812   8.750  44.914   0.881
53284W        W24813   4.299  38.312  14.588
53285W        W24814  25.481  28.365   3.606
53286W        W24815  42.383   5.144   4.397
53287W        W24816  36.014  19.069   0.448
53288W        W24817  39.811  21.561  10.568
53289W        W24818  26.026  23.180   2.207
53290W        W24819  42.447  27.678  13.004
53291W        W24820  20.647  27.089  12.165
53292W        W24821  42.949  12.187   1.785
53293W        W24822  37.179  26.183   2.655
53294W        W24823  20.991   5.810   3.865
53295W        W24824  24.656  34.909  11.053
53296W        W24825  24.267  39.433   0.730
53297W        W24826  10.122  20.555  14.913
53298W        W24827  20.020   5.549   2.181
53299W        W24828  25.704  37.468  12.490
53300W        W24829  11.900  30.671  13.591
53301W        W24830  16.611  42.513  11.518
53302W        W24831   5.537  44.403  12.007
53303W        W24832  19.837  25.486  11.026
53304W        W24833  40.719  29.491   3.673
53305W        W24834  10.701  31.109  13.133
53306W        W24835  20.052  13.994  11.130
53307W        W24836  15.366  27.024   3.849
53308W        W24837  28.245  18.709   1.861
53309W        W24838  33.010  14.653  12.102
53310W        W24839  43.198   9.850  12.133
53311W        W24840  10.409  42.030   1.380
53312W        W24841  35.063   7.507  12.949
53313W        W24842  14.196  26.109   0.424
53314W        W24843  23.203   3.501   0.932
53315W        W24844  17.741  21.588   0.711
53316W        W24845  35.532   0.276  11.373
53317W        W24846  22.692  21.501  14.682
53318W        W24847  26.314  31.336   1.549
53319W        W24848  40.008   9.644   4.222
53320W        W24849  23.714  19.054   2.303
53321W        W24850  16.971  10.316  14.833
53322W        W24851  32.053  28.443  10.235
53323W        W24852  34.894  37.808  14.930
53324W        W24853  34.464  27.404  14.926
53325W        W24854  34.757  44.460   3.187
53326W        W24855   7.895  18.664  12.960
53327W        W24856  20.664  34.857   1.230
53328W        W24857  26.853  19.162   0.208
53329W        W24858   0.428  31.478  11.081
53330W        W24859   4.711  13.816  10.719
53331W        W24860   4.573  28.874   1.445
53332W        W24861  34.599  16.566   1.304
53333W        W24862   9.600  37.031   2.294
53334W        W24863  35.881  33.823   4.062
53335W        W24864  24.234  15.190   1.417
53336W        W24865   5.975  35.377   2.258
53337W        W24866  35.315  16.695  12.187
53338W        W24867   4.197   1.663   4.286
53339W        W24868   3.372  33.068   4.228
53340W        W24869  42.401  33.478   3.310
53341W        W24870  44.952  29.000  13.867
53342W        W24871  11.424  34.980  11.662
53343W        W24872   9.498  19.742  12.325
53344W        W24873   7.700   3.864  10.735
53345W        W24874  11.043  23.280  11.676
53346W        W24875  12.150  42.964  14.248
53347W        W24876  34.438  22.917   0.652
53348W        W24877   5.793   3.009  13.349
53349W        W24878  40.622  13.823   4.450
53350W        W24879  23.064  10.350   1.497
53351W        W24880  23.680  23.567  10.971
53352W        W24881  15.273  24.335   1.476
53353W        W24882  32.623  15.707   1.894
53354W        W24883  18.031  15.030   1.541
53355W        W24884   6.701  27.266  14.933
53356W        W24885   4.754  30.584  13.775
53357W        W24886   6.855  21.258   5.319
53358W        W24887   4.580  22.823  10.864
53359W        W24888  27.642   4.420   4.555
53360W        W24889   0.673  39.643   2.415
53361W        W24890  41.751   8.497  11.480
53362W        W24891   1.860  30.016  11.816
53363W        W24892  38.298  17.633   3.127
53364W        W24893  17.073  19.868  10.680
53365W        W24894  38.994  18.543   0.248
53366W        W24895  43.063  43.338   1.847
53367W        W24896   9.627  26.337   4.259
53368W        W24897  32.714   9.720  12.014
53369W        W24898   2.526  19.563   5.039
53370W        W24899   3.262  40.386   4.857
53371W        W24900  22.243  34.049  12.644
53372W        W24901  28.990  20.804  12.989
53373W        W24902  38.246  44.005  14.904
53374W        W24903   5.701  37.085   1.861
53375W        W24904  16.513  31.394   1.681
53376W        W24905  20.182  30.912   2.956
53377W        W24906  34.578  10.293   2.796
53378W        W24907  29.932  15.595   0.478
53379W        W24908  33.059  35.506   0.304
53380W        W24909  21.116  39.378  13.459
53381W        W24910  43.916   0.418   2.053
53382W        W24911  12.743  15.788   3.819
53383W        W24912  31.469  24.271  11.637
53384W        W24913  42.433  33.397  12.461
53385W        W24914  17.156  14.693  12.515
53386W        W24915  27.168  44.380   1.291
53387W        W24916   2.002  28.173  11.174
53388W        W24917   7.821  17.675   2.711
53389W        W24918   5.978  20.133  10.206
53390W        W24919  39.331  43.140   9.980
53391W        W24920  36.822  18.008  10.882
53392W        W24921  13.034   7.147  12.348
53393W        W24922  21.636  41.825  14.289
53394W        W24923  28.278  13.791  10.721
53395W        W24924  35.057   0.741  13.556
53396W        W24925  41.582  33.563   2.254
53397W        W24926  27.135   8.394   0.179
53398W        W24927  22.171   5.127  12.543
53399W        W24928  19.327  38.741   3.526
53400W        W24929  40.753  16.870  13.292
53401W        W24930  25.484  11.859   3.219
53402W        W24931  31.411   2.001   3.307
53403W        W24932  37.152   5.206  14.223
53404W        W24933   9.611   9.687  11.957
53405W        W24934  41.943   7.390   4.177
53406W        W24935  23.402  21.551   3.079
53407W        W24936  21.201  32.643   3.202
53408W        W24937  37.732  10.438   0.868
53409W        W24938  34.136  21.595   2.701
53410W        W24939  38.601  21.383   2.633
53411W        W24940   0.717  30.503   3.265
53412W        W24941  10.185  25.250   0.328
53413W        W24942   3.805  35.179  14.725
53414W        W24943  36.373  24.652  14.083
53415W        W24944  40.917   2.382  11.232
53416W        W24945  14.587  16.554   3.218
53417W        W24946   3.429  10.747   4.640
53418W        W24947  31.875  30.039  11.497
53419W        W24948  26.683   8.707   4.145
53420W        W24949  12.688  42.861  11.116
53421W        W24950   3.741  31.408   2.317
53422W        W24951  18.723  22.292  10.999
53423W        W24952  40.896  23.120   3.697
53424W        W24953  44.679  30.004  11.160
53425W        W24954   6.939  42.820   3.314
53426W        W24955  32.856   8.411   2.668
53427W        W24956   9.593  23.828  14.512
53428W        W24957  38.953  41.889   4.264
53429W        W24958  36.717  33.369  10.243
53430W        W24959  21.076  30.524  14.269
53431W        W24960  41.518  31.714  12.708
53432W        W24961  42.279  44.401   4.064
53433W        W24962  20.095  27.920   0.367
53434W        W24963  30.394  31.206   1.819
53435W        W24964  42.501   3.299  13.392
53436W        W24965  18.284   2.406   4.645
53437W        W24966   1.808  13.749   2.812
53438W        W24967  42.685   9.119   3.909
53439W        W24968  43.527   1.780  13.810
53440W        W24969   1.864   2.797   4.196
53441W        W24970  22.391  13.669   0.819
53442W        W24971  10.265  25.153   1.527
53443W        W24972  42.860   2.219   4.307
53444W        W24973   5.375  44.283   0.411
53445W        W24974  44.328  11.824  10.890
53446W        W24975  22.883   7.322   0.348
53447W        W24976  12.221  18.631   0.361
53448W        W24977   7.417  22.042  13.954
53449W        W24978  40.272  40.786  14.446
53450W        W24979  13.188  23.821   0.387
53451W        W24980  26.403  39.096   1.700
53452W        W24981  15.398  40.783  12.561
53453W        W24982  35.132  21.587   1.532
53454W        W24983  37.996   9.272  10.341
53455W        W24984  43.492  10.760   4.653
53456W        W24985  43.513  33.866   5.348
53457W        W24986  21.374  34.969   5.140
53458W        W24987   7.513  23.736  14.602
53459W        W24988  36.070  44.549  12.031
53460W        W24989  41.801  21.558  12.432
53461W        W24990  32.576  38.247  11.868
53462W        W24991  40.056   1.354  11.514
53463W        W24992   0.403  26.153   1.014
53464W        W24993   5.441  15.717  12.938
53465W        W24994   8.082   1.935   1.829
53466W        W24995   6.730  25.634  12.803
53467W        W24996  43.558   2.259  12.998
53468W        W24997  21.206  25.794  14.285
53469W        W24998  34.943   3.216  12.965
53470W        W24999  30.984   3.663  10.780
53471W        W25000  16.785   5.436  14.895
53472W        W25001  28.991  35.175  12.919
53473W        W25002  23.939  14.224  14.402
53474W        W25003  24.728   2.798  12.489
53475W        W25004  18.751  30.882   0.747
53476W        W25005   1.385  29.637   0.187
53477W        W25006   1.443  16.336   3.338
53478W        W25007   7.401  24.022  13.777
53479W        W25008  30.556   2.182   1.396
53480W        W25009  35.496  24.940   3.749
53481W        W25010  28.056   7.687  12.615
53482W        W25011  43.204  28.917   0.939
53483W        W25012  10.525  20.240   3.619
53484W        W25013   3.222  39.181  11.123
53485W        W25014  41.572  33.456   1.221
53486W        W25015  11.356   3.852  12.008
53487W        W25016  16.014  32.003   3.376
53488W        W25017  27.544  40.090  14.468
53489W        W25018  32.412  11.668  12.044
53490W        W25019  17.337  23.432   4.166
53491W        W25020  24.951  41.025   0.752
53492W        W25021  11.538  22.603  14.616
53493W        W25022  18.643  15.263  11.804
53494W        W25023  26.916  17.798  14.463
53495W        W25024  33.096  19.661  11.984
53496W        W25025  38.074  43.267   3.081
53497W        W25026  36.878  11.089  11.977
53498W        W25027   0.500  11.166  12.994
53499W        W25028  44.555  21.294  13.538
53500W        W25029  20.766   7.208  11.482
53501W        W25030  43.155   8.233  13.833
53502W        W25031  33.830  27.962   1.898
53503W        W25032  43.259  39.111   2.683
53504W        W25033  36.174   6.749   4.613
53505W        W25034  20.483  41.803   0.930
53506W        W25035  10.390  10.181  11.496
53507W        W25036  30.179   6.658   4.120
53508W        W25037  34.859  43.768  13.319
53509W        W25038  21.266  27.016   4.115
53510W        W25039  13.784  21.270   4.192
53511W        W25040  35.510  15.229   4.517
53512W        W25041   6.356  37.940  10.570
53513W        W25042   7.464  40.406   1.690
53514W        W25043   2.433  17.842  13.595
53515W        W25044  24.149  33.199   1.469
53516W        W25045  28.282  12.305  12.480
53517W        W25046  28.093  41.974   4.339
53518W        W25047  15.829  44.959   3.354
53519W        W25048   2.302   3.811  11.391
53520W        W25049  22.273  35.253   3.746
53521W        W25050  10.314  10.497   4.680
53522W        W25051  35.712  23.165   2.176
53523W        W25052  36.461  37.290  10.638
53524W        W25053  12.249  40.508   1.323
53525W        W25054  32.058  40.255  10.701
53526W        W25055  12.291   5.252  11.007
53527W        W25056   4.331  37.894  14.267
53528W        W25057  36.457  16.920  12.176
53529W        W25058  26.960   6.392   3.217
53530W        W25059  12.789  37.770   3.183
53531W        W25060  33.393   8.673  12.449
53532W        W25061  36.872  23.971  10.753
53533W        W25062  12.449   6.957  11.138
53534W        W25063  28.077  29.644   2.821
53535W        W25064  25.635  20.478  10.656
53536W        W25065  33.617  12.876  14.801
53537W        W25066  37.637   1.348   3.717
53538W        W25067  15.186  14.934  13.959
53539W        W25068  21.587  15.780  14.288
53540W        W25069  10.705  32.961   0.523
53541W        W25070  17.041  31.830   4.185
53542W        W25071  17.299  16.412   2.233
53543W        W25072   8.574  17.622  14.405
53544W        W25073  21.801   9.606   0.542
53545W        W25074   2.495  41.877   4.587
53546W        W25075   7.193  10.230   3.899
53547W        W25076  35.008  37.449  11.402
53548W        W25077   7.247   4.409  12.861
53549W        W25078   3.513   2.932   1.250
53550W        W25079  37.303  16.625   3.464
53551W        W25080  10.834  27.152   4.079
53552W        W25081  29.031  25.663   0.961
53553W        W25082  17.717  28.630   1.261
53554W        W25083  32.278   4.463  14.753
53555W        W25084  36.450   6.240  13.874
53556W        W25085   4.203  41.535  12.640
53557W        W25086  30.152  11.582   5.149
53558W        W25087  29.336  41.412  12.584
53559W        W25088   6.706   4.735  12.902
53560W        W25089  31.931  37.305   1.838
53561W        W25090  15.346   9.232   1.347
53562W        W25091   9.418  18.581  10.664
53563W        W25092  42.314  33.395  13.819
53564W        W25093  28.884  17.474  14.086
53565W        W25094  36.255  32.140  14.103
53566W        W25095  20.119  10.684   0.339
53567W        W25096   7.336  40.358   5.199
53568W        W25097  38.473  13.886  13.327
53569W        W25098  28.516  15.408   1.790
53570W        W25099  33.259  32.145   5.062
53571W        W25100  27.412   5.184  14.915
53572W        W25101  13.973  32.655   4.760
53573W        W25102   6.678  18.632   3.999
53574W        W25103   9.196   4.929   2.108
53575W        W25104  12.964  18.197  12.088
53576W        W25105   5.273  44.331   2.352
53577W        W25106   4.965  35.529   1.686
53578W        W25107  15.734  24.448  12.053
53579W        W25108  38.031  30.195   0.784
53580W        W25109   4.663  34.946   4.642
53581W        W25110  16.093  18.318  13.924
53582W        W25111  35.208   4.901   0.446
53583W        W25112  26.023  29.451  13.839
53584W        W25113   7.725  26.463   3.777
53585W        W25114  14.303  39.904   3.288
53586W        W25115  16.369  39.369  13.022
53587W        W25116   9.010  44.207   2.767
53588W        W25117  15.953   2.221  14.314
53589W        W25118  16.334  17.310  14.098
53590W        W25119  19.531  20.786   2.805
53591W        W25120  44.107  33.246   0.874
53592W        W25121  41.881  39.946  12.650
53593W        W25122  19.690  27.219  10.685
53594W        W25123  24.232  20.564   1.998
53595W        W25124   8.810  30.967   2.564
53596W        W25125   5.648  11.689  11.980
53597W        W25126   7.287   0.245   0.214
53598W        W25127  33.064  30.671  10.987
53599W        W25128  19.205  39.643  13.745
53600W        W25129   2.397  36.806   4.953
53601W        W25130  31.677  25.062   2.661
53602W        W25131   5.396   6.977  14.031
53603W        W25132   9.920  10.357  11.543
53604W        W25133   2.400  37.913   2.898
53605W        W25134  18.306  27.969   2.698
53606W        W25135  22.211  16.579  13.892
53607W        W25136   8.162  22.190  14.578
53608W        W25137  38.000  29.704   1.890
53609W        W25138  14.045  44.420  10.088
53610W        W25139  40.935  33.372  10.739
53611W        W25140  32.217  28.523  11.908
53612W        W25141   5.925  13.522   2.531
53613W        W25142  34.145  13.699  14.116
53614W        W25143  25.312   8.146   1.396
53615W        W25144  43.768  32.636  11.658
53616W        W25145  28.681  23.127   0.966
53617W        W25146   6.804  13.801   2.043
53618W        W25147  10.748  39.572   4.705
53619W        W25148  43.257  21.262  10.620
53620W        W25149   8.888  40.426   4.497
53621W        W25150  30.869   3.804  13.002
53622W        W25151  43.087  22.098  11.626
53623W        W25152  11.887  37.966   3.372
53624W        W25153  36.551  39.341  10.694
53625W        W25154  42.286  20.130   4.757
53626W        W25155  35.620  18.546  13.074
53627W        W25156  28.647   4.164  11.512
53628W        W25157   6.778   4.200   4.524
53629W        W25158  27.031  44.006  12.425
53630W        W25159  16.393   3.848   1.707
53631W        W25160  28.671  26.915  13.011
53632W        W25161  11.646  32.079  11.562
53633W        W25162  18.129  40.129   2.591
53634W        W25163  15.331  30.461   2.645
53635W        W25164  29.602   6.502   4.531
53636W        W25165  12.881   3.283  12.930
53637W        W25166  13.813  17.077  10.729
53638W        W25167   1.500  31.563  14.546
53639W        W25168  11.175  12.050   1.955
53640W        W25169   2.774   5.713  13.095
53641W        W25170  27.981   7.793   4.650
53642W        W25171  29.616  38.207  11.609
53643W        W25172  25.629  41.370  14.429
53644W        W25173   2.366  20.183   2.749
53645W        W25174  32.889  42.918   3.454
53646W        W25175  29.390   3.155   5.187
53647W        W25176   6.316  21.809   4.372
53648W        W25177  24.007   1.003  13.264
53649W        W25178   6.943  18.204  14.559
53650W        W25179  40.429   6.511  11.608
53651W        W25180  17.112   3.506  13.824
53652W        W25181  10.801  37.907   3.234
53653W        W25182  25.563   5.754   0.293
53654W        W25183  23.874  22.734   4.131
53655W        W25184   6.301  20.204  10.586
53656W        W25185  28.211  16.222  12.306
53657W        W25186  31.327  14.829  12.456
53658W        W25187   1.998  39.394  12.523
53659W        W25188  13.721  28.938   4.290
53660W        W25189  37.629  43.901  11.216
53661W        W25190  16.059  44.028  11.101
53662W        W25191  23.668  33.325   1.100
53663W        W25192  29.627   2.257   0.297
53664W        W25193  36.090   9.469  13.589
53665W        W25194  36.815  35.982  11.528
53666W        W25195  27.523  19.041  14.631
53667W        W25196   5.036   0.166   2.045
53668W        W25197  31.430  34.680  12.167
53669W        W25198  16.712  38.277   0.116
53670W        W25199  27.202  13.384  10.652
53671W        W25200  15.153   3.789  10.439
53672W        W25201  17.565  34.278  11.283
53673W        W25202  44.420   4.837   4.421
53674W        W25203  11.416  23.522  12.537
53675W        W25204   3.202  19.758   0.003
53676W        W25205  10.039  37.613  12.560
53677W        W25206  42.915  31.335  11.110
53678W        W25207  44.320   1.773   3.267
53679W        W25208  29.997  33.073  12.736
53680W        W25209  40.243  33.365  13.137
53681W        W25210  10.145  25.925   4.961
53682W        W25211  33.494   3.751  11.406
53683W        W25212  42.794  29.681   0.969
53684W        W25213  17.212   0.481   2.624
53685W        W25214  26.941  12.263   0.273
53686W        W25215  14.674   8.186   1.215
53687W        W25216   1.734  13.278   2.169
53688W        W25217  21.032  29.889  10.499
53689W        W25218  32.439  27.675  11.898
53690W        W25219  16.343   3.237  12.638
53691W        W25220  30.594  21.489  11.472
53692W        W25221  40.056  19.714   1.727
53693W        W25222  23.942  10.020   4.864
53694W        W25223  37.552  31.306  10.700
53695W        W25224  19.863  18.103   0.265
53696W        W25225  43.570  39.355  10.597
53697W        W25226   2.771  40.267  14.850
53698W        W25227  33.303   4.701   4.753
53699W        W25228  13.129  16.228  12.945
53700W        W25229   6.954  16.160  10.775
53701W        W25230  40.814  33.516   0.553
53702W        W25231  39.077  12.808  12.644
53703W        W25232  24.920   2.479  13.423
53704W        W25233   2.503   5.314   2.816
53705W        W25234  32.547  23.660   0.472
53706W        W25235  43.582  24.636   3.040
53707W        W25236  36.106   2.842   3.275
53708W        W25237  16.215  13.273   0.480
53709W        W25238  20.461  26.583  12.603
53710W        W25239   7.320  40.838   2.707
53711W        W25240  18.668  18.505   3.347
53712W        W25241  38.279  37.881  12.073
53713W        W25242  43.501  41.836   0.305
53714W        W25243  31.942  44.156   2.677
53715W        W25244  42.396  39.924   4.556
53716W        W25245   4.636  11.706  10.760
53717W        W25246  31.154  42.008   2.396
53718W        W25247  22.198   4.327   4.885
53719W        W25248   9.703   8.647  12.510
53720W        W25249  28.060  39.977  14.375
53721W        W25250  43.979  42.519  12.740
53722W        W25251  17.245  36.956  12.902
53723W        W25252  29.365  30.154   3.144
53724W        W25253  11.383  44.572  12.081
53725W        W25254  19.495  43.427  10.327
53726W        W25255   0.468  36.039  13.466
53727W        W25256  36.534  38.337   1.313
53728W        W25257  19.191  42.056  14.817
53729W        W25258  15.973  41.425   3.739
53730W        W25259  33.180  16.856   3.766
53731W        W25260  21.103  44.772  12.769
53732W        W25261  24.518  43.340  11.680
53733W        W25262  31.865  42.735  13.893
53734W        W25263  36.304  42.551  10.529
53735W        W25264  43.365  25.135   3.782
53736W        W25265  34.012  18.546   2.588
53737W        W25266  17.377  23.678   1.265
53738W        W25267  10.118  39.422   2.249
53739W        W25268  41.942  42.868  10.658
53740W        W25269  36.107  18.222   3.219
53741W        W25270  25.041   6.050  13.819
53742W        W25271  21.664   1.368   3.177
53743W        W25272  37.317  30.122   2.826
53744W        W25273  38.873   5.367   1.908
53745W        W25274  11.595   8.516  13.836
53746W        W25275  32.681  22.964   4.652
53747W        W25276   0.237   6.005  14.979
53748W        W25277  42.525  24.228   4.081
53749W        W25278  35.901  34.509  14.704
53750W        W25279  27.761  40.498  11.567
53751W        W25280  18.420  30.470   0.847
53752W        W25281  43.577  18.719   1.850
53753W        W25282  20.080  14.585   1.251
53754W        W25283  34.679  22.201   2.652
53755W        W25284  11.376  29.900   2.333
53756W        W25285  24.227  35.270   4.433
53757W        W25286   0.619  26.750   0.710
53758W        W25287   0.961  30.299   4.687
53759W        W25288   0.654   6.671  11.167
53760W        W25289  23.122  27.490  12.803
53761W        W25290  24.747  27.918  11.849
53762W        W25291  28.294  28.050  13.468
53763W        W25292  12.086  19.097   1.787
53764W        W25293  10.354   5.078   3.163
53765W        W25294   6.733  10.838  12.434
53766W        W25295  30.087  44.021   2.762
53767W        W25296   0.032  15.765   0.248
53768W        W25297  37.814  24.717  11.454
53769W        W25298  31.762  14.552  11.183
53770W        W25299  27.935  41.149   1.139
53771W        W25300  28.109  41.376   1.579
53772W        W25301  13.435  37.436  14.784
53773W        W25302  25.782  30.360   1.302
53774W        W25303  11.104   5.814   1.882
53775W        W25304  26.438   2.787   2.137
53776W        W25305  17.447  20.269   2.818
53777W        W25306   5.359  14.721   2.801
53778W        W25307   7.628  35.034   0.807
53779W        W25308  31.931  42.758  14.470
53780W        W25309  15.202   1.799   3.108
53781W        W25310  37.182  44.001   2.314
53782W        W25311   7.865  12.721  10.776
53783W        W25312  36.559  36.425  11.894
53784W        W25313  33.956  36.744   4.058
53785W        W25314  26.745  40.828  14.002
53786W        W25315  39.345   1.750   2.065
53787W        W25316  31.004  33.664  13.340
53788W        W25317  19.712  12.552   4.823
53789W        W25318  32.787  18.589   2.719
53790W        W25319   6.940   7.139   0.878
53791W        W25320  28.871  30.166   3.674
53792W        W25321  16.109   9.298   2.204
53793W        W25322  32.821  40.560   3.854
53794W        W25323   9.127  16.796  10.921
53795W        W25324  43.011   8.933  14.516
53796W        W25325  37.413  14.827  13.857
53797W        W25326  17.199  17.503  13.437
53798W        W25327  26.671  18.667   5.036
53799W        W25328   8.151  32.034  12.904
53800W        W25329  23.731  33.337  14.054
53801W        W25330   0.559  12.460  11.948
53802W        W25331   8.346   6.265  10.760
53803W        W25332  25.872  23.167   4.939
53804W        W25333  22.380  12.812  13.360
53805W        W25334  35.539  15.740  14.390
53806W        W25335   2.840  16.272  10.771
53807W        W25336   8.107   4.228   0.023
53808W        W25337  24.751  28.394  14.837
53809W        W25338  38.094  39.300  12.607
53810W        W25339  10.774  18.191  13.922
53811W        W25340  40.854  29.196  14.407
53812W        W25341  18.682  35.003   3.298
53813W        W25342  26.640   4.930   4.080
53814W        W25343  26.879  22.675   2.930
53815W        W25344  41.846  43.805  13.588
53816W        W25345  39.254   0.648  12.535
53817W        W25346  14.881  37.076   2.364
53818W        W25347   6.619  40.475   2.402
53819W        W25348  21.621  33.592  10.651
53820W        W25349   2.819  13.248  12.962
53821W        W25350  36.163  11.581  14.450
53822W        W25351  33.022  12.654  11.914
53823W        W25352  38.482   0.944  11.406
53824W        W25353   1.750   8.342  10.771
53825W        W25354  27.438  21.779   0.231
53826W        W25355  31.503   3.725   1.195
53827W        W25356  20.566  30.425   1.433
53828W        W25357   7.158  42.471   2.341
53829W        W25358  38.006  35.827   0.079
53830W        W25359  31.625  27.549  14.968
53831W        W25360   3.391  15.074   0.367
53832W        W25361  42.360  24.168  12.112
53833W        W25362   1.230  20.593  13.905
53834W        W25363  26.577   3.153  12.575
53835W        W25364  39.414  10.615  13.872
53836W        W25365   2.255  33.202  12.029
53837W        W25366   7.320  29.093  13.943
53838W        W25367  31.218  39.375  13.462
53839W        W25368   6.491  20.615  11.267
53840W        W25369   1.674   3.368   4.878
53841W        W25370  27.230  20.845  14.346
53842W        W25371   8.747  13.700   3.614
53843W        W25372  29.459  13.148  11.427
53844W        W25373  16.722  41.047   2.235
53845W        W25374   5.382  37.527   0.634
53846W        W25375   2.999  17.646  10.733
53847W        W25376  41.992   9.768   1.376
53848W        W25377  33.319   8.353   2.898
53849W        W25378   6.900  29.293  11.420
53850W        W25379  29.792  10.419  11.547
53851W        W25380  24.519  41.837  11.124
53852W        W25381  39.199  20.280   4.351
53853W        W25382  16.851  26.147  11.488
53854W        W25383  12.895  40.103   1.831
53855W        W25384  20.674  34.363   2.564
53856W        W25385   7.090  31.052   2.393
53857W        W25386  35.567  35.885   2.443
53858W        W25387  17.640  15.808  13.066
53859W        W25388  34.593  20.049   0.383
53860W        W25389  10.641   4.744   4.184
53861W        W25390  20.127  26.514   0.290
53862W        W25391  36.281  19.601   3.718
53863W        W25392  11.024  20.749   4.242
53864W        W25393  20.331  28.510   5.556
53865W        W25394  22.152  32.090  13.768
53866W        W25395  16.053  44.547  11.157
53867W        W25396  39.781  30.207  14.796
53868W        W25397  23.214  14.676   3.891
53869W        W25398  19.650  39.523  11.490
53870W        W25399  11.789  17.123   3.663
53871W        W25400  38.317  39.126  12.099
53872W        W25401  12.922  28.166  11.689
53873W        W25402  31.544  43.893   3.724
53874W        W25403  17.640  35.397  13.316
53875W        W25404   6.226  13.320  13.660
53876W        W25405  30.124  36.279  13.876
53877W        W25406  33.019   2.279  11.547
53878W        W25407   5.437  16.314   3.302
53879W        W25408  27.143  23.238   1.632
53880W        W25409  26.654  17.213   1.897
53881W        W25410  27.648   0.738   3.219
53882W        W25411  22.182  44.928  13.288
53883W        W25412  29.620  10.665  14.323
53884W        W25413  18.732  41.646   4.134
53885W        W25414  28.209  19.538  14.935
53886W        W25415  16.696  32.693   1.185
53887W        W25416  37.864  15.792   1.389
53888W        W25417  21.006  37.290   2.759
53889W        W25418  19.892  31.836  13.282
53890W        W25419   7.347  21.097  11.936
53891W        W25420  22.180  39.056  14.349
53892W        W25421  43.235  35.486   1.831
53893W        W25422   5.181  23.485  11.135
53894W        W25423  14.977  21.781   4.260
53895W        W25424  13.237   4.265   3.624
53896W        W25425  27.066   5.136  13.158
53897W        W25426  11.522   9.305  13.001
53898W        W25427   6.029   8.234  14.633
53899W        W25428   3.744   0.572  11.503
53900W        W25429   4.505  29.232  13.514
53901W        W25430  11.804  14.775  14.023
53902W        W25431  42.285  31.885  11.937
53903W        W25432   7.810  43.740  12.370
53904W        W25433  17.710  16.710   3.080
53905W        W25434  38.296  41.812   3.261
53906W        W25435   0.999  24.434   1.371
53907W        W25436  13.253   5.308  11.623
53908W        W25437  44.466  40.841   0.061
53909W        W25438  37.598  35.039  10.696
53910W        W25439  14.284   3.722  12.354
53911W        W25440  25.909  19.962  11.575
53912W        W25441  44.770  13.622   1.797
53913W        W25442  12.669  39.896   0.125
53914W        W25443  43.214  27.619  13.424
53915W        W25444  22.525  32.315  11.689
53916W        W25445  24.461  15.743  13.027
53917W        W25446  19.601   7.172  12.945
53918W        W25447   2.909  38.335  11.578
53919W        W25448  30.333  24.126   3.168
53920W        W25449  25.999   5.748  14.934
53921W        W25450  41.988   5.781   1.551
53922W        W25451  32.495  18.070   3.371
53923W        W25452  20.976   1.304  14.468
53924W        W25453  33.600   6.380   3.902
53925W        W25454  25.012  20.028   1.871
53926W        W25455  40.582  30.629   3.133
53927W        W25456  20.325  28.399  11.468
53928W        W25457  34.121   4.732  11.673
53929W        W25458   8.347  43.770  11.100
53930W        W25459   7.705   4.924   0.827
53931W        W25460  23.464  41.562   1.366
53932W        W25461  34.933  29.050   0.065
53933W        W25462  15.872  16.692  14.474
53934W        W25463  41.692  26.457  11.214
53935W        W25464   9.707  19.168   4.029
53936W        W25465  12.660   0.007  12.386
53937W        W25466  12.257   7.625  10.654
53938W        W25467   5.343  28.021  13.166
53939W        W25468  19.686   2.873   4.083
53940W        W25469  28.647   9.376   0.335
53941W        W25470   6.484  36.936  14.121
53942W        W25471  25.671  31.315  11.159
53943W        W25472  38.573  42.943  12.645
53944W        W25473  11.049  14.569  12.744
53945W        W25474  38.578   8.244   2.161
53946W        W25475  42.950  36.986   0.988
53947W        W25476  21.108  12.318  11.130
53948W        W25477   5.898  28.414   4.720
53949W        W25478   1.218  16.822  13.864
53950W        W25479  37.645  16.281  14.884
53951W        W25480  14.138  37.080   3.629
53952W        W25481  23.563  24.001   4.207
53953W        W25482   4.057  30.436  11.001
53954W        W25483   7.603  34.580   3.826
53955W        W25484   0.102   8.179  14.803
53956W        W25485  24.603  18.320   4.234
53957W        W25486  41.692  31.987  14.402
53958W        W25487  17.789  30.596  13.812
53959W        W25488  35.368   8.300  14.439
53960W        W25489  32.411  19.349  13.875
53961W        W25490  10.106  15.043  11.655
53962W        W25491  14.626   1.957  14.157
53963W        W25492   3.462   4.874   1.216
53964W        W25493   9.896  14.317  13.328
53965W        W25494  29.010  22.004  12.431
53966W        W25495   7.288  30.543  11.770
53967W        W25496  27.692   4.192   0.063
53968W        W25497  18.086  27.833  13.758
53969W        W25498  33.160   5.452   3.682
53970W        W25499  38.024   4.459  13.860
53971W        W25500  35.354   9.711  11.140
53972W        W25501  42.853   0.492  12.060
53973W        W25502   9.754  38.038  14.071
53974W        W25503  43.064   2.376   0.993
53975W        W25504  25.766  36.063   0.424
53976W        W25505  33.527  10.373   4.578
53977W        W25506   7.263  39.765  12.145
53978W        W25507  37.687   6.223  12.018
53979W        W25508  17.679  44.658   4.761
53980W        W25509  25.436   5.797   1.791
53981W        W25510  18.332  39.394   2.862
53982W        W25511  33.448  19.028   3.296
53983W        W25512  14.754  13.160   1.988
53984W        W25513  10.171  19.270   3.801
53985W        W25514  18.850   2.850   3.317
53986W        W25515  31.122  26.962   2.717
53987W        W25516  23.291  34.781  13.780
53988W        W25517   1.341  25.561   1.185
53989W        W25518  17.821  20.465  13.107
53990W        W25519  11.863  43.254   4.169
53991W        W25520  10.164  24.191  13.722
53992W        W25521  10.796   1.711   2.332
53993W        W25522  22.544  29.259  14.342
53994W        W25523  39.530   6.658  14.480
53995W        W25524   8.115   7.410  12.165
53996W        W25525  29.601  25.601  12.770
53997W        W25526  31.570  10.319   4.431
53998W        W25527  25.444   4.151   4.476
53999W        W25528  23.343   3.783   0.500
54000W        W25529  16.693   7.847  14.526
54001W        W25530  27.235   7.615  11.876
54002W        W25531  35.164   7.016  13.007
54003W        W25532   5.821  30.404  13.418
54004W        W25533  11.266  15.722   4.815
54005W        W25534   1.941  29.054  10.739
54006W        W25535  15.566   6.700   1.457
54007W        W25536  13.345   1.526  10.828
54008W        W25537  34.634   3.720  12.932
54009W        W25538   6.720  21.477   4.291
54010W        W25539  10.297  41.321   0.925
54011W        W25540  38.621   2.386  13.251
54012W        W25541  32.125  41.348  12.122
54013W        W25542  28.698  12.244   4.653
54014W        W25543   8.221   4.583   3.689
54015W        W25544  14.314  21.432  14.458
54016W        W25545  32.512   7.362  10.754
54017W        W25546  19.938  13.271   3.890
54018W        W25547   3.310  29.889  10.500
54019W        W25548   6.928   9.433   2.251
54020W        W25549  19.712   4.183   2.295
54021W        W25550  15.701  43.018  13.959
54022W        W25551  27.269   2.870  10.710
54023W        W25552  20.218  30.417   2.774
54024W        W25553  19.152  26.030   1.773
54025W        W25554  39.058  34.457  11.007
54026W        W25555  44.043  21.180   4.060
54027W        W25556   3.244   2.690   3.355
54028W        W25557  18.313   6.652   2.845
54029W        W25558  33.497  21.365   3.334
54030W        W25559  33.289  33.249   1.266
54031W        W25560  38.903  33.706  11.141
54032W        W25561  42.718   3.758  12.039
54033W        W25562   2.580  38.236  13.590
54034W        W25563  33.851  31.472   3.345
54035W        W25564  15.348  16.252  12.786
54036W        W25565   4.916  25.668  11.587
54037W        W25566   7.400  43.886   0.728
54038W        W25567  31.494  31.394   2.305
54039W        W25568  44.901  43.352  13.422
54040W        W25569  11.337  41.306  14.466
54041W        W25570   9.375   1.740   4.637
54042W        W25571   9.807  13.501  14.851
54043W        W25572  32.988  15.555  14.885
54044W        W25573  22.465  18.573   2.379
54045W        W25574  35.929  31.899   0.433
54046W        W25575  18.582  29.651  11.866
54047W        W25576  36.846   2.075  12.882
54048W        W25577  25.943   7.386  11.082
54049W        W25578   5.888  17.197   0.695
54050W        W25579  30.480  31.904   4.057
54051W        W25580  16.176  29.113  12.651
54052W        W25581  30.883  15.771  13.382
54053W        W25582  10.438   2.741   4.162
54054W        W25583  44.903  27.434  10.540
54055W        W25584  32.990  42.993  10.419
54056W        W25585  35.456  42.602  14.621
54057W        W25586  39.658  31.601  12.487
54058W        W25587  20.082  10.897   2.280
54059W        W25588  31.498  10.304  14.872
54060W        W25589  43.967  35.997  13.622
54061W        W25590   9.300  39.042  10.695
54062W        W25591   6.187  43.417  10.369
54063W        W25592  44.589   8.522   2.006
54064W        W25593  28.672  33.965   3.637
54065W        W25594  25.124   3.638  10.761
54066W        W25595  20.257  43.784  12.140
54067W        W25596  14.757  36.010   3.931
54068W        W25597   2.909   4.518   3.534
54069W        W25598   0.719  34.611   1.384
54070W        W25599  34.038  41.844   1.258
54071W        W25600  32.347  28.719  12.369
54072W        W25601   4.210   6.789  14.867
54073W        W25602  33.966   3.517  10.994
54074W        W25603  36.622  22.379  11.622
54075W        W25604  28.999  10.306   3.762
54076W        W25605  32.472   6.298  14.444
54077W        W25606  37.490  38.565  12.630
54078W        W25607  23.040  16.421  11.608
54079W        W25608  15.577   9.127   3.981
54080W        W25609  31.619   7.286   0.686
54081W        W25610  43.590   8.837   0.421
54082W        W25611   0.732  40.442  14.428
54083W        W25612  41.217  12.655  12.060
54084W        W25613  20.762   7.621  10.635
54085W        W25614   5.694   5.362  12.027
54086W        W25615  31.560  15.769   2.651
54087W        W25616  32.900  21.999   2.757
54088W        W25617  17.103  17.370  10.671
54089W        W25618  17.511   2.872   2.824
54090W        W25619  23.204  21.608   4.133
54091W        W25620  24.620  35.129  10.597
54092W        W25621  22.265   0.526   2.793
54093W        W25622  29.404  32.399   1.148
54094W        W25623  32.257  24.151   2.721
54095W        W25624   4.499  21.981  12.037
54096W        W25625   2.580  23.243  14.574
54097W        W25626  24.707  20.005   2.285
54098W        W25627  26.747  25.069  14.251
54099W        W25628  33.067  39.559   2.936
54100W        W25629  12.760  26.180   0.208
54101W        W25630  26.155  28.674  10.384
54102W        W25631  29.168  22.116  14.787
54103W        W25632  10.065  17.140   4.146
54104W        W25633  25.976  35.185  13.547
54105W        W25634  30.094  21.122   3.671
54106W        W25635  43.139  38.133  10.719
54107W        W25636  10.828  12.831  11.607
54108W        W25637  16.015  11.092   9.766
54109W        W25638   3.820   5.487  14.998
54110W        W25639   6.835  23.964  12.130
54111W        W25640   0.446  44.373   0.995
54112W        W25641  22.309  36.875   0.794
54113W        W25642  44.408  44.251   3.193
54114W        W25643  40.844   6.415   4.569
54115W        W25644  24.993  42.947  13.805
54116W        W25645  28.888   5.173   4.631
54117W        W25646  24.888  40.000   3.590
54118W        W25647  35.097   8.409  12.016
54119W        W25648  10.876   1.011   1.716
54120W        W25649  25.498   1.667  10.134
54121W        W25650  27.700  38.919  13.037
54122W        W25651  20.491  21.790  12.680
54123W        W25652  21.561  44.052  14.849
54124W        W25653  23.518   4.371  12.524
54125W        W25654   9.229   1.465  12.840
54126W        W25655  40.397   3.660  13.784
54127W        W25656  34.480   3.973   1.022
54128W        W25657  40.284   2.411  14.382
54129W        W25658   2.916  19.629   4.091
54130W        W25659  11.328  30.700  12.416
54131W        W25660   9.591   6.201  14.525
54132W        W25661  12.961   3.868  11.152
54133W        W25662   5.477  35.076  11.593
54134W        W25663  16.703  19.803  12.469
54135W        W25664  43.481  29.206  11.272
54136W        W25665  10.645  13.955   0.790
54137W        W25666   6.835   7.862  11.202
54138W        W25667   7.180  11.350   0.935
54139W        W25668  29.755  17.182   4.658
54140W        W25669   3.836  13.278   3.207
54141W        W25670  20.046  15.201  11.581
54142W        W25671  29.262  36.797   5.194
54143W        W25672  29.625  12.136  14.009
54144W        W25673  21.485   3.843  12.762
54145W        W25674   8.785  39.627   0.502
54146W        W25675  32.444  22.623  13.548
54147W        W25676  14.478  14.463  10.284
54148W        W25677  21.234  26.152   4.208
54149W        W25678  12.299  40.267   2.807
54150W        W25679  38.731  10.351  14.454
54151W        W25680   8.324  31.804   0.405
54152W        W25681  17.905   3.334  11.093
54153W        W25682  40.630  21.795   0.720
54154W        W25683  25.965   7.757   0.907
54155W        W25684  16.690  34.720  11.189
54156W        W25685  42.613  40.857  12.302
54157W        W25686  36.823  40.063  10.240
54158W        W25687  18.720  23.354   2.898
54159W        W25688  34.897  20.322   4.025
54160W        W25689   6.372  27.930   5.004
54161W        W25690  19.260  41.697  12.526
54162W        W25691  22.635  17.007   1.570
54163W        W25692  12.197  41.064   4.087
54164W        W25693  33.294   8.227   2.400
54165W        W25694  20.487  25.006  10.649
54166W        W25695  42.245  19.613  11.086
54167W        W25696  15.423  21.787  13.928
54168W        W25697   7.800  35.434   3.816
54169W        W25698  16.984  28.603   3.069
54170W        W25699  37.379   0.323  14.843
54171W        W25700  33.944   1.201  10.736
54172W        W25701   9.243  23.262   0.761
54173W        W25702  28.181  20.271  12.843
54174W        W25703   1.865  10.047   2.090
54175W        W25704  39.073  35.884   0.602
54176W        W25705  34.820  20.287   0.806
54177W        W25706   2.926  20.174   0.165
54178W        W25707  23.181  20.872  13.221
54179W        W25708  24.210  39.991  11.270
54180W        W25709  18.521   4.079   2.851
54181W        W25710  11.218   3.634  12.849
54182W        W25711  15.371  18.502   2.304
54183W        W25712   3.815  31.062   1.169
54184W        W25713  34.000  29.050   2.195
54185W        W25714  37.526  44.703   3.590
54186W        W25715  16.705  41.975  13.858
54187W        W25716  19.496  18.607  14.419
54188W        W25717  36.975   6.624   0.374
54189W        W25718  19.053  26.823  13.372
54190W        W25719  11.352   7.448  11.876
54191W        W25720   8.205   7.788   1.304
54192W        W25721  31.221  27.251   5.002
54193W        W25722  18.485  22.443  11.433
54194W        W25723  14.601  17.138  14.925
54195W        W25724  37.990  31.912   3.826
54196W        W25725  42.962  43.520  13.724
54197W        W25726  10.800  42.942  14.800
54198W        W25727  28.047   8.100  11.092
54199W        W25728   4.533  36.377   2.259
54200W        W25729  21.119  41.057   4.999
54201W        W25730  28.038  22.584  14.363
54202W        W25731   4.987  30.381   4.521
54203W        W25732  32.064  30.420  14.012
54204W        W25733  34.997  38.877  12.558
54205W        W25734  13.246  22.125   2.764
54206W        W25735  18.598  14.618  11.073
54207W        W25736  28.159  25.526   3.610
54208W        W25737  30.437  22.241   2.703
54209W        W25738  24.190  14.156   3.414
54210W        W25739  12.157  17.068  13.836
54211W        W25740  37.910   2.741  14.728
54212W        W25741  23.160   0.034   1.790
54213W        W25742  16.509  38.141  10.983
54214W        W25743  29.043  18.600  14.402
54215W        W25744  39.528  17.170   4.146
54216W        W25745  30.088  35.026   2.191
54217W        W25746  41.290  44.728   4.313
54218W        W25747   9.776   1.382  12.706
54219W        W25748  23.769   6.122  13.568
54220W        W25749  31.508  11.063   0.755
54221W        W25750  17.544   0.271  11.134
54222W        W25751  27.768  35.026  11.479
54223W        W25752  42.556  38.421   0.749
54224W        W25753  34.860  28.505  10.503
54225W        W25754  44.940  32.674  13.883
54226W        W25755  22.489  25.659   0.367
54227W        W25756  40.219  34.923  10.513
54228W        W25757  36.146  19.947  11.866
54229W        W25758  19.650  25.321   5.153
54230W        W25759  32.894   2.579  14.728
54231W        W25760  13.603  35.916  12.453
54232W        W25761  12.801  19.558   0.778
54233W        W25762  39.403  44.844   4.228
54234W        W25763  12.353  28.210  13.325
54235W        W25764  34.616  27.965  12.115
54236W        W25765  39.611  44.537   1.899
54237W        W25766  36.861  43.974   2.716
54238W        W25767  25.136  24.106  13.210
54239W        W25768  30.613  42.941   3.821
54240W        W25769  18.221  24.041   1.222
54241W        W25770  10.617   7.687  12.805
54242W        W25771  18.625  21.964  10.588
54243W        W25772  42.385   7.166   4.386
54244W        W25773  23.396   7.332   0.346
54245W        W25774  32.191  34.206  13.568
54246W        W25775  16.253  28.159  14.764
54247W        W25776  34.535  42.366   1.933
54248W        W25777   0.051  37.480   3.100
54249W        W25778   9.825  31.894  11.926
54250W        W25779  29.149  34.983   0.884
54251W        W25780  29.952  27.748  11.138
54252W        W25781  21.573  38.666  12.846
54253W        W25782  21.615   5.233   3.680
54254W        W25783  14.650  26.028  11.070
54255W        W25784  14.936   4.488   0.977
54256W        W25785   0.896  34.670   0.775
54257W        W25786  37.867  13.162   0.382
54258W        W25787   5.794  38.443  10.865
54259W        W25788  20.341   1.855   2.699
54260W        W25789  39.766  19.212  12.014
54261W        W25790  27.654  33.598   3.721
54262W        W25791   2.294  23.562  11.073
54263W        W25792  19.137  40.682  13.957
54264W        W25793  31.031  16.781   1.005
54265W        W25794  23.204  17.783  11.611
54266W        W25795  31.550   8.683   1.154
54267W        W25796  27.438  13.613   9.371
54268W        W25797  21.205  10.389   1.861
54269W        W25798  23.688   7.832  12.929
54270W        W25799  11.906  18.170  11.262
54271W        W25800  12.414  26.555   1.984
54272W        W25801  29.249   0.265   2.695
54273W        W25802  19.681  25.009  14.369
54274W        W25803  34.924   8.409   3.702
54275W        W25804  33.979  24.580  12.857
54276W        W25805  16.587  13.735  13.565
54277W        W25806  37.090  26.097  12.450
54278W        W25807  44.051  36.368  10.737
54279W        W25808  11.321   2.456   5.327
54280W        W25809  37.379   2.277   3.445
54281W        W25810  16.152  27.063   3.326
54282W        W25811  21.485  15.793   1.728
54283W        W25812  10.114  37.135   0.424
54284W        W25813  20.384  18.256   3.153
54285W        W25814   9.160  42.715  13.656
54286W        W25815  22.679   3.959  12.902
54287W        W25816  22.657  31.735   0.739
54288W        W25817  38.871   7.857   1.864
54289W        W25818  42.822  20.682  12.759
54290W        W25819  12.236  43.201  12.551
54291W        W25820  14.800  29.014  12.373
54292W        W25821  24.772   8.652  12.935
54293W        W25822   8.802  11.272  10.769
54294W        W25823  39.009  32.381   4.640
54295W        W25824  43.339  29.468  13.500
54296W        W25825  31.658   7.677  12.159
54297W        W25826  27.467   4.917  13.402
54298W        W25827  17.092  39.464   4.832
54299W        W25828  26.767  27.985   4.548
54300W        W25829  24.130  13.216   0.964
54301W        W25830  25.708  13.744  11.068
54302W        W25831  32.944  27.438   1.284
54303W        W25832  15.852  27.240  12.477
54304W        W25833   4.356  35.493  11.131
54305W        W25834  29.412  22.663   1.241
54306W        W25835  43.905  20.535  14.920
54307W        W25836   0.064  22.890   3.740
54308W        W25837  29.184  41.426   1.420
54309W        W25838  28.928   2.685   3.200
54310W        W25839  30.505  10.259  13.398
54311W        W25840   4.256  41.993   0.772
54312W        W25841   9.815  24.978   2.202
54313W        W25842  31.970  14.710  12.369
54314W        W25843   1.413  43.034  12.892
54315W        W25844  11.568  35.936   0.803
54316W        W25845  44.416  33.202   2.788
54317W        W25846   5.115  15.270  14.941
54318W        W25847  15.705  26.404   0.326
54319W        W25848  34.098  31.598   3.806
54320W        W25849  12.800  13.729  14.431
54321W        W25850  44.338  12.911  14.841
54322W        W25851   0.765  39.140   0.074
54323W        W25852  40.639  34.422   4.108
54324W        W25853  11.708  43.800   2.404
54325W        W25854  20.825  29.725   3.258
54326W        W25855  12.529  15.777   2.959
54327W        W25856  24.069  43.844  10.794
54328W        W25857  31.210  35.598  14.369
54329W        W25858  24.535  24.434  12.071
54330W        W25859   5.344  11.665   0.902
54331W        W25860  40.894  29.526  14.840
54332W        W25861  23.921  12.621  13.196
54333W        W25862  40.676   3.297  10.321
54334W        W25863  22.155  34.467  10.756
54335W        W25864  39.832  22.071  13.315
54336W        W25865  40.423  25.666   3.684
54337W        W25866  34.437  32.655  10.488
54338W        W25867  15.160  27.505   3.870
54339W        W25868   3.885   9.338  14.561
54340W        W25869  28.996  42.702   0.884
54341W        W25870  10.685  31.262  12.294
54342W        W25871   7.717  25.581  12.517
54343W        W25872  40.884   2.948   4.139
54344W        W25873  24.975  16.644   2.339
54345W        W25874  16.652   9.398   2.468
54346W        W25875  28.175  16.233  12.823
54347W        W25876  41.686  18.499  10.671
54348W        W25877  42.696  35.482  12.169
54349W        W25878  37.996  38.514  11.496
54350W        W25879  24.621  37.920   0.538
54351W        W25880  12.158  37.162   1.055
54352W        W25881   1.857   5.661  13.302
54353W        W25882  34.676   4.030   0.554
54354W        W25883  10.864  10.797   1.699
54355W        W25884  38.827  28.557   2.294
54356W        W25885  43.891  41.116   3.738
54357W        W25886  11.707  44.317   2.322
54358W        W25887  33.751  20.212   2.657
54359W        W25888   0.928  14.383  13.319
54360W        W25889   5.554  16.113  12.510
54361W        W25890  24.400  36.647   2.815
54362W        W25891  21.690  29.889  11.182
54363W        W25892   5.870  23.469  10.798
54364W        W25893   8.278  33.068  10.806
54365W        W25894  29.566   6.681   2.793
54366W        W25895   1.904  23.053  12.415
54367W        W25896  22.965  27.103   3.908
54368W        W25897  17.753  18.516   0.865
54369W        W25898   1.715   4.459   1.039
54370W        W25899  34.559   5.409  12.079
54371W        W25900  41.922  39.797  11.596
54372W        W25901  24.023  17.279  11.918
54373W        W25902  20.073  38.709  11.051
54374W        W25903   5.748  17.712   3.341
54375W        W25904   5.927  41.408   0.516
54376W        W25905  23.044  34.440   0.826
54377W        W25906   8.609  22.112   4.374
54378W        W25907  35.657  36.756   1.289
54379W        W25908  29.222   7.215  12.025
54380W        W25909   9.542  16.264   2.163
54381W        W25910  19.232  39.553   3.208
54382W        W25911  30.360  11.090  13.293
54383W        W25912  14.361  21.088  13.494
54384W        W25913  30.152  26.123  12.561
54385W        W25914  43.439  41.026  14.278
54386W        W25915  17.910   1.238  14.992
54387W        W25916   6.222   1.243  12.810
54388W        W25917   3.211   3.964   0.854
54389W        W25918  39.476  27.419   1.424
54390W        W25919  38.820  34.876  10.815
54391W        W25920  31.095  42.412   1.272
54392W        W25921  10.855  44.362   0.350
54393W        W25922  20.346  39.952   0.852
54394W        W25923  39.529   0.754   4.638
54395W        W25924  20.217   9.421  10.563
54396W        W25925  30.460  35.728  13.296
54397W        W25926  22.418   2.668   1.440
54398W        W25927   0.564  28.996   4.467
54399W        W25928  44.181  11.430  10.593
54400W        W25929  29.447  40.807  12.027
54401W        W25930  22.611  44.880   4.125
54402W        W25931  31.743  44.900  14.075
54403W        W25932  17.980  43.834   4.635
54404W        W25933  28.404  41.718  13.548
54405W        W25934  43.948  34.596   1.425
54406W        W25935  39.502  42.584  11.133
54407W        W25936  15.377  16.189  10.950
54408W        W25937  18.309   5.938  14.658
54409W        W25938  23.866   8.484   2.743
54410W        W25939  42.113  29.392   4.655
54411W        W25940  21.605  26.137  14.424
54412W        W25941  25.147  35.592  13.920
54413W        W25942   9.384  17.268  11.110
54414W        W25943  32.439  25.511   3.650
54415W        W25944  30.323   1.820  11.840
54416W        W25945   9.703  10.537  10.997
54417W        W25946  28.652  18.011  11.168
54418W        W25947  12.394  15.215  14.537
54419W        W25948  28.137   0.834  14.296
54420W        W25949  33.518   3.888  14.880
54421W        W25950  43.920  39.291  14.388
54422W        W25951   6.698  30.574   4.646
54423W        W25952   8.061  43.609   1.689
54424W        W25953  37.408  23.043   0.467
54425W        W25954  30.082  42.396   2.282
54426W        W25955   8.826  24.029  12.486
54427W        W25956  33.904  17.713  14.301
54428W        W25957  44.617  10.682   2.688
54429W        W25958  32.493   5.182  12.560
54430W        W25959  21.050  34.769  13.748
54431W        W25960  21.017  36.922  14.456
54432W        W25961  30.511  12.343   3.100
54433W        W25962  35.946   3.927  11.454
54434W        W25963  19.442  13.287   0.097
54435W        W25964  20.105  31.101   0.959
54436W        W25965   7.330  43.893  14.818
54437W        W25966  32.455  32.390  13.386
54438W        W25967  19.233   1.300  13.011
54439W        W25968   0.198  37.557   4.312
54440W        W25969  42.562  16.747  11.629
54441W        W25970  32.725  14.522  11.358
54442W        W25971  19.319  42.786   4.655
54443W        W25972  26.726  24.651   0.792
54444W        W25973  22.028  21.641  14.949
54445W        W25974  30.982  40.610  13.972
54446W        W25975  18.549  20.685  12.487
54447W        W25976   1.400  21.076  13.870
54448W        W25977  14.873   5.645   0.931
54449W        W25978  37.856  28.661  11.480
54450W        W25979  34.566  41.313  11.940
54451W        W25980   8.440  38.095   4.655
54452W        W25981   0.324  42.376  12.716
54453W        W25982  39.918  16.260   1.881
54454W        W25983  37.395  39.313   4.768
54455W        W25984   1.862   0.512  11.083
54456W        W25985   3.044  41.328  11.698
54457W        W25986  28.896  24.466   2.653
54458W        W25987   7.417  43.525  14.034
54459W        W25988   6.080  41.868   0.793
54460W        W25989  39.235   5.263   2.721
54461W        W25990  31.061  21.206  13.493
54462W        W25991   4.080  38.971   1.728
54463W        W25992  18.187  40.502  11.404
54464W        W25993  15.642  30.022   2.580
54465W        W25994  32.769   2.095   3.615
54466W        W25995   5.436  24.634   4.343
54467W        W25996   2.686  14.621  11.843
54468W        W25997  39.982  24.185   2.723
54469W        W25998  35.559  28.337   4.229
54470W        W25999  19.456  40.367   0.836
54471W        W26000  14.871  17.179  13.951
54472W        W26001  37.524  27.030   0.787
54473W        W26002  13.155  11.768  13.395
54474W        W26003  37.539  33.757   2.122
54475W        W26004   5.767  15.172  10.725
54476W        W26005  42.518   3.458   1.406
54477W        W26006   4.960  19.696  14.435
54478W        W26007  25.457   1.450  13.707
54479W        W26008  40.928  41.278   0.195
54480W        W26009  44.692  23.478   2.228
54481W        W26010  23.095  32.503  10.974
54482W        W26011   9.685  11.918   1.916
54483W        W26012  38.481  41.247  13.900
54484W        W26013  44.970  41.540   2.827
54485W        W26014  33.971  16.108   2.466
54486W        W26015  42.036  33.825   3.473
54487W        W26016  25.096  18.023  11.545
54488W        W26017  31.424  38.404  11.902
54489W        W26018   0.733  35.307  14.025
54490W        W26019  40.088   8.319  10.930
54491W        W26020   2.961  18.568  13.660
54492W        W26021  36.778  18.241   5.005
54493W        W26022  38.816  22.004  11.079
54494W        W26023  41.551  30.489   4.242
54495W        W26024  20.703  31.733   0.990
54496W        W26025  40.036  20.759   1.768
54497W        W26026  19.467  34.564   3.194
54498W        W26027  43.251  43.932  12.117
54499W        W26028  18.922  29.300  12.023
54500W        W26029   0.913  39.722  11.160
54501W        W26030  26.754  33.953   3.418
54502W        W26031  37.882  17.985  11.661
54503W        W26032   6.570   9.339  11.098
54504W        W26033   5.908  13.891  12.582
54505W        W26034  24.155  10.115   0.198
54506W        W26035  21.551   3.846  14.705
54507W        W26036  40.263  23.285   4.850
54508W        W26037  10.582  20.544  14.674
54509W        W26038  33.972  43.495   3.069
54510W        W26039  29.383  26.088   0.372
54511W        W26040  13.107  12.072   4.119
54512W        W26041   9.330  10.345   2.856
54513W        W26042  29.156  20.295  12.902
54514W        W26043  26.477  29.092   2.876
54515W        W26044  23.976  29.671   2.384
54516W        W26045   9.360  10.767   4.183
54517W        W26046  32.005   2.480   3.329
54518W        W26047  44.576  10.129  11.570
54519W        W26048  32.651  12.200  13.259
54520W        W26049  41.047   2.881   0.209
54521W        W26050   7.517  12.850   2.685
54522W        W26051  44.289   6.123  10.732
54523W        W26052   7.418  38.840   1.774
54524W        W26053  16.324   5.167  12.253
54525W        W26054  20.956  20.754   3.811
54526W        W26055  44.232   3.194   5.441
54527W        W26056  35.943  24.768   0.393
54528W        W26057  25.440  11.775  13.264
54529W        W26058  34.511   4.680  13.946
54530W        W26059   1.101   7.134  12.540
54531W        W26060  34.911   3.738   3.774
54532W        W26061  26.586  10.138  14.214
54533W        W26062  18.784  25.757  13.471
54534W        W26063  27.025  26.437   0.217
54535W        W26064  10.050   5.780   4.450
54536W        W26065  17.653   1.307  11.094
54537W        W26066  23.833   4.851   5.026
54538W        W26067  35.455  26.392   1.717
54539W        W26068  34.386  19.562  10.694
54540W        W26069  43.825  26.454   2.188
54541W        W26070   2.984   8.841   4.547
54542W        W26071  25.488   0.465   1.751
54543W        W26072   3.315  18.147  12.455
54544W        W26073  28.428  33.620   2.627
54545W        W26074  16.518  43.780   0.116
54546W        W26075   3.393  13.112  14.504
54547W        W26076  28.837  31.550  11.096
54548W        W26077   9.546   6.320   1.439
54549W        W26078   4.177  33.644   3.317
54550W        W26079  32.188  17.310   4.699
54551W        W26080  37.900  41.886   2.921
54552W        W26081  33.796   3.376   4.585
54553W        W26082   1.081   3.523   2.832
54554W        W26083  41.107  25.862   2.648
54555W        W26084  17.246  18.382  13.167
54556W        W26085   3.476  26.062  14.786
54557W        W26086  21.165   4.239   1.923
54558W        W26087   9.029  11.661  13.548
54559W        W26088   1.862   1.103   1.317
54560W        W26089   3.791  23.104   1.268
54561W        W26090  36.380  15.464  11.243
54562W        W26091   3.270  26.198   3.653
54563W        W26092   0.300   8.662  12.869
54564W        W26093  31.386  20.608  11.487
54565W        W26094   2.327  34.610   3.773
54566W        W26095  14.052  11.059   3.302
54567W        W26096  15.419  30.135  10.698
54568W        W26097  29.985  18.152   4.854
54569W        W26098   3.916  30.969   2.549
54570W        W26099  11.122  43.588  11.891
54571W        W26100  35.948  17.302   4.595
54572W        W26101  27.992  44.497  12.454
54573W        W26102  33.036   4.940   3.212
54574W        W26103  31.656   6.141   3.441
54575W        W26104  29.567   6.403  10.495
54576W        W26105  32.805  17.619   4.541
54577W        W26106  20.907  18.145  11.571
54578W        W26107  14.381  31.102   2.957
54579W        W26108  40.011  37.164   1.900
54580W        W26109   7.199  40.378  13.544
54581W        W26110  33.000  24.894  12.530
54582W        W26111  18.275  41.728  10.730
54583W        W26112  31.464   7.651   2.875
54584W        W26113  17.115  18.072   9.963
54585W        W26114  18.044  20.284  12.378
54586W        W26115  18.334  24.670  14.468
54587W        W26116  15.786  29.164  13.018
54588W        W26117  30.350  42.546  14.750
54589W        W26118  13.398   4.746   3.662
54590W        W26119   0.941  30.439   3.744
54591W        W26120   8.364  29.489  11.179
54592W        W26121  21.856  12.262   4.077
54593W        W26122  14.187   7.990  11.707
54594W        W26123  25.469  24.194   0.817
54595W        W26124  37.128   3.863  14.535
54596W        W26125  25.156  37.395   4.708
54597W        W26126  37.493   3.986  10.535
54598W        W26127  13.829  36.980  13.842
54599W        W26128   4.709  40.819  13.394
54600W        W26129  22.040  43.751  13.823
54601W        W26130  24.699  19.811  13.401
54602W        W26131   7.806  18.947   2.241
54603W        W26132  36.896  15.432   1.469
54604W        W26133  16.191   2.494  12.959
54605W        W26134  40.241  16.710   3.117
54606W        W26135  23.996  20.514   0.998
54607W        W26136  25.447  33.491   2.428
54608W        W26137   1.662  10.260   1.660
54609W        W26138  44.191  37.171   4.996
54610W        W26139  18.807  12.709  10.796
54611W        W26140  35.687  27.897  13.417
54612W        W26141   5.241  18.122  11.749
54613W        W26142   8.898  36.634   3.735
54614W        W26143   9.869  10.288   2.207
54615W        W26144   1.843   7.699   4.121
54616W        W26145   6.483   2.877  12.817
54617W        W26146  19.633  37.952  13.375
54618W        W26147   6.909  17.128  11.404
54619W        W26148  43.351  23.167   4.752
54620W        W26149  31.436   0.351   3.423
54621W        W26150   9.615  16.606   0.975
54622W        W26151  41.854  26.871   4.714
54623W        W26152  13.730   3.349   1.275
54624W        W26153  42.198  15.641   4.125
54625W        W26154  33.326  31.674   2.113
54626W        W26155   3.614  33.516   4.251
54627W        W26156  38.144   1.222   2.446
54628W        W26157  22.926  43.461   1.312
54629W        W26158  14.167  10.924   0.100
54630W        W26159  18.197  32.600  11.503
54631W        W26160  35.051   5.930  11.527
54632W        W26161  39.847  32.577   0.417
54633W        W26162  16.716  44.280   4.281
54634W        W26163  29.056   6.344   2.686
54635W        W26164  12.875  27.553   3.853
54636W        W26165  42.808  20.225   0.917
54637W        W26166  21.546   3.357  14.934
54638W        W26167   5.207  21.653  12.106
54639W        W26168  23.158  29.132   3.107
54640W        W26169   0.517  17.691   3.247
54641W        W26170   2.149  13.107   1.356
54642W        W26171   5.049  16.224  12.570
54643W        W26172  43.076  23.149  14.938
54644W        W26173  15.120  34.764  14.895
54645W        W26174  23.183  10.507  10.257
54646W        W26175  41.878   3.758  13.884
54647W        W26176  24.560  24.725  11.032
54648W        W26177  12.469  16.151   4.968
54649W        W26178  17.257  22.945   2.685
54650W        W26179  26.674  38.343  14.325
54651W        W26180  39.550  22.205  14.995
54652W        W26181  25.948  36.566  14.253
54653W        W26182  11.256  21.948  12.988
54654W        W26183  36.359  34.964  12.572
54655W        W26184   8.754  15.151  13.668
54656W        W26185  36.054  32.821   1.975
54657W        W26186  14.312  30.013  14.359
54658W        W26187  39.083  42.070  12.437
54659W        W26188  15.693  11.929  14.923
54660W        W26189  29.990   6.394  10.784
54661W        W26190  14.052  44.340   0.521
54662W        W26191   0.788  11.708  13.856
54663W        W26192  36.318  10.642   2.222
54664W        W26193  20.231   2.382   4.137
54665W        W26194  20.511  40.402  13.349
54666W        W26195  41.277  14.814   4.385
54667W        W26196  41.455  39.777  11.351
54668W        W26197  24.232  33.076  11.004
54669W        W26198  43.221  18.481   0.944
54670W        W26199   5.095  29.109   2.191
54671W        W26200  41.187  38.557  10.732
54672W        W26201  32.258  28.491  12.866
54673W        W26202   6.030  40.411  11.112
54674W        W26203  38.472  44.635  11.345
54675W        W26204  28.506  25.932   3.613
54676W        W26205   8.269  37.813   4.257
54677W        W26206  20.462  17.078   3.179
54678W        W26207  24.191  11.396   0.852
54679W        W26208  26.927   0.909   1.200
54680W        W26209  38.832   9.371  14.099
54681W        W26210   5.793   8.162  10.462
54682W        W26211  42.455  40.977  11.842
54683W        W26212  33.449  20.214  12.969
54684W        W26213  38.910   6.090   2.515
54685W        W26214  43.846  23.125   0.444
54686W        W26215  31.616  39.346   2.742
54687W        W26216  31.394   8.348  12.797
54688W        W26217  40.359  15.622  11.093
54689W        W26218  28.037  11.379  11.818
54690W        W26219  16.251  33.400   3.335
54691W        W26220  23.791  19.087  13.913
54692W        W26221  26.112  14.664   1.797
54693W        W26222  25.083  13.608   2.803
54694W        W26223  24.705   8.880   5.203
54695W        W26224  40.450  12.795   1.819
54696W        W26225  41.985  15.081   0.737
54697W        W26226  10.720   3.479   3.565
54698W        W26227  37.319  15.813  13.988
54699W        W26228  35.033  34.349   4.625
54700W        W26229  12.028   6.701  11.939
54701W        W26230  17.139  21.198  14.591
54702W        W26231  36.853  28.599   1.290
54703W        W26232  32.875   5.697   1.239
54704W        W26233  10.833   4.897   1.782
54705W        W26234  29.010  34.356   3.555
54706W        W26235  17.648  13.952  12.925
54707W        W26236  15.237  23.200  12.030
54708W        W26237  26.180   4.751  11.608
54709W        W26238   5.687   4.284   3.675
54710W        W26239   8.610   5.786   4.820
54711W        W26240  12.713  40.875  11.601
54712W        W26241  25.276  28.600   0.981
54713W        W26242   6.861   0.890   3.850
54714W        W26243   7.656  18.700   0.132
54715W        W26244   7.988  43.409   0.323
54716W        W26245  34.467  42.441   0.749
54717W        W26246  28.573  10.179  14.046
54718W        W26247  19.190  37.131   4.904
54719W        W26248  15.543   9.868  12.701
54720W        W26249  26.676  11.668  11.074
54721W        W26250  27.514  35.274  13.924
54722W        W26251  40.717  19.036   2.748
54723W        W26252  21.345  39.997   1.813
54724W        W26253  25.888  43.080   2.801
54725W        W26254   6.850   5.892   1.259
54726W        W26255   8.774  23.918   1.298
54727W        W26256  40.439  28.615  13.289
54728W        W26257  33.394  29.893  10.297
54729W        W26258  27.640  10.282  12.559
54730W        W26259   9.398  31.028  14.497
54731W        W26260  37.201  15.187   1.970
54732W        W26261  23.636  13.561  12.464
54733W        W26262   1.257  11.124   3.230
54734W        W26263  37.791  12.704  11.606
54735W        W26264  42.982  34.154   3.607
54736W        W26265  30.917  23.285   3.370
54737W        W26266  38.818   8.991  11.982
54738W        W26267  39.693  21.005  11.046
54739W        W26268   2.273   1.731  12.975
54740W        W26269  12.793  14.911  11.188
54741W        W26270  22.027  26.989   2.655
54742W        W26271  33.429   7.966   1.324
54743W        W26272  25.013  32.502   3.764
54744W        W26273  22.656  23.333   4.703
54745W        W26274  30.715  29.132   0.009
54746W        W26275  19.330  34.209  14.337
54747W        W26276  30.987  39.530   1.305
54748W        W26277  38.408  33.623   1.716
54749W        W26278   1.737  20.609  12.389
54750W        W26279  21.018  33.472  14.466
54751W        W26280  22.076  41.542  14.362
54752W        W26281  36.817   2.857   1.205
54753W        W26282  34.899  32.508   1.797
54754W        W26283  14.383  39.320  11.777
54755W        W26284  26.107  13.667   2.666
54756W        W26285  36.190  32.634   2.447
54757W        W26286  11.411  26.649   0.433
54758W        W26287  15.997   0.573  11.096
54759W        W26288   2.127   5.340  14.062
54760W        W26289  44.465  30.041   3.341
54761W        W26290  25.771   3.374   4.267
54762W        W26291  30.119  26.819  14.178
54763W        W26292  41.682  23.122   0.917
54764W        W26293  33.902  17.336   1.111
54765W        W26294  28.449  41.819   4.701
54766W        W26295   3.265  31.888   2.194
54767W        W26296  38.585   1.414  11.597
54768W        W26297  36.836  27.289  10.806
54769W        W26298  43.067  39.373   2.206
54770W        W26299  40.712  41.904   2.377
54771W        W26300  26.525   3.637   0.597
54772W        W26301  24.629  19.250  11.325
54773W        W26302  34.358  20.162  14.211
54774W        W26303  44.942   7.017   0.970
54775W        W26304  11.197  12.898  13.870
54776W        W26305   6.347  25.101   0.872
54777W        W26306   4.201  28.990   2.755
54778W        W26307   4.858   2.191   4.394
54779W        W26308   2.299  12.684   4.190
54780W        W26309  31.714  25.108   4.464
54781W        W26310   0.748  41.484   4.560
54782W        W26311   7.198  16.324   0.296
54783W        W26312  11.303  30.488   4.559
54784W        W26313  36.823  17.592   4.516
54785W        W26314  35.140  33.138   4.854
54786W        W26315  26.020   2.773  11.459
54787W        W26316  36.470   1.529  12.601
54788W        W26317  42.797  27.780   0.113
54789W        W26318  34.937  19.108   3.333
54790W        W26319  30.147  23.706   3.408
54791W        W26320   9.451  19.243  10.254
54792W        W26321   4.851   0.995  13.888
54793W        W26322  18.276  32.588   3.207
54794W        W26323  42.201  42.364   3.184
54795W        W26324  16.538   0.430  13.405
54796W        W26325  17.537  28.973   1.804
54797W        W26326   2.692  30.618   1.683
54798W        W26327  14.756  26.771   4.838
54799W        W26328  27.070   3.449  11.507
54800W        W26329  16.131  14.622   3.613
54801W        W26330   3.250   0.722  11.416
54802W        W26331  10.378  11.804   1.213
54803W        W26332   1.367  37.934  14.980
54804W        W26333  13.826  10.663   0.571
54805W        W26334  11.141  36.467  11.156
54806W        W26335  27.293  25.364  13.030
54807W        W26336  23.903  36.532   2.866
54808W        W26337   5.364  21.595   3.983
54809W        W26338   2.449  44.548   4.690
54810W        W26339  24.500  39.943   0.363
54811W        W26340  23.642  16.012  13.970
54812W        W26341   9.120   8.834   4.117
54813W        W26342  29.434  11.926   3.325
54814W        W26343  33.560  23.948  14.922
54815W        W26344   3.451  33.402  12.485
54816W        W26345   1.849  17.676   3.722
54817W        W26346  41.375  34.371   0.409
54818W        W26347  34.238   8.885  11.858
54819W        W26348   2.488   3.949   3.346
54820W        W26349   7.223  27.457  10.596
54821W        W26350   3.964   3.899   4.144
54822W        W26351  38.033  24.906  13.478
54823W        W26352   8.915  16.535   3.803
54824W        W26353  14.067  32.811   4.272
54825W        W26354  32.115  27.204  13.629
54826W        W26355  13.775  19.244   4.323
54827W        W26356  38.651  28.635  12.418
54828W        W26357  32.074  11.381  12.986
54829W        W26358  35.036  32.975   1.978
54830W        W26359  39.352   3.428  11.950
54831W        W26360  35.872   2.867   2.346
54832W        W26361  24.603   7.948  10.846
54833W        W26362   7.239   1.616  13.733
54834W        W26363   2.858  18.257   4.737
54835W        W26364   6.840  23.084  13.616
54836W        W26365   8.321  28.234   0.224
54837W        W26366   4.597  22.815  13.876
54838W        W26367  28.949   0.468  11.144
54839W        W26368  32.861  25.480  13.356
54840W        W26369  32.388  35.510  14.930
54841W        W26370  41.998   3.900  10.383
54842W        W26371  39.566  34.435  11.045
54843W        W26372  40.405  17.532  12.148
54844W        W26373   2.717  24.028  11.157
54845W        W26374  21.611  16.495   4.700
54846W        W26375  25.124  12.646  10.893
54847W        W26376  34.219  32.381  13.473
54848W        W26377  38.163  11.105  11.125
54849W        W26378  16.745  21.688  14.274
54850W        W26379  30.304   5.729  13.840
54851W        W26380   9.787  27.434  11.342
54852W        W26381  19.661  42.082  10.814
54853W        W26382  24.578  14.900   2.458
54854W        W26383  11.392  38.424  11.118
54855W        W26384   3.950   6.786   2.603
54856W        W26385  11.156  26.960   2.625
54857W        W26386  23.456  12.098   2.877
54858W        W26387  18.223  23.624  14.898
54859W        W26388  39.349   1.857  12.014
54860W        W26389  40.496  37.791  12.440
54861W        W26390  26.703   1.732  14.653
54862W        W26391  13.641  14.882   3.721
54863W        W26392   9.735  27.982   4.238
54864W        W26393  42.821  38.306   4.486
54865W        W26394  14.914  40.061   1.812
54866W        W26395   3.822   4.902   4.159
54867W        W26396  41.396  21.258  14.929
54868W        W26397   6.817  12.690  13.796
54869W        W26398  32.841  13.320   4.145
54870W        W26399  30.424  31.581   1.303
54871W        W26400  22.426   8.193   1.298
54872W        W26401  36.483  23.963  10.408
54873W        W26402  26.111   9.917  14.973
54874W        W26403  19.566   8.332  14.488
54875W        W26404  40.407   1.853   1.223
54876W        W26405  13.476  15.295   1.670
54877W        W26406  17.039   0.294  13.463
54878W        W26407  27.366  32.864   4.883
54879W        W26408  20.202  12.159   4.252
54880W        W26409   7.333  16.570   3.880
54881W        W26410  29.970  25.479   1.180
54882W        W26411  40.787  21.010   4.446
54883W        W26412  24.616   4.642   0.226
54884W        W26413  34.365   4.357  12.955
54885W        W26414  14.859  10.829   2.332
54886W        W26415  22.904  23.127  11.065
54887W        W26416  32.041  19.123   1.920
54888W        W26417  34.127  14.521   2.111
54889W        W26418  31.500   0.901  14.863
54890W        W26419  12.772  30.931   0.887
54891W        W26420  28.602   9.272   2.850
54892W        W26421  20.735  35.428   2.672
54893W        W26422  12.671  34.088  11.379
54894W        W26423   2.309  12.485  14.110
54895W        W26424  11.333  36.596  14.835
54896W        W26425  17.522  23.997  12.366
54897W        W26426  39.262  24.740  13.828
54898W        W26427  13.546  11.708   2.882
54899W        W26428  17.817  13.802   2.936
54900W        W26429   0.246  22.349  12.038
54901W        W26430  26.065   8.342  13.465
54902W        W26431  22.579   7.099  12.049
54903W        W26432  14.222  34.471   0.533
54904W        W26433   1.355  10.926   3.713
54905W        W26434  14.059   0.100  10.946
54906W        W26435  23.363  10.740   1.669
54907W        W26436  20.983  15.152  12.975
54908W        W26437  41.414  22.250   4.317
54909W        W26438  44.630  29.542   3.270
54910W        W26439   8.845   4.688  10.772
54911W        W26440  17.420  25.986  12.076
54912W        W26441  36.390   6.165   1.560
54913W        W26442  29.480  19.187  11.119
54914W        W26443  41.523   5.570   1.694
54915W        W26444  31.941  43.776   0.250
54916W        W26445   1.762  17.317  14.246
54917W        W26446  10.806  23.768   4.819
54918W        W26447  28.596  26.569  11.132
54919W        W26448   8.915   7.733  13.372
54920W        W26449   5.212  20.713   2.770
54921W        W26450  40.773   9.150   0.794
54922W        W26451  38.797  16.283  13.938
54923W        W26452  16.795  19.653   4.448
54924W        W26453  12.353  12.279   2.758
54925W        W26454  37.079  37.349   1.969
54926W        W26455  11.662  29.251   4.293
54927W        W26456  13.077  43.644   1.909
54928W        W26457  24.291   1.947  12.647
54929W        W26458  38.634   8.919  13.349
54930W        W26459  23.635  23.662   1.674
54931W        W26460  24.884   5.585  14.033
54932W        W26461  33.159  27.989   3.376
54933W        W26462  32.116   7.530   3.345
54934W        W26463  10.050  44.845   1.294
54935W        W26464  35.465  42.234  11.266
54936W        W26465  42.497   9.742  13.530
54937W        W26466  25.548  25.113   0.671
54938W        W26467   3.423   2.547   2.798
54939W        W26468   5.777   9.610  14.444
54940W        W26469  15.175   7.923  13.636
54941W        W26470  13.245  29.060  11.058
54942W        W26471  28.912   7.474   0.188
54943W        W26472   7.428  38.965   2.674
54944W        W26473  40.434  30.182   3.399
54945W        W26474  26.639  32.710  11.117
54946W        W26475  27.480  13.333   3.346
54947W        W26476  19.048  39.939  12.022
54948W        W26477  44.927  38.362  11.005
54949W        W26478   7.166   2.234  14.506
54950W        W26479  21.360  40.692  13.440
54951W        W26480   2.379  41.578  14.699
54952W        W26481  39.765  31.424  11.573
54953W        W26482  22.515  26.157  11.496
54954W        W26483  23.145   5.718   0.244
54955W        W26484  39.831  37.874  11.100
54956W        W26485  42.537  42.065  10.621
54957W        W26486  26.946  28.584   4.204
54958W        W26487  13.417   2.640   2.536
54959W        W26488  27.435   5.858   3.981
54960W        W26489  36.891  30.605   1.792
54961W        W26490  40.078  34.525   2.293
54962W        W26491  24.684   9.252  11.084
54963W        W26492  34.930  33.858   2.059
54964W        W26493   6.827  38.747  14.657
54965W        W26494  29.704  29.189  10.864
54966W        W26495  32.236  40.999  14.371
54967W        W26496   5.698  40.276   3.377
54968W        W26497  18.780   4.698   2.636
54969W        W26498   9.922  24.007   2.175
54970W        W26499  30.574  34.347  14.354
54971W        W26500  32.652  35.588  13.939
54972W        W26501  11.735  40.672   0.479
54973W        W26502   2.402  20.606   3.854
54974W        W26503  17.068  44.872  13.769
54975W        W26504  31.915  41.949   4.570
54976W        W26505   8.889  41.012  10.955
54977W        W26506  37.727  44.025  14.902
54978W        W26507  16.257  37.443   3.107
54979W        W26508  23.186  37.709  11.505
54980W        W26509   5.964  18.312  11.970
54981W        W26510   0.275  19.497   3.866
54982W        W26511  40.939  19.024  13.622
54983W        W26512  14.222  16.977  13.381
54984W        W26513  11.247  25.048  12.494
54985W        W26514   7.221  25.581  12.672
54986W        W26515  31.907  24.980   3.212
54987W        W26516  25.441   5.979   4.591
54988W        W26517  39.125  36.842  11.652
54989W        W26518  16.133  13.680   2.111
54990W        W26519  25.637  38.630   4.370
54991W        W26520  39.477  40.292   3.270
54992W        W26521   3.279   2.409   0.016
54993W        W26522  28.990  18.825   1.262
54994W        W26523  23.087   3.415   5.010
54995W        W26524   6.206  10.887  14.447
54996W        W26525  13.856  22.531  13.825
54997W        W26526  33.903  28.827   3.951
54998W        W26527  44.672   2.565   2.660
54999W        W26528  35.895  43.891  11.691
55000W        W26529  22.036  13.274   2.363
55001W        W26530  22.760  35.975   4.763
55002W        W26531  21.537  41.310   3.231
55003W        W26532  21.705  36.824   1.841
55004W        W26533  12.432  38.658   3.782
55005W        W26534  15.856  19.370   2.024
55006W        W26535   6.119  13.254   1.798
55007W        W26536  30.431  30.845   4.616
55008W        W26537  13.574  32.933  11.575
55009W        W26538  27.208  15.678   3.914
55010W        W26539  37.936  13.162  12.431
55011W        W26540  19.187  26.200   4.023
55012W        W26541  23.539   7.655   0.738
55013W        W26542  21.193  19.367  11.627
55014W        W26543  23.150  27.010   2.612
55015W        W26544  24.079   9.575   2.159
55016W        W26545  10.883  17.740   2.016
55017W        W26546  34.403  10.248   1.449
55018W        W26547  19.816  14.640   1.704
55019W        W26548  44.771  30.226  14.557
55020W        W26549   7.754  26.088  12.585
55021W        W26550  16.249  15.968   4.901
55022W        W26551  38.860  38.320  10.065
55023W        W26552   6.340   3.875   3.822
55024W        W26553  33.344  40.273   0.037
55025W        W26554  15.303  44.271   4.247
55026W        W26555   1.859   3.461   0.813
55027W        W26556  18.235  16.420   0.008
55028W        W26557   2.698   9.758  14.355
55029W        W26558   9.385  39.308   0.326
55030W        W26559   8.365  29.333   0.714
55031W        W26560  29.607  22.722  12.435
55032W        W26561  43.345  26.509   3.784
55033W        W26562  35.536  23.692   1.229
55034W        W26563  32.676   3.281   0.158
55035W        W26564   0.287  43.267  11.239
55036W        W26565  14.091  33.549   1.902
55037W        W26566   1.915  44.076   0.392
55038W        W26567  40.890  11.326   2.633
55039W        W26568  10.794  11.809  12.961
55040W        W26569  34.278  29.865  12.571
55041W        W26570  39.945  30.101   3.551
55042W        W26571  21.243   7.885  12.066
55043W        W26572  41.458   8.472  11.947
55044W        W26573  36.474  22.626  13.796
55045W        W26574  33.000  12.320  12.304
55046W        W26575   9.078   2.865   4.612
55047W        W26576  27.682  42.284  13.922
55048W        W26577  34.986  16.358   4.623
55049W        W26578  38.091  30.167   1.658
55050W        W26579  38.038  44.345  10.268
55051W        W26580  12.934   5.886   2.319
55052W        W26581  11.141  18.844  12.938
55053W        W26582  14.597  31.560  10.363
55054W        W26583  15.361  26.025   1.867
55055W        W26584  41.440   2.275  11.224
55056W        W26585   6.381  12.434  13.875
55057W        W26586  22.766   3.250   3.189
55058W        W26587  33.713   9.702  14.377
55059W        W26588   3.383  14.414   2.253
55060W        W26589  33.567  22.158   3.309
55061W        W26590  44.518  39.285  14.816
55062W        W26591  37.252  10.271   0.800
55063W        W26592   6.338  16.892   1.370
55064W        W26593  24.111  41.370   4.445
55065W        W26594  32.596   0.992   4.095
55066W        W26595   6.811  43.106   0.358
55067W        W26596  15.282  23.375   2.665
55068W        W26597  35.066  11.831   3.447
55069W        W26598  26.124  28.024  12.024
55070W        W26599   1.330   8.775   0.920
55071W        W26600   3.867   9.404  13.553
55072W        W26601  20.891  36.798   2.855
55073W        W26602  38.352  24.437  10.705
55074W        W26603  20.276   8.725  13.444
55075W        W26604  11.751  25.795   3.218
55076W        W26605   4.542  16.277  11.678
55077W        W26606  30.344   6.183   0.280
55078W        W26607   4.507  43.806   1.342
55079W        W26608   8.320  31.502  13.899
55080W        W26609  33.966   9.218  14.378
55081W        W26610  26.918  21.756   1.878
55082W        W26611   4.019  11.387   2.402
55083W        W26612  17.525  31.995   4.158
55084W        W26613   9.297  43.199   1.216
55085W        W26614   3.320  31.707   0.424
55086W        W26615  38.124  36.051  13.968
55087W        W26616  40.314  33.455  13.655
55088W        W26617  11.130   2.130   2.291
55089W        W26618  18.593  37.933  13.830
55090W        W26619   4.368   4.260   4.538
55091W        W26620  17.743   8.094  13.640
55092W        W26621  29.939  39.891  11.134
55093W        W26622  20.078   0.290  13.342
55094W        W26623  40.321  32.515  14.210
55095W        W26624  35.252  16.443  10.806
55096W        W26625  43.986  26.497  14.011
55097W        W26626  24.747  18.799  12.493
55098W        W26627  12.861   6.265   2.666
55099W        W26628   1.882  42.102   3.195
55100W        W26629  16.273  17.226  11.104
55101W        W26630  10.276  36.246  14.308
55102W        W26631  16.284   2.433   1.325
55103W        W26632  25.560  33.126  13.738
55104W        W26633  19.822  32.848   2.867
55105W        W26634  32.626   1.632  13.499
55106W        W26635   4.650  35.448  13.950
55107W        W26636  26.688   4.014  12.177
55108W        W26637  10.257  22.253  14.910
55109W        W26638  37.811  25.097   2.044
55110W        W26639  34.522  26.327   4.263
55111W        W26640  42.315  10.723   3.975
55112W        W26641  27.938  21.080  10.093
55113W        W26642  15.804  10.627  12.556
55114W        W26643  31.052  26.065  11.867
55115W        W26644   8.804  28.803   0.938
55116W        W26645   7.424   6.877   2.351
55117W        W26646  32.317  31.244  14.921
55118W        W26647  12.821  33.257  10.624
55119W        W26648  35.990  44.501  11.102
55120W        W26649   0.680  39.662   0.646
55121W        W26650  36.614   7.759  11.682
55122W        W26651   1.945  12.304  10.613
55123W        W26652  26.592   6.606   2.060
55124W        W26653  32.959  11.462  12.561
55125W        W26654   3.253   1.998  13.824
55126W        W26655   7.496  44.956   4.654
55127W        W26656  23.899   3.679   2.298
55128W        W26657   5.928   2.831  12.060
55129W        W26658  36.780   7.300   1.353
55130W        W26659  27.432  43.909  11.477
55131W        W26660  43.437  34.919  11.344
55132W        W26661   5.278  22.588   0.936
55133W        W26662  28.679  21.014   1.747
55134W        W26663  22.719  16.783  12.522
55135W        W26664   3.529   7.915   0.512
55136W        W26665   7.851   8.610   4.562
55137W        W26666   0.966  22.558  11.799
55138W        W26667  18.081   6.391   0.262
55139W        W26668  17.314   6.317   3.330
55140W        W26669   4.945  20.592  14.219
55141W        W26670   5.895  23.115  13.779
55142W        W26671  33.465  40.231   3.364
55143W        W26672  42.012  36.616  12.505
55144W        W26673   4.637   1.225   3.838
55145W        W26674  24.574  39.949   2.229
55146W        W26675   9.352   7.887   2.487
55147W        W26676  18.121   6.714   4.185
55148W        W26677  27.533  32.634   0.513
55149W        W26678   2.572  24.687   2.028
55150W        W26679   2.840  33.612  13.429
55151W        W26680  32.427   1.358   3.353
55152W        W26681  14.823  26.132  11.995
55153W        W26682  37.922  17.233   2.092
55154W        W26683  12.626  43.041   3.776
55155W        W26684   7.088   5.853  11.747
55156W        W26685   8.776  35.552   4.498
55157W        W26686   7.204  33.387  11.419
55158W        W26687  33.498  38.556   0.941
55159W        W26688  34.162  10.768  11.620
55160W        W26689  22.664  10.117  13.132
55161W        W26690  32.697  30.047   2.855
55162W        W26691  10.300  11.196  13.492
55163W        W26692  25.781  31.712  11.960
55164W        W26693  16.692  28.985  11.821
55165W        W26694   8.797  32.496  13.904
55166W        W26695  23.108   1.283  13.840
55167W        W26696   3.940   1.977   2.114
55168W        W26697  23.708  35.142  11.354
55169W        W26698  20.155  17.768  10.736
55170W        W26699  19.761  21.383   4.222
55171W        W26700  18.842  34.399   2.100
55172W        W26701  32.163  21.333   0.777
55173W        W26702  32.711   7.973  13.272
55174W        W26703  37.517  40.794   0.823
55175W        W26704  35.375  43.230   0.531
55176W        W26705  19.695  31.030   0.211
55177W        W26706  30.850  20.771  11.101
55178W        W26707  35.564  11.789  10.593
55179W        W26708  10.974   5.626   4.095
55180W        W26709  18.256  23.139   2.820
55181W        W26710   4.075  42.325   4.662
55182W        W26711  22.657  10.957  13.435
55183W        W26712  27.407   2.315  13.323
55184W        W26713  31.134   1.182  11.089
55185W        W26714  24.078   5.267  13.534
55186W        W26715  13.798  26.963   2.732
55187W        W26716  35.229   1.336  11.043
55188W        W26717   9.824   3.263   0.217
55189W        W26718  13.379  17.266   4.225
55190W        W26719  15.598   4.659  13.882
55191W        W26720  34.690  38.817  14.022
55192W        W26721  16.654  17.589  12.770
55193W        W26722   2.523  22.432   0.510
55194W        W26723  23.696   5.620   1.745
55195W        W26724   0.751   4.863  13.553
55196W        W26725  32.751  25.640  12.014
55197W        W26726  16.612  43.088   1.298
55198W        W26727   0.863   4.839   2.279
55199W        W26728  30.051  15.857   0.937
55200W        W26729   9.301  14.261  14.430
55201W        W26730  44.058  33.542  14.412
55202W        W26731  28.148  30.612   5.125
55203W        W26732  39.417  18.611   1.559
55204W        W26733  18.607  35.905   4.868
55205W        W26734  35.654  23.607   4.113
55206W        W26735   9.823   4.720  10.626
55207W        W26736   7.859  14.858  13.415
55208W        W26737  35.907   1.020   2.680
55209W        W26738  17.052  14.048   4.748
55210W        W26739  17.809  17.264  11.058
55211W        W26740  36.016   4.397   4.023
55212W        W26741  38.502   2.896   4.367
55213W        W26742  14.515  14.226   0.584
55214W        W26743  24.181  41.487   3.950
55215W        W26744  11.199   7.073   0.437
55216W        W26745  27.693   4.330   3.627
55217W        W26746  38.771  13.889   2.386
55218W        W26747   4.777  24.076   2.854
55219W        W26748   0.944   3.692   1.297
55220W        W26749   4.981   0.989  13.028
55221W        W26750   7.910  15.166  12.583
55222W        W26751  15.198  43.212   4.235
55223W        W26752   7.508  35.401   2.504
55224W        W26753   2.342  32.749  10.231
55225W        W26754  23.978  10.300   2.635
55226W        W26755  43.339  31.934  12.004
55227W        W26756   4.338  30.255  11.583
55228W        W26757   8.210   1.819  10.998
55229W        W26758  34.957  40.765   4.261
55230W        W26759  29.322   6.889   1.818
55231W        W26760   9.114  11.367  11.615
55232W        W26761   4.547  29.670  14.899
55233W        W26762  43.712  30.812  13.792
55234W        W26763  40.478   3.927  11.564
55235W        W26764  32.291  27.974   1.745
55236W        W26765  17.814  25.956  11.667
55237W        W26766  10.710   1.475   9.754
55238W        W26767   1.004   7.738   3.048
55239W        W26768   5.682   1.194   0.462
55240W        W26769  20.605  24.587  10.938
55241W        W26770  36.732   5.459  13.354
55242W        W26771  18.804   5.699  13.517
55243W        W26772  41.410  13.729   1.579
55244W        W26773  21.040   5.020  13.503
55245W        W26774  35.555  26.018  11.512
55246W        W26775  26.137  16.889  12.774
55247W        W26776  21.757  29.290  12.882
55248W        W26777  31.345  34.046  13.403
55249W        W26778  21.582  25.081  12.179
55250W        W26779  24.252  39.909   1.666
55251W        W26780  13.295  25.626  14.763
55252W        W26781  31.561  20.092  12.375
55253W        W26782  40.556  10.286   3.653
55254W        W26783  39.581  21.547   1.851
55255W        W26784   2.812   1.372   4.162
55256W        W26785  14.841  19.009   0.206
55257W        W26786   1.918  42.830   0.876
55258W        W26787  31.493  27.595  14.124
55259W        W26788  38.529   8.673   1.123
55260W        W26789   1.333   0.276  11.109
55261W        W26790  25.176  15.054  13.358
55262W        W26791  27.741  10.741   4.518
55263W        W26792  32.444  38.854  12.821
55264W        W26793  30.815  27.633  13.362
55265W        W26794  36.798  16.770  12.521
55266W        W26795  24.560  43.572  10.782
55267W        W26796   0.577  35.116   1.888
55268W        W26797  17.702  31.177  12.857
55269W        W26798  35.610  13.200  12.549
55270W        W26799   0.731  28.050   2.167
55271W        W26800  43.972  12.168  13.875
55272W        W26801  36.787  39.498   0.802
55273W        W26802  37.374  40.359  13.025
55274W        W26803  30.981  26.492  13.736
55275W        W26804  43.875  26.406   0.856
55276W        W26805   6.350  39.496   0.433
55277W        W26806  40.825  29.492   0.840
55278W        W26807  16.631  31.495   3.307
55279W        W26808   3.967  13.334   2.670
55280W        W26809   2.312  27.573   4.734
55281W        W26810   5.946  22.901  12.015
55282W        W26811  18.615   3.096   3.698
55283W        W26812   3.304   2.285   0.537
55284W        W26813  19.347  44.232   1.722
55285W        W26814  29.538   2.682   1.279
55286W        W26815  11.067  31.001  13.762
55287W        W26816  41.938  28.329  10.570
55288W        W26817  40.835  22.688  12.426
55289W        W26818  27.625   0.006   2.953
55290W        W26819  39.779  11.224  14.797
55291W        W26820   7.024  38.469   1.811
55292W        W26821  22.959  34.924   0.978
55293W        W26822   2.160  15.363   1.908
55294W        W26823  27.965  38.589   0.869
55295W        W26824  42.238   7.688   2.482
55296W        W26825   3.180  32.599   3.515
55297W        W26826  39.374  37.560   0.355
55298W        W26827  35.893   9.793   0.911
55299W        W26828  44.414   1.164   2.456
55300W        W26829  11.056  17.594   3.066
55301W        W26830  42.756  29.508   0.498
55302W        W26831  12.487  39.749   3.357
55303W        W26832  27.063  25.194  14.747
55304W        W26833  41.759   9.587  13.936
55305W        W26834  27.070  30.993  11.383
55306W        W26835  36.583   2.937   4.095
55307W        W26836  25.547  10.300   1.291
55308W        W26837  33.657  29.191   0.907
55309W        W26838   3.123  39.078   4.374
55310W        W26839  43.475   8.646  11.696
55311W        W26840  41.015  37.033  12.324
55312W        W26841  29.555  18.612  14.356
55313W        W26842  44.945  38.278   0.333
55314W        W26843   2.076   6.393  14.833
55315W        W26844   8.370  19.518   0.227
55316W        W26845  21.964  26.562  10.358
55317W        W26846  31.795  43.525  13.534
55318W        W26847  31.070  42.844   1.809
55319W        W26848  37.304  32.987   1.348
55320W        W26849  23.936  10.434  14.337
55321W        W26850  17.928  43.816  12.944
55322W        W26851  23.617  41.784   3.201
55323W        W26852   6.831  19.486  14.852
55324W        W26853  28.665  42.053  11.624
55325W        W26854  40.391  17.084  10.403
55326W        W26855  24.249  31.057   1.357
55327W        W26856  31.515  37.665   1.804
55328W        W26857  18.116   6.644  12.147
55329W        W26858  37.423   5.878   0.684
55330W        W26859  30.655  33.537  14.796
55331W        W26860  44.041   6.417  11.065
55332W        W26861   9.551  38.346  12.639
55333W        W26862  27.476  12.353   3.085
55334W        W26863  17.386   7.004  10.066
55335W        W26864  21.046  31.924  11.084
55336W        W26865  39.195  44.825   2.174
55337W        W26866  44.265  12.322   4.597
55338W        W26867  33.361   9.522   3.120
55339W        W26868  15.567  32.436   0.092
55340W        W26869  36.371  33.646  14.548
55341W        W26870   8.410  18.678   1.924
55342W        W26871  23.163   7.044  14.965
55343W        W26872   1.381  18.210  14.805
55344W        W26873  33.559  22.619   3.580
55345W        W26874  21.794  38.864  11.091
55346W        W26875  12.136  31.110  11.377
55347W        W26876  43.534  11.268   4.225
55348W        W26877  13.268  15.140   2.715
55349W        W26878   7.400  14.665  13.381
55350W        W26879  29.171  12.060   2.887
55351W        W26880   5.890  17.097   1.216
55352W        W26881  19.664  13.309  10.767
55353W        W26882  43.254  20.782   2.394
55354W        W26883   1.837   0.686  14.876
55355W        W26884  25.981  30.213  14.973
55356W        W26885  26.323   9.217  11.990
55357W        W26886  30.942  10.338   0.755
55358W        W26887  30.989  39.243   3.303
55359W        W26888  12.199  16.283   0.391
55360W        W26889  11.486  37.099   4.702
55361W        W26890   4.175  40.603   1.101
55362W        W26891   2.262  12.752   0.019
55363W        W26892  27.389  14.529   0.861
55364W        W26893  31.092  23.159   0.368
55365W        W26894   0.486  41.448  14.589
55366W        W26895  18.249   4.258   2.408
55367W        W26896  14.541  32.430  12.788
55368W        W26897  42.376  24.465   0.562
55369W        W26898  11.296  11.078   1.708
55370W        W26899  35.136  37.428   4.830
55371W        W26900  36.766  43.869  14.857
55372W        W26901  41.064   5.036  12.002
55373W        W26902  17.837   0.783   3.625
55374W        W26903  23.683   0.800  13.580
55375W        W26904  24.700  39.849   2.729
55376W        W26905   7.807  24.608  13.459
55377W        W26906   7.745  15.832   1.984
55378W        W26907  32.597  20.268  10.507
55379W        W26908   9.400  39.952  13.534
55380W        W26909  33.687  13.820   4.942
55381W        W26910   5.662  41.504  12.586
55382W        W26911   1.911  14.891  13.424
55383W        W26912  38.023   0.762   0.431
55384W        W26913  30.574  35.971   2.315
55385W        W26914  14.646  43.324   4.160
55386W        W26915   7.436  15.491   1.718
55387W        W26916  15.278  34.986  11.622
55388W        W26917  18.164  43.070   2.996
55389W        W26918  32.369  26.020  12.905
55390W        W26919  43.539  31.585  12.989
55391W        W26920  12.747  14.102   5.296
55392W        W26921  43.939  31.303   3.724
55393W        W26922  27.507  35.468  11.608
55394W        W26923  38.941  24.625   4.683
55395W        W26924  29.674  36.339  11.139
55396W        W26925  22.111   0.956  10.244
55397W        W26926  35.901   6.322   1.726
55398W        W26927  37.295  40.292   3.220
55399W        W26928   1.308  42.349   2.310
55400W        W26929  20.416   8.841   4.564
55401W        W26930  25.410  35.931   3.656
55402W        W26931  29.185   1.181  11.918
55403W        W26932  32.633  28.546  14.294
55404W        W26933  39.999  15.808   3.150
55405W        W26934  41.057  29.163   3.876
55406W        W26935  36.400  36.118   1.904
55407W        W26936  35.357  33.537  13.433
55408W        W26937  40.570  41.566   3.754
55409W        W26938  14.900   2.915  12.408
55410W        W26939  18.133  20.116   0.575
55411W        W26940  15.711   9.721  14.331
55412W        W26941   7.559  39.246  12.055
55413W        W26942  40.415  25.368   0.803
55414W        W26943  11.369  16.894   1.348
55415W        W26944   3.247  13.348  12.119
55416W        W26945  43.948   1.207   2.720
55417W        W26946  11.231   6.960   4.693
55418W        W26947  42.140  42.895  14.517
55419W        W26948  27.956  18.837   4.717
55420W        W26949  29.139   4.326  11.541
55421W        W26950  30.528  38.945  13.321
55422W        W26951  25.076   4.445   4.251
55423W        W26952  24.565  31.451   1.443
55424W        W26953   9.599  32.034   3.691
55425W        W26954  32.031  27.696   5.173
55426W        W26955  25.906  21.569   2.928
55427W        W26956  22.470   3.297   3.628
55428W        W26957  11.683  38.969  11.923
55429W        W26958  16.364  38.507   1.276
55430W        W26959  26.225   9.572   1.955
55431W        W26960  25.568  12.885  10.700
55432W        W26961   0.335  14.687   4.153
55433W        W26962   8.220   0.112  11.629
55434W        W26963  31.798  38.772   4.975
55435W        W26964  35.814  26.548  11.599
55436W        W26965  11.282  41.389  12.779
55437W        W26966  19.125  44.267   3.725
55438W        W26967  24.449  33.332   1.041
55439W        W26968  24.709  37.356   2.186
55440W        W26969  36.599   4.427  12.479
55441W        W26970  26.500  43.859   1.835
55442W        W26971  14.929  35.389  11.605
55443W        W26972  29.662  31.537  13.504
55444W        W26973   1.235  31.348   2.911
55445W        W26974   0.043   8.549   0.146
55446W        W26975   3.370  38.396  10.728
55447W        W26976  22.184   1.822  14.093
55448W        W26977  40.663   4.688  12.014
55449W        W26978  25.774  40.184  10.733
55450W        W26979  33.201  29.698   1.267
55451W        W26980  36.132   2.391   2.855
55452W        W26981  34.876  38.315  11.426
55453W        W26982  18.793   0.235   4.211
55454W        W26983  16.199  27.561  10.715
55455W        W26984  18.152  27.956  10.695
55456W        W26985   1.344  35.096   4.961
55457W        W26986  34.305   2.196   4.833
55458W        W26987  14.170   4.199   2.404
55459W        W26988   2.385  33.176   3.639
55460W        W26989   6.395  39.762   1.176
55461W        W26990  23.500  43.921  11.943
55462W        W26991  13.864  23.701  13.490
55463W        W26992  35.831  34.049  10.770
55464W        W26993  10.889  44.716  12.104
55465W        W26994  29.022   7.487  14.657
55466W        W26995  16.478   6.447  11.064
55467W        W26996  29.015  42.260  14.893
55468W        W26997  13.188  38.840  11.159
55469W        W26998  44.221  17.172   1.242
55470W        W26999   0.342  37.566   3.754
55471W        W27000  32.415  28.498   2.885
55472W        W27001  44.467  13.687   1.286
55473W        W27002  15.530  16.724  13.489
55474W        W27003  36.010  39.490   3.672
55475W        W27004   5.460  29.544   1.234
55476W        W27005  12.267  21.054  12.849
55477W        W27006  38.002   1.529  13.986
55478W        W27007   6.412  19.414  11.554
55479W        W27008  34.631  18.025  13.760
55480W        W27009  18.054  39.216   0.959
55481W        W27010  28.795  14.078  12.497
55482W        W27011   7.873  16.643  14.458
55483W        W27012   5.622   0.040  11.181
55484W        W27013   7.951  39.570   1.802
55485W        W27014  12.131  27.824  13.624
55486W        W27015   0.823  33.459  11.095
55487W        W27016   4.632  33.511  11.972
55488W        W27017  29.478  18.554   0.928
55489W        W27018  31.661   5.724   2.347
55490W        W27019   0.987  28.057   0.817
55491W        W27020  26.075  43.271   0.698
55492W        W27021  37.780  40.772  13.376
55493W        W27022  44.970  30.524  11.851
55494W        W27023   1.432  18.479   0.944
55495W        W27024   1.402  21.701  10.416
55496W        W27025   4.999  41.445   4.563
55497W        W27026   8.957  29.171   9.992
55498W        W27027  27.633  35.475   0.257
55499W        W27028  43.917  41.318   0.436
55500W        W27029  17.329  41.587  13.971
55501W        W27030  35.409  19.598  11.515
55502W        W27031  14.089  12.103   2.497
55503W        W27032  30.463  42.313  13.768
55504W        W27033  25.020  12.876   2.273
55505W        W27034  44.338   4.330  13.032
55506W        W27035  20.952  24.969  10.893
55507W        W27036   1.756   9.157  14.592
55508W        W27037   1.042   3.317  10.998
55509W        W27038  35.285  26.201  14.737
55510W        W27039  41.176  12.597  11.351
55511W        W27040  17.173  43.385  12.060
55512W        W27041  41.783  27.406   1.016
55513W        W27042  14.608   8.189   3.668
55514W        W27043  21.036  30.903  11.180
55515W        W27044  14.810  17.001   4.175
55516W        W27045  17.219  11.629   1.746
55517W        W27046  10.711  32.993   2.835
55518W        W27047  19.028  33.071   2.468
55519W        W27048  17.023  14.090   3.797
55520W        W27049   9.224  37.581   0.482
55521W        W27050  43.637  10.135   2.084
55522W        W27051  25.911  17.081  12.079
55523W        W27052  19.785  44.643   0.982
55524W        W27053  44.345   5.509   0.942
55525W        W27054  21.064  32.173  11.541
55526W        W27055  41.662   7.338  10.347
55527W        W27056  25.760   6.699  14.209
55528W        W27057  22.451  17.111  14.752
55529W        W27058   6.393  42.019   1.698
55530W        W27059  37.911   3.887  13.800
55531W        W27060  12.151   8.791   0.906
55532W        W27061   5.652   4.924  14.259
55533W        W27062  27.384  10.779   4.153
55534W        W27063  18.768  12.310   2.343
55535W        W27064  19.737   7.372  14.876
55536W        W27065  20.732  42.289   2.777
55537W        W27066  35.919  44.729   1.692
55538W        W27067  40.622  29.856  10.556
55539W        W27068   0.414  30.528  12.946
55540W        W27069   3.481  36.076  12.928
55541W        W27070  28.210  23.637  12.503
55542W        W27071  35.868   9.600  11.107
55543W        W27072  35.038  40.283   4.402
55544W        W27073  19.026  13.870  12.970
55545W        W27074  28.220  21.153   1.039
55546W        W27075   8.360  35.323  13.793
55547W        W27076  17.141  35.881   2.485
55548W        W27077  26.683  29.383  10.972
55549W        W27078  19.634  15.663   3.691
55550W        W27079  35.791  36.989   3.246
55551W        W27080   4.679  17.551  12.439
55552W        W27081  24.626  43.307  12.587
55553W        W27082  43.494   6.995   0.005
55554W        W27083  32.580  19.329  14.824
55555W        W27084   6.849  39.078  12.507
55556W        W27085  40.186  31.892   3.582
55557W        W27086   2.159   5.843  14.540
55558W        W27087  31.936  40.335  13.889
55559W        W27088  29.570  11.641   2.868
55560W        W27089  33.027  40.674  11.222
55561W        W27090   8.263  27.503  13.402
55562W        W27091   6.917  41.558   0.210
55563W        W27092  14.718  12.939   4.131
55564W        W27093  32.357  18.483  12.472
55565W        W27094  31.829  29.444   2.706
55566W        W27095  26.592  18.094  10.835
55567W        W27096  15.788  10.010   4.061
55568W        W27097  28.090  37.279   1.788
55569W        W27098  14.292  30.910  13.392
55570W        W27099  37.874  19.550  12.086
55571W        W27100  13.409  41.396  12.095
55572W        W27101  32.027  33.543  14.768
55573W        W27102   4.787  39.002   3.257
55574W        W27103  10.199   9.060   1.839
55575W        W27104  37.873  41.848   3.546
55576W        W27105  38.844   3.787   1.053
55577W        W27106  16.578  13.407  10.647
55578W        W27107  41.133  24.097   0.675
55579W        W27108  19.709  24.808   2.371
55580W        W27109   7.945  35.028  11.568
55581W        W27110  20.710  24.932   1.175
55582W        W27111   2.366  36.311  11.476
55583W        W27112  40.495  22.645  10.656
55584W        W27113  41.946  31.109  12.401
55585W        W27114  39.006   4.332  10.217
55586W        W27115   9.396  38.574  14.753
55587W        W27116   7.808  34.401  13.817
55588W        W27117  10.577  30.379  13.924
55589W        W27118   2.403  27.438   1.756
55590W        W27119  12.879  15.053  14.636
55591W        W27120  17.180  18.129   0.282
55592W        W27121  34.970   8.389   0.254
55593W        W27122  22.777  22.322   4.549
55594W        W27123  44.348   1.816  11.854
55595W        W27124   1.798  40.991   2.892
55596W        W27125  14.289  11.156   1.058
55597W        W27126  10.337  31.012  11.999
55598W        W27127  21.520  13.445   2.374
55599W        W27128  27.678  15.720  13.838
55600W        W27129  38.768   5.690   3.834
55601W        W27130  20.639  13.783   3.666
55602W        W27131  34.499  22.628   2.337
55603W        W27132  36.474   3.312   5.081
55604W        W27133   4.387  13.095   0.952
55605W        W27134  21.332  28.985  12.856
55606W        W27135  37.262  39.789   3.278
55607W        W27136  13.810  26.750   1.873
55608W        W27137  24.079  11.847  14.800
55609W        W27138   9.137  10.138  12.838
55610W        W27139  14.220  13.890   4.993
55611W        W27140  16.210  29.383   0.748
55612W        W27141  26.099   3.084  10.485
55613W        W27142   3.433  26.129   1.112
55614W        W27143  16.206   2.825  13.869
55615W        W27144   7.563  10.649  11.004
55616W        W27145  17.177  19.629  14.128
55617W        W27146  25.809   3.964   3.669
55618W        W27147  39.039  24.633   3.701
55619W        W27148  15.629  43.713  12.122
55620W        W27149  14.515  24.101   0.869
55621W        W27150  22.258  29.241  12.046
55622W        W27151   2.781  43.864   2.208
55623W        W27152  23.499  33.820  13.007
55624W        W27153   7.413  13.819   4.830
55625W        W27154  25.706  36.111   4.708
55626W        W27155  41.039  15.923  13.427
55627W        W27156   1.801  15.271   2.885
55628W        W27157   6.656  11.366   4.813
55629W        W27158  28.927   8.206   2.787
55630W        W27159   2.133  26.277  10.874
55631W        W27160   5.798  31.393  11.353
55632W        W27161  37.910  25.659   2.769
55633W        W27162  32.587  16.988  11.495
55634W        W27163   2.764  13.622   4.452
55635W        W27164  11.110   1.915   3.215
55636W        W27165  19.145  25.503  13.142
55637W        W27166  16.895  42.256  12.581
55638W        W27167  43.442  12.670   1.397
55639W        W27168  11.746  39.101   4.246
55640W        W27169   1.028  34.647  14.331
55641W        W27170   9.912  38.614   1.627
55642W        W27171  41.491  14.645  11.885
55643W        W27172  36.786  22.623  10.502
55644W        W27173  32.621   8.829   4.378
55645W        W27174  36.971  24.301   2.734
55646W        W27175  30.072  24.252  10.632
55647W        W27176  36.926  23.638  13.519
55648W        W27177  28.716  21.285  14.584
55649W        W27178  37.633  42.863  14.887
55650W        W27179  38.490  36.371   3.598
55651W        W27180  35.518  39.359  10.724
55652W        W27181  34.505  10.985  12.442
55653W        W27182  36.986  23.563   3.490
55654W        W27183  31.951  41.284  12.858
55655W        W27184  13.230  22.789   0.392
55656W        W27185  22.724  40.477  14.109
55657W        W27186  11.555  39.295   2.361
55658W        W27187  29.551  16.260  12.093
55659W        W27188  13.686  13.034   4.978
55660W        W27189  12.418  42.255   2.011
55661W        W27190   3.804  44.946  13.538
55662W        W27191  27.589  31.341   1.691
55663W        W27192  26.456  19.962  14.966
55664W        W27193   1.293  19.500   1.865
55665W        W27194  10.358  13.782  11.636
55666W        W27195  28.677  19.999  13.978
55667W        W27196  36.821  23.551  10.453
55668W        W27197  40.353  32.619   0.236
55669W        W27198  35.942   3.367  13.030
55670W        W27199  16.478  15.370   4.075
55671W        W27200   2.455   4.237  11.638
55672W        W27201  34.117  14.833   3.848
55673W        W27202  28.322  32.586   4.166
55674W        W27203  30.168  38.429   0.472
55675W        W27204  34.001   7.733   4.069
55676W        W27205  25.160  17.949  12.432
55677W        W27206   5.193   0.320   1.299
55678W        W27207  42.389   0.502   4.701
55679W        W27208  39.389  23.169   3.882
55680W        W27209  30.756  33.239   4.028
55681W        W27210  15.823   5.970   4.964
55682W        W27211  10.072   8.564   1.963
55683W        W27212  19.931  36.705  11.518
55684W        W27213  32.351   1.445   4.242
55685W        W27214  10.187  12.850   0.663
55686W        W27215   7.633  28.114  12.450
55687W        W27216  26.064  41.747  12.521
55688W        W27217  14.540   1.781  13.551
55689W        W27218  30.627  36.917   3.885
55690W        W27219  27.800  29.451   1.768
55691W        W27220   5.288  27.930   0.981
55692W        W27221  25.104   1.983   2.789
55693W        W27222   2.301  43.523   1.908
55694W        W27223  12.635  31.767  13.813
55695W        W27224   1.817  31.435  11.231
55696W        W27225  29.403  42.049   4.495
55697W        W27226   6.382  26.283   0.817
55698W        W27227  15.838  34.997   4.317
55699W        W27228   7.821  26.673  10.364
55700W        W27229   5.744  20.737   2.852
55701W        W27230  42.108   5.623  12.076
55702W        W27231  35.128  41.992   0.292
55703W        W27232  38.525  19.649   4.985
55704W        W27233  29.109   1.439  14.768
55705W        W27234  25.072   9.463  12.957
55706W        W27235  28.953  43.168   1.884
55707W        W27236   1.824  28.894  13.870
55708W        W27237  33.744  34.606   4.642
55709W        W27238  33.879   9.024  12.195
55710W        W27239   0.213  41.730   3.977
55711W        W27240   4.427  23.530   0.482
55712W        W27241   9.497  14.610  10.682
55713W        W27242  42.685  29.560   0.001
55714W        W27243  35.028   9.698   1.355
55715W        W27244  15.049  33.947  11.593
55716W        W27245  12.332  23.032  14.359
55717W        W27246   6.033  34.463   1.826
55718W        W27247  19.560  26.966  13.514
55719W        W27248   8.899  13.423  12.862
55720W        W27249  31.076  20.083   0.402
55721W        W27250  10.141  17.798   3.868
55722W        W27251  29.126  22.668  11.205
55723W        W27252  13.187  28.414  14.269
55724W        W27253  16.174  33.525   1.922
55725W        W27254   8.774  22.205   2.431
55726W        W27255  38.039  37.610   5.373
55727W        W27256  41.804  17.903  14.491
55728W        W27257  44.873  28.480   4.606
55729W        W27258  10.325  17.862  11.458
55730W        W27259  26.463  17.648   2.186
55731W        W27260  26.019  10.269  12.954
55732W        W27261  32.416  21.769  13.344
55733W        W27262   2.691  33.463   2.260
55734W        W27263  14.745  39.979  13.853
55735W        W27264   6.911   9.176   0.884
55736W        W27265  19.285   7.833  10.753
55737W        W27266  27.476   5.918   0.341
55738W        W27267  39.504  17.975  11.583
55739W        W27268  30.118  35.417  12.704
55740W        W27269  41.425  27.060   1.708
55741W        W27270  11.120  15.640   1.815
55742W        W27271   6.919  33.521  10.632
55743W        W27272  32.875  34.403  11.900
55744W        W27273   9.059  21.856  11.296
55745W        W27274  18.321  17.465   4.585
55746W        W27275  25.358  16.333  14.584
55747W        W27276  31.553  22.738   1.825
55748W        W27277  44.391   9.731   1.441
55749W        W27278  29.911   6.217   4.185
55750W        W27279  11.755  39.649   1.720
55751W        W27280   5.238  11.301   0.063
55752W        W27281   0.948  31.455  13.022
55753W        W27282  12.254  12.095   3.741
55754W        W27283  28.576  30.818  13.049
55755W        W27284   6.417  30.576   4.158
55756W        W27285  36.292  37.343   3.644
55757W        W27286  18.698   3.800  12.518
55758W        W27287  13.245  38.329  11.102
55759W        W27288  27.453  37.543  11.565
55760W        W27289  35.743  37.368  14.352
55761W        W27290  20.671  16.469   2.967
55762W        W27291  23.350  32.973  10.959
55763W        W27292   3.415   7.652  11.131
55764W        W27293  18.814  16.677   1.206
55765W        W27294  44.481  27.445  12.902
55766W        W27295  12.697  25.878  11.154
55767W        W27296  26.467  14.443  14.885
55768W        W27297  25.168  11.216  11.233
55769W        W27298  25.784  44.434   1.127
55770W        W27299   1.068  13.800  13.822
55771W        W27300  30.487  43.755  14.462
55772W        W27301  20.644  43.563  10.728
55773W        W27302   4.316  43.362   2.605
55774W        W27303  42.488  42.937  14.884
55775W        W27304  22.786  25.583  13.138
55776W        W27305  10.883  39.050   4.657
55777W        W27306  34.197   4.365  11.177
55778W        W27307   3.823  36.124  11.221
55779W        W27308  11.891  15.596   2.238
55780W        W27309   1.787  44.374   1.050
55781W        W27310  22.333  27.133  11.654
55782W        W27311  11.771  43.986   1.904
55783W        W27312  16.908  30.067   4.603
55784W        W27313  40.247  18.752  10.756
55785W        W27314   0.264  10.595   4.342
55786W        W27315  13.697  31.102  12.810
55787W        W27316  13.813  43.625  14.283
55788W        W27317  29.377  39.836  13.314
55789W        W27318  36.587  17.134  13.218
55790W        W27319  25.513   0.164   2.653
55791W        W27320  30.983  36.067  14.454
55792W        W27321  27.507  16.070   2.682
55793W        W27322   2.949  26.040   0.923
55794W        W27323  41.118  25.022  10.600
55795W        W27324  11.203   2.440   3.338
55796W        W27325  18.102  26.581  10.085
55797W        W27326   4.210  30.683   3.288
55798W        W27327  14.813   8.291  11.916
55799W        W27328  22.140   1.398  10.518
55800W        W27329  13.714   8.418   3.643
55801W        W27330  40.569  37.020  11.332
55802W        W27331   2.299   3.789  11.899
55803W        W27332  21.631  25.769  14.996
55804W        W27333  21.531  18.412  12.840
55805W        W27334  24.504   7.831   4.053
55806W        W27335   8.873   9.827   1.629
55807W        W27336  35.140  38.515  10.658
55808W        W27337  27.501   8.240  13.224
55809W        W27338  24.700   3.389  10.629
55810W        W27339  43.562  33.766   2.691
55811W        W27340  25.699  14.571   0.485
55812W        W27341  17.270  10.803  13.065
55813W        W27342  42.429  36.689   2.893
55814W        W27343   0.746  33.103   4.126
55815W        W27344  18.652  38.238   0.239
55816W        W27345  22.610  25.204   1.405
55817W        W27346  14.846  29.596   1.670
55818W        W27347  31.416  32.695  10.680
55819W        W27348  23.424  28.007   3.781
55820W        W27349  15.071  21.719  13.296
55821W        W27350  24.378  26.120  11.266
55822W        W27351  16.114  20.035   0.407
55823W        W27352  23.844   6.653  12.170
55824W        W27353  16.442  14.462  11.999
55825W        W27354  16.482  27.145  10.562
55826W        W27355  12.624   3.456  13.463
55827W        W27356  44.830  14.448   0.332
55828W        W27357  29.987   9.184   1.635
55829W        W27358  15.154  19.914   1.376
55830W        W27359  18.615  40.961   2.986
55831W        W27360  15.124  36.614  13.563
55832W        W27361  37.036  28.426   3.207
55833W        W27362   8.229  23.928  14.958
55834W        W27363   6.982  21.721  14.428
55835W        W27364  43.507  28.752  11.545
55836W        W27365  15.028  32.668  12.818
55837W        W27366  43.780  28.859  11.990
55838W        W27367  42.796  28.369   3.682
55839W        W27368  41.699   6.977   3.193
55840W        W27369  13.414  34.154   0.618
55841W        W27370   7.139  33.845   3.314
55842W        W27371   5.710  16.601  12.367
55843W        W27372  38.906  15.841   1.203
55844W        W27373  15.281  36.993  14.562
55845W        W27374   7.447  25.926  12.978
55846W        W27375  16.196   2.407   2.340
55847W        W27376   7.412  10.799   4.601
55848W        W27377  32.335   2.969   3.300
55849W        W27378  35.524   2.350   0.746
55850W        W27379   4.859  29.686   2.086
55851W        W27380  20.125   0.027  10.870
55852W        W27381   2.741  44.789   0.900
55853W        W27382  16.717  12.321   2.194
55854W        W27383  44.319   9.738   4.299
55855W        W27384  35.957  43.415   4.383
55856W        W27385  44.346  39.817  12.531
55857W        W27386  32.079  22.444  11.589
55858W        W27387  20.516  12.877   1.293
55859W        W27388   5.757   2.004  11.088
55860W        W27389   1.802  41.407  13.461
55861W        W27390   7.911   2.625  11.573
55862W        W27391  34.838  27.034   1.155
55863W        W27392  27.609  33.048   0.214
55864W        W27393  37.537   3.560  12.399
55865W        W27394  30.423   7.010  14.835
55866W        W27395  33.561  32.670   1.908
55867W        W27396   4.478  33.878   1.262
55868W        W27397   0.489   9.168  12.927
55869W        W27398  38.836   4.299   3.995
55870W        W27399  18.567  10.924  14.304
55871W        W27400   4.225  23.808   0.864
55872W        W27401  15.680  36.759   2.882
55873W        W27402  18.576  36.511  13.863
55874W        W27403  12.727  11.307   1.771
55875W        W27404  21.981  43.978  12.454
55876W        W27405  28.671   7.118  12.879
55877W        W27406  14.000   3.307   4.800
55878W        W27407  35.835   3.172   0.458
55879W        W27408  12.187  24.014   0.534
55880W        W27409  20.205  36.919   1.826
55881W        W27410  11.077   6.221   2.273
55882W        W27411  40.147  44.668   2.071
55883W        W27412  19.235   1.798   3.662
55884W        W27413  33.860  15.117   3.212
55885W        W27414  12.367  30.017  14.712
55886W        W27415   2.549  18.660  13.358
55887W        W27416  36.609   9.413  10.680
55888W        W27417  29.944   8.488  14.438
55889W        W27418  18.621  33.075   2.144
55890W        W27419  38.465   9.838   0.617
55891W        W27420   8.889  33.509  13.303
55892W        W27421  13.693  27.699  10.515
55893W        W27422  43.405  35.851  10.987
55894W        W27423   5.353  16.242  14.917
55895W        W27424  32.475   3.653   4.680
55896W        W27425   1.080  11.821  14.533
55897W        W27426   5.875  35.666   4.457
55898W        W27427  30.778  10.041  10.239
55899W        W27428  21.593  31.102   1.260
55900W        W27429   8.756  22.021   1.101
55901W        W27430  15.829  28.349   2.256
55902W        W27431  35.651   9.161   3.598
55903W        W27432  33.088  26.552   1.454
55904W        W27433  31.446  16.770   3.797
55905W        W27434  10.311  40.085  10.834
55906W        W27435  10.996  35.041  12.003
55907W        W27436  21.838  19.043  13.327
55908W        W27437  15.586   3.894   2.707
55909W        W27438  18.968   0.617  11.111
55910W        W27439  30.659  35.879  11.123
55911W        W27440  28.545  27.076  13.481
55912W        W27441  16.094  31.745  12.126
55913W        W27442  18.771  35.793  14.555
55914W        W27443  25.980  16.648  12.351
55915W        W27444  11.621  27.134  11.096
55916W        W27445  36.584  40.592   1.809
55917W        W27446  28.818  13.101  14.805
55918W        W27447  32.672  33.566  12.897
55919W        W27448  35.858  24.193  11.134
55920W        W27449   4.850   1.983   2.260
55921W        W27450   2.741  32.405   1.698
55922W        W27451   8.430  15.837   2.738
55923W        W27452  37.401   4.800   2.336
55924W        W27453   3.901  11.084   3.277
55925W        W27454   4.952  12.516  13.911
55926W        W27455  17.925  25.961  12.175
55927W        W27456  13.359   9.843  13.044
55928W        W27457  34.557  34.067  14.376
55929W        W27458   7.727  17.357  13.340
55930W        W27459   2.082  35.941   2.789
55931W        W27460   8.666  27.262  14.944
55932W        W27461  29.199  31.057   4.131
55933W        W27462  38.508  24.693   0.357
55934W        W27463  20.289  26.250   4.500
55935W        W27464   4.959  42.077  12.124
55936W        W27465   0.631  29.817  13.368
55937W        W27466   8.358   2.802  10.792
55938W        W27467  13.450  27.528   1.684
55939W        W27468  19.205  35.793   1.192
55940W        W27469  14.711  44.630  11.394
55941W        W27470  29.518  26.111  11.994
55942W        W27471  40.355  15.087   3.307
55943W        W27472  16.069  24.663   0.243
55944W        W27473   4.372  43.919   4.549
55945W        W27474  44.022  31.000  14.661
55946W        W27475  14.341  21.123  12.964
55947W        W27476  32.036   6.700  12.918
55948W        W27477  20.257  16.057  11.299
55949W        W27478  35.674  44.057   4.190
55950W        W27479  17.392  38.612   4.604
55951W        W27480  21.680  12.816   2.703
55952W        W27481  24.138   3.837   1.865
55953W        W27482  27.516  15.583   2.867
55954W        W27483  29.536  28.272  12.893
55955W        W27484  36.378  25.427  12.187
55956W        W27485  35.235  43.774   2.349
55957W        W27486   7.507  38.549   0.852
55958W        W27487  25.084  22.375   2.762
55959W        W27488  31.075  15.544   2.555
55960W        W27489   8.453  27.028   3.436
55961W        W27490  29.588  13.411  14.375
55962W        W27491  16.257  18.881   3.839
55963W        W27492  10.234  19.573   0.920
55964W        W27493  39.386   0.948  14.636
55965W        W27494  27.673  11.639   0.368
55966W        W27495  41.268  27.891  12.526
55967W        W27496  10.840  11.068   1.252
55968W        W27497  12.974  25.195   2.991
55969W        W27498  34.352  42.172  11.934
55970W        W27499  40.365   3.648  12.919
55971W        W27500   5.356   3.431  10.221
55972W        W27501  43.511  34.089   1.633
55973W        W27502  19.094  22.972  13.860
55974W        W27503  30.302  32.047   1.505
55975W        W27504  35.416  27.410   3.238
55976W        W27505   2.966  11.368  14.028
55977W        W27506  17.640  33.051  14.280
55978W        W27507  42.040   9.684  11.940
55979W        W27508  41.055  36.492  12.498
55980W        W27509   6.908   8.630  11.511
55981W        W27510   3.773  34.068   4.445
55982W        W27511  12.575  20.193  13.360
55983W        W27512   4.228  39.689  11.099
55984W        W27513  25.389  17.246  12.988
55985W        W27514  30.654  37.164  12.455
55986W        W27515  24.158  12.825   0.317
55987W        W27516  19.875  37.114   2.751
55988W        W27517  25.992  40.844   3.550
55989W        W27518  14.245  15.058  12.055
55990W        W27519   0.969  19.138  10.447
55991W        W27520  39.335  42.185  14.500
55992W        W27521   2.469   2.308  11.687
55993W        W27522  35.306  38.894   2.913
55994W        W27523  23.104  29.681   0.529
55995W        W27524  41.027  19.470   4.647
55996W        W27525  36.552  32.065  12.970
55997W        W27526  40.474  36.342  13.614
55998W        W27527  39.538  30.090  12.052
55999W        W27528  43.758  33.062  14.489
56000W        W27529  10.170  29.118  14.486
56001W        W27530  13.606  14.680  14.228
56002W        W27531   0.976  14.544   4.961
56003W        W27532  12.371   2.313   1.723
56004W        W27533  14.969   9.673  12.033
56005W        W27534  12.230  30.385  10.666
56006W        W27535  25.478   9.788  12.827
56007W        W27536  14.704  31.092  13.025
56008W        W27537   5.070   4.974  12.501
56009W        W27538  17.666  15.123  12.088
56010W        W27539  38.969  28.576   3.261
56011W        W27540  34.330  24.637  12.046
56012W        W27541  29.498  30.506   4.663
56013W        W27542   1.539   3.281   4.228
56014W        W27543  44.467  42.455   0.040
56015W        W27544  11.177   7.593   0.429
56016W        W27545  35.043  27.099   2.689
56017W        W27546   5.270  44.092   4.152
56018W        W27547  30.133  11.831  12.418
56019W        W27548   7.752  39.285   4.225
56020W        W27549  29.889  27.470  10.711
56021W        W27550  33.111  28.161   4.340
56022W        W27551  42.279   3.842   3.682
56023W        W27552  19.557  21.814  13.052
56024W        W27553   0.550  17.269   1.686
56025W        W27554  12.149  23.036  12.097
56026W        W27555  31.626  31.557   1.281
56027W        W27556  27.084   8.125   3.695
56028W        W27557  32.968   7.757   1.905
56029W        W27558  22.694  10.628  10.430
56030W        W27559  10.286  34.351   9.970
56031W        W27560   6.826   3.985   4.069
56032W        W27561  44.750  16.275  12.916
56033W        W27562  25.967  10.364  14.749
56034W        W27563   0.266  36.387   0.237
56035W        W27564  16.780   7.981  13.344
56036W        W27565  12.419   0.958   5.427
56037W        W27566  12.645  40.296   2.400
56038W        W27567   1.703  16.599  13.780
56039W        W27568  34.850  29.397  12.908
56040W        W27569   8.938  38.031   2.979
56041W        W27570  30.930  36.014  13.419
56042W        W27571  13.321  18.725   3.680
56043W        W27572   7.960  16.934   5.068
56044W        W27573  43.454   3.859   2.361
56045W        W27574  13.670   2.630  14.462
56046W        W27575  43.013  37.389  12.872
56047W        W27576  35.324   8.864   1.204
56048W        W27577   8.832   2.973  12.491
56049W        W27578  12.236  19.921   2.882
56050W        W27579  37.033  34.863  11.477
56051W        W27580  16.221  40.566  11.082
56052W        W27581   9.914  18.821  11.529
56053W        W27582  35.317   4.927   1.944
56054W        W27583  17.608  14.336   4.714
56055W        W27584  30.180  18.498   0.428
56056W        W27585  14.226  27.197  10.729
56057W        W27586  15.723  24.203   9.785
56058W        W27587  13.747  37.957   1.730
56059W        W27588  29.105  16.664  12.166
56060W        W27589  23.258  35.019   3.420
56061W        W27590  42.493  41.762   4.833
56062W        W27591  36.946  33.607  14.933
56063W        W27592  43.517  14.595   3.814
56064W        W27593  30.419  32.572  13.972
56065W        W27594  21.289  14.188   3.665
56066W        W27595  26.227   5.828  12.362
56067W        W27596  43.812  25.958  12.629
56068W        W27597  11.873  41.862   4.398
56069W        W27598  34.035  37.986   2.716
56070W        W27599  38.205  33.834  11.809
56071W        W27600  11.893   6.446   1.878
56072W        W27601   1.536  37.939   2.068
56073W        W27602  36.807  32.866  13.029
56074W        W27603  21.052  22.043   1.205
56075W        W27604  32.676  35.726   2.145
56076W        W27605  13.317  17.045   1.352
56077W        W27606  27.589   8.715  10.652
56078W        W27607  37.154  44.369  11.578
56079W        W27608  33.678  38.484  14.489
56080W        W27609   5.230  40.011  13.877
56081W        W27610   2.355  10.732   2.683
56082W        W27611  17.139  18.261   4.172
56083W        W27612  28.966  16.183  13.515
56084W        W27613  14.703   6.830   4.501
56085W        W27614   8.377  21.858   2.349
56086W        W27615  25.280   0.909  12.044
56087W        W27616  38.541   8.823  11.071
56088W        W27617   7.335  28.860  12.585
56089W        W27618   4.839   6.950   3.365
56090W        W27619  16.321  40.765  13.837
56091W        W27620  18.316   5.659   2.757
56092W        W27621  19.218  30.649  14.841
56093W        W27622  11.935  28.180   1.106
56094W        W27623   6.149   7.766   4.893
56095W        W27624   5.671  25.638  11.137
56096W        W27625  38.977  36.382   3.254
56097W        W27626  10.159  13.676  14.010
56098W        W27627  44.728   4.444   3.820
56099W        W27628  11.859  19.824  13.366
56100W        W27629  34.022   0.660   0.322
56101W        W27630   4.393  17.668  12.896
56102W        W27631   5.212  14.779  13.701
56103W        W27632   2.957   3.399   4.059
56104W        W27633  10.242   5.987   3.508
56105W        W27634  35.569  26.720   1.286
56106W        W27635   0.891  30.019  14.151
56107W        W27636  24.559  15.361  13.819
56108W        W27637   2.975  14.970  11.021
56109W        W27638  36.662   6.382   4.180
56110W        W27639  43.325   7.162  13.518
56111W        W27640  36.065   4.059   3.309
56112W        W27641   0.205  17.625  10.742
56113W        W27642  18.667   3.198  11.552
56114W        W27643   7.437  32.360  12.170
56115W        W27644  43.961  36.221  14.224
56116W        W27645  12.418   3.272  13.902
56117W        W27646  27.029  42.999  14.594
56118W        W27647  22.757  27.064   0.379
56119W        W27648  36.920   9.684   0.604
56120W        W27649  41.711   4.665   3.597
56121W        W27650   6.473  27.087  11.014
56122W        W27651  33.512   3.137   0.843
56123W        W27652  39.413  21.668  12.756
56124W        W27653   2.899   0.355   4.053
56125W        W27654  37.525  30.464  11.280
56126W        W27655  23.641  42.596   5.287
56127W        W27656  42.355  27.802  14.843
56128W        W27657  38.534  25.900   0.840
56129W        W27658   0.757  16.855  12.265
56130W        W27659  26.057  20.165  14.467
56131W        W27660  29.025  42.847   1.439
56132W        W27661  44.978  21.325  14.759
56133W        W27662  27.915   4.221   4.115
56134W        W27663   0.094   5.817   3.824
56135W        W27664   9.216  41.600  13.485
56136W        W27665  32.118  25.639  14.825
56137W        W27666  26.202  31.552  10.359
56138W        W27667   3.008  37.551  12.986
56139W        W27668  10.150  22.011   4.377
56140W        W27669  23.756  29.688  11.933
56141W        W27670  31.935   0.198  12.415
56142W        W27671  35.900  37.903   2.383
56143W        W27672  17.479  18.107  10.992
56144W        W27673  23.093  38.681  11.588
56145W        W27674   4.934   5.801  11.992
56146W        W27675  43.731  38.759  11.708
56147W        W27676   0.403  12.701   4.116
56148W        W27677  30.686  38.008  14.431
56149W        W27678  34.352  19.304   2.722
56150W        W27679  44.435  16.702   3.783
56151W        W27680  10.197  11.311   3.218
56152W        W27681  21.462  10.265  10.494
56153W        W27682  42.413   9.636  10.697
56154W        W27683  10.700   7.402   3.830
56155W        W27684   4.280  23.181  12.007
56156W        W27685  19.727  16.478   2.922
56157W        W27686  39.003  29.922   1.347
56158W        W27687   1.492  26.721   4.573
56159W        W27688   9.306  33.130  10.859
56160W        W27689  18.639  31.889   0.910
56161W        W27690  17.212  12.766   1.721
56162W        W27691  13.261  37.089   0.237
56163W        W27692  14.790  12.613   2.148
56164W        W27693  34.891  23.261  14.278
56165W        W27694   3.901   7.336  14.769
56166W        W27695  38.239  41.951   2.416
56167W        W27696  39.287  27.537  14.814
56168W        W27697  10.326  12.964  14.670
56169W        W27698  41.430  22.325  12.126
56170W        W27699  31.754  11.203   3.302
56171W        W27700  25.252  12.331   3.138
56172W        W27701  44.323  37.086  10.607
56173W        W27702   0.522  29.368   4.083
56174W        W27703  14.360  31.146  10.652
56175W        W27704  33.177  24.828   0.901
56176W        W27705  10.077  26.521  11.744
56177W        W27706  37.969  41.562   1.236
56178W        W27707  20.142  38.057  11.512
56179W        W27708   9.483  16.781  12.825
56180W        W27709  12.150   5.366   3.794
56181W        W27710  27.965  15.474  11.521
56182W        W27711  29.626  36.909   4.721
56183W        W27712  13.747  13.611  12.434
56184W        W27713  36.425  44.508   0.957
56185W        W27714  20.761  22.242  12.590
56186W        W27715   0.307   9.632   1.359
56187W        W27716   6.963  34.824   0.442
56188W        W27717  22.808  31.669   4.176
56189W        W27718  19.326  30.996   3.865
56190W        W27719   6.398   0.245  11.224
56191W        W27720  30.872  25.150  13.972
56192W        W27721  26.615  15.521   1.784
56193W        W27722  36.868  21.782  13.021
56194W        W27723   8.871  33.083   4.627
56195W        W27724  29.007  32.720   1.877
56196W        W27725  26.200  13.046  11.560
56197W        W27726  23.162  41.407  10.468
56198W        W27727  38.426  25.575   2.861
56199W        W27728  31.126   1.336  12.048
56200W        W27729  37.799   2.444   1.802
56201W        W27730  21.385  23.133  13.177
56202W        W27731   3.878  43.840   2.058
56203W        W27732  21.724  23.030  13.792
56204W        W27733   4.471  43.023   1.968
56205W        W27734   8.625  23.080  14.759
56206W        W27735  19.743  29.143  12.504
56207W        W27736  11.786  22.899   1.866
56208W        W27737  24.222  41.407  13.386
56209W        W27738  26.730   6.017  13.086
56210W        W27739  14.462  16.622   0.109
56211W        W27740  42.744  40.896  14.788
56212W        W27741   8.618   7.172   1.747
56213W        W27742  19.079  30.317  12.101
56214W        W27743  29.634  38.048  13.156
56215W        W27744  18.496   4.958   0.734
56216W        W27745  23.930   5.788   2.767
56217W        W27746  18.417  32.227  11.017
56218W        W27747  28.393  43.614   4.363
56219W        W27748  40.915  22.345   4.138
56220W        W27749  36.783  22.234   3.279
56221W        W27750  24.981  33.540   0.851
56222W        W27751  41.553  25.250   1.813
56223W        W27752  42.417   6.345   0.498
56224W        W27753  20.546  22.776   0.878
56225W        W27754  29.525  43.327  12.548
56226W        W27755  40.973  28.158   4.672
56227W        W27756  10.203  37.821   4.716
56228W        W27757  15.245   4.348  11.579
56229W        W27758  43.252  35.352  13.600
56230W        W27759   5.177  11.935   4.851
56231W        W27760  40.557  23.396  13.933
56232W        W27761  35.511   4.166  11.605
56233W        W27762   6.969   6.399  11.131
56234W        W27763   2.939  12.210   2.283
56235W        W27764  27.488   1.829  13.064
56236W        W27765  29.981  41.922  14.436
56237W        W27766  16.647   5.490   0.791
56238W        W27767  29.390  37.269   1.058
56239W        W27768  10.378  36.415  11.564
56240W        W27769  37.475  33.356   0.116
56241W        W27770  31.383  13.050  11.984
56242W        W27771   3.939  22.956   4.627
56243W        W27772  40.634  13.386   0.978
56244W        W27773  36.566  34.524   3.722
56245W        W27774   1.001  42.982  14.342
56246W        W27775  13.762   8.149  14.349
56247W        W27776  44.972  22.071  13.233
56248W        W27777  37.754  18.406   1.091
56249W        W27778  40.634  29.529  11.119
56250W        W27779  39.485  20.574   3.434
56251W        W27780  22.489   4.706   4.605
56252W        W27781  25.049  36.527   0.457
56253W        W27782  22.712  19.220  10.647
56254W        W27783  15.303  15.681   0.826
56255W        W27784  15.041  11.075  12.025
56256W        W27785   0.212  11.284  14.963
56257W        W27786  27.967   0.921   5.051
56258W        W27787   0.908   6.664  12.552
56259W        W27788  39.634  28.710  12.542
56260W        W27789  18.114  43.213   4.039
56261W        W27790  26.244  15.076   4.720
56262W        W27791  41.835   8.287  12.825
56263W        W27792  39.409  11.410  14.296
56264W        W27793   6.920   5.955   2.271
56265W        W27794  39.815  17.308   0.840
56266W        W27795  23.271  39.511  11.371
56267W        W27796  16.613   0.162   0.421
56268W        W27797   9.144   6.905  11.572
56269W        W27798  37.936   1.774   4.006
56270W        W27799  41.076  23.411  13.980
56271W        W27800  43.118  43.113   3.640
56272W        W27801  20.879   9.800  13.816
56273W        W27802   7.911  34.062   0.949
56274W        W27803   1.228   7.838  14.398
56275W        W27804  42.880  30.232   3.091
56276W        W27805  40.408  44.791  14.793
56277W        W27806  22.564   1.757  10.440
56278W        W27807  10.387   5.800  12.552
56279W        W27808  16.060   2.876   2.551
56280W        W27809  34.367  10.698  13.514
56281W        W27810  15.746   2.441  11.089
56282W        W27811  23.127  10.310  11.887
56283W        W27812  27.121   5.622  14.784
56284W        W27813  39.258   2.181   3.606
56285W        W27814  20.521  40.172   0.397
56286W        W27815  35.990  21.678   0.839
56287W        W27816   6.724  43.546  13.490
56288W        W27817  23.328  22.083   0.549
56289W        W27818  12.059  19.833  14.917
56290W        W27819  30.964  11.806   0.031
56291W        W27820  42.935  21.174  12.860
56292W        W27821  10.841  15.684   0.412
56293W        W27822  43.226   0.433  13.860
56294W        W27823  20.208  22.315   0.685
56295W        W27824  15.158   3.869   3.719
56296W        W27825  44.310  40.414  10.877
56297W        W27826  25.327  22.537  12.587
56298W        W27827  39.040  26.571   0.177
56299W        W27828   9.167  11.158  13.500
56300W        W27829  10.261   8.669  11.378
56301W        W27830  39.055   2.332   2.269
56302W        W27831  20.782  11.076  13.595
56303W        W27832  27.500  22.844   3.816
56304W        W27833  22.925  27.958   3.946
56305W        W27834  13.363  14.313  14.939
56306W        W27835  39.058  19.681  14.681
56307W        W27836  30.432   0.030  14.913
56308W        W27837  10.677  18.508  14.326
56309W        W27838   6.246  14.113  11.860
56310W        W27839  14.885  32.376   4.825
56311W        W27840   8.465   8.827   2.348
56312W        W27841  15.385  41.314  12.127
56313W        W27842  24.309  44.393   1.157
56314W        W27843   7.235  22.484   3.532
56315W        W27844  19.979  16.437  12.059
56316W        W27845  39.860  41.646   4.541
56317W        W27846  14.789  42.351   4.578
56318W        W27847  38.942   3.480   3.147
56319W        W27848  12.635  34.680  13.960
56320W        W27849  44.916   0.849   4.882
56321W        W27850  30.710  16.228  12.502
56322W        W27851  40.335   4.765  13.826
56323W        W27852  15.084  14.257   3.884
56324W        W27853  15.988  15.598   4.150
56325W        W27854   6.549  26.662   4.108
56326W        W27855  29.441  30.428  14.716
56327W        W27856  14.856  23.193   2.389
56328W        W27857  10.293  35.367   4.490
56329W        W27858   0.745  11.199   3.908
56330W        W27859  40.428  20.272   2.608
56331W        W27860  35.831  14.224   4.601
56332W        W27861  36.599   9.354  12.717
56333W        W27862   7.415  20.241   1.399
56334W        W27863  36.563  27.335   4.225
56335W        W27864  24.024  33.366   3.666
56336W        W27865  26.691  22.669  13.640
56337W        W27866   3.861  34.976   1.260
56338W        W27867   6.022  26.495   1.118
56339W        W27868  20.584  15.268   0.270
56340W        W27869  42.257  33.107  14.491
56341W        W27870   8.843  37.857   4.397
56342W        W27871  38.907  44.401   2.303
56343W        W27872   1.493  43.742   4.495
56344W        W27873  43.271   7.061  14.503
56345W        W27874  16.713  17.243  13.346
56346W        W27875  29.563  17.280   1.743
56347W        W27876  24.281  26.554  14.814
56348W        W27877  33.951   7.456   1.852
56349W        W27878  23.423  21.311  13.424
56350W        W27879  34.129  30.898  13.509
56351W        W27880   0.793  16.270   3.623
56352W        W27881   6.805  41.456   1.234
56353W        W27882   2.261  15.581   4.558
56354W        W27883   7.114  21.188  13.056
56355W        W27884  28.982  26.960   0.289
56356W        W27885  20.608  44.074   0.630
56357W        W27886   0.558   4.481   4.294
56358W        W27887   1.193   2.885   1.729
56359W        W27888   4.207  23.755   4.068
56360W        W27889   3.024  16.135   1.370
56361W        W27890   4.905  27.317  12.383
56362W        W27891  35.042   5.688   2.388
56363W        W27892  32.867  25.730   0.821
56364W        W27893  29.524  19.333   4.180
56365W        W27894  10.010  27.633   0.236
56366W        W27895   2.386   0.445   1.271
56367W        W27896  31.466  10.715   0.209
56368W        W27897   5.596  23.487  14.756
56369W        W27898  40.923  42.363   3.897
56370W        W27899   6.341   7.354   1.776
56371W        W27900   2.510  28.656   0.423
56372W        W27901  19.322  36.419   0.410
56373W        W27902   1.866  22.635  12.847
56374W        W27903  35.560  14.914  11.219
56375W        W27904   3.818   0.037   1.334
56376W        W27905  10.685  12.440   2.647
56377W        W27906  27.940   8.284   2.368
56378W        W27907  23.623  13.401   2.940
56379W        W27908  38.013  30.036  10.698
56380W        W27909  12.241   6.592  10.731
56381W        W27910  13.440   2.425  13.428
56382W        W27911  38.139  40.397  13.333
56383W        W27912   9.557  25.376  13.466
56384W        W27913  30.359   1.250   4.210
56385W        W27914   7.902  29.670   4.304
56386W        W27915   1.973  35.423   0.233
56387W        W27916  37.867  25.078   3.595
56388W        W27917  37.050  35.548  10.649
56389W        W27918  34.251  33.973   3.103
56390W        W27919  17.373  41.001  11.586
56391W        W27920   6.685  14.423   2.767
56392W        W27921  26.884   3.363   0.848
56393W        W27922   5.935  38.904   1.502
56394W        W27923  17.974  37.518   1.043
56395W        W27924  21.230  28.126  12.578
56396W        W27925  26.045  33.795  12.562
56397W        W27926  20.194  19.596   0.337
56398W        W27927  22.017  30.225  14.846
56399W        W27928  13.521  30.963  12.346
56400W        W27929   1.461  17.234   3.320
56401W        W27930  32.874  31.485   1.365
56402W        W27931  33.879  35.424  14.822
56403W        W27932  30.221  23.135  13.411
56404W        W27933  36.111   8.593   0.297
56405W        W27934  26.133  29.820  12.556
56406W        W27935  38.518  14.841  13.626
56407W        W27936  26.585  11.312   4.084
56408W        W27937  31.828  38.006  11.497
56409W        W27938  28.905  40.102   0.739
56410W        W27939  15.638  26.697   5.057
56411W        W27940  34.408  20.531   1.382
56412W        W27941   2.515  19.742  10.307
56413W        W27942  39.123  22.508   0.354
56414W        W27943   9.306  38.363   3.174
56415W        W27944   6.224  12.244   2.682
56416W        W27945  22.374  21.686  10.046
56417W        W27946  29.997  20.326  14.310
56418W        W27947  35.021  17.165   2.072
56419W        W27948   5.151  33.301  12.119
56420W        W27949  43.420  42.951  14.008
56421W        W27950   8.789  34.678  13.805
56422W        W27951  41.748  29.093  14.324
56423W        W27952  20.418  42.865   1.015
56424W        W27953  37.153   2.573  13.961
56425W        W27954  40.805  11.182  12.092
56426W        W27955   2.305  26.154  12.563
56427W        W27956  31.840   0.406   1.982
56428W        W27957  15.393  25.524   4.282
56429W        W27958  13.297  13.492   1.712
56430W        W27959  13.727  31.946  14.892
56431W        W27960  33.540   3.207   3.717
56432W        W27961   9.527  24.559  11.086
56433W        W27962  19.245  39.314   9.663
56434W        W27963   7.493  23.052   0.771
56435W        W27964   2.103  19.109   1.864
56436W        W27965  23.650  37.988   0.248
56437W        W27966  21.680  16.306  13.509
56438W        W27967  44.270  26.625  14.420
56439W        W27968  38.491  30.100  13.453
56440W        W27969  22.587   1.226   1.285
56441W        W27970  25.524  13.821  12.425
56442W        W27971  12.349   6.277  11.939
56443W        W27972   6.513  23.052   0.814
56444W        W27973   5.862  30.935  13.516
56445W        W27974  36.801  23.543   0.861
56446W        W27975  43.019  28.408  10.771
56447W        W27976   0.590  40.840  13.086
56448W        W27977  32.417  23.402   2.686
56449W        W27978  26.730  15.116   4.495
56450W        W27979  12.145  32.661  13.524
56451W        W27980   3.820   9.232   0.601
56452W        W27981  42.931  35.432   4.421
56453W        W27982  33.517   6.521  14.011
56454W        W27983  36.658   6.366  14.404
56455W        W27984   3.020   2.438  14.179
56456W        W27985  10.424  30.076  14.741
56457W        W27986  25.677  35.610  12.532
56458W        W27987  24.682   5.854  14.452
56459W        W27988  39.913  36.398  10.366
56460W        W27989  33.174  33.932   1.309
56461W        W27990  14.562  22.849   4.136
56462W        W27991   0.911  10.628  12.154
56463W        W27992  30.168  20.832   0.086
56464W        W27993  35.993  23.852   5.003
56465W        W27994  15.497  23.038  14.520
56466W        W27995   1.814  30.009  10.811
56467W        W27996  12.314  10.269   1.159
56468W        W27997  11.176  32.329   1.814
56469W        W27998  41.324  33.527   3.766
56470W        W27999  38.887   2.022  12.177
56471W        W28000  16.552  31.970  14.457
56472W        W28001   7.378   2.306   2.784
56473W        W28002  37.543  15.087   3.798
56474W        W28003  18.276  21.119   1.484
56475W        W28004  34.435  40.978  11.223
56476W        W28005  14.535  41.554   2.814
56477W        W28006  22.121   5.447  10.319
56478W        W28007   8.121  38.485   1.457
56479W        W28008  33.621   2.717   3.590
56480W        W28009   7.468  28.212   1.254
56481W        W28010  20.252  36.732  11.969
56482W        W28011  38.936  11.743  11.688
56483W        W28012  22.655   5.898   0.262
56484W        W28013  41.721  29.667   4.897
56485W        W28014  16.118   1.681   3.638
56486W        W28015  40.784   2.915   0.690
56487W        W28016  43.250  15.338  11.597
56488W        W28017  34.895  10.212   1.322
56489W        W28018  36.997   9.075   3.394
56490W        W28019  41.094   0.750   2.314
56491W        W28020  23.948  11.652  11.161
56492W        W28021  29.685  40.044  11.585
56493W        W28022   2.324  28.677  14.054
56494W        W28023   9.342   1.198  12.422
56495W        W28024  37.052   3.065  14.782
56496W        W28025  11.692  36.852  10.218
56497W        W28026   7.919  15.070  10.751
56498W        W28027  38.903   8.338  13.021
56499W        W28028  34.369  23.353   0.921
56500W        W28029  28.213  34.410  14.854
56501W        W28030  23.251   7.882   2.778
56502W        W28031  38.486  41.472  12.404
56503W        W28032   3.987  39.572   0.816
56504W        W28033  34.143   9.756   2.354
56505W        W28034  38.582  35.992   1.881
56506W        W28035  12.110  12.528  11.687
56507W        W28036  39.471  32.700   4.567
56508W        W28037  23.954  13.777   0.713
56509W        W28038   8.549  34.022   1.739
56510W        W28039  42.090  12.295  11.489
56511W        W28040  23.619   5.873   0.379
56512W        W28041  22.796  20.840   4.703
56513W        W28042  23.045  28.857  13.585
56514W        W28043   2.696  15.293   3.667
56515W        W28044  13.070   5.314   0.753
56516W        W28045  39.176   8.552   0.359
56517W        W28046  20.389  18.731   4.537
56518W        W28047   3.755  32.219  12.596
56519W        W28048  26.090   5.001  13.477
56520W        W28049  20.285  36.000  11.297
56521W        W28050   0.725  39.392  14.140
56522W        W28051   9.821  43.316   4.506
56523W        W28052  33.981  42.927  10.692
56524W        W28053  39.602   5.322  13.400
56525W        W28054  27.021  11.461   0.726
56526W        W28055  44.192  41.227   2.379
56527W        W28056  25.974  23.657  12.455
56528W        W28057  35.993   5.919   0.829
56529W        W28058  38.303  37.869   4.254
56530W        W28059  15.349   7.239   4.093
56531W        W28060   3.346  34.384  14.939
56532W        W28061  15.973   1.997  11.079
56533W        W28062  29.116  42.440  13.490
56534W        W28063   0.283   1.249  14.080
56535W        W28064  16.144  34.048   2.673
56536W        W28065  10.863   9.601   3.345
56537W        W28066  23.217  38.475   3.145
56538W        W28067  21.736  41.432  13.802
56539W        W28068  20.738   9.546  10.620
56540W        W28069  19.195   3.712  12.450
56541W        W28070  15.039  14.697   1.603
56542W        W28071   9.299  12.799   3.736
56543W        W28072  35.838  33.471   4.790
56544W        W28073  17.660  29.586  12.002
56545W        W28074  43.440   5.873  12.618
56546W        W28075  25.011  43.012  12.787
56547W        W28076  37.315  18.725   4.551
56548W        W28077   7.763   3.427   2.239
56549W        W28078  32.187  13.580   1.381
56550W        W28079   1.465   0.010  12.869
56551W        W28080  23.451  23.587   3.621
56552W        W28081   5.069  18.659   3.380
56553W        W28082   5.744  15.683  14.527
56554W        W28083  28.581   9.704   0.749
56555W        W28084  15.044  40.916   3.142
56556W        W28085   9.302   5.681  13.293
56557W        W28086   6.420   6.771  12.026
56558W        W28087  43.589   4.358   2.311
56559W        W28088  35.983  36.605   4.127
56560W        W28089  42.763   1.708   4.276
56561W        W28090  26.048  31.590   1.182
56562W        W28091   1.208  18.713  12.315
56563W        W28092   9.169   0.676   1.317
56564W        W28093  44.496   6.807   3.208
56565W        W28094  28.228  37.085  11.468
56566W        W28095  37.518  17.764  10.717
56567W        W28096  23.712  27.230   4.554
56568W        W28097  29.021  29.411   3.224
56569W        W28098  15.786   5.864   0.713
56570W        W28099   4.902   2.728   3.778
56571W        W28100  14.347  26.864   3.708
56572W        W28101  12.629  37.349   1.417
56573W        W28102  30.958   3.849  12.214
56574W        W28103  44.390  11.070   4.175
56575W        W28104  31.705  15.979   0.913
56576W        W28105  31.073  32.493   4.598
56577W        W28106  14.226  22.262   3.325
56578W        W28107   8.348   4.406   0.462
56579W        W28108  19.555  13.388   4.236
56580W        W28109   1.793   6.437  12.064
56581W        W28110  39.126  19.788   0.877
56582W        W28111  33.555  14.794  11.408
56583W        W28112  42.756   5.247  13.494
56584W        W28113   5.791   6.082  12.583
56585W        W28114  31.201  18.235  12.580
56586W        W28115  15.676  29.925  11.955
56587W        W28116  15.647  13.725  11.449
56588W        W28117   6.740   2.675   3.818
56589W        W28118   4.964  15.159  13.404
56590W        W28119  40.349  29.336   0.992
56591W        W28120   8.018  36.845   0.709
56592W        W28121  11.182  24.228  12.006
56593W        W28122  37.811  16.037   4.079
56594W        W28123  27.465  34.908   0.296
56595W        W28124  34.648   5.024   0.744
56596W        W28125  15.142  41.491  11.352
56597W        W28126  29.002   8.858  11.473
56598W        W28127  15.220  33.396   2.247
56599W        W28128  11.399   6.771  14.579
56600W        W28129  41.707  33.066   2.345
56601W        W28130   4.769  40.943   4.540
56602W        W28131  13.114  29.422   4.043
56603W        W28132  29.280  24.154  13.825
56604W        W28133  39.050  21.554  11.042
56605W        W28134   1.790  26.797  10.031
56606W        W28135   9.362  19.480   1.757
56607W        W28136   5.889  39.674  14.614
56608W        W28137  14.809  13.584  10.415
56609W        W28138  28.187   4.662   0.879
56610W        W28139  34.497  43.413   0.951
56611W        W28140  27.523   7.701  13.100
56612W        W28141   0.566  31.436  14.485
56613W        W28142  30.841  37.091   1.735
56614W        W28143  23.550  18.201  14.140
56615W        W28144  33.730  30.885  14.974
56616W        W28145  43.050   7.904   2.288
56617W        W28146  41.398   4.350  12.921
56618W        W28147  28.397  25.745  11.587
56619W        W28148   7.787   0.982  12.796
56620W        W28149  10.613  44.248  12.120
56621W        W28150   8.810   6.393  14.013
56622W        W28151  10.148  30.724   3.760
56623W        W28152   5.447  41.399  12.130
56624W        W28153  12.732   1.807  14.334
56625W        W28154  23.441   5.778  11.545
56626W        W28155  29.953  16.768  11.061
56627W        W28156   3.966  12.661  13.945
56628W        W28157  38.346  20.282  11.866
56629W        W28158  19.159  23.497  13.822
56630W        W28159  10.848  28.787  11.181
56631W        W28160  39.720  40.368   0.291
56632W        W28161  23.211   5.857  11.109
56633W        W28162  22.206  18.565   4.159
56634W        W28163   8.776  17.819   3.144
56635W        W28164  34.612  30.629   2.637
56636W        W28165  21.782   5.769  13.552
56637W        W28166  20.719   3.811   3.657
56638W        W28167   7.320   3.675   2.371
56639W        W28168  37.906  13.827  13.168
56640W        W28169  30.580  24.852  12.675
56641W        W28170  37.537  11.323   1.416
56642W        W28171  11.286  28.432   2.393
56643W        W28172  25.707  41.085   0.495
56644W        W28173  40.332   0.850  14.997
56645W        W28174   7.833  37.136  12.040
56646W        W28175  18.074   7.310   4.770
56647W        W28176  39.049   7.379   1.897
56648W        W28177  12.298  32.246  14.275
56649W        W28178  27.197  27.606   3.734
56650W        W28179  31.366  12.251  11.083
56651W        W28180  36.403  10.768   4.155
56652W        W28181  23.476  24.804   1.066
56653W        W28182  13.722  28.689   2.845
56654W        W28183   7.280  10.239  11.139
56655W        W28184  35.741  33.888  12.013
56656W        W28185  44.501  38.534  10.313
56657W        W28186   3.741  21.189  11.822
56658W        W28187  12.823  34.868  12.604
56659W        W28188  10.863   5.908  12.804
56660W        W28189  43.814   6.300   3.701
56661W        W28190  38.472  44.969   1.235
56662W        W28191  26.632  44.864   3.365
56663W        W28192  13.563  20.182  13.010
56664W        W28193  26.167   8.417  10.806
56665W        W28194  17.463   1.829   2.407
56666W        W28195  28.119  44.176   4.087
56667W        W28196  37.887  15.760   2.351
56668W        W28197  12.158   8.844   3.260
56669W        W28198  43.022   6.761   1.500
56670W        W28199  35.271  36.887   2.150
56671W        W28200   0.764  29.954  14.650
56672W        W28201   7.083  39.900   4.917
56673W        W28202  23.458  31.540  10.730
56674W        W28203   6.447  43.044  12.918
56675W        W28204  30.425  13.062  13.563
56676W        W28205  42.787  37.684   0.393
56677W        W28206   5.914  15.579   2.106
56678W        W28207  40.919  27.102   0.985
56679W        W28208  11.447  37.152   3.476
56680W        W28209  40.045  19.125   0.308
56681W        W28210  22.189  23.422   3.294
56682W        W28211  22.539   4.349  14.503
56683W        W28212   2.253  14.162   2.294
56684W        W28213  34.933  44.507  11.097
56685W        W28214  10.419  20.124  14.955
56686W        W28215  39.665  21.067   2.729
56687W        W28216  35.652  38.562  10.686
56688W        W28217  42.307  19.693   5.087
56689W        W28218  21.329  30.073   4.714
56690W        W28219  38.910  20.579   0.630
56691W        W28220  43.138   0.505  11.589
56692W        W28221  44.016  44.055   4.757
56693W        W28222  13.160  14.870  12.902
56694W        W28223  39.824  10.314  13.856
56695W        W28224  15.546  40.429  10.571
56696W        W28225  43.208  20.935  12.453
56697W        W28226   4.868   2.941  14.953
56698W        W28227  19.257   8.141  11.166
56699W        W28228  41.864  43.909   1.951
56700W        W28229  22.700  35.290   0.390
56701W        W28230  44.218  26.688  13.568
56702W        W28231  28.625   5.769  13.102
56703W        W28232  11.167  24.382  10.801
56704W        W28233   7.879  41.614  11.133
56705W        W28234  37.300   4.368  14.683
56706W        W28235  27.925  21.627   0.335
56707W        W28236  36.247  16.023   1.663
56708W        W28237  10.714  30.718  13.534
56709W        W28238  31.142   4.164  14.866
56710W        W28239   4.769  24.068  14.535
56711W        W28240   4.983  26.369  10.216
56712W        W28241  38.970   4.306  12.894
56713W        W28242  40.914  26.294  12.538
56714W        W28243  28.599  42.308  11.179
56715W        W28244   7.795   9.654  12.004
56716W        W28245  39.881   7.819  13.835
56717W        W28246  13.286  44.167  14.915
56718W        W28247  41.056  37.294  14.043
56719W        W28248  39.019  31.129   1.849
56720W        W28249   0.585   9.295   2.628
56721W        W28250  20.959  38.178  10.249
56722W        W28251   0.522  39.325   4.071
56723W        W28252  31.905  15.590  13.482
56724W        W28253  24.958  44.753  13.866
56725W        W28254  33.922  26.953   1.247
56726W        W28255  40.714  38.312   3.977
56727W        W28256  12.204  37.485  11.261
56728W        W28257   2.712  44.842   3.912
56729W        W28258  12.066  17.970  13.535
56730W        W28259  35.541  17.177   4.949
56731W        W28260  36.567  30.608   2.343
56732W        W28261  26.578  42.695   2.338
56733W        W28262  34.984  24.664  11.294
56734W        W28263  15.806  29.704   0.823
56735W        W28264  29.790  20.509   4.977
56736W        W28265  38.960  21.024  14.913
56737W        W28266  30.596   4.736   0.834
56738W        W28267  10.934  32.368   4.527
56739W        W28268  42.749  38.970   2.833
56740W        W28269  30.206  25.751  11.513
56741W        W28270   0.893  21.004  14.806
56742W        W28271  11.564  39.596  11.528
56743W        W28272  12.435  31.384  13.044
56744W        W28273  20.496   8.971  13.910
56745W        W28274  16.981  29.165   1.270
56746W        W28275  11.272  18.571   3.224
56747W        W28276  23.607  20.263   1.234
56748W        W28277  28.625  40.034  13.753
56749W        W28278  28.604  44.300  14.569
56750W        W28279  18.184   1.477   2.630
56751W        W28280  11.226  24.517   3.659
56752W        W28281   2.825   6.835   1.175
56753W        W28282  41.367  43.837  11.302
56754W        W28283  34.248  31.211  12.129
56755W        W28284   5.851  43.740  10.736
56756W        W28285   0.480  41.671  13.464
56757W        W28286  37.701  15.329   1.142
56758W        W28287  26.565   9.732   3.256
56759W        W28288  19.057  13.513  14.831
56760W        W28289  31.343  24.327   4.018
56761W        W28290   1.445   2.750   1.273
56762W        W28291   0.914   1.286   9.986
56763W        W28292  24.961  39.279   0.501
56764W        W28293  35.952  27.720   1.964
56765W        W28294  28.962  29.633  14.976
56766W        W28295  43.269  44.955   1.741
56767W        W28296   7.757   1.805  11.231
56768W        W28297   8.377  21.530  10.645
56769W        W28298   0.367  23.681  14.877
56770W        W28299  21.450  16.062   3.843
56771W        W28300  15.549  44.180   1.897
56772W        W28301  43.835  17.365  14.981
56773W        W28302  10.709  44.527  14.882
56774W        W28303  14.127   5.935  12.047
56775W        W28304  20.334  27.108   1.269
56776W        W28305  26.379  14.893  11.490
56777W        W28306  35.956  14.085  12.509
56778W        W28307  13.609  14.392  12.101
56779W        W28308  43.318  19.525   3.777
56780W        W28309  37.041  14.689   1.802
56781W        W28310  38.753   2.505  12.266
56782W        W28311  35.466   1.402  10.602
56783W        W28312  23.570  31.902  12.982
56784W        W28313  33.169  43.904  11.071
56785W        W28314  18.215  22.733  14.424
56786W        W28315  38.920  33.177   3.331
56787W        W28316  41.464  27.508   1.459
56788W        W28317  44.494  11.284  13.979
56789W        W28318  21.729   9.275   4.587
56790W        W28319  44.797  35.991   4.386
56791W        W28320  24.028  16.782   0.261
56792W        W28321   4.737  42.846   0.167
56793W        W28322  13.766   9.739  13.661
56794W        W28323  32.507  40.073  13.175
56795W        W28324  14.014  36.134   2.683
56796W        W28325  37.571   6.658  13.433
56797W        W28326  30.692   8.720  12.444
56798W        W28327  20.676  32.052  10.757
56799W        W28328  33.065  20.169  13.481
56800W        W28329  16.303   3.298   1.773
56801W        W28330  41.434  31.827   0.342
56802W        W28331   6.353   0.569  11.623
56803W        W28332   9.384  36.501   1.380
56804W        W28333  42.563  33.397  10.183
56805W        W28334  40.095  27.589   4.514
56806W        W28335  15.617  14.178  13.494
56807W        W28336   6.834  30.490   1.677
56808W        W28337  24.474  17.030  12.073
56809W        W28338  21.015  20.993   2.140
56810W        W28339  40.400  26.717   3.550
56811W        W28340  31.243  22.020  14.894
56812W        W28341   5.726  10.159   0.287
56813W        W28342  26.147   2.440   0.483
56814W        W28343   7.555  17.443  14.414
56815W        W28344  37.971  19.980  11.717
56816W        W28345  31.310  44.020   4.267
56817W        W28346   3.243  27.107   2.759
56818W        W28347  16.280   6.419  11.555
56819W        W28348  44.633   3.300   2.423
56820W        W28349  24.045  32.467   4.789
56821W        W28350  16.141  43.298  10.712
56822W        W28351  31.890  31.097  12.481
56823W        W28352  35.468  18.282  14.090
56824W        W28353   6.867  34.100   4.751
56825W        W28354  18.229  35.633  14.802
56826W        W28355   5.838   6.137   0.811
56827W        W28356   2.350   7.839   1.836
56828W        W28357  10.803  24.664  14.342
56829W        W28358  14.222  31.394  11.145
56830W        W28359  27.181  11.579   4.759
56831W        W28360   3.952  19.494  14.259
56832W        W28361  43.489  33.022  13.689
56833W        W28362  29.620  21.238   3.879
56834W        W28363  35.907  21.080  10.689
56835W        W28364  17.155  26.671   4.613
56836W        W28365  41.336  23.865   1.311
56837W        W28366  34.522  23.019  11.544
56838W        W28367  13.225  12.570   4.160
56839W        W28368  39.304  24.469   2.785
56840W        W28369  27.863  28.037   1.189
56841W        W28370  15.587  13.496   0.210
56842W        W28371  22.039  43.436  10.537
56843W        W28372  16.138  23.236  13.928
56844W        W28373   4.364  19.573  10.703
56845W        W28374  22.445  14.098  11.476
56846W        W28375  30.206  39.314  13.512
56847W        W28376  17.353  26.170   4.849
56848W        W28377  39.126  13.436   0.807
56849W        W28378   3.938  29.118  10.998
56850W        W28379  16.899  41.548   2.177
56851W        W28380  44.450  38.822  13.893
56852W        W28381  10.500  36.841   3.251
56853W        W28382  32.162  24.086   3.223
56854W        W28383  11.096   2.720   0.247
56855W        W28384  18.512  38.448  13.863
56856W        W28385  40.004  29.037  11.463
56857W        W28386   2.493  28.038  13.358
56858W        W28387  36.120  16.559  13.961
56859W        W28388  18.585  15.190   4.448
56860W        W28389  28.065  35.990   4.620
56861W        W28390  39.329  30.427   1.853
56862W        W28391  31.953  23.263   4.175
56863W        W28392   2.196  26.472   9.967
56864W        W28393  17.329  21.476  12.244
56865W        W28394  30.878  26.217  11.416
56866W        W28395   9.003  16.439  12.428
56867W        W28396  39.356  21.498   1.364
56868W        W28397   0.428  28.930   0.828
56869W        W28398  21.675   2.822   2.164
56870W        W28399  38.572  10.617   3.555
56871W        W28400  25.626   3.642  12.446
56872W        W28401  18.248  43.682   4.187
56873W        W28402   1.880   5.436  14.797
56874W        W28403  17.615  32.602  13.342
56875W        W28404  42.590  36.076  13.592
56876W        W28405  37.581   6.132  13.520
56877W        W28406  37.924  15.944  11.914
56878W        W28407   0.237  27.567   4.574
56879W        W28408  37.928   0.016  13.077
56880W        W28409  36.325  42.990  12.036
56881W        W28410   6.842  40.121  12.422
56882W        W28411   7.787   3.625   4.857
56883W        W28412  35.471  42.744  11.142
56884W        W28413   9.647   2.437  14.833
56885W        W28414  16.101  36.719   4.638
56886W        W28415   5.935  17.591   1.377
56887W        W28416  22.686  21.781  14.235
56888W        W28417  26.622   7.758  14.725
56889W        W28418  15.068   9.912  12.486
56890W        W28419   6.456   0.083  11.693
56891W        W28420   4.230  14.074   1.809
56892W        W28421  10.733   3.638  13.542
56893W        W28422  20.881   5.180   0.808
56894W        W28423  25.991  20.217  14.976
56895W        W28424  10.768  16.956   3.685
56896W        W28425  23.125   0.443   0.363
56897W        W28426  23.094   0.267  13.861
56898W        W28427   0.029  15.163   2.382
56899W        W28428  30.971  21.801   0.947
56900W        W28429  11.213  25.672   1.724
56901W        W28430  41.893  11.843  13.566
56902W        W28431  27.887  22.873  12.083
56903W        W28432   3.125  42.939  13.452
56904W        W28433  41.255  16.214  14.304
56905W        W28434  28.086   5.426   1.302
56906W        W28435  44.763   5.738  11.108
56907W        W28436  22.332  17.540   4.230
56908W        W28437   5.149  37.198   4.927
56909W        W28438  41.687   6.817   0.171
56910W        W28439  38.944  32.377   0.758
56911W        W28440  36.969  16.304   0.318
56912W        W28441  22.586  17.699   2.681
56913W        W28442  34.440  24.744   4.640
56914W        W28443   4.770  35.445   2.148
56915W        W28444   0.651  28.609  14.419
56916W        W28445   2.778  11.436  11.076
56917W        W28446   2.964  10.217  13.047
56918W        W28447  43.010   9.955  10.593
56919W        W28448   4.731  14.684  13.491
56920W        W28449  20.536  31.296   0.741
56921W        W28450   7.697  38.926  11.161
56922W        W28451  41.755  34.933   1.121
56923W        W28452  18.682  32.404  11.443
56924W        W28453  17.442  24.161   3.744
56925W        W28454   0.162  12.257   3.698
56926W        W28455   9.572   1.038  10.276
56927W        W28456  43.848  35.091   1.320
56928W        W28457   0.971  30.930   3.373
56929W        W28458   1.953  23.039   4.534
56930W        W28459  24.129  24.101  13.483
56931W        W28460  24.648  28.821  13.920
56932W        W28461  36.745  43.364   1.443
56933W        W28462  23.861  10.704   1.786
56934W        W28463  43.850  43.099   0.791
56935W        W28464  30.258  21.737  12.598
56936W        W28465  33.336   5.402  11.599
56937W        W28466  21.755  33.413  12.041
56938W        W28467  24.078  12.006  10.828
56939W        W28468  24.658  18.275  12.583
56940W        W28469  11.737  28.685   2.550
56941W        W28470  14.515   1.768  11.086
56942W        W28471  22.283  17.554   3.326
56943W        W28472  32.922  43.423  11.146
56944W        W28473  11.287  19.680   4.558
56945W        W28474  42.377   9.533   3.816
56946W        W28475  39.842   2.041  11.211
56947W        W28476  35.602  12.229  14.769
56948W        W28477  26.525  40.572  13.621
56949W        W28478   9.283   3.168   1.229
56950W        W28479  12.782   9.190  14.494
56951W        W28480  18.254  35.512   0.844
56952W        W28481   7.932  28.382   4.551
56953W        W28482  15.854   8.203   0.288
56954W        W28483   5.353  37.983   0.355
56955W        W28484  36.452  13.971   3.401
56956W        W28485  36.998  10.144  11.922
56957W        W28486  32.599  12.397   1.602
56958W        W28487  24.013  25.523  11.397
56959W        W28488   6.781  14.823  12.063
56960W        W28489  40.832  16.955  12.154
56961W        W28490  12.573  35.098  12.217
56962W        W28491  19.511  19.803  12.447
56963W        W28492  44.299  36.662  11.096
56964W        W28493  36.826  23.427  10.968
56965W        W28494   7.299  17.322   1.447
56966W        W28495  36.914  25.625  11.537
56967W        W28496  19.513  16.657  13.985
56968W        W28497  40.288  38.837   1.252
56969W        W28498  10.849  11.562   1.310
56970W        W28499  40.719  36.996  14.300
56971W        W28500  20.315  11.322  13.612
56972W        W28501  27.417  37.945  13.902
56973W        W28502   3.820  39.056   0.667
56974W        W28503  35.817   3.840   0.958
56975W        W28504   2.002  43.515   2.596
56976W        W28505  21.304  43.703   1.968
56977W        W28506  24.487   6.878   1.564
56978W        W28507   8.784   0.498  10.155
56979W        W28508   1.702  44.756   3.210
56980W        W28509  41.817  34.080  10.677
56981W        W28510   4.928  33.609   1.201
56982W        W28511  14.851  13.505   0.842
56983W        W28512  34.411   3.441   3.169
56984W        W28513  31.033  42.322   3.180
56985W        W28514  33.667  30.948   0.517
56986W        W28515   0.252  34.257  12.919
56987W        W28516  24.653  22.308   3.036
56988W        W28517  10.141  34.924  12.110
56989W        W28518  14.908  14.024   0.876
56990W        W28519  36.769  35.118   3.632
56991W        W28520  28.622  15.235  14.541
56992W        W28521  17.594   4.747   4.361
56993W        W28522  42.786  42.279  11.605
56994W        W28523  38.968  14.736  12.520
56995W        W28524  44.812   7.309  11.856
56996W        W28525   5.441  34.360  13.400
56997W        W28526  34.658   4.809  11.573
56998W        W28527  28.614  15.516  11.186
56999W        W28528  32.991  24.646   0.454
57000W        W28529   2.686   4.674   1.876
57001W        W28530   4.879  19.949   2.294
57002W        W28531  21.138  12.683  11.906
57003W        W28532   3.815   1.240  13.874
57004W        W28533  18.075   1.393   4.582
57005W        W28534  32.163  35.471   2.772
57006W        W28535  39.617  24.402  14.539
57007W        W28536  33.009  35.986  12.514
57008W        W28537  22.539  28.562   3.163
57009W        W28538  44.939   0.890   0.393
57010W        W28539  22.713  14.398  13.257
57011W        W28540  24.990  37.422   0.407
57012W        W28541  23.814  24.453  13.739
57013W        W28542  11.734  44.333  11.529
57014W        W28543  32.792  25.447   0.372
57015W        W28544  40.032  22.311  11.231
57016W        W28545   1.506   1.668   1.581
57017W        W28546  28.096  22.381   5.128
57018W        W28547  33.316  25.573  13.047
57019W        W28548   6.283   9.504   2.744
57020W        W28549  19.246  28.023   2.741
57021W        W28550  29.836   4.781   4.510
57022W        W28551   4.568  41.378   3.800
57023W        W28552  27.466  42.814  14.818
57024W        W28553   2.678  23.238   1.785
57025W        W28554  40.053  31.996   4.871
57026W        W28555  19.490  42.532  11.017
57027W        W28556  31.699  39.241   0.859
57028W        W28557  32.633  27.198   3.693
57029W        W28558  13.537  37.791  12.889
57030W        W28559   8.206  37.912  13.347
57031W        W28560  23.413   9.405   4.111
57032W        W28561  28.188  33.523  14.984
57033W        W28562   6.113  13.582  12.923
57034W        W28563  18.796  27.862   2.461
57035W        W28564  11.305   0.547  13.845
57036W        W28565  32.436  43.773   1.867
57037W        W28566  30.664   7.920  13.357
57038W        W28567  23.706  28.042   4.203
57039W        W28568  30.625  18.375  11.361
57040W        W28569   2.949   4.882  10.991
57041W        W28570  19.298   0.827   3.655
57042W        W28571  11.991  30.129   1.914
57043W        W28572   1.752  19.861   4.833
57044W        W28573  10.719  18.700  13.814
57045W        W28574  43.405  37.749   2.777
57046W        W28575   9.221   8.918  14.311
57047W        W28576  32.960  35.125   3.491
57048W        W28577   5.845  23.827  12.369
57049W        W28578  10.298  24.748  11.907
57050W        W28579   1.421   0.836  12.485
57051W        W28580  35.366   3.958  10.608
57052W        W28581  20.147  38.065   4.608
57053W        W28582  38.061  25.408  13.967
57054W        W28583  43.567   3.877  14.898
57055W        W28584   7.690  43.350  13.058
57056W        W28585  32.490  37.911  10.805
57057W        W28586  13.201   1.527   3.206
57058W        W28587   5.649  17.599   0.954
57059W        W28588  35.549  38.203   3.602
57060W        W28589  19.339   6.960   4.396
57061W        W28590  10.778  26.677   5.003
57062W        W28591  33.118   4.502   0.906
57063W        W28592  38.972  40.578   4.721
57064W        W28593  28.208  43.283  14.969
57065W        W28594  39.191  36.896   4.121
57066W        W28595   0.398  35.832   2.406
57067W        W28596  35.297  29.650  12.743
57068W        W28597  26.659   1.089   4.116
57069W        W28598  30.200   6.546   1.703
57070W        W28599  37.000   6.918   1.857
57071W        W28600  37.585  17.989   4.174
57072W        W28601  23.094  11.286  11.999
57073W        W28602   5.182  14.925   3.247
57074W        W28603  26.626   9.979   4.572
57075W        W28604  25.508  18.786   3.640
57076W        W28605  42.200  18.253  11.657
57077W        W28606  39.485  37.675   1.268
57078W        W28607  14.397  34.145   3.123
57079W        W28608  12.814   1.269   3.633
57080W        W28609  32.859  37.147  11.031
57081W        W28610   0.770  20.083   0.728
57082W        W28611  43.114  37.606  11.491
57083W        W28612   1.906  11.136  14.152
57084W        W28613   8.756   7.269  10.589
57085W        W28614  31.366   1.485   0.279
57086W        W28615  18.242   7.437   2.387
57087W        W28616  37.947  20.848   2.700
57088W        W28617  11.325  15.858   4.291
57089W        W28618  12.600   9.648   3.335
57090W        W28619  14.828  30.092   0.392
57091W        W28620  21.800  28.033  14.948
57092W        W28621  20.780  20.243   0.466
57093W        W28622  16.799  39.991   0.930
57094W        W28623  14.264  37.635   0.357
57095W        W28624   6.497  19.918  11.491
57096W        W28625  20.248  30.196   0.086
57097W        W28626   4.400   5.205   2.470
57098W        W28627  21.861   4.693   0.205
57099W        W28628  22.721  13.739  13.949
57100W        W28629  36.854  10.323   4.277
57101W        W28630  10.728  23.520   0.243
57102W        W28631  19.838  31.330  14.833
57103W        W28632   0.583   2.388   1.240
57104W        W28633  12.162  19.430  10.712
57105W        W28634   2.427  11.302   2.673
57106W        W28635  17.585   9.938  12.921
57107W        W28636  15.896   3.339  14.366
57108W        W28637  31.402   0.771   3.755
57109W        W28638  24.109  44.345   2.860
57110W        W28639  13.665  20.691  13.127
57111W        W28640  10.727  17.484   3.443
57112W        W28641  42.336  29.049   2.285
57113W        W28642   9.131  41.537   2.241
57114W        W28643  28.773  36.179   3.956
57115W        W28644  14.600  35.717   1.900
57116W        W28645  15.112  37.932   4.570
57117W        W28646   4.813  43.312  13.303
57118W        W28647  32.898  24.633  13.498
57119W        W28648  21.230  19.253   2.217
57120W        W28649  43.092  35.014   0.790
57121W        W28650   5.104  22.727  13.802
57122W        W28651  37.838  17.209   2.596
57123W        W28652  32.969  20.441   0.258
57124W        W28653   8.809  25.422  10.648
57125W        W28654  39.877  34.640  12.113
57126W        W28655  14.698  44.915   2.707
57127W        W28656  23.205  11.786  11.672
57128W        W28657  37.742  20.022  13.102
57129W        W28658  32.167   3.251  12.397
57130W        W28659  36.027   1.790  12.463
57131W        W28660  42.946  43.102  14.030
57132W        W28661  43.160  17.978   2.328
57133W        W28662  15.124   7.752  13.171
57134W        W28663  15.726  18.906  12.484
57135W        W28664  34.235  13.460   1.808
57136W        W28665  24.720  25.120   0.527
57137W        W28666   3.907  10.425  10.401
57138W        W28667  33.440  25.730   0.829
57139W        W28668  31.096  36.317  13.011
57140W        W28669  31.120  19.053  10.602
57141W        W28670  38.497  43.395   4.994
57142W        W28671  16.210  17.665   0.723
57143W        W28672  25.275  36.118   0.224
57144W        W28673   3.632  35.948   0.872
57145W        W28674  15.559  33.591   4.081
57146W        W28675  40.426  32.605  10.534
57147W        W28676  11.571   5.634  10.669
57148W        W28677  19.040  44.778   3.717
57149W        W28678  41.058  24.563   0.431
57150W        W28679  40.769  25.181   4.057
57151W        W28680  18.122  12.857   2.594
57152W        W28681  18.727   5.080  14.331
57153W        W28682  15.283  35.494  12.071
57154W        W28683  44.410   1.389   2.920
57155W        W28684  39.839   8.441   4.920
57156W        W28685   7.388  24.590  10.994
57157W        W28686  25.418  26.014   0.787
57158W        W28687  16.087  28.228   3.617
57159W        W28688  18.237  42.114   2.564
57160W        W28689   6.264  43.785   1.977
57161W        W28690   5.495  39.453   4.538
57162W        W28691   5.148  19.060   3.773
57163W        W28692  14.709  38.862  14.712
57164W        W28693  30.330  17.770   1.112
57165W        W28694  30.571  15.816   1.353
57166W        W28695  41.084   6.940   1.261
57167W        W28696   8.422  20.240   4.996
57168W        W28697  36.186  14.431  12.959
57169W        W28698  33.340   1.749   2.107
57170W        W28699  42.440  19.147   1.258
57171W        W28700  30.309  20.504   4.740
57172W        W28701  41.380   1.520   3.791
57173W        W28702  33.628  33.926  14.285
57174W        W28703  10.797  41.961  14.764
57175W        W28704   6.624  28.442  12.444
57176W        W28705  25.475  43.819  12.920
57177W        W28706   9.370  42.704   4.075
57178W        W28707  27.946  25.549   2.744
57179W        W28708  42.597  13.820  14.335
57180W        W28709  22.294  37.068   2.925
57181W        W28710   1.223  28.594   0.769
57182W        W28711  10.057  42.304   0.219
57183W        W28712  10.220  18.376  11.503
57184W        W28713  38.119   8.718  11.435
57185W        W28714  23.720   6.190  14.248
57186W        W28715   7.172   9.450  13.643
57187W        W28716  11.965  33.537  11.587
57188W        W28717  35.632  18.419  13.570
57189W        W28718  22.452   3.485   4.479
57190W        W28719  22.635   2.206  11.652
57191W        W28720  37.177  13.092  10.759
57192W        W28721  27.689  19.947   2.798
57193W        W28722  44.889  17.020  11.518
57194W        W28723   4.840  19.303  10.753
57195W        W28724  27.279   4.807  10.706
57196W        W28725  10.915  31.439   0.964
57197W        W28726  21.359  35.168   3.197
57198W        W28727   0.933  43.143  14.824
57199W        W28728  15.197  18.133   3.370
57200W        W28729  21.664  27.726   2.300
57201W        W28730  31.942  30.939  11.004
57202W        W28731  28.810   3.674   4.065
57203W        W28732   4.725   2.545  12.332
57204W        W28733  30.181  15.981   5.372
57205W        W28734  25.525  43.752   1.738
57206W        W28735  21.813  35.844  12.431
57207W        W28736  25.702   6.954  14.947
57208W        W28737  11.241  10.355   4.153
57209W        W28738  16.833  33.023  11.679
57210W        W28739  11.916  42.065  13.382
57211W        W28740  17.638  37.587  14.242
57212W        W28741  13.383  20.611  14.937
57213W        W28742   2.480  41.274   1.738
57214W        W28743   5.717  23.720  13.530
57215W        W28744  15.293  32.027  11.490
57216W        W28745   2.784  12.988   5.034
57217W        W28746  29.563   1.474   0.741
57218W        W28747  30.640  42.756   2.826
57219W        W28748   9.838   1.934  11.439
57220W        W28749   0.507   8.425   0.968
57221W        W28750   4.982  26.605   0.293
57222W        W28751  44.791  22.202  13.691
57223W        W28752   7.389  18.598  12.877
57224W        W28753  15.069  40.361   4.673
57225W        W28754  19.948   7.392  11.683
57226W        W28755  13.765  41.024  11.199
57227W        W28756  27.236  14.191   0.400
57228W        W28757  16.538   0.266   2.468
57229W        W28758  22.787  16.785  10.273
57230W        W28759  18.635  22.725  13.790
57231W        W28760  44.687  26.584  11.939
57232W        W28761  35.685   5.988  10.849
57233W        W28762  18.255  12.329   2.378
57234W        W28763  17.587  12.206   2.268
57235W        W28764  35.821  29.372   2.253
57236W        W28765  27.745  16.319  12.534
57237W        W28766  17.036  31.947   2.353
57238W        W28767  26.599  43.469  13.998
57239W        W28768   3.190  18.762   3.770
57240W        W28769  39.014   6.595  13.459
57241W        W28770  18.559  34.431  14.434
57242W        W28771  40.485  23.733  11.633
57243W        W28772  29.443  29.053   4.636
57244W        W28773  30.139  25.259  11.502
57245W        W28774  21.190  23.830  10.007
57246W        W28775  25.715   5.904   3.594
57247W        W28776  30.465   9.531  10.867
57248W        W28777   5.002  40.040  13.034
57249W        W28778   7.046  14.761  12.494
57250W        W28779  10.913  37.430   0.527
57251W        W28780  18.002   1.885   2.352
57252W        W28781  23.227  43.531  14.413
57253W        W28782   1.684  24.240  13.324
57254W        W28783  44.750  25.622   0.273
57255W        W28784   3.721  41.061  11.110
57256W        W28785  26.963  40.356  13.843
57257W        W28786   5.619  30.811  13.977
57258W        W28787  30.471  31.332   3.332
57259W        W28788  20.537  20.022   4.913
57260W        W28789  34.046  32.527  10.816
57261W        W28790   7.217  38.518   4.519
57262W        W28791  14.164  17.421  14.895
57263W        W28792  13.184   1.006   3.183
57264W        W28793  15.035  41.390   2.708
57265W        W28794  11.144   3.697   2.271
57266W        W28795  11.599  31.986   1.653
57267W        W28796  41.759  17.982  11.244
57268W        W28797  15.744  16.488   2.832
57269W        W28798  11.267  20.008   3.195
57270W        W28799   6.225  28.225   2.415
57271W        W28800  36.284  18.085  12.784
57272W        W28801  10.771   3.120   0.311
57273W        W28802  36.089   0.294  10.571
57274W        W28803  14.165  21.067   1.790
57275W        W28804  39.575  24.446   1.423
57276W        W28805  43.095   6.804   0.981
57277W        W28806  43.868  40.992   4.788
57278W        W28807  25.670  27.417   3.773
57279W        W28808  35.377  24.921  11.487
57280W        W28809  25.518  25.254   1.983
57281W        W28810   1.029  12.132  13.679
57282W        W28811  39.760  14.926  13.857
57283W        W28812  34.759  30.456   5.027
57284W        W28813   9.548   6.183   2.468
57285W        W28814  10.366  26.976  11.500
57286W        W28815   2.247  35.386  14.780
57287W        W28816  32.444  13.540   4.406
57288W        W28817  15.420   6.251   4.253
57289W        W28818   6.289   2.005  12.129
57290W        W28819   5.150  20.076  11.571
57291W        W28820  14.571  19.993  14.269
57292W        W28821  28.343   8.011   0.838
57293W        W28822   7.949  38.957   2.641
57294W        W28823  14.544  31.108  12.499
57295W        W28824  44.932   6.510   0.891
57296W        W28825  33.583   0.141   1.582
57297W        W28826   0.573   4.332  13.533
57298W        W28827  11.201   4.875   2.885
57299W        W28828  22.969   9.946   0.198
57300W        W28829   9.598  33.511  10.650
57301W        W28830  30.006   4.227  14.748
57302W        W28831  16.628  44.183  12.447
57303W        W28832  35.619  10.844  10.573
57304W        W28833  23.008  31.126  13.705
57305W        W28834  15.444  37.269   3.512
57306W        W28835  37.786  36.385  13.137
57307W        W28836  28.769  37.980  12.961
57308W        W28837   1.453  39.998  13.550
57309W        W28838  33.458  18.632  10.882
57310W        W28839  10.313  34.409  11.607
57311W        W28840   0.906  15.899  14.566
57312W        W28841  30.587  31.040   1.347
57313W        W28842   1.564  22.571   3.660
57314W        W28843  12.418  23.942  11.148
57315W        W28844  13.132   9.747  11.563
57316W        W28845  27.374   8.390   3.157
57317W        W28846  23.562  42.356   0.299
57318W        W28847  35.767  34.701   3.134
57319W        W28848  40.366  20.671  10.532
57320W        W28849  33.534  31.911  13.902
57321W        W28850  21.464  44.985  14.997
57322W        W28851  21.244  44.703   1.992
57323W        W28852  43.511  27.621   1.371
57324W        W28853  21.223  22.225  13.561
57325W        W28854  43.893   2.607  11.948
57326W        W28855  18.546  37.588   4.128
57327W        W28856  16.668  29.603   4.341
57328W        W28857  25.081  27.242   1.505
57329W        W28858   2.631  21.666   3.682
57330W        W28859  36.428  29.117   0.305
57331W        W28860  12.690  16.537  14.824
57332W        W28861  19.295  31.683   4.348
57333W        W28862   4.385   7.744   0.699
57334W        W28863  20.226  20.687   1.968
57335W        W28864  37.800  34.389  12.788
57336W        W28865  26.266  36.592  11.148
57337W        W28866  34.111  43.326   1.741
57338W        W28867  37.168  34.452  14.708
57339W        W28868  13.336  31.071   2.858
57340W        W28869  36.824  31.404   4.203
57341W        W28870  28.141  24.243  12.022
57342W        W28871  31.503  15.121  12.056
57343W        W28872  31.747  24.434   2.260
57344W        W28873  19.236  15.675  12.049
57345W        W28874  11.192  28.846  10.790
57346W        W28875  32.661   6.625  12.011
57347W        W28876  27.037  18.057   1.438
57348W        W28877   9.818  25.459   2.405
57349W        W28878   6.693  16.538   2.455
57350W        W28879  21.282  44.094   1.516
57351W        W28880  31.399  13.296   2.903
57352W        W28881   1.736  10.628  10.341
57353W        W28882  15.204  30.716   5.051
57354W        W28883   1.767   4.863   4.156
57355W        W28884   2.929  10.753   0.423
57356W        W28885  21.471   7.163   3.601
57357W        W28886  32.051  29.685   4.520
57358W        W28887  44.545  30.336  12.633
57359W        W28888  31.084  32.593  12.022
57360W        W28889   5.974  17.443  11.574
57361W        W28890  10.388   4.899   3.645
57362W        W28891   8.662   6.728  10.369
57363W        W28892  20.564  24.568  14.999
57364W        W28893   4.455   1.820  10.727
57365W        W28894  32.860   3.708   0.766
57366W        W28895  39.038  44.976   5.109
57367W        W28896  40.939   0.472   1.897
57368W        W28897  44.234  15.335   2.905
57369W        W28898  17.734  37.046   3.903
57370W        W28899  44.083  16.072   0.357
57371W        W28900  30.559  25.097   0.307
57372W        W28901  44.917  21.553  10.902
57373W        W28902   1.420  23.258   2.167
57374W        W28903  22.544  23.718  13.890
57375W        W28904  44.784  44.254  11.967
57376W        W28905  14.000  30.947  11.934
57377W        W28906  14.143  40.813   0.781
57378W        W28907  34.059  40.781  13.442
57379W        W28908  27.635  31.591   4.601
57380W        W28909  28.754   6.590   1.031
57381W        W28910  36.589  29.879   1.682
57382W        W28911  35.837  14.367  10.701
57383W        W28912   2.417  28.901   4.086
57384W        W28913   9.767   1.039  11.736
57385W        W28914   4.687   0.207   1.213
57386W        W28915   7.694  20.424  14.376
57387W        W28916   5.576   4.539  12.337
57388W        W28917   2.840  41.415   0.424
57389W        W28918   7.739  10.634   1.076
57390W        W28919  26.846  42.954   4.810
57391W        W28920  36.029  33.643  12.391
57392W        W28921   3.572  15.518   4.176
57393W        W28922   3.247  10.093   2.811
57394W        W28923  30.529   0.771   4.142
57395W        W28924   4.914  19.138  13.439
57396W        W28925  24.001  37.986   4.743
57397W        W28926  42.333  10.143   1.217
57398W        W28927  31.024   9.225   0.196
57399W        W28928  17.567  12.656  12.485
57400W        W28929   0.022  31.821  13.495
57401W        W28930  26.168  44.718   0.766
57402W        W28931   7.441  11.709  14.866
57403W        W28932  42.134  42.875   3.346
57404W        W28933  33.651  36.614   4.877
57405W        W28934  10.178  26.993   2.877
57406W        W28935  42.876  34.014  13.831
57407W        W28936  12.489  42.520  11.607
57408W        W28937   9.141  36.319   1.862
57409W        W28938  28.135   6.608  11.644
57410W        W28939  36.570  14.635   4.091
57411W        W28940  34.614  20.656   3.736
57412W        W28941  12.276  28.895  13.834
57413W        W28942   0.730  41.515   0.215
57414W        W28943  11.840  20.127   4.059
57415W        W28944  31.672   8.943  13.940
57416W        W28945  11.552  13.298   2.405
57417W        W28946  22.858  35.058  13.819
57418W        W28947  39.681  21.073   0.440
57419W        W28948  37.933   4.191   0.460
57420W        W28949   1.743   5.575  14.311
57421W        W28950   9.882  15.851  14.074
57422W        W28951   5.328   8.021  14.832
57423W        W28952  29.805  12.702   9.823
57424W        W28953   9.807  40.952   3.268
57425W        W28954  34.669  33.114  13.729
57426W        W28955  31.987  21.409  11.611
57427W        W28956  11.751  24.500   3.575
57428W        W28957   8.249   3.826  13.861
57429W        W28958  27.203   6.231  11.349
57430W        W28959   9.357  41.124   0.847
57431W        W28960  40.430   1.297   2.853
57432W        W28961  11.939  34.868  11.727
57433W        W28962  27.170  34.389   1.359
57434W        W28963  11.600  11.581   4.223
57435W        W28964  12.056  44.505  14.598
57436W        W28965  36.840  15.627  13.885
57437W        W28966  26.644  29.006  12.315
57438W        W28967  39.225  14.280  10.672
57439W        W28968  42.302   0.096  13.068
57440W        W28969  19.147   7.742   1.768
57441W        W28970  19.427   9.159  11.999
57442W        W28971  36.626  24.169  13.968
57443W        W28972  31.772  39.422   1.838
57444W        W28973  34.087  23.108   4.055
57445W        W28974  42.696   8.844   2.714
57446W        W28975  13.183  30.046  13.216
57447W        W28976   6.398  27.199  12.521
57448W        W28977  25.190  12.637   0.342
57449W        W28978   2.894  32.966   2.191
57450W        W28979  29.697  42.459   1.705
57451W        W28980  37.993  33.866  11.349
57452W        W28981  10.668  19.219  12.542
57453W        W28982  25.041  21.612   1.864
57454W        W28983  13.833  31.849   2.918
57455W        W28984  39.280  29.901  14.833
57456W        W28985  23.912  44.405   3.825
57457W        W28986  33.844  24.998   1.598
57458W        W28987  26.052  41.034  10.640
57459W        W28988  31.652  13.551  12.009
57460W        W28989  18.148  28.638  11.493
57461W        W28990  10.552  25.538   3.687
57462W        W28991  18.286  15.023  10.984
57463W        W28992  29.352  18.994  11.595
57464W        W28993  14.999   9.564  12.908
57465W        W28994  25.148   8.955  14.396
57466W        W28995  12.758   6.442   0.343
57467W        W28996  43.887  24.645  10.956
57468W        W28997  44.060  13.199   2.901
57469W        W28998  32.360  14.076  10.617
57470W        W28999  15.229   4.827  14.855
57471W        W29000  12.449  22.703   1.282
57472W        W29001  13.863  11.721  12.028
57473W        W29002   7.182  20.616  13.664
57474W        W29003  44.017   4.759  10.684
57475W        W29004  32.596  18.225  10.604
57476W        W29005  17.713   6.846  11.718
57477W        W29006   5.362   2.986   3.709
57478W        W29007  31.933   5.489   0.318
57479W        W29008  21.625  32.162  13.230
57480W        W29009  20.424  17.317  11.645
57481W        W29010  31.245  34.142  14.486
57482W        W29011  17.215  43.525  12.568
57483W        W29012  27.552  23.670  13.844
57484W        W29013   6.725  41.961   3.578
57485W        W29014  18.737  27.940   5.464
57486W        W29015  17.962  22.257  14.411
57487W        W29016   3.431   2.637  11.952
57488W        W29017  12.849  27.086   4.072
57489W        W29018  21.031  11.145   2.323
57490W        W29019   5.796  28.112  10.877
57491W        W29020  20.355  18.846   3.754
57492W        W29021  11.287  41.515  11.775
57493W        W29022  40.767  11.740   3.328
57494W        W29023  28.891  23.079   3.258
57495W        W29024   1.925   5.521  12.214
57496W        W29025  16.291  26.655  10.663
57497W        W29026  31.043  20.560   1.299
57498W        W29027  31.002   8.229  13.112
57499W        W29028   1.939  17.358  14.728
57500W        W29029  20.511  27.770  14.532
57501W        W29030  22.169  22.751  14.979
57502W        W29031   4.752  13.585  12.389
57503W        W29032  20.177  35.952  14.582
57504W        W29033  36.411  21.066  12.018
57505W        W29034  29.656  27.465   1.581
57506W        W29035  13.860  41.923   4.397
57507W        W29036  23.797  31.481  11.959
57508W        W29037  27.321  40.086   3.386
57509W        W29038   5.814  10.258  11.552
57510W        W29039  15.776  42.914  12.379
57511W        W29040  44.742   0.767  10.697
57512W        W29041   4.317  43.907  11.915
57513W        W29042   5.020  41.814   1.979
57514W        W29043  27.036   3.154  11.092
57515W        W29044  42.297  12.781  12.130
57516W        W29045  29.384  44.667   1.710
57517W        W29046  39.799  41.491   0.828
57518W        W29047  31.815  36.491   0.740
57519W        W29048  13.119  17.910   1.642
57520W        W29049  22.977  16.663  12.072
57521W        W29050  22.451  12.220  13.803
57522W        W29051  40.901  14.670   2.040
57523W        W29052   7.709   1.026   4.104
57524W        W29053  37.614  21.685   3.270
57525W        W29054  29.947  32.613   4.394
57526W        W29055  33.195  26.117  11.466
57527W        W29056  20.750  29.600  11.112
57528W        W29057  42.947  17.653  13.416
57529W        W29058  19.857  38.057   2.434
57530W        W29059  22.928  30.168  12.966
57531W        W29060  31.893   8.572   0.773
57532W        W29061  10.850  31.731   0.523
57533W        W29062   9.912  27.873   1.294
57534W        W29063  19.998   1.357  14.262
57535W        W29064   1.838  22.194   2.979
57536W        W29065  23.511  29.964  14.868
57537W        W29066  42.383  31.396  11.528
57538W        W29067   0.904  42.016   4.546
57539W        W29068   1.477  19.951   1.664
57540W        W29069  36.933  12.343   1.807
57541W        W29070  36.629  23.837  11.176
57542W        W29071  21.925  13.336   0.009
57543W        W29072  29.616   9.637  11.664
57544W        W29073  38.906  11.767   1.841
57545W        W29074  15.675  35.682  10.586
57546W        W29075  17.135  14.197  13.954
57547W        W29076   1.189  39.597   2.342
57548W        W29077   7.002  32.526  14.279
57549W        W29078  27.285  24.979   3.245
57550W        W29079  43.119  36.426   2.700
57551W        W29080  37.253   5.647   2.325
57552W        W29081  35.508  17.864  13.778
57553W        W29082  33.051  25.957   3.140
57554W        W29083  25.873   2.822   1.306
57555W        W29084   7.733  14.767   3.333
57556W        W29085  39.285  22.713  11.419
57557W        W29086   3.696  21.155  13.933
57558W        W29087   2.929   0.933   3.385
57559W        W29088   1.466  14.170  14.352
57560W        W29089  22.724  37.386   3.587
57561W        W29090  21.685  11.630  13.811
57562W        W29091  21.704   1.425  14.850
57563W        W29092  27.200  37.003   0.932
57564W        W29093  25.576  29.049   4.291
57565W        W29094  20.493  22.721  13.482
57566W        W29095  34.431   8.210   4.911
57567W        W29096  39.865  36.965  14.953
57568W        W29097  31.226  27.988   2.825
57569W        W29098  20.552   9.143   0.662
57570W        W29099   5.569  40.808   2.285
57571W        W29100  11.133   0.584  11.938
57572W        W29101  17.193  14.524   1.231
57573W        W29102  40.359   1.149   4.354
57574W        W29103  32.564  40.470  12.743
57575W        W29104   5.138  40.305   0.887
57576W        W29105  17.579   2.964   4.235
57577W        W29106  20.188  15.356   1.051
57578W        W29107  18.568  16.291  12.110
57579W        W29108   1.979  13.689   3.766
57580W        W29109  17.657  12.216  10.824
57581W        W29110  39.894  10.326   2.608
57582W        W29111  30.976  41.707  11.408
57583W        W29112  33.561  35.482  13.805
57584W        W29113  24.608  17.328   3.448
57585W        W29114  40.285  27.715  13.267
57586W        W29115  20.261  44.854  10.411
57587W        W29116  16.816  35.170   0.617
57588W        W29117  32.034  35.399  12.550
57589W        W29118  36.838  43.411  11.367
57590W        W29119   1.021  14.234   0.376
57591W        W29120   9.741  25.160  11.922
57592W        W29121  37.805  25.491  11.870
57593W        W29122  31.626  25.137  13.513
57594W        W29123  15.984   8.705   0.432
57595W        W29124  28.586  26.786   1.377
57596W        W29125  28.728   2.444   2.320
57597W        W29126   3.032  27.823   5.034
57598W        W29127  41.441  33.599   2.756
57599W        W29128  23.022  11.882   0.386
57600W        W29129   8.316  26.572  10.518
57601W        W29130  13.717  39.992  14.874
57602W        W29131  14.540   0.670  13.336
57603W        W29132  44.860   7.102   2.950
57604W        W29133  25.121  31.902  13.818
57605W        W29134  38.559   7.226   1.934
57606W        W29135  22.085   7.064  13.576
57607W        W29136  43.789   2.038  14.657
57608W        W29137   4.907  33.598  11.182
57609W        W29138   8.137  44.034   2.058
57610W        W29139  25.138  32.002   3.527
57611W        W29140  18.951   9.802  12.416
57612W        W29141  15.290  36.835  14.050
57613W        W29142  38.360   1.938   4.338
57614W        W29143  34.220   1.896  12.969
57615W        W29144   1.234   6.609   2.750
57616W        W29145  36.805  35.088  10.581
57617W        W29146  28.745  31.122  11.368
57618W        W29147  43.231  18.015  12.954
57619W        W29148  35.384   8.703   3.722
57620W        W29149   1.878  19.356   2.829
57621W        W29150  31.228  23.063   4.788
57622W        W29151  10.457   5.562   3.281
57623W        W29152  31.903  32.515  11.874
57624W        W29153  13.374  31.079  14.695
57625W        W29154  25.993  28.196   1.434
57626W        W29155  35.353   9.130   4.016
57627W        W29156   4.019  21.518  13.197
57628W        W29157  17.515  31.492  11.605
57629W        W29158  20.734  23.655   2.719
57630W        W29159  25.478  13.086  14.314
57631W        W29160  11.062  21.816   4.292
57632W        W29161  15.564  12.598   4.624
57633W        W29162  13.323  11.918  13.864
57634W        W29163   6.090  29.452   2.869
57635W        W29164  39.040  27.229   0.992
57636W        W29165   2.963  10.982   4.554
57637W        W29166  11.098  25.730  11.162
57638W        W29167  15.881   4.198   0.829
57639W        W29168  13.041  19.739   3.791
57640W        W29169   7.469   4.151  12.425
57641W        W29170  33.082   1.759  11.434
57642W        W29171  14.219  37.599   3.606
57643W        W29172  11.860  33.693  12.423
57644W        W29173  30.777   8.192   3.856
57645W        W29174   2.665  31.936   0.961
57646W        W29175  30.036  19.666   5.191
57647W        W29176   6.736  15.105   4.848
57648W        W29177  10.119   0.937   1.345
57649W        W29178  33.340  39.350  13.594
57650W        W29179  20.425  20.836   3.730
57651W        W29180  36.447  14.687   1.165
57652W        W29181  10.486  36.485   4.932
57653W        W29182  11.382  12.261  14.383
57654W        W29183  30.527   6.766  11.448
57655W        W29184  12.777  22.089   4.500
57656W        W29185  29.972  17.194   3.826
57657W        W29186  21.619  23.499  12.340
57658W        W29187  36.276  16.617  12.526
57659W        W29188  22.090  37.762  14.057
57660W        W29189  30.495  19.271   3.617
57661W        W29190  21.534  29.629   1.341
57662W        W29191  21.851   6.172  11.313
57663W        W29192  30.428  17.355   3.576
57664W        W29193  36.506  23.455   4.139
57665W        W29194  12.598  41.972   2.740
57666W        W29195  43.979  43.818  11.483
57667W        W29196  21.530   3.388  12.502
57668W        W29197   5.793  24.990   4.556
57669W        W29198  35.499  33.903  11.173
57670W        W29199  30.349  25.533   2.539
57671W        W29200  41.529  37.058   0.764
57672W        W29201  26.036  34.645  12.018
57673W        W29202  44.955  20.748   1.993
57674W        W29203  38.389  20.592   4.980
57675W        W29204  23.039  39.808   3.683
57676W        W29205  35.442  44.526  10.520
57677W        W29206  43.657   8.005   1.028
57678W        W29207   6.451   0.240   1.844
57679W        W29208  14.286  24.218   3.145
57680W        W29209   4.870  36.987   0.691
57681W        W29210   6.948  42.424   3.675
57682W        W29211   8.342  36.081  12.506
57683W        W29212   5.276   7.519  11.152
57684W        W29213  17.970  29.243   0.333
57685W        W29214  36.055  16.822  12.935
57686W        W29215  32.400  32.747   1.182
57687W        W29216  10.926   0.973   3.701
57688W        W29217  11.501  24.047  11.603
57689W        W29218  17.927  40.519   4.237
57690W        W29219  26.029  10.406   0.278
57691W        W29220   8.062  22.536  14.205
57692W        W29221  39.150  37.995  10.358
57693W        W29222   9.933  21.752  10.947
57694W        W29223   7.278  31.902   0.822
57695W        W29224  17.171  10.700  14.080
57696W        W29225  36.516  26.175   4.995
57697W        W29226  11.829  34.358   3.664
57698W        W29227  20.280  43.794   2.728
57699W        W29228  33.783  21.665  10.278
57700W        W29229   7.403  13.730   4.300
57701W        W29230   3.690  30.166   2.534
57702W        W29231  29.053  12.219   2.383
57703W        W29232   4.791   5.638   3.616
57704W        W29233  38.820  25.729   1.268
57705W        W29234  20.574  18.486  13.116
57706W        W29235   0.259  12.658  13.261
57707W        W29236  16.612  24.113  11.962
57708W        W29237  17.534  34.887  13.926
57709W        W29238  41.878  20.584  12.821
57710W        W29239   4.867  32.915  12.865
57711W        W29240   6.277   9.866  14.396
57712W        W29241   7.005  29.230   4.291
57713W        W29242  40.186  34.439   1.346
57714W        W29243  19.212  22.166  13.484
57715W        W29244  27.983  11.864  12.591
57716W        W29245   7.132  20.631   0.042
57717W        W29246  23.157  37.994  11.022
57718W        W29247  32.877  22.984  10.608
57719W        W29248  19.764  26.014  12.601
57720W        W29249  18.836  32.121   4.571
57721W        W29250   0.785  35.931  11.231
57722W        W29251  31.551  23.427   1.209
57723W        W29252  38.042   1.832  12.111
57724W        W29253  14.383   2.919  14.955
57725W        W29254  20.333  40.889  13.399
57726W        W29255   7.098  44.781  10.794
57727W        W29256  19.780   2.767  13.704
57728W        W29257  15.201  23.784   1.336
57729W        W29258  33.032  19.218   2.174
57730W        W29259  25.788   3.033  13.838
57731W        W29260  36.352   5.939   4.149
57732W        W29261  32.928  20.984   4.415
57733W        W29262   6.932  11.677   3.774
57734W        W29263  22.609  13.101   0.541
57735W        W29264  26.535  21.461  11.985
57736W        W29265   9.923  21.623   3.818
57737W        W29266   2.728   6.788   2.606
57738W        W29267  33.631   7.035  13.882
57739W        W29268  41.404   5.178  13.433
57740W        W29269  16.181  20.535  13.151
57741W        W29270  42.473  41.313  13.583
57742W        W29271  27.128  18.093  13.264
57743W        W29272  27.226  22.733  12.613
57744W        W29273   8.733   0.498   2.227
57745W        W29274  33.220  13.088  11.669
57746W        W29275  22.092  11.605   2.233
57747W        W29276  17.624  40.383   3.839
57748W        W29277  27.581  15.152  12.680
57749W        W29278  13.860  40.034   1.844
57750W        W29279  17.857  43.660  12.003
57751W        W29280   0.743  41.977  10.705
57752W        W29281  42.766  27.102  14.275
57753W        W29282  13.411   7.256  11.995
57754W        W29283  44.301   3.298   1.660
57755W        W29284  15.419  31.182  10.728
57756W        W29285  39.929   8.787   1.728
57757W        W29286  30.309  29.095   4.253
57758W        W29287   5.888  12.630   1.422
57759W        W29288  39.437  30.945   2.082
57760W        W29289  17.829   8.122   0.093
57761W        W29290  11.347  27.578   2.668
57762W        W29291  40.026  18.564   1.680
57763W        W29292  34.820  33.994  13.912
57764W        W29293   6.815  37.677   4.586
57765W        W29294   2.758   6.341   1.351
57766W        W29295  11.279  43.246   3.764
57767W        W29296  42.992  21.160  13.837
57768W        W29297  11.665  27.340  10.054
57769W        W29298  37.526  17.557   1.283
57770W        W29299   6.882  33.360   2.177
57771W        W29300  25.532  29.489  11.450
57772W        W29301  13.226   8.406  12.781
57773W        W29302  12.651  21.490   0.961
57774W        W29303  10.053  12.844   2.137
57775W        W29304  19.753   6.705   4.629
57776W        W29305  10.259   7.220   4.011
57777W        W29306  33.923   4.446  12.482
57778W        W29307  27.467  43.731  12.298
57779W        W29308  37.931  25.258  13.097
57780W        W29309  14.763   4.242   3.606
57781W        W29310  30.885  41.979   1.446
57782W        W29311   3.861  14.660   2.232
57783W        W29312  44.892   2.886   1.495
57784W        W29313  12.443  44.932   0.840
57785W        W29314  10.202  32.910  13.036
57786W        W29315  23.609  37.825  11.202
57787W        W29316  13.648  40.809   3.168
57788W        W29317  10.796  27.454  12.866
57789W        W29318   4.698  21.499  12.036
57790W        W29319  10.581   3.035   4.579
57791W        W29320  25.969  25.541   1.937
57792W        W29321  34.977  41.462   2.157
57793W        W29322  34.699  21.620  14.877
57794W        W29323   9.384  10.617   4.681
57795W        W29324  12.595  35.917  10.673
57796W        W29325  34.712  32.281   4.832
57797W        W29326   1.787  20.089   0.762
57798W        W29327   6.015  19.640  12.535
57799W        W29328   5.729  30.494  12.411
57800W        W29329  25.016  41.933   2.974
57801W        W29330   7.311  41.060   4.213
57802W        W29331   7.119  25.581  13.185
57803W        W29332  34.353  42.639  13.806
57804W        W29333  17.343  42.914  10.770
57805W        W29334  32.976  38.706  14.160
57806W        W29335  40.010  39.779  13.428
57807W        W29336   4.515  35.499   1.242
57808W        W29337  18.084   4.259  12.085
57809W        W29338  27.950  42.043  13.503
57810W        W29339  43.861  39.398   2.387
57811W        W29340  44.505  16.248   0.912
57812W        W29341  10.158  33.407  11.470
57813W        W29342  35.093  15.881   4.805
57814W        W29343  24.231  16.078   2.873
57815W        W29344  21.796  33.475   3.009
57816W        W29345  16.637  16.582  10.773
57817W        W29346   5.668  34.131   4.163
57818W        W29347  24.285  26.680  10.759
57819W        W29348  12.272  20.611  13.131
57820W        W29349  18.745  18.153  13.956
57821W        W29350  27.123  24.597   2.584
57822W        W29351  19.656   1.599   1.727
57823W        W29352  15.272  24.562   4.156
57824W        W29353  26.997   9.122   3.786
57825W        W29354   3.390  31.899  12.404
57826W        W29355  26.202  11.352   0.925
57827W        W29356  40.511  11.313  12.515
57828W        W29357  13.592   3.175  10.980
57829W        W29358   0.943  33.557  12.875
57830W        W29359  42.024  16.041   2.051
57831W        W29360  41.218  18.622   4.054
57832W        W29361  18.802  11.303   0.931
57833W        W29362   7.278  17.734   2.931
57834W        W29363  18.709  44.758  11.747
57835W        W29364  42.319   1.753  11.988
57836W        W29365   2.472  40.543   0.226
57837W        W29366  44.011  22.043  10.705
57838W        W29367  37.462   6.158   3.106
57839W        W29368  31.502  40.869  14.769
57840W        W29369  24.428  24.235  11.147
57841W        W29370  35.943  37.909  13.546
57842W        W29371  25.391  21.655   0.731
57843W        W29372  30.976  17.026  13.242
57844W        W29373  12.817  22.315  14.004
57845W        W29374  25.259  42.753  11.992
57846W        W29375  39.416  37.383   0.831
57847W        W29376  21.602  15.076   4.273
57848W        W29377  28.138  10.548   3.618
57849W        W29378  18.123  40.479   1.804
57850W        W29379  32.608  24.638   4.366
57851W        W29380  23.285  19.769   1.951
57852W        W29381   6.832  21.689  12.393
57853W        W29382  23.436  40.137  10.762
57854W        W29383  42.819  44.774   1.897
57855W        W29384  28.901   8.405   0.117
57856W        W29385  15.936  14.488   1.353
57857W        W29386  41.086  23.833   3.380
57858W        W29387   0.315  35.414   3.739
57859W        W29388  22.679  39.436   3.744
57860W        W29389  17.916  18.168  11.476
57861W        W29390  34.960  38.803   1.625
57862W        W29391  15.933   7.275  10.693
57863W        W29392  28.779   4.768   2.416
57864W        W29393  19.249  29.173  14.960
57865W        W29394  15.014   8.421  12.362
57866W        W29395   0.488  36.604  11.056
57867W        W29396  41.538  40.100   4.596
57868W        W29397   0.724  24.551   0.330
57869W        W29398  25.170  11.700   3.619
57870W        W29399  12.157  16.065   3.148
57871W        W29400  21.449  19.351  11.040
57872W        W29401   9.597  34.645   2.173
57873W        W29402  31.280  19.159  11.991
57874W        W29403  13.749  13.708   4.594
57875W        W29404  30.958  28.001  13.857
57876W        W29405  37.722  38.401   4.910
57877W        W29406  30.835   8.807   0.710
57878W        W29407  32.100  27.692  11.517
57879W        W29408  18.558  10.122  11.558
57880W        W29409  39.298  23.716  11.890
57881W        W29410  26.767  31.399  13.340
57882W        W29411  27.271  43.149   3.485
57883W        W29412  12.695  32.476  11.031
57884W        W29413   1.290  40.981  11.967
57885W        W29414  24.659   8.797  14.296
57886W        W29415  19.557  26.454  11.306
57887W        W29416  33.671  13.421  12.829
57888W        W29417  19.262  27.660   2.381
57889W        W29418  41.054  29.891   0.203
57890W        W29419  40.873  17.970  14.207
57891W        W29420  42.967  20.218   3.220
57892W        W29421  16.148  28.921   3.123
57893W        W29422  35.160  22.458   0.463
57894W        W29423   0.722   6.780   1.615
57895W        W29424   8.307  44.972   1.707
57896W        W29425  24.220  22.245  10.657
57897W        W29426  34.335  41.392  11.497
57898W        W29427   5.452  42.407  10.626
57899W        W29428  22.212   0.534   0.448
57900W        W29429  41.985  11.451   3.721
57901W        W29430  30.068   5.926  10.598
57902W        W29431  31.081  25.612   2.253
57903W        W29432   0.959  11.709  13.004
57904W        W29433   6.845   0.304  12.518
57905W        W29434  19.065  35.606  12.830
57906W        W29435  33.116  42.247  13.074
57907W        W29436  21.222  17.239  12.002
57908W        W29437  36.659   0.305   3.875
57909W        W29438   6.399  38.419  11.366
57910W        W29439   0.945  32.814   2.857
57911W        W29440  11.096  17.669   4.831
57912W        W29441  43.720   6.509   1.797
57913W        W29442   1.978  27.550   2.194
57914W        W29443  32.313   8.228  11.984
57915W        W29444  32.908  34.402  12.404
57916W        W29445  22.496  11.058   1.526
57917W        W29446  16.029   0.787  10.607
57918W        W29447  10.308   1.286   3.293
57919W        W29448  41.722  33.171   2.853
57920W        W29449  41.585  19.716  12.174
57921W        W29450  22.139  36.764  13.793
57922W        W29451  23.463   9.622  10.812
57923W        W29452   2.513  26.845  12.028
57924W        W29453  16.074   7.721   3.284
57925W        W29454  37.932   2.295  12.623
57926W        W29455   7.081  34.855  14.288
57927W        W29456  42.489  41.028  14.356
57928W        W29457  27.611   9.463  12.927
57929W        W29458  27.021  20.277  11.877
57930W        W29459  28.655  39.490  11.533
57931W        W29460  38.087   3.200  13.060
57932W        W29461  36.665  27.939  10.475
57933W        W29462  24.099  30.227   2.225
57934W        W29463  21.123  29.960  11.984
57935W        W29464  11.602  30.273   0.291
57936W        W29465  22.994  12.145  14.436
57937W        W29466  32.608  17.439   3.555
57938W        W29467  24.333  15.167   2.900
57939W        W29468  21.023   3.411  13.389
57940W        W29469  42.916   8.654  14.060
57941W        W29470  22.658  38.785  13.593
57942W        W29471  16.655  24.752   1.433
57943W        W29472  38.030  35.270  13.361
57944W        W29473  10.738  33.828  13.071
57945W        W29474  12.400  34.889  14.401
57946W        W29475  26.195   3.775   3.352
57947W        W29476  30.459  15.100  13.295
57948W        W29477  12.878  24.961  11.043
57949W        W29478  20.598  21.610   1.703
57950W        W29479  24.191  44.369  10.619
57951W        W29480   5.302   4.326   1.263
57952W        W29481  32.988   8.666   3.155
57953W        W29482  43.791   1.119   4.215
57954W        W29483  44.879  23.308  14.942
57955W        W29484  37.988   9.981   0.775
57956W        W29485   6.102   7.619   2.437
57957W        W29486   5.260  25.678   2.717
57958W        W29487   1.716  40.008  11.758
57959W        W29488  13.810  19.731  13.820
57960W        W29489  22.733  30.454   1.919
57961W        W29490  22.124  36.838  12.901
57962W        W29491  40.879  34.492   0.115
57963W        W29492  24.020  24.020   4.536
57964W        W29493  22.475  12.839  12.014
57965W        W29494  36.187  30.205   1.550
57966W        W29495  22.492   5.259  11.968
57967W        W29496  43.534  41.844   4.660
57968W        W29497  18.370  12.656  12.963
57969W        W29498  11.651  39.903   3.701
57970W        W29499  12.173  21.456   1.893
57971W        W29500  17.067   5.488  14.299
57972W        W29501  37.175   7.281   3.826
57973W        W29502   6.413  17.330   2.179
57974W        W29503  13.082  24.932   4.551
57975W        W29504  22.063  17.542   2.415
57976W        W29505   7.859  11.824   1.175
57977W        W29506  28.028  31.390  11.565
57978W        W29507   4.983  44.777   2.381
57979W        W29508  30.231  41.576   1.276
57980W        W29509  28.691  16.558  11.034
57981W        W29510  44.547  10.679   1.176
57982W        W29511  38.793  41.298   2.653
57983W        W29512  19.041  29.172  13.204
57984W        W29513  16.549  34.233  11.219
57985W        W29514  39.549  20.598   2.904
57986W        W29515  40.484   0.744   0.897
57987W        W29516  42.268  42.516   2.213
57988W        W29517  27.184  43.137   0.160
57989W        W29518  22.042  38.821   0.668
57990W        W29519   3.750  17.343   3.895
57991W        W29520  39.107  15.931   4.327
57992W        W29521  24.083  30.555   5.039
57993W        W29522  18.036  24.439   1.803
57994W        W29523  21.745   3.154  14.476
57995W        W29524  10.848  42.471   4.698
57996W        W29525  10.651  27.874   2.723
57997W        W29526  31.238  23.575   4.633
57998W        W29527  41.006  19.273  10.632
57999W        W29528  37.873   5.748   1.608
58000W        W29529  16.724   1.889  12.379
58001W        W29530  37.451  30.616  10.789
58002W        W29531  15.513  35.989   4.256
58003W        W29532  37.133  44.902   2.310
58004W        W29533  13.508  28.771  14.041
58005W        W29534  10.065  22.410  11.810
58006W        W29535  39.905   8.299   3.896
58007W        W29536  36.030  42.989  14.314
58008W        W29537  25.046   9.287   2.710
58009W        W29538   6.411  11.677  12.096
58010W        W29539  16.178  13.468  11.872
58011W        W29540   8.180  26.568  12.107
58012W        W29541  20.842  32.122   5.163
58013W        W29542  29.366  34.000   3.184
58014W        W29543  16.234   5.425  13.998
58015W        W29544  38.383  14.404   3.702
58016W        W29545  20.018   3.848  10.908
58017W        W29546  36.575  14.341  12.584
58018W        W29547  41.090  18.733  14.013
58019W        W29548   4.142  37.626   3.798
58020W        W29549  40.456  26.195   0.390
58021W        W29550   5.293  11.938  11.207
58022W        W29551  11.257  28.970   3.185
58023W        W29552  18.623   6.647   2.396
58024W        W29553   0.347  27.750   1.848
58025W        W29554  18.550  32.025   4.111
58026W        W29555  23.545  19.286   1.861
58027W        W29556   8.402  28.013   4.016
58028W        W29557  10.316  31.313   1.859
58029W        W29558  42.642  18.064   2.350
58030W        W29559  29.931  26.575  12.441
58031W        W29560  39.832  22.337  12.870
58032W        W29561  19.727  43.456   0.810
58033W        W29562  14.677  10.365  11.091
58034W        W29563  24.909  31.334   1.842
58035W        W29564  12.870  16.656  12.501
58036W        W29565  25.580  23.070   3.739
58037W        W29566  18.272  33.885  12.484
58038W        W29567  35.442  35.022   3.892
58039W        W29568   8.779  15.647   4.277
58040W        W29569  16.579   4.912   2.373
58041W        W29570   3.504  13.407   2.421
58042W        W29571  31.077  37.949   3.665
58043W        W29572  29.419  39.044  13.900
58044W        W29573   0.699  28.425   2.686
58045W        W29574   1.194  30.848   0.667
58046W        W29575  18.298  29.976   0.999
58047W        W29576  22.581   2.508  13.625
58048W        W29577  30.101   4.773   4.076
58049W        W29578  32.165   1.883  10.648
58050W        W29579  15.695  30.518   3.303
58051W        W29580  29.031  37.998   4.819
58052W        W29581  33.447  31.060   3.422
58053W        W29582  38.970  43.141  14.445
58054W        W29583   0.979   7.394  13.008
58055W        W29584  15.048  17.521  14.338
58056W        W29585  35.560  10.169   0.738
58057W        W29586  13.021  36.248  14.876
58058W        W29587  12.825   1.464  13.971
58059W        W29588  16.571  11.833  13.899
58060W        W29589   2.188   9.868  11.221
58061W        W29590  23.501  20.722   1.481
58062W        W29591  11.715   9.341   2.713
58063W        W29592  32.069   7.478  12.443
58064W        W29593   8.710   8.129   3.737
58065W        W29594  12.975  31.290  14.941
58066W        W29595  38.823   3.284  14.887
58067W        W29596  10.210  16.170  13.083
58068W        W29597  16.045  11.142  12.141
58069W        W29598   7.671  21.549   3.311
58070W        W29599  11.413  32.090  10.250
58071W        W29600  40.491  33.427  12.036
58072W        W29601   2.656  32.323   0.061
58073W        W29602  41.080  10.752  12.179
58074W        W29603  22.436  23.185   2.364
58075W        W29604  14.132  35.799   4.381
58076W        W29605  41.785  40.541  13.310
58077W        W29606  14.142   1.774  13.130
58078W        W29607  34.253  38.121  11.158
58079W        W29608  42.772   7.098  14.267
58080W        W29609   5.491  44.008   3.174
58081W        W29610  43.325  16.978  12.923
58082W        W29611   3.503  26.180  10.700
58083W        W29612   7.167  43.001  11.994
58084W        W29613   1.197  37.497   4.900
58085W        W29614   6.323   9.631   0.744
58086W        W29615  32.660  29.096   1.026
58087W        W29616  13.625  13.182   3.667
58088W        W29617  31.498  18.304  11.973
58089W        W29618  19.506  17.924   3.013
58090W        W29619  42.743  15.326   1.482
58091W        W29620  30.201  17.668  14.391
58092W        W29621  43.496  29.449   2.804
58093W        W29622  20.248   8.483   2.426
58094W        W29623   7.877   5.964   2.667
58095W        W29624  10.950  17.363  14.858
58096W        W29625  28.247  41.631  14.422
58097W        W29626  24.729  14.196  11.729
58098W        W29627  28.689  22.156   2.295
58099W        W29628  31.995  40.771  12.987
58100W        W29629  41.919  14.270  10.957
58101W        W29630  26.893  40.357  13.325
58102W        W29631  25.260  42.413  11.162
58103W        W29632  44.980   0.383   0.708
58104W        W29633  36.252   2.065  10.261
58105W        W29634  36.206  37.462   5.024
58106W        W29635  43.995   9.384   3.663
58107W        W29636  17.920  23.402  12.965
58108W        W29637  26.271  42.829  14.401
58109W        W29638  37.945  20.332  14.044
58110W        W29639  33.001  14.215  13.802
58111W        W29640  28.166   5.072  12.395
58112W        W29641  13.635  18.705  13.032
58113W        W29642  10.265  28.449  12.069
58114W        W29643  43.447  28.490   0.047
58115W        W29644  20.796  39.932   2.678
58116W        W29645  14.309  38.520  13.997
58117W        W29646  29.583  15.879   4.504
58118W        W29647  16.759   6.679  11.626
58119W        W29648  38.113  10.189   2.126
58120W        W29649  16.303  34.452  14.430
58121W        W29650  44.066   5.864   3.591
58122W        W29651  16.763   1.203   1.516
58123W        W29652   4.480  43.717  10.615
58124W        W29653  42.561  13.358   3.792
58125W        W29654  23.222  40.438  11.637
58126W        W29655  26.029   8.737  14.487
58127W        W29656  44.957   4.738  13.128
58128W        W29657  27.412  38.778  12.601
58129W        W29658  27.407   7.412  12.503
58130W        W29659  35.215   5.958  12.584
58131W        W29660  43.990  20.614  12.218
58132W        W29661  31.083  44.820   3.369
58133W        W29662   7.141  35.917  13.810
58134W        W29663   4.166  19.153   1.690
58135W        W29664  39.944  12.970   3.665
58136W        W29665  42.402  14.300  14.308
58137W        W29666  43.312  35.925  10.447
58138W        W29667  40.924  35.670  12.034
58139W        W29668  32.056  11.093   2.391
58140W        W29669  24.752  36.551   3.733
58141W        W29670  23.680  28.242   2.206
58142W        W29671  37.306  43.164   2.884
58143W        W29672  35.423  23.085   0.810
58144W        W29673  43.484  11.059   3.274
58145W        W29674  38.288   4.287  12.041
58146W        W29675   9.617  26.448  10.934
58147W        W29676  10.217  22.797  10.388
58148W        W29677  14.285   4.464  14.486
58149W        W29678  21.556  14.118   4.127
58150W        W29679  32.442  32.510   2.418
58151W        W29680  14.262  37.852  11.677
58152W        W29681   1.942  16.151   3.145
58153W        W29682  13.893  40.318  13.393
58154W        W29683  33.031   4.758  13.593
58155W        W29684  44.707  20.515   2.364
58156W        W29685  28.596   6.847   0.279
58157W        W29686  16.449  11.459   4.056
58158W        W29687  39.445  33.222   4.509
58159W        W29688  22.085  35.445  10.721
58160W        W29689  35.939  27.197   1.870
58161W        W29690  43.035  30.005   4.103
58162W        W29691  19.885  44.332  14.993
58163W        W29692  32.977  32.970   3.756
58164W        W29693  19.869  25.249   0.959
58165W        W29694  26.196   7.244  14.995
58166W        W29695  36.017  14.903  12.853
58167W        W29696  15.780  22.183  10.023
58168W        W29697   9.093  40.295  11.477
58169W        W29698  22.936   3.936  14.887
58170W        W29699  34.883   1.761   0.324
58171W        W29700  40.585  42.828  11.206
58172W        W29701  39.410  38.538   4.795
58173W        W29702  31.890   7.981   2.708
58174W        W29703  15.659   7.719  13.773
58175W        W29704  11.382  36.130  10.401
58176W        W29705  22.139  31.329   3.694
58177W        W29706  26.025  23.475   0.918
58178W        W29707  12.108  11.518  11.388
58179W        W29708  39.531   9.827  12.568
58180W        W29709  15.608  17.360  14.734
58181W        W29710  23.773   9.153   0.312
58182W        W29711   2.862   5.776  12.046
58183W        W29712  33.567   1.918  10.752
58184W        W29713  23.115   1.262   0.512
58185W        W29714  27.464  25.437   2.567
58186W        W29715  33.480   3.466   4.167
58187W        W29716   0.318  19.929   3.531
58188W        W29717  18.907  21.701   2.038
58189W        W29718   8.658  32.130   4.814
58190W        W29719  35.376  27.002   0.885
58191W        W29720  15.103  11.386  14.283
58192W        W29721  24.969  16.963   1.503
58193W        W29722  19.190  33.645  11.444
58194W        W29723  40.257  31.581  14.510
58195W        W29724  15.987  11.212   1.329
58196W        W29725  44.365  40.396   9.996
58197W        W29726  31.484   3.511   3.057
58198W        W29727  10.571  35.338  12.053
58199W        W29728  35.026  43.069  12.821
58200W        W29729  42.438   7.848   1.232
58201W        W29730  44.874  30.526  10.901
58202W        W29731   6.781  17.929   0.001
58203W        W29732  39.214  35.038   4.711
58204W        W29733  44.373  29.815  13.437
58205W        W29734  37.374  21.152   0.807
58206W        W29735  27.943   2.390   1.062
58207W        W29736  14.598  39.076   3.438
58208W        W29737  28.547  26.440  13.140
58209W        W29738   1.595  36.486   5.103
58210W        W29739  13.852  10.207   0.326
58211W        W29740  42.891   3.894  11.569
58212W        W29741  14.027  43.623   4.927
58213W        W29742  16.272  31.263  12.064
58214W        W29743   3.529  33.446  14.750
58215W        W29744  12.812  35.365   4.558
58216W        W29745  11.365  25.002   0.941
58217W        W29746  29.610  36.565   3.848
58218W        W29747  14.901  17.821   1.375
58219W        W29748  11.923  43.327   2.429
58220W        W29749  34.461  29.551  14.100
58221W        W29750  18.868  21.237  10.337
58222W        W29751  38.338   2.851   0.021
58223W        W29752  14.081  30.031   0.901
58224W        W29753  14.267  12.394   4.865
58225W        W29754   2.597  25.549  14.624
58226W        W29755   5.405  38.318   3.148
58227W        W29756  41.385  10.409  14.068
58228W        W29757  37.928  35.547   4.177
58229W        W29758  39.175  41.688  10.256
58230W        W29759   6.391  19.804  10.278
58231W        W29760  25.222  37.944   3.337
58232W        W29761  12.144  20.502  12.370
58233W        W29762  41.772   1.319   4.658
58234W        W29763  42.314  11.596   1.403
58235W        W29764  29.001   9.445   2.222
58236W        W29765  39.208   8.500  13.827
58237W        W29766  18.997  22.217   5.010
58238W        W29767  21.776  16.642   2.768
58239W        W29768   2.282   3.492   3.499
58240W        W29769  36.998  10.725  10.540
58241W        W29770  38.012  24.537   0.357
58242W        W29771  20.089  36.138   0.040
58243W        W29772  22.171  39.934  14.833
58244W        W29773  25.998   9.723   2.404
58245W        W29774  27.688  19.110   0.548
58246W        W29775  11.091  29.991   4.566
58247W        W29776  34.169  12.359   1.883
58248W        W29777  12.114   5.489   0.893
58249W        W29778   8.649  35.358   3.477
58250W        W29779  11.844  42.619   0.409
58251W        W29780  33.537  26.431  10.617
58252W        W29781   3.966  42.959  14.487
58253W        W29782  10.858  26.593  11.132
58254W        W29783  16.862  14.403   4.184
58255W        W29784   7.788  10.694   1.947
58256W        W29785  29.637  20.788   1.636
58257W        W29786   0.273   1.699   3.714
58258W        W29787   2.764  14.897  14.528
58259W        W29788   8.884  27.354   4.103
58260W        W29789  16.532  37.564   1.713
58261W        W29790  23.186  17.040   4.113
58262W        W29791   8.219   5.950   4.357
58263W        W29792  25.274  38.433   2.819
58264W        W29793  41.592  10.624  12.078
58265W        W29794  23.787  27.619  11.094
58266W        W29795  14.218   4.711  10.897
58267W        W29796  37.287   3.755   4.708
58268W        W29797  31.687  32.387  10.373
58269W        W29798  36.604  42.972  10.523
58270W        W29799  43.209   5.764  11.719
58271W        W29800   4.638   6.453   3.260
58272W        W29801  12.154  21.455   3.240
58273W        W29802  43.316  29.842   3.680
58274W        W29803  12.104  28.465  10.673
58275W        W29804  36.523  22.172  10.663
58276W        W29805  15.149   3.694   4.231
58277W        W29806  34.103   4.609  10.737
58278W        W29807  23.257   4.415   0.841
58279W        W29808  17.255   4.460   3.241
58280W        W29809  11.784  39.076  12.891
58281W        W29810  14.548  40.515  13.918
58282W        W29811  41.558  39.968   0.024
58283W        W29812  14.308  25.163   2.854
58284W        W29813   2.995  27.516  14.858
58285W        W29814  30.001  41.890   0.468
58286W        W29815  22.004  22.909  11.422
58287W        W29816  29.703  11.267  11.285
58288W        W29817  39.109  39.810   2.445
58289W        W29818  41.151  40.941  10.453
58290W        W29819   0.313  20.232   3.078
58291W        W29820  26.629  30.026   2.811
58292W        W29821   7.359  33.160  12.969
58293W        W29822  29.134  19.063   4.693
58294W        W29823  19.473  29.845  11.319
58295W        W29824   6.614  23.743   4.643
58296W        W29825  36.626   2.354   0.107
58297W        W29826  28.101   1.855  11.919
58298W        W29827  21.660  29.778  13.958
58299W        W29828  39.953  18.077   4.252
58300W        W29829  26.488   4.704  13.329
58301W        W29830  18.596  19.183  13.827
58302W        W29831  19.587  18.602  11.352
58303W        W29832   6.305  30.538   5.054
58304W        W29833  21.733   9.818   4.667
58305W        W29834  17.736  23.206   4.393
58306W        W29835  31.937  34.570  13.037
58307W        W29836  20.453  16.107  12.833
58308W        W29837  22.019  21.253   2.966
58309W        W29838  22.624  30.830   2.276
58310W        W29839  21.745  40.868   4.148
58311W        W29840  29.536  10.833  11.120
58312W        W29841  11.804   2.767  11.088
58313W        W29842   9.364  36.341  12.929
58314W        W29843  38.337  24.498   0.810
58315W        W29844  24.009  28.077  10.855
58316W        W29845  23.918  35.622  12.059
58317W        W29846  10.918  44.923   2.139
58318W        W29847  40.412  14.789  12.502
58319W        W29848  33.888   7.733   1.356
58320W        W29849  37.450  28.958   2.203
58321W        W29850   0.933   4.463  14.286
58322W        W29851  39.910  35.995  11.199
58323W        W29852   9.188  29.859   1.798
58324W        W29853  18.599  18.273   0.985
58325W        W29854  40.452   8.223   4.152
58326W        W29855   0.002   3.446  12.047
58327W        W29856  41.520  28.946  14.898
58328W        W29857  11.519   8.241  11.716
58329W        W29858  42.960  16.659   2.451
58330W        W29859  10.468  12.285   0.913
58331W        W29860  33.830   2.856  14.913
58332W        W29861  41.557  20.067   2.090
58333W        W29862  41.992  44.706   3.754
58334W        W29863  29.887  11.813   0.583
58335W        W29864   3.350  27.973  10.617
58336W        W29865  12.153  35.600   1.576
58337W        W29866   6.118  31.474  12.141
58338W        W29867  42.355  27.209  12.837
58339W        W29868   0.797  22.221   2.297
58340W        W29869  30.803  19.795   4.090
58341W        W29870   3.205  43.389  14.476
58342W        W29871  41.995  40.993  11.624
58343W        W29872  35.964  28.034   4.517
58344W        W29873  17.687  39.386   2.059
58345W        W29874  25.007  25.229  14.706
58346W        W29875  33.828   1.174  12.113
58347W        W29876  37.024  41.944   4.680
58348W        W29877  20.112  37.600  10.176
58349W        W29878  34.431  34.904   0.177
58350W        W29879  42.831  31.652  14.550
58351W        W29880  24.578  22.282  14.399
58352W        W29881  15.278  34.586   1.494
58353W        W29882  18.276   0.428  11.599
58354W        W29883   7.763  41.547   3.273
58355W        W29884  14.625  10.418  14.752
58356W        W29885  27.469  34.016   0.776
58357W        W29886  12.173   7.819   1.918
58358W        W29887  31.798  38.432   2.305
58359W        W29888   9.177  36.417  14.455
58360W        W29889  24.605  32.961   1.370
58361W        W29890  43.440  11.344   3.717
58362W        W29891  30.058  43.556   3.739
58363W        W29892  17.632   8.566   1.424
58364W        W29893  18.572  19.012   3.311
58365W        W29894  28.123  32.152   5.050
58366W        W29895   3.289  29.416   4.084
58367W        W29896  10.713  26.962  12.996
58368W        W29897   5.835  15.429   2.990
58369W        W29898  20.709  15.636  12.940
58370W        W29899  43.824  40.285   0.330
58371W        W29900  42.271  24.536  14.568
58372W        W29901  27.127  17.090   1.230
58373W        W29902  40.428  33.008  13.967
58374W        W29903  15.329  31.391  12.054
58375W        W29904  29.469   1.573   2.174
58376W        W29905  15.840   4.289  12.026
58377W        W29906  18.018  20.893  11.992
58378W        W29907  38.530  33.652   0.883
58379W        W29908  10.264   7.722   1.539
58380W        W29909  30.998  35.243   4.497
58381W        W29910  23.165  43.726   4.153
58382W        W29911  37.011  15.081  12.054
58383W        W29912  11.921  31.052  13.941
58384W        W29913  28.295  36.545   1.523
58385W        W29914  21.015  13.598  11.388
58386W        W29915   8.995  32.405  14.444
58387W        W29916  40.883   8.932   1.834
58388W        W29917  29.714  10.879  12.315
58389W        W29918   5.624  32.558  12.473
58390W        W29919  26.804   0.255   2.838
58391W        W29920  26.279   0.746   4.180
58392W        W29921  26.522  19.958  10.505
58393W        W29922  31.190  20.717   1.760
58394W        W29923  33.907   2.284   0.839
58395W        W29924   0.784  32.567   4.105
58396W        W29925  27.495  39.839   2.556
58397W        W29926  44.927  21.024   3.264
58398W        W29927  31.652   4.913  13.014
58399W        W29928  32.932  12.122   2.167
58400W        W29929  29.443  10.284  10.312
58401W        W29930  33.611  39.859  11.061
58402W        W29931  40.687   1.921  12.567
58403W        W29932  15.383   7.867   3.851
58404W        W29933  14.176   3.181   2.409
58405W        W29934   2.467  22.219  11.820
58406W        W29935  15.584  20.648   0.414
58407W        W29936  21.957  41.338   2.416
58408W        W29937  35.580  43.512  11.847
58409W        W29938  18.627  26.127   0.590
58410W        W29939  44.476  19.701  11.226
58411W        W29940   7.281  17.944  14.871
58412W        W29941  26.151  35.122  11.801
58413W        W29942   7.362  14.728   4.692
58414W        W29943  37.830  36.352  12.650
58415W        W29944  35.889  43.870   1.664
58416W        W29945  30.449   6.356   3.736
58417W        W29946  19.856   8.783  14.249
58418W        W29947   6.963   5.393  13.477
58419W        W29948  37.019  29.979   4.587
58420W        W29949  17.117  31.505  11.254
58421W        W29950  44.782  16.205   1.364
58422W        W29951  38.034  36.221  11.202
58423W        W29952  31.678  39.532  10.741
58424W        W29953  29.518  17.710  11.347
58425W        W29954   4.060  21.563   2.701
58426W        W29955  43.256  25.653  14.357
58427W        W29956   8.789  27.538   0.411
58428W        W29957  35.624  13.256   4.626
58429W        W29958  17.802   5.965   0.428
58430W        W29959  36.378  30.713  12.971
58431W        W29960  35.864  20.218   0.803
58432W        W29961  28.926  34.656  14.050
58433W        W29962   4.683   5.783  11.533
58434W        W29963  17.021  44.978   1.279
58435W        W29964   5.759  36.612   4.603
58436W        W29965  40.480   3.140  13.838
58437W        W29966  11.285  41.992   1.382
58438W        W29967  32.710  30.520   3.087
58439W        W29968  41.179  24.470   1.763
58440W        W29969  10.553  44.757   1.229
58441W        W29970   6.016  17.585  10.248
58442W        W29971  20.679  29.513   1.935
58443W        W29972  37.725  27.030  11.118
58444W        W29973   5.141  21.109  11.651
58445W        W29974  18.918  12.696   4.159
58446W        W29975  40.214   2.364   1.449
58447W        W29976   3.121   3.844  12.994
58448W        W29977  11.062  13.342   2.314
58449W        W29978  31.829  31.602   4.892
58450W        W29979  38.940  18.832   1.483
58451W        W29980  31.651   0.707  14.399
58452W        W29981  11.752   9.636  14.938
58453W        W29982  14.606  33.595   1.891
58454W        W29983  12.314  22.995   4.974
58455W        W29984   7.854  42.121   3.688
58456W        W29985  12.991  40.927   0.907
58457W        W29986  27.279   1.346  13.018
58458W        W29987  39.350   8.581  12.875
58459W        W29988  37.521  31.495   1.945
58460W        W29989  15.600  20.628  11.594
58461W        W29990  31.384  21.477  11.137
58462W        W29991  19.773   8.198   3.577
58463W        W29992   6.679   7.337  11.184
58464W        W29993  35.280   4.954  13.427
58465W        W29994   1.475  25.766  11.036
58466W        W29995  34.603  31.932  11.648
58467W        W29996  28.571  29.485   0.377
58468W        W29997  36.472   8.904   0.818
58469W        W29998  19.339  27.758  14.959
58470W        W29999   4.010  10.673  13.988
58471W        W30000  10.226  43.962   2.711
58472W        W30001  32.549   2.440   0.334
58473W        W30002  20.253  38.307  11.999
58474W        W30003  33.560  13.865  11.462
58475W        W30004   7.208  12.513  14.326
58476W        W30005  40.233  23.966  12.015
58477W        W30006   4.143  17.170  11.664
58478W        W30007  12.370  24.862  11.092
58479W        W30008  11.028  42.163  10.780
58480W        W30009   4.875  19.218  14.588
58481W        W30010   9.872   6.023  12.506
58482W        W30011   6.986  37.490   0.809
58483W        W30012   6.814  43.518  14.001
58484W        W30013  13.245   1.281   1.862
58485W        W30014  38.534   9.074   5.078
58486W        W30015  36.598  42.090   2.838
58487W        W30016  26.492  22.381  11.096
58488W        W30017  24.304  15.585   3.627
58489W        W30018  22.153   4.758  10.659
58490W        W30019  33.240  43.333  10.745
58491W        W30020  20.223  25.462  13.853
58492W        W30021  11.717  39.953  14.761
58493W        W30022   0.260   8.859  14.129
58494W        W30023  29.506   6.843   0.517
58495W        W30024  35.352  29.956  11.074
58496W        W30025  20.142  41.618  12.364
58497W        W30026  12.675  35.898   4.736
58498W        W30027  35.631  42.303  13.822
58499W        W30028  35.014   4.466   2.829
58500W        W30029   9.246  22.413  14.019
58501W        W30030  15.881  12.187  10.208
58502W        W30031  20.100  44.014  10.785
58503W        W30032  44.973  21.227   1.310
58504W        W30033  33.293   8.880  11.539
58505W        W30034  18.082  30.838  12.101
58506W        W30035  22.150  25.355   2.800
58507W        W30036  33.549  12.179  10.078
58508W        W30037  39.693  42.440   2.480
58509W        W30038   3.541  30.501  11.057
58510W        W30039   4.030   2.983   1.304
58511W        W30040  39.054  22.987   2.283
58512W        W30041  10.406  39.468   4.278
58513W        W30042   0.401  16.906   2.864
58514W        W30043  16.768  36.190   3.808
58515W        W30044  19.755  17.248   0.817
58516W        W30045  35.328   6.022   4.163
58517W        W30046  34.325   2.622   3.366
58518W        W30047   4.893   0.473  11.532
58519W        W30048  33.397  23.412   2.148
58520W        W30049  18.049   7.164   1.936
58521W        W30050   7.610   8.147   4.442
58522W        W30051  29.759  37.514   3.149
58523W        W30052  25.205  26.624   3.132
58524W        W30053  17.162  12.084  10.566
58525W        W30054  34.059   3.478  14.379
58526W        W30055  39.911  40.619   3.206
58527W        W30056  33.626  15.755   0.236
58528W        W30057  30.075   7.679   0.496
58529W        W30058  19.519  36.604   0.857
58530W        W30059  39.549  22.553  13.266
58531W        W30060  14.093   0.181   0.257
58532W        W30061  34.953  11.674   4.430
58533W        W30062   0.894   9.716  11.227
58534W        W30063  44.469  17.681   2.406
58535W        W30064  37.097   8.131   3.290
58536W        W30065  28.860  22.621   2.382
58537W        W30066  14.806  14.750  14.847
58538W        W30067  22.789  41.374   3.693
58539W        W30068  38.351   1.359  10.596
58540W        W30069  34.935  40.948  13.784
58541W        W30070   2.288  25.368   3.240
58542W        W30071  37.323  34.269   1.899
58543W        W30072  28.011  12.827  10.728
58544W        W30073  12.717  35.030   3.150
58545W        W30074  40.112  30.510   2.959
58546W        W30075  19.135  16.075  14.867
58547W        W30076   8.697  44.381  13.074
58548W        W30077  31.810  12.269   0.343
58549W        W30078  33.518  14.144   0.840
58550W        W30079  18.498   4.607   2.114
58551W        W30080  43.781  24.289  14.385
58552W        W30081   2.838  29.175  10.629
58553W        W30082  35.576  27.709   2.827
58554W        W30083  14.554  28.004   1.754
58555W        W30084  29.529  31.409   0.338
58556W        W30085  14.283  36.797   1.829
58557W        W30086  32.524  18.328   1.009
58558W        W30087  27.174  29.447  14.542
58559W        W30088  33.173  31.134  12.594
58560W        W30089   6.273  12.357   1.207
58561W        W30090  15.157  18.710  13.337
58562W        W30091  25.858  39.539  12.112
58563W        W30092  28.653   3.273  14.953
58564W        W30093  16.620   9.248   1.958
58565W        W30094  27.867  37.663  11.901
58566W        W30095  36.611   9.466  13.655
58567W        W30096  34.732   1.220  11.071
58568W        W30097   4.563   8.714   0.637
58569W        W30098   1.420  15.128   4.566
58570W        W30099  21.284  37.125  13.531
58571W        W30100   1.388   1.926   0.011
58572W        W30101  37.966  25.966  11.929
58573W        W30102  16.637  22.025  13.910
58574W        W30103  13.981  34.143  14.036
58575W        W30104   9.291  44.458   0.751
58576W        W30105   9.636   7.099  10.467
58577W        W30106  43.296  37.917   0.999
58578W        W30107   0.775  26.261   0.670
58579W        W30108  35.908  20.023  12.314
58580W        W30109  32.571   6.038  12.986
58581W        W30110  11.094  39.337   2.127
58582W        W30111  17.420  42.206   2.109
58583W        W30112  18.061   5.705   3.195
58584W        W30113   3.834  32.546   4.731
58585W        W30114   6.246  35.315   2.711
58586W        W30115  21.448  36.334  12.457
58587W        W30116  29.543   3.338  12.031
58588W        W30117  33.941  39.431   1.435
58589W        W30118  34.903  44.288   4.599
58590W        W30119  33.014  38.615   3.161
58591W        W30120  32.180  22.298   2.234
58592W        W30121  35.257  22.739  13.439
58593W        W30122  27.431  21.106  12.629
58594W        W30123  19.144  16.397  14.432
58595W        W30124  27.712  10.880   2.824
58596W        W30125   2.543  31.695   3.707
58597W        W30126  34.296  30.598  11.495
58598W        W30127  37.871  17.511   4.187
58599W        W30128  21.030  23.209   1.840
58600W        W30129  37.882  39.946  14.482
58601W        W30130  31.087  37.028   3.595
58602W        W30131  32.704  16.705  13.985
58603W        W30132  42.397  37.650  14.977
58604W        W30133  38.415   9.621   3.730
58605W        W30134   5.906  21.140  13.609
58606W        W30135  16.824  23.289   2.665
58607W        W30136  33.807   8.178  14.502
58608W        W30137  29.581  24.532  14.982
58609W        W30138  33.512  24.148  10.600
58610W        W30139  11.345   0.225  12.884
58611W        W30140  36.724  22.091   1.881
58612W        W30141  17.208  19.632  12.427
58613W        W30142  41.312  22.155  13.512
58614W        W30143  18.960  15.619  11.607
58615W        W30144  17.614  14.572   2.005
58616W        W30145  35.348  44.924  12.475
58617W        W30146  12.718  25.059   1.189
58618W        W30147  32.894  17.110  13.265
58619W        W30148  41.189  27.046  14.049
58620W        W30149   9.573  38.991   4.236
58621W        W30150  44.474  42.326  10.254
58622W        W30151  28.331  39.888   4.579
58623W        W30152  10.715  27.830  13.226
58624W        W30153  28.824  18.157   3.226
58625W        W30154  10.418  42.518   2.693
58626W        W30155  24.478  29.870   4.135
58627W        W30156  15.894  23.646  14.742
58628W        W30157  30.100  16.869  10.091
58629W        W30158   5.775   6.429   0.322
58630W        W30159  13.398  36.429  13.332
58631W        W30160  21.582  43.072   4.800
58632W        W30161  12.749  25.451  13.544
58633W        W30162  21.904  28.400  13.077
58634W        W30163  38.262  14.202  14.414
58635W        W30164  20.781  13.590  14.886
58636W        W30165   4.294   7.634  11.180
58637W        W30166   6.907   6.691  11.959
58638W        W30167  39.618  34.521   4.076
58639W        W30168  36.024   2.275  10.682
58640W        W30169   7.943  17.012  10.328
58641W        W30170  38.857  40.330  13.157
58642W        W30171   3.788   7.989  14.066
58643W        W30172  11.958   4.395  13.567
58644W        W30173  43.496  28.329   2.143
58645W        W30174  38.856   2.382   3.249
58646W        W30175   0.822  21.553  13.004
58647W        W30176   2.525  16.686   2.807
58648W        W30177  37.727  23.902  14.538
58649W        W30178  22.374  31.931   2.322
58650W        W30179  43.969  27.345   2.588
58651W        W30180   5.836  36.572   1.958
58652W        W30181   6.316  41.680  14.766
58653W        W30182  12.606  27.928  11.995
58654W        W30183  44.452  17.289   0.766
58655W        W30184  27.579  15.113  12.163
58656W        W30185   1.911  39.873  11.317
58657W        W30186  24.690  29.799   1.201
58658W        W30187   6.590  15.015   0.354
58659W        W30188  22.201   7.419   4.763
58660W        W30189  10.830  44.025  14.877
58661W        W30190  21.751  15.737   3.566
58662W        W30191  39.371   9.723   4.213
58663W        W30192  42.766  37.926   0.851
58664W        W30193  25.120  19.669  10.739
58665W        W30194  13.421  33.087  13.469
58666W        W30195  31.176  12.703   3.226
58667W        W30196  32.004   1.228   5.224
58668W        W30197  29.490  24.098   4.648
58669W        W30198  31.774  26.972   3.634
58670W        W30199  24.921  25.337  12.454
58671W        W30200  22.800  23.739   4.994
58672W        W30201  35.728   3.238   4.967
58673W        W30202  37.591  27.560   3.149
58674W        W30203  22.738   3.858  10.556
58675W        W30204   3.015  43.292  10.735
58676W        W30205  24.961  42.935   3.325
58677W        W30206  19.062  33.951   2.254
58678W        W30207  31.859  12.126  11.106
58679W        W30208  43.433  10.944  11.616
58680W        W30209  17.087  25.158   3.688
58681W        W30210  23.262  33.982   0.866
58682W        W30211  26.498  28.114  14.891
58683W        W30212  41.430  44.425  13.876
58684W        W30213  23.240  24.016  11.395
58685W        W30214  20.223  40.305   1.291
58686W        W30215  18.358   3.936   3.899
58687W        W30216  27.203  34.172   3.237
58688W        W30217  27.990  22.933   0.875
58689W        W30218  25.559  11.572   2.418
58690W        W30219   0.407  11.746   4.223
58691W        W30220  37.616  15.071   2.875
58692W        W30221  40.263  25.887  10.777
58693W        W30222  29.203  13.237   3.590
58694W        W30223  11.162  25.280  12.028
58695W        W30224  15.740  31.454  12.339
58696W        W30225  12.816  44.859  11.927
58697W        W30226  27.983   7.194   0.667
58698W        W30227  11.595  21.166   3.859
58699W        W30228   7.251  27.531   1.842
58700W        W30229   8.809  30.170   4.341
58701W        W30230  23.677  43.351   3.252
58702W        W30231   7.408  11.706   4.614
58703W        W30232   8.703  36.436  12.388
58704W        W30233   9.718  33.564  14.849
58705W        W30234  27.975  25.187   4.392
58706W        W30235  14.793  34.617  11.975
58707W        W30236  29.239  26.759   3.341
58708W        W30237   8.155  17.804  10.729
58709W        W30238  20.319   7.876  10.755
58710W        W30239   6.307   0.582   1.462
58711W        W30240   9.817  40.766   0.691
58712W        W30241  35.060   4.376   0.497
58713W        W30242  35.027   6.372  11.177
58714W        W30243   6.666  37.493  10.674
58715W        W30244  44.322  31.000   4.749
58716W        W30245  44.037  17.238  14.421
58717W        W30246   1.028  29.462   4.141
58718W        W30247  28.046  32.978  11.116
58719W        W30248  20.648  12.542  13.147
58720W        W30249  43.838  42.666  14.019
58721W        W30250  19.744  14.796  11.615
58722W        W30251  21.758  24.787  14.876
58723W        W30252  33.034  14.863   4.285
58724W        W30253  10.023  39.385   4.647
58725W        W30254   9.336  15.309  10.725
58726W        W30255  10.800  43.981   0.847
58727W        W30256  16.586  39.388   2.228
58728W        W30257  33.731  17.193   5.224
58729W        W30258  13.176  12.062  10.862
58730W        W30259  13.880  39.642   4.490
58731W        W30260  33.262   9.835   2.716
58732W        W30261  10.002  24.728  11.168
58733W        W30262   0.058  30.522  11.359
58734W        W30263   8.930  19.786  13.983
58735W        W30264  23.007  28.483   2.890
58736W        W30265  11.319  24.552  11.629
58737W        W30266   0.255  36.232  12.848
58738W        W30267  10.263  34.883   2.376
58739W        W30268  28.587  41.494  10.665
58740W        W30269  16.338  12.974  13.918
58741W        W30270  28.011  42.797  10.069
58742W        W30271  19.190  20.685  13.126
58743W        W30272  10.576   9.493  12.960
58744W        W30273  29.924  42.561  11.786
58745W        W30274  18.854   7.313  14.790
58746W        W30275  22.763  35.032   3.192
58747W        W30276  40.547  21.518   1.657
58748W        W30277  29.940  23.787   9.779
58749W        W30278  13.321  36.858  12.036
58750W        W30279  19.517  11.227  14.048
58751W        W30280  26.191  16.660   3.173
58752W        W30281  13.355  21.118  11.695
58753W        W30282  27.366  35.679  10.759
58754W        W30283  17.072  41.172  10.360
58755W        W30284  34.403  41.401   4.697
58756W        W30285  41.746   3.928  12.932
58757W        W30286   9.340  44.698  10.943
58758W        W30287  29.687   4.432  10.542
58759W        W30288  29.995   9.401   2.105
58760W        W30289  14.288  37.568   4.550
58761W        W30290   7.310  23.096  11.031
58762W        W30291  39.386  35.586   4.127
58763W        W30292   6.254  39.794   2.717
58764W        W30293  34.396   3.384   1.607
58765W        W30294  10.321  16.577  12.788
58766W        W30295  20.178  27.048  10.864
58767W        W30296  18.985  25.843  10.661
58768W        W30297  27.649   6.847   3.633
58769W        W30298  25.559  16.315   0.567
58770W        W30299  20.699  24.049   2.157
58771W        W30300  37.373  16.767  14.922
58772W        W30301   3.181  25.552   2.328
58773W        W30302  10.692  18.604   4.107
58774W        W30303   8.549   8.877   3.251
58775W        W30304  13.415  27.902   2.573
58776W        W30305   9.836  31.720  13.295
58777W        W30306  44.511  19.065   4.120
58778W        W30307  28.947  14.280  14.304
58779W        W30308  16.034  11.734  10.002
58780W        W30309  24.846   1.932   3.288
58781W        W30310  30.623  10.917   4.576
58782W        W30311  29.188  43.638   1.942
58783W        W30312  26.691   2.889   3.609
58784W        W30313  22.573  37.088  13.078
58785W        W30314  34.317   5.841   0.558
58786W        W30315  26.698  15.286   5.021
58787W        W30316   7.780   8.253   1.888
58788W        W30317  12.454  17.557  12.418
58789W        W30318  18.780  37.900   2.744
58790W        W30319  25.650  35.616  13.482
58791W        W30320  20.552  34.628   3.692
58792W        W30321  29.974  32.496  11.580
58793W        W30322  10.384   2.213  10.623
58794W        W30323   8.109  28.114   3.553
58795W        W30324   1.510  16.440  12.086
58796W        W30325  19.566   0.279  13.373
58797W        W30326  39.908   8.294   4.399
58798W        W30327  22.887  26.584   2.733
58799W        W30328  38.571  10.633  13.982
58800W        W30329  16.076   1.316  14.234
58801W        W30330  38.506  28.127   3.661
58802W        W30331  36.946  25.695   2.614
58803W        W30332  27.707  35.546  12.216
58804W        W30333  39.804  38.567  10.517
58805W        W30334  26.082  34.952  10.994
58806W        W30335  25.731  24.063   2.238
58807W        W30336  20.244  20.854  11.906
58808W        W30337  12.189   9.850   4.152
58809W        W30338   7.595  23.890   0.518
58810W        W30339  36.363  44.288   4.738
58811W        W30340  35.897  40.527  11.002
58812W        W30341  14.681  44.415   2.826
58813W        W30342  15.622  12.731  13.415
58814W        W30343   7.979  21.727   4.544
58815W        W30344  25.352  33.727   0.042
58816W        W30345  15.867  27.704  14.076
58817W        W30346  42.654  30.066  12.430
58818W        W30347  10.346  13.580  13.121
58819W        W30348   7.905  39.341  14.807
58820W        W30349   0.041   8.630   1.123
58821W        W30350  14.341  12.121   0.956
58822W        W30351  34.171  38.971  13.991
58823W        W30352  43.582  10.114  13.359
58824W        W30353  25.829  14.767   3.711
58825W        W30354  24.688  15.198  10.948
58826W        W30355  18.669   3.779   1.959
58827W        W30356  31.164  38.249  12.869
58828W        W30357  22.195   3.548   1.183
58829W        W30358  10.563  18.015   4.171
58830W        W30359  41.110  37.887   1.629
58831W        W30360   1.817  34.614  13.489
58832W        W30361   4.470  37.223   2.294
58833W        W30362  41.205  25.689   1.807
58834W        W30363  31.330  16.578   2.576
58835W        W30364  26.261   7.629   3.952
58836W        W30365  34.057  24.645   1.925
58837W        W30366  32.895  30.469   4.310
58838W        W30367  16.498  44.412   0.834
58839W        W30368  10.341  17.029  11.873
58840W        W30369  31.430   9.548   1.664
58841W        W30370  19.376   8.285   1.390
58842W        W30371  36.544   8.959  13.568
58843W        W30372  25.004   2.740   1.344
58844W        W30373  10.822  42.690  12.081
58845W        W30374  13.713   3.143  14.396
58846W        W30375  20.511   3.862  14.412
58847W        W30376   3.693   3.955  11.208
58848W        W30377  12.332  38.523  12.178
58849W        W30378  37.923  38.341   1.948
58850W        W30379  12.392   5.767   2.275
58851W        W30380  33.209  15.126  11.783
58852W        W30381  34.366   0.247  11.428
58853W        W30382  33.142  19.584  11.088
58854W        W30383   7.325  44.199   3.154
58855W        W30384  26.232  10.905   0.239
58856W        W30385  37.107  38.800   3.132
58857W        W30386  35.635  18.622  14.772
58858W        W30387  33.449  20.595  10.602
58859W        W30388   6.402  13.088  10.444
58860W        W30389  14.615  10.288   4.030
58861W        W30390  44.012   2.645   3.278
58862W        W30391   6.725  35.671  13.029
58863W        W30392  31.030  18.163  11.093
58864W        W30393   6.478  42.998  10.211
58865W        W30394  20.884   5.112   1.868
58866W        W30395  12.291  33.356   2.874
58867W        W30396  35.557   3.755  13.374
58868W        W30397  43.688  27.256   0.343
58869W        W30398  14.327  24.180  11.304
58870W        W30399  13.956  33.965   4.138
58871W        W30400   8.820  25.646   0.703
58872W        W30401   0.992  15.214   2.857
58873W        W30402   8.957  10.824  12.503
58874W        W30403  32.219  32.565   1.946
58875W        W30404  22.411  40.543  11.186
58876W        W30405   1.741  34.920  11.394
58877W        W30406  33.705  24.404   2.294
58878W        W30407  12.186  22.563  10.460
58879W        W30408  27.410   6.722  14.168
58880W        W30409  41.974  19.612   4.215
58881W        W30410  15.921  25.174   1.031
58882W        W30411   2.976  44.954  11.638
58883W        W30412  43.346  28.134  13.007
58884W        W30413  27.999  40.698   0.349
58885W        W30414  39.823  18.048   4.764
58886W        W30415   6.752   7.103  10.696
58887W        W30416  37.927  27.899   0.470
58888W        W30417  44.429  30.820  12.443
58889W        W30418   8.591   0.275  12.911
58890W        W30419  43.692  41.571  12.068
58891W        W30420  23.666  36.876   0.819
58892W        W30421  28.937   1.868   1.954
58893W        W30422  23.200  27.248  11.796
58894W        W30423  44.169  29.485   0.546
58895W        W30424  41.519  36.264   2.805
58896W        W30425   1.393   6.502   3.609
58897W        W30426  32.837   8.739  11.769
58898W        W30427  37.567  37.499  14.365
58899W        W30428  40.851  42.316  12.491
58900W        W30429  30.920   5.265   4.415
58901W        W30430  22.056  15.158   3.577
58902W        W30431  16.188  22.061   1.376
58903W        W30432  11.947  27.591   3.881
58904W        W30433  30.554  17.362  13.320
58905W        W30434  29.064  21.339   2.151
58906W        W30435   8.769  37.355  10.870
58907W        W30436  41.186   5.725  12.965
58908W        W30437  26.482  30.694   1.796
58909W        W30438  35.937  42.989   4.707
58910W        W30439  28.973  23.600   4.097
58911W        W30440   5.805  37.751  12.521
58912W        W30441  12.319  38.024  10.622
58913W        W30442   6.316  26.771  12.112
58914W        W30443  42.277  28.325   3.869
58915W        W30444  40.154  25.596   2.837
58916W        W30445   4.801   3.458   4.302
58917W        W30446   9.659   9.069   1.392
58918W        W30447  13.762   2.110   3.629
58919W        W30448   4.791  14.775  11.108
58920W        W30449  34.592  39.757   0.752
58921W        W30450   5.882  28.167  11.913
58922W        W30451  12.905   0.309   4.662
58923W        W30452  20.018  23.280   2.109
58924W        W30453  30.533  13.901  13.995
58925W        W30454  39.945  41.715   1.903
58926W        W30455  11.972  39.808  10.741
58927W        W30456  19.283   6.914  10.736
58928W        W30457   1.953  39.612   2.656
58929W        W30458  22.683  12.644   3.611
58930W        W30459  33.857  31.539  12.971
58931W        W30460  22.177  18.723  14.469
58932W        W30461  30.207  31.666  14.057
58933W        W30462  17.981  24.287  14.370
58934W        W30463   0.442  43.958   4.586
58935W        W30464  20.570   2.190   2.996
58936W        W30465   2.463  20.725   2.276
58937W        W30466  24.227   4.002   3.018
58938W        W30467  42.926  25.790  12.272
58939W        W30468  13.698  17.092  11.563
58940W        W30469  42.781  25.078   2.965
58941W        W30470   5.663  39.760   1.851
58942W        W30471   0.185  24.293  12.498
58943W        W30472  44.963  10.288  13.075
58944W        W30473  17.590   5.732  14.090
58945W        W30474  12.806  34.669   1.208
58946W        W30475  14.821   6.884  10.706
58947W        W30476   7.306   5.339  13.860
58948W        W30477   4.071  15.932   3.169
58949W        W30478   1.661  31.885  10.622
58950W        W30479  19.116  32.556   3.962
58951W        W30480  20.054  39.567   4.090
58952W        W30481  22.022  38.863   3.087
58953W        W30482   7.908  21.041  14.841
58954W        W30483  23.786  39.579   0.687
58955W        W30484  29.158  19.764  10.706
58956W        W30485  29.724  10.170  14.423
58957W        W30486  41.556  24.449  11.633
58958W        W30487  22.742   6.333   1.289
58959W        W30488  34.071  39.838   1.746
58960W        W30489  11.658  31.066   3.665
58961W        W30490  14.163  13.894  13.622
58962W        W30491  34.137   8.284   3.212
58963W        W30492  36.064  11.674  12.892
58964W        W30493   5.399  36.631  13.784
58965W        W30494  12.162  14.210  14.780
58966W        W30495  11.771  23.783  13.964
58967W        W30496   0.729   5.843   1.879
58968W        W30497  40.747  24.171   3.206
58969W        W30498  23.531   2.656  12.024
58970W        W30499  26.551  28.550   4.545
58971W        W30500  28.628  23.961   4.254
58972W        W30501  39.748  33.461   4.872
58973W        W30502  29.157   8.404  12.893
58974W        W30503  30.648   7.470   3.327
58975W        W30504  18.880   4.726  11.641
58976W        W30505  29.966  39.365  11.246
58977W        W30506   0.268  38.035  14.236
58978W        W30507  39.344  41.086  11.970
58979W        W30508  24.930  43.736   4.243
58980W        W30509  16.334   0.895  14.414
58981W        W30510   6.319  38.866  10.441
58982W        W30511  21.110  24.000  13.034
58983W        W30512  27.934  13.526  12.221
58984W        W30513  16.528  26.193  10.704
58985W        W30514  17.367  31.071   3.681
58986W        W30515  10.823  26.227   3.192
58987W        W30516   5.208  44.568   0.826
58988W        W30517  33.382  17.703  14.996
58989W        W30518  41.822  23.053  10.657
58990W        W30519   7.616  19.782  13.492
58991W        W30520  16.202  22.314  10.797
58992W        W30521  16.386  21.629   2.634
58993W        W30522  41.326  40.345   2.751
58994W        W30523  25.436  44.039   0.799
58995W        W30524  27.176  13.613  14.736
58996W        W30525  17.344  12.567  11.697
58997W        W30526  20.185  27.771   3.685
58998W        W30527   9.796  43.549  14.863
58999W        W30528  33.349  11.361  11.638
59000W        W30529   7.459  31.876   4.341
59001W        W30530  35.461  35.903   2.943
59002W        W30531  24.657  11.673   2.211
59003W        W30532  24.149  14.709  11.196
59004W        W30533  36.808   3.317   2.216
59005W        W30534  22.649  18.844   1.458
59006W        W30535  41.582  18.936   4.853
59007W        W30536  10.088  37.473  13.877
59008W        W30537  25.107  16.566   4.007
59009W        W30538  21.732   9.020   1.251
59010W        W30539   9.477  30.936  12.512
59011W        W30540   8.831  25.180  11.096
59012W        W30541  20.496   7.457  12.580
59013W        W30542  32.896  32.839   4.627
59014W        W30543  21.970  39.839   2.247
59015W        W30544  44.484   2.170   2.367
59016W        W30545  37.088   1.340   4.568
59017W        W30546  30.386  39.623  11.113
59018W        W30547  30.576   2.051   3.224
59019W        W30548  15.914  14.299  12.144
59020W        W30549  30.241   0.329   2.466
59021W        W30550   9.340  34.082  13.980
59022W        W30551  11.130  37.265  13.006
59023W        W30552   6.870   2.250   2.706
59024W        W30553  33.314  30.761   1.952
59025W        W30554   0.329  25.233  12.385
59026W        W30555  11.833  36.912  13.925
59027W        W30556  35.287  34.965  10.716
59028W        W30557  16.421  40.382  11.936
59029W        W30558  36.720   4.066  11.163
59030W        W30559  28.405  10.694  14.028
59031W        W30560   4.849  30.065   3.200
59032W        W30561  42.959  22.943   2.025
59033W        W30562  11.577  38.860   2.650
59034W        W30563  22.739   4.518   0.950
59035W        W30564   9.601  16.158   1.262
59036W        W30565  28.955  18.493  13.503
59037W        W30566  15.712  40.773  14.341
59038W        W30567  24.488  33.139  11.645
59039W        W30568  21.097  26.721   0.923
59040W        W30569  44.114   5.394   2.485
59041W        W30570  39.631   5.373  12.860
59042W        W30571   6.148  40.951  14.288
59043W        W30572   4.033   0.820  10.764
59044W        W30573  41.335  34.108   1.890
59045W        W30574  19.178  39.226   4.142
59046W        W30575  10.129  29.995   0.348
59047W        W30576   7.173  33.587  13.797
59048W        W30577   1.180  23.172  11.676
59049W        W30578  12.107  39.825   4.301
59050W        W30579  32.367   4.786   0.277
59051W        W30580  39.387   7.746   0.950
59052W        W30581  11.450  27.717  11.574
59053W        W30582  19.121  39.533   0.682
59054W        W30583  17.950  34.368   3.615
59055W        W30584  27.503  11.144   0.470
59056W        W30585   3.748  44.895  10.574
59057W        W30586  19.536  30.301  14.544
59058W        W30587  26.988   7.108  12.647
59059W        W30588  38.336  26.571  12.977
59060W        W30589  25.257  27.108  14.550
59061W        W30590  40.804  21.034   2.276
59062W        W30591   6.871  43.912   3.143
59063W        W30592   9.318  40.759   2.782
59064W        W30593  33.937  12.159  11.761
59065W        W30594  37.947  35.473   0.790
59066W        W30595   1.262  26.721   3.296
59067W        W30596  27.045  22.253   2.696
59068W        W30597   4.112  15.574  11.152
59069W        W30598  36.282  36.392  10.923
59070W        W30599  43.947  11.221   3.430
59071W        W30600  21.318  25.692  13.032
59072W        W30601  17.368  13.886   0.407
59073W        W30602  27.693  42.933   1.372
59074W        W30603  29.139  39.933   1.714
59075W        W30604  18.980  19.562  12.139
59076W        W30605  43.526  30.452  13.433
59077W        W30606  40.304  35.476  12.014
59078W        W30607  43.927  10.211  10.463
59079W        W30608  14.362  19.020  14.304
59080W        W30609  22.105  18.984  14.012
59081W        W30610  10.403  27.053  13.426
59082W        W30611  26.624  23.739  13.744
59083W        W30612  44.041   1.233   3.246
59084W        W30613  25.363  15.105  11.572
59085W        W30614  33.078  29.186   1.301
59086W        W30615  39.036  36.133  11.243
59087W        W30616  10.710  25.522  12.108
59088W        W30617  36.679  33.130   3.624
59089W        W30618   1.831  25.380   4.711
59090W        W30619  39.489   7.622   1.852
59091W        W30620  43.876   6.189   0.957
59092W        W30621   5.416  31.735  13.873
59093W        W30622   0.912  21.445  14.479
59094W        W30623  42.899  10.362  13.829
59095W        W30624   3.325  20.293  12.047
59096W        W30625  33.577  19.714   0.980
59097W        W30626  19.106  28.260   4.218
59098W        W30627  20.316  43.310  11.422
59099W        W30628   7.914  34.497   1.244
59100W        W30629  12.276   0.835  13.082
59101W        W30630  25.489   9.575   1.278
59102W        W30631   1.849  10.725   2.814
59103W        W30632   8.624  26.253   3.131
59104W        W30633  37.714   6.754  12.541
59105W        W30634  11.943   4.390  14.943
59106W        W30635   2.373  39.088  12.680
59107W        W30636  26.001   9.651  14.515
59108W        W30637  40.885  41.519   2.684
59109W        W30638  37.978  21.991  13.247
59110W        W30639  21.980  34.340   3.588
59111W        W30640  11.525  41.281   0.694
59112W        W30641  40.406  17.733   4.261
59113W        W30642  31.115  14.635  14.590
59114W        W30643  11.709   5.020  11.916
59115W        W30644  31.115   7.008  13.536
59116W        W30645  24.402  13.101  11.888
59117W        W30646  26.679  24.921  12.374
59118W        W30647  31.551  38.968   1.691
59119W        W30648  32.582   3.285  13.164
59120W        W30649  19.247   8.894  11.563
59121W        W30650   0.528  30.514   1.382
59122W        W30651  17.197  19.686  13.619
59123W        W30652  34.673  18.057   4.097
59124W        W30653   6.327  16.696  13.949
59125W        W30654  10.469  11.165  14.411
59126W        W30655  15.588   2.910   2.777
59127W        W30656  31.484   9.191  11.903
59128W        W30657  19.593  38.761  11.244
59129W        W30658  28.655  35.482   2.857
59130W        W30659  19.714  39.305  14.993
59131W        W30660   7.281  25.935  11.330
59132W        W30661  43.416  23.492  10.765
59133W        W30662  42.455  23.426  12.932
59134W        W30663   9.367  24.535   1.590
59135W        W30664  25.425  28.926   4.828
59136W        W30665  37.498  30.241   4.610
59137W        W30666   5.665  23.412   1.857
59138W        W30667  29.958  34.458   1.981
59139W        W30668  33.009   5.008  14.540
59140W        W30669  29.836  12.690  10.727
59141W        W30670  37.706  44.872   2.273
59142W        W30671  28.932  13.611   4.888
59143W        W30672  43.273  37.106   5.162
59144W        W30673  14.799  25.949   0.174
59145W        W30674  25.914   5.776  14.012
59146W        W30675   8.322  14.660  13.071
59147W        W30676  10.393  44.887   2.256
59148W        W30677   1.897  14.531  12.345
59149W        W30678  29.341  34.750   2.244
59150W        W30679  15.573  21.816   3.358
59151W        W30680   4.738  14.219   1.782
59152W        W30681  31.175  18.653  12.192
59153W        W30682  33.769  41.570   0.514
59154W        W30683  35.875  42.519  12.966
59155W        W30684  15.746  41.292  13.033
59156W        W30685  11.910  27.094  10.649
59157W        W30686  41.971   4.169   1.701
59158W        W30687  32.416  27.006   2.413
59159W        W30688  19.051  40.472  13.201
59160W        W30689  42.097  39.413  14.765
59161W        W30690  14.841   7.217  13.114
59162W        W30691   8.969  21.678  12.089
59163W        W30692   6.142  40.751   1.287
59164W        W30693  30.235  39.443   0.794
59165W        W30694  36.517  38.125  12.307
59166W        W30695  22.122  10.438  14.420
59167W        W30696  32.654  44.734  10.969
59168W        W30697   9.449  10.700  12.644
59169W        W30698  27.342  12.070  10.730
59170W        W30699  18.095  34.187  14.230
59171W        W30700  41.867  13.710  13.739
59172W        W30701  15.637  29.645  10.452
59173W        W30702   5.336  13.226   4.540
59174W        W30703  15.353  12.086  11.143
59175W        W30704   9.670  13.665  10.856
59176W        W30705  21.176  30.902   0.095
59177W        W30706   2.711  44.129  13.892
59178W        W30707  18.255   8.692  12.980
59179W        W30708  12.213  39.904  13.740
59180W        W30709  29.179  28.338  11.498
59181W        W30710  30.647  16.501   0.770
59182W        W30711  33.027  18.125  11.371
59183W        W30712  42.767  40.553   5.191
59184W        W30713  23.671  42.264   1.804
59185W        W30714  18.823   0.754  14.609
59186W        W30715  28.948   1.180   4.159
59187W        W30716  35.455  13.876  11.031
59188W        W30717  37.020  15.654   3.268
59189W        W30718  40.505   9.315  13.497
59190W        W30719  27.727  34.349  14.439
59191W        W30720  22.581  17.278   3.013
59192W        W30721   2.836  37.972  14.476
59193W        W30722  19.058  23.698  10.999
59194W        W30723  35.817  22.329  12.027
59195W        W30724   4.307  34.092   3.087
59196W        W30725  44.673   8.409  13.944
59197W        W30726  44.513   2.522   1.337
59198W        W30727  27.723  43.876   3.878
59199W        W30728  36.125   7.851   1.914
59200W        W30729  14.156  30.532  11.701
59201W        W30730  22.243  23.655   2.838
59202W        W30731   1.715  10.215  10.010
59203W        W30732   6.317  26.544   0.362
59204W        W30733  29.703  39.019  11.617
59205W        W30734  26.961  42.555   3.874
59206W        W30735  41.375  20.040   1.606
59207W        W30736  20.049  15.048   1.436
59208W        W30737   9.326  29.210   2.593
59209W        W30738  42.587   0.511   1.157
59210W        W30739  42.070   6.669   1.174
59211W        W30740  20.328  21.061  12.361
59212W        W30741  34.874  16.678   0.793
59213W        W30742  39.433  27.556  14.310
59214W        W30743  26.513  34.201   4.418
59215W        W30744   1.459   0.779   2.519
59216W        W30745  14.007  13.783  11.560
59217W        W30746   5.189  10.243   3.062
59218W        W30747  29.075  13.396  14.305
59219W        W30748  25.442  19.228   2.650
59220W        W30749  21.102   6.518   0.736
59221W        W30750   4.911  10.237  13.450
59222W        W30751  30.153  23.506   4.947
59223W        W30752  16.639  27.985   9.913
59224W        W30753  14.872  18.179  14.818
59225W        W30754  19.322  43.481   1.700
59226W        W30755   4.300   3.905   1.654
59227W        W30756  37.816  23.128  12.941
59228W        W30757  21.726  26.704   3.653
59229W        W30758  10.646  25.967   2.771
59230W        W30759  42.216  25.580  14.405
59231W        W30760   6.427  38.795  12.549
59232W        W30761  20.212  27.951  12.555
59233W        W30762  29.079   5.805   2.722
59234W        W30763  37.517  39.851   4.751
59235W        W30764  40.819   4.873  11.571
59236W        W30765   0.532  33.003   1.329
59237W        W30766   4.280  22.540   3.075
59238W        W30767  28.138  11.498  12.989
59239W        W30768  41.534  41.053  10.789
59240W        W30769   5.483  36.975  12.014
59241W        W30770  14.321  24.495  11.838
59242W        W30771  20.983  11.597  12.922
59243W        W30772   7.963  27.204  11.587
59244W        W30773  26.482   4.144   0.506
59245W        W30774   0.880  16.734   2.735
59246W        W30775   0.281  24.759   0.538
59247W        W30776  17.297  16.547   3.816
59248W        W30777   7.699  17.158   1.748
59249W        W30778  23.261  15.138   0.531
59250W        W30779  40.440  31.481  12.959
59251W        W30780   6.174  30.322   3.764
59252W        W30781  13.642  30.598  13.810
59253W        W30782  32.571  32.413  11.277
59254W        W30783   9.674  19.137   4.532
59255W        W30784  44.447  37.146   3.626
59256W        W30785   9.696  31.810   2.183
59257W        W30786  10.835  43.501   3.709
59258W        W30787  40.161  38.115   4.580
59259W        W30788   1.351  18.027  12.025
59260W        W30789  21.703  15.657   4.089
59261W        W30790   9.803  35.256  13.542
59262W        W30791  30.933  43.860   2.757
59263W        W30792  21.233  16.839  11.147
59264W        W30793   5.087  40.204   4.119
59265W        W30794  35.078   4.761   0.927
59266W        W30795  35.580  29.147   3.907
59267W        W30796   2.863  19.124  10.825
59268W        W30797  23.511  40.376  11.210
59269W        W30798  43.543  11.243  13.095
59270W        W30799  40.366  29.620  12.499
59271W        W30800  21.846  31.576   1.194
59272W        W30801  37.493   4.582  12.225
59273W        W30802   4.837   1.861   1.197
59274W        W30803  41.577  18.832   2.961
59275W        W30804  33.469  20.392   1.512
59276W        W30805  37.935  33.538   4.633
59277W        W30806  32.318  40.389   1.921
59278W        W30807   1.933  41.903  11.212
59279W        W30808  43.531   6.381  11.073
59280W        W30809  42.553  18.114  12.009
59281W        W30810  32.822  14.520  13.427
59282W        W30811  22.033   4.684   0.685
59283W        W30812   0.266  21.936  10.746
59284W        W30813  37.552  32.435   2.634
59285W        W30814  36.092  15.723  14.369
59286W        W30815  24.571  19.800  11.563
59287W        W30816  28.661   9.748  13.302
59288W        W30817  27.845  12.835  14.588
59289W        W30818  10.446   0.270   0.702
59290W        W30819   6.133  25.969  13.333
59291W        W30820  12.672   9.425   1.394
59292W        W30821  35.882  39.723   4.114
59293W        W30822  30.667  37.515  13.205
59294W        W30823   6.823   6.497   3.124
59295W        W30824  24.053   9.635   1.132
59296W        W30825  25.873  16.645   2.056
59297W        W30826  41.969  32.698   3.715
59298W        W30827  30.038  24.496  14.085
59299W        W30828  11.662  32.397  13.435
59300W        W30829  10.906  22.547  14.012
59301W        W30830  30.183  30.112  13.627
59302W        W30831   7.766  11.114  10.846
59303W        W30832  35.335  24.843  10.941
59304W        W30833  34.684  28.173  13.458
59305W        W30834   6.704  15.826   0.617
59306W        W30835  21.111  36.473   3.629
59307W        W30836   0.984  35.038  10.409
59308W        W30837  30.441   4.768  13.860
59309W        W30838  32.385  21.053   1.174
59310W        W30839  43.973  12.933  13.546
59311W        W30840  40.903   6.001   2.241
59312W        W30841  37.238  43.648   4.559
59313W        W30842  34.867   9.297   0.440
59314W        W30843  29.228  18.027  12.387
59315W        W30844  35.613  39.447   2.884
59316W        W30845  16.139   4.399   0.136
59317W        W30846  19.467  14.128   3.175
59318W        W30847   4.949  24.742  10.602
59319W        W30848  12.621   4.233  11.105
59320W        W30849  33.915  12.499  12.141
59321W        W30850   2.228  37.411   2.612
59322W        W30851   8.264  17.872   1.860
59323W        W30852  22.510   6.975   4.207
59324W        W30853   1.406  12.674   4.025
59325W        W30854  20.306  32.962   0.487
59326W        W30855  24.124  44.345  14.830
59327W        W30856  36.202  38.718  10.302
59328W        W30857  36.663   9.845  12.552
59329W        W30858  21.563  39.814   1.389
59330W        W30859  25.950  42.944  12.957
59331W        W30860  36.294   6.214   2.739
59332W        W30861  19.628  27.708  10.347
59333W        W30862  22.108  21.058   3.423
59334W        W30863  35.507  34.103  14.307
59335W        W30864  18.095  26.799   1.547
59336W        W30865   2.713  38.942   0.972
59337W        W30866  43.703  18.238   3.250
59338W        W30867  23.634   6.950   1.281
59339W        W30868  31.511  44.578   2.691
59340W        W30869  28.511   1.933  13.805
59341W        W30870  17.020  20.972   0.448
59342W        W30871  37.259  41.763   2.243
59343W        W30872   8.542  36.806  11.476
59344W        W30873   9.473  38.033  14.526
59345W        W30874  35.055  22.025  10.769
59346W        W30875  34.417  24.326  14.042
59347W        W30876  12.919  19.246   0.285
59348W        W30877  41.530   1.830  10.759
59349W        W30878  28.638  33.884  13.157
59350W        W30879  22.832  40.219   0.465
59351W        W30880   4.232   8.270   3.914
59352W        W30881  24.113   8.117  13.521
59353W        W30882   3.998   6.761   1.222
59354W        W30883  12.561  15.778  11.892
59355W        W30884   3.464  13.167   2.884
59356W        W30885  39.242   0.582   0.455
59357W        W30886  17.185   3.401   3.621
59358W        W30887  27.112  26.360   4.080
59359W        W30888  26.025  37.563  11.255
59360W        W30889  24.553  22.197  13.529
59361W        W30890   5.244   7.024   3.695
59362W        W30891  44.156  22.437   2.745
59363W        W30892  28.368   4.797  13.530
59364W        W30893  17.038  36.508  11.605
59365W        W30894  44.887   7.243  14.038
59366W        W30895  20.387  33.151  12.764
59367W        W30896  34.940  43.785   4.721
59368W        W30897   7.352  26.074  11.830
59369W        W30898  23.015   6.859  11.713
59370W        W30899  43.873  37.097  11.525
59371W        W30900   3.806  28.178   1.336
59372W        W30901  33.912  44.370   2.621
59373W        W30902  24.763  21.982  14.787
59374W        W30903  21.137   4.680  13.138
59375W        W30904  33.008   2.880   2.837
59376W        W30905   1.805  22.693   3.163
59377W        W30906   5.770  21.280   3.902
59378W        W30907  23.058  23.628   4.534
59379W        W30908  36.369  35.193   1.714
59380W        W30909   6.861   2.060  11.785
59381W        W30910  39.938   2.981   2.302
59382W        W30911  15.607  15.713   0.367
59383W        W30912  29.818  35.312   4.001
59384W        W30913   7.248  39.544  13.050
59385W        W30914  15.281  42.373  10.729
59386W        W30915  22.389  24.661   5.092
59387W        W30916  15.629  43.444   4.483
59388W        W30917   5.749  33.898   1.279
59389W        W30918  14.008  28.112  10.518
59390W        W30919  24.597   6.412  14.284
59391W        W30920  27.213   0.950  14.719
59392W        W30921   9.013  22.280   4.647
59393W        W30922  36.514  23.731   3.693
59394W        W30923  20.594  16.295   3.869
59395W        W30924  26.132  35.655   0.257
59396W        W30925  18.624  13.215  14.092
59397W        W30926   6.112   8.134  13.001
59398W        W30927   3.426  38.312  11.531
59399W        W30928  26.916  30.330  13.110
59400W        W30929  29.474   6.340  14.284
59401W        W30930  24.371  29.319  12.442
59402W        W30931  30.813   2.667  10.701
59403W        W30932  14.202   4.705   1.443
59404W        W30933  25.110  24.738  13.257
59405W        W30934  13.081  29.776   0.397
59406W        W30935  41.747  10.237  14.385
59407W        W30936  43.569  15.845  13.514
59408W        W30937  15.284  24.887  14.281
59409W        W30938  27.987  43.994   1.404
59410W        W30939  20.719  13.569  13.134
59411W        W30940  23.390   4.942  11.129
59412W        W30941  25.076   5.203  11.896
59413W        W30942  26.774  16.369  13.382
59414W        W30943  38.473  13.960  13.826
59415W        W30944  41.537  43.507   1.728
59416W        W30945   2.004  40.821   0.261
59417W        W30946  29.843   7.180  12.635
59418W        W30947  26.479  11.692   3.592
59419W        W30948  25.647  23.245   4.201
59420W        W30949  36.339  16.794  13.521
59421W        W30950  29.889   2.928   4.230
59422W        W30951  26.447  14.053   2.661
59423W        W30952  20.695  42.579   3.214
59424W        W30953  44.429   7.943  13.950
59425W        W30954  20.295   0.962  14.061
59426W        W30955   3.306  28.258  12.571
59427W        W30956   6.588  13.849  10.452
59428W        W30957   1.375  27.611   1.723
59429W        W30958   4.895  21.752  12.920
59430W        W30959  23.076   1.398  12.422
59431W        W30960  21.118   0.341   5.100
59432W        W30961   0.062   0.880   1.249
59433W        W30962  17.290  20.830   0.848
59434W        W30963  17.089   6.650   2.396
59435W        W30964  43.554  38.391  10.548
59436W        W30965  34.959  19.792  14.771
59437W        W30966  44.426  12.783   4.425
59438W        W30967  35.907  30.482  12.906
59439W        W30968   3.186  35.320  13.879
59440W        W30969   2.273   3.809   4.342
59441W        W30970  11.816   1.227  14.249
59442W        W30971  40.533  24.604   0.363
59443W        W30972   6.416  20.095  12.340
59444W        W30973   0.247  30.869  10.709
59445W        W30974  17.199  35.113   1.893
59446W        W30975  37.020  38.832  14.440
59447W        W30976  28.056   1.545   1.918
59448W        W30977  44.680  43.524   4.639
59449W        W30978  39.247   8.143  11.153
59450W        W30979  44.867   2.233   4.574
59451W        W30980  17.708   3.746  12.464
59452W        W30981  40.770  37.540  13.387
59453W        W30982  26.225   1.416   4.942
59454W        W30983   6.446   2.066  10.490
59455W        W30984  24.710  11.180  12.466
59456W        W30985  34.064  19.745   4.080
59457W        W30986  14.796  43.938  12.532
59458W        W30987  15.556  41.564  13.452
59459W        W30988  32.561  22.025  12.420
59460W        W30989  32.666  11.217   4.248
59461W        W30990  17.527   0.408  14.428
59462W        W30991   9.187   7.818   2.972
59463W        W30992  21.147  37.342   1.490
59464W        W30993   9.245  26.675   3.590
59465W        W30994  27.954  41.177  11.026
59466W        W30995   8.925   1.576   3.684
59467W        W30996  44.027  12.065  14.848
59468W        W30997  20.355  13.184   3.026
59469W        W30998   2.382  24.188  14.530
59470W        W30999   8.891   8.796  12.429
59471W        W31000  32.057  37.105   3.080
59472W        W31001   4.450  22.905   2.718
59473W        W31002  42.264  24.694   2.466
59474W        W31003   7.896  28.929  12.929
59475W        W31004  31.072   5.526   0.502
59476W        W31005  26.039  42.508  11.536
59477W        W31006   9.319  11.154   1.728
59478W        W31007  21.684   6.711   4.539
59479W        W31008   3.918  20.225   2.913
59480W        W31009  27.107  16.709  12.380
59481W        W31010   3.969   2.921  14.456
59482W        W31011  23.680  44.260   4.900
59483W        W31012  36.465  33.382  12.541
59484W        W31013   3.336  32.105   3.569
59485W        W31014   0.475   4.213   1.719
59486W        W31015  29.790   1.446  10.713
59487W        W31016  29.210  29.739   5.162
59488W        W31017  22.566  28.933   2.216
59489W        W31018   0.463  30.485  12.047
59490W        W31019  31.043  10.376  12.092
59491W        W31020  22.012  20.588   0.832
59492W        W31021  13.590   6.060   0.204
59493W        W31022   1.076  41.198   0.513
59494W        W31023  16.165  14.732  10.736
59495W        W31024  21.016   4.390   0.382
59496W        W31025   9.832  31.093  12.849
59497W        W31026  40.568  32.426   2.338
59498W        W31027  27.173   0.910   2.147
59499W        W31028   2.730  22.494  12.539
59500W        W31029  13.407  17.698   3.939
59501W        W31030  15.105  19.596  10.635
59502W        W31031  42.003  12.794  10.100
59503W        W31032   4.672  32.892   4.567
59504W        W31033  33.316   4.555   0.434
59505W        W31034  42.498  18.716  12.879
59506W        W31035  34.879  20.687  12.656
59507W        W31036  29.264  31.844   2.258
59508W        W31037   1.383  26.002  14.700
59509W        W31038  34.889  24.116  14.039
59510W        W31039  24.538  28.376   2.286
59511W        W31040  36.990  27.009   0.794
59512W        W31041   3.871  20.072   4.848
59513W        W31042  24.852  37.355   1.354
59514W        W31043  28.080  10.525  11.317
59515W        W31044   2.936  24.372   4.044
59516W        W31045   3.813  44.193   1.096
59517W        W31046  41.534   9.271  14.816
59518W        W31047   9.723  17.231  13.006
59519W        W31048  32.000  17.491  14.949
59520W        W31049  20.341  28.331   5.074
59521W        W31050   4.986  16.776  11.947
59522W        W31051  20.059   7.714   2.879
59523W        W31052  19.975  27.885   1.808
59524W        W31053  20.224  33.777  10.564
59525W        W31054  20.421  26.646  10.683
59526W        W31055  16.174  40.903  12.072
59527W        W31056  37.431  42.481   0.325
59528W        W31057  11.106   4.516  12.604
59529W        W31058  25.132  41.300   3.723
59530W        W31059  16.038  17.798   4.702
59531W        W31060  24.378  10.853  13.264
59532W        W31061  28.840  34.717  12.501
59533W        W31062  38.487  18.580   0.320
59534W        W31063  27.573  28.118  12.954
59535W        W31064  43.676   8.870   2.762
59536W        W31065  16.244  34.271   3.299
59537W        W31066  29.625  31.329   4.241
59538W        W31067  14.517  38.542   0.456
59539W        W31068  42.296  43.831  11.188
59540W        W31069  44.464   3.533   1.134
59541W        W31070  38.441   8.488   3.846
59542W        W31071  15.063  20.123  14.397
59543W        W31072   3.233  31.356   2.286
59544W        W31073  38.964   7.192   3.732
59545W        W31074   6.489  11.937   2.338
59546W        W31075  40.619  31.661  11.520
59547W        W31076  25.867  15.618   1.286
59548W        W31077   5.218  12.766   2.261
59549W        W31078   7.131  35.526   4.313
59550W        W31079  35.052  14.969  11.044
59551W        W31080  35.661  14.390  12.826
59552W        W31081  22.495   8.702  11.219
59553W        W31082   3.990  16.412   4.172
59554W        W31083  23.700  35.518   1.333
59555W        W31084  17.584  41.806  13.525
59556W        W31085   4.544   8.745   1.151
59557W        W31086  25.393  13.584   0.245
59558W        W31087  20.176  24.005   3.228
59559W        W31088   3.801  44.360   0.058
59560W        W31089  43.999  28.038  14.416
59561W        W31090  12.264  13.584  12.523
59562W        W31091  36.884  29.425  10.676
59563W        W31092  14.521  28.982   3.322
59564W        W31093  37.105  23.065   4.595
59565W        W31094  26.970  24.110   4.544
59566W        W31095   3.489  17.181   3.473
59567W        W31096  44.817  17.149  11.013
59568W        W31097  13.680   0.266   5.028
59569W        W31098  35.888  37.934   4.753
59570W        W31099   0.982  36.145  13.491
59571W        W31100  24.064  38.140   1.183
59572W        W31101   0.382  12.620  14.774
59573W        W31102  39.277  30.583  10.434
59574W        W31103   9.390  13.790  14.784
59575W        W31104  25.475  26.752  12.887
59576W        W31105  33.832   2.382   4.742
59577W        W31106  34.881  42.120  11.965
59578W        W31107  13.043   4.897   2.399
59579W        W31108  39.867  23.199   4.100
59580W        W31109  11.667  10.638   1.361
59581W        W31110  12.141  30.499  14.754
59582W        W31111  36.076  26.606  10.660
59583W        W31112   7.582  34.890   1.322
59584W        W31113  34.312  15.401  13.481
59585W        W31114   4.246  24.139  10.477
59586W        W31115  21.833  28.034   2.722
59587W        W31116  29.985  33.172   3.128
59588W        W31117  10.071  11.804   3.201
59589W        W31118  32.906  21.585  13.358
59590W        W31119  10.338   7.312   0.719
59591W        W31120  37.983  30.451   1.227
59592W        W31121  26.702  10.607   2.840
59593W        W31122  18.665  12.755  12.539
59594W        W31123  37.587  41.816   4.895
59595W        W31124  27.992  33.183  13.388
59596W        W31125   0.318  11.249   3.633
59597W        W31126  15.956  16.524   4.099
59598W        W31127  23.128  19.541   3.224
59599W        W31128   1.589  29.940  13.135
59600W        W31129  27.465   6.911   2.042
59601W        W31130   1.352   0.450   3.594
59602W        W31131  28.959   2.021  14.632
59603W        W31132  16.717  12.306  13.393
59604W        W31133  35.123  23.468   3.249
59605W        W31134   5.338   2.376   1.734
59606W        W31135  44.220  35.119  11.025
59607W        W31136   0.990   4.047   2.800
59608W        W31137  21.782  39.150  12.838
59609W        W31138  39.720  33.057  14.367
59610W        W31139  32.991  36.859   3.755
59611W        W31140  44.055  10.314  12.029
59612W        W31141  38.993  35.867  14.620
59613W        W31142  12.279  37.338   0.549
59614W        W31143  10.856  42.284  14.165
59615W        W31144  37.830   5.368  14.812
59616W        W31145  14.119  27.083  11.671
59617W        W31146   2.989  18.825   2.203
59618W        W31147  35.010  17.179   0.743
59619W        W31148  23.906  29.669   2.901
59620W        W31149  14.056  34.843   3.693
59621W        W31150  17.802  42.588   3.407
59622W        W31151  37.885   9.194   1.453
59623W        W31152  10.787  25.740   0.086
59624W        W31153  35.564  29.341   0.521
59625W        W31154   7.832   4.832  11.074
59626W        W31155  40.377  17.248  14.438
59627W        W31156  15.077  44.379   3.311
59628W        W31157  20.098  40.372  14.192
59629W        W31158  33.501  14.437   1.257
59630W        W31159  32.542  28.157  12.035
59631W        W31160  40.942  37.048  13.297
59632W        W31161  21.405  36.192   9.833
59633W        W31162  26.520   4.311   1.836
59634W        W31163  40.272   7.214   0.246
59635W        W31164  44.967  38.077  11.576
59636W        W31165   6.313  13.873   1.127
59637W        W31166   8.539  30.702   3.189
59638W        W31167  19.656  24.503  13.448
59639W        W31168  23.042  31.006  11.943
59640W        W31169  21.294  14.605   1.833
59641W        W31170  34.374  26.946  13.124
59642W        W31171  33.078  11.243   2.796
59643W        W31172  28.894  43.067   2.827
59644W        W31173  10.978  33.859  12.517
59645W        W31174  15.386  37.071  13.586
59646W        W31175   9.916  26.492   1.327
59647W        W31176  29.863  10.432   3.184
59648W        W31177  23.697   7.560  10.651
59649W        W31178  43.406  43.281  13.575
59650W        W31179   1.789  10.619  14.289
59651W        W31180  23.832  44.959  11.885
59652W        W31181  18.844  27.010  12.942
59653W        W31182   4.302   0.922   2.816
59654W        W31183  19.766  40.631   1.797
59655W        W31184  31.759  32.597   4.032
59656W        W31185   4.750  25.942   3.416
59657W        W31186  42.904  39.234  12.817
59658W        W31187  35.284   6.679   3.354
59659W        W31188  29.917   1.362   4.634
59660W        W31189  42.425  11.705   0.401
59661W        W31190  37.035  11.965  12.543
59662W        W31191   3.236  22.619  11.052
59663W        W31192  37.561   1.990  12.018
59664W        W31193   4.335   3.709  10.642
59665W        W31194  18.174  33.115   0.700
59666W        W31195  10.904   2.781  11.105
59667W        W31196  11.086  35.645  13.609
59668W        W31197  23.592   7.473   1.215
59669W        W31198  21.094  16.595  11.593
59670W        W31199  21.514   6.206   0.880
59671W        W31200  22.715  43.762  14.997
59672W        W31201  40.538  29.911  12.050
59673W        W31202  39.272  35.007   0.347
59674W        W31203   2.456   0.823   2.812
59675W        W31204   8.700  30.443  14.008
59676W        W31205  36.640  43.920   3.951
59677W        W31206  40.735  35.276  11.195
59678W        W31207  34.982  39.647   0.385
59679W        W31208  23.137  18.386   4.494
59680W        W31209   0.942  15.151   2.348
59681W        W31210  21.015   9.184  10.285
59682W        W31211  44.040  24.193  11.944
59683W        W31212  41.975  20.772   2.669
59684W        W31213  10.376  22.084  12.579
59685W        W31214  15.358   2.492  14.411
59686W        W31215  36.603  43.124   0.693
59687W        W31216  44.739  13.098  14.604
59688W        W31217  35.057  18.504   1.750
59689W        W31218  40.997  31.023  12.039
59690W        W31219  44.867  31.116   0.859
59691W        W31220  22.328  19.559  14.866
59692W        W31221   8.967  21.568  10.453
59693W        W31222  30.378  16.777  11.957
59694W        W31223  20.909  15.644   0.355
59695W        W31224  37.052  28.658  13.117
59696W        W31225  25.720   1.186  12.786
59697W        W31226  25.817   7.635  13.024
59698W        W31227   3.378  11.021   0.255
59699W        W31228  19.658  18.353   4.756
59700W        W31229  25.341  30.929  12.421
59701W        W31230  35.296  12.275  13.839
59702W        W31231  42.430   7.788  12.548
59703W        W31232   4.028  28.450  13.885
59704W        W31233  22.466  27.141  12.223
59705W        W31234  44.859  17.788   4.882
59706W        W31235  10.354   3.017  11.962
59707W        W31236  35.127  25.188  13.103
59708W        W31237  25.735  39.940  11.172
59709W        W31238  43.249  39.940  10.630
59710W        W31239   8.969  10.908   4.506
59711W        W31240  11.432  20.683   1.893
59712W        W31241  44.284  10.862   0.663
59713W        W31242   0.469  13.353   2.814
59714W        W31243  26.799   7.733   2.777
59715W        W31244  13.052  37.504  10.711
59716W        W31245  41.518   3.860  10.612
59717W        W31246  37.829  44.384   0.817
59718W        W31247  37.401   2.858   3.627
59719W        W31248  13.652  15.380   3.623
59720W        W31249  31.946  33.822   1.788
59721W        W31250  15.259  12.224  14.835
59722W        W31251  31.088  26.967   0.218
59723W        W31252  28.638  17.665  14.635
59724W        W31253  23.190   3.050  13.376
59725W        W31254   4.178   6.714  13.546
59726W        W31255  43.923  33.185   0.378
59727W        W31256   0.995  19.673  11.981
59728W        W31257  36.654  19.257  10.746
59729W        W31258  25.576  36.851  11.635
59730W        W31259  31.628  16.755   0.322
59731W        W31260  38.613  17.913  13.883
59732W        W31261  31.166  17.521   0.290
59733W        W31262  26.246  34.029  10.794
59734W        W31263  20.737  41.945  10.897
59735W        W31264  30.126  17.629   0.302
59736W        W31265  38.103  37.681   3.795
59737W        W31266   4.976  17.112  12.577
59738W        W31267  41.703  41.275  11.934
59739W        W31268  32.473  34.289  11.203
59740W        W31269  17.781  27.292  14.044
59741W        W31270   7.440   3.206   4.128
59742W        W31271  34.988  18.249  13.326
59743W        W31272  28.207   0.797   1.893
59744W        W31273   8.217  24.447  14.276
59745W        W31274   2.045  42.690  12.643
59746W        W31275  37.130  22.529   4.681
59747W        W31276  19.265  36.370   3.354
59748W        W31277  11.819  36.785  11.627
59749W        W31278  22.428  33.299  11.491
59750W        W31279   5.133   8.410  11.498
59751W        W31280   3.510  10.235   4.166
59752W        W31281  18.120  26.729  12.048
59753W        W31282   8.745   5.885  14.056
59754W        W31283  10.800   1.429  10.777
59755W        W31284  28.708  10.698  10.745
59756W        W31285  37.634  13.906   0.042
59757W        W31286  42.197  28.485   4.650
59758W        W31287  14.301  26.106   2.448
59759W        W31288  41.432  36.068   4.614
59760W        W31289  18.725  14.749   3.214
59761W        W31290  42.326  10.411  11.128
59762W        W31291  42.672  16.632  13.432
59763W        W31292  35.046  14.825   0.803
59764W        W31293  20.081  40.771  12.944
59765W        W31294  21.234  14.499  11.607
59766W        W31295  41.776  36.934   1.224
59767W        W31296  21.681  13.898  13.050
59768W        W31297  17.633  37.305  13.782
59769W        W31298   1.660  38.779  14.424
59770W        W31299  37.954   8.674   4.659
59771W        W31300  30.520  35.991  14.751
59772W        W31301  36.632  38.590  13.645
59773W        W31302   8.112  32.922  14.805
59774W        W31303  34.508  12.562   0.710
59775W        W31304  30.004  41.270  14.279
59776W        W31305  22.039   6.181  13.737
59777W        W31306  41.425   2.025   1.932
59778W        W31307  36.402  10.370  14.832
59779W        W31308  13.622   3.488  12.438
59780W        W31309  33.761  37.657  12.810
59781W        W31310  10.644  14.991  13.547
59782W        W31311  12.771  14.547  11.607
59783W        W31312  37.058  30.931  12.594
59784W        W31313  21.092   8.971   1.960
59785W        W31314   5.788  15.741   2.583
59786W        W31315  12.553  13.242   2.226
59787W        W31316   8.254  16.136  11.529
59788W        W31317  21.162  13.158  12.709
59789W        W31318   7.662  43.520  13.542
59790W        W31319  27.697  19.726   1.389
59791W        W31320  27.154  28.991   2.158
59792W        W31321  39.012  30.451  14.442
59793W        W31322  24.944  34.685  12.081
59794W        W31323  39.350   3.765  12.399
59795W        W31324  18.876  37.411  11.462
59796W        W31325  13.782  32.715   1.382
59797W        W31326  14.869  13.792   3.817
59798W        W31327  24.036   0.079   3.264
59799W        W31328  25.298  18.259  11.128
59800W        W31329  27.500  36.991  13.300
59801W        W31330  31.218  24.753  10.757
59802W        W31331  10.680  12.829  13.786
59803W        W31332   7.898   8.805  13.923
59804W        W31333  12.432  39.954  13.274
59805W        W31334  10.426  42.310  13.316
59806W        W31335  44.902  14.964   4.246
59807W        W31336  23.675  11.710  10.705
59808W        W31337  27.196  23.833   2.200
59809W        W31338  27.479  41.297   0.002
59810W        W31339  13.588  40.296   2.460
59811W        W31340   5.178   9.068  11.629
59812W        W31341  11.248   8.529  13.414
59813W        W31342  12.282  37.603  14.877
59814W        W31343  19.741  16.949   2.648
59815W        W31344  39.265  39.029  11.249
59816W        W31345  25.670   7.707   1.566
59817W        W31346  14.586  32.355   1.758
59818W        W31347  33.945  18.722   1.185
59819W        W31348   2.760  23.703  11.965
59820W        W31349  26.456  43.893   3.726
59821W        W31350   5.884  20.126  13.548
59822W        W31351  32.901  43.849   1.678
59823W        W31352  26.411  32.595  11.571
59824W        W31353   4.411  27.349  14.201
59825W        W31354  15.375  23.688  13.587
59826W        W31355   5.139   6.300   3.173
59827W        W31356  18.337  11.284   3.601
59828W        W31357  20.161  14.142   4.630
59829W        W31358  38.404   7.205   2.434
59830W        W31359  20.116  26.457   3.158
59831W        W31360  32.530   0.217  12.619
59832W        W31361  31.163  37.514  10.975
59833W        W31362  12.071  14.301   1.742
59834W        W31363  42.619  44.267  11.400
59835W        W31364   0.369  32.972  13.869
59836W        W31365  41.511   7.110  10.796
59837W        W31366  35.401   5.213   3.218
59838W        W31367   7.978   4.932   3.260
59839W        W31368  19.178  15.281   0.482
59840W        W31369  15.088  42.172   4.060
59841W        W31370  10.213  39.762   3.342
59842W        W31371   0.517  19.313  14.337
59843W        W31372  24.067  30.949   0.031
59844W        W31373   8.835  15.304  14.660
59845W        W31374  20.641   4.663  13.396
59846W        W31375  40.881   1.413   3.590
59847W        W31376   0.121   9.124   1.312
59848W        W31377   1.359  28.196  12.027
59849W        W31378  24.606  34.582   4.518
59850W        W31379  43.624   6.118   1.407
59851W        W31380  31.088  11.789   0.979
59852W        W31381  21.300  36.451  14.502
59853W        W31382  14.912  29.467  13.293
59854W        W31383   5.380   1.166  11.673
59855W        W31384  34.179  22.647   0.268
59856W        W31385  32.316  35.534  11.211
59857W        W31386   7.133   6.111   4.029
59858W        W31387  12.225  43.434  11.832
59859W        W31388  42.747  15.578   3.210
59860W        W31389  13.646   7.336   2.725
59861W        W31390  36.488  33.162  10.717
59862W        W31391  37.335  21.799  11.359
59863W        W31392  27.500  30.820   1.700
59864W        W31393  19.614   7.854  13.340
59865W        W31394  25.689  18.555  11.262
59866W        W31395  42.787   7.671   0.867
59867W        W31396  41.774  22.661  10.319
59868W        W31397  19.824  40.654   0.035
59869W        W31398  19.110  41.779   1.554
59870W        W31399  30.934   6.893   4.513
59871W        W31400  34.578  21.985  10.587
59872W        W31401  22.915  39.505  12.600
59873W        W31402  44.773  38.352  13.425
59874W        W31403   3.606  29.147  12.572
59875W        W31404  32.160  23.103   2.370
59876W        W31405  27.916  15.124   3.735
59877W        W31406  27.569  31.355   2.593
59878W        W31407  40.813  28.343   2.354
59879W        W31408   1.664  10.377   0.245
59880W        W31409  19.226  44.692   0.851
59881W        W31410   0.750  26.613  13.389
59882W        W31411  39.506   3.915   1.209
59883W        W31412  14.605   8.478   3.217
59884W        W31413   9.347  23.035  11.794
59885W        W31414  11.615   6.890   1.775
59886W        W31415   0.536  36.991  12.102
59887W        W31416  40.781  34.413  11.682
59888W        W31417  39.153   6.333  12.635
59889W        W31418  18.244  37.688   3.265
59890W        W31419  22.195  12.157   0.534
59891W        W31420   1.677  15.283  13.699
59892W        W31421  26.482   3.784  12.576
59893W        W31422  13.318  12.534  11.698
59894W        W31423   1.030  42.276   1.836
59895W        W31424  26.648   5.405   3.915
59896W        W31425  41.301  38.062  14.790
59897W        W31426  35.227  35.098  11.664
59898W        W31427  13.625  44.278   3.167
59899W        W31428  43.710  44.529   3.311
59900W        W31429  16.326  38.346  11.809
59901W        W31430   3.387  27.540  11.968
59902W        W31431   5.518  22.901  13.483
59903W        W31432  42.011  43.989   0.546
59904W        W31433   1.693  31.397  12.607
59905W        W31434  29.542  32.059  14.429
59906W        W31435  44.930  21.088  14.312
59907W        W31436  41.950   5.257   1.739
59908W        W31437  34.893  19.659  12.429
59909W        W31438  22.290  32.188   1.880
59910W        W31439  14.043  28.400  11.421
59911W        W31440  38.099   5.216  12.135
59912W        W31441  43.311  19.736  14.232
59913W        W31442  44.836  37.839  13.382
59914W        W31443   8.224  42.561   0.814
59915W        W31444  24.127   0.357   3.690
59916W        W31445  25.694  23.728  13.952
59917W        W31446  10.019  16.967  14.689
59918W        W31447  17.728  25.008  11.613
59919W        W31448   0.349  44.838   3.597
59920W        W31449   3.885  14.609  11.568
59921W        W31450  38.307  12.716  13.297
59922W        W31451   3.888  32.924   2.895
59923W        W31452  20.590  22.136   1.432
59924W        W31453  33.068   3.280   3.518
59925W        W31454   7.296  38.682   3.135
59926W        W31455  12.386  18.191   2.994
59927W        W31456  40.988  11.680  13.562
59928W        W31457  12.746  21.138   1.793
59929W        W31458  24.297   3.434   3.258
59930W        W31459  16.407  25.705  12.500
59931W        W31460  27.166  35.522  11.216
59932W        W31461  29.170  36.619  10.824
59933W        W31462   4.936  38.021   3.237
59934W        W31463   7.211  40.254  11.576
59935W        W31464   0.530  38.820  12.749
59936W        W31465  10.291  23.133   0.688
59937W        W31466  17.701  17.579  13.600
59938W        W31467  44.791  33.611  12.592
59939W        W31468  13.576  19.738   3.263
59940W        W31469  12.459  16.200   0.842
59941W        W31470  44.880  25.670  11.740
59942W        W31471  15.084  16.722   2.125
59943W        W31472  20.980   5.463   2.244
59944W        W31473  26.851  31.455   1.488
59945W        W31474  36.792  12.977  12.443
59946W        W31475  23.137   1.934   1.401
59947W        W31476   1.248  14.073  12.953
59948W        W31477  25.867  44.281  11.828
59949W        W31478  19.010   8.426  13.455
59950W        W31479   3.326  27.443   4.791
59951W        W31480  19.782  14.298  10.801
59952W        W31481  37.268  27.166   1.228
59953W        W31482  17.548  36.587  14.375
59954W        W31483  14.340  37.194   2.769
59955W        W31484   4.603  11.138   0.763
59956W        W31485   8.337  36.987   4.401
59957W        W31486  12.199   8.307   2.116
59958W        W31487  26.559  29.972  12.319
59959W        W31488  18.467   7.413  10.734
59960W        W31489  11.608  37.066  12.557
59961W        W31490  28.801  13.168   4.631
59962W        W31491   8.911  15.741   3.780
59963W        W31492  24.088  34.808   4.653
59964W        W31493  20.502  18.704  14.448
59965W        W31494   4.416   8.214  13.500
59966W        W31495  11.229  35.494  11.936
59967W        W31496  24.929  24.643   0.440
59968W        W31497  18.507  27.952  13.019
59969W        W31498  23.657  42.840   4.154
59970W        W31499  42.880  36.091   0.803
59971W        W31500  35.508  19.359   0.418
59972W        W31501   0.200   3.241   3.772
59973W        W31502  36.621  19.549   0.871
59974W        W31503  42.439  34.410   0.942
59975W        W31504   0.430   2.807  14.634
59976W        W31505  23.571  14.641   1.624
59977W        W31506  25.245  34.528  13.885
59978W        W31507  38.367  28.472   1.209
59979W        W31508  37.004  31.179   0.834
59980W        W31509  38.377  10.758  14.958
59981W        W31510  28.526   8.395   4.474
59982W        W31511  40.763  25.200  13.887
59983W        W31512  23.011  44.015  11.769
59984W        W31513   4.423  15.294  12.095
59985W        W31514  19.543  23.047   0.279
59986W        W31515  22.851  15.149   0.227
59987W        W31516  30.178  15.504   2.812
59988W        W31517  36.560  42.810   4.304
59989W        W31518   6.753  22.995  11.747
59990W        W31519   4.029  31.607  14.837
59991W        W31520  30.517  16.837  10.513
59992W        W31521   1.210  40.339   3.811
59993W        W31522  39.395  28.622   1.326
59994W        W31523  26.942   4.764   2.901
59995W        W31524  30.235  31.713   0.625
59996W        W31525  21.620   0.062   2.840
59997W        W31526  29.751  38.777  10.301
59998W        W31527  30.154  38.354  10.965
59999W        W31528   5.368  12.429   1.279
60000W        W31529  24.109   0.444  14.995
60001W        W31530   1.962  17.605  12.563
60002W        W31531  32.530  27.720  10.192
60003W        W31532  25.838  30.986  12.502
60004W        W31533   8.294  27.706   0.326
60005W        W31534  30.733  16.143   4.108
60006W        W31535  19.382  27.442   3.348
60007W        W31536  38.156  28.381   0.702
60008W        W31537  27.948  31.653   4.193
60009W        W31538  44.370  13.827   2.890
60010W        W31539  40.824  18.238   0.814
60011W        W31540  18.315  20.571   1.526
60012W        W31541  36.891  44.525   5.156
60013W        W31542  40.586  19.595  14.768
60014W        W31543  15.220   6.315   1.397
60015W        W31544   2.071  21.740   0.051
60016W        W31545  35.249  30.382  14.933
60017W        W31546  35.300  14.266   4.437
60018W        W31547  19.536  27.537   1.308
60019W        W31548  38.648  38.497   1.222
60020W        W31549   9.893  29.963  14.870
60021W        W31550  17.240  38.439  10.835
60022W        W31551  35.600  28.916   2.352
60023W        W31552  22.833  39.203   3.307
60024W        W31553  39.388   3.493  12.864
60025W        W31554   1.962  17.303   1.948
60026W        W31555  33.589  19.125   1.872
60027W        W31556  17.995  13.876  10.622
60028W        W31557   0.440  16.365  14.446
60029W        W31558   8.815  21.455   1.736
60030W        W31559  13.864  30.947  14.535
60031W        W31560  32.031  41.607   4.177
60032W        W31561   0.071  42.395   1.833
60033W        W31562  37.882   7.426  14.958
60034W        W31563   4.141  15.647   1.757
60035W        W31564  20.703  10.167   3.661
60036W        W31565  22.570   5.287   3.725
60037W        W31566  17.950  20.115   3.707
60038W        W31567  13.672  15.548  14.403
60039W        W31568  31.518  38.723  12.688
60040W        W31569  36.444  13.206  13.961
60041W        W31570  25.912  27.449   1.924
60042W        W31571   8.753  20.365  10.451
60043W        W31572  36.799  30.980  11.526
60044W        W31573  22.780  21.910  12.816
60045W        W31574   4.953  10.553   2.293
60046W        W31575  30.426  14.736  12.895
60047W        W31576  34.829  21.996   3.156
60048W        W31577  14.612  15.084   3.212
60049W        W31578  21.801  26.300   4.606
60050W        W31579  29.691  18.790   1.786
60051W        W31580  43.562   0.682  12.882
60052W        W31581  37.330  22.976   1.778
60053W        W31582  36.159  37.407   2.290
60054W        W31583  14.776  37.585   1.199
60055W        W31584  28.780  37.840   0.481
60056W        W31585  25.365  27.170   0.063
60057W        W31586  40.040   9.559  14.239
60058W        W31587  11.245  35.142  10.661
60059W        W31588   4.282  30.752  11.705
60060W        W31589  33.023  22.709  11.038
60061W        W31590  40.850  17.312  10.560
60062W        W31591  21.194  27.431   3.209
60063W        W31592  10.806   9.111   3.058
60064W        W31593  24.790  17.079  14.451
60065W        W31594  14.675  36.565   0.865
60066W        W31595  35.404  14.625   2.074
60067W        W31596  22.054   9.135   4.154
60068W        W31597  17.104  12.116   2.481
60069W        W31598  41.165   0.631  10.437
60070W        W31599   5.875  39.610  13.308
60071W        W31600  32.101  13.822  11.997
60072W        W31601  42.921  24.659   0.802
60073W        W31602  43.803  23.242  12.976
60074W        W31603  28.616   8.419   0.992
60075W        W31604  41.442  39.914   4.139
60076W        W31605  34.974   2.230   0.566
60077W        W31606  32.183  12.945   5.260
60078W        W31607   8.913  41.731   2.708
60079W        W31608  35.498  38.755  12.580
60080W        W31609  32.139  40.460   0.471
60081W        W31610  31.835  42.431   3.691
60082W        W31611  25.724  15.214   4.706
60083W        W31612   3.430  15.363  13.992
60084W        W31613  13.104  12.188   1.427
60085W        W31614  28.683  39.521  13.696
60086W        W31615  21.705  19.931  13.443
60087W        W31616  36.922  24.078  12.643
60088W        W31617   1.683  34.879  12.643
60089W        W31618  22.224   4.403   3.711
60090W        W31619  20.014   2.395  13.409
60091W        W31620  36.476  44.003   1.717
60092W        W31621  20.604   1.798   0.302
60093W        W31622  44.883  14.731  14.880
60094W        W31623  38.084  42.638  14.859
60095W        W31624  33.944  14.640   4.787
60096W        W31625  42.955  10.116   4.286
60097W        W31626  16.212  13.871   3.101
60098W        W31627  37.751  24.608  12.489
60099W        W31628  21.605  25.275   4.637
60100W        W31629  30.723  36.585   3.222
60101W        W31630  36.883  28.983   0.527
60102W        W31631  38.066  44.543  11.652
60103W        W31632   2.214  16.618  13.981
60104W        W31633   9.597   5.038   4.055
60105W        W31634  35.339  13.198   3.646
60106W        W31635  19.521  40.611   4.183
60107W        W31636  22.499  36.019  14.724
60108W        W31637  10.789   6.208   2.724
60109W        W31638  39.836  42.771   0.517
60110W        W31639   7.763  28.388  12.043
60111W        W31640   7.369  31.502   3.535
60112W        W31641  22.645  18.698  10.668
60113W        W31642  41.765  43.047   1.874
60114W        W31643  12.320  30.364   1.247
60115W        W31644  28.123  25.253   0.495
60116W        W31645  42.245  21.286  12.421
60117W        W31646  42.499  16.414   3.846
60118W        W31647  29.915  29.881   2.271
60119W        W31648  21.636  39.061   2.753
60120W        W31649  40.743  36.300   3.441
60121W        W31650  23.543  21.955   1.348
60122W        W31651  14.965  33.242  11.884
60123W        W31652  16.805  25.173   1.169
60124W        W31653   8.212  41.539   4.727
60125W        W31654  17.664  23.660   4.636
60126W        W31655  12.769  31.699   2.269
60127W        W31656   4.827  35.515  11.369
60128W        W31657   7.153  12.856  12.949
60129W        W31658  40.355  22.243   0.516
60130W        W31659  37.203  37.071   3.768
60131W        W31660  19.585   7.201  12.062
60132W        W31661  30.138  38.216  14.970
60133W        W31662   9.998  42.971   3.863
60134W        W31663   1.837  29.674   3.673
60135W        W31664   4.434  28.867   3.624
60136W        W31665  26.385  39.111  11.232
60137W        W31666  29.566   3.952   2.660
60138W        W31667   3.161  12.307   0.804
60139W        W31668  27.150  35.311   1.679
60140W        W31669   3.462  39.313   2.660
60141W        W31670  26.472  24.248   4.618
60142W        W31671  10.185  29.173  12.436
60143W        W31672  13.696  16.284   2.254
60144W        W31673   1.079  34.097  12.544
60145W        W31674  28.036  25.692  14.532
60146W        W31675  10.819  12.535  11.187
60147W        W31676  18.263  31.931  12.821
60148W        W31677  22.084  34.723  13.364
60149W        W31678  37.875  12.669  10.274
60150W        W31679  21.331   0.440   2.651
60151W        W31680   8.635  22.168   3.863
60152W        W31681  38.542  19.813  14.707
60153W        W31682  35.762  37.873  11.939
60154W        W31683  27.578  32.624   2.725
60155W        W31684   1.675  22.599   0.349
60156W        W31685   2.496  27.632   2.247
60157W        W31686   7.954  37.355   0.833
60158W        W31687  11.800   3.205  12.120
60159W        W31688  32.896  33.231  14.765
60160W        W31689  28.695   0.928   3.130
60161W        W31690  18.793  37.648   1.479
60162W        W31691  31.049  25.387   1.785
60163W        W31692  32.047   3.107   0.025
60164W        W31693  20.559  12.753  11.588
60165W        W31694  30.082  34.363   3.648
60166W        W31695  14.288  34.445   1.071
60167W        W31696  42.790  37.579   2.746
60168W        W31697  20.603  19.294   1.746
60169W        W31698  30.529   9.713   2.658
60170W        W31699  43.416  16.658   1.600
60171W        W31700  27.709  21.086  13.098
60172W        W31701  33.437  34.847   0.435
60173W        W31702   0.681  42.715  14.660
60174W        W31703   1.437   0.808   1.368
60175W        W31704  29.588  35.883  13.482
60176W        W31705   8.809  19.055   1.249
60177W        W31706   2.195  42.065  13.814
60178W        W31707   0.721  21.567   0.203
60179W        W31708   0.581  29.044  13.211
60180W        W31709  38.665  13.613  11.571
60181W        W31710   2.868  33.496   0.900
60182W        W31711   7.945  43.551   2.181
60183W        W31712  30.688  21.009  12.553
60184W        W31713   4.700  39.930   0.133
60185W        W31714  14.685  10.725  13.909
60186W        W31715  27.957  18.585   0.756
60187W        W31716  26.640  18.268   1.664
60188W        W31717  26.763  10.457  12.961
60189W        W31718  39.814   7.224  13.584
60190W        W31719  40.024  43.674   1.900
60191W        W31720   5.229   6.471   3.693
60192W        W31721  17.243  38.259  11.741
60193W        W31722   1.888  24.411   0.429
60194W        W31723  25.968   9.417   3.202
60195W        W31724  15.831  36.585  13.052
60196W        W31725  29.214  10.771   3.624
60197W        W31726  26.662  44.247   2.166
60198W        W31727   7.129   7.339   2.198
60199W        W31728  37.995  30.300  14.417
60200W        W31729  16.159  34.653  12.946
60201W        W31730  18.367  44.244   0.474
60202W        W31731  42.438  27.820   3.750
60203W        W31732  39.393  28.947   4.146
60204W        W31733  26.199  28.195  13.090
60205W        W31734  16.762  32.231   2.677
60206W        W31735  40.246  18.148   5.145
60207W        W31736  34.702  26.359   4.996
60208W        W31737   8.872  31.941  11.176
60209W        W31738  31.356  18.569  14.425
60210W        W31739   3.657   1.058  11.685
60211W        W31740   8.792  33.406  14.264
60212W        W31741  31.573  31.053  13.510
60213W        W31742  22.566  11.656   0.404
60214W        W31743  27.445  41.969  13.384
60215W        W31744  20.997  35.121   2.292
60216W        W31745  40.601  16.871  12.602
60217W        W31746   7.731  35.050  12.029
60218W        W31747   8.747  39.221   0.851
60219W        W31748  10.933  26.463  13.150
60220W        W31749  12.498  20.498   4.624
60221W        W31750  18.831  24.584  14.530
60222W        W31751  18.247  21.820   4.159
60223W        W31752   6.845  25.029  13.948
60224W        W31753   5.760  12.110   1.384
60225W        W31754  18.198  35.590  13.782
60226W        W31755  43.306  28.408  13.953
60227W        W31756  11.756   0.774  12.982
60228W        W31757  26.500  37.953   2.641
60229W        W31758  15.798  12.247   4.301
60230W        W31759  35.153  37.702   3.832
60231W        W31760  42.789  32.625  13.542
60232W        W31761  35.573  31.663   3.828
60233W        W31762  31.586  21.700   2.267
60234W        W31763  11.969  33.838  13.488
60235W        W31764  33.459  13.211   0.181
60236W        W31765   8.869   6.769  14.357
60237W        W31766   5.489  14.563  10.681
60238W        W31767  22.527  26.940  11.075
60239W        W31768  33.115   9.255  10.982
60240W        W31769  29.679  42.158  11.991
60241W        W31770  34.331  10.256   0.941
60242W        W31771  22.706  39.026  12.650
60243W        W31772  23.247  37.790   1.284
60244W        W31773  25.569   4.703   0.675
60245W        W31774  40.534  13.335  12.349
60246W        W31775  31.924  21.023  12.911
60247W        W31776  30.151  15.121   2.251
60248W        W31777   6.947   5.737   3.688
60249W        W31778  44.564  15.101  11.954
60250W        W31779  16.250  32.630   1.981
60251W        W31780  16.681  33.895   4.892
60252W        W31781  11.195  44.797   0.480
60253W        W31782  17.655   8.216  10.781
60254W        W31783   2.707  14.028  14.785
60255W        W31784  34.413   8.283   3.660
60256W        W31785   6.679  37.885   3.076
60257W        W31786  11.061  35.765   1.427
60258W        W31787  15.887  12.371  12.658
60259W        W31788  34.210  32.818  12.595
60260W        W31789   7.583  18.498   4.197
60261W        W31790   1.227  32.056   3.334
60262W        W31791   1.736   1.877   3.930
60263W        W31792  43.783  23.455   2.356
60264W        W31793  44.560  22.805   3.630
60265W        W31794  31.100  33.913  13.834
60266W        W31795  40.066   0.188  10.325
60267W        W31796  44.827  19.370  14.963
60268W        W31797  37.890  31.128  14.843
60269W        W31798  11.653  24.771   3.130
60270W        W31799  36.239  19.754  14.086
60271W        W31800   3.425  18.813  11.112
60272W        W31801   3.383   1.168  11.225
60273W        W31802  12.637  18.476  14.936
60274W        W31803  26.120  34.359   2.374
60275W        W31804  21.699  16.271  12.986
60276W        W31805  36.322  25.808   3.409
60277W        W31806  16.454  30.784  12.096
60278W        W31807   0.518   5.574  11.585
60279W        W31808  17.057   3.909  14.864
60280W        W31809  17.875  27.859  10.263
60281W        W31810  11.227  20.682  12.001
60282W        W31811   4.947  17.770  11.497
60283W        W31812  40.543  33.118   3.823
60284W        W31813  13.070   6.701   0.834
60285W        W31814  41.910  18.517  12.439
60286W        W31815   8.433  19.815   0.649
60287W        W31816   1.415   3.339   1.867
60288W        W31817   2.405   9.583   0.237
60289W        W31818  36.962  37.647   0.915
60290W        W31819   6.805  43.150   2.603
60291W        W31820  40.143  30.524   4.843
60292W        W31821   2.808  14.248  10.466
60293W        W31822   5.743   1.392  12.631
60294W        W31823  13.656  26.921  11.037
60295W        W31824  26.711  32.990  13.454
60296W        W31825   8.217  39.321  11.939
60297W        W31826  44.295   4.433   0.247
60298W        W31827  23.712  19.272  13.019
60299W        W31828  10.611   4.883   2.758
60300W        W31829  33.581   4.793  14.004
60301W        W31830  26.238  11.750   0.529
60302W        W31831  24.145   6.444  11.789
60303W        W31832  27.485  33.327  11.764
60304W        W31833  43.689  23.184   2.812
60305W        W31834   2.191   1.822   4.152
60306W        W31835   2.587  28.287  14.343
60307W        W31836  44.461  34.514   0.835
60308W        W31837  27.009  20.173   2.228
60309W        W31838  33.971  24.963   4.540
60310W        W31839  11.264   1.716  10.719
60311W        W31840  23.881  37.115   1.246
60312W        W31841   4.912   9.117  10.405
60313W        W31842  15.916  12.869   3.174
60314W        W31843  11.865  20.697  12.770
60315W        W31844  29.892  21.280  13.788
60316W        W31845  40.493  41.206  14.908
60317W        W31846  34.945  41.957   2.297
60318W        W31847  41.463  14.355   4.133
60319W        W31848  35.947  35.347   3.694
60320W        W31849   6.280  42.364   2.680
60321W        W31850  10.872   5.379   3.521
60322W        W31851  41.894  26.922   1.900
60323W        W31852  15.153  39.610  11.067
60324W        W31853  22.310  31.810   3.649
60325W        W31854  16.101  12.597   4.636
60326W        W31855  41.936   4.726   1.712
60327W        W31856  38.401  35.631   4.473
60328W        W31857   9.868   3.735   0.005
60329W        W31858  33.896  10.766   3.120
60330W        W31859  36.712  38.004  11.039
60331W        W31860  35.939  30.477   3.511
60332W        W31861  34.006  28.374   0.816
60333W        W31862  20.704   5.594   4.609
60334W        W31863  25.113  19.281  14.228
60335W        W31864  31.474  30.561   1.799
60336W        W31865  39.269  36.556  14.363
60337W        W31866  27.529  27.522  12.366
60338W        W31867   3.141  36.878  12.579
60339W        W31868  42.193  22.157   0.162
60340W        W31869  41.612   1.241   2.193
60341W        W31870  22.209  44.484  11.593
60342W        W31871  37.840  34.427   2.714
60343W        W31872  42.719   4.303   0.892
60344W        W31873   3.998  16.384  13.337
60345W        W31874  22.403  11.937  13.386
60346W        W31875  32.060  40.911  10.739
60347W        W31876   9.438  35.054   0.355
60348W        W31877   4.882  26.196  13.536
60349W        W31878  39.632  39.765   2.421
60350W        W31879  33.922  29.011   0.386
60351W        W31880  15.639  29.626   1.923
60352W        W31881  40.863  14.756  11.195
60353W        W31882  21.600  39.856  11.080
60354W        W31883  28.939  38.295  14.311
60355W        W31884  36.426   5.354  14.552
60356W        W31885  33.679   9.728   1.395
60357W        W31886   1.291  39.513  12.497
60358W        W31887   0.442  20.804  12.586
60359W        W31888  30.903  13.871   0.398
60360W        W31889  23.725  18.681   0.833
60361W        W31890  10.720  35.850  10.744
60362W        W31891  34.359  18.446  11.594
60363W        W31892  39.818  24.575  10.793
60364W        W31893  22.179  31.677   1.675
60365W        W31894  42.074  35.366  11.579
60366W        W31895   3.956  35.261  10.211
60367W        W31896   8.688  44.768   1.384
60368W        W31897  27.717   2.786   1.441
60369W        W31898  43.991  10.125   0.793
60370W        W31899  20.586  34.203  13.914
60371W        W31900  19.319  29.349  14.480
60372W        W31901  35.839  10.155   2.784
60373W        W31902  43.747  37.606  14.775
60374W        W31903  30.097  25.166  10.662
60375W        W31904  11.376   8.048  13.535
60376W        W31905  16.536  16.736  13.256
60377W        W31906   8.181  16.961  12.577
60378W        W31907   3.881  21.711  12.370
60379W        W31908   9.554  15.129  12.116
60380W        W31909  13.722  21.173  14.823
60381W        W31910  32.164  20.883  13.367
60382W        W31911  37.984  11.831  10.687
60383W        W31912   6.578  25.086   0.371
60384W        W31913  20.314  15.672  13.281
60385W        W31914  40.749  33.413  13.309
60386W        W31915   8.729  39.592  12.005
60387W        W31916  21.599  42.936   1.335
60388W        W31917  29.676  14.879  13.349
60389W        W31918   0.292  30.998  11.205
60390W        W31919   5.352   6.975   1.743
60391W        W31920  11.810   6.749  14.273
60392W        W31921  27.945  39.472  11.996
60393W        W31922   9.857  13.128   0.204
60394W        W31923  20.299  44.998  13.946
60395W        W31924  35.857  32.932   0.337
60396W        W31925  40.418   1.782  12.044
60397W        W31926  18.519  30.825   5.772
60398W        W31927  20.771  29.073   4.677
60399W        W31928  38.899   9.792   4.410
60400W        W31929  43.042  34.463   0.491
60401W        W31930  26.077  17.157   4.908
60402W        W31931   7.397  15.137   2.093
60403W        W31932  17.733  38.316   0.951
60404W        W31933  29.604   3.375   0.435
60405W        W31934  28.636   4.286  12.329
60406W        W31935   7.890  43.326   1.298
60407W        W31936   8.953   1.466  11.673
60408W        W31937  32.935  38.983  12.403
60409W        W31938  18.602  38.282   2.254
60410W        W31939  40.421  33.503  14.199
60411W        W31940  11.208   7.566   3.768
60412W        W31941  15.838  15.778   4.629
60413W        W31942  28.475  32.867  13.927
60414W        W31943  22.703  34.275   2.996
60415W        W31944   4.071  37.077   3.595
60416W        W31945   3.901  40.148   4.657
60417W        W31946   3.493  37.771  14.855
60418W        W31947   5.646   3.362  14.967
60419W        W31948   1.771  11.787   0.362
60420W        W31949  10.255  28.851  12.836
60421W        W31950   3.073   4.464  14.669
60422W        W31951  38.422   2.907  13.973
60423W        W31952  18.153  35.483  11.567
60424W        W31953   0.248  25.772   3.295
60425W        W31954  11.087  19.039  13.954
60426W        W31955  36.297  41.858  10.766
60427W        W31956   1.080  32.953   4.994
60428W        W31957  36.015  10.061   0.471
60429W        W31958  29.581  34.658  11.526
60430W        W31959  16.743  31.599   2.105
60431W        W31960  11.841  42.740  12.965
60432W        W31961  18.212  32.850  10.604
60433W        W31962  30.482   8.150  11.182
60434W        W31963  13.107  33.833   3.765
60435W        W31964  25.955  16.732   4.554
60436W        W31965   9.586   4.486  11.540
60437W        W31966   5.370   9.855   1.393
60438W        W31967  38.971  25.856   1.776
60439W        W31968  12.602   2.429   0.079
60440W        W31969  24.569  30.052  11.372
60441W        W31970   0.886  30.627  10.134
60442W        W31971  16.602   0.288   1.457
60443W        W31972  13.114  29.677   3.152
60444W        W31973  42.046  11.165   1.315
60445W        W31974   7.424  27.236  11.024
60446W        W31975  35.899   7.414  14.485
60447W        W31976  24.708  19.096  12.932
60448W        W31977  23.737  20.908   0.556
60449W        W31978  20.097  25.119   2.215
60450W        W31979  41.543  11.745  10.831
60451W        W31980   1.696   2.752  12.595
60452W        W31981  19.609   8.587   2.138
60453W        W31982  44.510  31.787   0.292
60454W        W31983  21.193  35.051   0.866
60455W        W31984  26.314  36.896  10.749
60456W        W31985  40.987  18.065   4.163
60457W        W31986  31.358   7.772  11.279
60458W        W31987   2.943   1.588   1.859
60459W        W31988  42.907  16.635   4.438
60460W        W31989  27.610  14.209  11.165
60461W        W31990  16.860  26.672   0.773
60462W        W31991  27.456  24.804   1.915
60463W        W31992  32.869  24.140   4.191
60464W        W31993  40.647  19.726  11.951
60465W        W31994  19.182  11.799   0.751
60466W        W31995  12.289   7.930  13.272
60467W        W31996  23.409  25.617   1.688
60468W        W31997  22.937  10.187  14.315
60469W        W31998  16.549  36.188  14.295
60470W        W31999  10.679  11.120   3.250
60471W        W32000   9.716   3.759  13.578
60472W        W32001  18.356  39.426  11.150
60473W        W32002   3.792  24.223  11.393
60474W        W32003  32.861  29.586   4.336
60475W        W32004  21.101   8.310  11.213
60476W        W32005  26.123  42.358   5.082
60477W        W32006  37.983  32.596   0.907
60478W        W32007  15.202  16.325   2.940
60479W        W32008  22.030  20.274  13.104
60480W        W32009  24.241  18.515  13.525
60481W        W32010  13.107  13.208   0.680
60482W        W32011   3.357  19.413   5.007
60483W        W32012   3.685  37.591   1.651
60484W        W32013  18.629  37.889   5.008
60485W        W32014  24.606  25.754   4.966
60486W        W32015  26.307  33.596   0.431
60487W        W32016  36.990  26.131  11.561
60488W        W32017  13.149  31.821  13.922
60489W        W32018   8.819  10.665  12.019
60490W        W32019  28.461  13.877   4.995
60491W        W32020  19.798  19.660   4.569
60492W        W32021   7.848  10.496  14.038
60493W        W32022  19.825  21.625   3.041
60494W        W32023  29.151  44.805   2.181
60495W        W32024  14.121  15.136  14.078
60496W        W32025   2.737  41.646   3.068
60497W        W32026  15.844  43.086   0.994
60498W        W32027   1.978  41.735   1.862
60499W        W32028  29.977  29.024   4.769
60500W        W32029  23.096   2.269   3.654
60501W        W32030  34.586   7.863  14.589
60502W        W32031  10.256  10.800   3.212
60503W        W32032  39.041   8.674   1.336
60504W        W32033  43.935   6.927  13.446
60505W        W32034  22.697  23.583   3.137
60506W        W32035  30.081  19.590  12.947
60507W        W32036  24.218  11.756   2.506
60508W        W32037   8.908  31.280  13.653
60509W        W32038   7.695  16.237   4.564
60510W        W32039  31.342  43.356  12.705
60511W        W32040  29.416   4.865  12.531
60512W        W32041  24.756   4.275   0.604
60513W        W32042  17.259  30.266   4.943
60514W        W32043  40.281  12.829   4.069
60515W        W32044  35.075   1.784   1.801
60516W        W32045   1.931   9.808   3.312
60517W        W32046  33.389  21.056   0.743
60518W        W32047  38.803  31.853   2.858
60519W        W32048  16.226  18.152  12.558
60520W        W32049   3.536  44.638   0.432
60521W        W32050  28.835  21.740  11.636
60522W        W32051  21.200  34.600   0.517
60523W        W32052  19.519  43.469  12.000
60524W        W32053  13.643  25.616  10.431
60525W        W32054  21.335   1.902   2.784
60526W        W32055  14.050  32.836  11.877
60527W        W32056  36.808  13.486  11.615
60528W        W32057  42.356  41.268   3.478
60529W        W32058  35.867  26.957  11.928
60530W        W32059  34.595  11.364   2.789
60531W        W32060  18.542  33.591  14.250
60532W        W32061  26.794  33.811   2.340
60533W        W32062  15.644  18.258  10.896
60534W        W32063  17.476  30.173  11.475
60535W        W32064  28.069  34.502   2.742
60536W        W32065  35.328  13.384   2.753
60537W        W32066  20.007   6.802  11.178
60538W        W32067  25.564  16.472   1.690
60539W        W32068  11.362   4.006   3.175
60540W        W32069   4.260  38.818   4.554
60541W        W32070  40.822  37.154   1.483
60542W        W32071  18.749  14.018   4.182
60543W        W32072  24.058  30.088  11.132
60544W        W32073  21.306   6.172  14.034
60545W        W32074  25.403  19.236   0.405
60546W        W32075  27.407  32.099   1.333
60547W        W32076  32.380  33.537  10.060
60548W        W32077  30.666  43.354   1.666
60549W        W32078  28.717  12.408  14.454
60550W        W32079   1.870  34.058  11.526
60551W        W32080  31.609  28.470  13.521
60552W        W32081   6.668   7.678   4.799
60553W        W32082  31.203   7.919   4.761
60554W        W32083  23.743  13.901   3.634
60555W        W32084  23.008  40.351   2.641
60556W        W32085  38.301  27.919   4.104
60557W        W32086  29.002   6.756   3.825
60558W        W32087  33.268  12.523  11.471
60559W        W32088  23.723  14.431   2.690
60560W        W32089  40.943  18.540  11.187
60561W        W32090  26.685  35.529  13.421
60562W        W32091  33.533  35.026  13.515
60563W        W32092  31.161  19.654   5.060
60564W        W32093   5.777  37.835   4.143
60565W        W32094  24.926  41.106   1.678
60566W        W32095   7.713  32.972   2.383
60567W        W32096  34.621  31.424  14.401
60568W        W32097  32.942  23.125  14.713
60569W        W32098  35.413   4.286   4.203
60570W        W32099  26.357   1.719   3.272
60571W        W32100  14.751  21.227  14.720
60572W        W32101   5.666   1.705   4.136
60573W        W32102  28.451  37.807   3.752
60574W        W32103   2.611  26.035   3.262
60575W        W32104  26.210  29.485  14.959
60576W        W32105  15.538  31.995   1.958
60577W        W32106  17.204  24.155   1.424
60578W        W32107  17.636  27.936  10.723
60579W        W32108  26.517  31.799  10.989
60580W        W32109  44.366   0.298  14.425
60581W        W32110  18.759  16.116   2.437
60582W        W32111  22.461  44.497  13.356
60583W        W32112  35.947  10.127   3.701
60584W        W32113   7.104  43.887   1.171
60585W        W32114  34.631  37.344   4.752
60586W        W32115  44.859  12.877   2.328
60587W        W32116  16.764  15.238   3.606
60588W        W32117  10.935  18.352  12.889
60589W        W32118   9.544  19.819  11.674
60590W        W32119  38.242   6.818  12.546
60591W        W32120  23.236   1.750   0.442
60592W        W32121  34.233   4.452  12.083
60593W        W32122   0.845  31.124   1.021
60594W        W32123   9.360  13.622  13.030
60595W        W32124  31.582  18.761   4.739
60596W        W32125  36.371  42.360   2.233
60597W        W32126  25.947  40.767   1.747
60598W        W32127  33.368  20.059   3.431
60599W        W32128  12.971  39.076  14.489
60600W        W32129  21.499  30.161   3.926
60601W        W32130   5.876  23.604   2.815
60602W        W32131  20.394   9.102   1.177
60603W        W32132  19.739  29.640  14.417
60604W        W32133  14.116  12.836  12.845
60605W        W32134  35.269  35.490   2.639
60606W        W32135  44.940  27.636   4.093
60607W        W32136  39.056  37.317   0.010
60608W        W32137  29.500  42.518  14.828
60609W        W32138   6.339   9.960  10.808
60610W        W32139  11.505   8.256  10.479
60611W        W32140  26.631  23.641  14.973
60612W        W32141  30.906  32.392  13.983
60613W        W32142  39.870   4.741  10.359
60614W        W32143  25.106  29.288   3.681
60615W        W32144  21.443  10.928   4.293
60616W        W32145  30.911  24.553   3.668
60617W        W32146  35.474  10.417  14.737
60618W        W32147   5.469  36.610  12.381
60619W        W32148   0.990  24.498  13.718
60620W        W32149   5.930  23.396  12.095
60621W        W32150  31.825  10.551  13.005
60622W        W32151   6.147  11.857  11.674
60623W        W32152  44.511  23.787  14.396
60624W        W32153  36.537  18.729  12.543
60625W        W32154  28.178  11.019   4.637
60626W        W32155  34.626  12.764   1.167
60627W        W32156  24.994   1.650  13.928
60628W        W32157  40.608  16.816  14.583
60629W        W32158  29.700  18.306  13.950
60630W        W32159   6.558  31.620  11.985
60631W        W32160   5.186  42.815   3.611
60632W        W32161   7.402  10.058   0.793
60633W        W32162  37.284  23.314   0.043
60634W        W32163  27.678  35.558   4.652
60635W        W32164  40.303   4.892  11.710
60636W        W32165  40.833  40.757  11.957
60637W        W32166  22.657  39.452  11.951
60638W        W32167  13.097   2.825   1.716
60639W        W32168  38.428  39.647  12.064
60640W        W32169  44.355  27.661  10.570
60641W        W32170  32.532  37.544  11.203
60642W        W32171   0.867   3.774   4.221
60643W        W32172  11.287  25.533   0.237
60644W        W32173  28.503   0.886   4.102
60645W        W32174  42.022   7.279   0.084
60646W        W32175   0.258   0.437   2.794
60647W        W32176   6.972  43.493  11.050
60648W        W32177  17.655   7.839   4.187
60649W        W32178  12.294  41.066  14.754
60650W        W32179  37.806  39.782  12.617
60651W        W32180  26.153  12.113   4.767
60652W        W32181  39.306  16.486  10.380
60653W        W32182  21.794  24.033  14.411
60654W        W32183  20.131  14.799  12.633
60655W        W32184   7.928  24.104   2.411
60656W        W32185  12.637   6.992   1.530
60657W        W32186  25.734  40.211  11.591
60658W        W32187  38.728   6.197  14.452
60659W        W32188  13.986  21.720   4.011
60660W        W32189   7.168  12.267   1.727
60661W        W32190   7.499  30.616   4.050
60662W        W32191  36.051  16.690  10.494
60663W        W32192   6.096  36.731   2.863
60664W        W32193  11.983  18.220  14.937
60665W        W32194  13.693   6.955   2.375
60666W        W32195   3.958  10.599   4.636
60667W        W32196  29.005   9.407  12.992
60668W        W32197  25.490  20.521   0.846
60669W        W32198   5.508  15.222   2.629
60670W        W32199  41.746  44.250  13.028
60671W        W32200  29.436  15.290  13.099
60672W        W32201   4.470  41.253  13.063
60673W        W32202  29.070  41.016  12.798
60674W        W32203   5.325  41.635   3.274
60675W        W32204   7.850  28.988  13.900
60676W        W32205  37.723  17.697   2.259
60677W        W32206  27.648  43.227   3.127
60678W        W32207  35.522  44.405   0.969
60679W        W32208  40.637  19.455  10.166
60680W        W32209  19.803   0.065  13.784
60681W        W32210   9.844  34.335  14.425
60682W        W32211  15.145  43.148  13.007
60683W        W32212   1.281  20.365   1.929
60684W        W32213  35.469  33.570  14.236
60685W        W32214  37.603  32.254   2.168
60686W        W32215  36.020  18.627  11.488
60687W        W32216  14.442  20.121   5.480
60688W        W32217   5.656   2.198   3.937
60689W        W32218  22.152  26.388  14.432
60690W        W32219  28.006   3.452  11.568
60691W        W32220  41.057   6.970   2.701
60692W        W32221  43.316  27.999   4.077
60693W        W32222  43.709  37.778  13.409
60694W        W32223  32.621   8.910   3.863
60695W        W32224  39.002  28.926  12.933
60696W        W32225  23.941  12.331  12.271
60697W        W32226  36.397  23.162  11.047
60698W        W32227  11.677  23.833   0.345
60699W        W32228  17.696  36.378  14.834
60700W        W32229  35.974   1.801   4.078
60701W        W32230  20.222  43.531  12.705
60702W        W32231   2.360  44.495  14.775
60703W        W32232  12.305  19.783  13.110
60704W        W32233   0.306  21.642   1.462
60705W        W32234  34.886  10.257   2.283
60706W        W32235  44.087  31.187  10.844
60707W        W32236  32.489  12.717  14.915
60708W        W32237  34.345  14.814  12.634
60709W        W32238  27.711   1.390   2.523
60710W        W32239  36.585  29.453   2.718
60711W        W32240  23.244  20.167   2.862
60712W        W32241  17.111  39.855  11.995
60713W        W32242  28.059   1.358   1.293
60714W        W32243   9.973  37.491  10.792
60715W        W32244   5.745  30.722  11.953
60716W        W32245  19.299   5.636  14.907
60717W        W32246  42.610   1.969   2.902
60718W        W32247   0.121  33.169   0.753
60719W        W32248  41.955  35.745   1.029
60720W        W32249  22.034  16.828   4.589
60721W        W32250  30.064   4.871   0.416
60722W        W32251   9.347  21.456   0.411
60723W        W32252  27.986  16.833   1.251
60724W        W32253  34.690  26.077  12.223
60725W        W32254  14.304  42.085  13.868
60726W        W32255  37.438  33.874  13.842
60727W        W32256  32.492  43.156  10.254
60728W        W32257  22.598   6.457   4.146
60729W        W32258  36.023  28.515  12.962
60730W        W32259  43.478   7.633   2.287
60731W        W32260  20.549  41.917  14.989
60732W        W32261  15.957  19.050   4.628
60733W        W32262  19.210  12.524  14.606
60734W        W32263  18.939  40.343   0.971
60735W        W32264  34.955  22.033  14.594
60736W        W32265  25.617   2.423  14.778
60737W        W32266  23.311  39.926   2.744
60738W        W32267  36.067  41.552   4.576
60739W        W32268  31.915  21.634   3.680
60740W        W32269  15.479  41.938   0.935
60741W        W32270  36.467  31.637   0.496
60742W        W32271  21.240  24.401  13.380
60743W        W32272  41.911  44.488   0.704
60744W        W32273  27.992  40.581   5.047
60745W        W32274  37.507  33.216   4.489
60746W        W32275  10.330  19.747   3.651
60747W        W32276  38.856  32.123   2.367
60748W        W32277   3.500  42.267  11.678
60749W        W32278   0.894   0.603  11.080
60750W        W32279  16.574  27.874   0.076
60751W        W32280  26.523   4.052   4.328
60752W        W32281  37.338  40.819  14.173
60753W        W32282  19.241  17.221  10.487
60754W        W32283  40.688  34.383   1.158
60755W        W32284  44.353  25.500   4.494
60756W        W32285  26.684  33.675   4.143
60757W        W32286  20.222   5.479   0.063
60758W        W32287  16.483  38.908   4.619
60759W        W32288  38.912  12.197  10.944
60760W        W32289  14.672   0.049  14.022
60761W        W32290  16.696  19.586   2.717
60762W        W32291  38.939   3.746  12.734
60763W        W32292  24.717  38.289  13.365
60764W        W32293  28.775   4.679  11.421
60765W        W32294  18.768  37.878   3.648
60766W        W32295  20.184  31.601   2.706
60767W        W32296  18.649  15.899  13.574
60768W        W32297  33.580   1.567   4.440
60769W        W32298  36.945   9.239  12.336
60770W        W32299  40.260  28.945  11.966
60771W        W32300  14.635  32.448  13.734
60772W        W32301  40.311  32.892   2.420
60773W        W32302   9.164  19.529   1.251
60774W        W32303  31.546  20.846   4.031
60775W        W32304  10.418  15.982  12.650
60776W        W32305   9.320   6.414   0.844
60777W        W32306  25.972  13.210   2.860
60778W        W32307   6.194   2.842   4.470
60779W        W32308  35.453  23.218  11.201
60780W        W32309  44.194  40.444  13.333
60781W        W32310  41.292   4.028  14.066
60782W        W32311  38.474  39.846   1.741
60783W        W32312  42.437  13.118   2.842
60784W        W32313  18.761   1.542  12.011
60785W        W32314  14.594  13.888  12.274
60786W        W32315  36.911   7.415  10.549
60787W        W32316   9.004  12.341  11.588
60788W        W32317   8.831  23.256   0.421
60789W        W32318  39.032  17.241   1.277
60790W        W32319  32.836  13.885   0.397
60791W        W32320  18.059  33.036   3.367
60792W        W32321  27.411  42.042  10.659
60793W        W32322  15.927  21.085  14.040
60794W        W32323  43.817  26.211   1.728
60795W        W32324   2.057  28.351  14.351
60796W        W32325  25.719  30.718  11.948
60797W        W32326  43.030   7.281   1.726
60798W        W32327  43.843  36.098  11.111
60799W        W32328  20.112  12.642  11.371
60800W        W32329  39.468   6.331   4.748
60801W        W32330  16.734   5.552  11.038
60802W        W32331   6.853  27.519  13.412
60803W        W32332  40.356   0.214   3.913
60804W        W32333  34.356  36.897   3.070
60805W        W32334  19.007  40.800   2.671
60806W        W32335  11.265  18.605   2.296
60807W        W32336  44.361  32.643  14.917
60808W        W32337  41.240  44.921   3.447
60809W        W32338  12.960  19.748  12.491
60810W        W32339  13.220   7.222   4.517
60811W        W32340   1.253   7.946   0.402
60812W        W32341  35.657  11.697   2.662
60813W        W32342   6.693  20.049   1.893
60814W        W32343  42.019  40.779   3.624
60815W        W32344  43.113  21.779  14.505
60816W        W32345  30.315  26.133   0.399
60817W        W32346  40.271  33.539   3.666
60818W        W32347  40.263   3.468   2.925
60819W        W32348   0.485  39.885   3.815
60820W        W32349  32.449  36.248   3.255
60821W        W32350  28.531   1.795   4.045
60822W        W32351  25.148  16.167   2.454
60823W        W32352  28.122  24.625   3.653
60824W        W32353  24.007  40.059  13.609
60825W        W32354  14.865  17.268   2.120
60826W        W32355  28.101   1.661   4.618
60827W        W32356   3.465  17.875  10.643
60828W        W32357  26.216  17.029  13.290
60829W        W32358  39.797  39.816  10.757
60830W        W32359  31.183  16.637   2.068
60831W        W32360   6.301  35.376  13.198
60832W        W32361  39.251  25.058   4.556
60833W        W32362   7.185  40.794   0.258
60834W        W32363  43.365  22.160  12.063
60835W        W32364  28.742  40.355   1.839
60836W        W32365   7.708  16.117   2.695
60837W        W32366  21.244  11.466   0.297
60838W        W32367  11.882  13.823   1.816
60839W        W32368  12.582  39.549  11.556
60840W        W32369  15.496  39.699   0.309
60841W        W32370   2.435  37.960   1.384
60842W        W32371   2.568  25.297   2.786
60843W        W32372   2.298  22.772  12.592
60844W        W32373  30.456  12.954   4.865
60845W        W32374  24.003  25.486   0.437
60846W        W32375   1.980  42.178  12.878
60847W        W32376  36.633  16.254  12.398
60848W        W32377   2.955  28.128  13.586
60849W        W32378  12.631  33.998  14.380
60850W        W32379  22.186   8.819  11.637
60851W        W32380   1.393  40.809  11.448
60852W        W32381   6.684   5.794  11.439
60853W        W32382  30.201  19.057  13.889
60854W        W32383  32.896  39.647   4.638
60855W        W32384   1.380  32.162   2.577
60856W        W32385  31.183   3.220  14.815
60857W        W32386  42.569  30.562  12.471
60858W        W32387  14.136  33.713  13.038
60859W        W32388  16.674  27.825   1.382
60860W        W32389   9.876  17.190   1.815
60861W        W32390  33.030  42.629  13.398
60862W        W32391   1.868   8.641   1.693
60863W        W32392  18.535  42.320  13.470
60864W        W32393  36.333  11.343   3.579
60865W        W32394  31.384  14.325  11.662
60866W        W32395  17.089  44.790  13.248
60867W        W32396  37.869  16.579  11.986
60868W        W32397  18.285  13.752  12.624
60869W        W32398  25.576  14.327   3.665
60870W        W32399  41.893   6.604  12.021
60871W        W32400  20.002  29.251  11.497
60872W        W32401  25.234  38.117  13.858
60873W        W32402  15.071  41.684   3.904
60874W        W32403  11.394  41.834  12.997
60875W        W32404  12.071  32.026  12.482
60876W        W32405   5.139  35.421  12.730
60877W        W32406  21.157  12.103  12.041
60878W        W32407   2.809  13.250  13.844
60879W        W32408  24.748  34.294  13.746
60880W        W32409   5.519  31.078   1.385
60881W        W32410  19.639  19.351   4.944
60882W        W32411  15.328  42.287   2.277
60883W        W32412  19.404  30.996  12.491
60884W        W32413  27.093   7.133   0.907
60885W        W32414  39.300  29.522   1.250
60886W        W32415   4.759   5.932   4.058
60887W        W32416  12.905  20.301   2.211
60888W        W32417  38.368  28.530  11.546
60889W        W32418  41.945  17.467   1.711
60890W        W32419  25.342   1.924  14.876
60891W        W32420  39.229   2.677   0.940
60892W        W32421   4.210  33.284   2.427
60893W        W32422  37.295  10.561   4.178
60894W        W32423  13.929  15.826   3.650
60895W        W32424  35.432  28.354  14.962
60896W        W32425  30.623  38.322  10.757
60897W        W32426  20.257  34.690   2.894
60898W        W32427  10.397  32.046  13.335
60899W        W32428   4.295  43.273   3.814
60900W        W32429  21.477  23.199   2.739
60901W        W32430  17.810  17.994  11.955
60902W        W32431  44.075  17.122   0.427
60903W        W32432   5.817   2.322   3.437
60904W        W32433  25.347  17.739   2.752
60905W        W32434  19.622  14.160   1.736
60906W        W32435   5.646  14.570  13.942
60907W        W32436   9.641   3.850   3.663
60908W        W32437  32.368  43.835  11.488
60909W        W32438  12.868  33.592   0.326
60910W        W32439  21.614  44.554   2.810
60911W        W32440  37.639  15.707  14.891
60912W        W32441  12.768  20.111   1.710
60913W        W32442  35.580   5.083  11.947
60914W        W32443  15.628  35.116  10.524
60915W        W32444  16.686  18.375  10.017
60916W        W32445  41.385  15.270  10.724
60917W        W32446  44.925  32.441   0.374
60918W        W32447   7.337  32.652  13.049
60919W        W32448  28.926  17.361  14.935
60920W        W32449   4.939  24.438   4.148
60921W        W32450   8.715  23.067   0.932
60922W        W32451  41.344  27.983   3.221
60923W        W32452  41.064  17.535  12.843
60924W        W32453   9.619  18.607  13.420
60925W        W32454  22.617   1.302  12.629
60926W        W32455  38.288  14.426   0.341
60927W        W32456  33.496  43.510   2.843
60928W        W32457  33.740  13.095  11.070
60929W        W32458   3.449  26.960   4.584
60930W        W32459  40.298  41.363   0.801
60931W        W32460  39.493   3.776   2.486
60932W        W32461  40.868   3.049  13.353
60933W        W32462  27.159  23.940   4.097
60934W        W32463  29.604   3.431   2.772
60935W        W32464  39.061   6.700  10.223
60936W        W32465  39.098  20.258  11.381
60937W        W32466  39.576  11.749   2.627
60938W        W32467  10.931  35.082  11.482
60939W        W32468  40.511  25.640  14.023
60940W        W32469  38.357  13.574  11.152
60941W        W32470   0.232  27.046  12.905
60942W        W32471  29.961  15.150   3.099
60943W        W32472  23.145  32.060   4.114
60944W        W32473  16.732   7.762   4.053
60945W        W32474  10.131  19.129   1.186
60946W        W32475  35.803  15.070  11.672
60947W        W32476  15.728  32.994   1.781
60948W        W32477  13.690  10.645   4.476
60949W        W32478  31.261   5.460   3.235
60950W        W32479  24.462  18.897   3.385
60951W        W32480  10.181  21.208   1.762
60952W        W32481  33.470  44.569   2.842
60953W        W32482  44.328  44.978  10.729
60954W        W32483  10.758  23.007  12.049
60955W        W32484  22.349   6.085   1.010
60956W        W32485  26.650  31.892  13.416
60957W        W32486   3.963  16.619  11.984
60958W        W32487  23.141   6.392   4.010
60959W        W32488  10.066  30.300  11.244
60960W        W32489  21.006  26.843  11.891
60961W        W32490  41.395  44.283  11.014
60962W        W32491  24.286  34.523  13.782
60963W        W32492  12.319  11.814  13.834
60964W        W32493  35.628  25.108  13.361
60965W        W32494   0.990  13.287  11.739
60966W        W32495  36.128  32.502   4.809
60967W        W32496  40.380  42.910  14.139
60968W        W32497  19.133  28.889  12.264
60969W        W32498  11.151   7.783  14.935
60970W        W32499  44.750  10.920   3.122
60971W        W32500  41.427  37.339  12.483
60972W        W32501  25.191  21.626   5.036
60973W        W32502  22.927  16.298  12.635
60974W        W32503  35.402   6.495  14.397
60975W        W32504  29.150  43.949  13.087
60976W        W32505  11.561  38.402   3.162
60977W        W32506  22.287  43.983   2.272
60978W        W32507   3.774   2.543  12.342
60979W        W32508   2.237  24.970   1.743
60980W        W32509  31.963  22.169  11.160
60981W        W32510  20.669  38.615   2.807
60982W        W32511  29.951  32.617  12.986
60983W        W32512   1.817   0.185   3.509
60984W        W32513  31.867   3.707   2.713
60985W        W32514  14.968  28.919   0.043
60986W        W32515   0.108  12.239  12.059
60987W        W32516   5.814  12.052   2.936
60988W        W32517  44.408   2.787   4.210
60989W        W32518   7.630  35.044   3.045
60990W        W32519  39.516  40.562  11.928
60991W        W32520  42.847   0.715  11.222
60992W        W32521  36.506  40.005  13.781
60993W        W32522  26.639  25.608  12.961
60994W        W32523   8.322  17.851  13.993
60995W        W32524   1.038   9.207  12.151
60996W        W32525  39.232   5.144   0.961
60997W        W32526  32.540   3.251  10.631
60998W        W32527  33.883  41.340   4.523
60999W        W32528  33.820  42.656  14.729
61000W        W32529  35.039  25.280   3.593
61001W        W32530  43.774  42.069   1.053
61002W        W32531  33.456   7.450   1.291
61003W        W32532  44.306  14.548  13.169
61004W        W32533   6.469  24.676   2.581
61005W        W32534  22.758   3.776  13.825
61006W        W32535  14.148  36.684   2.730
61007W        W32536  19.910  36.886   4.432
61008W        W32537  40.540  26.035  11.204
61009W        W32538  30.777  29.598  11.185
61010W        W32539   9.921  34.917   1.209
61011W        W32540  27.059  44.049   0.867
61012W        W32541  42.577  35.450  14.444
61013W        W32542  21.730  29.395   1.779
61014W        W32543  16.794   0.712   2.367
61015W        W32544  41.632   9.490   3.560
61016W        W32545  43.075  32.905  11.964
61017W        W32546  31.894  15.135  14.388
61018W        W32547  40.991   3.186   3.217
61019W        W32548  39.763  16.678  12.870
61020W        W32549  31.320  12.019  12.881
61021W        W32550  15.691   4.644  11.611
61022W        W32551  30.652  13.806  14.962
61023W        W32552  30.393  38.723   2.271
61024W        W32553  15.117   8.676  14.786
61025W        W32554   8.202  38.487   0.494
61026W        W32555  29.668  38.914  12.927
61027W        W32556  19.259  33.818  14.717
61028W        W32557  34.027   0.479  14.335
61029W        W32558  31.582  26.661   4.477
61030W        W32559   7.492  23.177  10.530
61031W        W32560  14.994   6.708  14.322
61032W        W32561   6.715  42.084  11.027
61033W        W32562  21.633  27.582  11.906
61034W        W32563   3.241  23.497  14.986
61035W        W32564  20.512  36.643  12.500
61036W        W32565  15.893  32.630   2.392
61037W        W32566  10.603   7.606  14.858
61038W        W32567  19.176   9.968   2.258
61039W        W32568   3.435  24.430   1.586
61040W        W32569   1.357  40.017  12.404
61041W        W32570  36.443  26.983  10.672
61042W        W32571  30.221   0.815   0.273
61043W        W32572  20.364  23.175  12.391
61044W        W32573  27.221   1.844  13.524
61045W        W32574  43.245  13.662   0.991
61046W        W32575  23.629   9.938  13.498
61047W        W32576  39.251  13.207   2.170
61048W        W32577   1.959  35.003   3.673
61049W        W32578  13.287  14.263   4.139
61050W        W32579  16.679  42.283  14.434
61051W        W32580  24.734   4.255   1.317
61052W        W32581  33.981  12.640   3.786
61053W        W32582   7.275  32.941  11.703
61054W        W32583  11.474  32.685  12.878
61055W        W32584  23.532  12.118   4.693
61056W        W32585  31.381   6.450   0.986
61057W        W32586   0.231  17.831   2.799
61058W        W32587  38.534  41.003   0.798
61059W        W32588   3.900  31.085  13.450
61060W        W32589  26.151  10.071  11.546
61061W        W32590   8.713  22.049   0.112
61062W        W32591  41.042  29.206   4.403
61063W        W32592   9.868  13.346   3.789
61064W        W32593  22.565  12.809   0.982
61065W        W32594   1.445  40.833  12.979
61066W        W32595   2.873   9.721  12.862
61067W        W32596   5.881  30.373   1.759
61068W        W32597   3.273  25.236   1.902
61069W        W32598   3.021   8.986  13.561
61070W        W32599  21.142  20.129   2.077
61071W        W32600   8.668  33.345   3.816
61072W        W32601   1.158  31.978   2.152
61073W        W32602  11.233  23.606   4.579
61074W        W32603   9.849  11.939   3.643
61075W        W32604  33.568  15.301   3.722
61076W        W32605  20.283  12.926   0.269
61077W        W32606  26.148  28.756  12.384
61078W        W32607  38.811  32.446  12.294
61079W        W32608  24.747   0.217  14.068
61080W        W32609   1.363  13.633  14.997
61081W        W32610  25.142  23.729   2.396
61082W        W32611  26.496  14.620   4.544
61083W        W32612  40.897  44.671  14.046
61084W        W32613   9.246  20.275   4.682
61085W        W32614  20.499  11.777   4.163
61086W        W32615  10.786  30.596  13.029
61087W        W32616  24.416  39.792   3.733
61088W        W32617  18.485  37.000  14.039
61089W        W32618  30.868  13.308  13.453
61090W        W32619  35.017  24.952  14.624
61091W        W32620   6.843  27.509  11.609
61092W        W32621  22.519  42.464   1.343
61093W        W32622  40.912  22.282  12.036
61094W        W32623  31.578  15.829   1.757
61095W        W32624  42.444  44.511  13.361
61096W        W32625   6.715   9.216   4.845
61097W        W32626  21.227  15.620   3.713
61098W        W32627  42.560   2.968   4.141
61099W        W32628   2.343   1.840  13.830
61100W        W32629  34.733   5.933   0.242
61101W        W32630   6.865   6.244  10.630
61102W        W32631   3.879  24.696   3.276
61103W        W32632  13.284   6.610   2.676
61104W        W32633  21.011  10.026   2.326
61105W        W32634  12.167  18.278   3.453
61106W        W32635   8.383  25.881  13.466
61107W        W32636  37.939  41.835   1.691
61108W        W32637  32.863  17.869   3.685
61109W        W32638  34.351   5.061  10.786
61110W        W32639  26.621  38.382   0.306
61111W        W32640  44.752  31.296   2.779
61112W        W32641  26.928  38.986   2.738
61113W        W32642  36.367  30.901   3.654
61114W        W32643  30.727  41.115   4.840
61115W        W32644  40.917   5.743  12.503
61116W        W32645  12.619  36.922   0.932
61117W        W32646  32.200   3.316  11.382
61118W        W32647   3.193  21.976   4.638
61119W        W32648   1.680  43.101   3.254
61120W        W32649  41.538  32.533  11.665
61121W        W32650  30.856  11.777  10.754
61122W        W32651  35.361  10.280   2.933
61123W        W32652  11.236  33.655   2.266
61124W        W32653   6.410  42.574   4.201
61125W        W32654  44.798  38.862   4.147
61126W        W32655  37.542  27.544   2.595
61127W        W32656   4.772  31.101  13.906
61128W        W32657  12.260  12.103  13.404
61129W        W32658   1.950  30.112   2.631
61130W        W32659  43.534  33.510  14.468
61131W        W32660  41.877   7.695  14.813
61132W        W32661   7.382  11.784   1.461
61133W        W32662  10.415  17.174   3.174
61134W        W32663  17.682  25.532  11.927
61135W        W32664  15.256   9.600  13.976
61136W        W32665  31.011  10.369  13.518
61137W        W32666  24.931  42.354   2.209
61138W        W32667   5.522  26.366   3.603
61139W        W32668  38.040  39.768  10.761
61140W        W32669  36.978  30.114  13.888
61141W        W32670  27.028  19.573   0.899
61142W        W32671  42.287  15.088   1.702
61143W        W32672  27.710  42.954   3.667
61144W        W32673  15.357  27.966  14.973
61145W        W32674  44.077   9.197   2.796
61146W        W32675   2.280   8.357   4.497
61147W        W32676   8.198  22.434  12.055
61148W        W32677  37.357  29.082  13.532
61149W        W32678   3.013  40.190   3.579
61150W        W32679   2.244   8.876   0.834
61151W        W32680  37.582   1.517   1.837
61152W        W32681  41.338  15.571   3.102
61153W        W32682  18.040  26.617  11.538
61154W        W32683  20.753  22.207   3.402
61155W        W32684  25.470   2.234   0.746
61156W        W32685  20.066   3.085   3.572
61157W        W32686   4.444  36.387  10.633
61158W        W32687  24.963  13.673  12.528
61159W        W32688   7.759  37.949   3.690
61160W        W32689  28.638   6.850   4.180
61161W        W32690  39.041   9.873  12.748
61162W        W32691   2.626  11.287   3.677
61163W        W32692  39.287  14.758   1.423
61164W        W32693   8.239  16.398  13.865
61165W        W32694  40.551  32.824   1.975
61166W        W32695  13.257  32.365  13.928
61167W        W32696   6.770  16.641  11.507
61168W        W32697   4.983   2.475   2.072
61169W        W32698  31.667   8.034  13.111
61170W        W32699  34.554  43.461   4.593
61171W        W32700  42.984   2.514   3.873
61172W        W32701  30.471  29.454  11.568
61173W        W32702  12.822   1.338  12.441
61174W        W32703  38.562  37.409  11.891
61175W        W32704  36.877   2.241  12.405
61176W        W32705  13.730  28.192   3.797
61177W        W32706  24.147  17.735  12.620
61178W        W32707  33.977  37.986  10.754
61179W        W32708  34.352   1.681   1.309
61180W        W32709  24.928   1.944   3.810
61181W        W32710   7.676  34.057  14.474
61182W        W32711  36.901  22.469   0.978
61183W        W32712  44.299  35.320   4.370
61184W        W32713  11.305  18.491  12.527
61185W        W32714  14.728  14.227   3.049
61186W        W32715  15.025   4.757   3.235
61187W        W32716  36.124  43.244  12.490
61188W        W32717  29.410  12.672   0.923
61189W        W32718  24.528  16.807  10.770
61190W        W32719   2.376  31.531   0.784
61191W        W32720  26.097  12.745   4.091
61192W        W32721  17.016  15.729   0.318
61193W        W32722  19.764  36.446  11.089
61194W        W32723   2.901  19.285   4.847
61195W        W32724  16.818  12.954   2.242
61196W        W32725  16.030  33.042  11.248
61197W        W32726  12.621  26.645   1.501
61198W        W32727  39.561  32.073  14.750
61199W        W32728  26.479  15.811   2.214
61200W        W32729  40.503  12.473   0.803
61201W        W32730   6.922  30.017   1.464
61202W        W32731  24.615  39.857  12.728
61203W        W32732  44.457  40.561   0.504
61204W        W32733   4.395   1.424   4.773
61205W        W32734  12.915  34.123   0.736
61206W        W32735  32.851   8.290  12.024
61207W        W32736  34.921  18.367  11.122
61208W        W32737  42.227   2.276   4.650
61209W        W32738  15.161  24.912   1.705
61210W        W32739  37.876   3.411  14.542
61211W        W32740  15.655  38.324  12.427
61212W        W32741  21.002  39.548  12.971
61213W        W32742  44.544  14.400   9.934
61214W        W32743  29.466  18.274  12.007
61215W        W32744  18.957  22.132  14.336
61216W        W32745  26.351  43.120   3.613
61217W        W32746  42.766  26.823   2.652
61218W        W32747  30.580  26.584   0.518
61219W        W32748  26.056   8.904   3.146
61220W        W32749  18.497  38.081  11.147
61221W        W32750  30.864  13.314   1.052
61222W        W32751   3.458  31.973   3.081
61223W        W32752  39.927   9.589   0.667
61224W        W32753  16.839  21.005  11.622
61225W        W32754  16.169   7.227  13.243
61226W        W32755  40.534   1.753   3.773
61227W        W32756  38.079  23.035   4.361
61228W        W32757  33.723  13.311  10.602
61229W        W32758  18.766  19.001  14.812
61230W        W32759  25.502  23.849   0.385
61231W        W32760  42.252  26.190   3.674
61232W        W32761  12.283  32.547   4.800
61233W        W32762  19.065   1.077  14.967
61234W        W32763  37.938  12.129  12.415
61235W        W32764   2.503  30.170  12.834
61236W        W32765  11.699  39.906   1.234
61237W        W32766  19.732  12.001  12.360
61238W        W32767  27.382   8.789  11.511
61239W        W32768   4.812   5.340  11.822
61240W        W32769   1.524  24.099  14.272
61241W        W32770   5.798  17.201  14.266
61242W        W32771   1.365  29.082  14.046
61243W        W32772  29.496   8.986   1.475
61244W        W32773  28.018  11.047   4.143
61245W        W32774  23.651  27.151   4.059
61246W        W32775   6.403   7.358   5.168
61247W        W32776   5.709  10.152  12.946
61248W        W32777  41.998  37.045   2.218
61249W        W32778  32.459  16.214   3.193
61250W        W32779  21.418   0.005  12.399
61251W        W32780  10.783   5.378   1.991
61252W        W32781   7.706   6.677  11.511
61253W        W32782   5.128  44.968  10.700
61254W        W32783  14.372   6.215  14.964
61255W        W32784   2.808  16.008   1.841
61256W        W32785   1.336  20.857   0.623
61257W        W32786  27.173   9.166  14.737
61258W        W32787  35.917  33.524   1.384
61259W        W32788  21.423  32.627  13.495
61260W        W32789  26.012  43.504  12.335
61261W        W32790  24.154  35.345  10.667
61262W        W32791  30.174   4.483  12.875
61263W        W32792  13.070  36.580   3.892
61264W        W32793  20.563  17.902   0.790
61265W        W32794  16.029  26.495   4.772
61266W        W32795  25.607   5.796   1.307
61267W        W32796  19.032  23.386   0.239
61268W        W32797  29.098  14.881   3.313
61269W        W32798  21.801  38.942  13.336
61270W        W32799  26.007  19.220  10.610
61271W        W32800  35.347  37.894   2.300
61272W        W32801  27.394  41.772  14.824
61273W        W32802  13.291  43.491  14.295
61274W        W32803  32.683  13.491  10.110
61275W        W32804  19.974  23.505  10.398
61276W        W32805  16.622  13.174  11.929
61277W        W32806  42.932  27.337  12.376
61278W        W32807  38.519  26.192   5.133
61279W        W32808  44.995  11.285   4.877
61280W        W32809  27.426   1.320  14.406
61281W        W32810  14.957   5.453  12.943
61282W        W32811  20.028  19.066  12.961
61283W        W32812  42.206   9.862   1.848
61284W        W32813   1.897  41.955   2.706
61285W        W32814  29.359  10.422   3.077
61286W        W32815  15.690  13.977  10.677
61287W        W32816  44.184  14.671  11.206
61288W        W32817   2.881  10.263  13.550
61289W        W32818  23.246  19.483   1.484
61290W        W32819  21.662  27.542  14.790
61291W        W32820  28.007   7.812   2.893
61292W        W32821   1.093   2.342   1.143
61293W        W32822   8.176  17.628  11.956
61294W        W32823  42.977  24.932   4.782
61295W        W32824   2.490  18.350  13.796
61296W        W32825  40.293   5.157  10.454
61297W        W32826   1.239  27.714  12.955
61298W        W32827  35.355   5.558  10.711
61299W        W32828  25.113  21.083   2.692
61300W        W32829  28.399  16.071   3.135
61301W        W32830  15.231  42.041  12.976
61302W        W32831  29.492  18.901   1.323
61303W        W32832  38.916   1.036   1.833
61304W        W32833   2.264  14.290  14.807
61305W        W32834  12.378  36.842   3.298
61306W        W32835  28.356  41.827   1.400
61307W        W32836  36.130  21.268   0.099
61308W        W32837  33.381   9.013  12.028
61309W        W32838  17.206  20.877  13.557
61310W        W32839  37.498   4.478  13.798
61311W        W32840   5.745  22.981   0.262
61312W        W32841  40.419  44.980   0.306
61313W        W32842   9.454  18.202   1.247
61314W        W32843   8.207   7.100   0.564
61315W        W32844  36.737  29.496   1.322
61316W        W32845  41.943   2.204  13.072
61317W        W32846  40.098  22.752  10.980
61318W        W32847  26.198  34.556  14.120
61319W        W32848  30.480  31.907  10.724
61320W        W32849  10.115   4.485   2.164
61321W        W32850   6.216  26.025   0.378
61322W        W32851  36.472  41.026   2.417
61323W        W32852  14.582   6.372  14.525
61324W        W32853  27.864   6.765  12.951
61325W        W32854  40.229  42.701  12.999
61326W        W32855   4.236  21.986   4.392
61327W        W32856  39.545  38.758  14.157
61328W        W32857  23.601  13.588   1.589
61329W        W32858  42.716  32.461  14.016
61330W        W32859  26.687   9.681  13.275
61331W        W32860   9.631  42.195   1.838
61332W        W32861  42.384  14.683  11.881
61333W        W32862  30.244  38.277   1.372
61334W        W32863  32.066   2.447  11.898
61335W        W32864  22.274  29.945  11.537
61336W        W32865  14.595   6.286   2.454
61337W        W32866   1.462   5.312   1.774
61338W        W32867   7.368   1.724  10.410
61339W        W32868  37.447  32.610   3.101
61340W        W32869  43.841  12.614   1.771
61341W        W32870  43.594  21.693   2.940
61342W        W32871  40.541  44.796  13.689
61343W        W32872  37.385  11.704   4.102
61344W        W32873  34.025  13.185   2.278
61345W        W32874  26.460  18.503  13.926
61346W        W32875  17.616  20.375  14.958
61347W        W32876   5.475  34.516  14.316
61348W        W32877   2.435   7.877   0.036
61349W        W32878  21.280  39.521  14.872
61350W        W32879  30.978  28.198   1.009
61351W        W32880  36.018  26.528  13.839
61352W        W32881  28.495  28.285   3.830
61353W        W32882   7.479  33.620  12.802
61354W        W32883   7.188  12.250   2.768
61355W        W32884  34.464   2.205   1.322
61356W        W32885  24.463  31.468   2.803
61357W        W32886  24.221  14.052  11.840
61358W        W32887  18.076  22.542   1.747
61359W        W32888  11.313  43.306  12.296
61360W        W32889   8.104  19.637  13.541
61361W        W32890  12.242  40.554  14.846
61362W        W32891   6.882  10.837  14.938
61363W        W32892  29.475   9.849   2.060
61364W        W32893  19.000  27.024   3.681
61365W        W32894  30.023  21.243  14.799
61366W        W32895  39.515  28.714  13.466
61367W        W32896  10.199  41.349   1.883
61368W        W32897   0.395  11.393  12.014
61369W        W32898  39.986  13.046   2.660
61370W        W32899  26.104  23.509   3.094
61371W        W32900  22.672  32.975   0.535
61372W        W32901  15.708  12.104   2.889
61373W        W32902  38.440  43.515   0.017
61374W        W32903  22.097  37.362   0.990
61375W        W32904   6.801  24.106  12.643
61376W        W32905  32.181  10.182   3.755
61377W        W32906   1.920  15.534   0.985
61378W        W32907   6.015  36.408   3.737
61379W        W32908  14.095   4.807   5.080
61380W        W32909  10.221  32.561   2.667
61381W        W32910  23.756   0.223   2.206
61382W        W32911  11.946   7.066   2.126
61383W        W32912  23.764  43.950   2.596
61384W        W32913   2.954   4.288   1.641
61385W        W32914  19.581  43.038  10.651
61386W        W32915  30.062  42.944  13.464
61387W        W32916  26.907  22.530   0.946
61388W        W32917  19.846  14.626  13.441
61389W        W32918   7.833  31.337  14.707
61390W        W32919  36.425  23.653  11.600
61391W        W32920  33.024  43.563   0.964
61392W        W32921  28.740   6.717  10.995
61393W        W32922  37.765   4.437   2.390
61394W        W32923  21.033  16.535  14.628
61395W        W32924  40.127  42.015   0.009
61396W        W32925  41.737  32.436  12.383
61397W        W32926   1.213  28.411  13.644
61398W        W32927  43.527  29.449  10.379
61399W        W32928  18.057  15.840   3.131
61400W        W32929  21.644  36.062  12.855
61401W        W32930  33.894  41.536   3.079
61402W        W32931  35.320  32.610  13.782
61403W        W32932  37.596  22.016  10.038
61404W        W32933  29.683   4.543  14.497
61405W        W32934  44.778  44.530  12.865
61406W        W32935   6.763  16.775   3.822
61407W        W32936  20.052  44.860   2.801
61408W        W32937  17.785   2.298   1.192
61409W        W32938  39.520  16.480  14.385
61410W        W32939  25.618   9.086   3.376
61411W        W32940  29.172  12.648  13.483
61412W        W32941  35.356  40.607  11.121
61413W        W32942  15.212  22.442   1.751
61414W        W32943  20.281  28.197   2.168
61415W        W32944  30.464  25.465   3.075
61416W        W32945  20.726   1.904  12.509
61417W        W32946   8.663  38.269  14.433
61418W        W32947  36.296  25.681  13.954
61419W        W32948  32.009  33.862   4.490
61420W        W32949   9.726   3.232  14.229
61421W        W32950  39.908  35.574   4.191
61422W        W32951  20.134  31.096   2.488
61423W        W32952  26.057  14.801   0.817
61424W        W32953   0.479   5.730  12.096
61425W        W32954  36.325   2.729  10.629
61426W        W32955  44.889   5.108   4.255
61427W        W32956   1.411  34.253   3.724
61428W        W32957  27.603  29.027   3.103
61429W        W32958  15.158  42.584   1.373
61430W        W32959  32.995   6.667   1.299
61431W        W32960  26.511   0.085   4.179
61432W        W32961  28.117   5.650  14.373
61433W        W32962   4.197  28.677  13.023
61434W        W32963  35.981  23.459  13.497
61435W        W32964  27.537  39.419  13.027
61436W        W32965  21.688   3.412   4.113
61437W        W32966   0.452  24.246  11.168
61438W        W32967  14.507  41.851   0.760
61439W        W32968  42.300  29.758   0.330
61440W        W32969   2.265  23.692  12.092
61441W        W32970  13.311  30.960   3.837
61442W        W32971   5.247  40.008   2.622
61443W        W32972  43.573  29.653   1.941
61444W        W32973  22.207  23.493  13.442
61445W        W32974   2.217  37.095   3.473
61446W        W32975  36.931  32.738   0.928
61447W        W32976  26.154  11.288   3.729
61448W        W32977   5.045  25.076   1.307
61449W        W32978  36.414  17.669   3.231
61450W        W32979   5.854  19.251   3.193
61451W        W32980  39.983   7.865   3.095
61452W        W32981   9.572   8.842  10.731
61453W        W32982  10.603  28.014   9.564
61454W        W32983  30.386  44.110   3.464
61455W        W32984   6.788   2.864   0.712
61456W        W32985   4.935  41.193   4.114
61457W        W32986  33.711   7.818  11.148
61458W        W32987   9.077  37.551   2.819
61459W        W32988  23.017  38.996   4.033
61460W        W32989  36.239  17.566  11.201
61461W        W32990  13.680  30.171   0.618
61462W        W32991   9.170  30.634   4.117
61463W        W32992  20.605   0.293   4.971
61464W        W32993   1.780  43.355   0.908
61465W        W32994   8.769   9.714   3.324
61466W        W32995   7.671   2.255  14.456
61467W        W32996   0.831  39.728  11.854
61468W        W32997   4.461   1.907   1.930
61469W        W32998  28.947   7.274   3.639
61470W        W32999  40.043  29.208  12.352
61471W        W33000   7.226   4.700   2.892
61472W        W33001  26.019  24.909  14.872
61473W        W33002  14.235   5.968   2.705
61474W        W33003  27.929  11.169  10.566
61475W        W33004  21.072   4.739  10.268
61476W        W33005   2.341  13.313   0.922
61477W        W33006  30.472  23.195   4.160
61478W        W33007   3.374  19.927   4.961
61479W        W33008  18.260  29.420  14.381
61480W        W33009   1.545  39.554  11.553
61481W        W33010   6.002  15.217  13.413
61482W        W33011   0.515  22.659   4.508
61483W        W33012  30.830  35.566   4.124
61484W        W33013  29.611  40.049  14.227
61485W        W33014  41.052  13.329  11.036
61486W        W33015  26.106  10.918  12.597
61487W        W33016  34.916  10.013   1.809
61488W        W33017  43.948  10.211  14.874
61489W        W33018  43.855  11.250   2.216
61490W        W33019  19.306  12.025  11.953
61491W        W33020  42.595  21.693  13.434
61492W        W33021  15.218  41.904   0.192
61493W        W33022  31.751  28.444  12.086
61494W        W33023  41.089   5.868  10.726
61495W        W33024  38.353  21.552   0.294
61496W        W33025  32.392  13.031   4.373
61497W        W33026  43.490  17.171   0.303
61498W        W33027  18.121  21.008   1.958
61499W        W33028  31.313  18.529  13.561
61500W        W33029  24.145  15.598   2.635
61501W        W33030  14.860   2.494  12.985
61502W        W33031  11.145  26.170  14.376
61503W        W33032  14.211  18.564  12.372
61504W        W33033  37.872  29.667   5.114
61505W        W33034  24.535  41.835   2.740
61506W        W33035   4.674  27.740  14.019
61507W        W33036  39.929  28.972   4.193
61508W        W33037  26.859   8.370   5.119
61509W        W33038  13.600  12.328  14.682
61510W        W33039  38.073  26.613   3.632
61511W        W33040  41.986  26.511  14.767
61512W        W33041  27.009  18.076  12.786
61513W        W33042   8.697  24.403  14.539
61514W        W33043  20.696  17.998  13.121
61515W        W33044  11.367   2.301  12.448
61516W        W33045   5.814  27.636  10.649
61517W        W33046   1.489  11.096  10.376
61518W        W33047  19.639  27.877  11.674
61519W        W33048  33.038  35.828   2.510
61520W        W33049  15.839  37.469  11.545
61521W        W33050  38.500  11.751  11.914
61522W        W33051  41.775  12.610   4.388
61523W        W33052  14.797  13.823   0.429
61524W        W33053  35.876  43.075   0.457
61525W        W33054  31.833  32.306  14.334
61526W        W33055  21.319  15.885   3.284
61527W        W33056  35.017  34.460  13.745
61528W        W33057  43.238  40.338   0.893
61529W        W33058  39.626   3.028  12.869
61530W        W33059  10.701  24.236  14.089
61531W        W33060  21.750   4.264   0.826
61532W        W33061  13.034  20.196  14.946
61533W        W33062   5.499   7.703  14.372
61534W        W33063   6.509  11.852  12.565
61535W        W33064   3.334  34.513  11.582
61536W        W33065  22.522   9.162   1.215
61537W        W33066  37.266  19.921   4.184
61538W        W33067  19.782  27.281  13.095
61539W        W33068  36.179  28.222  12.555
61540W        W33069  25.681  42.255   2.403
61541W        W33070   6.462  36.603  11.524
61542W        W33071   9.718   3.348  11.356
61543W        W33072  14.966   6.900   4.080
61544W        W33073  31.970  39.075   4.020
61545W        W33074  20.288  15.257  10.765
61546W        W33075  39.523  38.037  12.108
61547W        W33076  23.053  39.519   1.649
61548W        W33077  33.075  40.109  12.465
61549W        W33078  26.560  31.154   0.442
61550W        W33079  29.919  27.243  13.925
61551W        W33080   0.105  26.580  14.738
61552W        W33081  23.502   8.512  13.774
61553W        W33082  17.070  41.356  14.418
61554W        W33083  41.826   3.409  11.727
61555W        W33084  37.274  13.951   2.233
61556W        W33085  37.534  30.373   0.967
61557W        W33086  42.397  39.225  11.119
61558W        W33087  36.608  14.128  13.054
61559W        W33088  17.570  31.167   4.167
61560W        W33089   3.909  24.762  13.895
61561W        W33090  12.891  41.265  13.476
61562W        W33091   5.661   8.446  13.860
61563W        W33092  44.482  10.801  13.778
61564W        W33093   4.436  44.926   4.736
61565W        W33094  37.511  12.686   3.911
61566W        W33095  10.718  12.234   3.254
61567W        W33096  13.601  17.610   3.439
61568W        W33097   8.837   0.526   0.428
61569W        W33098  44.658  29.309   2.371
61570W        W33099  18.020   6.636   2.000
61571W        W33100  44.492  44.897   4.359
61572W        W33101  10.644  13.093  11.994
61573W        W33102   6.616  22.180  13.596
61574W        W33103  32.682  13.452   1.653
61575W        W33104  13.891  40.595   4.398
61576W        W33105   4.705  24.252   3.707
61577W        W33106  41.085  19.022  11.125
61578W        W33107  30.144  41.487  13.443
61579W        W33108  22.992   9.654   3.876
61580W        W33109  28.536  15.498  11.903
61581W        W33110  28.530  26.659   0.480
61582W        W33111  32.548  17.291   0.523
61583W        W33112   5.939  24.441   3.706
61584W        W33113  11.039   5.869  10.306
61585W        W33114  37.958  10.622   4.833
61586W        W33115  41.367   1.297   0.720
61587W        W33116   3.370  37.123  12.972
61588W        W33117  19.002  44.972  12.645
61589W        W33118  16.200  42.931  14.241
61590W        W33119  39.832   7.429   2.169
61591W        W33120  29.503  22.498  13.434
61592W        W33121  10.578  12.719  10.766
61593W        W33122  26.626  36.101   4.563
61594W        W33123   2.151  43.029   2.227
61595W        W33124   8.893  23.207  11.146
61596W        W33125  14.043  30.180  13.913
61597W        W33126  31.139  12.185  10.621
61598W        W33127  25.554  42.087   4.589
61599W        W33128   4.885  44.613   3.840
61600W        W33129  34.913  35.315   4.420
61601W        W33130  24.232  11.879   1.988
61602W        W33131   1.274  33.722  11.169
61603W        W33132  16.386  43.622  11.059
61604W        W33133  42.859  22.568  14.827
61605W        W33134  22.307   3.180  14.789
61606W        W33135  30.556  44.908  11.440
61607W        W33136  30.925  44.287  12.264
61608W        W33137  12.775  25.173  11.487
61609W        W33138   2.980   9.105   2.272
61610W        W33139  38.527   1.269  12.877
61611W        W33140  44.601  34.091  11.665
61612W        W33141  14.125  10.436  11.904
61613W        W33142  30.855  33.580  11.879
61614W        W33143  40.058  42.517  14.904
61615W        W33144   2.692   5.768  14.535
61616W        W33145  39.381   4.430  11.100
61617W        W33146   4.655  20.673   4.691
61618W        W33147  36.456  18.301  14.038
61619W        W33148   6.314   1.352  13.309
61620W        W33149  26.398  27.888   4.208
61621W        W33150  37.652   9.427   0.902
61622W        W33151  11.693  27.044  13.542
61623W        W33152  24.088  42.840  10.657
61624W        W33153   9.392  36.332  10.731
61625W        W33154  21.606  33.723  12.496
61626W        W33155  41.817   1.436  14.376
61627W        W33156  30.429  39.789  13.470
61628W        W33157  43.123  44.120   2.174
61629W        W33158   9.934  35.584  12.623
61630W        W33159  41.356  14.185  11.616
61631W        W33160   7.765  29.409  11.990
61632W        W33161  16.517  19.954   1.822
61633W        W33162  25.158   0.339   0.478
61634W        W33163   1.772  14.531  11.563
61635W        W33164  44.105   6.176   4.694
61636W        W33165  15.539   0.913   2.814
61637W        W33166  13.690  20.275   4.105
61638W        W33167  15.144  14.517  12.648
61639W        W33168  11.185  12.313   0.354
61640W        W33169  19.803  33.158  13.382
61641W        W33170   6.030  15.279   2.536
61642W        W33171  30.469  39.239   2.209
61643W        W33172   5.466   5.394  14.146
61644W        W33173  14.602  13.714   2.243
61645W        W33174  38.313  38.395   0.752
61646W        W33175  44.224  14.866   0.753
61647W        W33176  17.270   0.389  13.919
61648W        W33177  39.480  28.461  14.776
61649W        W33178  41.733  27.684   2.846
61650W        W33179  40.392  32.551  14.722
61651W        W33180  10.304  21.672   1.581
61652W        W33181   0.543  29.897   4.078
61653W        W33182   0.822  38.989   4.483
61654W        W33183  44.826  18.359  10.969
61655W        W33184  29.138  15.264   2.080
61656W        W33185  18.765   2.196   2.221
61657W        W33186  35.137  12.642   1.224
61658W        W33187  17.530  15.603   1.844
61659W        W33188  40.431  16.620   3.899
61660W        W33189  34.576  30.521  11.095
61661W        W33190   8.898  19.260   1.723
61662W        W33191  40.795  23.507   0.148
61663W        W33192  32.802  17.712  12.119
61664W        W33193  19.047  42.378   0.225
61665W        W33194  25.596   7.191   1.693
61666W        W33195   4.891  38.120  14.802
61667W        W33196  15.044   4.217  13.537
61668W        W33197  13.071  39.395   2.278
61669W        W33198  43.924  33.035   2.914
61670W        W33199  19.562  39.180   3.376
61671W        W33200  12.720  19.606   1.756
61672W        W33201  25.208  30.855   1.924
61673W        W33202  43.396  22.704  13.335
61674W        W33203  40.284  20.351   0.902
61675W        W33204  44.268  28.801  14.458
61676W        W33205  15.649   7.942  11.930
61677W        W33206  23.681  25.303   4.314
61678W        W33207   2.515  11.768   4.678
61679W        W33208   0.870  27.318  10.629
61680W        W33209  35.800  36.522  13.094
61681W        W33210   3.709  14.387   3.969
61682W        W33211  25.853   8.053  11.659
61683W        W33212  21.081  38.554  12.995
61684W        W33213  13.805  42.666  13.050
61685W        W33214  14.859  21.734   1.391
61686W        W33215   3.834  42.822  14.981
61687W        W33216   7.281  10.233   3.383
61688W        W33217  14.869  12.439  11.995
61689W        W33218  44.787  43.858  13.410
61690W        W33219  33.028  12.799  12.563
61691W        W33220  12.015   5.154  11.490
61692W        W33221  30.997   2.445   1.499
61693W        W33222  38.428  17.232   0.861
61694W        W33223  16.396  14.328   3.264
61695W        W33224  10.704  24.429   2.737
61696W        W33225  20.969  16.184   4.625
61697W        W33226   7.926  41.602   0.674
61698W        W33227  11.146  13.844  13.954
61699W        W33228  43.436  32.691  14.778
61700W        W33229  22.122  33.574   2.200
61701W        W33230  17.791  15.708  10.519
61702W        W33231   2.685  16.740  10.844
61703W        W33232  28.646  44.962   3.084
61704W        W33233   8.072  28.701   1.464
61705W        W33234  13.909   9.789  11.195
61706W        W33235  17.397   9.392   3.631
61707W        W33236   5.684  23.213  11.657
61708W        W33237  26.991  26.934  14.651
61709W        W33238  43.306  16.774  12.064
61710W        W33239   4.359  44.404   2.233
61711W        W33240  39.731  41.348   4.074
61712W        W33241  31.837  12.179  13.498
61713W        W33242  42.436  36.273  14.069
61714W        W33243  38.539  22.541   1.228
61715W        W33244  44.416  20.204   2.010
61716W        W33245  15.401  14.681  13.549
61717W        W33246  21.488  37.484   5.322
61718W        W33247  30.885  25.581  13.359
61719W        W33248  40.324  24.908   1.020
61720W        W33249  18.785  33.871  14.902
61721W        W33250  10.840  30.031  10.718
61722W        W33251   6.374   1.841  13.827
61723W        W33252  39.859  19.690  11.188
61724W        W33253  40.310  31.459  11.105
61725W        W33254   8.406   8.841  14.847
61726W        W33255  31.471   2.415   1.797
61727W        W33256   8.792  31.420  11.132
61728W        W33257   3.921  29.684  14.029
61729W        W33258   2.107  15.786   4.104
61730W        W33259  28.981  15.705   1.826
61731W        W33260   3.959  44.847   4.485
61732W        W33261  41.816  11.391  14.599
61733W        W33262   6.892   6.220   4.473
61734W        W33263  22.154  40.814  12.325
61735W        W33264   3.157  31.676   1.182
61736W        W33265   7.817  31.486   1.246
61737W        W33266  40.919   0.015   0.580
61738W        W33267  21.724   1.698   4.771
61739W        W33268  38.608   1.698   4.756
61740W        W33269  16.129  41.449   2.691
61741W        W33270  38.073  25.235   3.057
61742W        W33271   4.597  34.590  12.122
61743W        W33272  19.494  23.999  11.143
61744W        W33273  27.077  26.261   2.221
61745W        W33274  11.409   6.277   3.632
61746W        W33275  21.134  33.696  10.788
61747W        W33276  34.527  29.668   0.877
61748W        W33277  39.519  15.691   2.973
61749W        W33278  43.360  14.795   0.413
61750W        W33279   7.330  30.721  14.554
61751W        W33280  18.144  41.897  14.921
61752W        W33281  10.471  38.978   0.437
61753W        W33282  16.199  29.147   0.271
61754W        W33283  24.657  14.280   0.912
61755W        W33284   5.126  19.495  11.288
61756W        W33285  29.403  20.693   4.618
61757W        W33286  39.798   8.871   2.747
61758W        W33287  37.374  26.077  14.873
61759W        W33288  11.387  22.162   2.306
61760W        W33289  30.402   4.269   0.961
61761W        W33290   5.976   8.171   1.440
61762W        W33291  37.557  28.317  13.947
61763W        W33292  32.429  41.489   2.838
61764W        W33293  36.459  23.439   0.324
61765W        W33294  27.031   5.004  14.035
61766W        W33295  37.442  27.155   4.632
61767W        W33296  42.417  14.986   0.124
61768W        W33297  44.980   4.446   2.901
61769W        W33298  13.420  39.792   4.692
61770W        W33299   5.432  38.118  12.544
61771W        W33300   4.889  21.525   1.663
61772W        W33301  34.520   8.128  13.100
61773W        W33302  30.037  43.775   2.300
61774W        W33303  27.165  11.428  10.451
61775W        W33304  32.077   9.127  13.627
61776W        W33305  25.824   5.982  11.184
61777W        W33306  43.485   0.227   4.584
61778W        W33307  20.200  42.769  13.962
61779W        W33308  14.423  16.172  14.326
61780W        W33309  11.301  23.401  10.359
61781W        W33310  10.844  11.993  14.201
61782W        W33311  17.484   5.469   4.501
61783W        W33312   9.481   0.671  13.219
61784W        W33313  36.790  21.562   3.639
61785W        W33314  10.855  29.753  11.133
61786W        W33315  15.737  27.249  14.299
61787W        W33316  34.422   3.196  11.049
61788W        W33317  24.103  28.976   0.194
61789W        W33318  20.491  43.302   1.313
61790W        W33319  19.060   1.563   3.206
61791W        W33320  11.955   8.856  11.305
61792W        W33321   4.364   7.908  10.765
61793W        W33322   2.201  44.985   2.256
61794W        W33323  41.207  34.638  11.009
61795W        W33324  10.319  39.291   1.799
61796W        W33325  20.761   9.055  14.797
61797W        W33326   4.265  44.848  11.848
61798W        W33327  35.476  36.586   1.743
61799W        W33328  11.642  37.885   1.322
61800W        W33329  35.826  24.323  10.653
61801W        W33330   2.385  11.301   4.175
61802W        W33331  24.566  35.134   1.868
61803W        W33332  31.849  40.518   0.916
61804W        W33333  42.840  21.071   0.406
61805W        W33334   2.751   5.676   4.380
61806W        W33335   3.766  39.976   1.798
61807W        W33336   2.263  17.557  14.016
61808W        W33337  22.609  19.914  11.137
61809W        W33338  35.619  32.638  14.781
61810W        W33339   4.854   6.467   0.360
61811W        W33340  27.464   0.901   2.593
61812W        W33341  22.925   0.307   2.179
61813W        W33342   5.949  32.673  12.054
61814W        W33343  42.210   6.173  13.871
61815W        W33344  27.002  24.856   2.157
61816W        W33345   2.175  23.023  14.803
61817W        W33346  42.428  35.826   0.791
61818W        W33347  37.797  21.729  11.543
61819W        W33348  40.744  11.808   2.405
61820W        W33349  17.169  33.642   4.578
61821W        W33350  17.141  27.971   1.699
61822W        W33351  30.799   3.266  12.490
61823W        W33352   2.968  25.386  14.314
61824W        W33353  42.475  25.977  13.739
61825W        W33354   3.372  37.865   3.734
61826W        W33355  11.690  25.856   1.641
61827W        W33356  15.458   3.176  14.964
61828W        W33357  25.648  40.505   0.426
61829W        W33358  37.069  13.261   0.871
61830W        W33359  37.848   8.444   4.199
61831W        W33360   0.962  30.012   3.270
61832W        W33361  11.295   8.065   3.676
61833W        W33362   3.947  18.321   2.641
61834W        W33363   3.461   7.967  10.723
61835W        W33364  42.925  23.766  14.193
61836W        W33365  12.210  40.689   3.727
61837W        W33366  40.472  11.509   3.691
61838W        W33367  39.196  25.529  10.348
61839W        W33368  10.899  17.124   0.780
61840W        W33369  35.964  42.193  13.395
61841W        W33370  43.107  20.269   1.368
61842W        W33371  30.693  27.864   2.772
61843W        W33372  30.103   4.015  11.802
61844W        W33373  39.963  19.410   2.138
61845W        W33374  15.016   5.553  10.614
61846W        W33375  16.580  32.103   2.168
61847W        W33376   5.807  35.510   0.384
61848W        W33377   4.396  13.135  10.694
61849W        W33378   1.920  16.191   1.124
61850W        W33379  22.717  39.260  10.928
61851W        W33380   3.488  29.460  12.159
61852W        W33381  25.026  10.441  10.777
61853W        W33382  26.219  11.889  11.112
61854W        W33383   9.821  28.345   2.617
61855W        W33384  16.816  26.704   4.061
61856W        W33385  22.580  15.719   4.147
61857W        W33386  15.777  30.601  12.677
61858W        W33387  21.783  15.272   2.804
61859W        W33388  28.466   8.750   3.631
61860W        W33389   2.770  37.013  11.651
61861W        W33390  42.894   5.849  10.930
61862W        W33391   9.693  42.807  10.591
61863W        W33392  27.479  36.881  11.886
61864W        W33393  42.240   3.244  11.458
61865W        W33394   9.182  42.481  12.851
61866W        W33395  20.927  16.990   1.673
61867W        W33396  35.024  11.080   2.747
61868W        W33397  23.936  32.450  11.705
61869W        W33398   6.824  21.361  14.097
61870W        W33399  16.835  21.713   3.949
61871W        W33400  31.573  36.443  12.811
61872W        W33401  32.402  15.073  14.394
61873W        W33402  22.819  27.555   1.147
61874W        W33403  20.324   7.305   1.794
61875W        W33404   9.271  26.162  14.826
61876W        W33405  42.989  36.781   2.317
61877W        W33406  27.657  37.654  13.524
61878W        W33407  40.559  44.316   3.564
61879W        W33408  10.885  17.957   3.766
61880W        W33409   6.848   0.339  11.482
61881W        W33410  11.655  12.784  11.791
61882W        W33411  42.011  19.266  14.600
61883W        W33412  42.804  26.933  14.784
61884W        W33413  35.643   8.295   3.915
61885W        W33414   0.323  32.295   0.018
61886W        W33415  32.269  30.895   1.965
61887W        W33416   6.697  30.532   2.694
61888W        W33417  12.844  26.533   3.350
61889W        W33418   7.901  19.147   4.551
61890W        W33419  41.762   6.258  14.109
61891W        W33420  42.952  34.893  11.188
61892W        W33421  28.019  43.290   4.103
61893W        W33422  18.733   8.851  13.129
61894W        W33423  36.261  15.212  13.485
61895W        W33424  41.844  17.261  11.591
61896W        W33425  24.199  36.035  11.895
61897W        W33426   0.505  26.908  13.796
61898W        W33427   3.262  34.889  13.526
61899W        W33428  40.964  39.834   3.956
61900W        W33429  25.603  26.495   4.602
61901W        W33430   3.050  13.231   2.582
61902W        W33431  22.019  33.497  12.716
61903W        W33432  32.096  19.439   2.339
61904W        W33433  30.474  41.434  12.647
61905W        W33434  28.947  23.123  11.948
61906W        W33435  14.252   4.210  13.918
61907W        W33436  40.404  36.153  11.157
61908W        W33437  29.988  22.644  13.579
61909W        W33438   0.490  25.139   1.351
61910W        W33439  43.441  22.187  13.497
61911W        W33440   3.609   1.731  12.846
61912W        W33441  27.949   5.462  14.924
61913W        W33442   3.781  33.428   1.518
61914W        W33443   7.633   3.463  12.920
61915W        W33444  30.910  15.670   2.083
61916W        W33445   5.430  39.307   1.740
61917W        W33446  38.362  20.047   1.464
61918W        W33447   7.558  25.587   2.845
61919W        W33448  21.123  35.564   1.121
61920W        W33449  41.596  42.838   3.351
61921W        W33450   2.775   3.696  14.762
61922W        W33451   4.759  10.109   0.393
61923W        W33452  19.911  25.137  10.476
61924W        W33453   2.471  14.352   2.758
61925W        W33454  17.259   1.964  14.551
61926W        W33455   3.676  20.306  12.893
61927W        W33456  27.977   4.276  10.935
61928W        W33457  40.257   0.585  11.144
61929W        W33458  17.006   0.204   2.238
61930W        W33459   7.741  13.158  12.437
61931W        W33460  29.402  26.590   0.225
61932W        W33461  23.131  30.397   3.939
61933W        W33462  34.511   5.410  14.353
61934W        W33463  36.464  21.068   2.797
61935W        W33464   5.980   6.431   1.260
61936W        W33465  36.662  34.921  14.846
61937W        W33466  34.852  34.715  10.592
61938W        W33467  25.115  44.219   4.099
61939W        W33468  39.563  18.276  11.174
61940W        W33469  42.992  19.280   2.292
61941W        W33470   7.422   7.347  14.443
61942W        W33471   9.864  21.474  12.055
61943W        W33472  40.619   8.158  12.507
61944W        W33473   0.599  16.779   4.691
61945W        W33474  22.018  40.101   3.625
61946W        W33475  15.194  18.113  11.682
61947W        W33476   4.383  29.882   1.207
61948W        W33477  36.313   4.417  11.194
61949W        W33478  38.845   4.419  11.157
61950W        W33479  38.904   0.182  14.304
61951W        W33480  32.873  13.742   4.576
61952W        W33481  33.135  10.605   3.568
61953W        W33482  23.205  42.269  11.056
61954W        W33483  36.987  39.874  11.936
61955W        W33484  42.497  25.207   0.375
61956W        W33485  19.649  11.395  11.565
61957W        W33486  34.973  23.906   0.546
61958W        W33487  26.943  40.795   0.304
61959W        W33488  29.951  33.127   1.111
61960W        W33489  40.750   6.279   1.805
61961W        W33490  32.968  28.836  14.948
61962W        W33491   1.721  35.861  12.860
61963W        W33492   5.160  13.685   1.813
61964W        W33493  40.302  19.334   4.324
61965W        W33494   9.454  43.319   2.678
61966W        W33495  28.964  34.767  10.803
61967W        W33496  21.962  38.064   4.083
61968W        W33497  29.040  42.962   0.421
61969W        W33498  27.218  41.950   0.787
61970W        W33499  21.007  35.613   2.190
61971W        W33500  12.207  16.702   0.711
61972W        W33501  22.285  39.384  14.837
61973W        W33502  22.304  19.593   1.158
61974W        W33503  23.011  31.982  14.082
61975W        W33504  33.083  22.469  13.038
61976W        W33505  11.527  34.531  10.995
61977W        W33506  17.543   3.158   1.650
61978W        W33507  29.481  30.754   2.331
61979W        W33508  28.519  18.809  11.136
61980W        W33509  34.479  28.182   0.735
61981W        W33510  18.569  14.190  13.687
61982W        W33511  22.864  13.218  11.972
61983W        W33512  41.602  31.166   0.920
61984W        W33513  33.632  37.956   0.412
61985W        W33514  25.203  41.414  11.696
61986W        W33515  41.837   4.944  13.795
61987W        W33516  22.787  42.005   1.685
61988W        W33517  29.151  35.419   2.741
61989W        W33518  14.717  20.605  11.666
61990W        W33519  22.597  31.194   4.220
61991W        W33520  25.966  16.569   0.356
61992W        W33521  32.170   1.504   9.789
61993W        W33522  39.913   1.270   2.206
61994W        W33523  32.361  12.158  11.166
61995W        W33524  23.765   0.758  12.016
61996W        W33525  37.998   0.141   1.257
61997W        W33526  26.426  25.568   1.671
61998W        W33527   1.093  18.082  10.492
61999W        W33528  29.651   2.461   1.885
62000W        W33529  12.712  27.499  14.416
62001W        W33530  12.603   3.418   0.900
62002W        W33531  13.364  26.564  12.020
62003W        W33532  20.027   2.817  12.995
62004W        W33533  17.523   7.184   1.900
62005W        W33534  41.923  22.107   3.673
62006W        W33535  20.484  32.526  14.945
62007W        W33536  36.034  18.573   4.061
62008W        W33537  37.334  18.557   0.292
62009W        W33538  33.042  20.763  13.977
62010W        W33539  19.127  40.638  14.839
62011W        W33540  15.137  22.160   2.523
62012W        W33541  27.210  18.779   3.715
62013W        W33542  10.075  25.600  11.357
62014W        W33543  26.780  34.006  14.081
62015W        W33544  10.012   6.949  11.747
62016W        W33545   4.592  12.778   4.603
62017W        W33546  28.215   9.411   0.016
62018W        W33547  30.033  17.105   1.580
62019W        W33548  35.171  14.020   0.472
62020W        W33549  11.857  34.308  14.378
62021W        W33550  28.033  17.244   1.879
62022W        W33551   2.849  40.686   3.415
62023W        W33552   5.319  21.745  10.749
62024W        W33553  17.391  10.915   2.637
62025W        W33554  19.127  40.725   0.697
62026W        W33555  24.657  28.455  10.680
62027W        W33556  34.704   6.231  12.515
62028W        W33557  34.807  41.581   0.394
62029W        W33558  22.031  44.735  14.280
62030W        W33559  15.767  37.932  14.926
62031W        W33560  36.434  10.855  13.513
62032W        W33561  24.895   4.871   4.036
62033W        W33562  15.626  34.373  11.908
62034W        W33563  27.702  37.012   4.798
62035W        W33564   6.119  26.858   4.949
62036W        W33565   9.705   6.984  14.990
62037W        W33566   9.660   8.183   4.695
62038W        W33567  18.652  23.150   2.034
62039W        W33568  42.197  10.308   2.779
62040W        W33569   1.350  38.619   2.664
62041W        W33570  29.113  39.861  13.775
62042W        W33571  39.923  19.041   3.125
62043W        W33572  22.219  29.546   3.874
62044W        W33573  32.382   2.966  13.532
62045W        W33574  18.805  44.007  13.138
62046W        W33575  29.859   3.537  11.649
62047W        W33576  30.654  44.486  10.685
62048W        W33577  15.345  20.296  13.748
62049W        W33578  39.470  18.151   4.046
62050W        W33579  31.596  34.856  13.788
62051W        W33580  29.670   5.533  11.893
62052W        W33581  14.825  19.181  11.547
62053W        W33582  26.456  11.591  14.335
62054W        W33583   7.678  32.627  13.455
62055W        W33584  29.798  14.240   3.126
62056W        W33585  22.300  22.090   4.610
62057W        W33586  13.172  44.676   1.808
62058W        W33587   6.841  34.847   1.384
62059W        W33588  38.844  23.304  11.129
62060W        W33589   5.614  44.795   1.290
62061W        W33590   4.307   2.275  13.563
62062W        W33591  20.755  38.397  11.916
62063W        W33592  30.072  13.652  12.912
62064W        W33593  38.488  24.985   3.215
62065W        W33594  35.511   0.780   2.963
62066W        W33595   8.936  37.601   1.846
62067W        W33596  33.912  23.961   1.307
62068W        W33597   3.709   8.707  13.022
62069W        W33598  40.408   8.758  13.673
62070W        W33599  10.812  35.381  10.545
62071W        W33600  19.350  40.917  14.362
62072W        W33601  38.331  44.153   1.516
62073W        W33602  30.065   7.353  11.718
62074W        W33603  17.054  33.615  14.434
62075W        W33604   6.264  40.335  11.732
62076W        W33605  30.471  35.280   4.590
62077W        W33606  43.366  29.885   0.521
62078W        W33607  35.483  34.150  11.630
62079W        W33608  41.240  16.038  14.785
62080W        W33609  21.472  10.184  10.989
62081W        W33610  44.321  33.599  12.350
62082W        W33611   1.372   2.309  12.526
62083W        W33612  43.291  23.997  10.857
62084W        W33613  37.462  39.520  10.622
62085W        W33614  44.549   1.172  14.826
62086W        W33615  18.659   9.387   4.342
62087W        W33616  39.002   2.266  14.998
62088W        W33617  11.797  15.783   4.091
62089W        W33618  39.373  20.613  11.160
62090W        W33619   4.781  41.166  10.110
62091W        W33620  25.632  24.365   3.207
62092W        W33621  41.855   9.742   4.613
62093W        W33622   5.321  22.431  10.261
62094W        W33623  13.652   4.248   0.328
62095W        W33624  17.181  44.098  11.574
62096W        W33625  17.196  23.114  13.519
62097W        W33626  42.037  24.564   4.896
62098W        W33627   0.689  43.312  10.514
62099W        W33628   1.912  11.869   3.168
62100W        W33629   2.140  10.279   1.441
62101W        W33630  20.725   9.666   3.616
62102W        W33631  26.190  38.661   4.850
62103W        W33632  34.806   5.644  13.907
62104W        W33633  10.655   8.651  14.728
62105W        W33634  33.947  35.163  13.806
62106W        W33635  11.278  37.160  12.141
62107W        W33636  15.080  42.817   3.338
62108W        W33637   7.662  42.445  11.463
62109W        W33638  24.532  15.720   0.279
62110W        W33639   7.825   9.829  11.128
62111W        W33640   1.464  28.933   1.453
62112W        W33641  26.611  10.010  12.393
62113W        W33642  37.309  43.332   4.141
62114W        W33643  33.175  21.613   2.403
62115W        W33644  29.137  13.020  10.177
62116W        W33645  30.742  31.634  13.787
62117W        W33646  43.215  20.954   1.756
62118W        W33647  17.672  24.673   2.475
62119W        W33648  29.392  30.121   3.671
62120W        W33649   0.886  41.506  11.495
62121W        W33650   2.679   6.377   3.295
62122W        W33651  43.840  10.605  12.482
62123W        W33652  28.744  16.691   0.757
62124W        W33653  35.888  22.196  14.604
62125W        W33654   3.403  14.415  11.582
62126W        W33655  17.512  38.210  12.507
62127W        W33656  27.582  26.428  13.767
62128W        W33657  43.988  28.592  12.366
62129W        W33658   1.120   5.553   3.712
62130W        W33659  36.124  36.525   1.245
62131W        W33660  26.294  22.423  12.721
62132W        W33661  44.840  10.367  14.550
62133W        W33662  29.539  19.809  14.027
62134W        W33663  43.612   6.293   4.588
62135W        W33664  43.785  15.347   1.817
62136W        W33665  43.856  36.655   0.051
62137W        W33666  24.969  27.586   2.317
62138W        W33667  38.288  40.314   0.896
62139W        W33668  37.935  43.259  12.414
62140W        W33669  11.831  17.615   2.393
62141W        W33670  38.284  13.168  13.534
62142W        W33671  24.655  14.206   3.738
62143W        W33672  16.059  21.929   3.553
62144W        W33673   1.346  13.373  13.914
62145W        W33674  23.022   3.331   3.653
62146W        W33675  24.156  32.642  13.049
62147W        W33676  23.238   7.694  11.915
62148W        W33677   4.055  43.866  10.901
62149W        W33678  43.973  27.636   2.176
62150W        W33679  22.195  12.871  14.277
62151W        W33680   5.829  32.054   2.360
62152W        W33681  29.514  17.414   5.096
62153W        W33682  10.709  43.824   2.232
62154W        W33683  28.759  19.035  14.509
62155W        W33684  15.667  27.362   0.383
62156W        W33685   7.404  36.961   2.658
62157W        W33686  19.190   9.806  10.999
62158W        W33687   2.109  16.084   4.951
62159W        W33688  37.611  41.390  14.939
62160W        W33689   0.772  13.305   2.163
62161W        W33690  32.248  35.954  13.744
62162W        W33691  20.138  20.819   2.474
62163W        W33692   5.241  38.270  11.176
62164W        W33693  16.224  28.701  10.234
62165W        W33694  22.200  39.099   3.903
62166W        W33695  10.887  17.041  11.126
62167W        W33696  42.502  35.912  12.413
62168W        W33697   1.889  30.102   4.331
62169W        W33698   8.889   1.207  14.948
62170W        W33699  43.825  39.762  12.397
62171W        W33700  23.030  31.202   3.506
62172W        W33701  14.212  28.839  11.192
62173W        W33702  23.148   9.299   2.866
62174W        W33703   1.424  21.573  10.924
62175W        W33704  40.813  13.156  10.591
62176W        W33705   0.531  31.675  13.355
62177W        W33706  23.362  43.260   4.099
62178W        W33707   7.983   5.187   4.222
62179W        W33708  38.000  19.469  10.826
62180W        W33709  37.195   8.599   4.214
62181W        W33710  22.687  26.029   2.639
62182W        W33711  10.808  10.920  13.019
62183W        W33712   0.782   9.750   2.754
62184W        W33713  44.506  21.167  14.036
62185W        W33714  43.959  25.161   0.281
62186W        W33715  21.607   7.644  11.269
62187W        W33716  12.361  25.700  12.777
62188W        W33717  11.369  39.397   4.052
62189W        W33718  41.951  34.510   0.327
62190W        W33719  15.350  15.089   1.716
62191W        W33720  35.865  27.112   3.134
62192W        W33721  10.206  41.856  13.457
62193W        W33722  24.014  21.999   3.644
62194W        W33723  16.776  14.744   1.513
62195W        W33724  23.652  15.297   2.575
62196W        W33725  14.658  22.492  13.493
62197W        W33726  40.516   6.388  12.829
62198W        W33727  44.688  15.129  13.445
62199W        W33728  42.979  41.879   0.307
62200W        W33729  14.826  24.998  13.988
62201W        W33730  20.808  15.560  13.440
62202W        W33731  42.384   5.509   4.790
62203W        W33732   8.198   9.367   0.458
62204W        W33733  31.930   9.444   0.546
62205W        W33734  17.696   0.032  10.674
62206W        W33735  41.802   5.246  10.712
62207W        W33736  41.310  18.038   4.596
62208W        W33737  14.292  34.213  13.073
62209W        W33738  21.665   8.163  14.417
62210W        W33739  32.307   2.996   0.463
62211W        W33740  30.286  23.854  12.494
62212W        W33741  23.318   6.647  12.081
62213W        W33742  31.896   9.188   0.098
62214W        W33743  23.350  20.275  12.383
62215W        W33744  15.553  19.794   1.946
62216W        W33745  11.311  18.326   4.624
62217W        W33746  16.179  13.722   4.206
62218W        W33747   4.798  38.376   2.595
62219W        W33748   1.017  18.067   3.810
62220W        W33749  15.183   9.400  12.422
62221W        W33750  11.228  28.237  14.929
62222W        W33751   5.695  34.944  12.080
62223W        W33752  42.287   2.830   0.818
62224W        W33753  39.871  20.011  12.174
62225W        W33754  29.454  44.305   4.282
62226W        W33755  10.694  26.727   0.050
62227W        W33756  39.043  30.953   0.281
62228W        W33757  29.998  28.663   4.384
62229W        W33758  10.710  25.014  12.043
62230W        W33759  33.403  34.375  13.606
62231W        W33760  10.115  11.369   0.309
62232W        W33761  44.414   4.009  14.753
62233W        W33762  44.604   3.990  13.367
62234W        W33763  26.779   7.918  11.986
62235W        W33764  43.300  28.777   4.564
62236W        W33765  19.183  25.665   4.089
62237W        W33766   0.764  31.626   1.123
62238W        W33767  12.876   5.170  12.492
62239W        W33768  13.628  22.808   2.752
62240W        W33769  31.355   8.697   0.589
62241W        W33770  37.900  22.151   1.248
62242W        W33771  36.590   2.551  12.796
62243W        W33772   7.372  37.408  12.048
62244W        W33773   9.271  11.983   0.284
62245W        W33774  10.791   1.536  12.469
62246W        W33775  11.146  29.212   1.765
62247W        W33776   2.338  19.766  14.087
62248W        W33777  44.726  13.887  11.051
62249W        W33778   7.990  33.722  11.641
62250W        W33779  25.566  30.158   0.856
62251W        W33780   2.811  27.267   0.383
62252W        W33781  24.388  13.688   0.970
62253W        W33782  21.274  27.973   1.940
62254W        W33783  27.540   6.269   2.351
62255W        W33784  35.373  38.067  10.818
62256W        W33785  13.824  34.839   3.133
62257W        W33786  41.353  20.169  12.068
62258W        W33787   9.944  19.217   5.197
62259W        W33788  31.155   3.320   1.743
62260W        W33789   4.747   4.457  10.541
62261W        W33790  17.561  31.203   3.222
62262W        W33791  44.762  37.376   5.333
62263W        W33792   5.838  17.775   3.856
62264W        W33793   5.436  20.612   1.911
62265W        W33794  39.049  24.109  11.627
62266W        W33795  35.152  15.441   2.660
62267W        W33796  24.760  42.287  11.214
62268W        W33797  29.500   3.672  13.015
62269W        W33798  34.772  15.179  11.557
62270W        W33799  29.419   1.196  14.405
62271W        W33800   4.252   5.494  12.454
62272W        W33801  17.165  33.460  13.081
62273W        W33802  23.666  44.335   3.107
62274W        W33803  11.296   4.630  13.084
62275W        W33804  37.328  27.580  11.451
62276W        W33805  42.893   3.133   4.644
62277W        W33806  15.221   7.373   0.243
62278W        W33807  12.527   1.688   1.206
62279W        W33808   2.612  18.784   4.047
62280W        W33809  21.466  21.658   3.632
62281W        W33810  33.835  21.065  11.239
62282W        W33811  24.210   8.959  10.608
62283W        W33812  30.485  37.970   4.388
62284W        W33813  37.000  42.597  11.670
62285W        W33814  39.974  38.537  14.845
62286W        W33815  13.592  36.338   3.761
62287W        W33816  15.733  31.120   0.056
62288W        W33817   8.796  33.206   0.140
62289W        W33818  33.446  23.808   4.145
62290W        W33819  41.727   0.030   4.328
62291W        W33820  26.723   6.445  11.471
62292W        W33821  44.975   7.954  11.334
62293W        W33822  17.482  20.644  13.980
62294W        W33823  18.765   3.345   4.555
62295W        W33824  43.328  26.059   4.627
62296W        W33825  12.918  11.481  14.787
62297W        W33826   7.891  32.366  13.859
62298W        W33827  15.810  26.731   2.627
62299W        W33828  19.834   3.287  11.996
62300W        W33829  44.637  44.065  12.424
62301W        W33830  15.704  41.456   0.935
62302W        W33831  40.837   7.596   2.213
62303W        W33832   9.648  16.235   0.345
62304W        W33833  16.304  22.070   2.377
62305W        W33834  16.555  20.767   0.336
62306W        W33835   6.830   0.210   2.683
62307W        W33836  31.017   7.493   1.219
62308W        W33837  21.969   8.770  11.167
62309W        W33838  17.585   4.642   2.410
62310W        W33839   0.811  23.866   5.228
62311W        W33840  19.238  30.585  11.218
62312W        W33841  21.458  32.707   4.200
62313W        W33842   8.005  20.006  14.330
62314W        W33843  14.498   5.274   0.868
62315W        W33844  22.360   6.114  11.469
62316W        W33845  17.339  11.912   2.953
62317W        W33846   2.746  15.760   0.466
62318W        W33847  23.928  34.231   0.028
62319W        W33848   4.562  24.664  11.705
62320W        W33849  25.626  43.541   0.259
62321W        W33850   3.917  33.205  12.531
62322W        W33851  44.254  12.250   5.119
62323W        W33852  32.896  11.651  11.685
62324W        W33853  22.167  18.157   1.429
62325W        W33854   1.281  25.069   2.519
62326W        W33855  12.894  27.501  12.037
62327W        W33856  36.853  41.450   4.355
62328W        W33857  20.374  20.533  14.767
62329W        W33858  20.948  31.021   1.973
62330W        W33859   7.978  40.826  13.049
62331W        W33860  11.938  36.427   2.455
62332W        W33861   6.294   9.163  14.862
62333W        W33862  17.495   0.430   0.297
62334W        W33863  31.384  33.480  11.962
62335W        W33864  32.100  21.656  11.159
62336W        W33865  15.282  30.540  12.401
62337W        W33866  25.151  33.052   2.325
62338W        W33867  34.920   7.096   3.259
62339W        W33868  32.154  27.518  14.898
62340W        W33869   2.775  25.608   1.272
62341W        W33870   9.196  30.376   1.876
62342W        W33871   9.345  33.494  12.982
62343W        W33872  38.933  34.422  13.330
62344W        W33873  27.409  21.321  14.459
62345W        W33874  41.722  36.024  10.516
62346W        W33875  37.345  26.293   1.925
62347W        W33876  12.684   5.025   4.099
62348W        W33877  21.029   6.533   0.155
62349W        W33878  35.379  16.593   0.822
62350W        W33879  36.831   2.439  11.062
62351W        W33880  42.390  24.537   1.471
62352W        W33881  11.345   4.484  11.176
62353W        W33882  11.332  44.280   0.529
62354W        W33883  19.316  42.863   3.251
62355W        W33884   8.647  15.663  14.335
62356W        W33885   8.813  42.728   4.070
62357W        W33886  22.654  19.707   3.000
62358W        W33887  11.534  33.216   3.423
62359W        W33888  23.435  30.000   0.813
62360W        W33889  24.359   5.444  13.957
62361W        W33890   6.111  10.242  10.430
62362W        W33891  26.399   3.032  13.857
62363W        W33892   8.126  44.815   0.329
62364W        W33893   6.165  27.233  11.429
62365W        W33894  25.280  30.170  12.369
62366W        W33895   1.189  25.607  11.445
62367W        W33896  27.738  20.694  11.575
62368W        W33897  39.009  20.690   3.619
62369W        W33898  23.104  24.500   2.338
62370W        W33899  39.408  11.961   1.326
62371W        W33900  19.055  19.696  11.651
62372W        W33901  27.916  25.644  11.719
62373W        W33902  41.327  20.825   0.440
62374W        W33903  28.923  16.616   1.379
62375W        W33904  27.474   5.457  13.082
62376W        W33905  39.281  30.475   3.608
62377W        W33906  14.151  23.535  13.028
62378W        W33907  11.365  36.551  10.706
62379W        W33908  42.109  23.973   0.830
62380W        W33909  24.102  35.933   1.833
62381W        W33910  33.919  41.020  14.845
62382W        W33911  19.340  23.367  11.277
62383W        W33912   0.305  37.492   2.646
62384W        W33913  39.460  30.131  10.630
62385W        W33914  37.084   0.918   0.634
62386W        W33915  38.935   3.127   3.538
62387W        W33916  40.392  10.075  12.630
62388W        W33917  19.848  40.865  14.327
62389W        W33918   5.732  15.072  13.872
62390W        W33919  27.578  41.388   1.431
62391W        W33920  14.214  27.215   4.158
62392W        W33921  29.735  35.377  14.312
62393W        W33922  22.901  22.400  12.754
62394W        W33923  42.778  23.260   4.282
62395W        W33924  31.838   9.797  11.023
62396W        W33925  18.632   8.275   2.737
62397W        W33926  38.584  42.990   0.767
62398W        W33927   1.330  13.887  11.072
62399W        W33928   9.974  40.873   1.840
62400W        W33929  35.063  42.922  10.879
62401W        W33930   4.221  27.007  12.172
62402W        W33931  15.827  31.175   3.731
62403W        W33932  37.610   5.382  12.331
62404W        W33933  44.749  27.457  12.332
62405W        W33934  15.466  27.187  13.831
62406W        W33935  34.496  43.621  12.955
62407W        W33936  27.540  37.879   4.646
62408W        W33937  40.802   9.822  10.694
62409W        W33938  33.467  23.961   4.986
62410W        W33939   8.798  15.783  12.016
62411W        W33940  25.079  22.697  13.057
62412W        W33941  11.303  27.517  11.033
62413W        W33942   2.613  11.672   3.310
62414W        W33943  28.657  27.061   2.347
62415W        W33944   5.173   1.841   4.175
62416W        W33945   7.959  15.232  14.351
62417W        W33946   5.188  38.703   4.028
62418W        W33947  30.938  17.554   2.146
62419W        W33948   7.879  25.725   4.128
62420W        W33949  17.999  29.159   3.185
62421W        W33950   7.854  20.911  13.404
62422W        W33951  34.743  36.999   3.417
62423W        W33952  12.347   5.926  12.544
62424W        W33953   5.912  13.225  11.907
62425W        W33954  23.325  26.482  14.878
62426W        W33955  23.711  41.360  12.489
62427W        W33956  36.306   5.962  10.668
62428W        W33957   9.752  18.678   4.253
62429W        W33958  15.063  33.174  12.878
62430W        W33959   7.798  42.817   4.299
62431W        W33960  35.629   5.534   0.868
62432W        W33961  20.252   2.493   3.287
62433W        W33962   6.064  25.205   4.153
62434W        W33963  15.347   6.041   3.689
62435W        W33964  20.203  11.207   4.418
62436W        W33965  19.052  19.522  14.203
62437W        W33966  37.997  28.213   9.958
62438W        W33967  33.012  35.734   1.158
62439W        W33968  23.151  30.733  10.737
62440W        W33969  19.066  32.425   4.946
62441W        W33970  43.880  26.733  12.426
62442W        W33971  34.765  34.478  11.040
62443W        W33972  18.772  17.126  14.038
62444W        W33973  29.428  23.502   2.560
62445W        W33974  32.032  17.777   1.836
62446W        W33975  11.206  24.155   4.475
62447W        W33976  32.079  35.657  14.513
62448W        W33977  31.293  25.272  14.894
62449W        W33978  28.418  39.948  14.761
62450W        W33979  39.393  42.041   2.764
62451W        W33980  28.990  32.965  13.498
62452W        W33981  18.805  13.701  12.534
62453W        W33982  36.091  26.858  14.284
62454W        W33983   5.158  13.708   4.632
62455W        W33984  35.064   5.748  14.738
62456W        W33985  32.024  22.085  14.202
62457W        W33986   3.072  24.488  13.398
62458W        W33987   9.005  23.487  13.331
62459W        W33988  38.545  28.958   1.403
62460W        W33989  15.153  43.381  10.244
62461W        W33990  38.981   6.882   1.812
62462W        W33991   6.606  27.574  13.859
62463W        W33992  30.952  34.742   1.638
62464W        W33993   1.755  36.473  12.146
62465W        W33994   9.313  19.671  14.325
62466W        W33995  35.091  24.556  14.321
62467W        W33996   7.228   2.658   0.894
62468W        W33997  39.636  23.947  14.759
62469W        W33998  26.267  30.280   0.396
62470W        W33999  37.599   4.988  13.895
62471W        W34000  13.266  39.582   0.331
62472W        W34001  33.085  38.280   3.578
62473W        W34002   1.204  41.493   3.314
62474W        W34003  15.991  40.985   1.458
62475W        W34004   7.027   9.833  14.905
62476W        W34005  43.712  35.584   3.295
62477W        W34006  35.183  14.959   2.888
62478W        W34007   0.170  20.143  14.822
62479W        W34008   9.251  30.160  12.209
62480W        W34009  21.578   7.260   0.784
62481W        W34010  42.790   7.387  12.810
62482W        W34011  20.231  16.196   2.867
62483W        W34012  26.646   2.305   0.454
62484W        W34013  30.243  39.843  12.941
62485W        W34014   5.725   1.931  12.575
62486W        W34015  25.129  25.058   2.329
62487W        W34016  25.111  15.354   1.353
62488W        W34017  36.154  36.338  12.211
62489W        W34018  38.461   6.757   4.162
62490W        W34019  21.128  14.857  12.556
62491W        W34020  14.431   4.507   0.791
62492W        W34021  38.215   6.748  13.836
62493W        W34022  13.722   9.386   3.905
62494W        W34023  40.976  37.586  12.429
62495W        W34024  44.420  11.778   4.547
62496W        W34025   5.826  30.638   2.207
62497W        W34026  44.131  10.673   2.858
62498W        W34027  13.619  25.925  13.524
62499W        W34028   1.601  31.567  12.145
62500W        W34029  21.158  43.589  11.595
62501W        W34030   8.398  19.616   2.394
62502W        W34031  24.026  18.618  13.986
62503W        W34032   7.866  20.142   0.219
62504W        W34033  35.626  42.756  11.627
62505W        W34034  35.467  25.121  10.526
62506W        W34035  38.258  10.002   1.646
62507W        W34036   5.259   1.395  10.531
62508W        W34037  44.416  30.645  14.556
62509W        W34038  30.440  36.899  12.089
62510W        W34039  40.928  10.191   4.052
62511W        W34040  26.618  33.994  10.426
62512W        W34041  34.302  17.563  10.830
62513W        W34042  44.468  38.737   4.596
62514W        W34043   7.790  37.491   1.403
62515W        W34044  32.618  27.944  10.757
62516W        W34045   8.267  37.501  13.050
62517W        W34046  36.008  15.485   2.359
62518W        W34047  32.588  20.590   4.775
62519W        W34048  31.952  39.864  11.768
62520W        W34049  42.476  28.782  13.914
62521W        W34050  28.876  44.751   0.816
62522W        W34051  42.287  15.251  10.605
62523W        W34052  36.552  36.940  12.913
62524W        W34053  44.255  39.572  13.498
62525W        W34054  36.341   1.982   3.631
62526W        W34055   0.890   5.240   2.674
62527W        W34056  28.246  22.510   4.211
62528W        W34057  39.092  30.889   3.841
62529W        W34058   5.469   0.419  10.861
62530W        W34059  12.947  33.323  13.527
62531W        W34060  27.013  24.288   1.650
62532W        W34061  13.244  17.279   3.285
62533W        W34062  38.085   2.915   3.355
62534W        W34063  25.175   3.422   0.529
62535W        W34064  29.237   9.330  11.452
62536W        W34065  11.885  20.691  10.606
62537W        W34066  40.237  32.601  13.196
62538W        W34067   2.247  32.991   2.731
62539W        W34068   1.960   7.912   4.638
62540W        W34069  19.001  11.856   2.227
62541W        W34070   5.662  23.965   3.674
62542W        W34071  24.131  13.121   4.156
62543W        W34072   0.032  10.272  11.152
62544W        W34073   6.467  20.329  14.920
62545W        W34074  37.408  36.857   3.326
62546W        W34075  17.530  16.616   0.025
62547W        W34076  27.890   2.973  14.946
62548W        W34077  32.253  25.883  11.741
62549W        W34078  21.989  37.571   2.958
62550W        W34079  24.970  19.015   1.685
62551W        W34080   1.834   9.836  10.374
62552W        W34081   6.547  40.304   0.711
62553W        W34082  39.219  41.303  12.936
62554W        W34083  15.512   5.721   4.051
62555W        W34084  29.387  13.676   3.768
62556W        W34085  39.538   1.853  14.205
62557W        W34086  20.933  20.290   2.830
62558W        W34087  15.586  17.621   4.932
62559W        W34088  38.053   8.101   3.211
62560W        W34089   9.636  30.598  11.623
62561W        W34090  44.331  30.654  10.236
62562W        W34091  31.951  15.686   5.429
62563W        W34092  38.386   2.125  12.348
62564W        W34093  31.621  29.382  14.501
62565W        W34094  25.020  38.713  10.806
62566W        W34095  31.055  30.190  13.123
62567W        W34096  33.876   3.849  13.906
62568W        W34097  20.624  28.247  13.876
62569W        W34098  11.368  38.558  11.936
62570W        W34099  41.880  25.414  14.756
62571W        W34100  30.000   6.853   4.561
62572W        W34101  25.182  28.449  10.599
62573W        W34102  20.187  39.559  14.953
62574W        W34103  14.779  27.360  11.456
62575W        W34104  29.413  37.465  14.363
62576W        W34105  17.579  40.034   1.272
62577W        W34106   9.139  17.142   4.773
62578W        W34107   7.109  21.479   9.916
62579W        W34108  35.701  11.790  14.336
62580W        W34109   3.743  18.453  11.804
62581W        W34110   8.435  27.461   2.813
62582W        W34111   5.280  30.173  14.932
62583W        W34112  12.190  34.362  13.835
62584W        W34113   3.216   4.163   2.607
62585W        W34114   2.692  12.175   3.626
62586W        W34115  33.003  21.146   3.665
62587W        W34116  29.408  20.858   3.108
62588W        W34117  14.169   3.668  13.929
62589W        W34118  10.720  32.119   0.189
62590W        W34119  35.878  36.005   0.347
62591W        W34120  20.272   7.821  14.477
62592W        W34121  42.991  16.398   1.764
62593W        W34122  25.199   6.853   4.770
62594W        W34123  14.122  25.480   1.330
62595W        W34124   8.447  31.008  13.648
62596W        W34125  27.061  18.671  14.491
62597W        W34126  12.852  33.914   1.665
62598W        W34127  29.843   2.566  12.578
62599W        W34128  25.263  29.738  13.985
62600W        W34129  21.876  33.726   4.380
62601W        W34130   1.625   7.397   2.808
62602W        W34131  31.075  40.382   1.711
62603W        W34132  19.410  19.909   9.480
62604W        W34133  31.651  32.180   0.408
62605W        W34134  29.684   2.504   2.411
62606W        W34135  14.380  40.738   4.352
62607W        W34136  28.991   6.700   2.298
62608W        W34137   8.279   7.078   1.345
62609W        W34138  42.887  41.585   0.751
62610W        W34139  43.363  17.034   2.361
62611W        W34140  18.533  32.955   4.074
62612W        W34141  10.602   5.052   4.949
62613W        W34142  37.442  13.571   3.660
62614W        W34143  21.508  40.899  10.886
62615W        W34144  21.579   0.815   4.223
62616W        W34145  39.732  27.155  14.418
62617W        W34146  25.559  34.906  14.824
62618W        W34147   5.825  29.156   1.235
62619W        W34148  28.222  31.589   3.216
62620W        W34149  39.564  34.568  10.542
62621W        W34150  42.336  30.590  12.024
62622W        W34151  22.746   5.143   4.630
62623W        W34152  44.710   3.158   0.763
62624W        W34153   9.825  40.113   4.187
62625W        W34154  25.581  35.885  13.921
62626W        W34155  15.762  23.369   2.864
62627W        W34156  39.344   7.451  13.469
62628W        W34157  43.433  31.353   0.825
62629W        W34158   6.721  38.327  10.961
62630W        W34159  29.620  29.526   4.857
62631W        W34160  28.576  37.050  14.299
62632W        W34161   4.335   2.936  13.914
62633W        W34162  10.574  12.879  12.471
62634W        W34163   1.175   6.904  13.013
62635W        W34164   7.312  21.090  10.855
62636W        W34165  43.939  28.594   1.175
62637W        W34166  39.258  19.123   1.790
62638W        W34167  25.248  37.978  14.352
62639W        W34168  28.031  29.925  12.462
62640W        W34169  32.112  31.747   1.654
62641W        W34170  34.921   4.722   5.164
62642W        W34171  15.993  28.415   3.146
62643W        W34172   2.808  16.552   1.170
62644W        W34173   3.286  30.428   2.360
62645W        W34174   2.822  41.026   4.819
62646W        W34175  30.551   2.984   1.685
62647W        W34176  40.983  27.712   4.386
62648W        W34177  34.641  15.823  12.809
62649W        W34178  44.237  27.497   0.893
62650W        W34179  39.465  24.062  13.468
62651W        W34180  23.379  35.781   0.651
62652W        W34181  29.019  44.027  12.596
62653W        W34182   5.388  29.531   2.156
62654W        W34183  34.494   4.843  13.014
62655W        W34184  43.381   6.650  13.310
62656W        W34185  36.534   5.875  14.261
62657W        W34186   7.156   9.134   3.241
62658W        W34187  30.606  34.467   3.585
62659W        W34188  16.112  19.118  13.541
62660W        W34189  38.283  13.211   2.334
62661W        W34190  26.703  24.607   3.816
62662W        W34191   6.136   8.127   2.456
62663W        W34192  27.646   3.930  13.131
62664W        W34193   8.010  36.895  10.681
62665W        W34194  25.282  14.008  11.132
62666W        W34195  33.034  34.790   0.751
62667W        W34196  32.098   6.390   3.535
62668W        W34197  41.048  25.033   0.225
62669W        W34198  17.427  34.525  12.694
62670W        W34199  40.460  44.218  12.103
62671W        W34200  18.568  13.352  13.619
62672W        W34201  42.956  12.974   1.196
62673W        W34202  35.926  37.419   1.708
62674W        W34203   5.315  17.582   2.775
62675W        W34204  25.659   2.305   3.363
62676W        W34205  39.983  17.149  13.033
62677W        W34206  41.552   8.661   0.379
62678W        W34207  30.895  16.580  10.234
62679W        W34208  19.527  42.343  13.465
62680W        W34209   1.642  41.241   3.316
62681W        W34210   5.772  27.450   4.635
62682W        W34211   3.880  41.561  11.159
62683W        W34212  11.875  10.169  14.933
62684W        W34213  36.643  12.958   3.510
62685W        W34214  29.276  19.150   1.870
62686W        W34215   8.645  23.147   3.651
62687W        W34216  25.184  10.845  12.184
62688W        W34217  29.358  12.877  10.805
62689W        W34218  11.164   6.821   0.941
62690W        W34219  16.106  40.220  12.732
62691W        W34220  43.558  12.182  13.063
62692W        W34221  40.033  26.176   0.782
62693W        W34222   2.269  38.111  11.208
62694W        W34223  29.472  41.469   2.389
62695W        W34224  10.467  19.125  11.200
62696W        W34225   9.908  15.870  12.561
62697W        W34226  27.901  15.446   5.277
62698W        W34227  27.184  14.665   2.703
62699W        W34228  25.135  17.612  10.624
62700W        W34229  42.854  13.043  10.980
62701W        W34230  34.894  31.900  13.943
62702W        W34231  17.129  38.040   1.349
62703W        W34232  26.968  18.618  13.983
62704W        W34233  17.071  16.852  10.687
62705W        W34234  24.334   1.899  14.720
62706W        W34235  39.489  13.039   3.434
62707W        W34236  23.716  19.579  13.497
62708W        W34237  25.791  32.706   0.945
62709W        W34238   2.304  17.659  14.526
62710W        W34239  41.223  15.933  12.000
62711W        W34240  16.266  29.681  11.011
62712W        W34241   4.677  41.717  13.733
62713W        W34242  42.515  15.920  10.335
62714W        W34243  14.346  27.071   1.881
62715W        W34244   2.309   4.765  13.781
62716W        W34245  30.996  17.407   4.613
62717W        W34246  29.250   8.158   1.468
62718W        W34247  15.700  29.688  13.027
62719W        W34248  33.251  38.298  14.292
62720W        W34249  19.066  20.823   3.744
62721W        W34250  11.219  39.758   1.864
62722W        W34251  15.655   5.926   0.226
62723W        W34252  43.808  35.377   4.195
62724W        W34253  27.564  30.777   0.236
62725W        W34254  39.995  28.525  13.527
62726W        W34255  34.564  30.694  12.833
62727W        W34256  12.873  27.118   0.903
62728W        W34257  34.512  20.152   3.679
62729W        W34258  35.615   5.143  11.439
62730W        W34259  24.153  37.780   0.801
62731W        W34260   2.085  31.153   1.019
62732W        W34261  23.505  16.569  11.403
62733W        W34262  29.713  33.525   0.866
62734W        W34263  16.347  15.753  10.678
62735W        W34264   2.017  25.531  13.328
62736W        W34265   2.857   1.530  13.007
62737W        W34266  30.037   2.609   0.268
62738W        W34267  44.216  20.847  10.488
62739W        W34268  23.845  30.557  11.970
62740W        W34269  22.164  21.571   1.965
62741W        W34270  22.619  27.570   3.755
62742W        W34271  22.233   4.791  12.035
62743W        W34272  12.526  10.719   3.256
62744W        W34273  35.020  29.848  12.007
62745W        W34274   6.429  18.373   4.422
62746W        W34275   0.507  11.366  12.511
62747W        W34276   9.059  39.109   4.181
62748W        W34277  29.001  20.769   0.420
62749W        W34278  29.134  27.136  11.141
62750W        W34279  43.907  41.215  10.767
62751W        W34280   0.530  37.482   2.193
62752W        W34281  12.098  44.480  13.285
62753W        W34282   9.984  19.739  12.483
62754W        W34283  29.998  24.526   0.886
62755W        W34284   7.425  19.930  14.280
62756W        W34285  28.082   9.891  14.889
62757W        W34286  38.897  20.270   9.859
62758W        W34287   3.941  16.703   0.132
62759W        W34288  31.169  12.125   1.370
62760W        W34289  11.171  11.511   1.975
62761W        W34290  40.821  14.748   2.998
62762W        W34291  27.254  38.036  12.989
62763W        W34292  15.521  43.906   2.872
62764W        W34293  30.406  24.051  14.561
62765W        W34294  31.124  10.318  11.151
62766W        W34295  11.966  18.590  10.576
62767W        W34296  40.477  12.162   0.331
62768W        W34297  15.834   4.948   3.742
62769W        W34298   4.944  22.749   2.838
62770W        W34299  10.846   9.656   4.333
62771W        W34300   8.757  22.572   5.082
62772W        W34301   3.935  28.478   0.715
62773W        W34302   2.093   4.613  14.244
62774W        W34303   0.652  19.458   0.175
62775W        W34304  43.847   7.199   3.751
62776W        W34305  40.028  41.875  12.656
62777W        W34306  23.692  43.962  13.312
62778W        W34307   5.225   7.930  12.960
62779W        W34308  13.929   8.374   4.571
62780W        W34309  20.812  11.759   4.597
62781W        W34310  35.617  32.342  11.060
62782W        W34311  20.569   8.728  13.028
62783W        W34312   1.905  42.044   1.317
62784W        W34313   2.240   9.625  14.217
62785W        W34314  15.512  18.783   3.149
62786W        W34315  10.002  37.948  14.526
62787W        W34316  17.441  17.859   3.589
62788W        W34317  29.613  16.730  11.910
62789W        W34318  42.373   4.437   0.442
62790W        W34319  35.996  44.816  12.481
62791W        W34320   8.866  15.847   2.322
62792W        W34321  22.284  23.693   2.326
62793W        W34322  18.840  29.400   1.707
62794W        W34323  12.448  37.605  12.546
62795W        W34324  40.348   2.181  13.832
62796W        W34325   8.753  39.223   3.254
62797W        W34326  30.593  12.877  14.008
62798W        W34327  22.604  44.372   4.028
62799W        W34328  36.890  40.096  13.026
62800W        W34329  24.072  31.798   0.923
62801W        W34330  16.019   7.610  10.299
62802W        W34331  18.247   2.170   1.421
62803W        W34332  41.461  27.583   0.261
62804W        W34333  15.527  15.300  13.693
62805W        W34334  30.313  35.020   3.780
62806W        W34335   2.362   3.464   1.002
62807W        W34336   7.230  22.086  13.052
62808W        W34337  32.080  25.024  13.798
62809W        W34338  18.400  24.072  13.830
62810W        W34339  41.463  17.782   1.946
62811W        W34340  16.591  43.844   4.019
62812W        W34341  10.747  39.594  14.579
62813W        W34342  10.416   1.911  12.348
62814W        W34343  42.890   2.700  12.580
62815W        W34344  11.676  29.495  14.135
62816W        W34345   1.688  30.549   2.493
62817W        W34346  15.063  35.309  13.427
62818W        W34347  29.611  13.753  14.793
62819W        W34348  37.428  43.174  14.525
62820W        W34349  25.976  15.017   0.362
62821W        W34350  36.805  27.286   0.205
62822W        W34351  36.121   2.733   4.178
62823W        W34352  38.405  32.272   4.903
62824W        W34353  35.347  38.532   1.887
62825W        W34354  29.560  37.983   3.272
62826W        W34355   3.105  28.643  13.520
62827W        W34356  38.369  10.988  11.582
62828W        W34357  23.129  18.321   1.815
62829W        W34358  30.026  32.520   4.907
62830W        W34359  25.140  13.186  12.455
62831W        W34360   5.446  22.733   2.753
62832W        W34361  33.838  27.573   4.123
62833W        W34362   2.860   0.645  14.803
62834W        W34363  27.931   8.695   3.578
62835W        W34364  33.965  44.011  12.884
62836W        W34365   6.582  33.362   0.778
62837W        W34366   6.329   5.925   0.864
62838W        W34367  34.529  20.043   1.381
62839W        W34368   2.679  20.490   1.836
62840W        W34369   9.568  16.522   4.247
62841W        W34370  18.925  11.487   5.099
62842W        W34371  24.150  25.038   3.606
62843W        W34372  42.966  16.537  13.838
62844W        W34373  23.240  31.543   4.888
62845W        W34374  15.610  33.054  11.606
62846W        W34375  36.050  32.167   0.868
62847W        W34376  41.879   2.671  14.881
62848W        W34377  16.988   4.438  14.852
62849W        W34378  16.594  27.776  14.576
62850W        W34379  39.516   6.671   0.025
62851W        W34380  43.121  12.662   4.127
62852W        W34381  26.850  27.626   4.155
62853W        W34382  37.431  32.555   0.852
62854W        W34383  23.961   9.626   0.202
62855W        W34384   7.410  39.947  14.533
62856W        W34385  24.629  31.555   4.587
62857W        W34386  30.691  10.825  13.599
62858W        W34387  17.930  28.605   1.711
62859W        W34388  15.845  19.045   2.850
62860W        W34389  32.710  35.846  11.084
62861W        W34390  15.734  36.937   0.496
62862W        W34391  12.628   2.927   0.220
62863W        W34392  30.810  18.661   4.471
62864W        W34393   0.494  23.626  14.375
62865W        W34394  33.465  12.788  13.924
62866W        W34395   8.166  44.897   2.613
62867W        W34396  14.496  36.498  14.979
62868W        W34397  25.987  24.292   1.381
62869W        W34398   0.848  18.927   0.274
62870W        W34399  32.642   5.506   4.062
62871W        W34400  16.384   2.489  10.699
62872W        W34401  11.911  23.369   5.005
62873W        W34402  22.482  41.540   1.728
62874W        W34403  34.440  30.414   0.302
62875W        W34404  24.806  39.590  14.879
62876W        W34405  36.402   4.401   0.126
62877W        W34406  33.954  38.083  12.005
62878W        W34407  18.040  32.894  13.978
62879W        W34408  20.620  30.011  10.811
62880W        W34409  29.361  20.679   1.214
62881W        W34410   8.803   1.285  13.092
62882W        W34411  39.024  35.312   1.490
62883W        W34412  25.984  42.952   4.359
62884W        W34413  17.230   3.553  12.430
62885W        W34414   3.289  31.465   3.107
62886W        W34415   2.762  25.655   0.195
62887W        W34416   5.080  30.576   0.208
62888W        W34417   5.773  40.299  11.959
62889W        W34418   4.501  30.208  12.468
62890W        W34419  40.809   8.353   0.311
62891W        W34420   6.692  39.361   1.404
62892W        W34421  22.701  16.150  14.079
62893W        W34422  40.366  10.246  12.150
62894W        W34423  18.658  16.362   0.351
62895W        W34424  39.731  38.056   1.545
62896W        W34425  24.058   5.270  14.900
62897W        W34426  41.666  14.335  13.132
62898W        W34427  20.961  38.740  10.287
62899W        W34428  34.508   7.892  14.089
62900W        W34429  43.529  26.611  14.250
62901W        W34430   5.880   8.369   2.850
62902W        W34431  36.129  21.133  11.174
62903W        W34432   5.598  31.663   4.664
62904W        W34433  35.342   0.943   1.421
62905W        W34434  44.411  33.496   2.346
62906W        W34435  23.038  34.600  10.252
62907W        W34436  11.394  19.637  13.496
62908W        W34437  19.264  21.598  12.694
62909W        W34438  16.124   3.505   1.298
62910W        W34439  32.048  11.187  11.277
62911W        W34440  39.525  14.829   0.436
62912W        W34441   4.644  17.637   1.082
62913W        W34442  26.562  29.702   4.655
62914W        W34443   5.836  37.915  10.724
62915W        W34444  38.601  36.917  11.682
62916W        W34445   2.761  26.287   3.690
62917W        W34446  19.098  19.231   3.596
62918W        W34447  32.617  27.454  13.184
62919W        W34448  43.380  23.606   0.039
62920W        W34449  17.157  40.447   9.639
62921W        W34450  14.352  27.089   0.118
62922W        W34451  41.471   4.684   1.446
62923W        W34452  38.346  32.709  11.587
62924W        W34453  43.802  18.584  10.678
62925W        W34454  29.703   0.925   0.434
62926W        W34455  39.900   5.615   0.628
62927W        W34456  29.984   0.754  12.929
62928W        W34457  40.944  24.384   3.653
62929W        W34458  16.131  31.349  13.403
62930W        W34459  10.157  11.641  12.680
62931W        W34460  19.741  20.529  11.169
62932W        W34461   9.385  31.875   1.340
62933W        W34462  26.477  41.822  14.451
62934W        W34463  12.717  20.482  12.935
62935W        W34464  37.949   0.316  12.323
62936W        W34465   9.268  31.221  14.030
62937W        W34466  13.154  22.952   1.659
62938W        W34467  12.336  27.991   2.855
62939W        W34468  19.905   4.500   4.525
62940W        W34469  38.194  17.660  11.335
62941W        W34470  41.223   7.884   3.401
62942W        W34471   9.459  43.243  11.863
62943W        W34472  29.166  10.693   4.545
62944W        W34473  12.599  35.562   4.132
62945W        W34474  12.082   2.880  13.903
62946W        W34475  11.161  30.097  12.995
62947W        W34476  34.831  26.601  10.076
62948W        W34477  13.395   3.766   0.379
62949W        W34478  21.683  39.539  14.097
62950W        W34479  23.463  40.901  11.681
62951W        W34480   6.029  31.657   3.650
62952W        W34481  41.527  41.386  14.586
62953W        W34482  16.065  40.405  10.630
62954W        W34483  32.135  35.399   1.363
62955W        W34484   6.330  25.550   2.209
62956W        W34485  12.194  25.256   4.952
62957W        W34486  40.768  18.586   0.377
62958W        W34487   9.686  11.081   0.299
62959W        W34488  31.095   2.298  10.476
62960W        W34489  43.778  25.918  12.006
62961W        W34490  20.618  31.793  12.621
62962W        W34491  40.231  29.938  14.789
62963W        W34492  30.575  27.481  11.326
62964W        W34493  19.190  39.892   1.049
62965W        W34494  44.772  27.003  12.597
62966W        W34495  35.854   3.521   4.532
62967W        W34496  17.338  31.651   3.108
62968W        W34497  20.665  32.406  13.946
62969W        W34498  22.312  29.182  14.814
62970W        W34499   4.895   1.245   1.373
62971W        W34500  43.255  41.586   2.354
62972W        W34501  23.985  11.778  14.302
62973W        W34502  14.675  27.674   3.720
62974W        W34503  32.650  22.648   0.449
62975W        W34504  36.325  44.954   0.426
62976W        W34505  23.078   2.950  11.119
62977W        W34506  39.941  15.710  13.207
62978W        W34507  35.621  31.836   0.946
62979W        W34508  13.309  35.422   1.450
62980W        W34509  12.170   0.988  13.578
62981W        W34510  36.365  37.860   3.273
62982W        W34511   6.341  17.591   5.003
62983W        W34512  15.144  34.216  12.064
62984W        W34513  11.380  30.200  12.526
62985W        W34514   6.985   2.757  12.960
62986W        W34515  34.079  31.532  14.337
62987W        W34516   3.338  27.770  13.444
62988W        W34517  20.319  19.683   5.342
62989W        W34518  30.128  34.099  14.231
62990W        W34519  41.431   3.684  13.630
62991W        W34520  17.489  39.261   0.774
62992W        W34521  29.302  11.907  10.715
62993W        W34522  33.435  34.912   2.701
62994W        W34523  38.773  40.268   0.687
62995W        W34524  21.318  34.578  11.659
62996W        W34525  33.600  41.834   0.960
62997W        W34526  13.310   8.915  12.443
62998W        W34527  13.401  36.393   0.699
62999W        W34528  11.053  10.753  10.480
63000W        W34529  14.608   3.516  12.968
63001W        W34530  42.986  37.980  14.065
63002W        W34531  35.974  22.080  13.148
63003W        W34532   1.091  41.796  12.984
63004W        W34533  40.948   2.442  11.729
63005W        W34534  37.993   4.505   4.153
63006W        W34535  20.870   4.200  12.359
63007W        W34536  28.027  41.550  11.401
63008W        W34537  30.838  35.540  14.762
63009W        W34538  41.740  23.625   1.055
63010W        W34539  35.035  38.551  14.426
63011W        W34540  36.724  14.630  10.584
63012W        W34541  38.992   0.460   1.860
63013W        W34542  12.909   0.974  10.335
63014W        W34543  17.201  21.118  14.029
63015W        W34544  34.811  35.334  13.082
63016W        W34545  30.969   6.401   4.594
63017W        W34546  19.312  22.309   0.942
63018W        W34547   4.578  43.518   2.172
63019W        W34548  31.310  21.392  12.028
63020W        W34549   0.731  10.830   4.285
63021W        W34550  37.049   2.808   0.243
63022W        W34551   4.951   0.295   3.276
63023W        W34552  40.583  25.130  14.373
63024W        W34553   9.133  24.874   4.182
63025W        W34554  19.666  40.990  10.261
63026W        W34555  17.252  35.898   1.489
63027W        W34556  44.891  41.380   1.815
63028W        W34557  13.930  14.307  14.010
63029W        W34558  21.014   0.587   2.272
63030W        W34559   7.353  42.571   4.188
63031W        W34560   2.918  28.519  10.727
63032W        W34561  19.022  16.135  11.877
63033W        W34562  10.299  35.480   3.095
63034W        W34563  20.359  41.059  11.676
63035W        W34564  20.000  11.815  12.886
63036W        W34565  17.407  21.819   1.309
63037W        W34566   4.842  28.198   0.974
63038W        W34567   3.402  44.581  12.448
63039W        W34568   1.527  23.884   4.561
63040W        W34569   6.126  19.754  13.983
63041W        W34570  19.003  30.817  12.763
63042W        W34571  42.279  35.284   1.678
63043W        W34572  13.086  20.252  13.236
63044W        W34573   7.284  19.423   4.265
63045W        W34574  42.300   3.498  11.898
63046W        W34575  22.221  35.031   2.806
63047W        W34576  32.466   8.368   1.372
63048W        W34577  29.406  27.254   3.249
63049W        W34578   4.032  41.078   4.202
63050W        W34579   6.690   4.701  12.368
63051W        W34580  24.226  12.916  10.345
63052W        W34581  22.759  23.148  12.791
63053W        W34582  19.484  29.928  12.055
63054W        W34583  44.500  42.715   2.172
63055W        W34584   6.001  13.703   2.020
63056W        W34585  41.788  30.214  12.728
63057W        W34586  35.305  25.516  13.499
63058W        W34587  44.730  16.807   4.602
63059W        W34588  25.875  28.931  13.994
63060W        W34589   6.173  34.893  13.086
63061W        W34590  29.701  17.762   1.843
63062W        W34591   2.356   9.817  12.022
63063W        W34592  26.029  14.233   4.403
63064W        W34593   0.907   6.731   3.146
63065W        W34594  13.863  10.765  10.844
63066W        W34595  27.366  18.421  11.981
63067W        W34596  38.290  22.954  13.158
63068W        W34597   9.530  22.685   2.748
63069W        W34598   1.833  42.310   3.652
63070W        W34599  28.160  35.199  12.635
63071W        W34600   6.885  32.570   4.926
63072W        W34601  34.212  19.128  12.582
63073W        W34602   4.484  37.853  12.280
63074W        W34603   9.391  38.524   1.658
63075W        W34604  38.039  24.231  14.905
63076W        W34605   8.452  17.179  10.229
63077W        W34606  30.921   6.988   5.019
63078W        W34607   9.875  37.010   1.864
63079W        W34608  20.762  34.666   0.225
63080W        W34609   1.209  33.790   3.596
63081W        W34610  10.770  27.927   4.480
63082W        W34611  22.163  31.196   1.370
63083W        W34612  34.674  44.330   4.137
63084W        W34613  39.894  23.507   4.529
63085W        W34614  32.353  41.583  11.720
63086W        W34615   8.837  31.680   3.309
63087W        W34616  12.205  31.290  10.892
63088W        W34617  36.869  21.283  12.958
63089W        W34618   7.209  36.773   2.193
63090W        W34619  20.714  19.663  13.347
63091W        W34620  24.584  41.012   2.458
63092W        W34621  27.077  22.748   2.467
63093W        W34622  40.963  34.940   4.073
63094W        W34623  25.179  44.029  12.516
63095W        W34624  30.761  42.422   1.699
63096W        W34625  26.670  18.344  14.395
63097W        W34626  16.612  13.785   3.898
63098W        W34627  38.969   8.743  11.570
63099W        W34628  34.135  25.053  11.142
63100W        W34629  41.330  30.325   3.240
63101W        W34630  42.628   0.985   4.794
63102W        W34631  14.106   3.332  11.005
63103W        W34632  38.850  18.285  14.345
63104W        W34633  24.172  35.391   0.672
63105W        W34634  13.179  30.375  11.903
63106W        W34635  13.840  23.987  13.926
63107W        W34636  32.986  33.930  12.630
63108W        W34637   6.310   4.751   0.478
63109W        W34638  10.411   0.438   0.196
63110W        W34639   7.768  20.960   4.228
63111W        W34640  42.491  31.435   0.994
63112W        W34641  22.947  38.677   4.993
63113W        W34642   8.123  39.570   3.436
63114W        W34643   3.224  26.169   2.761
63115W        W34644  24.143  34.434   0.493
63116W        W34645   2.666  39.369   2.415
63117W        W34646  25.546  32.855   1.399
63118W        W34647  42.979  17.563   4.462
63119W        W34648  20.610  16.219  14.795
63120W        W34649  11.704   9.085   3.173
63121W        W34650  20.287  18.258   1.747
63122W        W34651  27.240  21.545   3.210
63123W        W34652  35.079  25.751   1.857
63124W        W34653  43.043  39.512   1.301
63125W        W34654  20.762  11.808  12.457
63126W        W34655  10.341  44.631  13.963
63127W        W34656  18.788  21.718  10.155
63128W        W34657  26.963  44.020   1.641
63129W        W34658  12.900   9.845  13.327
63130W        W34659  41.805  38.144  13.456
63131W        W34660  18.590  27.621   3.644
63132W        W34661  27.063  32.398   1.843
63133W        W34662  29.542   7.406  11.655
63134W        W34663   6.042  34.388   2.724
63135W        W34664   8.922  33.792  12.863
63136W        W34665  28.466  37.571   3.299
63137W        W34666   3.606  39.264   1.074
63138W        W34667   7.548  15.611  13.803
63139W        W34668  31.308   6.036  10.873
63140W        W34669  43.116   3.837   1.979
63141W        W34670  31.195  38.462   3.765
63142W        W34671  13.729  24.060   1.352
63143W        W34672   6.083  37.775  14.329
63144W        W34673  41.404  44.309   4.034
63145W        W34674  25.138  38.739   2.447
63146W        W34675   3.414  36.933   4.804
63147W        W34676   1.377  15.190  12.098
63148W        W34677  29.468   0.315  11.141
63149W        W34678  28.985  39.879   3.104
63150W        W34679  25.666  30.120   1.770
63151W        W34680   8.973  11.684   4.736
63152W        W34681  20.088  32.219  11.131
63153W        W34682  40.493   0.814   2.722
63154W        W34683   3.305  17.956   2.398
63155W        W34684   8.599  33.534   4.822
63156W        W34685   9.407  27.317   0.835
63157W        W34686  14.230   9.820  12.556
63158W        W34687  29.164  22.029  11.926
63159W        W34688  28.298  13.220   3.739
63160W        W34689   1.892  43.800   4.859
63161W        W34690  32.936  33.346   4.672
63162W        W34691  35.410  31.610   2.806
63163W        W34692   8.184   6.573   1.496
63164W        W34693  31.298  12.471  14.412
63165W        W34694  28.691   9.137  12.164
63166W        W34695  24.530  12.307  11.670
63167W        W34696   0.881  21.234   3.179
63168W        W34697  36.227  36.827   4.535
63169W        W34698   3.529  34.003  13.497
63170W        W34699  43.223  33.153   0.762
63171W        W34700  39.326   4.951  14.021
63172W        W34701   4.989  35.809   2.817
63173W        W34702   3.107   7.250  11.112
63174W        W34703  11.304  42.908  11.968
63175W        W34704  34.568  33.127  14.228
63176W        W34705  31.246  39.414   1.813
63177W        W34706  15.115   3.550  12.109
63178W        W34707  16.124  34.808  11.539
63179W        W34708   0.791  30.426   1.881
63180W        W34709  27.970  42.469   0.847
63181W        W34710   3.747  31.431  14.441
63182W        W34711   4.905  21.809   3.321
63183W        W34712  39.055   3.750   0.063
63184W        W34713  26.706  43.103  11.182
63185W        W34714  25.952   4.323   0.434
63186W        W34715  42.845  35.404   3.153
63187W        W34716   5.017  14.344   2.803
63188W        W34717   1.330   7.446   2.317
63189W        W34718  14.623  34.754  14.790
63190W        W34719   3.976  23.021   3.781
63191W        W34720  28.556  16.506  14.029
63192W        W34721  23.627  10.835  14.388
63193W        W34722  14.250   2.077   4.297
63194W        W34723   8.132  18.666   2.941
63195W        W34724  11.656  20.580   4.255
63196W        W34725   7.903   1.697   4.651
63197W        W34726  25.739  16.735   2.839
63198W        W34727  40.819  37.309   3.777
63199W        W34728   1.855   6.161   3.623
63200W        W34729  29.835  28.536   4.908
63201W        W34730   8.251  37.457  10.738
63202W        W34731  43.923  38.456   1.269
63203W        W34732  36.108  17.798   3.644
63204W        W34733   5.451  42.329   0.332
63205W        W34734  33.494  18.223  11.172
63206W        W34735  44.943  29.922   3.157
63207W        W34736  11.708  39.523   4.888
63208W        W34737  39.428  35.853  11.053
63209W        W34738   6.927  35.581  14.791
63210W        W34739  16.180  27.928  11.938
63211W        W34740   5.469  42.401   3.838
63212W        W34741   7.193  14.158   2.238
63213W        W34742  25.153  36.187   2.482
63214W        W34743   0.901  13.077  13.947
63215W        W34744  11.249  35.678   3.559
63216W        W34745  34.189   9.729  14.177
63217W        W34746   1.457  41.080   4.244
63218W        W34747  21.254  32.274   4.857
63219W        W34748  36.676  23.896  13.127
63220W        W34749  31.641   8.422  13.905
63221W        W34750  44.019  14.570   3.705
63222W        W34751  43.785  15.121   3.797
63223W        W34752  24.565  22.527  13.951
63224W        W34753  40.996  24.742   1.329
63225W        W34754   6.302   0.871  13.532
63226W        W34755  17.699  16.191  14.336
63227W        W34756  42.026  36.801  14.882
63228W        W34757  39.927  25.146   0.742
63229W        W34758  15.422  36.350  14.860
63230W        W34759   8.835  44.239  13.550
63231W        W34760  40.065  25.452   3.349
63232W        W34761  33.225  33.091  12.383
63233W        W34762  21.540   5.720   4.660
63234W        W34763  42.139  12.755   1.791
63235W        W34764  28.668  30.251  11.663
63236W        W34765  12.181  11.094  12.306
63237W        W34766  17.940  16.579   1.015
63238W        W34767  29.378   9.886  13.831
63239W        W34768  39.980  37.867  12.315
63240W        W34769   6.700  21.654  10.919
63241W        W34770  42.440  10.842  14.935
63242W        W34771   8.391   6.635   2.910
63243W        W34772  27.125  35.614   2.680
63244W        W34773  27.260   8.851   3.401
63245W        W34774  13.214  23.592   0.868
63246W        W34775  13.285  33.191  14.889
63247W        W34776  25.483   6.169  11.953
63248W        W34777  10.619  13.282  12.804
63249W        W34778  25.713  33.064   2.276
63250W        W34779  11.648   4.384   1.335
63251W        W34780  18.382   7.388   3.392
63252W        W34781  37.833  12.709  14.752
63253W        W34782  32.865   5.165  12.910
63254W        W34783   2.359  27.981   4.110
63255W        W34784  16.760  19.508  13.829
63256W        W34785   1.717  13.946  14.746
63257W        W34786   3.442  41.387  11.385
63258W        W34787   8.837  43.351  11.560
63259W        W34788   4.010  32.828  10.876
63260W        W34789   3.969  40.298   4.160
63261W        W34790  44.733  33.698   4.148
63262W        W34791   2.446  12.634   3.672
63263W        W34792   9.168  19.532  11.470
63264W        W34793  25.533  18.433  14.974
63265W        W34794  37.889  34.910  13.010
63266W        W34795   1.236  31.894  12.994
63267W        W34796  28.481  28.637   2.439
63268W        W34797   0.790  35.531  12.891
63269W        W34798  14.472  17.493  11.658
63270W        W34799  15.111  32.106   2.306
63271W        W34800  33.403  24.695  12.244
63272W        W34801  12.212  25.543   0.048
63273W        W34802  31.081   0.004  14.544
63274W        W34803   4.316  37.397   1.808
63275W        W34804  32.406  31.167   3.848
63276W        W34805  42.730  33.042   0.699
63277W        W34806   5.957  34.836   2.195
63278W        W34807  15.325   6.471   2.835
63279W        W34808  44.531   4.945  13.992
63280W        W34809  22.112  23.112   4.805
63281W        W34810   7.348  25.948  10.830
63282W        W34811  37.275   2.425  12.106
63283W        W34812   9.588  11.276   0.779
63284W        W34813  32.959  11.299   4.665
63285W        W34814  10.335  25.591   2.259
63286W        W34815  21.719  30.476  13.385
63287W        W34816  38.985   8.213  11.582
63288W        W34817   6.953  30.010  14.075
63289W        W34818  39.115  18.991  13.372
63290W        W34819  18.284   2.698  10.600
63291W        W34820  30.396  28.554   0.787
63292W        W34821  18.294  29.591   2.994
63293W        W34822  42.728  15.087  14.229
63294W        W34823  30.460  36.097  14.242
63295W        W34824  15.345  18.885   0.243
63296W        W34825  23.614  39.995   2.280
63297W        W34826  17.800  36.998  12.863
63298W        W34827  19.628  32.169   1.673
63299W        W34828  16.240   8.046  12.046
63300W        W34829  35.716  13.037   3.950
63301W        W34830  11.437   3.730  10.637
63302W        W34831  19.578  44.258  12.428
63303W        W34832  35.715   9.601  14.442
63304W        W34833  26.225  20.118   4.708
63305W        W34834  19.485  13.370   1.609
63306W        W34835  17.029   1.742   3.320
63307W        W34836  15.520  30.728   3.770
63308W        W34837  40.763  18.547   2.662
63309W        W34838  26.116  30.363   1.698
63310W        W34839  41.410  34.014  13.330
63311W        W34840  37.860  34.376  12.258
63312W        W34841  33.805  28.381  10.757
63313W        W34842  18.752  28.039   2.938
63314W        W34843   8.406   1.900   2.242
63315W        W34844  19.117  33.296  12.579
63316W        W34845  18.034   1.724  12.550
63317W        W34846  41.771  34.140   1.152
63318W        W34847   4.067  37.915   0.807
63319W        W34848   6.904  36.140   2.824
63320W        W34849   3.294  14.820   4.620
63321W        W34850  34.641  25.672  12.560
63322W        W34851   3.972  25.280  13.797
63323W        W34852  17.282  37.172   3.669
63324W        W34853   3.899  42.392  11.392
63325W        W34854  44.706  15.630  10.513
63326W        W34855  30.795  38.500  12.575
63327W        W34856   7.595  11.077   0.783
63328W        W34857  35.922  24.400   4.834
63329W        W34858  20.462  20.623   3.249
63330W        W34859  10.740  21.422   5.082
63331W        W34860   3.021  19.092  14.332
63332W        W34861  41.475  22.123  11.250
63333W        W34862   8.973  11.398   1.374
63334W        W34863  18.873  37.036  13.669
63335W        W34864  27.298  19.044  13.760
63336W        W34865  28.526  20.185   4.693
63337W        W34866  17.449  11.306   2.175
63338W        W34867  38.123  29.664  12.045
63339W        W34868  12.205  33.965  10.628
63340W        W34869   8.692  30.623  11.655
63341W        W34870  13.164  22.488   1.940
63342W        W34871   3.325  11.386  13.271
63343W        W34872   9.221  44.716  12.415
63344W        W34873  40.571   7.140   3.056
63345W        W34874  21.034   8.479  10.724
63346W        W34875  25.984  39.393  13.020
63347W        W34876   6.406   5.352   4.199
63348W        W34877  30.133   2.091   0.200
63349W        W34878  28.028  14.615   3.317
63350W        W34879  24.300  18.241   1.493
63351W        W34880  20.639  15.809  13.862
63352W        W34881  34.445  14.336   1.306
63353W        W34882  37.621   7.221   0.807
63354W        W34883   7.747  29.144  12.451
63355W        W34884   1.186   0.232   4.544
63356W        W34885  38.779  22.837  11.303
63357W        W34886  44.444  20.799   4.043
63358W        W34887   4.166   4.874  10.373
63359W        W34888  26.179  25.956  13.021
63360W        W34889   3.747  25.693   3.230
63361W        W34890  17.175  32.653  13.605
63362W        W34891   5.606  33.569  12.882
63363W        W34892   7.274  22.982  11.977
63364W        W34893  44.287  19.965  14.510
63365W        W34894   9.249  19.801   4.503
63366W        W34895  44.224  40.145  11.560
63367W        W34896  39.912  42.960  11.104
63368W        W34897  21.822  20.269   3.218
63369W        W34898  37.388  38.291  13.974
63370W        W34899  36.487  29.352   0.865
63371W        W34900  25.875   0.460   3.097
63372W        W34901  27.660   8.331  11.509
63373W        W34902  22.321  44.487  12.447
63374W        W34903  14.039  43.648   2.907
63375W        W34904  13.560   5.124   0.880
63376W        W34905   9.866  22.425   4.152
63377W        W34906  18.065   4.364   3.771
63378W        W34907  30.088  41.909  13.049
63379W        W34908   1.385  20.147   4.578
63380W        W34909  22.626  32.142   4.286
63381W        W34910  32.098  11.147   2.915
63382W        W34911  30.422  43.516  14.919
63383W        W34912  27.129  21.483  13.012
63384W        W34913   0.305  35.743  12.985
63385W        W34914   2.427  22.647  12.111
63386W        W34915  37.534   9.489  13.056
63387W        W34916  26.047  23.385  13.729
63388W        W34917  38.508  20.749  11.970
63389W        W34918  26.567  36.594   1.297
63390W        W34919  17.806  39.461   2.555
63391W        W34920  36.006  35.293  12.227
63392W        W34921  39.543   9.196   2.419
63393W        W34922   3.344  40.388  14.859
63394W        W34923   6.634  37.944   2.576
63395W        W34924  37.393  42.485   4.046
63396W        W34925  13.862   4.776  14.675
63397W        W34926  10.490  18.306   3.715
63398W        W34927  10.903  26.619  12.637
63399W        W34928  32.101  40.828  12.066
63400W        W34929  24.707  12.658   2.637
63401W        W34930  42.466  11.190   3.742
63402W        W34931   7.200  31.479   1.183
63403W        W34932  41.443  20.661   1.365
63404W        W34933  30.864  40.485  11.173
63405W        W34934  44.460  10.215  12.945
63406W        W34935  16.275  26.059   1.513
63407W        W34936  34.963  31.201   1.408
63408W        W34937  18.703  40.021   4.214
63409W        W34938  37.356  16.767   4.444
63410W        W34939   5.636   9.875  14.872
63411W        W34940  26.670   8.270  11.550
63412W        W34941  27.106  24.828  13.583
63413W        W34942  22.594  36.456  11.343
63414W        W34943   0.893  17.004   4.203
63415W        W34944  38.548   0.952  10.882
63416W        W34945   4.897  35.639  14.385
63417W        W34946  12.153   3.897   2.147
63418W        W34947  27.753  19.838  13.365
63419W        W34948  21.002  29.938   3.738
63420W        W34949  34.832  18.249   3.658
63421W        W34950  36.402  27.953   1.790
63422W        W34951   7.620   9.336  13.337
63423W        W34952  37.128  26.717  10.844
63424W        W34953  32.979   3.228   2.021
63425W        W34954   3.011   6.266  14.837
63426W        W34955   8.159  25.762  11.312
63427W        W34956  25.534  20.473  14.919
63428W        W34957  33.906   5.323   3.138
63429W        W34958  32.117  26.897   2.800
63430W        W34959  34.511  29.224  11.603
63431W        W34960  26.934  39.009   1.750
63432W        W34961  33.935  28.560   2.433
63433W        W34962   9.027  22.997  13.114
63434W        W34963   0.911   6.934   3.625
63435W        W34964  14.244  12.431   1.765
63436W        W34965   4.932  15.334   0.595
63437W        W34966  42.043  18.720   2.750
63438W        W34967  43.287  15.605   4.140
63439W        W34968  32.195  39.614   0.378
63440W        W34969   9.880  44.873   3.599
63441W        W34970  39.801  28.173   0.030
63442W        W34971  17.164  30.991  14.892
63443W        W34972  41.843   7.288  11.601
63444W        W34973  21.071  27.373  11.944
63445W        W34974   4.446   4.154  10.915
63446W        W34975   5.780  27.704   4.169
63447W        W34976   6.493  27.723  12.553
63448W        W34977  42.717  26.392  12.954
63449W        W34978  26.215  32.424   0.871
63450W        W34979   8.292  38.945  13.809
63451W        W34980  37.539  35.860   0.362
63452W        W34981  12.588  38.781  11.792
63453W        W34982  35.171  16.714   2.288
63454W        W34983  26.530  41.570   0.443
63455W        W34984  15.279  34.101  14.395
63456W        W34985  41.223  32.391  10.773
63457W        W34986  29.062   7.961  14.419
63458W        W34987  37.114  12.399  14.905
63459W        W34988  17.450  36.911   2.285
63460W        W34989  33.451  22.629   5.076
63461W        W34990  29.947  30.480   2.256
63462W        W34991  14.764   3.233   2.822
63463W        W34992  15.814   0.291   2.731
63464W        W34993  39.797  26.095   3.178
63465W        W34994   4.488  42.317   3.723
63466W        W34995   2.951   8.720   2.609
63467W        W34996  11.428  32.690   3.298
63468W        W34997  35.417  24.833   2.689
63469W        W34998  22.429   2.381   0.971
63470W        W34999  10.741   3.417   1.353
63471W        W35000  15.965  35.046  13.781
63472W        W35001  27.828  28.587  10.531
63473W        W35002  43.027  32.800   3.369
63474W        W35003  20.985  43.518  14.368
63475W        W35004   7.375  38.391  11.610
63476W        W35005  16.334  44.552  12.037
63477W        W35006   2.747   0.066  11.171
63478W        W35007  19.665   4.799  10.767
63479W        W35008  44.467  44.815  14.074
63480W        W35009  11.648  14.647   2.185
63481W        W35010  25.082   0.469   2.738
63482W        W35011  30.130   8.936   3.796
63483W        W35012  34.087  44.881  12.165
63484W        W35013   2.777   3.308   4.943
63485W        W35014  28.226  41.075   4.263
63486W        W35015  12.400  41.861  13.175
63487W        W35016  17.330  34.999  11.977
63488W        W35017   9.354   6.591  14.246
63489W        W35018  43.426   2.733  13.116
63490W        W35019  33.067  15.570  12.040
63491W        W35020  42.902   4.751   5.018
63492W        W35021  31.668  16.234   3.775
63493W        W35022  28.509   2.926   0.445
63494W        W35023  37.052  21.069  12.511
63495W        W35024  36.374   9.399   4.046
63496W        W35025  30.197  31.690   1.875
63497W        W35026  25.243  32.948  14.631
63498W        W35027  43.256  10.175  12.518
63499W        W35028  14.782  31.185  14.956
63500W        W35029  31.165  16.534  13.176
63501W        W35030  27.746  39.591  11.559
63502W        W35031  26.656  19.224  11.242
63503W        W35032  38.418  27.974   1.920
63504W        W35033  43.362  19.016   3.696
63505W        W35034  22.219  30.479   2.325
63506W        W35035  10.894  34.511   1.942
63507W        W35036  15.387  43.812   4.036
63508W        W35037  15.146  17.177   2.858
63509W        W35038  42.523  10.138  10.733
63510W        W35039  36.853   3.422  14.462
63511W        W35040  20.533   4.346   4.374
63512W        W35041   7.572  25.099   5.257
63513W        W35042  30.347  44.595  13.116
63514W        W35043  31.637  13.266   1.410
63515W        W35044  30.917   5.384  14.534
63516W        W35045  41.012  16.390   0.995
63517W        W35046   2.304  32.613   3.608
63518W        W35047   4.205   7.505   2.320
63519W        W35048  39.506   6.361  13.508
63520W        W35049  31.111  31.349  14.033
63521W        W35050  20.440  31.007  11.890
63522W        W35051  23.025   0.247  12.197
63523W        W35052  41.927  21.287   1.794
63524W        W35053  26.086   5.531   0.412
63525W        W35054  14.149  27.395  11.212
63526W        W35055   8.655  41.713  14.264
63527W        W35056  31.560   3.774  14.419
63528W        W35057   1.141   1.972  11.266
63529W        W35058   0.378  42.198  12.207
63530W        W35059  34.921  29.245   1.926
63531W        W35060   5.303   1.785  12.290
63532W        W35061  28.577  44.467  11.700
63533W        W35062   7.907  38.561  12.464
63534W        W35063  26.153  31.580  14.400
63535W        W35064  21.159   3.920   3.908
63536W        W35065   8.448  42.357   4.128
63537W        W35066  31.008  23.342   0.862
63538W        W35067  19.290   6.046   4.184
63539W        W35068  31.600   7.189   3.102
63540W        W35069  35.566   3.581   0.266
63541W        W35070  11.898  25.977  14.451
63542W        W35071   6.432   1.757   3.647
63543W        W35072   7.625   0.762  14.453
63544W        W35073   1.292  26.151  12.938
63545W        W35074   5.867  40.776   4.241
63546W        W35075   2.140  22.481  10.582
63547W        W35076  32.310  19.580   0.198
63548W        W35077  13.808   3.668   1.689
63549W        W35078  43.817  37.461  12.543
63550W        W35079   5.306   2.895  10.234
63551W        W35080   9.168  42.905  12.114
63552W        W35081  13.220  37.391   0.704
63553W        W35082  37.549   1.321  14.841
63554W        W35083  14.812  28.669  12.851
63555W        W35084  34.051  16.375   4.721
63556W        W35085   3.603  38.661  12.070
63557W        W35086  34.419   6.881   4.523
63558W        W35087  31.819  44.684  12.512
63559W        W35088  26.196  38.562  14.449
63560W        W35089  27.060   7.001  14.456
63561W        W35090  20.644  27.077  11.626
63562W        W35091  19.236   0.280  12.987
63563W        W35092  34.564  26.030  11.730
63564W        W35093  37.879  28.441   2.784
63565W        W35094   4.228  16.847   4.188
63566W        W35095   3.896  44.631  13.127
63567W        W35096  23.727  30.024  14.106
63568W        W35097  21.008   8.458   0.692
63569W        W35098  44.782  38.887   1.633
63570W        W35099  13.728   1.153   1.796
63571W        W35100   0.513  39.066  11.435
63572W        W35101  38.047  39.951  11.256
63573W        W35102  10.337  35.905   2.780
63574W        W35103   5.595  42.892  12.699
63575W        W35104  19.831   4.311   1.647
63576W        W35105  10.737  23.443  10.988
63577W        W35106  24.659   3.857  14.846
63578W        W35107  34.415  25.220   2.411
63579W        W35108  26.296   7.557  13.206
63580W        W35109  31.157  35.808  12.987
63581W        W35110  28.730   6.648  14.819
63582W        W35111   0.390  31.612   3.356
63583W        W35112   9.429  14.275   0.923
63584W        W35113  20.949  23.810   0.431
63585W        W35114  26.282  33.609  11.121
63586W        W35115   3.213  25.534  11.644
63587W        W35116  12.322   6.464  12.540
63588W        W35117  11.715  23.444   4.530
63589W        W35118  36.130  18.215   4.545
63590W        W35119  12.562   4.447   0.803
63591W        W35120  36.225  13.172   0.419
63592W        W35121   8.964  31.010   1.279
63593W        W35122  25.977  25.179   0.966
63594W        W35123  21.729  16.576  12.526
63595W        W35124  31.479  25.521   3.540
63596W        W35125  33.448   1.134   1.267
63597W        W35126  31.365  42.980   2.236
63598W        W35127  16.471   2.460   0.468
63599W        W35128  13.411  29.144  12.457
63600W        W35129  24.463  12.661  14.890
63601W        W35130   4.937  39.519  10.707
63602W        W35131  36.340  32.954  12.799
63603W        W35132  32.274  11.224   4.600
63604W        W35133  19.329   4.545  11.727
63605W        W35134   4.309  27.369   2.665
63606W        W35135  25.622  31.086  13.397
63607W        W35136  21.770  31.018   3.849
63608W        W35137  30.883   2.972   3.292
63609W        W35138  22.652  16.828  13.463
63610W        W35139  25.428  18.749   1.740
63611W        W35140  16.307  27.103   3.800
63612W        W35141  34.148  15.247  14.314
63613W        W35142   8.519  15.676  12.994
63614W        W35143  22.740   6.401   0.384
63615W        W35144  40.411   0.994  12.401
63616W        W35145  37.625  13.290  11.085
63617W        W35146  31.072  40.185  11.677
63618W        W35147  39.218  25.076  12.596
63619W        W35148   6.799  18.275   2.470
63620W        W35149  44.715  40.030   4.272
63621W        W35150  15.642  35.440   2.638
63622W        W35151  15.017  39.016   3.777
63623W        W35152   4.950  39.569   2.558
63624W        W35153   3.998  25.654   3.696
63625W        W35154  37.808  37.503  14.823
63626W        W35155  16.419  29.829   2.329
63627W        W35156  28.651  20.581   2.550
63628W        W35157   7.426  36.772   4.044
63629W        W35158  30.586   3.203  13.584
63630W        W35159  31.275  44.444  13.491
63631W        W35160  10.336  23.187  10.731
63632W        W35161  29.952   0.752   2.311
63633W        W35162  15.231   4.752   9.800
63634W        W35163  44.235  41.924  13.935
63635W        W35164   9.467   8.794   2.334
63636W        W35165  39.469   9.088   1.907
63637W        W35166   7.375  30.622   2.196
63638W        W35167  17.772   3.324   2.713
63639W        W35168  37.561  35.393  11.448
63640W        W35169  35.217  42.421  11.677
63641W        W35170  26.608   4.357   4.775
63642W        W35171  10.289  40.852  13.053
63643W        W35172   7.179   2.454  14.031
63644W        W35173  24.577   9.929  11.703
63645W        W35174   6.787  16.660  12.621
63646W        W35175  18.740  23.960  10.680
63647W        W35176   1.210   3.337  13.450
63648W        W35177  22.109  17.624   1.391
63649W        W35178   3.652  34.568   3.462
63650W        W35179   3.303  39.929  10.734
63651W        W35180  15.624   2.030  10.255
63652W        W35181  30.116  24.069   2.660
63653W        W35182  21.240  33.016  14.387
63654W        W35183  22.163  34.509   2.708
63655W        W35184  29.181  20.911   1.868
63656W        W35185  43.834   7.712  12.841
63657W        W35186  26.041  17.523   3.473
63658W        W35187  31.250  33.846   1.826
63659W        W35188  30.079  22.637   2.745
63660W        W35189  30.924   7.589  14.169
63661W        W35190  18.052  29.010   1.321
63662W        W35191  37.685  34.509  13.278
63663W        W35192  21.644  37.577   3.348
63664W        W35193   3.696  17.061  11.906
63665W        W35194  29.568  26.473   1.905
63666W        W35195  35.146  18.210  11.584
63667W        W35196  13.800  15.359   1.290
63668W        W35197   1.730   9.215   4.617
63669W        W35198  18.912  33.658   0.490
63670W        W35199   6.329  27.560   0.216
63671W        W35200  43.889  13.114   5.105
63672W        W35201  25.666   5.387  12.847
63673W        W35202   1.303  21.547   3.232
63674W        W35203   5.238   7.136  12.130
63675W        W35204  18.464  14.659   3.650
63676W        W35205  25.233   0.314   2.222
63677W        W35206  20.907  12.315  10.649
63678W        W35207  42.274  32.824   0.834
63679W        W35208   3.860  28.097  11.948
63680W        W35209  37.929  14.657   3.690
63681W        W35210   8.749  25.322   1.428
63682W        W35211  18.049  37.364  14.485
63683W        W35212  14.532  29.175  14.937
63684W        W35213   8.140  40.816  11.448
63685W        W35214  16.572   3.710  14.839
63686W        W35215  24.147   5.204   3.544
63687W        W35216  15.312   9.815  11.658
63688W        W35217  40.790   3.887  14.004
63689W        W35218  38.994  15.205   1.499
63690W        W35219  13.442   8.476   4.404
63691W        W35220  31.501  28.883  12.109
63692W        W35221  16.076  43.461   3.630
63693W        W35222   9.751  40.713  11.062
63694W        W35223  43.382   9.382   4.975
63695W        W35224  34.846  15.083   4.208
63696W        W35225  31.165   5.467   2.411
63697W        W35226  34.492  10.680  12.022
63698W        W35227  10.091   3.754  11.463
63699W        W35228   6.144   1.418   2.790
63700W        W35229   1.726   1.459   0.211
63701W        W35230  13.775  11.162   3.731
63702W        W35231  44.047   0.440  12.706
63703W        W35232  40.189  31.984   3.039
63704W        W35233  37.566  26.420   2.384
63705W        W35234  13.836  24.155   3.415
63706W        W35235  41.582  36.421   0.453
63707W        W35236  43.393  36.098   0.344
63708W        W35237   8.102  42.021  13.415
63709W        W35238  15.743  20.244   0.713
63710W        W35239  35.267  39.247  12.318
63711W        W35240  36.403  13.913  14.359
63712W        W35241  13.639  10.253  11.971
63713W        W35242  36.065  42.036  14.446
63714W        W35243  34.097  10.147   0.501
63715W        W35244  30.190  10.722  12.405
63716W        W35245   3.557  44.339  13.857
63717W        W35246  22.061  32.563   2.168
63718W        W35247  20.911  26.698  10.571
63719W        W35248  28.602  18.981   4.017
63720W        W35249   2.688  15.478   1.911
63721W        W35250  22.476  20.640  12.524
63722W        W35251  27.968  35.517  13.038
63723W        W35252  19.309  27.811  13.369
63724W        W35253  32.901  22.586   3.307
63725W        W35254  31.473  12.850   4.636
63726W        W35255  22.899  24.034   2.890
63727W        W35256  25.818  23.693   2.657
63728W        W35257  33.171   2.859   3.800
63729W        W35258  26.871  35.157   3.396
63730W        W35259   4.375  39.465  10.666
63731W        W35260  23.465  16.672   0.356
63732W        W35261  40.643  21.905   4.179
63733W        W35262   2.341  10.691   1.705
63734W        W35263  36.315  26.620  11.656
63735W        W35264  18.940   2.570   4.460
63736W        W35265  22.003  10.628   2.310
63737W        W35266  42.565  43.105   4.089
63738W        W35267  38.649   4.825  10.885
63739W        W35268  31.175  43.338   1.509
63740W        W35269  25.632  25.869   2.965
63741W        W35270  31.059  19.293  13.316
63742W        W35271  28.160  35.497   3.875
63743W        W35272   5.698  38.434   1.409
63744W        W35273  12.196  32.652   1.785
63745W        W35274  12.075  37.921  14.489
63746W        W35275  23.520  16.166   4.009
63747W        W35276  36.823  28.581  11.668
63748W        W35277  30.974  23.198  12.971
63749W        W35278  28.584  24.879  13.863
63750W        W35279   7.805  32.182   4.108
63751W        W35280  14.890  30.101  10.184
63752W        W35281  21.072  18.533  13.038
63753W        W35282  38.872  22.547  10.562
63754W        W35283   8.449  15.159  12.385
63755W        W35284  32.373  23.325   3.211
63756W        W35285   2.964  39.516  12.160
63757W        W35286   3.469  17.854   4.079
63758W        W35287  41.062   8.411  12.668
63759W        W35288  10.122  26.091   2.704
63760W        W35289   1.335  13.562  13.420
63761W        W35290  24.130  39.639  10.914
63762W        W35291  37.536  44.922  13.434
63763W        W35292  41.234  18.242   3.678
63764W        W35293  28.187  15.201  14.965
63765W        W35294   3.374  36.405   3.663
63766W        W35295  12.134   5.648  12.948
63767W        W35296  17.121  27.871  10.992
63768W        W35297   7.938  25.415   4.561
63769W        W35298   4.201   9.398   1.806
63770W        W35299  23.456  31.059   4.775
63771W        W35300  16.893  19.380   1.364
63772W        W35301  31.583   6.265   2.942
63773W        W35302  10.052  23.461  13.072
63774W        W35303   1.302  41.161   1.326
63775W        W35304  42.988   2.727   4.349
63776W        W35305  28.606   9.732   3.149
63777W        W35306  17.393  24.230  10.180
63778W        W35307   4.278  40.019   0.986
63779W        W35308  22.579  18.772   3.393
63780W        W35309  31.183  43.196  10.773
63781W        W35310  31.161  15.525  14.275
63782W        W35311   3.462  34.152   3.205
63783W        W35312   5.304  36.126  13.816
63784W        W35313  25.485  20.574  13.055
63785W        W35314  10.573   6.076   1.406
63786W        W35315   6.211  22.212  14.867
63787W        W35316  36.329  26.241   1.213
63788W        W35317  39.288  41.677  11.138
63789W        W35318  15.486  13.265  13.347
63790W        W35319  19.415  27.225  13.956
63791W        W35320  43.589  40.303  10.745
63792W        W35321  28.749  31.847   5.373
63793W        W35322   8.317  35.989   3.315
63794W        W35323  42.028  18.803   1.247
63795W        W35324  29.200  14.860   0.452
63796W        W35325   2.898  42.683  12.042
63797W        W35326  36.828  26.631  11.635
63798W        W35327  38.644  26.750   0.508
63799W        W35328  35.644  10.174  12.536
63800W        W35329  19.155  32.644   0.966
63801W        W35330  19.014   1.545  10.419
63802W        W35331   9.087  31.424   0.475
63803W        W35332   5.201  41.212   2.293
63804W        W35333   3.112  20.015  10.768
63805W        W35334  20.144  11.847   3.767
63806W        W35335   4.779  19.438   2.341
63807W        W35336  14.029   0.787   0.898
63808W        W35337  18.966  26.310  13.314
63809W        W35338  30.642  44.135  11.526
63810W        W35339  14.061  34.103   2.698
63811W        W35340  33.847   4.306  14.732
63812W        W35341   7.787  42.455  13.368
63813W        W35342  25.143  31.073   0.276
63814W        W35343  34.433  13.284   1.276
63815W        W35344   1.743  22.139  12.012
63816W        W35345  28.199  22.209  13.155
63817W        W35346   2.873  41.983  14.360
63818W        W35347  34.097  42.243  14.040
63819W        W35348  30.860  14.630  12.640
63820W        W35349  33.778  33.494  10.258
63821W        W35350  43.482  35.996   2.640
63822W        W35351  41.062  36.904  11.294
63823W        W35352  28.929  26.395   0.231
63824W        W35353  19.629  18.770   1.947
63825W        W35354  32.387   8.197   3.604
63826W        W35355  15.238  37.959  12.451
63827W        W35356  38.214  37.799  14.998
63828W        W35357  11.409  34.547   1.994
63829W        W35358  13.002  32.359   5.061
63830W        W35359   3.325   0.922  14.182
63831W        W35360  24.395   1.832  10.880
63832W        W35361  11.886  25.468  14.564
63833W        W35362  41.587  44.247  11.505
63834W        W35363  12.781  31.232  13.940
63835W        W35364  39.484  16.105  12.588
63836W        W35365  12.273  12.114  10.789
63837W        W35366   5.138   2.483  14.865
63838W        W35367  25.451  30.737   4.606
63839W        W35368  15.599  13.221   4.047
63840W        W35369  21.946  10.916   1.668
63841W        W35370  40.424  33.600  14.743
63842W        W35371  32.477   5.636   0.892
63843W        W35372   3.860   4.889   3.102
63844W        W35373  35.860  11.853  11.968
63845W        W35374  39.290  15.027  14.297
63846W        W35375  18.994   7.388  10.744
63847W        W35376   7.265  30.983   1.031
63848W        W35377  13.737   1.325  12.022
63849W        W35378   7.754  11.473   2.479
63850W        W35379   3.524  13.717   1.262
63851W        W35380  32.465  10.701  14.074
63852W        W35381  29.460   7.396   1.808
63853W        W35382  34.638  44.939  11.095
63854W        W35383   7.829  29.702   2.474
63855W        W35384  27.722  34.977   3.529
63856W        W35385  30.917  15.270  13.463
63857W        W35386  35.878  44.964   3.586
63858W        W35387  29.158  36.940   2.782
63859W        W35388  43.640  31.879   0.130
63860W        W35389  22.730  23.066  14.927
63861W        W35390  44.756  14.718   2.483
63862W        W35391   9.792   0.728  14.546
63863W        W35392  17.602  19.219  10.612
63864W        W35393  42.458  35.044   2.364
63865W        W35394  17.894   6.423  10.784
63866W        W35395  29.596   4.186   3.693
63867W        W35396  36.499  32.074   4.507
63868W        W35397  38.761  36.489  14.284
63869W        W35398   5.617  37.377   3.949
63870W        W35399  20.285  21.607  14.359
63871W        W35400  32.987  40.500  14.642
63872W        W35401   0.077  35.215   1.905
63873W        W35402  36.952  10.898  13.628
63874W        W35403  37.400  25.584   0.377
63875W        W35404  13.118  18.768  12.973
63876W        W35405  22.756  41.464   4.637
63877W        W35406   7.014  32.684   1.231
63878W        W35407  40.565  11.989   5.008
63879W        W35408  31.395   5.152   1.259
63880W        W35409  20.929  37.244  12.984
63881W        W35410  34.581  10.420   1.897
63882W        W35411  33.793  40.271  13.309
63883W        W35412  43.259  23.615   1.472
63884W        W35413  42.589  28.431  11.733
63885W        W35414  36.140  29.048  12.945
63886W        W35415  38.895   6.660   3.632
63887W        W35416  31.012  38.457  14.263
63888W        W35417  31.949  37.781  13.355
63889W        W35418  23.480  33.295   2.956
63890W        W35419  22.404   7.876  12.543
63891W        W35420  34.169  30.641  12.000
63892W        W35421   3.797  15.697  10.749
63893W        W35422   6.582   5.100  14.766
63894W        W35423  28.081  24.772   1.410
63895W        W35424  28.734   5.269  12.086
63896W        W35425  10.230  14.221   1.414
63897W        W35426  15.309  36.687  13.031
63898W        W35427  37.639  39.094  12.016
63899W        W35428  42.009  41.249   3.936
63900W        W35429   6.173   9.890   0.307
63901W        W35430  31.582  32.423   1.367
63902W        W35431  32.482  27.756   3.591
63903W        W35432   1.430   5.694  12.131
63904W        W35433  36.046   7.348   1.733
63905W        W35434  43.354  16.076   1.963
63906W        W35435  13.802   9.043  12.497
63907W        W35436  22.466  27.043  14.015
63908W        W35437  24.410   2.463  13.338
63909W        W35438  26.587  21.439  13.020
63910W        W35439  38.305  29.854   3.230
63911W        W35440  15.067   9.676   3.771
63912W        W35441  16.234  23.406   2.625
63913W        W35442  40.503  24.521   1.318
63914W        W35443   1.324   4.145  13.129
63915W        W35444  38.632  22.251  11.487
63916W        W35445  22.510  18.987  10.213
63917W        W35446  37.669   2.541   2.649
63918W        W35447  41.639  35.364  12.456
63919W        W35448  17.488  33.415  12.142
63920W        W35449  16.248  13.399  11.077
63921W        W35450  17.623  13.123  13.498
63922W        W35451  24.666   7.256  13.302
63923W        W35452  43.052  31.546   2.302
63924W        W35453  32.022  13.751   0.928
63925W        W35454  21.656  21.556   2.707
63926W        W35455  26.482  22.635   2.568
63927W        W35456  10.780  20.093  12.077
63928W        W35457  41.244  14.436  13.789
63929W        W35458  13.753   8.150  10.205
63930W        W35459   5.329  39.863  10.724
63931W        W35460  33.905  29.015   2.717
63932W        W35461   5.227  13.671  10.765
63933W        W35462  31.910   7.383   0.240
63934W        W35463  30.176  16.818   4.331
63935W        W35464  40.718  34.619  13.057
63936W        W35465  11.042  39.086   3.798
63937W        W35466  27.934  24.789  14.184
63938W        W35467  35.177  22.300  11.558
63939W        W35468  16.140  37.131  11.975
63940W        W35469  10.565  25.078   4.972
63941W        W35470  37.063   3.744  12.145
63942W        W35471  40.473  23.190  11.637
63943W        W35472  23.996  19.297   4.832
63944W        W35473   4.136  29.115   0.922
63945W        W35474  21.725  15.651  12.364
63946W        W35475  22.740   2.260   1.348
63947W        W35476   2.879  11.174  14.512
63948W        W35477  21.720   8.213   3.557
63949W        W35478  21.938  13.214  13.990
63950W        W35479  13.791  36.690  14.638
63951W        W35480  17.736  14.382  12.583
63952W        W35481  32.393  19.470   3.518
63953W        W35482  25.957   8.868  14.990
63954W        W35483   9.694  36.526   4.257
63955W        W35484   3.734  32.670   4.189
63956W        W35485   2.941  29.124   1.640
63957W        W35486   8.139   9.641   2.670
63958W        W35487  13.380  40.016   0.884
63959W        W35488  29.002  18.164   3.710
63960W        W35489  29.999  21.722  13.052
63961W        W35490  25.634  35.126   1.310
63962W        W35491  28.798  27.932  13.561
63963W        W35492  34.138  11.508  11.172
63964W        W35493  27.539   8.370   4.645
63965W        W35494  29.421  26.027  14.422
63966W        W35495  44.832  30.006  13.575
63967W        W35496  15.835  28.660  13.975
63968W        W35497  33.777  40.279   0.801
63969W        W35498  17.281  23.012   4.499
63970W        W35499   9.322  13.103  12.856
63971W        W35500   4.251  13.709   4.573
63972W        W35501  12.211  20.005  12.296
63973W        W35502  10.624  16.248  13.903
63974W        W35503  35.593   5.640  12.761
63975W        W35504   3.612  20.019   0.952
63976W        W35505  14.199  15.996  10.745
63977W        W35506  24.262  34.234  10.731
63978W        W35507  16.827   8.755   3.586
63979W        W35508  28.512  29.444   3.091
63980W        W35509  12.599  20.764  12.533
63981W        W35510   2.594  22.528   2.674
63982W        W35511  31.498   1.546  12.466
63983W        W35512  34.904  10.307  13.999
63984W        W35513  27.430  14.818  14.967
63985W        W35514  12.445  33.345   1.134
63986W        W35515  15.110  41.013  11.160
63987W        W35516   5.005  22.994  13.330
63988W        W35517  40.412  16.390   1.892
63989W        W35518  30.014   1.350   0.547
63990W        W35519  27.040  27.991   1.689
63991W        W35520  38.070  27.508   2.592
63992W        W35521   8.716  38.113  13.056
63993W        W35522  38.994  14.110  14.921
63994W        W35523  26.676  19.624   3.339
63995W        W35524  26.398  30.511  10.401
63996W        W35525  15.268  39.232   0.288
63997W        W35526  21.894  13.557   0.846
63998W        W35527  27.981  18.197   5.107
63999W        W35528  33.622  21.779  12.862
64000W        W35529   3.487  44.410   2.139
64001W        W35530  26.847  12.914   2.688
64002W        W35531  10.701   8.662   0.916
64003W        W35532  14.774  35.906   0.321
64004W        W35533  14.295  39.358   4.324
64005W        W35534  13.060  19.395  10.480
64006W        W35535   4.836  27.926  11.195
64007W        W35536  29.002   8.729   0.787
64008W        W35537  26.223   4.449   0.874
64009W        W35538   1.733  35.457   1.204
64010W        W35539  29.809  26.713   0.533
64011W        W35540  19.651  20.054   0.869
64012W        W35541  43.892  23.693   4.119
64013W        W35542  43.834  44.613  11.851
64014W        W35543  17.109  34.164   2.742
64015W        W35544  17.155  36.163   3.451
64016W        W35545  26.037  16.137   3.252
64017W        W35546  21.702  36.855   4.141
64018W        W35547  40.841   9.968  11.558
64019W        W35548   1.287  27.150  10.342
64020W        W35549  22.723  13.838   3.720
64021W        W35550   2.008  29.508   1.940
64022W        W35551  21.091  38.336   2.634
64023W        W35552   9.191  44.792  14.352
64024W        W35553  42.465  34.526   0.451
64025W        W35554  43.787  17.269   2.146
64026W        W35555  31.430   2.711   0.410
64027W        W35556   7.360  25.976   4.100
64028W        W35557   7.608   4.912  13.908
64029W        W35558  16.163  20.757   2.594
64030W        W35559  37.368   0.552  11.668
64031W        W35560  30.627  19.214  13.587
64032W        W35561   4.191  10.897   4.245
64033W        W35562  39.266  41.905  14.060
64034W        W35563   3.484  17.069  13.887
64035W        W35564  27.081   3.315  12.519
64036W        W35565   8.640  26.419   2.316
64037W        W35566   8.351  19.840   2.884
64038W        W35567  26.928   2.951  11.588
64039W        W35568  24.691  23.927  11.456
64040W        W35569  42.726  44.765  11.294
64041W        W35570   3.977   0.408  14.838
64042W        W35571  37.485  26.849  14.865
64043W        W35572   7.466  16.208   2.232
64044W        W35573   3.388  35.033   4.134
64045W        W35574   2.959   9.610   2.325
64046W        W35575   8.249  35.214   1.962
64047W        W35576  10.877  44.347  10.527
64048W        W35577  27.046  14.658  13.119
64049W        W35578  38.091  29.595  11.492
64050W        W35579   2.262   9.127  14.399
64051W        W35580  42.549  22.837   4.499
64052W        W35581   4.793  17.935   2.293
64053W        W35582  27.426   3.000   1.851
64054W        W35583  22.200  33.380  13.184
64055W        W35584  24.308  30.730  10.203
64056W        W35585   6.615  42.372   4.618
64057W        W35586   7.264   1.368  12.031
64058W        W35587  35.876  20.562   1.488
64059W        W35588  41.900  13.313  14.064
64060W        W35589  33.400  19.622   1.907
64061W        W35590  32.681   0.833  10.595
64062W        W35591   7.429  25.112   2.670
64063W        W35592  20.678  38.022   4.602
64064W        W35593  16.593  10.249  11.646
64065W        W35594  22.665  30.798  10.562
64066W        W35595  36.128  43.823   0.730
64067W        W35596  35.141  28.858  12.078
64068W        W35597  38.547  44.198  11.025
64069W        W35598  23.251   2.250  11.473
64070W        W35599  29.345  28.930  12.113
64071W        W35600  32.006  39.400  13.645
64072W        W35601   6.935  35.349  12.027
64073W        W35602  24.801  43.322  14.416
64074W        W35603  23.709   8.588   4.422
64075W        W35604   4.966  16.244   1.061
64076W        W35605  42.281  23.704  13.640
64077W        W35606  42.723   9.341   2.343
64078W        W35607  21.454  30.904   4.231
64079W        W35608  41.783  24.590  13.346
64080W        W35609  28.155  22.007   1.173
64081W        W35610  26.127  29.457  13.323
64082W        W35611  42.453  21.573   0.985
64083W        W35612  43.030  17.214  12.087
64084W        W35613   1.576  27.870  14.937
64085W        W35614  38.137  23.050  13.801
64086W        W35615  33.898  42.775   2.910
64087W        W35616  14.122   1.293   0.866
64088W        W35617  15.251  44.054   2.446
64089W        W35618  35.164   5.397  12.568
64090W        W35619  27.033  21.497   2.325
64091W        W35620  36.013  21.777  11.777
64092W        W35621  24.682   4.194   4.486
64093W        W35622  23.714  13.367   3.484
64094W        W35623  18.005   5.022  12.557
64095W        W35624  22.283  39.103  13.461
64096W        W35625   9.303  11.711   4.292
64097W        W35626   3.331  39.286  12.478
64098W        W35627  29.503   1.054   2.314
64099W        W35628  43.095  20.251   2.252
64100W        W35629   4.317  37.275   4.749
64101W        W35630  24.011   2.720   0.014
64102W        W35631  40.445  34.863   4.911
64103W        W35632  35.568  36.120   1.962
64104W        W35633  27.931  16.151   3.887
64105W        W35634  40.175  16.149  10.894
64106W        W35635   8.285  41.002   4.033
64107W        W35636   5.480  34.005   4.655
64108W        W35637  28.108  35.463   1.997
64109W        W35638  24.997  44.241   0.365
64110W        W35639  16.876  44.434  12.819
64111W        W35640  18.676  21.472  10.757
64112W        W35641  28.564  30.538  14.649
64113W        W35642   1.217  42.331   4.898
64114W        W35643  42.205  12.799   3.187
64115W        W35644  31.534  19.076   3.990
64116W        W35645   0.780  14.436   4.176
64117W        W35646   0.508  44.690  11.249
64118W        W35647  11.151  10.827   2.150
64119W        W35648   5.873   6.598  12.501
64120W        W35649   1.946  26.572   0.401
64121W        W35650  30.034  10.932   3.291
64122W        W35651  32.208   1.238   3.797
64123W        W35652   9.413  39.929  11.717
64124W        W35653   7.672  35.504  12.714
64125W        W35654   3.813  32.616  13.623
64126W        W35655   3.432   1.876   3.588
64127W        W35656  29.328  22.237  11.496
64128W        W35657  31.576  24.516   5.434
64129W        W35658   8.907  21.677   4.081
64130W        W35659  11.091  41.956  11.981
64131W        W35660  44.482  21.069  12.250
64132W        W35661   5.962  40.070  12.376
64133W        W35662  39.695   9.782  14.765
64134W        W35663  26.048   2.123  12.933
64135W        W35664  26.208   4.906  12.492
64136W        W35665  34.616  23.935   2.361
64137W        W35666  39.735  36.303   1.787
64138W        W35667   9.296  14.074   4.937
64139W        W35668  22.700  31.383  13.352
64140W        W35669  12.214   0.091   2.346
64141W        W35670  28.073  10.248   1.291
64142W        W35671  23.739  38.781  12.317
64143W        W35672   4.303  16.706  11.512
64144W        W35673  27.537  24.610   4.894
64145W        W35674  21.690  41.078   0.213
64146W        W35675  15.741  31.096  14.509
64147W        W35676  43.495  24.196   3.323
64148W        W35677  37.317  13.315   1.326
64149W        W35678  31.695  28.949   2.364
64150W        W35679  10.206  43.754  10.546
64151W        W35680  39.975  26.418   3.540
64152W        W35681   3.291  19.035   4.625
64153W        W35682  41.517   4.764  12.023
64154W        W35683  36.282   0.300  12.407
64155W        W35684  25.384  38.302  11.696
64156W        W35685   6.759   3.283  12.951
64157W        W35686  16.804  38.133  12.581
64158W        W35687  38.273  43.268   0.448
64159W        W35688  20.645  30.678   2.883
64160W        W35689   1.002  31.067  10.463
64161W        W35690   2.377  18.061  14.214
64162W        W35691  43.214  44.423   1.749
64163W        W35692  34.875  29.662   1.276
64164W        W35693  28.338  21.417   1.838
64165W        W35694  35.085  43.549   3.503
64166W        W35695  14.195  27.471   0.917
64167W        W35696  43.667  14.144   4.580
64168W        W35697  40.990  25.109  11.101
64169W        W35698  18.989   3.460   5.044
64170W        W35699  31.573   4.657   2.361
64171W        W35700  15.319  16.367   4.273
64172W        W35701  35.314  23.248   1.861
64173W        W35702   9.838  28.171  14.305
64174W        W35703   4.368   5.023   2.933
64175W        W35704  37.015  27.616   1.273
64176W        W35705  17.519  25.980   4.395
64177W        W35706   7.398   4.896   9.720
64178W        W35707  23.047   8.476  12.483
64179W        W35708  23.721   6.326   4.240
64180W        W35709  18.099   8.183  14.309
64181W        W35710  27.706   1.749   5.124
64182W        W35711  20.762  36.483  14.418
64183W        W35712  27.455   6.184   4.382
64184W        W35713  40.588  31.941  12.796
64185W        W35714  26.558  42.196   2.697
64186W        W35715   7.274  36.803   0.347
64187W        W35716  41.609  37.613  14.874
64188W        W35717  40.999  30.421   0.205
64189W        W35718  16.624  24.810   1.964
64190W        W35719  33.164  29.128  12.463
64191W        W35720  14.249  13.064  11.958
64192W        W35721  22.738  10.437  13.574
64193W        W35722  43.479  18.067   3.731
64194W        W35723  26.041  30.367   0.850
64195W        W35724   3.339  14.083   0.468
64196W        W35725  29.907  32.477  12.482
64197W        W35726   2.702  38.937  13.029
64198W        W35727   2.111  36.618   3.254
64199W        W35728  25.760  31.906   2.740
64200W        W35729  44.063   5.671  11.874
64201W        W35730  40.769  26.219  13.043
64202W        W35731   1.474   1.379   4.665
64203W        W35732   8.727  24.063  14.973
64204W        W35733  32.382  38.916   2.672
64205W        W35734  27.783  25.208  12.870
64206W        W35735  23.509  43.211  14.777
64207W        W35736  20.238   4.641  13.982
64208W        W35737   7.129  40.009  14.955
64209W        W35738  41.008   3.418   3.687
64210W        W35739   7.802  32.505   3.396
64211W        W35740  44.392  16.209  14.969
64212W        W35741   9.951  14.537  10.904
64213W        W35742   9.665  19.458   1.032
64214W        W35743  24.020  29.974  14.990
64215W        W35744  26.148  13.252  12.533
64216W        W35745  29.288  25.093   4.534
64217W        W35746   8.535  27.612   0.868
64218W        W35747   3.745  37.450  13.791
64219W        W35748  39.468  28.729   3.217
64220W        W35749  16.604  39.904  12.086
64221W        W35750   4.789  25.660   2.469
64222W        W35751   9.357  17.677  12.356
64223W        W35752  33.917  24.055  12.906
64224W        W35753   1.319   7.970   2.211
64225W        W35754  30.633   4.739  11.140
64226W        W35755  15.071   9.237   4.059
64227W        W35756   5.835   5.125  11.586
64228W        W35757  31.010   6.137   5.042
64229W        W35758   8.334  13.873   3.873
64230W        W35759  23.983  44.739   2.301
64231W        W35760  11.724  34.577  13.964
64232W        W35761  44.832  35.978  12.098
64233W        W35762  19.107  41.859  12.066
64234W        W35763  44.393  17.838  11.380
64235W        W35764  30.495   0.546  14.887
64236W        W35765  38.058  16.784  13.686
64237W        W35766  20.708   5.785  10.922
64238W        W35767  35.243   8.010   3.711
64239W        W35768  27.052  36.623   0.418
64240W        W35769  40.014  36.106   2.709
64241W        W35770  12.130  22.733   4.245
64242W        W35771   4.154  24.966   0.586
64243W        W35772  43.635  24.061   0.763
64244W        W35773  15.063  24.556  13.814
64245W        W35774  22.961  10.253   2.404
64246W        W35775  14.079  11.422  13.367
64247W        W35776  42.131  20.351   4.183
64248W        W35777  14.817  15.724  10.673
64249W        W35778  14.559  15.844  11.094
64250W        W35779  10.190  29.939  13.340
64251W        W35780  17.176   5.249  10.988
64252W        W35781  41.503  29.640  11.944
64253W        W35782   9.445   3.412  12.072
64254W        W35783  30.546  43.183  10.711
64255W        W35784  19.629  27.354  11.200
64256W        W35785  12.803  36.650  14.580
64257W        W35786  13.047  28.980   4.839
64258W        W35787   8.352  43.585  14.039
64259W        W35788  25.122  41.284   1.233
64260W        W35789  17.851  36.082  13.105
64261W        W35790   1.029  17.642   3.204
64262W        W35791  25.089  20.332  14.387
64263W        W35792  28.316  12.152  10.681
64264W        W35793  23.101  27.021  13.074
64265W        W35794  33.415  21.121  13.324
64266W        W35795   3.486  41.406  11.986
64267W        W35796  41.368  44.233   1.186
64268W        W35797   6.711   4.212   3.631
64269W        W35798  15.336  44.286  10.717
64270W        W35799  11.551   9.033  13.885
64271W        W35800  13.042   4.394   4.088
64272W        W35801  36.104  37.514   0.351
64273W        W35802  42.915  23.693   0.243
64274W        W35803  34.990  39.358  11.512
64275W        W35804  17.328  19.492   0.534
64276W        W35805  39.086  27.144  11.546
64277W        W35806  29.106   2.401   3.635
64278W        W35807  26.991   0.757  11.621
64279W        W35808  11.649  28.065   4.073
64280W        W35809   1.988  22.026   4.274
64281W        W35810   9.242  20.971  13.814
64282W        W35811  28.176  18.702   3.872
64283W        W35812   1.281  27.567   0.799
64284W        W35813  39.074  22.645  14.444
64285W        W35814  44.964  13.977   4.035
64286W        W35815  18.458   4.350   4.182
64287W        W35816  19.555   1.079   1.660
64288W        W35817  35.991  40.971  14.336
64289W        W35818  31.772  15.775  10.747
64290W        W35819  12.180  18.090   4.310
64291W        W35820  19.841   3.304  13.036
64292W        W35821  43.784  37.514  13.851
64293W        W35822  20.663  17.551   4.460
64294W        W35823  24.368  33.330   2.477
64295W        W35824  33.152  43.402  14.026
64296W        W35825  44.981  42.890   0.829
64297W        W35826   9.265  19.992   2.804
64298W        W35827  11.826  13.193  14.834
64299W        W35828  25.548  14.270  13.149
64300W        W35829   8.408  32.071   2.824
64301W        W35830   4.631  26.794  11.950
64302W        W35831   8.170   4.717   1.278
64303W        W35832  41.923   0.663   1.733
64304W        W35833  43.957  25.937   0.694
64305W        W35834   7.728  29.524   2.972
64306W        W35835  26.452  20.006   1.718
64307W        W35836   6.951  28.796  11.272
64308W        W35837   4.425   3.292   2.080
64309W        W35838  22.592  43.594   2.452
64310W        W35839  22.545  36.472   1.692
64311W        W35840  37.507  38.159  10.425
64312W        W35841  11.466   7.597   4.998
64313W        W35842  24.929  15.808   1.555
64314W        W35843   9.301  39.742  12.753
64315W        W35844  42.882  41.758   1.256
64316W        W35845  31.415  44.043   2.811
64317W        W35846  38.905  41.531   4.639
64318W        W35847  12.120  12.270  12.955
64319W        W35848  10.972  14.388   0.830
64320W        W35849  23.639  22.325   4.316
64321W        W35850  18.644  25.747   3.377
64322W        W35851  38.791  40.974   3.960
64323W        W35852  19.300  26.408   2.526
64324W        W35853   6.170  10.704  13.532
64325W        W35854  13.478   3.011   3.733
64326W        W35855   0.358  27.499  10.811
64327W        W35856   3.672   7.662   2.346
64328W        W35857  22.218  15.609  12.487
64329W        W35858  26.691  25.944   1.925
64330W        W35859   3.815   9.974   2.400
64331W        W35860  15.685  38.023   1.869
64332W        W35861  44.998   1.274  14.508
64333W        W35862  27.542  38.280  12.611
64334W        W35863  17.614  34.915  12.427
64335W        W35864  25.470  37.383   0.593
64336W        W35865  27.876  15.819   1.219
64337W        W35866  24.599   9.376   1.891
64338W        W35867  43.561  13.589  14.086
64339W        W35868  44.237  23.482  11.201
64340W        W35869   0.885   0.243  14.917
64341W        W35870   3.775  24.358  12.421
64342W        W35871  32.050  34.565   3.131
64343W        W35872  19.811  10.660  14.829
64344W        W35873  11.203   3.698  14.901
64345W        W35874  41.257  38.595   3.761
64346W        W35875  30.184  24.532   1.378
64347W        W35876  31.035  27.674   2.434
64348W        W35877  23.764  11.179  11.084
64349W        W35878   5.764  33.975   2.623
64350W        W35879  38.911  43.295   1.270
64351W        W35880   3.023  32.087  11.512
64352W        W35881  38.526  26.175  11.637
64353W        W35882  17.752   2.914   0.381
64354W        W35883   4.475  33.428  14.815
64355W        W35884   0.964  28.506  11.524
64356W        W35885   2.331  40.989   3.588
64357W        W35886  19.130  16.485   1.724
64358W        W35887   1.726  29.038  11.216
64359W        W35888  19.851   3.587  13.923
64360W        W35889   5.546  34.909  13.992
64361W        W35890  24.517  43.141   3.068
64362W        W35891  15.975  39.083   4.562
64363W        W35892   0.769  20.400  10.704
64364W        W35893  32.023  31.157   4.659
64365W        W35894  44.397  13.948  14.951
64366W        W35895   3.652   7.749  13.566
64367W        W35896  14.195   3.845  10.992
64368W        W35897  26.936  39.133  13.852
64369W        W35898  38.517  16.492  11.568
64370W        W35899   5.196  44.443  10.771
64371W        W35900  32.064  43.810  10.962
64372W        W35901  42.513  23.456   0.476
64373W        W35902   0.396  23.709   1.812
64374W        W35903  28.480   6.427   1.937
64375W        W35904  21.271  18.294   4.764
64376W        W35905   5.687   7.202  14.499
64377W        W35906  33.558  23.412  11.200
64378W        W35907  10.296  29.008   0.482
64379W        W35908  39.101  43.985  11.150
64380W        W35909  12.152   1.948  10.584
64381W        W35910  41.017  26.100   0.841
64382W        W35911  17.455  31.999   1.400
64383W        W35912   2.821  26.562   1.700
64384W        W35913   3.796  28.923   2.054
64385W        W35914  16.251   3.312   3.998
64386W        W35915  37.854  35.279  11.924
64387W        W35916  30.081  22.189  13.319
64388W        W35917  38.812  22.191  14.429
64389W        W35918   4.440   0.800  10.418
64390W        W35919  43.457   2.972  13.575
64391W        W35920  39.934   7.559   2.662
64392W        W35921  22.330  16.126  10.598
64393W        W35922  30.548  27.977  14.221
64394W        W35923  16.736   8.694   1.209
64395W        W35924  26.091  23.070   3.899
64396W        W35925  19.765  25.658   0.663
64397W        W35926  12.596  11.648  14.234
64398W        W35927   9.717  42.310  12.921
64399W        W35928  33.890  39.639  11.895
64400W        W35929  12.797  30.205   0.447
64401W        W35930  35.510  28.759  13.070
64402W        W35931   6.705  19.194  14.456
64403W        W35932   5.418  29.692   4.762
64404W        W35933  26.072  31.392  13.427
64405W        W35934  30.997  33.752   1.389
64406W        W35935  16.357  44.433   2.661
64407W        W35936  19.065  14.120   1.673
64408W        W35937  19.885   8.475  11.465
64409W        W35938  41.469  35.424   2.191
64410W        W35939   2.141  11.386   4.639
64411W        W35940   5.243  18.290   1.690
64412W        W35941   4.929  32.679   2.802
64413W        W35942  17.733  35.402  12.318
64414W        W35943   5.403  17.703   4.153
64415W        W35944  20.742  12.195   4.286
64416W        W35945   0.934  44.205   0.813
64417W        W35946  39.780  13.601  10.725
64418W        W35947   1.052  43.301  10.886
64419W        W35948  12.139   2.331   3.397
64420W        W35949  42.363  38.616   1.294
64421W        W35950  33.412  19.821  13.336
64422W        W35951   0.574  11.822   1.846
64423W        W35952  13.161  20.626   3.095
64424W        W35953  23.848  39.419   5.542
64425W        W35954  26.953  36.544   5.038
64426W        W35955  36.096  28.958   2.082
64427W        W35956   0.860  15.237  12.149
64428W        W35957   3.804  34.130  14.897
64429W        W35958  18.583   7.068  13.450
64430W        W35959  40.857  23.564  13.527
64431W        W35960  40.492  36.291   2.881
64432W        W35961  40.868  17.475   0.319
64433W        W35962  42.446  14.707  14.001
64434W        W35963   8.873  44.808  11.152
64435W        W35964  23.004  17.819   1.914
64436W        W35965  32.021  43.918  11.861
64437W        W35966   7.526  38.333   1.683
64438W        W35967   3.834  29.546   0.802
64439W        W35968  30.211  18.016  12.394
64440W        W35969  36.435  40.523   1.298
64441W        W35970  29.144  14.701  14.027
64442W        W35971   0.143  19.375   4.898
64443W        W35972  20.578  22.471   4.701
64444W        W35973   9.214   6.082  14.193
64445W        W35974  36.011  21.396  12.107
64446W        W35975  26.098  25.827   2.361
64447W        W35976  24.292  40.533  10.760
64448W        W35977  37.322  25.550  14.474
64449W        W35978  19.722  17.831  12.002
64450W        W35979  22.745  32.073   1.688
64451W        W35980  31.716   8.779  12.432
64452W        W35981  43.947  25.562  13.921
64453W        W35982  27.947  34.902   1.618
64454W        W35983  27.535   2.540   4.576
64455W        W35984  29.729  43.287  14.405
64456W        W35985  36.426  15.751  10.815
64457W        W35986  20.057  17.995   1.271
64458W        W35987  18.015   3.651  10.701
64459W        W35988  30.445   5.606   2.970
64460W        W35989   2.929   4.910  14.453
64461W        W35990   6.866  12.457   3.193
64462W        W35991  36.075  11.649   1.307
64463W        W35992   7.331   6.738   2.861
64464W        W35993  35.876   6.753  11.053
64465W        W35994   5.057  37.899   0.805
64466W        W35995  29.409   6.338   4.076
64467W        W35996   8.432  28.720  14.303
64468W        W35997  27.210  27.747   0.906
64469W        W35998  25.447   9.925  13.709
64470W        W35999   0.454  14.104   3.962
64471W        W36000  34.024  39.226  11.093
64472W        W36001  19.557  11.807   1.323
64473W        W36002  21.980  24.476   0.263
64474W        W36003  18.759  36.106  12.689
64475W        W36004  39.478  41.430  11.573
64476W        W36005  27.235  32.025   4.601
64477W        W36006  24.029  28.917   3.216
64478W        W36007  12.730  43.539  11.697
64479W        W36008  39.132  34.620  12.423
64480W        W36009  35.351  22.058   1.430
64481W        W36010  37.406  12.930  11.395
64482W        W36011  39.487  36.022   2.724
64483W        W36012  19.753  39.007  10.757
64484W        W36013  40.407  35.472  12.882
64485W        W36014  39.920  10.107   0.665
64486W        W36015  39.488  38.479   1.698
64487W        W36016  42.060  10.561  13.545
64488W        W36017  42.996   6.450   2.365
64489W        W36018  26.046  41.049  14.317
64490W        W36019   8.438   6.788   2.338
64491W        W36020  38.823  43.981  12.853
64492W        W36021  20.585  39.454  13.313
64493W        W36022  32.224  17.699   4.309
64494W        W36023  41.450   9.459   2.458
64495W        W36024  29.944  34.369   1.019
64496W        W36025   0.467  13.804   4.749
64497W        W36026  17.716  13.193  14.001
64498W        W36027  30.942  35.133   1.269
64499W        W36028  36.809  11.553  11.648
64500W        W36029   0.731  23.109  14.982
64501W        W36030  37.258   6.637   3.119
64502W        W36031  12.857   4.767  13.914
64503W        W36032  12.797  11.194  14.376
64504W        W36033   8.697   1.901   4.364
64505W        W36034  40.571  44.851  10.697
64506W        W36035  23.171   9.963   4.815
64507W        W36036  35.587  21.579   1.275
64508W        W36037  29.739   5.474   4.618
64509W        W36038  20.131  36.187   1.403
64510W        W36039  40.349  18.527   3.635
64511W        W36040  43.867  19.699   2.522
64512W        W36041  21.622   4.960  14.815
64513W        W36042   2.831  28.103  10.365
64514W        W36043  38.862  19.875  10.209
64515W        W36044  37.439  43.519  11.583
64516W        W36045  42.040  41.773  14.337
64517W        W36046  12.267  19.967  10.696
64518W        W36047   6.535  24.727  10.515
64519W        W36048  37.561  20.028  12.070
64520W        W36049  18.887  29.932   0.917
64521W        W36050  43.239  26.210  14.059
64522W        W36051  28.563  21.120   2.242
64523W        W36052  10.667  39.724  14.053
64524W        W36053   4.188   8.900  12.477
64525W        W36054  38.893  26.333   3.349
64526W        W36055   3.802  44.381  10.717
64527W        W36056  19.281  15.051   3.641
64528W        W36057   2.653  16.803  11.691
64529W        W36058   1.451  39.674   2.761
64530W        W36059  27.627  12.279   4.494
64531W        W36060   1.832  17.451   2.803
64532W        W36061  16.720   4.963  14.472
64533W        W36062  19.109  32.596  14.897
64534W        W36063  11.297  14.310   0.349
64535W        W36064   9.463  42.834  14.043
64536W        W36065  37.067   6.819  13.397
64537W        W36066  12.912  14.015  11.578
64538W        W36067  33.594  19.476   4.160
64539W        W36068  37.343  30.372  13.116
64540W        W36069  40.514   9.376  10.629
64541W        W36070   4.549  43.825  14.545
64542W        W36071  24.148   9.700  13.291
64543W        W36072   0.190  41.286  12.034
64544W        W36073  13.659  23.168   1.334
64545W        W36074  16.616  37.795   0.005
64546W        W36075  39.981  11.250   4.095
64547W        W36076  34.982  36.293  10.518
64548W        W36077   8.330  26.058  14.941
64549W        W36078  35.823  34.044   2.202
64550W        W36079  21.724  30.785  11.616
64551W        W36080  37.948   8.405   1.006
64552W        W36081  42.026  42.542   1.732
64553W        W36082   6.107  25.110   2.408
64554W        W36083  14.507  25.162  14.493
64555W        W36084  22.350  20.268   4.039
64556W        W36085   2.526  18.797  12.037
64557W        W36086  42.173   7.478  11.217
64558W        W36087  33.523   2.197  12.806
64559W        W36088  41.302   8.192   4.503
64560W        W36089  26.359  21.842   4.890
64561W        W36090  40.952  28.732  13.445
64562W        W36091   5.287  42.018  14.329
64563W        W36092  19.216  18.786  11.004
64564W        W36093  38.803  41.470   2.144
64565W        W36094  42.875  42.941  11.131
64566W        W36095   3.302  37.578   3.293
64567W        W36096  21.754  33.021   2.764
64568W        W36097   1.735  38.381   0.385
64569W        W36098  17.844  23.183  11.169
64570W        W36099  11.321  25.011   3.451
64571W        W36100  28.121   0.588   3.755
64572W        W36101  40.777  34.006   0.325
64573W        W36102  18.184  25.307  10.737
64574W        W36103   6.818  20.662   2.340
64575W        W36104  26.676  15.341  13.565
64576W        W36105  13.392  22.085   2.238
64577W        W36106   9.287   5.799   0.689
64578W        W36107  43.686   9.165  12.530
64579W        W36108   4.691  19.248   4.089
64580W        W36109  20.148  42.845  11.592
64581W        W36110   3.752   6.610  12.805
64582W        W36111  34.964  14.836  11.914
64583W        W36112   0.996   3.248   4.199
64584W        W36113  40.238  24.079   3.187
64585W        W36114  30.577  23.497   4.567
64586W        W36115   6.365  27.584  11.113
64587W        W36116   4.953   4.341   1.673
64588W        W36117   5.405  11.123   2.897
64589W        W36118  32.459  38.895  11.036
64590W        W36119  32.306  24.672   3.189
64591W        W36120   8.672  18.058   0.250
64592W        W36121  33.941  21.012  12.024
64593W        W36122   5.261   3.396   1.776
64594W        W36123  37.315  27.182   2.924
64595W        W36124  12.579  14.309  13.682
64596W        W36125  30.848  12.228  11.057
64597W        W36126  32.339  13.738  11.023
64598W        W36127  15.226  36.205  13.218
64599W        W36128   5.250  43.551   4.147
64600W        W36129  39.426  42.501  11.651
64601W        W36130  12.561  13.456  11.696
64602W        W36131  13.143  34.186  11.538
64603W        W36132  19.962   4.432  14.378
64604W        W36133  16.720  27.119   4.476
64605W        W36134  37.130  26.991   2.066
64606W        W36135  28.969  22.674  11.681
64607W        W36136  38.510  22.735   4.288
64608W        W36137  28.568  24.053  11.585
64609W        W36138  10.554  32.461   0.543
64610W        W36139  18.172  43.922  14.308
64611W        W36140   4.823  25.426   3.419
64612W        W36141  17.052  11.329  13.318
64613W        W36142  10.317  31.799  12.862
64614W        W36143  34.181  33.234  14.568
64615W        W36144  38.924  15.629  11.987
64616W        W36145   8.776  43.087   4.488
64617W        W36146   5.024   3.958  13.927
64618W        W36147  43.901  22.640  13.469
64619W        W36148   5.300  42.525   1.804
64620W        W36149  43.452  30.825   0.800
64621W        W36150  17.250  21.856   3.667
64622W        W36151  27.394  15.224   3.665
64623W        W36152   4.493  26.103   2.031
64624W        W36153  14.360  34.031   1.761
64625W        W36154  26.488  10.190  13.435
64626W        W36155   5.262   3.629  14.243
64627W        W36156  33.906  43.718   2.604
64628W        W36157   8.638  19.724  14.825
64629W        W36158  28.067  31.441   1.828
64630W        W36159  23.379  25.894   1.249
64631W        W36160  37.868  11.381   0.956
64632W        W36161  39.831  38.396  11.068
64633W        W36162  44.902  28.290   3.619
64634W        W36163  41.808  36.367   1.791
64635W        W36164   3.023   6.716   0.186
64636W        W36165  35.934  26.852   2.695
64637W        W36166   3.376  13.189   3.437
64638W        W36167  30.208  24.149  10.127
64639W        W36168   7.459   0.871   2.854
64640W        W36169  36.649  32.424   4.878
64641W        W36170   3.339  44.681  13.480
64642W        W36171  44.095  33.350   1.956
64643W        W36172   7.719   8.989   1.227
64644W        W36173   3.049  27.157  10.782
64645W        W36174  32.698  37.804  13.022
64646W        W36175   9.877  38.824   4.613
64647W        W36176  42.935  17.054  13.872
64648W        W36177  15.752  42.751  14.383
64649W        W36178  23.613   4.804   0.776
64650W        W36179  41.431   3.118   0.470
64651W        W36180  27.411  40.273   2.816
64652W        W36181   6.445  15.560   4.163
64653W        W36182  27.227  35.296  12.503
64654W        W36183  27.531   0.305  11.044
64655W        W36184  18.756  27.963   1.947
64656W        W36185   5.411  17.417   4.597
64657W        W36186  31.076  14.379   4.064
64658W        W36187  10.821  28.269  13.455
64659W        W36188  43.442  39.923   1.136
64660W        W36189  31.066  24.697   1.135
64661W        W36190   3.264  35.848   2.323
64662W        W36191  31.431  44.164  14.486
64663W        W36192  26.477  41.484   0.955
64664W        W36193  38.488  36.977   0.113
64665W        W36194  39.471  39.149  12.419
64666W        W36195   8.282  44.434   1.723
64667W        W36196  15.647  37.519  13.440
64668W        W36197  36.178  37.788   1.944
64669W        W36198  41.664   1.910   2.819
64670W        W36199  41.861  38.760   1.102
64671W        W36200  10.260   8.096  11.789
64672W        W36201  22.078   4.855  11.544
64673W        W36202  15.144  20.378   0.446
64674W        W36203  37.158   8.877  12.950
64675W        W36204   1.475  33.256  13.498
64676W        W36205  33.571  22.015  10.602
64677W        W36206  39.955  26.107   0.257
64678W        W36207   7.637  12.222   1.977
64679W        W36208  14.195  25.519  13.764
64680W        W36209  43.359  27.056  13.536
64681W        W36210  27.024   5.511  12.828
64682W        W36211  43.015  20.903  11.957
64683W        W36212   1.104  18.179   4.815
64684W        W36213  34.958   3.847  14.309
64685W        W36214  16.765  35.548  11.571
64686W        W36215   4.011   7.816   4.558
64687W        W36216  21.129  27.120  10.371
64688W        W36217  17.575  31.265   0.883
64689W        W36218  34.958   9.680   4.815
64690W        W36219  37.525  28.091   2.597
64691W        W36220  14.793  36.876  10.891
64692W        W36221  21.095   5.800  14.388
64693W        W36222  32.058  33.613  13.743
64694W        W36223  36.707   6.726   4.576
64695W        W36224   2.780  41.781  11.695
64696W        W36225  18.850  40.525  11.376
64697W        W36226  15.910  21.691  11.483
64698W        W36227  39.834  27.995   4.197
64699W        W36228  14.988  13.575  12.412
64700W        W36229  23.181  26.233   4.372
64701W        W36230  21.093   7.493  13.502
64702W        W36231   1.559  29.415   2.727
64703W        W36232  44.273  30.310  11.101
64704W        W36233  26.611  44.980  11.224
64705W        W36234  16.952  33.484   5.028
64706W        W36235  16.797   5.261  10.618
64707W        W36236  33.817   9.436  13.925
64708W        W36237  17.048  26.432   3.154
64709W        W36238  27.553   4.482  11.167
64710W        W36239   5.453  20.537   0.887
64711W        W36240  37.950   8.673   0.562
64712W        W36241  41.805   3.430  10.624
64713W        W36242  12.100   2.368   2.862
64714W        W36243   7.782  35.049  14.422
64715W        W36244  23.738  27.692   1.350
64716W        W36245   5.719   4.357  10.605
64717W        W36246  44.544   9.731   0.328
64718W        W36247   1.437  40.900   4.744
64719W        W36248   6.746  22.477  14.672
64720W        W36249  16.971   7.658  13.703
64721W        W36250  44.895  33.202  13.937
64722W        W36251  43.023  25.944  14.996
64723W        W36252  44.193  23.994  11.179
64724W        W36253   4.846  12.883   0.832
64725W        W36254  40.063  27.808  12.808
64726W        W36255  22.571  36.798  13.490
64727W        W36256  43.729  12.735  13.020
64728W        W36257  36.120  15.959  11.937
64729W        W36258  44.785  12.923   0.444
64730W        W36259   9.746  21.230   3.541
64731W        W36260   2.951  40.458   2.199
64732W        W36261  40.324  40.241  13.079
64733W        W36262  29.353  18.136  13.575
64734W        W36263  13.555  35.537   1.930
64735W        W36264  25.929  35.783  11.427
64736W        W36265  41.373  33.923   1.385
64737W        W36266   5.389  11.734  13.775
64738W        W36267  21.935   0.397   4.145
64739W        W36268  21.709  32.668  13.052
64740W        W36269   6.745  38.825  13.833
64741W        W36270  43.017  44.971   0.491
64742W        W36271  23.527  30.119  12.097
64743W        W36272  21.220  20.405  13.316
64744W        W36273   7.712   7.734  13.820
64745W        W36274  17.791   6.114  14.409
64746W        W36275   9.113   9.405  12.575
64747W        W36276  12.630  41.438  14.937
64748W        W36277  37.427  21.151  14.083
64749W        W36278   5.414   2.409   3.083
64750W        W36279  22.375  44.856   1.132
64751W        W36280  41.340  17.307   3.380
64752W        W36281  37.702   0.168   3.654
64753W        W36282  19.028  24.256   2.722
64754W        W36283  23.524  22.255  13.557
64755W        W36284   2.869  31.923  10.262
64756W        W36285  11.562  21.500  13.875
64757W        W36286  23.589  19.300  11.053
64758W        W36287   6.229  12.759   0.885
64759W        W36288  23.651  44.856   4.375
64760W        W36289  36.952  25.689  10.643
64761W        W36290  31.551  20.311   0.435
64762W        W36291   5.076  24.001   2.402
64763W        W36292   9.741  21.984   2.608
64764W        W36293  34.472  29.224  10.723
64765W        W36294  32.819  29.244  13.279
64766W        W36295  36.518  34.672  11.650
64767W        W36296  37.131  41.173   0.772
64768W        W36297  21.164  22.093  11.165
64769W        W36298  25.458  34.310  12.911
64770W        W36299  39.593   5.755  14.347
64771W        W36300  40.791  25.162  11.585
64772W        W36301   9.108   9.590  14.930
64773W        W36302  38.786  31.338   3.753
64774W        W36303  40.245   8.719  10.021
64775W        W36304  11.151   7.882  11.705
64776W        W36305  23.111  10.249   2.910
64777W        W36306   4.922  29.115   0.365
64778W        W36307  41.532  43.807   0.729
64779W        W36308  37.955  27.078   1.735
64780W        W36309  41.886  14.366  14.507
64781W        W36310  40.450  12.461  12.519
64782W        W36311  42.842  23.848  13.677
64783W        W36312  31.696  24.356   4.561
64784W        W36313  13.639   6.301  10.813
64785W        W36314  14.843  39.035  10.644
64786W        W36315   7.350   1.786  13.265
64787W        W36316  31.950  39.267   4.514
64788W        W36317  13.027  40.739   4.583
64789W        W36318  23.233  13.090   2.792
64790W        W36319   3.942  17.011   1.627
64791W        W36320  44.310  25.078  12.199
64792W        W36321  22.139  12.515   4.866
64793W        W36322  44.689   3.055   1.934
64794W        W36323   9.407   8.424   4.253
64795W        W36324   6.950   9.749  14.031
64796W        W36325   0.652  33.860  13.712
64797W        W36326  25.817  15.650  13.940
64798W        W36327  24.721  28.587   4.122
64799W        W36328  20.843  23.571  14.436
64800W        W36329   9.633  42.006  11.668
64801W        W36330  10.881  26.840  13.486
64802W        W36331  36.856  34.397  14.283
64803W        W36332  26.952  26.037  13.428
64804W        W36333  17.892  41.945  11.533
64805W        W36334  22.098  21.424   1.070
64806W        W36335  28.907  35.376  14.682
64807W        W36336  17.589  39.123  14.227
64808W        W36337  22.936  34.460   2.176
64809W        W36338  42.819   9.510  12.058
64810W        W36339  41.753   1.299   0.314
64811W        W36340  33.337   5.333  13.024
64812W        W36341  12.676   4.033   3.153
64813W        W36342  26.404  40.824   4.045
64814W        W36343   4.027  30.817  13.016
64815W        W36344  15.027   1.897  13.817
64816W        W36345   7.143  30.934   3.314
64817W        W36346  29.126  33.994  10.308
64818W        W36347  31.849  35.949  14.050
64819W        W36348  25.560  31.440  12.529
64820W        W36349   3.414  16.069  10.770
64821W        W36350   5.346   0.402   4.598
64822W        W36351  12.820  11.202  11.619
64823W        W36352  23.860  10.189  10.302
64824W        W36353  31.755  18.243  12.410
64825W        W36354  36.497  23.412   1.714
64826W        W36355  16.683   8.636   2.703
64827W        W36356   7.135  36.112  13.300
64828W        W36357   3.496  27.494   3.189
64829W        W36358   3.380  38.345   1.220
64830W        W36359  21.784  42.473   2.810
64831W        W36360  20.957   7.223  12.591
64832W        W36361  18.280  10.561   2.899
64833W        W36362  37.030   7.705   0.351
64834W        W36363  13.484  26.359   1.959
64835W        W36364  36.319  24.613  12.483
64836W        W36365  21.063  39.735   1.458
64837W        W36366  33.723   5.882  12.235
64838W        W36367  23.895   2.498  13.445
64839W        W36368  23.074  18.532   3.108
64840W        W36369  33.815  28.515  13.025
64841W        W36370  19.996  19.151  10.526
64842W        W36371  26.142   5.364  11.927
64843W        W36372  42.479  32.839  11.939
64844W        W36373  11.165  16.072  13.148
64845W        W36374  10.837  16.491   4.669
64846W        W36375  17.725   0.289  12.536
64847W        W36376  27.428   0.509  11.497
64848W        W36377  15.278  22.518   2.861
64849W        W36378  13.211  27.034   0.467
64850W        W36379  21.993  41.851  13.929
64851W        W36380  30.145  30.791   2.731
64852W        W36381  40.368  40.892   3.125
64853W        W36382  15.628   2.034   0.903
64854W        W36383  12.210  41.907   0.273
64855W        W36384   5.798  20.559  11.813
64856W        W36385  28.601  43.223  12.648
64857W        W36386   2.418  21.869   1.852
64858W        W36387  27.956  13.007   0.928
64859W        W36388  24.773  30.606  13.082
64860W        W36389  40.820   0.056   2.872
64861W        W36390  10.332  28.899  11.220
64862W        W36391  25.575  42.063   0.183
64863W        W36392   0.987  26.586  11.475
64864W        W36393  21.654  39.019   0.979
64865W        W36394   4.751   6.711  14.860
64866W        W36395   3.748   2.563  14.896
64867W        W36396   8.909  32.212   0.015
64868W        W36397  44.837  30.457   2.281
64869W        W36398  19.155  20.030  12.018
64870W        W36399  14.239  30.191   1.733
64871W        W36400  38.330   8.267   1.362
64872W        W36401  40.681  22.243   0.941
64873W        W36402  41.000  13.590   1.283
64874W        W36403  18.732  15.845   0.429
64875W        W36404  32.650  38.640   4.645
64876W        W36405  17.733  17.630   3.239
64877W        W36406  28.569   3.981  13.128
64878W        W36407  20.548  19.137  10.714
64879W        W36408  40.611   7.383  11.994
64880W        W36409  13.065   8.144  13.725
64881W        W36410  11.837  41.334  12.071
64882W        W36411   3.623  38.802   1.988
64883W        W36412  40.327   4.913   5.114
64884W        W36413  11.264  17.267   4.519
64885W        W36414  20.563  13.828   2.551
64886W        W36415  24.978  23.734   0.325
64887W        W36416  28.690  24.377   0.205
64888W        W36417  11.140  43.988  11.195
64889W        W36418  43.018   1.147   1.229
64890W        W36419  38.031  20.551   2.292
64891W        W36420  18.029  22.466   0.307
64892W        W36421   4.627   0.667  11.914
64893W        W36422  25.925  24.970  13.101
64894W        W36423  33.894  10.766   0.790
64895W        W36424   1.246  28.110   4.186
64896W        W36425   4.153  32.048   0.941
64897W        W36426   6.188  33.909   2.911
64898W        W36427  18.253   1.416  13.749
64899W        W36428   4.504  14.260   0.376
64900W        W36429  16.734  23.444   0.931
64901W        W36430  26.195  25.105  10.727
64902W        W36431  18.846  42.577  13.928
64903W        W36432   6.476  13.220   0.906
64904W        W36433  33.923  19.528   1.849
64905W        W36434  44.953   2.032  12.640
64906W        W36435   2.779  20.246   3.626
64907W        W36436  28.231  40.960   4.782
64908W        W36437  24.580  41.338   0.541
64909W        W36438   9.773  37.588   4.924
64910W        W36439  27.483  28.164  14.919
64911W        W36440  23.640  34.377  14.614
64912W        W36441   9.587  43.922   2.680
64913W        W36442  28.871   7.716   2.991
64914W        W36443  25.041  39.272  10.710
64915W        W36444  35.301   8.788   0.676
64916W        W36445  41.737  33.953  11.542
64917W        W36446   2.927  20.712  13.032
64918W        W36447  35.151  27.969  11.785
64919W        W36448   8.467  11.498  12.229
64920W        W36449  30.716   2.706   4.570
64921W        W36450  33.562   9.292   1.165
64922W        W36451  30.438  44.835   0.864
64923W        W36452  21.085  23.209  14.126
64924W        W36453   2.318   2.854  11.327
64925W        W36454  15.784   7.267   3.203
64926W        W36455   0.883  13.235   3.149
64927W        W36456  39.869  39.307   2.667
64928W        W36457  26.099  21.617   1.465
64929W        W36458  34.490   8.287   0.013
64930W        W36459  34.287  43.452   2.369
64931W        W36460  42.810  40.500   1.147
64932W        W36461   3.040  21.296   3.752
64933W        W36462  12.621  23.058   2.926
64934W        W36463   2.309  31.874   4.885
64935W        W36464  13.253   1.580  12.650
64936W        W36465   5.998  26.820  11.710
64937W        W36466   6.233  17.465   3.624
64938W        W36467  34.006   4.910  13.107
64939W        W36468  24.147  35.392   1.676
64940W        W36469  26.654  25.023   0.365
64941W        W36470  10.521  21.481  14.752
64942W        W36471  34.128  20.539  12.079
64943W        W36472   3.837  14.629   0.876
64944W        W36473  29.727  19.580  14.541
64945W        W36474  18.089  38.945   0.498
64946W        W36475  39.100  12.333   2.244
64947W        W36476  36.320  14.166  10.717
64948W        W36477  35.381  12.688   3.726
64949W        W36478   0.105  43.547   2.740
64950W        W36479  34.871  34.273  14.728
64951W        W36480  38.300  39.767  13.982
64952W        W36481  33.490  43.256  10.303
64953W        W36482  37.595  34.009  13.368
64954W        W36483  18.226  19.925   3.096
64955W        W36484  14.195  42.960  10.563
64956W        W36485  35.543  15.864  12.829
64957W        W36486  43.941  36.182   0.257
64958W        W36487  27.068  28.523   2.329
64959W        W36488  27.995  15.075  13.113
64960W        W36489  11.967  32.824  12.795
64961W        W36490   2.752  29.470  14.571
64962W        W36491  25.219  14.547  13.469
64963W        W36492   1.888  42.533   4.115
64964W        W36493  15.048   6.952   2.119
64965W        W36494  19.831  34.903  11.453
64966W        W36495  20.825  19.690  10.697
64967W        W36496  43.062  25.199  10.606
64968W        W36497  33.940  16.163   0.432
64969W        W36498  12.694  39.018   3.435
64970W        W36499  21.025  24.514  10.643
64971W        W36500  27.402  13.304   0.959
64972W        W36501  25.369  10.797  13.979
64973W        W36502  29.078  30.628   4.381
64974W        W36503  12.700  22.701   1.731
64975W        W36504  16.432   7.901   2.372
64976W        W36505  34.970  12.705  10.619
64977W        W36506  11.002   6.278   0.045
64978W        W36507  38.524   4.401   1.676
64979W        W36508  34.383  31.581  12.961
64980W        W36509  33.237  40.395   2.891
64981W        W36510  30.867  38.391   3.381
64982W        W36511  27.735   4.780  12.461
64983W        W36512  25.459  44.223  12.127
64984W        W36513   9.291   7.896  12.352
64985W        W36514   6.457  18.087  11.145
64986W        W36515   6.079   7.488  11.643
64987W        W36516  42.891  19.990   1.825
64988W        W36517  10.451  33.888  11.569
64989W        W36518  31.326  22.629  10.578
64990W        W36519  19.485   8.614  11.137
64991W        W36520   5.229  43.018   4.103
64992W        W36521  24.109  32.921   0.491
64993W        W36522  39.342   8.967  14.088
64994W        W36523  26.792  25.493   0.165
64995W        W36524   3.195  16.749  12.556
64996W        W36525  34.065  41.153   0.731
64997W        W36526  19.539   6.490   4.205
64998W        W36527  10.580  20.977  10.161
64999W        W36528   1.734  13.898   3.306
65000W        W36529  14.335  41.406  12.955
65001W        W36530  21.613  22.542   3.646
65002W        W36531  36.418   9.771   0.887
65003W        W36532   5.932  37.581   0.825
65004W        W36533   9.288  33.483  14.572
65005W        W36534   6.712   5.596  14.822
65006W        W36535   6.732  14.829  12.916
65007W        W36536  32.376  13.158  10.869
65008W        W36537   0.071  10.544   2.877
65009W        W36538  31.857   4.758   4.656
65010W        W36539   9.150   9.454  14.000
65011W        W36540  33.430   7.767  12.627
65012W        W36541   3.221   3.923   1.894
65013W        W36542  17.714  31.303  14.324
65014W        W36543  36.435  44.809   2.688
65015W        W36544  14.145   7.796   3.642
65016W        W36545  39.130   9.234  10.449
65017W        W36546  38.572  21.849  14.912
65018W        W36547  33.850  14.392   3.760
65019W        W36548  44.932  13.163   0.899
65020W        W36549  33.600  39.775  13.531
65021W        W36550  43.841  44.343   4.328
65022W        W36551   6.195  29.429  10.683
65023W        W36552  40.284  31.089   3.182
65024W        W36553   9.788   3.316   1.255
65025W        W36554  20.626  26.976  14.093
65026W        W36555   9.781  31.298   3.097
65027W        W36556   0.949  29.407  11.361
65028W        W36557   5.679  15.722   1.675
65029W        W36558  25.438   2.816   0.081
65030W        W36559  38.808  15.096  13.224
65031W        W36560   6.153   1.417   2.273
65032W        W36561  19.175   9.773  12.878
65033W        W36562  28.566  28.805  11.118
65034W        W36563  43.723   2.061  10.787
65035W        W36564  38.907  17.738  10.783
65036W        W36565   5.437   7.499   1.850
65037W        W36566  29.735   2.341  10.667
65038W        W36567   4.880   4.298   4.681
65039W        W36568   6.435  32.250  12.580
65040W        W36569  33.572  24.656  10.435
65041W        W36570  15.195   3.322  12.580
65042W        W36571   6.374  11.443  10.735
65043W        W36572  19.905  38.942   2.301
65044W        W36573  43.312  17.817   4.153
65045W        W36574  14.319  41.004  11.660
65046W        W36575  31.687  25.325  13.998
65047W        W36576  40.845   6.969   3.661
65048W        W36577  21.230  30.068   3.295
65049W        W36578   9.763   6.909   2.922
65050W        W36579  32.890  11.175  11.481
65051W        W36580   2.373  15.332  12.833
65052W        W36581   4.427  34.996   4.168
65053W        W36582  27.244  22.401   1.300
65054W        W36583  34.946  22.770   3.928
65055W        W36584   1.490  14.657  10.697
65056W        W36585  42.535   5.947  12.003
65057W        W36586  33.543  41.303   2.120
65058W        W36587   1.346  25.488  10.620
65059W        W36588  24.619  13.328   3.124
65060W        W36589  14.733  27.506   1.473
65061W        W36590   4.925   3.127   4.671
65062W        W36591  35.274  26.373  12.400
65063W        W36592  31.875   0.516   3.191
65064W        W36593   1.803  10.063  14.841
65065W        W36594   4.250  21.961   0.026
65066W        W36595   6.417  38.856   1.714
65067W        W36596  29.791  12.126   1.340
65068W        W36597  19.564  29.939   2.770
65069W        W36598  18.605  22.129   2.448
65070W        W36599  24.116  21.353  11.079
65071W        W36600  25.666  36.313  14.893
65072W        W36601  19.287  17.222   0.405
65073W        W36602  13.561  22.935  13.931
65074W        W36603  22.040  18.334   0.877
65075W        W36604  42.727  24.213  14.443
65076W        W36605  40.164  15.514   4.885
65077W        W36606  24.229  37.500  14.331
65078W        W36607  33.792  29.209  13.488
65079W        W36608  28.856  14.554   3.639
65080W        W36609  10.070  36.626   0.299
65081W        W36610  15.663  29.539  11.620
65082W        W36611  25.461  39.164   0.616
65083W        W36612  42.953  37.953   4.133
65084W        W36613  19.122  25.053   3.751
65085W        W36614  21.947  24.936  14.019
65086W        W36615  27.426  12.776   2.744
65087W        W36616   6.378  35.687  11.269
65088W        W36617   4.196  44.837   2.014
65089W        W36618  24.151   3.557   2.755
65090W        W36619  29.703  32.474  12.005
65091W        W36620  37.491  36.985  14.320
65092W        W36621  30.009  20.964   4.199
65093W        W36622  44.451  10.157   4.033
65094W        W36623  35.951  30.632   3.007
65095W        W36624  38.004  39.065   4.311
65096W        W36625  16.369  33.356   0.473
65097W        W36626  14.297   5.968  13.332
65098W        W36627  34.153  10.584   2.683
65099W        W36628  13.311  39.939  13.938
65100W        W36629  35.579  44.422   1.938
65101W        W36630  28.540  11.187   0.361
65102W        W36631  38.774   3.161   2.563
65103W        W36632  24.667   1.524   1.944
65104W        W36633  36.962  22.238   0.508
65105W        W36634  15.675  20.719   2.440
65106W        W36635  20.769   0.155  12.839
65107W        W36636   6.230  44.819   3.747
65108W        W36637  17.845  34.596   2.325
65109W        W36638  26.382  20.137  11.475
65110W        W36639   6.435  28.549   4.135
65111W        W36640   4.724  44.830  12.122
65112W        W36641  31.587  20.552  12.176
65113W        W36642  29.340   7.771  12.834
65114W        W36643  21.584   7.760  14.985
65115W        W36644  36.283   2.919  13.081
65116W        W36645   9.612  40.909   2.375
65117W        W36646   6.623   5.185   0.684
65118W        W36647  23.633   6.402   0.296
65119W        W36648  24.122   0.857   2.828
65120W        W36649  28.715   2.385  12.321
65121W        W36650  32.547  33.282  12.043
65122W        W36651  23.016  40.376   1.709
65123W        W36652  10.263  37.926  14.058
65124W        W36653   9.794  23.324  11.924
65125W        W36654  23.244  15.330  12.357
65126W        W36655  41.752  35.099  14.347
65127W        W36656  12.769  12.345  13.478
65128W        W36657  25.181   8.955  12.960
65129W        W36658   1.257  20.149   2.551
65130W        W36659   5.383   2.194  14.521
65131W        W36660   8.716  21.013  13.874
65132W        W36661  11.634  14.514   3.549
65133W        W36662  37.922   1.918   1.740
65134W        W36663   6.208  35.054   1.761
65135W        W36664   8.971   8.744   2.451
65136W        W36665  23.375  30.502   2.556
65137W        W36666  22.016  16.998   2.438
65138W        W36667   7.541  32.917   1.904
65139W        W36668  40.476  23.397  14.760
65140W        W36669   6.766   9.931  12.991
65141W        W36670  16.638  30.393   3.209
65142W        W36671  33.440  22.859  13.439
65143W        W36672  27.014  34.508  12.862
65144W        W36673  13.833  36.855  11.870
65145W        W36674  32.736  15.119  12.046
65146W        W36675  19.732   5.813   4.075
65147W        W36676   8.967  26.226  12.022
65148W        W36677  38.992  25.549  14.283
65149W        W36678   2.696  25.079   2.336
65150W        W36679  39.727   0.797   1.279
65151W        W36680   3.598  27.660   3.668
65152W        W36681  24.661  14.290   3.202
65153W        W36682  23.529   2.193   3.333
65154W        W36683  26.975   3.369   3.178
65155W        W36684  12.329  29.228   2.710
65156W        W36685  44.979  43.307  12.075
65157W        W36686   3.258   9.650   0.080
65158W        W36687   2.283  23.185  11.437
65159W        W36688  41.592   4.792  10.562
65160W        W36689   0.250   4.672   1.682
65161W        W36690   9.891  36.320   1.324
65162W        W36691  18.373  16.861   5.240
65163W        W36692  37.948   7.807  12.488
65164W        W36693  25.547  37.470   2.275
65165W        W36694  28.900   8.898  10.575
65166W        W36695  22.489   8.262  10.437
65167W        W36696  20.637  12.895  14.466
65168W        W36697   4.987  42.355   3.604
65169W        W36698  12.109  40.331  12.588
65170W        W36699  35.127  27.117   2.172
65171W        W36700  33.199  11.641  14.882
65172W        W36701  29.004   3.434  10.562
65173W        W36702  19.805  12.974   0.432
65174W        W36703  15.089   8.862  13.274
65175W        W36704   9.409  25.273   0.864
65176W        W36705  19.113  30.573   2.160
65177W        W36706   5.014  25.707   0.769
65178W        W36707  28.688  25.465   3.643
65179W        W36708   8.867   6.755   0.033
65180W        W36709  18.344  33.301  13.868
65181W        W36710  42.867   6.165   0.273
65182W        W36711  38.927   6.681   0.349
65183W        W36712  12.803  42.016   2.253
65184W        W36713  24.741   0.559  10.499
65185W        W36714  34.618  28.060   0.266
65186W        W36715  29.636   1.654  11.178
65187W        W36716  35.607  32.372  13.411
65188W        W36717  10.804  28.284   4.094
65189W        W36718  26.220  37.006  14.949
65190W        W36719  15.373  18.284  14.905
65191W        W36720  26.480   1.758  12.964
65192W        W36721  16.300  14.649   0.770
65193W        W36722   1.906  19.971  14.283
65194W        W36723   6.473  21.179  11.872
65195W        W36724  44.825  25.488   3.170
65196W        W36725  34.105  26.191   3.319
65197W        W36726  20.501  19.497   2.237
65198W        W36727  32.904  34.479  11.398
65199W        W36728  20.225   9.628  11.868
65200W        W36729  26.678   9.219  14.546
65201W        W36730   9.759  21.530  13.369
65202W        W36731  28.175  23.619   1.248
65203W        W36732  17.676  29.275  11.161
65204W        W36733  28.652  35.741   0.976
65205W        W36734   3.467   2.199   1.427
65206W        W36735  42.921  38.201   0.430
65207W        W36736  43.340  36.803   1.531
65208W        W36737   0.707  19.255  11.884
65209W        W36738  16.219   6.953  13.946
65210W        W36739  19.802   2.835  12.269
65211W        W36740  15.831  36.329   3.149
65212W        W36741  17.769  39.935  14.232
65213W        W36742  16.252   0.066  11.986
65214W        W36743   9.812  35.006  14.788
65215W        W36744  15.531   3.360   2.144
65216W        W36745  13.663  14.757   4.723
65217W        W36746  15.779  12.746  11.587
65218W        W36747  26.923   1.895  10.943
65219W        W36748  31.190  28.085   4.182
65220W        W36749  21.444  16.126  12.414
65221W        W36750   0.415  38.467  13.706
65222W        W36751  24.747   2.036   1.889
65223W        W36752  15.166  23.402  13.235
65224W        W36753  42.800  14.176  12.004
65225W        W36754  43.810   1.975   0.960
65226W        W36755   0.393  20.739   3.236
65227W        W36756  36.229  19.082  12.014
65228W        W36757  40.990  19.830  12.317
65229W        W36758  24.257  18.927   5.081
65230W        W36759  43.344  39.036  13.426
65231W        W36760  37.893  17.461  13.348
65232W        W36761  22.526  17.734   3.767
65233W        W36762  15.272  18.086   0.758
65234W        W36763  37.361  40.383  13.920
65235W        W36764  39.479   7.352   2.789
65236W        W36765  38.985   3.341  14.368
65237W        W36766   0.844  26.488   1.657
65238W        W36767  33.536  14.161  13.592
65239W        W36768  42.040  15.313   0.265
65240W        W36769  10.490  40.287   4.388
65241W        W36770  31.849  18.600  13.588
65242W        W36771  37.565  13.646  12.000
65243W        W36772  41.825  41.266   2.787
65244W        W36773  28.151  12.187  12.973
65245W        W36774  27.129  12.749   3.903
65246W        W36775  17.289  10.911   3.139
65247W        W36776   5.206  28.657   0.262
65248W        W36777  11.709  14.617   0.411
65249W        W36778  29.557  25.689   0.820
65250W        W36779  41.805   7.659   0.763
65251W        W36780  22.114   2.863  13.786
65252W        W36781  18.570  43.378  13.495
65253W        W36782  24.952  36.928  11.523
65254W        W36783  23.672  39.037   2.824
65255W        W36784  34.645  26.267   0.652
65256W        W36785  43.332  18.131  13.468
65257W        W36786  24.717  18.346  11.681
65258W        W36787   2.148  11.570  14.019
65259W        W36788  18.428   8.946  12.168
65260W        W36789  15.249  17.994  12.197
65261W        W36790  14.622  12.861  10.225
65262W        W36791   3.201   0.306   2.687
65263W        W36792  36.582  24.448  10.614
65264W        W36793  38.331  16.622   4.561
65265W        W36794  40.527  24.623  14.556
65266W        W36795  14.914  44.421  14.457
65267W        W36796  15.599  32.914   3.353
65268W        W36797  18.512  30.401   1.762
65269W        W36798  39.015  35.718  13.799
65270W        W36799  44.366   7.128   3.624
65271W        W36800  31.078  13.149  11.399
65272W        W36801  44.883  11.371   3.880
65273W        W36802   3.342   3.282  11.364
65274W        W36803  31.588  18.136  10.967
65275W        W36804  17.824  44.445   0.362
65276W        W36805  29.948  13.026  14.404
65277W        W36806  12.379  35.390  14.366
65278W        W36807   2.446  34.451  11.494
65279W        W36808  35.304  39.166  12.855
65280W        W36809  41.133  30.505   1.846
65281W        W36810   0.417  29.060   2.577
65282W        W36811  33.934   5.021  12.065
65283W        W36812   1.668   5.992  12.905
65284W        W36813  12.318   7.636   1.468
65285W        W36814  26.993   3.158   2.719
65286W        W36815  12.990  25.157  14.474
65287W        W36816  10.399  17.176  11.028
65288W        W36817  36.594  30.057  14.261
65289W        W36818  36.535  35.553  11.463
65290W        W36819  33.832   8.114   3.691
65291W        W36820  12.723  23.523  11.157
65292W        W36821  30.666   0.354  10.700
65293W        W36822  30.596   1.904   3.731
65294W        W36823  30.101  33.576  12.973
65295W        W36824  39.353  19.343  14.968
65296W        W36825  44.215   6.877  13.002
65297W        W36826  32.922  13.718  13.993
65298W        W36827  31.035  12.773   0.499
65299W        W36828  42.059  34.546   1.269
65300W        W36829  14.073   9.207   2.214
65301W        W36830  42.962  41.061  11.988
65302W        W36831  35.593  22.843   1.660
65303W        W36832   6.243   8.432  12.605
65304W        W36833   3.885   7.325  13.337
65305W        W36834  32.951  15.294   0.814
65306W        W36835  37.447  23.644  13.622
65307W        W36836   0.912  26.993   1.841
65308W        W36837  15.314  30.588  11.368
65309W        W36838   1.323   6.770   0.938
65310W        W36839  11.767  10.750  13.063
65311W        W36840  11.644   8.650   4.632
65312W        W36841  26.984  34.953   0.147
65313W        W36842  43.821  27.971  13.044
65314W        W36843  30.222   7.639   2.274
65315W        W36844  12.247  21.609  14.291
65316W        W36845  28.157  41.932  11.733
65317W        W36846   0.812   0.063   4.059
65318W        W36847  42.866  42.065   3.234
65319W        W36848  41.253   2.510  14.785
65320W        W36849  36.981  23.035  13.473
65321W        W36850   7.437   0.515   1.714
65322W        W36851   0.458   5.921   4.168
65323W        W36852   3.792  10.779  11.634
65324W        W36853  33.738   1.165  11.220
65325W        W36854  40.374  36.601  14.558
65326W        W36855  27.438   4.855   2.714
65327W        W36856  20.710   5.454  10.507
65328W        W36857  33.854  19.713  13.633
65329W        W36858   0.993  24.135   4.488
65330W        W36859  26.700   0.196  12.174
65331W        W36860  33.572  29.137  11.678
65332W        W36861  30.392  19.617  13.834
65333W        W36862  12.607   8.597   3.282
65334W        W36863  35.809  21.782   2.208
65335W        W36864  22.808  21.164   0.067
65336W        W36865   1.315  13.559   3.142
65337W        W36866  35.123  39.157   0.367
65338W        W36867   1.597   1.251  11.175
65339W        W36868  32.166  27.203   0.907
65340W        W36869  16.694   9.653   1.603
65341W        W36870  26.930  28.987   1.686
65342W        W36871  38.845   3.403  11.971
65343W        W36872  11.814  35.412  10.548
65344W        W36873  27.774  38.130  12.088
65345W        W36874   3.334  18.707  11.596
65346W        W36875  39.384  28.589  12.986
65347W        W36876  27.721  16.593   0.852
65348W        W36877   2.723  43.416  11.168
65349W        W36878  29.857   7.196  13.351
65350W        W36879  19.928  26.278   3.612
65351W        W36880  43.372  35.915   2.133
65352W        W36881  14.966  31.606   1.407
65353W        W36882  43.468  34.893   3.762
65354W        W36883  28.377  12.886  14.548
65355W        W36884  39.293  32.022   3.647
65356W        W36885  19.181  21.200  14.928
65357W        W36886   2.419   2.308   0.504
65358W        W36887  10.677  13.800  14.924
65359W        W36888   5.805  16.908  10.718
65360W        W36889   3.844  11.827   4.260
65361W        W36890  40.909  16.538   1.850
65362W        W36891  15.092  23.481  10.491
65363W        W36892  21.332  35.111  10.546
65364W        W36893  34.733  40.061  14.419
65365W        W36894  10.039  14.455   0.103
65366W        W36895  30.816   3.778  14.929
65367W        W36896  31.956  24.187   1.387
65368W        W36897   8.003  25.777   2.692
65369W        W36898  15.525   7.714  12.387
65370W        W36899  23.302  44.975  12.539
65371W        W36900  43.278  29.417   2.322
65372W        W36901  35.911  30.549   4.614
65373W        W36902   8.883   2.316   2.764
65374W        W36903  27.737  13.805   9.936
65375W        W36904  11.630  23.688   2.346
65376W        W36905  37.304   3.073  12.436
65377W        W36906  26.654  29.594  14.679
65378W        W36907  17.691   8.688   3.619
65379W        W36908   2.003  32.866  13.441
65380W        W36909  29.699   1.691   3.679
65381W        W36910  20.107  10.810   0.867
65382W        W36911   7.816  42.241   1.319
65383W        W36912  19.545  41.545   4.305
65384W        W36913   1.612   1.199   2.802
65385W        W36914  18.606  30.108  12.102
65386W        W36915  23.445  32.991   2.144
65387W        W36916  39.618  17.626   0.413
65388W        W36917  14.264  21.854   3.025
65389W        W36918  16.672   5.215  11.532
65390W        W36919   2.919  19.207   3.776
65391W        W36920  22.345  11.674   1.780
65392W        W36921  36.806  24.026   3.312
65393W        W36922  40.080  20.453  14.914
65394W        W36923   8.208  31.186   1.856
65395W        W36924  41.777  12.195   1.910
65396W        W36925   0.448   6.735  14.253
65397W        W36926   6.873  17.191   0.688
65398W        W36927  36.117  19.909   1.698
65399W        W36928  13.115  39.005   3.716
65400W        W36929  25.587  35.251   4.788
65401W        W36930  39.161  44.324  12.549
65402W        W36931  37.090  28.354   2.680
65403W        W36932   9.799  28.067  13.121
65404W        W36933  10.465   5.758   1.009
65405W        W36934  35.897   1.240  13.978
65406W        W36935   4.344   2.202   4.197
65407W        W36936   5.812  35.658  13.214
65408W        W36937  41.451  21.037  11.384
65409W        W36938   7.631  22.168   3.667
65410W        W36939  29.976  33.791   3.636
65411W        W36940  15.685  28.801  12.103
65412W        W36941  35.955  12.420   0.746
65413W        W36942  42.853  23.030   1.515
65414W        W36943  29.136  23.665  13.894
65415W        W36944  11.798  16.758  11.676
65416W        W36945   5.575  23.088  11.119
65417W        W36946  13.067  23.581  12.109
65418W        W36947  16.243  18.046   1.785
65419W        W36948  38.383  36.992  10.615
65420W        W36949  14.119  40.343  10.868
65421W        W36950  29.129  40.287  10.676
65422W        W36951  28.259  17.779   3.926
65423W        W36952  33.905   9.826  14.852
65424W        W36953  28.150  14.639   4.675
65425W        W36954  28.574  21.259  13.605
65426W        W36955  33.996  36.582  11.050
65427W        W36956  24.403  17.300  13.779
65428W        W36957  27.585   6.797   0.195
65429W        W36958  10.755  20.618   3.242
65430W        W36959  18.529  16.507  11.249
65431W        W36960  34.521  15.228  13.928
65432W        W36961  28.523  25.636  14.766
65433W        W36962  43.921  41.600   0.879
65434W        W36963  22.123   6.045  12.951
65435W        W36964  20.617  11.328   4.848
65436W        W36965  17.792   5.735   3.646
65437W        W36966  39.712   7.850   0.536
65438W        W36967   9.351  23.393   5.015
65439W        W36968  16.884  36.067   1.170
65440W        W36969  39.576  17.829  14.923
65441W        W36970  37.897  43.002   9.924
65442W        W36971  25.159   8.802   2.158
65443W        W36972  21.147  44.800   2.821
65444W        W36973  40.329  13.221   4.857
65445W        W36974  24.692  21.044   0.990
65446W        W36975  44.400   4.729   3.409
65447W        W36976  12.273   4.179   2.577
65448W        W36977  38.915  30.542   3.249
65449W        W36978  43.432  19.110  13.744
65450W        W36979  44.542  17.260  14.577
65451W        W36980  42.840   5.798  14.739
65452W        W36981   2.325  30.377   2.401
65453W        W36982  14.850   3.411  10.725
65454W        W36983  37.912  35.206   3.801
65455W        W36984  16.331  14.279  11.492
65456W        W36985  12.766  34.179   5.082
65457W        W36986  20.470  44.952   4.227
65458W        W36987  44.560  18.476   1.949
65459W        W36988  27.604  10.752   1.934
65460W        W36989  20.474  10.114  13.878
65461W        W36990   8.904   5.016  12.990
65462W        W36991  22.320  35.634   4.655
65463W        W36992  22.043  39.615  12.723
65464W        W36993  14.321   7.354   3.396
65465W        W36994  13.052   4.336  14.321
65466W        W36995   1.412  44.425  12.118
65467W        W36996  41.422  41.854  14.804
65468W        W36997   0.742  28.602  12.377
65469W        W36998  21.059  43.878   4.568
65470W        W36999  17.773  41.123   3.371
65471W        W37000  29.149  16.736  11.146
65472W        W37001  22.723  18.774  12.625
65473W        W37002  24.794  30.391  14.828
65474W        W37003  25.588   1.850   1.601
65475W        W37004  39.534  35.392  14.036
65476W        W37005  11.977  39.142   5.089
65477W        W37006  26.905  12.160   2.169
65478W        W37007  11.202   4.120   0.720
65479W        W37008  28.859  39.804  11.983
65480W        W37009   1.350  12.664   1.315
65481W        W37010  39.303  33.465   4.077
65482W        W37011  22.789   9.109  11.187
65483W        W37012   7.613  40.647  13.404
65484W        W37013  29.653  23.812  12.046
65485W        W37014  40.511  14.792   0.967
65486W        W37015  20.194  36.483  12.945
65487W        W37016   7.241  27.902   4.183
65488W        W37017   4.731   3.879   1.972
65489W        W37018  43.904   9.817   3.375
65490W        W37019  24.063  24.548  11.738
65491W        W37020  12.732  34.889  13.508
65492W        W37021  15.641  42.426   4.118
65493W        W37022  29.988  16.215   4.532
65494W        W37023  27.479  38.819   0.439
65495W        W37024  37.323  24.178   1.348
65496W        W37025  21.766  43.912   2.206
65497W        W37026   8.174  25.535  12.253
65498W        W37027  31.400  25.274   4.067
65499W        W37028   1.740  35.688  13.866
65500W        W37029   6.610  41.560   4.221
65501W        W37030  17.717  31.689  12.902
65502W        W37031  40.601  21.307   0.280
65503W        W37032  28.502  29.145  14.218
65504W        W37033  30.939  37.548  14.318
65505W        W37034  24.169  18.015   2.009
65506W        W37035  31.680   0.216  11.672
65507W        W37036  24.237  37.205  13.895
65508W        W37037  44.420  12.269  11.144
65509W        W37038  19.064   3.315  13.437
65510W        W37039   3.230  36.794  11.166
65511W        W37040  14.556  10.960   3.248
65512W        W37041  21.699  37.638  12.861
65513W        W37042  35.011  14.341   2.694
65514W        W37043   5.409   3.710  11.976
65515W        W37044  18.488   8.838  10.650
65516W        W37045  14.807  25.186  11.171
65517W        W37046  19.096  33.495  13.089
65518W        W37047  11.899  30.557   1.570
65519W        W37048   2.296  43.175   0.964
65520W        W37049   1.727  39.832   3.159
65521W        W37050  36.080  36.458  11.706
65522W        W37051  15.246  11.867  13.382
65523W        W37052  43.770  14.871   3.355
65524W        W37053  40.470  18.274   4.196
65525W        W37054  40.366  13.898   2.564
65526W        W37055  41.983  24.584  11.903
65527W        W37056  12.319  29.556  11.194
65528W        W37057   8.339  36.239   0.732
65529W        W37058  20.187  33.262   9.858
65530W        W37059  40.922  19.282   2.333
65531W        W37060  44.529  20.343  12.695
65532W        W37061  42.958  40.888   2.311
65533W        W37062  18.117  35.852  10.580
65534W        W37063   7.998  29.946   2.903
65535W        W37064  36.858  39.771   0.381
65536W        W37065   1.245  13.389  11.054
65537W        W37066  17.734  32.577   3.391
65538W        W37067  16.255  23.102  11.985
65539W        W37068  35.640  16.144  14.766
65540W        W37069  30.928  25.184   4.343
65541W        W37070  22.999  20.484  13.968
65542W        W37071  19.749  42.535  13.893
65543W        W37072   2.099   2.377  14.592
65544W        W37073   3.388  11.266  10.634
65545W        W37074  18.301  17.396  11.112
65546W        W37075   3.184  44.762   4.156
65547W        W37076  18.208   8.168  12.895
65548W        W37077   7.028  15.994  12.631
65549W        W37078  23.984  39.271  12.949
65550W        W37079   7.670  20.588   2.636
65551W        W37080  10.401  23.283  14.180
65552W        W37081  22.040  27.573   1.686
65553W        W37082  16.691  39.461   1.040
65554W        W37083  35.187  21.290   5.013
65555W        W37084   9.367  25.822   3.289
65556W        W37085  10.286   6.695   2.179
65557W        W37086  32.266   3.189   4.518
65558W        W37087  38.340  41.383  13.400
65559W        W37088  28.643  15.529   0.848
65560W        W37089  21.687   9.802  10.684
65561W        W37090  11.701  40.758  10.580
65562W        W37091   1.717  16.303   0.279
65563W        W37092   7.415  42.616   3.160
65564W        W37093  18.300   0.474  10.669
65565W        W37094   8.687  41.833  12.561
65566W        W37095  21.254  38.755   0.805
65567W        W37096  13.802  43.025   4.222
65568W        W37097  12.314   2.462  12.117
65569W        W37098   1.311  10.716  10.685
65570W        W37099  42.002  21.843   1.003
65571W        W37100  36.929  38.053   1.537
65572W        W37101  40.446   3.393   1.885
65573W        W37102  38.753  18.179   1.322
65574W        W37103  19.597  27.527   4.327
65575W        W37104  22.688  32.681  12.978
65576W        W37105  41.006  29.216  12.641
65577W        W37106  28.094  28.480  14.242
65578W        W37107  26.431  29.485   0.916
65579W        W37108  15.150  39.435   3.135
65580W        W37109  20.224  18.722  10.768
65581W        W37110  32.895  33.803   4.891
65582W        W37111  31.179  34.541   3.575
65583W        W37112  35.289  27.940  14.524
65584W        W37113  35.657   7.922   0.837
65585W        W37114   0.064  29.578   4.180
65586W        W37115  41.276  14.294  12.152
65587W        W37116  20.722  35.422   4.232
65588W        W37117  40.805   2.529  10.739
65589W        W37118  25.491  37.365   4.344
65590W        W37119  29.526  31.698   3.174
65591W        W37120  20.205  32.144   0.272
65592W        W37121   9.252  12.069   2.180
65593W        W37122  12.168  26.566  11.457
65594W        W37123  31.464  40.328  14.829
65595W        W37124  29.026  14.759   1.950
65596W        W37125  33.316  10.398   0.001
65597W        W37126  19.601  27.463   2.877
65598W        W37127  10.031   5.085   2.347
65599W        W37128  12.617  30.369  11.073
65600W        W37129  26.122  30.597  14.626
65601W        W37130  24.871  28.352   3.690
65602W        W37131  20.742   0.404  10.469
65603W        W37132  16.040   3.294   2.232
65604W        W37133  25.159  25.653   1.085
65605W        W37134   4.595  19.411   4.583
65606W        W37135  29.111  42.959  13.393
65607W        W37136   0.380  36.779   1.511
65608W        W37137  42.794  23.012  11.505
65609W        W37138  31.387  29.593   1.235
65610W        W37139   0.502  15.957   2.808
65611W        W37140  35.868  24.563   2.797
65612W        W37141  43.875  25.946   2.228
65613W        W37142   7.781  10.012  11.633
65614W        W37143  38.044  21.629  12.852
65615W        W37144  42.060  43.438   1.761
65616W        W37145  43.265  27.052   0.084
65617W        W37146  33.467   6.716  11.660
65618W        W37147   1.132  27.461   1.286
65619W        W37148   2.582   4.447   3.143
65620W        W37149   3.953  21.062  13.420
65621W        W37150   9.201  12.567  12.281
65622W        W37151   9.759  19.649  14.554
65623W        W37152  39.835  19.651  14.261
65624W        W37153  33.656  12.707   3.344
65625W        W37154  27.577   6.971   4.137
65626W        W37155  28.478   4.829  12.048
65627W        W37156  11.208  17.731   4.133
65628W        W37157  24.604  34.876   4.091
65629W        W37158  41.455  31.800   4.716
65630W        W37159  11.785  20.005   1.765
65631W        W37160  11.246  36.733   3.189
65632W        W37161   3.896  25.446   4.610
65633W        W37162   4.350  44.432  10.957
65634W        W37163  39.646  41.816   1.468
65635W        W37164  20.478  44.201   1.652
65636W        W37165  11.104  11.399   3.306
65637W        W37166   2.104  39.016  13.115
65638W        W37167  24.621  19.753  10.617
65639W        W37168   8.106  28.699   0.134
65640W        W37169  22.150  34.505   0.503
65641W        W37170  19.740  39.889   2.609
65642W        W37171  37.072  17.173  14.767
65643W        W37172   4.544  20.847   1.282
65644W        W37173  31.982  27.446  11.972
65645W        W37174  21.449  16.381   1.844
65646W        W37175   1.477   8.935  12.950
65647W        W37176  40.105  11.715   2.603
65648W        W37177  19.996  34.615  13.875
65649W        W37178  37.341  12.715  11.877
65650W        W37179  33.555  22.939  11.488
65651W        W37180  21.864   6.138   3.080
65652W        W37181  13.500  25.547  11.438
65653W        W37182  36.151  29.276  12.438
65654W        W37183  42.610  29.562   4.586
65655W        W37184  20.570  35.620  11.458
65656W        W37185  15.312  28.957   0.885
65657W        W37186  18.134  16.012  10.748
65658W        W37187  35.368  36.455  10.860
65659W        W37188  26.888  28.942   3.168
65660W        W37189  10.854  22.558   3.406
65661W        W37190  19.813  33.625  13.623
65662W        W37191  32.623  33.935  10.865
65663W        W37192   5.191  43.329  12.789
65664W        W37193  23.177   9.810   1.085
65665W        W37194   4.806  11.690  14.323
65666W        W37195  16.939   8.705  14.549
65667W        W37196  11.839  19.283  14.263
65668W        W37197  31.352  23.467  10.656
65669W        W37198  24.734  23.029   2.263
65670W        W37199   2.874  13.348  10.951
65671W        W37200  35.535  31.865   4.759
65672W        W37201  22.791  11.715   5.016
65673W        W37202  13.600  16.212   3.578
65674W        W37203  14.916  30.706  14.807
65675W        W37204  11.305  40.318   3.899
65676W        W37205  20.021  13.150   1.550
65677W        W37206  32.420  23.649   4.955
65678W        W37207  15.747  44.907   2.386
65679W        W37208  16.777  32.750   2.734
65680W        W37209  20.508  16.112   3.351
65681W        W37210   5.819  11.173  10.565
65682W        W37211  42.982  25.578   0.783
65683W        W37212  20.025  12.295  12.672
65684W        W37213  42.996  44.567  11.675
65685W        W37214   1.498  12.691  13.058
65686W        W37215  21.776  12.342   0.961
65687W        W37216  27.095  24.198  14.392
65688W        W37217  11.282  28.258   1.739
65689W        W37218  40.044  21.691   2.115
65690W        W37219  21.207   2.134   4.149
65691W        W37220  20.069   7.262   3.195
65692W        W37221  27.109  26.590  14.227
65693W        W37222  24.709  28.029   1.458
65694W        W37223   1.919  31.154   4.283
65695W        W37224  38.332  25.683  14.351
65696W        W37225   6.314  32.432   3.637
65697W        W37226  14.169  43.571  12.061
65698W        W37227  31.447   8.883   0.102
65699W        W37228  24.956  33.334  13.741
65700W        W37229  27.969  40.969   2.990
65701W        W37230  10.119  26.525  12.305
65702W        W37231  36.893   9.217  13.270
65703W        W37232  43.324  21.195   0.228
65704W        W37233  15.362  38.454   1.346
65705W        W37234  17.925   0.842  11.102
65706W        W37235  11.803  11.629  13.827
65707W        W37236   6.922  25.883   3.713
65708W        W37237  36.942  34.145   3.821
65709W        W37238   5.405   4.071  12.510
65710W        W37239  28.471  21.094  12.610
65711W        W37240  13.847   2.765  13.367
65712W        W37241  29.841   7.822  11.561
65713W        W37242  15.767   1.045  11.316
65714W        W37243  29.831  42.111  13.976
65715W        W37244   8.614  32.302   2.381
65716W        W37245   8.294  22.523   0.567
65717W        W37246  21.255  16.658  10.260
65718W        W37247   4.625  10.675  11.097
65719W        W37248   9.136  22.976   1.841
65720W        W37249  44.314  14.397   2.819
65721W        W37250  20.549  16.876   1.332
65722W        W37251  42.104  21.083   4.520
65723W        W37252  11.530  29.179  14.946
65724W        W37253  10.928  30.950  12.648
65725W        W37254  36.457  32.879  12.289
65726W        W37255  19.249  17.698  12.124
65727W        W37256  43.048   3.248  14.450
65728W        W37257  12.905  26.509  12.889
65729W        W37258  32.927   6.527   2.733
65730W        W37259   0.315  41.386   1.045
65731W        W37260  15.060  40.411  13.898
65732W        W37261   2.393  13.834  12.506
65733W        W37262  11.287  38.286   1.819
65734W        W37263   4.877   7.689  13.989
65735W        W37264   4.315  23.760   2.181
65736W        W37265  27.156   5.461   0.392
65737W        W37266  29.726  14.196  11.179
65738W        W37267  12.306  39.098  13.037
65739W        W37268  12.997  12.949   2.835
65740W        W37269  33.268  27.169  10.706
65741W        W37270  15.256  25.993   4.419
65742W        W37271  16.794  20.724  13.239
65743W        W37272  34.892  17.749  11.605
65744W        W37273   0.475  18.777   2.746
65745W        W37274  33.098  20.601   4.771
65746W        W37275  20.566  41.558   2.240
65747W        W37276  23.100  14.606  12.953
65748W        W37277  15.082  23.213  13.706
65749W        W37278  16.372  23.311   3.478
65750W        W37279  19.680  28.195   2.424
65751W        W37280   1.988   3.763  13.454
65752W        W37281   1.266   3.378   3.774
65753W        W37282  37.272  37.995  12.961
65754W        W37283  24.959  14.741  11.611
65755W        W37284  16.011   7.950  12.566
65756W        W37285  21.515  44.362   2.355
65757W        W37286  12.805   2.958  13.322
65758W        W37287   4.630  33.385  12.931
65759W        W37288  16.680  37.140  12.051
65760W        W37289  17.356   5.446   3.555
65761W        W37290   6.818  32.428   2.906
65762W        W37291  19.551  35.598   4.821
65763W        W37292  42.342  13.671  13.488
65764W        W37293  32.531  35.447  14.423
65765W        W37294  43.005  33.631  10.760
65766W        W37295  30.125   8.651  13.173
65767W        W37296  26.124  30.698   0.147
65768W        W37297  28.071  35.834  11.900
65769W        W37298  11.152  22.275   0.395
65770W        W37299   5.831  39.753   4.285
65771W        W37300   8.981  26.299   5.104
65772W        W37301  22.530   5.817  14.771
65773W        W37302  39.873  40.578   4.568
65774W        W37303   8.575  30.889   4.876
65775W        W37304  34.869  21.304  13.548
65776W        W37305   1.579   3.343   2.776
65777W        W37306  31.214  18.515  10.762
65778W        W37307   5.688  18.791  11.980
65779W        W37308  42.565  10.348   4.711
65780W        W37309   1.580  11.132  12.324
65781W        W37310  35.597  33.611   0.247
65782W        W37311  28.234  38.357   1.257
65783W        W37312   0.279  32.109   3.133
65784W        W37313  36.930  31.908   3.187
65785W        W37314  13.716  36.387  11.727
65786W        W37315   4.363  15.356   4.578
65787W        W37316   0.949   4.735   1.433
65788W        W37317  13.740  40.919  14.671
65789W        W37318  35.881  10.834   0.826
65790W        W37319  33.092  16.552   0.253
65791W        W37320  12.125  12.791  14.981
65792W        W37321  24.628  21.790   0.249
65793W        W37322  30.469  22.978   3.281
65794W        W37323  22.122  38.459   4.531
65795W        W37324  18.481  39.988   3.386
65796W        W37325  13.250  19.634   2.090
65797W        W37326  34.414  15.963   2.205
65798W        W37327   9.365  36.007  12.505
65799W        W37328  36.080  20.983   3.699
65800W        W37329  15.257   8.892  12.344
65801W        W37330  20.843  35.359  13.088
65802W        W37331  16.548  41.589  13.509
65803W        W37332   3.925  30.148   1.236
65804W        W37333  22.857  24.536   4.043
65805W        W37334  44.022   1.591  12.883
65806W        W37335  13.548  27.927  11.922
65807W        W37336  15.406  30.703  14.959
65808W        W37337  39.041  31.708  13.974
65809W        W37338  29.821  31.327   1.843
65810W        W37339  12.251  22.053   4.567
65811W        W37340  24.079  20.060   1.837
65812W        W37341   4.152  21.252   3.139
65813W        W37342  34.446   8.941  10.599
65814W        W37343  33.537   4.862  12.909
65815W        W37344   7.334  10.289  14.005
65816W        W37345  44.589  19.399   5.017
65817W        W37346   1.685  40.555   0.693
65818W        W37347  36.866  30.531   0.405
65819W        W37348  37.941  28.182   1.859
65820W        W37349  13.703  41.990   0.328
65821W        W37350  13.052  31.210  12.288
65822W        W37351  10.747  24.268  12.608
65823W        W37352   3.344  10.667   1.535
65824W        W37353  44.871   5.703  14.691
65825W        W37354  14.219  35.117  12.567
65826W        W37355  41.349  28.441   4.106
65827W        W37356   4.483  38.350   2.161
65828W        W37357   9.903   2.769   4.139
65829W        W37358  11.948  43.099   0.524
65830W        W37359  41.524   2.996  12.924
65831W        W37360  24.307  31.087   0.457
65832W        W37361  13.425  16.235  14.417
65833W        W37362  15.056   3.247  13.617
65834W        W37363  30.760  17.216   0.202
65835W        W37364  44.986  35.046   3.832
65836W        W37365  12.747  11.957   1.116
65837W        W37366  40.892  43.724  13.993
65838W        W37367   8.245  24.580   3.621
65839W        W37368  30.669  38.844  10.721
65840W        W37369   5.017  13.374   3.665
65841W        W37370  28.422   2.414  12.985
65842W        W37371  17.130  30.433  13.986
65843W        W37372  40.800   1.812   3.210
65844W        W37373   6.345  23.833   4.205
65845W        W37374  19.177  28.405  14.292
65846W        W37375   7.010  43.435  14.938
65847W        W37376  26.069  12.220   4.245
65848W        W37377  23.734  31.569   4.071
65849W        W37378  33.234  21.072   1.434
65850W        W37379  34.837  30.537   4.520
65851W        W37380  13.084  24.691  13.704
65852W        W37381   0.021  43.848   1.926
65853W        W37382   4.693  39.021   1.840
65854W        W37383  44.374  28.107  11.673
65855W        W37384  44.968  44.295   0.753
65856W        W37385   4.642  37.618   3.758
65857W        W37386  27.503  28.673  14.903
65858W        W37387  35.651   5.646  11.266
65859W        W37388   1.194  30.574   2.281
65860W        W37389  21.257  39.927   4.076
65861W        W37390  29.046   0.690   4.011
65862W        W37391  13.292  23.535   3.266
65863W        W37392  20.371  42.437  14.770
65864W        W37393  42.573  11.116   1.371
65865W        W37394  11.790  12.989  10.364
65866W        W37395   5.794  42.760  13.835
65867W        W37396  10.288   1.265  14.975
65868W        W37397   6.485  17.811   4.547
65869W        W37398  11.136  17.775  10.884
65870W        W37399  12.527  26.228   1.214
65871W        W37400  18.491   7.756  13.913
65872W        W37401  26.743   1.816   0.173
65873W        W37402  19.935  23.610   1.330
65874W        W37403  34.171  25.615  14.027
65875W        W37404  18.879   3.303  10.752
65876W        W37405  33.541  41.820   1.458
65877W        W37406  30.913  14.754  12.149
65878W        W37407  33.764  16.945   1.420
65879W        W37408  15.681  16.530  13.046
65880W        W37409   1.348  42.874   4.205
65881W        W37410  38.416  23.134   3.494
65882W        W37411  14.804  25.554  12.558
65883W        W37412  41.072  34.333   1.496
65884W        W37413  37.925  27.071  13.605
65885W        W37414  40.424   0.377  10.662
65886W        W37415  17.853   3.512   1.844
65887W        W37416  22.223   3.895   3.639
65888W        W37417  24.002   8.264   2.259
65889W        W37418   4.823  11.152  14.408
65890W        W37419  12.007  18.726   3.749
65891W        W37420   2.779  29.938  14.363
65892W        W37421  16.364  14.752  13.368
65893W        W37422  37.467  27.012  13.870
65894W        W37423   8.410  14.355   4.078
65895W        W37424   1.274  38.441   1.197
65896W        W37425  12.375  35.965   1.857
65897W        W37426  14.772  30.750   4.793
65898W        W37427  13.710   3.177   1.794
65899W        W37428  15.586  25.065  13.546
65900W        W37429  38.788  44.679  12.570
65901W        W37430  16.488  32.923  13.983
65902W        W37431  40.765   5.898   5.000
65903W        W37432  38.636  24.354  14.915
65904W        W37433  25.746  39.409   1.038
65905W        W37434  37.054  40.393   1.983
65906W        W37435   4.837  10.710  11.580
65907W        W37436   6.599  29.770  10.702
65908W        W37437  26.442  40.739  14.442
65909W        W37438  40.610   2.669   3.539
65910W        W37439  33.341   8.358   3.826
65911W        W37440  17.794  21.830   4.477
65912W        W37441  31.234  33.171   9.829
65913W        W37442  14.978  26.567  14.916
65914W        W37443  23.445  43.059  12.966
65915W        W37444  25.006   4.298   3.122
65916W        W37445  44.402  40.921  13.872
65917W        W37446  21.215  37.577  13.279
65918W        W37447  25.241  43.848   3.237
65919W        W37448  27.432  18.716   2.406
65920W        W37449  19.464  44.463   2.689
65921W        W37450  44.814  44.898   4.919
65922W        W37451  18.776  33.603   3.388
65923W        W37452  19.153  44.658   0.333
65924W        W37453  38.043  38.981  14.927
65925W        W37454  12.257  20.323  14.859
65926W        W37455  16.593  34.763   2.097
65927W        W37456  37.283   4.735   0.412
65928W        W37457  23.050  29.599  13.877
65929W        W37458  40.986  11.762   1.877
65930W        W37459   0.783  29.533  14.338
65931W        W37460  11.348   2.507  11.131
65932W        W37461   1.288  10.160   1.295
65933W        W37462  25.098  32.841  13.817
65934W        W37463  25.670  16.298   1.209
65935W        W37464  27.259  25.991   4.505
65936W        W37465  44.492  14.744   1.203
65937W        W37466  31.381  21.647   3.683
65938W        W37467   8.771  11.749   1.748
65939W        W37468  44.009  33.094  11.699
65940W        W37469  20.128  40.582  11.618
65941W        W37470  19.692  20.961   4.545
65942W        W37471  17.443  38.554   3.731
65943W        W37472  22.432  38.927   2.303
65944W        W37473  13.593   1.970   0.784
65945W        W37474  37.500  17.992   1.820
65946W        W37475   0.507  30.175   3.630
65947W        W37476  18.137  44.368  11.170
65948W        W37477  11.245  14.317   2.290
65949W        W37478  24.477  39.010  14.394
65950W        W37479  29.162  42.594  11.136
65951W        W37480  39.530   7.301   1.275
65952W        W37481  26.621  18.195   0.734
65953W        W37482  19.734  43.760   3.255
65954W        W37483   2.714  23.668  13.241
65955W        W37484  42.914  40.646   0.638
65956W        W37485  17.751   2.064  10.686
65957W        W37486  18.850  33.996  14.401
65958W        W37487  38.426  16.973  10.680
65959W        W37488  40.937   1.060   2.695
65960W        W37489  34.096   9.784   0.973
65961W        W37490  39.145  29.702  11.410
65962W        W37491  31.664  13.371  14.094
65963W        W37492  30.941   3.155  10.719
65964W        W37493  16.362   7.339   1.291
65965W        W37494  35.487  31.203  14.692
65966W        W37495  40.170   9.324  13.080
65967W        W37496  29.441   0.840  12.983
65968W        W37497  40.810  39.510  10.686
65969W        W37498  38.103  25.041   5.054
65970W        W37499  29.948  39.093  13.916
65971W        W37500  24.831  18.026   0.627
65972W        W37501  32.594  19.695   0.622
65973W        W37502  41.846  42.575   0.135
65974W        W37503  39.344  13.603  12.838
65975W        W37504  36.019   1.997   1.858
65976W        W37505  30.143  34.518  14.565
65977W        W37506  10.692  17.554   1.017
65978W        W37507   1.903   8.638  13.064
65979W        W37508  37.792  28.200  14.754
65980W        W37509  31.780  33.185   0.538
65981W        W37510  36.041  36.605   2.570
65982W        W37511  16.116  34.465   2.058
65983W        W37512  41.560  30.492   2.765
65984W        W37513   5.380   6.702   0.483
65985W        W37514  10.133  29.460   4.121
65986W        W37515   7.273  34.650   0.867
65987W        W37516  14.854  26.583  10.127
65988W        W37517  15.569  26.889   0.666
65989W        W37518  44.037  35.231  14.165
65990W        W37519  11.922   9.710  11.249
65991W        W37520  40.605  12.895   3.655
65992W        W37521   1.317  36.970  14.605
65993W        W37522   2.644  41.355  12.001
65994W        W37523  35.312  26.939   3.120
65995W        W37524  42.964   1.716  14.585
65996W        W37525  18.624  35.646  10.637
65997W        W37526  16.778  24.909  12.497
65998W        W37527  11.674  17.094  14.049
65999W        W37528  22.152  39.564  14.359
66000W        W37529   3.398  13.020   3.930
66001W        W37530  26.657  15.201  12.175
66002W        W37531   2.979  35.392  11.521
66003W        W37532  36.839  41.289   1.759
66004W        W37533  39.390  29.192   2.201
66005W        W37534  20.779  11.527  13.926
66006W        W37535  37.487  10.577  10.828
66007W        W37536  10.494  30.425   1.442
66008W        W37537  25.623  16.069  11.568
66009W        W37538  34.213  44.008  11.045
66010W        W37539  40.606  34.877   3.591
66011W        W37540  40.056   4.924   1.195
66012W        W37541   3.728  35.044   3.705
66013W        W37542   3.120  10.213   1.402
66014W        W37543  38.069  15.632  10.686
66015W        W37544  40.375   6.162   3.877
66016W        W37545  23.119  41.859  10.758
66017W        W37546  33.970   5.670   4.314
66018W        W37547  20.518  18.562   2.251
66019W        W37548  18.283  41.918   4.367
66020W        W37549  34.681  14.744  13.791
66021W        W37550  27.160  40.744  12.536
66022W        W37551  27.033  37.634   2.253
66023W        W37552  30.662  31.153  11.129
66024W        W37553  15.552   8.902  13.585
66025W        W37554  34.073  31.487  10.682
66026W        W37555  32.467   2.402   4.208
66027W        W37556  23.203   6.393   1.703
66028W        W37557  15.684  41.566  14.759
66029W        W37558  17.765  32.594  10.615
66030W        W37559  37.869  12.217   2.331
66031W        W37560   9.690   6.277  11.155
66032W        W37561   2.783   8.193   0.328
66033W        W37562  14.157  11.737  12.459
66034W        W37563  20.790  35.372   0.756
66035W        W37564  11.458  29.660   1.744
66036W        W37565  19.985  16.345  12.632
66037W        W37566  14.340  44.546   1.469
66038W        W37567  14.137  41.061   1.245
66039W        W37568  25.108  35.051   4.053
66040W        W37569  26.470  30.123   3.810
66041W        W37570  22.564   3.182   1.303
66042W        W37571  34.755  43.568  12.009
66043W        W37572  34.054   6.382  11.019
66044W        W37573  21.258  11.274  13.811
66045W        W37574   8.766  20.141  13.235
66046W        W37575  34.027  11.830  12.150
66047W        W37576  21.510  18.247   0.894
66048W        W37577  36.455   8.269  14.346
66049W        W37578  41.062  29.233  13.521
66050W        W37579  22.179  28.090  14.014
66051W        W37580  29.901  20.953   4.732
66052W        W37581  14.258  16.761  12.480
66053W        W37582  16.692  36.544  13.938
66054W        W37583  31.575  20.565  14.458
66055W        W37584   7.380  35.394  13.745
66056W        W37585  36.701  42.861   3.431
66057W        W37586  26.697  43.015  12.460
66058W        W37587  23.144  14.560   3.389
66059W        W37588  30.512  18.251  13.094
66060W        W37589  10.661  27.247  11.835
66061W        W37590  32.792  39.280  11.101
66062W        W37591  22.158  35.028  14.556
66063W        W37592  20.785  31.139  12.234
66064W        W37593  21.044  20.998   9.883
66065W        W37594  30.507  29.565   4.264
66066W        W37595  19.560   1.745  11.640
66067W        W37596  34.197  38.823   3.199
66068W        W37597  39.303   1.231  13.376
66069W        W37598  17.615  12.380  11.309
66070W        W37599  15.152  29.413  12.368
66071W        W37600  27.371  18.063   2.796
66072W        W37601  36.069  12.131  12.605
66073W        W37602  42.335  43.981   4.897
66074W        W37603  43.229  33.456   2.903
66075W        W37604   6.778  19.561   3.196
66076W        W37605   0.243   2.443   4.285
66077W        W37606  10.041  34.442  10.752
66078W        W37607  13.873  29.648   2.741
66079W        W37608  28.489  10.360   4.893
66080W        W37609   1.862  44.256  10.396
66081W        W37610   2.739  37.185  12.457
66082W        W37611  38.988  24.449   2.351
66083W        W37612  35.088  23.568   2.709
66084W        W37613  28.412   7.986   2.236
66085W        W37614  22.244  35.512  11.584
66086W        W37615  33.561  31.956  13.016
66087W        W37616   1.667   8.576   0.206
66088W        W37617   7.719  34.990   1.830
66089W        W37618  35.199  43.992   0.977
66090W        W37619  17.764   7.852  12.128
66091W        W37620  15.292  34.619  11.131
66092W        W37621   3.550  21.005  10.807
66093W        W37622  22.076  41.867  13.028
66094W        W37623   9.969  43.813  13.812
66095W        W37624  42.629  24.572   2.856
66096W        W37625   5.540  14.650   1.886
66097W        W37626  36.039  15.596  11.594
66098W        W37627  28.291  31.338   0.902
66099W        W37628  36.503  36.842  11.549
66100W        W37629  14.648  28.228  11.155
66101W        W37630  25.677  43.376   4.337
66102W        W37631  42.528  35.034  11.532
66103W        W37632   1.371  33.375   3.860
66104W        W37633  40.825  28.457  11.880
66105W        W37634   3.241  15.575   0.352
66106W        W37635  30.970  28.645   3.034
66107W        W37636   6.638  27.271   3.935
66108W        W37637  24.451  41.096  10.629
66109W        W37638  32.492  31.814  14.056
66110W        W37639  10.795   8.205   0.691
66111W        W37640  18.203  42.623   2.720
66112W        W37641  41.018  27.171  14.534
66113W        W37642  34.845   9.363  13.038
66114W        W37643  34.579  23.678   2.813
66115W        W37644  16.576  13.769  14.900
66116W        W37645  22.998  11.311  10.431
66117W        W37646  18.501  12.173   1.895
66118W        W37647  18.162  15.553   4.075
66119W        W37648  28.495  39.378  10.648
66120W        W37649  11.960  14.117   4.259
66121W        W37650  30.958  29.761  12.204
66122W        W37651  14.639   8.013  11.423
66123W        W37652  11.724   8.751  13.373
66124W        W37653   6.649  36.076   1.405
66125W        W37654  15.716   3.637  13.976
66126W        W37655   1.472  32.970   3.066
66127W        W37656   6.088  30.566  14.818
66128W        W37657   8.192  37.272   3.205
66129W        W37658  24.958   9.186  13.373
66130W        W37659  12.083   0.886  12.576
66131W        W37660  17.120   7.528   1.802
66132W        W37661  38.838  32.547   0.276
66133W        W37662   5.930  13.109  10.628
66134W        W37663  35.418  36.133  14.026
66135W        W37664  34.610  27.179   3.749
66136W        W37665   0.261  34.579   3.084
66137W        W37666  19.558  37.019  10.737
66138W        W37667  40.128  40.121   4.579
66139W        W37668  18.596  44.809   1.406
66140W        W37669  24.545  42.801   2.681
66141W        W37670  27.720  35.367   4.176
66142W        W37671   3.065  44.512  14.026
66143W        W37672  20.526  38.478  10.206
66144W        W37673  22.776  10.398  11.468
66145W        W37674  20.631  19.731   1.399
66146W        W37675   7.219   4.384  11.468
66147W        W37676  37.005  25.239   0.313
66148W        W37677  41.414  36.856  13.430
66149W        W37678  36.858  13.077   4.609
66150W        W37679   5.906  15.276  11.204
66151W        W37680   3.706  29.107   2.525
66152W        W37681  41.370  16.386  11.772
66153W        W37682  44.974  31.406  11.321
66154W        W37683  15.120   7.231  14.284
66155W        W37684  33.127  40.381  11.620
66156W        W37685   9.301   3.402  11.010
66157W        W37686  41.905  38.291  12.964
66158W        W37687  44.951  32.969   0.288
66159W        W37688  34.905  39.472  14.476
66160W        W37689   9.614  33.970   1.726
66161W        W37690  44.498   9.372  11.187
66162W        W37691  38.247  39.955   1.292
66163W        W37692   3.928  42.528  11.883
66164W        W37693   4.141  35.011   1.842
66165W        W37694   8.306  29.516   1.242
66166W        W37695  18.053  41.788  13.280
66167W        W37696  27.819  23.181  13.726
66168W        W37697   3.565  22.570   4.617
66169W        W37698  27.769  23.371  11.997
66170W        W37699  19.169  22.606  14.458
66171W        W37700  19.051   3.543   4.193
66172W        W37701  35.472  34.435  10.771
66173W        W37702  42.026   7.725   4.587
66174W        W37703  20.029  32.941   2.339
66175W        W37704  33.556  29.257  13.967
66176W        W37705  20.538  23.161   2.441
66177W        W37706  12.364  44.464  13.730
66178W        W37707  20.906  16.458   2.467
66179W        W37708   7.357  19.606  11.958
66180W        W37709  27.205  17.764  11.163
66181W        W37710  42.921  33.068   1.215
66182W        W37711  20.535  34.575  12.996
66183W        W37712  43.692  10.722  11.169
66184W        W37713   7.812  41.787   4.237
66185W        W37714  13.445  19.305  13.932
66186W        W37715  10.489   8.952   4.976
66187W        W37716   0.428   9.701   1.892
66188W        W37717  31.032  16.598  11.964
66189W        W37718   5.305   3.231  14.588
66190W        W37719   3.823  14.665  13.527
66191W        W37720  33.082   0.477  11.948
66192W        W37721  16.940  28.453   1.675
66193W        W37722   9.059  19.478   2.183
66194W        W37723  33.956   2.038   1.323
66195W        W37724   0.887  13.752  11.966
66196W        W37725  35.563   2.983   0.900
66197W        W37726   2.396  12.198  11.911
66198W        W37727   0.722  31.916  12.931
66199W        W37728   1.480  38.476   3.649
66200W        W37729   6.629  33.923   3.265
66201W        W37730   0.505  39.461   1.132
66202W        W37731  27.608  27.491  10.632
66203W        W37732   7.131  43.228  13.704
66204W        W37733  34.915   4.320   4.775
66205W        W37734  44.330  18.232  11.711
66206W        W37735   3.719   3.330   1.525
66207W        W37736  27.933  21.598   0.879
66208W        W37737  29.082   9.392  10.591
66209W        W37738  36.516   7.818   3.749
66210W        W37739   3.647  36.937   2.759
66211W        W37740  25.178  23.279   1.201
66212W        W37741  43.953  34.383   0.957
66213W        W37742   9.426  40.219   2.722
66214W        W37743   8.901  19.266  14.865
66215W        W37744  42.089  22.539  11.978
66216W        W37745  16.716  15.691  13.217
66217W        W37746  32.524  40.597  11.489
66218W        W37747  36.171   8.883  12.966
66219W        W37748  26.931  24.143   3.681
66220W        W37749  29.121   2.242   0.431
66221W        W37750  14.151   7.408   4.755
66222W        W37751  20.639  14.342  13.262
66223W        W37752  42.004   1.772   4.997
66224W        W37753  16.826   0.296  12.993
66225W        W37754   9.373  34.504  12.749
66226W        W37755  37.366  14.059   3.577
66227W        W37756  22.433  19.235   2.746
66228W        W37757  23.202  13.705  12.108
66229W        W37758  34.316   0.424  12.783
66230W        W37759  22.183  25.687  10.774
66231W        W37760   0.751  18.494  10.761
66232W        W37761   0.873   4.577   2.723
66233W        W37762   0.317  34.598  13.317
66234W        W37763   0.479  39.600  11.426
66235W        W37764  24.752   6.888  13.943
66236W        W37765  41.490   0.960  13.100
66237W        W37766  37.531  23.457   2.854
66238W        W37767  19.794   2.258  13.851
66239W        W37768  16.155  38.001   1.183
66240W        W37769   9.651   7.678   1.159
66241W        W37770  36.381  15.601  14.809
66242W        W37771  43.717   6.248  12.342
66243W        W37772  16.024  32.946  12.566
66244W        W37773  11.427  17.177   0.860
66245W        W37774  28.563   3.839   2.235
66246W        W37775  41.864   0.254   4.768
66247W        W37776  10.461  16.955  10.352
66248W        W37777  40.550  42.065   3.627
66249W        W37778  12.794  10.778   1.627
66250W        W37779  33.038  27.053  14.164
66251W        W37780  23.112  29.157   2.275
66252W        W37781  10.627  20.278   1.802
66253W        W37782  31.058   8.270  10.670
66254W        W37783  17.585  36.217   2.268
66255W        W37784  13.096  14.703  14.295
66256W        W37785  41.006  25.433   3.625
66257W        W37786  10.274  10.720   4.122
66258W        W37787  23.166  42.819  14.870
66259W        W37788   6.210  21.053  14.363
66260W        W37789  13.897  37.590  14.994
66261W        W37790  40.580  35.932   1.896
66262W        W37791  15.835  34.594  14.222
66263W        W37792  24.722   6.239   2.703
66264W        W37793   1.062   7.772  14.907
66265W        W37794  24.201  40.912   1.207
66266W        W37795  39.833  33.627   0.413
66267W        W37796  15.496  32.904  12.514
66268W        W37797  13.943   7.977   2.196
66269W        W37798  28.540  25.906   0.946
66270W        W37799  28.370  26.088  14.433
66271W        W37800  15.814  41.085  12.563
66272W        W37801   0.807  31.782   3.679
66273W        W37802  18.347  19.197  11.541
66274W        W37803   0.832   4.552  14.802
66275W        W37804  30.136  29.067  11.556
66276W        W37805  29.156  35.250  10.715
66277W        W37806  20.072  18.622   4.939
66278W        W37807  27.510   3.686  13.593
66279W        W37808   7.258  38.916  13.780
66280W        W37809   4.651  14.626  12.551
66281W        W37810   4.249  16.631  14.537
66282W        W37811  40.935  31.620   3.135
66283W        W37812  15.533  22.039   2.825
66284W        W37813  15.136  17.230  11.469
66285W        W37814  11.286   9.146  14.319
66286W        W37815  23.829  42.342  13.371
66287W        W37816  17.534  24.512   3.367
66288W        W37817  39.428  24.687   3.295
66289W        W37818  40.071   2.004   0.432
66290W        W37819  44.995  34.089  12.501
66291W        W37820  10.184  16.323   3.739
66292W        W37821  41.264  42.113  13.336
66293W        W37822  28.401   7.331   0.274
66294W        W37823  15.108   7.384   1.753
66295W        W37824  21.179   9.342  12.480
66296W        W37825   5.775   9.879  12.022
66297W        W37826   3.444   9.182   1.399
66298W        W37827  40.513   4.311   1.949
66299W        W37828  18.704   9.729   2.397
66300W        W37829  19.250  20.317  11.105
66301W        W37830   2.490   4.622  10.973
66302W        W37831  14.388   2.689  11.195
66303W        W37832   4.617   5.144   0.660
66304W        W37833  33.298  28.040   9.976
66305W        W37834  10.421  41.378   3.208
66306W        W37835  24.242  43.991  12.481
66307W        W37836   7.658  36.250  13.278
66308W        W37837  12.718  28.459  14.527
66309W        W37838   6.157  12.259  12.594
66310W        W37839  28.289  22.080  12.400
66311W        W37840  13.424  21.518   0.105
66312W        W37841   2.027   3.426  13.842
66313W        W37842  12.225  43.731   1.889
66314W        W37843  30.754  43.349   3.057
66315W        W37844  23.914  23.615  12.738
66316W        W37845   5.919  44.033  11.171
66317W        W37846  23.825  19.553  10.658
66318W        W37847  41.343  37.294  10.668
66319W        W37848  17.362  28.061  14.505
66320W        W37849  11.711  16.610   3.609
66321W        W37850  44.283  27.981  11.156
66322W        W37851  43.226  40.334   1.415
66323W        W37852  14.647  22.623   0.800
66324W        W37853   5.459  11.811   2.134
66325W        W37854  15.513  28.446   4.501
66326W        W37855   5.694  24.217  12.679
66327W        W37856  19.719  43.433   4.513
66328W        W37857  11.703   1.330  12.278
66329W        W37858  33.535  34.084  10.805
66330W        W37859   1.825   0.980   2.183
66331W        W37860  24.528  10.364  11.977
66332W        W37861  41.936   3.709   0.296
66333W        W37862  20.125  30.646   0.700
66334W        W37863  34.012  37.885   0.774
66335W        W37864  16.576  37.009   0.935
66336W        W37865  39.639  38.096   4.609
66337W        W37866  13.802  10.159  12.437
66338W        W37867  44.234  30.498   4.554
66339W        W37868  28.453  30.495   0.150
66340W        W37869  19.268  12.761   0.987
66341W        W37870  10.260  14.819   1.826
66342W        W37871  39.527  39.474  14.754
66343W        W37872  35.756  35.498   2.766
66344W        W37873  15.627  29.701   4.752
66345W        W37874  37.513  26.546  14.103
66346W        W37875  42.025  30.070   4.059
66347W        W37876  14.156  10.931  13.521
66348W        W37877   2.433  24.517   3.789
66349W        W37878   9.076  24.209   4.205
66350W        W37879  34.816   2.788   4.161
66351W        W37880   0.433  29.509   2.811
66352W        W37881  28.525  20.688  11.238
66353W        W37882  44.165  41.303  12.008
66354W        W37883   7.261   9.076  13.045
66355W        W37884  35.530   8.942   2.357
66356W        W37885  23.257  35.829   1.970
66357W        W37886   0.428  24.986  10.639
66358W        W37887  30.571   2.891  12.814
66359W        W37888  37.131  18.007  10.484
66360W        W37889  30.338  26.232  11.503
66361W        W37890  20.620  33.976  12.586
66362W        W37891  19.279  29.521   0.332
66363W        W37892  17.325   5.131   1.253
66364W        W37893   8.230   1.741   0.337
66365W        W37894  35.862  39.645   1.981
66366W        W37895   1.979  25.940  13.983
66367W        W37896  40.524  23.681  14.345
66368W        W37897   5.639   5.585  12.484
66369W        W37898   2.628  21.709  13.084
66370W        W37899  19.657  20.806  11.592
66371W        W37900  10.029  22.471  10.027
66372W        W37901  15.240  40.192  13.464
66373W        W37902  17.612  11.013   0.456
66374W        W37903  32.270   2.212   3.740
66375W        W37904   3.711  19.610  14.720
66376W        W37905  18.252   9.976  14.768
66377W        W37906  15.259   6.907  13.886
66378W        W37907  27.679  28.115   3.386
66379W        W37908  34.960   0.767   4.377
66380W        W37909  28.697   4.715   0.869
66381W        W37910  36.559  17.514   2.666
66382W        W37911   5.218  25.451   2.243
66383W        W37912  44.264  16.679   4.285
66384W        W37913  28.366  40.466   2.780
66385W        W37914  14.690  24.014   2.859
66386W        W37915  44.314   2.274   2.904
66387W        W37916  38.294   6.257   1.633
66388W        W37917  26.434  22.377   0.436
66389W        W37918  18.152  38.140   2.394
66390W        W37919  30.767  20.588   2.874
66391W        W37920  25.529  42.932   4.594
66392W        W37921  39.033  28.614   1.767
66393W        W37922  10.341  10.412  13.914
66394W        W37923   4.798  35.926   1.382
66395W        W37924   5.940  15.054   2.052
66396W        W37925  13.666   8.275  11.108
66397W        W37926   7.894   4.582  11.901
66398W        W37927  34.578   1.317   3.805
66399W        W37928   6.216  22.815  10.643
66400W        W37929  30.139   8.433  13.951
66401W        W37930  38.589   7.340   0.991
66402W        W37931  10.974  10.785  10.986
66403W        W37932  22.185  42.239  12.281
66404W        W37933  14.113  15.225  13.579
66405W        W37934  37.084  40.609   3.848
66406W        W37935   3.189  29.375  13.580
66407W        W37936   4.931  36.874   3.100
66408W        W37937  17.810   7.706   2.245
66409W        W37938  40.071  29.950   0.301
66410W        W37939   8.275   2.398  12.836
66411W        W37940  21.219  10.898  10.705
66412W        W37941  32.543   4.739  12.294
66413W        W37942  20.666  18.944   0.861
66414W        W37943  30.866   9.296   2.749
66415W        W37944  17.857  35.878  12.460
66416W        W37945  28.949  15.279   0.296
66417W        W37946   6.855  22.504   2.275
66418W        W37947  11.348  29.941  10.677
66419W        W37948  19.653  14.739   5.131
66420W        W37949  36.454  17.742   4.181
66421W        W37950  17.210   6.797  14.776
66422W        W37951   3.769   3.548  14.843
66423W        W37952   8.406  32.371  12.562
66424W        W37953  30.983  12.403   2.816
66425W        W37954  43.759  22.144   2.537
66426W        W37955  30.019  13.139  10.600
66427W        W37956  16.216  30.256  13.038
66428W        W37957  31.453   6.263   4.820
66429W        W37958  16.334  39.374  11.418
66430W        W37959  20.119  31.979  14.409
66431W        W37960  23.807  35.024   4.218
66432W        W37961   7.012  35.382   2.320
66433W        W37962  16.766   2.841  12.406
66434W        W37963  27.450  42.786  13.073
66435W        W37964  44.569  14.461   1.661
66436W        W37965  19.505   5.889  12.499
66437W        W37966  37.974  44.733  14.463
66438W        W37967  41.704  23.380  10.269
66439W        W37968  44.999   6.724  13.997
66440W        W37969  11.278   1.407   4.537
66441W        W37970  18.224  42.356  14.718
66442W        W37971  23.212  23.497   0.784
66443W        W37972  11.281  44.662   2.387
66444W        W37973   7.150  18.564   0.887
66445W        W37974  24.212   0.029   4.587
66446W        W37975   2.901  29.180   1.125
66447W        W37976  33.120  42.297  14.311
66448W        W37977   4.841  30.321  11.434
66449W        W37978  27.992  26.205  14.079
66450W        W37979   3.813  27.051  11.403
66451W        W37980   5.734  35.171   0.817
66452W        W37981  11.712  43.799  12.958
66453W        W37982  34.656  17.414   1.783
66454W        W37983  21.196  25.071   1.049
66455W        W37984  11.732  29.462  12.816
66456W        W37985  42.942   3.171  11.133
66457W        W37986  34.810  23.671  12.531
66458W        W37987  39.875  32.550   1.707
66459W        W37988  40.731  18.482  14.262
66460W        W37989   4.996  41.004   3.154
66461W        W37990  11.713  34.480  11.993
66462W        W37991  21.638  28.932   4.228
66463W        W37992  35.371   4.701   3.858
66464W        W37993   4.761  11.142   0.279
66465W        W37994  42.304   0.904   1.428
66466W        W37995  22.235   3.821  10.743
66467W        W37996   9.713  19.634   0.058
66468W        W37997  15.759  26.874  11.228
66469W        W37998   2.166   8.627   0.336
66470W        W37999  34.922   1.155  10.579
66471W        W38000   2.480  17.685  12.579
66472W        W38001  11.190   5.992  13.560
66473W        W38002  42.725   4.957  13.072
66474W        W38003  17.808  29.655   3.217
66475W        W38004  34.811   2.834  11.504
66476W        W38005  21.194  29.469   1.747
66477W        W38006  42.636  28.684  12.183
66478W        W38007  25.255  32.666  11.093
66479W        W38008  17.681  28.425  11.485
66480W        W38009   0.267  29.752  12.539
66481W        W38010  23.531  38.883  11.027
66482W        W38011  27.552   5.264  11.589
66483W        W38012  33.635  33.529  11.649
66484W        W38013   0.792  36.617  13.378
66485W        W38014  31.560  21.702  11.586
66486W        W38015  10.919  14.800   3.586
66487W        W38016  36.377  11.337  14.045
66488W        W38017  43.003   1.785  14.041
66489W        W38018  36.215  21.229  13.435
66490W        W38019   5.476  31.566   0.811
66491W        W38020   2.778  24.184  12.541
66492W        W38021  33.961  19.300   3.822
66493W        W38022  35.977   2.241   4.388
66494W        W38023  28.055   5.624   3.866
66495W        W38024  15.854  27.855  14.933
66496W        W38025  29.487  22.918  13.005
66497W        W38026  20.507  37.591   4.812
66498W        W38027  41.372  17.878  13.091
66499W        W38028  37.511  11.310  10.168
66500W        W38029  10.834  32.116  11.112
66501W        W38030  12.778  25.154   3.482
66502W        W38031  38.116  20.048  14.471
66503W        W38032  35.662   8.013  10.757
66504W        W38033   5.061  16.186  11.694
66505W        W38034  17.099  23.802   0.854
66506W        W38035   9.600   4.338  13.090
66507W        W38036   1.987   6.598  11.088
66508W        W38037  12.748  12.207  14.386
66509W        W38038  21.635  39.435  13.584
66510W        W38039   9.691   4.194   2.173
66511W        W38040  44.050  21.951   2.912
66512W        W38041  38.556  29.062   4.607
66513W        W38042  38.174  11.816  14.429
66514W        W38043  34.058  41.261  13.799
66515W        W38044  16.210  19.477   9.772
66516W        W38045  26.605  42.993   0.482
66517W        W38046  26.173  19.203   3.994
66518W        W38047  22.197  27.035   2.155
66519W        W38048   6.145  35.770  11.711
66520W        W38049   6.115  18.713  13.967
66521W        W38050  34.958  37.575   2.544
66522W        W38051  19.599  27.682  14.508
66523W        W38052  35.175  44.488  13.776
66524W        W38053  17.785  33.036  13.559
66525W        W38054  28.012  19.721   3.751
66526W        W38055  21.686  11.347  13.362
66527W        W38056   3.999   7.783   0.353
66528W        W38057  18.816  38.802  10.342
66529W        W38058  16.754  39.880   4.858
66530W        W38059   1.812  13.334  13.316
66531W        W38060  14.286  25.531  12.483
66532W        W38061  11.096  24.066  14.423
66533W        W38062   1.855  44.855  12.530
66534W        W38063  42.193  38.098   3.594
66535W        W38064   8.282  20.936   2.222
66536W        W38065  28.897   1.346   0.233
66537W        W38066  30.972  16.346   4.546
66538W        W38067  21.423  30.903   1.825
66539W        W38068   5.688  18.274  11.527
66540W        W38069   3.463  15.378   2.195
66541W        W38070  20.316   8.029  13.961
66542W        W38071  11.771  11.228   0.355
66543W        W38072  28.775   6.652  12.672
66544W        W38073  38.445  24.214  11.361
66545W        W38074  36.085  12.849  13.878
66546W        W38075   7.280  26.239   3.668
66547W        W38076  29.501  20.642   2.608
66548W        W38077  10.672  31.624  13.227
66549W        W38078  11.109  10.560  13.266
66550W        W38079  16.752  37.359   4.568
66551W        W38080   0.948  32.499  10.850
66552W        W38081  15.292  25.515   4.797
66553W        W38082  22.067  10.856   3.745
66554W        W38083  12.623   3.834   2.380
66555W        W38084  23.675  37.825  12.059
66556W        W38085  27.146  29.123   2.682
66557W        W38086   1.358  41.359  12.614
66558W        W38087  35.209  24.040  12.768
66559W        W38088  32.667  28.559   0.970
66560W        W38089  41.539   7.740   4.338
66561W        W38090  11.241  13.849   1.395
66562W        W38091  29.161   5.945  11.505
66563W        W38092  39.509  20.408   2.188
66564W        W38093  31.423   5.587  10.687
66565W        W38094  44.461   9.199  12.957
66566W        W38095   0.609  40.541   2.723
66567W        W38096  28.618  43.517   1.681
66568W        W38097  13.253  17.901  10.294
66569W        W38098  12.962  13.509  13.988
66570W        W38099  24.477  20.104   4.504
66571W        W38100  16.768   0.744   1.254
66572W        W38101  22.160  22.715   1.352
66573W        W38102  31.568  12.890  13.259
66574W        W38103   5.231   5.417   1.898
66575W        W38104   7.987  29.730  10.694
66576W        W38105  39.438  28.913   0.016
66577W        W38106  14.192   6.655  14.698
66578W        W38107  21.496  11.743   4.001
66579W        W38108  10.142  20.091   1.719
66580W        W38109   0.288  24.232   1.239
66581W        W38110  15.092  27.073  10.787
66582W        W38111  31.929  16.110   0.054
66583W        W38112  27.051  18.246  14.776
66584W        W38113  40.872  15.308   3.246
66585W        W38114  29.615  10.759   0.922
66586W        W38115  43.890  24.932  14.819
66587W        W38116  44.510  24.066  12.039
66588W        W38117  35.588  33.075  10.737
66589W        W38118   3.135  32.007   0.021
66590W        W38119   0.482  15.040  12.895
66591W        W38120  34.055  31.579   0.875
66592W        W38121   2.732  30.030   2.387
66593W        W38122   8.402  25.591   2.430
66594W        W38123   3.254   8.966  10.749
66595W        W38124   1.407  18.059  11.223
66596W        W38125  34.147  24.998  13.484
66597W        W38126  39.819   9.309   4.599
66598W        W38127  17.129   4.906  13.643
66599W        W38128  21.250  23.089  10.760
66600W        W38129  23.243  27.478   4.705
66601W        W38130  14.340  18.441  10.543
66602W        W38131   3.710  42.372  12.865
66603W        W38132  38.516  29.061   0.451
66604W        W38133  33.447  20.087  10.718
66605W        W38134  28.557   2.682   1.761
66606W        W38135  27.035  14.842  11.490
66607W        W38136  40.783  44.328  12.784
66608W        W38137  13.563   4.688  11.022
66609W        W38138  20.275  41.433  14.478
66610W        W38139  19.202  14.803   0.876
66611W        W38140  14.435  19.266  10.221
66612W        W38141  32.966  13.037   3.232
66613W        W38142   9.091   4.413   3.211
66614W        W38143   8.813  13.564   3.139
66615W        W38144  17.262   1.468  13.541
66616W        W38145  32.561   2.670   2.640
66617W        W38146  10.478  37.065   1.072
66618W        W38147  27.433  11.848  10.253
66619W        W38148  41.853   2.180  12.053
66620W        W38149   0.241  29.988  14.708
66621W        W38150   2.051  21.523   0.897
66622W        W38151  23.642   3.411  14.259
66623W        W38152  34.971  26.611  13.427
66624W        W38153  19.129   2.875  14.135
66625W        W38154  21.133  28.425   3.521
66626W        W38155   3.065  32.997   0.388
66627W        W38156  15.101  44.236   0.879
66628W        W38157  11.846  27.584   3.394
66629W        W38158   9.060  22.577  14.517
66630W        W38159  27.937  20.010   4.175
66631W        W38160  18.740  22.063  12.022
66632W        W38161  36.456  31.085   1.371
66633W        W38162  35.962  41.824  11.606
66634W        W38163  28.438  12.174   3.228
66635W        W38164  17.332  43.303   2.668
66636W        W38165  19.555   1.116   0.825
66637W        W38166   3.052  21.782  13.888
66638W        W38167  30.840  24.678  13.531
66639W        W38168  38.749  12.881  13.567
66640W        W38169   8.865  34.156  13.754
66641W        W38170  16.919  43.950  12.992
66642W        W38171  16.020  26.195  10.793
66643W        W38172  31.254  40.665  13.488
66644W        W38173  14.448  41.025   4.800
66645W        W38174   9.904  14.039  11.556
66646W        W38175  25.704  21.293  13.054
66647W        W38176   8.897  25.447  13.379
66648W        W38177  25.040  32.044   4.031
66649W        W38178  20.549  30.019  11.323
66650W        W38179  23.080  17.143  12.280
66651W        W38180  43.322  43.759  13.396
66652W        W38181   0.143  30.777   3.164
66653W        W38182   1.880  34.580   2.525
66654W        W38183  42.914   0.806   2.763
66655W        W38184  37.740  40.041  14.982
66656W        W38185  13.326  26.244   1.086
66657W        W38186  25.958  11.910   2.527
66658W        W38187  22.358  38.140  12.409
66659W        W38188  43.881  39.260   0.243
66660W        W38189  25.594  19.477  14.984
66661W        W38190  35.830  39.221   2.336
66662W        W38191   0.520  37.923  13.804
66663W        W38192  39.778  41.501  13.948
66664W        W38193  22.237  24.647  11.858
66665W        W38194  26.690  32.090   4.586
66666W        W38195  11.098  26.697   4.020
66667W        W38196  12.734  20.505   3.904
66668W        W38197  41.701  37.940   2.262
66669W        W38198   4.224  26.402  11.874
66670W        W38199  36.615  26.329  12.506
66671W        W38200  31.112  34.934   5.267
66672W        W38201  21.616  14.912   1.217
66673W        W38202  20.016  13.128  13.634
66674W        W38203  17.667  14.900  12.561
66675W        W38204   9.646  40.763  11.955
66676W        W38205  14.205  24.255   0.447
66677W        W38206  11.859  16.281  14.934
66678W        W38207   0.475  25.591  13.651
66679W        W38208  28.583  42.007  14.022
66680W        W38209  30.735   3.372  11.167
66681W        W38210   4.740  14.629   4.540
66682W        W38211  16.244  11.691   3.628
66683W        W38212  36.564   5.697  13.777
66684W        W38213  25.235   5.371   1.571
66685W        W38214  15.309  32.852  12.002
66686W        W38215  23.638  35.135  13.333
66687W        W38216  30.687  10.594  14.444
66688W        W38217  36.524  20.344   1.394
66689W        W38218  18.000  17.072  12.375
66690W        W38219  33.638   6.352  10.696
66691W        W38220  39.932  12.283  14.962
66692W        W38221  11.612  30.052  13.396
66693W        W38222  34.186  14.789   1.685
66694W        W38223  26.511  35.374   2.278
66695W        W38224  19.903   3.576   3.627
66696W        W38225  15.697  14.746   3.370
66697W        W38226  39.915  41.720  11.077
66698W        W38227  20.024  28.949  13.972
66699W        W38228  27.900  43.762   4.356
66700W        W38229  44.279  37.439  13.970
66701W        W38230   6.865  29.196  12.886
66702W        W38231  36.463  30.134   4.255
66703W        W38232  16.478  21.537   1.275
66704W        W38233  28.142  35.554   2.821
66705W        W38234   8.941  34.542   3.481
66706W        W38235  22.011  34.223   2.303
66707W        W38236  25.654  43.395  11.545
66708W        W38237  13.296   7.897  14.320
66709W        W38238   0.798  39.960  10.710
66710W        W38239  25.648  13.323  12.440
66711W        W38240  38.481  35.421  14.446
66712W        W38241  43.362  15.806  11.767
66713W        W38242  37.130  44.057  13.756
66714W        W38243   2.184  36.021   4.567
66715W        W38244   0.895   5.879   3.390
66716W        W38245  13.098  37.582   0.210
66717W        W38246   4.381  41.318  10.471
66718W        W38247  33.415  43.799  11.627
66719W        W38248  36.658  13.260  10.894
66720W        W38249  11.372   7.461   2.783
66721W        W38250   2.831  24.270   1.868
66722W        W38251  43.081  11.288  13.791
66723W        W38252   3.516  30.904   2.238
66724W        W38253  38.962  26.669  13.794
66725W        W38254  32.350  17.990   2.230
66726W        W38255  19.223  21.550   4.187
66727W        W38256  10.381  25.687  11.757
66728W        W38257  24.018   3.379  13.349
66729W        W38258  42.140  27.463  10.530
66730W        W38259  35.106  31.759  11.546
66731W        W38260   5.739  25.581  14.505
66732W        W38261  44.243  23.968  14.870
66733W        W38262  23.443  24.142   2.767
66734W        W38263  22.039  12.589  12.137
66735W        W38264  18.392  22.673   2.302
66736W        W38265  16.210  24.708  11.243
66737W        W38266  19.771  30.602   4.946
66738W        W38267   3.143  35.930   2.816
66739W        W38268   9.218  12.356   4.088
66740W        W38269   7.116  39.477   0.002
66741W        W38270   0.811  42.239  13.021
66742W        W38271  31.060  26.670   3.818
66743W        W38272  38.796  34.648  11.408
66744W        W38273  42.034   9.609   3.227
66745W        W38274  43.560   7.225   3.244
66746W        W38275  44.948  10.476   1.473
66747W        W38276  43.934  42.566  11.185
66748W        W38277  14.332  32.453   3.544
66749W        W38278  20.798  15.532  11.152
66750W        W38279  13.886  35.454   4.701
66751W        W38280  14.113  43.328  11.614
66752W        W38281  43.938  26.181  13.529
66753W        W38282  12.698   0.468   2.421
66754W        W38283  16.650  29.572   0.952
66755W        W38284  37.524  24.542   4.772
66756W        W38285  41.992  12.115   2.795
66757W        W38286  16.708   6.996   2.308
66758W        W38287   5.968  21.759   2.305
66759W        W38288  14.357  29.696  11.091
66760W        W38289  21.060  35.017  11.880
66761W        W38290   6.630  38.440   9.914
66762W        W38291   3.388  19.178  10.742
66763W        W38292  34.359  17.787   0.769
66764W        W38293  18.797  39.389  13.999
66765W        W38294  37.089  24.450  10.759
66766W        W38295  20.640  34.027  10.730
66767W        W38296  11.145  11.803   0.514
66768W        W38297  39.118  10.976   2.281
66769W        W38298  11.938  17.491  12.438
66770W        W38299   3.550  19.649   1.316
66771W        W38300  43.306  21.597  12.354
66772W        W38301  17.263  16.715   0.968
66773W        W38302  39.265  23.240  12.134
66774W        W38303  15.339  11.542  10.101
66775W        W38304  19.704  18.665  10.857
66776W        W38305  23.575   1.217  10.672
66777W        W38306   9.175  18.747  11.085
66778W        W38307  22.732   8.845   0.880
66779W        W38308  36.710   7.812  14.337
66780W        W38309   8.468  13.109  12.810
66781W        W38310  38.062  41.112   4.948
66782W        W38311   7.711  31.201   0.195
66783W        W38312   3.442  24.941   3.439
66784W        W38313  26.537  20.848  10.084
66785W        W38314  21.055  27.540  10.042
66786W        W38315  13.564  11.926   1.320
66787W        W38316  19.039  29.953   0.422
66788W        W38317  35.518  32.080  12.929
66789W        W38318   7.144  38.423  10.659
66790W        W38319  34.383  13.369   2.726
66791W        W38320  23.315  35.608   4.608
66792W        W38321  42.362  31.943   2.810
66793W        W38322  23.028  37.337   1.374
66794W        W38323  15.692   4.819  14.389
66795W        W38324  17.593  34.747   4.751
66796W        W38325  14.695  38.091  11.567
66797W        W38326  34.479   9.414   0.820
66798W        W38327  11.200  40.268  11.084
66799W        W38328   4.904   3.819  14.962
66800W        W38329  14.078   6.928  14.251
66801W        W38330  42.214   4.181   0.891
66802W        W38331  40.272  17.435   2.574
66803W        W38332  12.545  16.600   2.909
66804W        W38333   3.429  35.326  10.181
66805W        W38334  27.899  33.485  14.516
66806W        W38335   1.268  29.192   3.379
66807W        W38336  17.997  14.923   2.117
66808W        W38337  36.618   4.961  14.852
66809W        W38338   5.572  17.349  10.803
66810W        W38339  39.920  33.111   0.407
66811W        W38340  26.147  38.098  14.224
66812W        W38341   1.229  28.457  12.581
66813W        W38342  35.071  16.961  13.821
66814W        W38343   6.907  14.600   3.715
66815W        W38344  41.369  36.913   4.270
66816W        W38345  20.494  41.803  10.480
66817W        W38346  26.634   5.512   0.358
66818W        W38347  28.349  13.129   1.834
66819W        W38348  16.310  31.373  10.700
66820W        W38349  34.622  12.843  12.851
66821W        W38350  28.131  19.283  12.129
66822W        W38351  40.442  43.252   0.027
66823W        W38352  41.111   7.673  14.289
66824W        W38353  11.230  12.448  14.857
66825W        W38354  41.929  14.243  12.429
66826W        W38355  41.488  23.090   3.731
66827W        W38356   4.396  43.231  13.975
66828W        W38357  18.681  10.050   0.941
66829W        W38358   1.024  37.187  12.077
66830W        W38359  24.199  38.818   0.166
66831W        W38360  32.621   0.999   2.125
66832W        W38361  32.453   5.425   0.402
66833W        W38362  24.833   3.149  12.893
66834W        W38363  33.378   5.516  13.542
66835W        W38364  15.136  35.002  14.385
66836W        W38365  10.614  27.799   3.964
66837W        W38366  44.982  27.877   4.921
66838W        W38367  17.718   4.032   1.859
66839W        W38368  15.609  18.742   4.870
66840W        W38369  33.496   5.861  11.762
66841W        W38370  33.375  20.094  12.113
66842W        W38371  34.179  23.025   2.245
66843W        W38372  24.069  26.063   4.857
66844W        W38373  17.292  40.867  14.466
66845W        W38374  44.476  18.101  14.535
66846W        W38375   9.993  30.980   5.109
66847W        W38376   6.335   3.166   3.222
66848W        W38377  24.143  44.494   4.679
66849W        W38378  22.710  29.939   0.311
66850W        W38379  36.576  35.615  14.455
66851W        W38380  32.022  10.521   5.186
66852W        W38381  29.399   3.813   0.170
66853W        W38382  16.361  10.572  11.332
66854W        W38383  14.739  21.493   0.344
66855W        W38384  10.421  31.622  14.068
66856W        W38385  13.310   7.386   2.256
66857W        W38386  36.324  27.091   0.409
66858W        W38387   4.910   2.363  14.397
66859W        W38388  21.013  16.982   4.911
66860W        W38389  33.792  14.182   4.582
66861W        W38390   1.393  35.900   0.446
66862W        W38391   4.656  29.910  14.438
66863W        W38392  23.406  23.062  11.049
66864W        W38393  32.120  21.031  10.099
66865W        W38394  31.099  25.037  14.427
66866W        W38395  41.794  33.338  13.791
66867W        W38396   8.671  22.974   4.257
66868W        W38397  27.725  26.170   4.735
66869W        W38398   6.320  14.741   0.010
66870W        W38399  33.265  18.177   3.763
66871W        W38400   0.969  15.370  14.627
66872W        W38401  20.545   0.850   0.425
66873W        W38402  38.254  25.205   4.577
66874W        W38403   9.367  39.754   2.474
66875W        W38404  27.236  28.645  11.508
66876W        W38405  23.703  27.504  13.531
66877W        W38406   1.397  19.029  13.176
66878W        W38407   2.103  11.657  11.651
66879W        W38408   6.250   6.532  13.814
66880W        W38409   2.321  33.641  13.572
66881W        W38410  43.951   8.712   2.305
66882W        W38411  38.585  27.532   1.162
66883W        W38412  20.389  14.290   3.283
66884W        W38413   2.354  32.585  10.735
66885W        W38414  26.222  37.358  12.548
66886W        W38415   1.787  38.437   1.325
66887W        W38416  12.699  31.149   2.239
66888W        W38417   1.778   5.978  12.382
66889W        W38418  44.186  35.834  14.936
66890W        W38419  43.019   9.880  14.466
66891W        W38420  32.581  33.454   3.300
66892W        W38421  15.075  33.675  12.948
66893W        W38422   2.015  13.843  10.636
66894W        W38423   7.831  18.053  13.803
66895W        W38424  24.513  28.164  11.083
66896W        W38425  33.500  26.643  14.671
66897W        W38426   1.002  40.535  13.019
66898W        W38427  28.621  19.150  13.848
66899W        W38428   3.789   6.459  14.205
66900W        W38429  20.118   8.412   4.713
66901W        W38430   5.946  26.303  11.736
66902W        W38431  25.532  25.664  10.771
66903W        W38432  18.322  11.190   1.780
66904W        W38433  19.850  29.943   0.964
66905W        W38434  37.419  34.943   0.444
66906W        W38435  27.539  40.933   4.083
66907W        W38436  37.440   4.944  10.936
66908W        W38437  12.017  26.270  14.861
66909W        W38438  38.981  43.543   4.887
66910W        W38439  26.609   6.712  14.618
66911W        W38440  32.575  37.563   0.980
66912W        W38441  34.416  34.534   1.916
66913W        W38442  42.923   6.481  12.952
66914W        W38443  23.556  37.360   3.101
66915W        W38444  28.148  44.277  12.894
66916W        W38445   4.745  26.927   4.015
66917W        W38446  39.768  33.853   1.242
66918W        W38447  19.320  24.124  12.490
66919W        W38448   8.357   5.638  12.394
66920W        W38449  37.204  31.054   1.958
66921W        W38450  13.736  34.028   4.602
66922W        W38451  22.601   4.799  14.786
66923W        W38452  28.702  43.868  14.297
66924W        W38453  19.115  37.871  13.501
66925W        W38454  25.235   3.139  10.650
66926W        W38455  31.437  38.010   2.851
66927W        W38456  21.169   9.236   4.805
66928W        W38457  43.141  33.496  11.596
66929W        W38458  31.845  17.805   4.651
66930W        W38459  14.727  32.965   1.056
66931W        W38460  16.298  43.445   4.189
66932W        W38461  31.954  16.316  13.031
66933W        W38462  36.413  31.956  10.123
66934W        W38463  41.306   9.710   4.601
66935W        W38464   7.798  12.767  13.545
66936W        W38465  26.646  30.443  12.454
66937W        W38466  28.547   3.455  13.968
66938W        W38467  34.907   7.537   4.519
66939W        W38468  11.131  39.824   3.893
66940W        W38469  31.517  29.907   2.405
66941W        W38470  16.688  22.165   4.161
66942W        W38471  42.874  14.552  10.731
66943W        W38472  10.290  21.059  12.673
66944W        W38473  38.157  16.201   3.231
66945W        W38474  25.577  27.174  13.167
66946W        W38475  34.030  12.116   4.608
66947W        W38476  13.639  15.634   0.881
66948W        W38477  40.035  31.317  14.948
66949W        W38478   3.309  36.917  14.789
66950W        W38479  30.554   4.895   5.102
66951W        W38480   3.470   4.289   1.655
66952W        W38481  17.097  32.028   1.805
66953W        W38482  33.560  40.333  12.273
66954W        W38483  19.255  16.879   3.651
66955W        W38484  22.313  10.091  13.522
66956W        W38485  31.171  29.170  13.463
66957W        W38486  30.394   4.511  14.578
66958W        W38487  20.455  22.624  12.419
66959W        W38488  21.870  31.538   0.272
66960W        W38489  24.148  32.064  10.826
66961W        W38490  29.745  29.975   4.035
66962W        W38491  12.201  21.513   2.412
66963W        W38492  19.079  12.867   4.624
66964W        W38493  33.851  38.487   1.954
66965W        W38494  12.258  27.424   1.255
66966W        W38495  26.192  40.468   1.375
66967W        W38496  24.582  32.247  10.587
66968W        W38497  41.424   2.469  12.885
66969W        W38498  17.232  31.993   3.712
66970W        W38499   3.319  12.398  12.889
66971W        W38500  27.108   8.445   4.311
66972W        W38501  20.096  18.024   4.074
66973W        W38502  25.512  36.242  10.745
66974W        W38503  13.014  29.398  14.367
66975W        W38504  40.183  42.442   4.506
66976W        W38505  34.947   7.033   4.603
66977W        W38506  27.001  31.429   0.392
66978W        W38507  31.524  28.953   0.420
66979W        W38508   1.899  31.048   4.919
66980W        W38509  23.188  20.218  11.537
66981W        W38510  32.100  26.904  10.292
66982W        W38511  18.598   6.593  14.345
66983W        W38512   5.769   6.646   0.841
66984W        W38513   1.866  15.954   0.651
66985W        W38514  33.369  25.456   3.239
66986W        W38515  39.429  36.449  11.522
66987W        W38516  29.031  18.818  12.603
66988W        W38517  10.021   9.826  14.947
66989W        W38518  18.272  38.562  11.186
66990W        W38519  16.205  31.868  13.470
66991W        W38520   4.788   8.666  10.145
66992W        W38521   9.153  41.831  14.337
66993W        W38522   3.964  44.506  14.550
66994W        W38523  39.904  23.780   0.467
66995W        W38524  37.421  33.002  11.267
66996W        W38525  40.918  34.533  14.582
66997W        W38526   8.642   5.159  10.692
66998W        W38527   5.378   1.673  11.799
66999W        W38528  30.648  31.924   4.548
67000W        W38529   1.369  39.049   2.371
67001W        W38530   5.870  34.158  13.581
67002W        W38531  33.127   8.672  11.101
67003W        W38532  13.242  17.056  12.355
67004W        W38533  43.406  20.547   3.768
67005W        W38534   6.770  33.122  14.996
67006W        W38535  31.233  23.753  12.571
67007W        W38536   7.414  33.386   2.189
67008W        W38537  35.051  27.068  11.348
67009W        W38538  31.456  31.983   3.573
67010W        W38539   1.375  29.665  13.500
67011W        W38540  13.545  42.922   2.821
67012W        W38541  16.951  12.559  10.306
67013W        W38542   3.426  30.142   3.743
67014W        W38543   3.714  19.767   3.685
67015W        W38544  29.867  22.487   0.847
67016W        W38545   1.443  44.848   2.746
67017W        W38546  43.979  14.900   1.198
67018W        W38547  10.818  30.059   4.127
67019W        W38548  37.543  28.002  14.352
67020W        W38549  30.684  30.637  11.016
67021W        W38550  29.027  26.216  11.060
67022W        W38551  44.500  22.118  13.001
67023W        W38552   9.607  38.720  12.996
67024W        W38553  20.817  19.765   1.894
67025W        W38554  25.446   1.501  13.176
67026W        W38555   4.467  15.182  13.577
67027W        W38556  39.483  14.728  12.386
67028W        W38557  38.392  29.858  14.894
67029W        W38558   8.248  37.562   0.038
67030W        W38559  36.386  34.619   4.725
67031W        W38560  36.883  39.863  14.463
67032W        W38561  44.297  27.490  12.026
67033W        W38562   5.813   5.281   4.929
67034W        W38563  32.846  31.371  12.934
67035W        W38564  16.052  39.256  10.018
67036W        W38565  19.196  19.042   2.110
67037W        W38566  34.570  31.958   0.350
67038W        W38567   6.952  42.998  12.892
67039W        W38568  17.998  39.072   3.404
67040W        W38569  22.613   9.187   3.633
67041W        W38570  34.610   9.204   2.753
67042W        W38571  10.130  32.060  10.672
67043W        W38572  23.751  32.223   1.699
67044W        W38573  40.715  20.714  12.885
67045W        W38574  37.969  34.657   4.516
67046W        W38575  24.945  26.584   4.060
67047W        W38576  14.939   5.349  11.095
67048W        W38577   3.622  39.262   2.172
67049W        W38578   6.691   1.008  12.757
67050W        W38579   5.715  30.881   3.202
67051W        W38580  16.949   7.865   3.600
67052W        W38581  25.085  27.139  10.678
67053W        W38582  15.591  19.116  11.077
67054W        W38583  10.845   5.258   3.024
67055W        W38584  28.474  11.148  12.734
67056W        W38585  39.317  16.959  12.696
67057W        W38586  14.493  33.816   2.710
67058W        W38587   3.145  42.966   0.454
67059W        W38588  29.186   6.978  11.592
67060W        W38589  18.825  35.814  11.064
67061W        W38590   0.024  44.284  13.242
67062W        W38591  18.363   4.152  10.801
67063W        W38592  28.702  44.908  14.058
67064W        W38593  26.237  37.946   4.216
67065W        W38594  39.223   4.469   3.659
67066W        W38595  13.615  23.659   2.099
67067W        W38596  32.133  14.251   0.814
67068W        W38597  37.209  26.480  14.554
67069W        W38598   4.502  15.572   0.833
67070W        W38599  16.687  23.328   0.401
67071W        W38600  41.842  27.834  10.760
67072W        W38601  12.885  24.607  12.994
67073W        W38602  38.500  40.606  11.013
67074W        W38603  12.396  41.371  13.371
67075W        W38604  15.121   4.271  10.676
67076W        W38605  25.998   9.905   0.485
67077W        W38606  12.957  43.913  14.312
67078W        W38607   6.411  15.739   1.857
67079W        W38608  32.889   9.178   0.423
67080W        W38609  30.882  35.935   0.537
67081W        W38610  36.597  38.802  11.492
67082W        W38611  25.455  35.740   4.936
67083W        W38612  32.828  12.298  11.326
67084W        W38613  24.324  24.920  14.378
67085W        W38614   4.537  40.385   4.214
67086W        W38615  23.817  32.088  13.587
67087W        W38616  35.821  28.136   2.964
67088W        W38617  15.193  10.832  13.384
67089W        W38618  13.128  35.839  12.120
67090W        W38619  42.583  14.353  13.052
67091W        W38620   3.265  28.505   4.167
67092W        W38621   0.926   4.174  13.850
67093W        W38622   8.524  34.844   3.337
67094W        W38623  23.514  13.244  10.759
67095W        W38624  39.391   4.427   1.182
67096W        W38625  14.855  43.258  12.156
67097W        W38626   4.482  10.356   2.346
67098W        W38627  14.764  13.668  14.203
67099W        W38628   2.773  41.464  14.383
67100W        W38629  17.222  22.971  12.507
67101W        W38630   0.820   8.760  12.057
67102W        W38631  24.970  12.777   3.133
67103W        W38632  35.625  12.465   4.137
67104W        W38633  17.269  38.406   1.683
67105W        W38634  26.096   5.461   1.797
67106W        W38635   0.789  24.932  13.524
67107W        W38636  35.152  39.427   4.348
67108W        W38637  21.175   8.296   2.947
67109W        W38638   3.550  32.662  10.977
67110W        W38639  37.483  41.027   4.563
67111W        W38640  34.141  32.937   1.486
67112W        W38641   2.777  39.097   1.478
67113W        W38642  36.857  29.614  11.982
67114W        W38643  34.919  38.354   4.560
67115W        W38644  39.083  35.530   4.586
67116W        W38645   6.488  44.035   3.484
67117W        W38646  13.826   4.849   2.727
67118W        W38647   9.736  32.684  13.108
67119W        W38648   2.768  41.892  10.740
67120W        W38649  30.589   6.303   1.433
67121W        W38650   9.828  10.848  11.399
67122W        W38651   5.669  28.711   0.475
67123W        W38652  30.696   1.429   2.945
67124W        W38653  22.233  19.319   5.017
67125W        W38654  32.042  19.516  13.292
67126W        W38655  14.037   8.774   0.721
67127W        W38656  20.085   0.536  11.706
67128W        W38657   0.478  26.973  14.697
67129W        W38658  12.717  14.223  13.174
67130W        W38659  14.789  32.739  11.906
67131W        W38660  16.149   1.373  11.435
67132W        W38661  10.397  26.662   1.445
67133W        W38662   4.728  13.705   3.377
67134W        W38663  39.236  39.272   4.183
67135W        W38664  12.830  41.935  14.033
67136W        W38665  23.677   0.048   0.831
67137W        W38666  42.285  35.128  13.462
67138W        W38667   1.473  41.939   4.610
67139W        W38668  29.311   3.012   2.655
67140W        W38669  41.752  41.592   0.423
67141W        W38670   6.746   4.209  12.939
67142W        W38671  12.686  37.784   0.459
67143W        W38672  24.533  12.569   1.585
67144W        W38673  39.303  41.643   0.921
67145W        W38674  12.746  34.566  11.562
67146W        W38675  14.719  30.072   1.484
67147W        W38676  11.759  36.183  12.628
67148W        W38677  35.364  30.680  10.727
67149W        W38678  36.564  29.000   3.671
67150W        W38679  23.045   2.878   2.946
67151W        W38680  28.516  26.420  12.107
67152W        W38681  10.633  32.683   0.082
67153W        W38682  33.608   2.032  14.348
67154W        W38683  21.632  12.781  11.703
67155W        W38684  33.544  26.611   1.194
67156W        W38685  26.985  30.000   3.762
67157W        W38686  36.504   9.873   0.345
67158W        W38687  43.946  18.010   2.822
67159W        W38688   0.029  41.428  13.629
67160W        W38689  36.582  30.485   1.267
67161W        W38690  42.269  12.428   4.365
67162W        W38691   6.712  38.801  11.208
67163W        W38692  24.029  26.107   3.770
67164W        W38693   3.929  25.090   4.242
67165W        W38694   7.730  32.465   2.380
67166W        W38695  20.793  21.156   4.176
67167W        W38696  21.204  26.394  13.559
67168W        W38697  32.008   4.572   2.646
67169W        W38698  22.811  43.541   4.477
67170W        W38699  28.145  37.543   4.048
67171W        W38700   2.392  26.609  11.165
67172W        W38701  32.853  12.352   3.195
67173W        W38702  42.019   9.558  11.460
67174W        W38703  44.331   3.232  12.438
67175W        W38704   5.380  29.179  11.212
67176W        W38705  13.168  10.729   4.522
67177W        W38706  27.013  24.598   0.355
67178W        W38707  11.227  21.291   4.272
67179W        W38708  25.244   9.986  10.672
67180W        W38709   3.993   0.133  13.013
67181W        W38710  16.682  33.055  12.177
67182W        W38711   5.824  41.838   3.277
67183W        W38712  27.072  26.194  12.572
67184W        W38713  15.705  22.292  14.888
67185W        W38714  33.865  39.074   2.841
67186W        W38715   3.602  22.721   2.579
67187W        W38716  12.710  35.072   4.052
67188W        W38717  18.212  20.594   3.800
67189W        W38718  12.130   1.886   1.534
67190W        W38719  33.776   4.859   4.666
67191W        W38720  20.857  37.888   9.723
67192W        W38721  37.075  23.045  10.700
67193W        W38722   4.719   4.347   3.215
67194W        W38723  27.556  40.360   1.755
67195W        W38724  43.823   9.232   0.916
67196W        W38725  34.311  27.903  12.528
67197W        W38726   9.850  10.445  12.354
67198W        W38727   8.130  29.830   0.870
67199W        W38728   4.404  39.002  13.339
67200W        W38729  12.724  27.643   1.336
67201W        W38730  31.334   7.793  10.768
67202W        W38731  16.187  22.528   1.699
67203W        W38732  24.831  33.954   0.519
67204W        W38733  13.305  44.696   0.003
67205W        W38734  34.997   4.273   3.303
67206W        W38735   9.958  14.904   4.625
67207W        W38736  21.075  37.817   2.792
67208W        W38737  12.220   3.779  13.905
67209W        W38738   4.603  37.452   1.366
67210W        W38739  38.258  20.025   3.917
67211W        W38740  31.831   0.397   2.577
67212W        W38741   9.741   0.270   1.787
67213W        W38742   0.048  27.089  13.541
67214W        W38743  37.348  42.407  13.069
67215W        W38744  10.960  14.107  13.326
67216W        W38745  12.938  20.499  11.742
67217W        W38746  34.683  20.230  14.879
67218W        W38747  21.495  35.596   1.509
67219W        W38748   5.336   9.809   2.793
67220W        W38749  13.593  44.297   0.312
67221W        W38750  43.758  16.246   2.236
67222W        W38751  26.507   1.755   1.925
67223W        W38752  41.828  26.462  10.331
67224W        W38753   6.481   9.796  13.835
67225W        W38754  40.529  40.005  14.292
67226W        W38755  17.254  36.562  12.058
67227W        W38756   7.196   3.986   3.640
67228W        W38757   6.348   2.121   2.121
67229W        W38758  25.062  21.062  13.859
67230W        W38759  33.055   5.319  12.038
67231W        W38760  37.119  34.488   4.180
67232W        W38761   5.413  26.898   0.389
67233W        W38762   9.672  11.204  12.843
67234W        W38763  37.130   8.975   3.889
67235W        W38764  37.952  18.566   3.333
67236W        W38765   5.252   8.349  14.432
67237W        W38766  30.073  28.430   2.501
67238W        W38767  17.058  31.325   4.250
67239W        W38768  28.225  18.803  11.552
67240W        W38769  24.294  27.705   0.097
67241W        W38770  42.755  43.113  10.663
67242W        W38771   5.938  25.748  14.043
67243W        W38772  33.705  22.832  14.320
67244W        W38773  14.683  13.364  11.142
67245W        W38774  27.462  13.666   2.629
67246W        W38775  33.090  16.037   0.009
67247W        W38776  26.401   4.354  12.430
67248W        W38777  16.650  22.877   9.757
67249W        W38778  41.025  26.181   3.835
67250W        W38779  10.311  18.321   1.682
67251W        W38780  27.865  35.862   4.165
67252W        W38781  41.347  35.329   1.145
67253W        W38782   4.514  32.634   3.617
67254W        W38783   6.389  20.100  12.846
67255W        W38784  32.717  30.891   0.847
67256W        W38785   8.331  12.826  10.995
67257W        W38786   5.891  24.436  11.088
67258W        W38787   7.284  24.655   4.369
67259W        W38788  13.297  25.751   1.283
67260W        W38789   4.215  42.830   0.395
67261W        W38790   1.833   6.508   0.291
67262W        W38791  15.715   2.752  10.636
67263W        W38792   3.313   1.968   1.867
67264W        W38793  32.620  21.065  13.954
67265W        W38794  39.071   0.246   3.374
67266W        W38795  30.425  15.049   1.823
67267W        W38796  19.775   6.607  10.756
67268W        W38797   8.275   3.299  13.953
67269W        W38798  21.860  30.071   4.861
67270W        W38799   8.139  13.240   1.195
67271W        W38800   1.578  40.461  12.291
67272W        W38801  40.322  40.881  12.018
67273W        W38802  40.346  39.042  14.713
67274W        W38803  38.376  30.584  11.831
67275W        W38804  44.539  24.392   2.654
67276W        W38805  41.075  34.662   3.187
67277W        W38806   3.419   0.966  12.385
67278W        W38807  16.205   2.959  10.528
67279W        W38808  44.369   2.829  13.442
67280W        W38809  12.101  17.607   4.598
67281W        W38810  35.155  42.306  12.452
67282W        W38811  34.771  17.051   1.190
67283W        W38812  21.495   5.768   3.774
67284W        W38813  36.851  36.835   0.707
67285W        W38814  36.566  44.492   1.966
67286W        W38815  32.020  17.559   0.486
67287W        W38816  27.514  24.107   3.191
67288W        W38817  20.549  42.819   2.786
67289W        W38818   5.854   1.287  11.561
67290W        W38819   2.854  35.550  12.920
67291W        W38820  25.961  33.072   3.822
67292W        W38821  14.131  23.667  10.500
67293W        W38822  14.792   9.477   3.200
67294W        W38823  19.782  27.949   2.865
67295W        W38824  39.333  22.680  13.752
67296W        W38825  36.411  34.605  14.518
67297W        W38826  42.259  27.618   1.949
67298W        W38827  22.955  21.561  11.585
67299W        W38828  16.803  12.284   1.269
67300W        W38829  17.530  44.603  13.475
67301W        W38830  35.559  38.554   1.198
67302W        W38831  11.643  40.070   4.202
67303W        W38832  15.509  31.036  14.027
67304W        W38833  29.767  26.434   2.764
67305W        W38834  36.583  24.187  12.280
67306W        W38835  28.224   1.975  13.335
67307W        W38836  37.882  24.657  10.669
67308W        W38837  35.562  10.087  14.340
67309W        W38838  42.987  36.737  14.264
67310W        W38839  29.306   6.256  13.800
67311W        W38840   7.758   1.515  13.044
67312W        W38841  22.739  38.343   3.302
67313W        W38842  41.427  37.342   1.406
67314W        W38843  37.993  10.925   0.298
67315W        W38844   8.375  20.382   2.910
67316W        W38845   6.408  17.069   4.988
67317W        W38846  26.689  33.027   2.617
67318W        W38847  30.728   4.718  12.895
67319W        W38848  23.177  16.324   2.575
67320W        W38849   2.637   0.222  12.875
67321W        W38850  36.029  39.881   0.024
67322W        W38851  28.496   2.250  10.509
67323W        W38852  39.101  27.496   4.007
67324W        W38853  12.313  26.273  14.415
67325W        W38854  34.642   9.332  13.534
67326W        W38855  41.236  42.717   1.369
67327W        W38856  36.969  16.682  14.508
67328W        W38857  36.041  13.030  12.814
67329W        W38858   4.777  40.766  12.565
67330W        W38859  37.473  23.697   3.828
67331W        W38860  19.762  42.534  12.035
67332W        W38861  27.540  22.975   2.439
67333W        W38862  21.486  14.219  14.787
67334W        W38863   9.384  17.608  12.863
67335W        W38864  13.094   7.790  13.328
67336W        W38865  37.634  34.124   3.245
67337W        W38866  21.222  21.578   0.900
67338W        W38867  30.000  19.325   2.870
67339W        W38868  30.068  19.640  12.079
67340W        W38869  42.197  25.078  14.520
67341W        W38870  28.884  11.429  11.528
67342W        W38871  17.579  34.653  10.594
67343W        W38872  26.477  26.757  11.256
67344W        W38873   8.205  19.093   3.211
67345W        W38874  33.566  25.173   1.011
67346W        W38875   2.958  41.541  11.237
67347W        W38876  33.103  41.878   4.775
67348W        W38877  12.253  30.921  10.488
67349W        W38878   9.926  16.819   4.522
67350W        W38879   5.204  41.992   0.718
67351W        W38880   6.289  20.721  11.730
67352W        W38881  24.517  44.566  10.946
67353W        W38882  32.434  30.583   4.539
67354W        W38883   0.300  21.268  11.093
67355W        W38884  37.092  17.930  13.452
67356W        W38885  29.929  20.119   4.127
67357W        W38886  12.448  28.572  11.041
67358W        W38887  31.984  17.764  11.576
67359W        W38888  17.395  39.609   0.381
67360W        W38889  21.319  37.977   3.215
67361W        W38890  41.772  17.650  12.848
67362W        W38891  27.421  23.422  13.369
67363W        W38892  37.697   9.976  12.970
67364W        W38893  43.795   9.242  10.692
67365W        W38894  43.647  13.204   3.763
67366W        W38895  19.330  14.894   4.761
67367W        W38896  22.629  33.422  10.529
67368W        W38897  39.065  40.803   2.425
67369W        W38898  37.631  29.825  11.610
67370W        W38899   5.833  27.614   0.002
67371W        W38900  31.139   7.906   3.248
67372W        W38901  20.173   4.654  10.611
67373W        W38902  15.540  41.923   4.001
67374W        W38903  15.070  11.680   4.120
67375W        W38904  42.191  33.482   5.169
67376W        W38905   2.308  38.372   3.092
67377W        W38906   7.071  11.297   1.453
67378W        W38907   9.726  19.146   3.524
67379W        W38908  22.231  11.623  12.147
67380W        W38909  28.198  44.003  14.378
67381W        W38910  43.320  34.454  11.739
67382W        W38911  28.955  41.389   2.396
67383W        W38912   5.850  38.946   2.475
67384W        W38913  42.750  22.118  11.196
67385W        W38914  16.473  39.479   0.547
67386W        W38915  17.990  23.606   2.769
67387W        W38916   9.898  14.215  12.427
67388W        W38917   2.670  39.377   3.190
67389W        W38918  12.079  40.375   4.892
67390W        W38919  37.859  33.450  12.695
67391W        W38920  21.573   7.288  10.463
67392W        W38921  29.923  41.492   2.708
67393W        W38922   8.127   5.642   3.011
67394W        W38923  28.298  37.974  12.081
67395W        W38924   7.438  35.176  11.601
67396W        W38925  44.259   4.284  10.566
67397W        W38926   3.895  19.105  13.503
67398W        W38927  15.256  35.270  14.868
67399W        W38928  10.312  29.143   0.994
67400W        W38929  43.360  14.048  11.914
67401W        W38930   6.411  28.049  13.802
67402W        W38931  18.117   1.865   0.041
67403W        W38932  41.350  16.791   1.901
67404W        W38933  33.471  25.923  14.340
67405W        W38934  41.898  13.703   0.403
67406W        W38935  40.578  42.280   1.677
67407W        W38936  25.203   7.356   0.388
67408W        W38937   3.734  18.688  13.269
67409W        W38938  13.920   9.420  14.755
67410W        W38939  12.534  16.325  10.670
67411W        W38940  30.085  22.831  12.547
67412W        W38941  20.521   8.613   0.702
67413W        W38942  15.742  42.576  11.450
67414W        W38943  23.664  20.651  12.592
67415W        W38944   0.086  17.467  11.336
67416W        W38945  13.695  14.723  11.370
67417W        W38946  24.413   5.010  11.143
67418W        W38947   9.237  10.761  11.100
67419W        W38948  25.486  15.448   0.980
67420W        W38949  31.299  21.729   1.834
67421W        W38950  33.732  43.154  14.555
67422W        W38951  26.541   2.675   4.190
67423W        W38952  44.068  11.411   4.394
67424W        W38953  14.669   3.660  10.305
67425W        W38954  18.753  19.103  14.317
67426W        W38955  37.936  44.024   3.334
67427W        W38956   3.883  30.126  11.830
67428W        W38957  30.532  17.549   3.107
67429W        W38958  37.886   8.875  13.668
67430W        W38959  19.281  24.409  14.795
67431W        W38960  35.581  12.357  12.687
67432W        W38961  29.226   8.158   3.770
67433W        W38962  24.045  21.528  12.422
67434W        W38963  36.316  44.267   3.811
67435W        W38964  16.128  13.727  10.716
67436W        W38965  26.498  36.145   3.606
67437W        W38966   3.929   7.307   2.701
67438W        W38967  29.095  35.198   2.298
67439W        W38968   2.371   1.016   4.513
67440W        W38969  33.590  41.767  13.484
67441W        W38970  42.754  28.624  13.503
67442W        W38971  17.863   3.006  10.678
67443W        W38972  40.005  39.949   0.297
67444W        W38973   5.389  13.805  14.886
67445W        W38974  41.204  30.158  12.609
67446W        W38975   4.996   9.935  10.287
67447W        W38976  23.051  24.493   0.314
67448W        W38977   9.600  36.862   3.176
67449W        W38978  20.666  20.908   4.635
67450W        W38979  23.102   8.663  11.238
67451W        W38980   6.200  39.440   3.808
67452W        W38981  41.259  43.443   3.722
67453W        W38982  34.015  18.037   3.371
67454W        W38983  27.639  16.916   1.795
67455W        W38984  17.284   8.919   3.826
67456W        W38985  29.941  42.475  12.297
67457W        W38986  44.046  43.905  14.251
67458W        W38987   1.438   7.905   3.901
67459W        W38988  35.602   0.770  11.158
67460W        W38989  13.443   6.875  11.041
67461W        W38990   6.315  26.178  14.066
67462W        W38991   6.442  15.470  13.367
67463W        W38992  37.947   9.191   2.312
67464W        W38993   7.655  26.140   2.375
67465W        W38994   9.474  43.460  12.905
67466W        W38995  44.333  35.333   3.853
67467W        W38996  13.897  38.879  10.692
67468W        W38997   7.871  42.568   1.869
67469W        W38998  31.194  33.958  11.956
67470W        W38999  30.125  10.806   0.840
67471W        W39000  17.151   3.276   2.479
67472W        W39001   5.489  43.470  10.453
67473W        W39002  16.706   9.167   1.433
67474W        W39003   0.009  35.130  12.040
67475W        W39004   6.411   0.737   2.760
67476W        W39005  27.229   1.359   2.399
67477W        W39006  26.396   1.894   4.386
67478W        W39007  19.245  34.341   4.276
67479W        W39008   6.450  10.505   4.717
67480W        W39009  31.184  13.407   1.822
67481W        W39010  30.631  35.471  12.891
67482W        W39011  42.076  40.926   2.003
67483W        W39012   1.652  12.277   3.771
67484W        W39013   1.947  28.392  13.842
67485W        W39014  27.967  12.392   3.275
67486W        W39015  24.151  35.611   4.038
67487W        W39016   7.389  40.995  12.108
67488W        W39017  13.919  17.573   2.370
67489W        W39018  11.282  22.477   3.677
67490W        W39019  32.573   0.512   1.246
67491W        W39020   0.796   9.358  11.628
67492W        W39021  17.683   0.023   2.349
67493W        W39022   0.415   4.194  12.368
67494W        W39023  40.041  18.610  14.725
67495W        W39024  15.801  42.785  13.273
67496W        W39025  44.358  15.569   5.065
67497W        W39026  16.766  20.115  11.881
67498W        W39027   0.550   6.880  10.715
67499W        W39028   6.491  28.383   1.994
67500W        W39029   0.683  17.225   1.119
67501W        W39030  21.833  35.828   4.762
67502W        W39031   9.337  14.312   1.823
67503W        W39032  32.180  39.784  12.710
67504W        W39033  31.854  27.170   5.043
67505W        W39034  35.509  33.498   3.140
67506W        W39035  20.473  41.544  11.130
67507W        W39036  21.897   0.962  12.531
67508W        W39037   5.748  36.065   0.964
67509W        W39038   9.078   1.485   4.990
67510W        W39039  20.257  18.651   2.819
67511W        W39040   8.556  30.038   0.312
67512W        W39041  13.648   4.397  12.428
67513W        W39042   0.746  20.232  11.747
67514W        W39043  42.339   0.049  11.556
67515W        W39044  25.181  40.070  11.132
67516W        W39045  22.284  31.603   4.142
67517W        W39046   5.903   9.669   3.638
67518W        W39047   6.795  30.141   4.379
67519W        W39048  37.130  29.358   0.277
67520W        W39049  21.119  24.576  11.162
67521W        W39050  15.540  23.015  12.462
67522W        W39051  13.728  35.121   1.387
67523W        W39052  27.214   0.290  12.847
67524W        W39053  35.432   4.266  14.696
67525W        W39054  12.336  21.012  11.463
67526W        W39055  30.743  18.690  10.656
67527W        W39056   7.369  35.032   3.871
67528W        W39057  41.077   5.569  11.127
67529W        W39058   0.455  29.189  11.488
67530W        W39059  31.671   4.212   4.649
67531W        W39060  36.691  35.141  11.731
67532W        W39061  44.912  20.977  10.934
67533W        W39062   4.848  28.693   2.380
67534W        W39063  13.405   0.413  10.194
67535W        W39064   8.973  27.065  11.484
67536W        W39065  35.522  24.418   3.609
67537W        W39066  20.102  38.033  13.573
67538W        W39067  27.218   0.202   4.182
67539W        W39068  22.753   2.818  12.395
67540W        W39069   7.278   0.788   0.921
67541W        W39070  32.157  37.504  10.808
67542W        W39071  29.077  35.483   1.172
67543W        W39072  10.579  41.477  14.654
67544W        W39073   1.032   8.684   3.276
67545W        W39074  11.913  39.498  14.840
67546W        W39075  40.208  27.988   3.337
67547W        W39076  29.088  15.180  14.301
67548W        W39077  37.276  40.064   0.263
67549W        W39078  38.360  21.832  11.963
67550W        W39079  19.701   9.231  12.448
67551W        W39080  18.060  17.343   0.972
67552W        W39081  27.642  33.895   0.279
67553W        W39082  33.866   5.317   1.244
67554W        W39083  22.503  34.079  11.067
67555W        W39084  37.778  41.833  12.046
67556W        W39085  31.058   2.359  12.062
67557W        W39086  41.541   7.187   1.398
67558W        W39087  14.698  21.016  11.346
67559W        W39088  31.568  31.191   4.192
67560W        W39089  16.498  37.555   0.814
67561W        W39090  19.540  20.192  13.725
67562W        W39091  44.275  17.664  13.830
67563W        W39092  43.387  12.792   9.993
67564W        W39093  28.563  41.847   2.731
67565W        W39094  34.292  15.721   1.757
67566W        W39095  13.272   3.700   4.377
67567W        W39096  36.932  44.364   1.016
67568W        W39097  25.504   1.822   2.228
67569W        W39098   1.817  43.025   4.051
67570W        W39099  17.290  11.111   1.688
67571W        W39100   6.192   4.675   2.065
67572W        W39101  42.771  34.050   1.274
67573W        W39102  36.663  28.076   1.336
67574W        W39103  41.554   4.500  11.562
67575W        W39104   7.338  31.590   3.041
67576W        W39105  26.542  30.288  11.444
67577W        W39106  25.154   1.878  14.380
67578W        W39107  36.302  19.293  14.912
67579W        W39108  24.960  21.619  11.978
67580W        W39109  39.593  22.330  14.058
67581W        W39110  21.307  22.629  10.524
67582W        W39111  43.920  29.368  11.082
67583W        W39112  29.678  22.187   4.619
67584W        W39113  31.325  13.677  13.847
67585W        W39114  26.044   0.448  13.514
67586W        W39115  33.318   6.084   5.399
67587W        W39116  16.462  15.002   4.914
67588W        W39117  25.048  37.414  10.434
67589W        W39118  40.352  30.940  14.804
67590W        W39119   2.912  38.386   4.254
67591W        W39120  32.428  36.399   4.100
67592W        W39121  42.451  36.825   3.404
67593W        W39122  27.166  41.371  11.719
67594W        W39123  36.986  42.416  13.477
67595W        W39124   3.015   7.800   0.601
67596W        W39125  27.608  44.545  14.015
67597W        W39126  16.784   3.957  14.410
67598W        W39127  15.655   6.714  13.117
67599W        W39128  44.815   9.902  14.910
67600W        W39129  38.803  22.984  13.103
67601W        W39130  37.152  16.900   1.340
67602W        W39131   0.484   3.103  13.799
67603W        W39132   3.819   5.220   1.332
67604W        W39133   4.426  20.415   4.227
67605W        W39134  14.216  14.234   1.449
67606W        W39135  14.701   7.671  12.904
67607W        W39136   7.691  25.141   3.149
67608W        W39137  11.749  21.321   1.288
67609W        W39138  42.435  22.948  13.170
67610W        W39139  15.455  39.515   2.438
67611W        W39140  18.257  22.249  13.505
67612W        W39141  40.596  14.682  14.896
67613W        W39142  35.713  34.622   4.087
67614W        W39143  10.580  44.920  12.472
67615W        W39144  38.764  21.112  13.336
67616W        W39145  26.969  41.173   1.136
67617W        W39146   1.929  34.049   0.345
67618W        W39147   8.102  44.376   2.856
67619W        W39148  15.881  19.549  11.015
67620W        W39149   6.190  20.503   2.698
67621W        W39150  34.613   0.129  11.864
67622W        W39151  13.904  12.696  14.289
67623W        W39152  17.150  40.536   0.473
67624W        W39153  18.339   6.875   4.643
67625W        W39154  19.204  30.913   9.778
67626W        W39155  43.393   3.989  10.834
67627W        W39156   0.442  36.544  12.420
67628W        W39157  36.516   8.241   3.008
67629W        W39158  32.527  14.608   2.979
67630W        W39159  39.513  32.192   4.577
67631W        W39160   7.242  30.527   4.523
67632W        W39161   5.450   0.305   2.659
67633W        W39162   5.184  11.115   3.777
67634W        W39163  30.230  44.530   0.477
67635W        W39164   0.099  42.960   1.382
67636W        W39165  28.899  17.545  13.138
67637W        W39166  34.996   9.998   2.719
67638W        W39167  19.465  20.796  12.356
67639W        W39168  35.055  17.321   5.064
67640W        W39169   1.573  27.777   2.490
67641W        W39170  24.910  12.924  12.860
67642W        W39171  29.858  21.618   2.758
67643W        W39172  36.693  19.205  12.167
67644W        W39173  40.751  20.308   4.192
67645W        W39174   1.337  12.704  11.583
67646W        W39175  43.554  18.437   0.543
67647W        W39176  22.846  40.501  14.992
67648W        W39177  18.559   6.991   1.431
67649W        W39178   3.789  32.516  11.700
67650W        W39179  21.263  33.607   0.887
67651W        W39180  19.181  27.894   1.186
67652W        W39181  25.463  17.073   3.263
67653W        W39182   0.344  36.868  11.532
67654W        W39183  19.968  31.825  14.935
67655W        W39184   4.605  10.259  11.441
67656W        W39185   6.315   1.221  10.742
67657W        W39186  10.404   2.907   0.701
67658W        W39187  31.109  10.136   4.540
67659W        W39188   2.846  40.369  13.198
67660W        W39189  24.445  39.817  11.717
67661W        W39190  39.795  12.646   4.037
67662W        W39191   8.803  16.810   2.919
67663W        W39192  36.939   3.760   1.226
67664W        W39193  39.874  22.055   4.934
67665W        W39194  11.317  29.559   3.660
67666W        W39195  40.343  27.533   2.504
67667W        W39196  16.781  26.433   0.324
67668W        W39197  28.397  31.739   2.145
67669W        W39198  31.755  33.489  11.602
67670W        W39199  16.622   1.876  11.874
67671W        W39200   6.642   9.004   3.162
67672W        W39201  18.041  20.839   2.458
67673W        W39202  28.030  16.183  11.799
67674W        W39203  28.265   9.384   1.012
67675W        W39204   5.953  43.340   0.010
67676W        W39205  39.889  32.859   0.869
67677W        W39206  30.003  38.912  12.042
67678W        W39207   7.577  31.594  13.470
67679W        W39208   6.634  13.552  13.422
67680W        W39209   6.430  13.657   3.806
67681W        W39210  18.224  23.303   0.807
67682W        W39211  14.844   9.141  14.078
67683W        W39212  14.305  12.242  12.552
67684W        W39213  38.356  11.711   0.765
67685W        W39214  23.645  42.482   4.522
67686W        W39215  34.536   2.436  11.676
67687W        W39216  39.273  16.632   0.525
67688W        W39217  15.232   7.178  10.216
67689W        W39218  12.449  17.308  12.934
67690W        W39219  16.332  32.967  10.244
67691W        W39220  33.501  19.255   4.626
67692W        W39221   8.707  23.098  13.506
67693W        W39222  22.040  42.671  12.521
67694W        W39223  14.045  19.137  11.067
67695W        W39224  30.605  19.785  12.885
67696W        W39225  35.900   0.506   2.717
67697W        W39226   6.896  18.177  13.517
67698W        W39227   4.947  13.800  11.166
67699W        W39228  14.378   0.811  12.019
67700W        W39229  42.397  31.901   1.876
67701W        W39230  12.750  41.379  11.451
67702W        W39231  28.025  40.738   3.463
67703W        W39232  30.532  35.379   2.823
67704W        W39233  32.320  37.852  11.583
67705W        W39234   3.356  25.256   1.041
67706W        W39235  40.750  17.343  12.493
67707W        W39236  41.467   8.413   1.290
67708W        W39237  36.144  12.086  14.374
67709W        W39238  11.358   3.758   4.543
67710W        W39239  41.089  11.835   4.532
67711W        W39240  26.513  31.551   3.762
67712W        W39241  32.885   5.889   3.759
67713W        W39242  27.089  12.286  13.147
67714W        W39243  35.745  24.691  11.178
67715W        W39244  13.704   9.720  12.673
67716W        W39245  38.650  32.162   1.475
67717W        W39246   2.919  13.096  14.325
67718W        W39247  22.936  15.524   3.202
67719W        W39248  10.469  40.910   1.982
67720W        W39249  37.986  16.310   2.730
67721W        W39250  14.769  23.164   3.283
67722W        W39251  20.949  16.885   3.200
67723W        W39252  20.264  24.953   0.279
67724W        W39253  30.185   9.133  11.181
67725W        W39254  24.997  33.997  10.752
67726W        W39255  27.091   5.714  11.158
67727W        W39256  28.140   9.868  11.834
67728W        W39257  36.833  40.613  13.944
67729W        W39258  29.596  39.670   2.064
67730W        W39259  26.709  15.175   1.367
67731W        W39260   6.968  29.494  10.915
67732W        W39261   4.692  14.911  13.004
67733W        W39262  39.800  34.002   4.196
67734W        W39263   5.361   0.375   3.624
67735W        W39264  20.232  35.869   3.224
67736W        W39265  23.659  37.451  11.551
67737W        W39266  44.996  28.024   4.414
67738W        W39267   8.336  25.292  11.447
67739W        W39268   1.551  24.338   2.015
67740W        W39269  44.852  42.408   0.386
67741W        W39270  13.790  17.199   3.168
67742W        W39271   8.356  20.924   0.438
67743W        W39272   5.174  23.523   4.127
67744W        W39273  16.960  30.398   2.795
67745W        W39274  41.691  27.889   1.737
67746W        W39275  10.161  27.067  12.978
67747W        W39276  37.580  32.838   3.543
67748W        W39277  10.068   4.762   1.419
67749W        W39278  39.659  16.923   2.293
67750W        W39279  36.839  27.641  13.987
67751W        W39280  34.557  24.723   3.376
67752W        W39281  20.343  34.507  14.279
67753W        W39282  13.314  18.727  10.790
67754W        W39283   9.134  38.344  13.801
67755W        W39284  31.718  16.232   4.702
67756W        W39285  38.479  26.236   2.396
67757W        W39286  44.951  36.398  12.436
67758W        W39287  13.589  37.008  13.371
67759W        W39288  24.306   4.655  12.938
67760W        W39289  19.391  15.886  11.590
67761W        W39290   4.765  18.136   1.839
67762W        W39291  10.897  14.170  10.683
67763W        W39292  30.383  31.344  12.883
67764W        W39293  27.183  18.212  14.268
67765W        W39294  30.457  41.432   3.548
67766W        W39295   0.342  16.258  12.458
67767W        W39296  17.728   0.778   1.331
67768W        W39297   7.947  15.399   1.752
67769W        W39298  19.790  20.627  13.440
67770W        W39299  25.616  44.737  10.946
67771W        W39300  38.988  32.579   1.458
67772W        W39301   7.877  13.208   0.295
67773W        W39302  41.081  32.078   9.916
67774W        W39303  38.044  34.771  13.539
67775W        W39304  19.153   3.768   1.735
67776W        W39305  15.941  17.599   0.239
67777W        W39306  39.117   5.976   4.067
67778W        W39307   1.737   5.720   2.694
67779W        W39308  30.701  41.582   5.102
67780W        W39309  11.123  17.349   1.226
67781W        W39310  35.412  33.277   2.199
67782W        W39311  39.151  41.354   4.059
67783W        W39312  35.376  41.804   3.630
67784W        W39313   5.344  31.703   1.689
67785W        W39314  33.498  35.193  12.478
67786W        W39315  24.115   6.990  12.522
67787W        W39316   1.865  31.903   0.307
67788W        W39317  13.071   2.071  13.524
67789W        W39318  32.895  17.683  13.920
67790W        W39319  12.588  29.443  10.769
67791W        W39320  33.630  30.048  11.929
67792W        W39321  10.417  41.538  10.320
67793W        W39322   1.806   3.385   3.714
67794W        W39323  32.096   5.281   0.788
67795W        W39324  41.916  20.008  10.783
67796W        W39325  34.643  26.496  13.052
67797W        W39326  36.409  15.250   3.302
67798W        W39327  17.242  22.814  13.953
67799W        W39328  40.396  18.804   4.380
67800W        W39329  14.120  20.297   3.697
67801W        W39330  32.856  41.080   0.189
67802W        W39331  26.991  28.313  14.870
67803W        W39332  42.190  21.097   0.501
67804W        W39333  32.372  37.037   0.810
67805W        W39334  13.557  44.034  11.325
67806W        W39335  38.572  43.211   2.948
67807W        W39336   3.235  10.109  12.040
67808W        W39337  19.237  13.814   4.273
67809W        W39338  30.464  36.520  14.778
67810W        W39339  39.905  12.829   3.164
67811W        W39340  25.022  24.206   2.598
67812W        W39341   6.690  35.854  13.542
67813W        W39342  20.272   7.956   2.436
67814W        W39343  10.036   8.375  12.178
67815W        W39344  13.873  16.781   2.741
67816W        W39345  12.094  29.701   2.755
67817W        W39346  43.106  38.751  14.567
67818W        W39347  14.652  23.563  12.613
67819W        W39348  20.052  37.572   5.052
67820W        W39349  37.098  22.628   3.356
67821W        W39350  44.034  18.156  12.116
67822W        W39351   9.250  18.116   1.773
67823W        W39352   5.530  34.630   1.829
67824W        W39353  31.028   5.507  13.446
67825W        W39354  34.022  30.646  11.046
67826W        W39355  24.228  24.677   2.710
67827W        W39356  24.168  15.686  13.993
67828W        W39357  15.460  41.458   3.629
67829W        W39358  12.636  12.762   1.697
67830W        W39359  33.922   6.367  12.810
67831W        W39360   6.411  43.215  12.413
67832W        W39361   3.453  43.125  12.540
67833W        W39362  34.630  16.146   2.642
67834W        W39363  18.583   1.524   4.668
67835W        W39364  44.739  22.659  10.351
67836W        W39365   9.506  35.998   2.701
67837W        W39366  18.234  26.707   0.337
67838W        W39367  18.179  24.774  11.427
67839W        W39368  33.826  23.427  10.744
67840W        W39369  34.172  41.664  11.927
67841W        W39370  17.631  16.698  14.091
67842W        W39371  29.964   7.893  14.485
67843W        W39372  33.800   4.656   0.285
67844W        W39373   9.931  20.647   2.778
67845W        W39374  16.645  18.149  13.895
67846W        W39375  19.205  42.214  13.855
67847W        W39376  18.304  30.625  11.642
67848W        W39377  39.992   7.828  10.768
67849W        W39378   4.162  30.621   1.218
67850W        W39379  34.498  13.648   0.820
67851W        W39380  29.069  34.048   1.273
67852W        W39381   2.797  23.445  11.151
67853W        W39382  31.045  42.104  11.722
67854W        W39383  18.790  14.544   1.809
67855W        W39384  21.009   3.832   1.015
67856W        W39385   1.716   3.275  13.447
67857W        W39386  26.075   2.956  10.984
67858W        W39387  34.598   2.172   3.154
67859W        W39388  43.942  27.523   3.639
67860W        W39389  24.586  33.157   0.417
67861W        W39390   2.671  10.315   0.509
67862W        W39391  25.887   8.546  12.537
67863W        W39392  36.053   9.817   4.105
67864W        W39393   4.157   2.247  10.730
67865W        W39394  34.955   1.968  14.571
67866W        W39395  19.636  39.093  12.997
67867W        W39396   8.134  34.920  14.053
67868W        W39397  13.277  34.659  12.446
67869W        W39398  38.366  22.859   0.814
67870W        W39399  30.152  36.718   2.473
67871W        W39400  15.000  27.860  11.375
67872W        W39401  14.196   1.956  14.539
67873W        W39402  25.297  15.726  13.994
67874W        W39403  19.503  34.079   0.846
67875W        W39404   4.362   8.425  10.343
67876W        W39405  26.980   1.395  14.954
67877W        W39406  28.530  31.856  14.139
67878W        W39407   3.451  19.654   4.116
67879W        W39408  28.995  44.248   0.851
67880W        W39409  29.453   7.789  14.713
67881W        W39410  12.207  13.394   0.155
67882W        W39411   5.252   9.893  12.515
67883W        W39412  42.056  41.536   0.837
67884W        W39413  44.306  39.390   3.792
67885W        W39414  16.281  34.860  13.411
67886W        W39415  42.943  36.458   4.524
67887W        W39416  29.419  35.439   4.356
67888W        W39417  22.475  28.002  11.000
67889W        W39418  22.222  35.595   2.658
67890W        W39419  20.734  27.539   3.416
67891W        W39420  31.639  12.543  12.045
67892W        W39421  14.820  29.240   2.951
67893W        W39422  44.403  44.640  14.944
67894W        W39423  29.720   9.754  13.477
67895W        W39424  24.991  12.169   3.566
67896W        W39425   5.184  15.065   2.239
67897W        W39426  41.235  33.210  14.371
67898W        W39427  24.776  30.243   1.455
67899W        W39428  13.400  21.259   4.996
67900W        W39429  19.308  12.927   0.493
67901W        W39430  25.143  16.278   1.451
67902W        W39431  41.555  23.634  13.835
67903W        W39432  18.012  13.695  12.167
67904W        W39433   1.383  26.719   3.780
67905W        W39434  43.522   3.345   1.367
67906W        W39435  17.148  15.712  12.919
67907W        W39436  31.473  42.042  12.013
67908W        W39437  32.999  17.230   2.148
67909W        W39438  37.584  29.070   0.294
67910W        W39439   6.792  13.303   4.857
67911W        W39440  34.055  35.524   1.322
67912W        W39441  14.789  26.153  13.335
67913W        W39442  11.788  43.361  11.193
67914W        W39443  15.045  44.973   3.663
67915W        W39444  25.172  29.080  14.254
67916W        W39445  40.053  21.331  10.950
67917W        W39446  19.502  35.644   1.614
67918W        W39447  13.511  35.468  12.166
67919W        W39448  14.055   8.403  13.858
67920W        W39449  43.860  38.970  11.250
67921W        W39450   3.387  34.097   0.480
67922W        W39451  15.871  26.201   1.802
67923W        W39452  20.188  22.842  12.798
67924W        W39453  43.002  12.854  11.617
67925W        W39454  17.646  30.457   1.517
67926W        W39455   0.810   6.461  13.009
67927W        W39456   0.706  18.176  11.396
67928W        W39457  26.216  40.007  10.958
67929W        W39458  38.827   9.464  11.627
67930W        W39459  44.932   3.800   4.624
67931W        W39460  38.285  40.023   4.226
67932W        W39461  10.880   3.922   4.501
67933W        W39462  41.126  21.287   0.389
67934W        W39463   7.477  40.450  14.411
67935W        W39464  38.783  28.116  14.940
67936W        W39465  14.721  24.744   3.568
67937W        W39466  13.440  21.223   1.323
67938W        W39467   6.060  41.208   0.970
67939W        W39468  27.484  40.952  13.517
67940W        W39469  26.178  34.544  10.704
67941W        W39470  17.712  42.990   2.118
67942W        W39471  28.951  12.578  13.936
67943W        W39472  19.789  19.452  13.261
67944W        W39473  27.254  17.302   4.548
67945W        W39474  42.005  21.573   3.754
67946W        W39475  32.372  10.044  12.492
67947W        W39476   3.290  28.042  12.072
67948W        W39477  38.933  18.735  11.653
67949W        W39478  25.133   9.725   4.606
67950W        W39479  32.220  23.639  12.319
67951W        W39480   2.749   3.754   0.844
67952W        W39481  15.574   0.847   3.674
67953W        W39482   0.817  31.501  10.275
67954W        W39483  41.055   1.416   1.423
67955W        W39484  13.016  43.971  11.849
67956W        W39485   8.688  35.127  14.742
67957W        W39486   6.750  35.381   3.208
67958W        W39487   8.219  34.771  12.327
67959W        W39488   2.391  11.165  10.834
67960W        W39489  16.839  15.702  10.832
67961W        W39490  23.542   1.053   0.712
67962W        W39491   7.443  41.157  13.875
67963W        W39492  17.476  23.446   2.616
67964W        W39493  26.012  29.077  11.169
67965W        W39494   8.426  23.902   2.296
67966W        W39495  21.178  12.919   3.922
67967W        W39496  38.524  39.570  14.408
67968W        W39497   5.102  43.471   2.143
67969W        W39498  37.220  33.519  11.428
67970W        W39499  44.994   2.163   2.734
67971W        W39500   6.723  11.672  11.057
67972W        W39501  16.586   0.772   3.691
67973W        W39502  33.637   4.429   4.382
67974W        W39503  41.197   7.208   0.379
67975W        W39504  34.480  43.691   0.500
67976W        W39505  18.310  28.664  12.569
67977W        W39506   1.005   0.047   1.435
67978W        W39507  31.165  36.879   2.085
67979W        W39508  38.662  17.061  14.344
67980W        W39509  38.500   9.249   4.324
67981W        W39510  19.090  38.838  11.105
67982W        W39511  24.009  13.323   0.473
67983W        W39512   1.814  21.652   4.566
67984W        W39513  38.245  26.986  11.119
67985W        W39514  34.377  43.856  11.668
67986W        W39515   5.306  20.516   3.394
67987W        W39516  34.397   2.995   1.230
67988W        W39517  20.615  31.091   4.271
67989W        W39518  22.302  14.551   0.492
67990W        W39519  19.322   0.223   1.648
67991W        W39520  26.216  11.236  14.618
67992W        W39521  13.642   8.740   1.896
67993W        W39522  10.865  10.331  11.643
67994W        W39523  17.783  14.119  11.038
67995W        W39524   6.938   0.541  14.343
67996W        W39525   4.305  11.862  11.243
67997W        W39526   0.828  34.703  13.410
67998W        W39527  15.304   0.834   0.903
67999W        W39528  37.135  19.086  13.915
68000W        W39529  42.062  44.056  11.579
68001W        W39530  27.608  29.168  14.462
68002W        W39531  36.952  36.117   3.526
68003W        W39532  16.071   1.723   3.106
68004W        W39533  23.240  42.738  10.799
68005W        W39534  23.459  38.014   4.755
68006W        W39535  18.991  40.994   1.136
68007W        W39536  37.069  14.884  11.540
68008W        W39537  14.633   7.666   3.634
68009W        W39538   2.937   8.187   2.474
68010W        W39539  15.989  26.948  10.369
68011W        W39540  12.708  21.765  12.362
68012W        W39541  31.176  35.553  10.311
68013W        W39542  20.179  27.034  11.378
68014W        W39543  27.822  12.044  10.561
68015W        W39544  17.942  34.572  11.522
68016W        W39545  16.487  33.379  14.957
68017W        W39546  38.349   7.719   0.730
68018W        W39547  21.437  20.373  11.540
68019W        W39548  43.750   4.897   3.172
68020W        W39549   7.713   1.086  11.894
68021W        W39550  36.702  35.823   3.205
68022W        W39551  38.930  12.679  10.197
68023W        W39552  15.131  24.388  14.316
68024W        W39553  39.308   4.757  11.556
68025W        W39554  32.491  28.858  13.597
68026W        W39555  22.533  14.052   4.129
68027W        W39556   1.877  14.158   0.995
68028W        W39557  27.984  18.015  13.310
68029W        W39558  28.447   2.061   2.073
68030W        W39559   3.699  30.018  10.860
68031W        W39560  38.980  26.898  12.425
68032W        W39561  12.098   7.408   4.282
68033W        W39562  42.919   8.218   4.354
68034W        W39563  14.844  18.095  14.285
68035W        W39564   1.460  35.366   3.568
68036W        W39565  40.047  33.787  10.389
68037W        W39566   8.079  44.398   3.764
68038W        W39567  23.680   1.395   2.222
68039W        W39568  16.557  29.346  14.302
68040W        W39569  33.468   7.789  13.136
68041W        W39570  36.742  37.599  13.213
68042W        W39571  15.718  28.947   4.438
68043W        W39572  23.158  14.573  13.465
68044W        W39573  15.834  32.695  13.481
68045W        W39574   9.162  14.058   1.364
68046W        W39575  35.788  24.991   0.929
68047W        W39576  29.319  29.169   4.140
68048W        W39577  31.530  16.670  11.857
68049W        W39578   9.014  15.781   4.711
68050W        W39579  22.918  32.093   3.138
68051W        W39580   2.171  44.106   5.175
68052W        W39581  39.557  38.291  13.947
68053W        W39582  18.505  26.126  13.116
68054W        W39583   1.305  42.052  14.008
68055W        W39584   4.077  24.980   2.860
68056W        W39585   9.672  38.536  11.687
68057W        W39586  26.499  41.413  14.933
68058W        W39587   8.480  16.231   5.011
68059W        W39588  10.723   9.778  13.578
68060W        W39589  35.407   4.556   0.129
68061W        W39590   6.892  24.983   2.676
68062W        W39591   5.181   8.799   2.818
68063W        W39592  18.907  30.661   3.090
68064W        W39593  38.113  23.308   4.803
68065W        W39594  36.129  33.670  14.088
68066W        W39595   3.725  10.884   0.812
68067W        W39596  39.960  26.776   3.914
68068W        W39597  23.633   0.483   3.849
68069W        W39598  36.531   3.462  10.331
68070W        W39599  36.682  24.706  14.919
68071W        W39600  22.919  40.239   4.564
68072W        W39601  24.072  16.779   4.104
68073W        W39602  31.161  19.361   3.196
68074W        W39603  16.645  19.584  10.629
68075W        W39604   0.230  21.245   1.823
68076W        W39605  13.545  25.076  12.106
68077W        W39606  33.029  30.466  13.949
68078W        W39607   5.089  43.843   0.387
68079W        W39608  28.433  38.909   2.844
68080W        W39609   9.558  14.631  11.205
68081W        W39610  13.687  16.660   0.934
68082W        W39611  32.881  26.751  13.077
68083W        W39612  22.202  41.007   2.903
68084W        W39613   5.743  26.818   2.122
68085W        W39614  30.623  25.574   4.145
68086W        W39615  42.749  43.370   3.308
68087W        W39616  40.487  24.110   3.662
68088W        W39617   2.600  41.925  11.243
68089W        W39618  11.592  37.668  13.800
68090W        W39619  13.857  35.499  13.420
68091W        W39620   3.581  41.979   4.565
68092W        W39621  26.687  24.526  13.323
68093W        W39622  30.498   1.914   2.722
68094W        W39623   3.800  27.556  12.670
68095W        W39624  30.911  17.455  12.931
68096W        W39625   2.479  10.171   4.261
68097W        W39626   8.800  42.249  14.427
68098W        W39627  20.138  38.954   0.015
68099W        W39628  27.973  14.782  14.120
68100W        W39629   2.714  16.510  14.713
68101W        W39630  14.685  26.843  13.957
68102W        W39631  12.404  39.975   4.693
68103W        W39632   9.258  18.888   0.439
68104W        W39633  18.665  28.149  14.977
68105W        W39634   8.441  10.309  11.180
68106W        W39635  21.432  43.846  14.372
68107W        W39636  32.152  36.844   2.649
68108W        W39637  18.287  38.954  12.651
68109W        W39638  21.545  39.909   0.524
68110W        W39639  16.038  41.806  11.874
68111W        W39640  22.849  37.269  14.402
68112W        W39641   3.504   7.639  11.912
68113W        W39642  20.738  42.049   2.212
68114W        W39643  38.448  28.257  12.117
68115W        W39644  37.583  42.986  14.021
68116W        W39645   9.634   2.797   1.130
68117W        W39646  43.604  38.317  12.002
68118W        W39647   7.339  24.238   4.091
68119W        W39648  17.201  37.819  12.688
68120W        W39649  27.914   8.034  12.982
68121W        W39650  24.516  39.442   0.286
68122W        W39651  38.788  28.128  10.383
68123W        W39652  26.606  39.017  12.889
68124W        W39653  20.577  14.556  12.075
68125W        W39654  29.631  40.318  12.084
68126W        W39655  23.295  21.225   1.369
68127W        W39656  41.423  42.852   0.036
68128W        W39657  17.278  27.078  11.518
68129W        W39658  13.236  25.652  13.288
68130W        W39659  39.033   2.387  11.307
68131W        W39660  35.499  35.076   2.866
68132W        W39661  25.308  44.524   1.656
68133W        W39662  39.150  12.622   0.325
68134W        W39663  33.522   0.383  11.709
68135W        W39664  37.885   7.686  13.552
68136W        W39665   9.732   8.141  12.537
68137W        W39666  22.962  36.175   3.440
68138W        W39667   1.889   7.591   1.937
68139W        W39668  14.310  31.110   4.120
68140W        W39669  31.971  37.287   2.477
68141W        W39670  28.593  30.856   3.261
68142W        W39671  33.243   1.654  13.639
68143W        W39672  24.065  32.457   0.279
68144W        W39673  13.523  26.566   2.885
68145W        W39674  10.585  13.283   2.476
68146W        W39675  10.680  29.456  12.444
68147W        W39676  22.439  31.066  13.033
68148W        W39677  12.933   6.266   1.775
68149W        W39678   3.435   9.183  14.790
68150W        W39679   5.254  40.564   3.722
68151W        W39680  43.947  42.546  14.997
68152W        W39681  11.402  24.021  11.071
68153W        W39682   9.093  22.788   4.517
68154W        W39683  31.089   4.812   4.187
68155W        W39684  26.452  31.540  13.757
68156W        W39685  36.994  40.905  11.029
68157W        W39686  12.615   1.750  13.369
68158W        W39687  44.784  27.945  10.531
68159W        W39688  10.566  30.929   4.427
68160W        W39689   6.784  35.255  14.433
68161W        W39690  37.116  43.909   0.804
68162W        W39691  40.883  14.131  13.991
68163W        W39692  16.013  33.495   4.359
68164W        W39693  31.580  37.596  14.249
68165W        W39694   0.600  32.299   1.240
68166W        W39695  38.473  26.081  10.725
68167W        W39696  34.191   6.063  10.634
68168W        W39697  32.033   6.129  14.695
68169W        W39698   7.236  10.117  13.054
68170W        W39699  24.265  22.641  13.534
68171W        W39700  37.929  20.585  13.087
68172W        W39701  29.006  39.297   3.829
68173W        W39702  44.420  43.457  10.718
68174W        W39703  34.550  12.224   2.869
68175W        W39704  38.847  32.015   5.013
68176W        W39705  13.155  13.391  13.490
68177W        W39706  21.095   2.412   4.593
68178W        W39707   9.126   4.235  11.512
68179W        W39708   3.278  40.077   1.981
68180W        W39709   3.220  36.415   1.489
68181W        W39710  33.865  43.050   3.775
68182W        W39711  13.400  21.051  10.623
68183W        W39712  37.559  38.695   2.842
68184W        W39713  37.378  23.477   2.367
68185W        W39714   6.751  44.704   2.651
68186W        W39715  11.877  26.598  12.672
68187W        W39716   8.774  37.067  13.959
68188W        W39717   4.415  37.780   4.648
68189W        W39718  14.784   9.706  13.786
68190W        W39719  42.504   2.485  12.963
68191W        W39720  38.064  42.787   3.332
68192W        W39721  43.906  11.856  10.555
68193W        W39722   7.935  11.717   3.780
68194W        W39723  25.447  11.657  11.140
68195W        W39724   7.501   1.120   3.302
68196W        W39725   1.135  44.729  13.137
68197W        W39726  20.274  10.322  10.227
68198W        W39727  10.564  30.008   4.592
68199W        W39728   0.647  21.565   1.873
68200W        W39729  40.332  44.482   0.279
68201W        W39730   9.826  40.011  13.257
68202W        W39731  21.116  12.893   0.966
68203W        W39732  38.088  34.581   2.273
68204W        W39733  16.071  14.397   0.370
68205W        W39734  40.433  29.056  11.120
68206W        W39735   7.788   7.243  13.572
68207W        W39736  22.706  16.259  10.234
68208W        W39737  24.652  25.494  13.170
68209W        W39738  28.508  29.773  11.599
68210W        W39739  23.556  20.534   3.248
68211W        W39740  16.701  34.438   0.805
68212W        W39741  31.502  23.602  13.946
68213W        W39742  31.973  31.644   2.279
68214W        W39743   3.171  23.567   0.813
68215W        W39744   5.398  33.442  11.259
68216W        W39745   5.337  19.070  11.085
68217W        W39746  32.256  38.514  12.163
68218W        W39747  22.238  42.794   4.593
68219W        W39748  38.048  30.519   2.715
68220W        W39749  35.969  33.968   3.556
68221W        W39750  13.301   9.578  13.520
68222W        W39751  31.855  42.548  13.357
68223W        W39752  12.574   0.313  11.974
68224W        W39753   9.821  39.632  12.891
68225W        W39754  17.626  23.026   3.374
68226W        W39755  12.389  14.804   3.235
68227W        W39756  35.955  31.194   2.876
68228W        W39757  16.146  25.331  10.519
68229W        W39758   6.985  35.968  10.766
68230W        W39759   1.428   7.033   3.667
68231W        W39760  17.577  37.943   4.208
68232W        W39761  22.616   3.171  11.128
68233W        W39762  12.315  18.273   4.876
68234W        W39763  14.303  14.660  10.735
68235W        W39764  32.970  44.775   2.878
68236W        W39765   5.757  30.124   0.836
68237W        W39766  15.675  10.874  14.018
68238W        W39767  22.162  10.321  14.950
68239W        W39768  36.485   4.161   4.728
68240W        W39769  20.673  39.097   2.612
68241W        W39770  11.718  23.762  13.441
68242W        W39771  20.604  35.379  11.916
68243W        W39772  40.783  18.801  10.746
68244W        W39773  13.581   4.273   3.230
68245W        W39774  25.539  36.625   1.203
68246W        W39775   3.859  30.034   3.450
68247W        W39776  43.272  40.828  13.830
68248W        W39777  37.565  31.076   4.048
68249W        W39778   1.795  19.258  14.915
68250W        W39779  15.158  25.737   1.272
68251W        W39780  44.515   0.901  11.152
68252W        W39781   3.226  34.809  14.034
68253W        W39782  44.291  26.072   1.924
68254W        W39783   8.376  17.576   5.044
68255W        W39784  34.666  15.152   0.737
68256W        W39785  28.972  11.107  12.532
68257W        W39786   1.794  29.997   0.333
68258W        W39787  15.252  12.771  10.832
68259W        W39788  44.338  34.948   2.201
68260W        W39789  26.453  13.188   4.228
68261W        W39790   0.997  21.987  12.404
68262W        W39791  34.399  29.758   2.868
68263W        W39792  33.847  16.775   4.960
68264W        W39793  44.073  11.197  12.976
68265W        W39794   5.659  14.075  14.092
68266W        W39795  30.523  36.471   2.221
68267W        W39796  20.499   6.210  11.637
68268W        W39797  19.031  23.533  10.513
68269W        W39798  20.014  38.408  14.820
68270W        W39799  43.539   7.230  14.018
68271W        W39800   3.498  27.174  11.010
68272W        W39801  34.600  24.244   4.563
68273W        W39802  14.594   2.534   0.921
68274W        W39803   6.724  33.751  13.518
68275W        W39804   6.869  37.404  11.943
68276W        W39805  21.650   7.481   1.260
68277W        W39806  42.085  35.577   4.070
68278W        W39807  10.987  19.600  13.814
68279W        W39808  27.713  41.613  13.086
68280W        W39809  14.386  18.450   1.703
68281W        W39810  43.545  40.418  14.884
68282W        W39811  11.627  30.067   4.556
68283W        W39812   1.898  27.944   3.892
68284W        W39813   1.702   2.430   4.762
68285W        W39814  31.831  11.277   3.821
68286W        W39815   2.389  41.592   0.215
68287W        W39816  24.135  32.103  11.333
68288W        W39817  38.048  44.714   4.301
68289W        W39818   8.646   9.157  12.688
68290W        W39819  11.384  29.513  11.957
68291W        W39820  42.286  16.640   3.157
68292W        W39821  19.733  13.590  11.230
68293W        W39822  15.375  44.948   4.586
68294W        W39823  19.539  40.903   2.701
68295W        W39824  34.346  42.643   2.324
68296W        W39825   8.401   6.780   4.708
68297W        W39826   4.505  17.723   4.182
68298W        W39827  13.569   9.746  12.169
68299W        W39828  28.338  11.166   0.837
68300W        W39829  25.561   8.306   2.789
68301W        W39830  16.266  21.215   0.038
68302W        W39831   8.186  40.247   2.161
68303W        W39832  34.223  31.082  14.538
68304W        W39833  39.817  17.069  13.587
68305W        W39834  26.832  32.778   4.038
68306W        W39835  29.859  18.186   3.385
68307W        W39836   2.445  25.445  13.033
68308W        W39837   7.217   1.271  13.334
68309W        W39838  27.999  24.735   4.654
68310W        W39839   5.252  21.958  14.441
68311W        W39840  26.581  20.034  12.162
68312W        W39841  37.344   3.784   2.976
68313W        W39842   5.997  27.175   0.843
68314W        W39843  22.103  37.287  14.895
68315W        W39844  44.219  10.209   0.337
68316W        W39845  40.804  15.853   1.082
68317W        W39846  16.689  19.457  14.324
68318W        W39847   9.634   4.620   0.242
68319W        W39848  10.873  29.121  11.576
68320W        W39849  24.705  13.787  13.481
68321W        W39850  11.772   9.674   0.834
68322W        W39851   4.841  35.622   3.724
68323W        W39852   2.208  21.465   3.370
68324W        W39853  39.091  10.704  14.609
68325W        W39854  15.229  20.991   4.102
68326W        W39855  37.915  39.536  13.072
68327W        W39856  31.003   1.710   4.533
68328W        W39857   2.066   8.574   4.083
68329W        W39858  16.321  25.739   3.263
68330W        W39859  40.005  33.892  14.906
68331W        W39860  21.939  10.250  10.781
68332W        W39861  40.398  24.615  13.030
68333W        W39862  30.519  17.985  14.807
68334W        W39863  36.919  29.729   4.151
68335W        W39864  15.591   4.311   0.419
68336W        W39865  13.026   9.184  10.706
68337W        W39866  29.651  18.059   2.796
68338W        W39867  23.097  44.714  10.679
68339W        W39868  29.390  40.977   3.268
68340W        W39869  13.575  11.489  13.379
68341W        W39870  29.090  25.661  13.038
68342W        W39871  22.306  20.094   3.132
68343W        W39872   4.967  18.217   2.752
68344W        W39873   6.347  39.414  14.522
68345W        W39874  39.805  40.912   1.283
68346W        W39875  42.846  18.023   4.287
68347W        W39876   5.144  29.896  11.961
68348W        W39877  25.495  14.368  10.826
68349W        W39878   4.700  24.899  12.983
68350W        W39879  18.215  18.608  11.456
68351W        W39880  20.029  16.300   4.192
68352W        W39881  25.526  39.779  12.412
68353W        W39882  12.856  28.630   1.331
68354W        W39883   2.325  39.584   0.546
68355W        W39884  24.979  13.041  13.573
68356W        W39885  20.904  28.248   4.314
68357W        W39886   7.238  38.962  10.910
68358W        W39887  41.069  30.641   2.882
68359W        W39888  19.337  31.944   3.707
68360W        W39889   3.815   2.755  13.977
68361W        W39890  32.681  36.986   0.403
68362W        W39891  20.786  17.560  11.938
68363W        W39892   1.388  39.838   1.909
68364W        W39893  39.491   2.207  11.681
68365W        W39894  42.484   2.691  13.950
68366W        W39895  15.338  36.275  10.349
68367W        W39896  17.844   3.020  11.503
68368W        W39897   5.466  10.810  13.977
68369W        W39898   5.189  27.759  12.379
68370W        W39899  24.806  26.699   0.674
68371W        W39900  17.157  35.383   2.351
68372W        W39901  33.605  12.052  12.352
68373W        W39902   9.636  27.481  11.858
68374W        W39903  13.148  36.788  14.223
68375W        W39904  14.971  31.648  14.798
68376W        W39905  21.146  25.215   1.940
68377W        W39906  12.482  14.460   2.827
68378W        W39907  24.156   3.186   2.406
68379W        W39908  31.392  20.914   3.228
68380W        W39909  14.213  24.654   3.404
68381W        W39910  41.956  41.743   2.645
68382W        W39911  11.797  21.164  10.830
68383W        W39912  41.610  11.707   2.775
68384W        W39913  36.538   5.811  14.785
68385W        W39914  14.772  26.095   4.282
68386W        W39915   4.016  19.514  12.492
68387W        W39916   9.980  44.827  14.846
68388W        W39917  37.295  22.204  12.116
68389W        W39918   4.613   2.438  10.594
68390W        W39919  35.696  27.986   2.398
68391W        W39920  39.631  44.452  10.633
68392W        W39921   1.404  26.797   2.409
68393W        W39922  39.288  11.802   4.299
68394W        W39923  20.209   5.824   3.875
68395W        W39924  13.950   7.182  12.703
68396W        W39925  12.446  28.630   0.381
68397W        W39926  31.020  43.747   4.709
68398W        W39927  16.127   3.433  14.834
68399W        W39928  16.533  25.458  11.205
68400W        W39929  15.079  32.056   4.447
68401W        W39930  27.570  18.282  13.440
68402W        W39931   3.227   6.448   4.578
68403W        W39932  22.284   9.144  11.016
68404W        W39933  26.302  28.985   0.844
68405W        W39934  44.297  20.241  13.553
68406W        W39935   1.933  24.618   3.721
68407W        W39936  30.156  22.114  14.325
68408W        W39937  28.511  35.281   9.990
68409W        W39938  27.454   6.835   1.503
68410W        W39939  12.858  27.691  13.945
68411W        W39940  42.402  13.253  10.566
68412W        W39941  39.581   8.982  11.098
68413W        W39942   0.745  20.300   2.796
68414W        W39943  31.208  10.239   0.314
68415W        W39944  20.578  36.234  10.516
68416W        W39945  22.345   6.176   3.331
68417W        W39946  32.906  23.538   3.671
68418W        W39947  38.387   0.972  14.275
68419W        W39948  40.802  22.970  14.093
68420W        W39949  35.011  28.091   3.690
68421W        W39950  28.466  26.532  14.972
68422W        W39951  26.206   5.235   2.248
68423W        W39952   7.722  21.192  13.853
68424W        W39953   5.290  43.323  13.706
68425W        W39954  14.243  33.107   0.850
68426W        W39955  40.513  36.887  13.565
68427W        W39956  24.818   5.907  11.141
68428W        W39957  33.077  23.264  13.279
68429W        W39958  33.360  44.434   2.354
68430W        W39959  44.275  17.631   3.739
68431W        W39960  20.229  43.451  13.248
68432W        W39961  18.174  16.089   1.264
68433W        W39962  29.856  34.030  13.239
68434W        W39963  14.560   2.538  12.537
68435W        W39964   1.942  16.772   0.267
68436W        W39965  25.373   6.856   0.375
68437W        W39966  23.725  10.666   4.574
68438W        W39967   5.685  37.377   2.914
68439W        W39968  19.201  19.550  10.721
68440W        W39969  34.496  41.769   0.003
68441W        W39970  41.613  40.596   4.584
68442W        W39971   0.436   4.969   2.548
68443W        W39972  23.160  43.937   1.384
68444W        W39973  11.890   6.765  13.778
68445W        W39974   0.831  42.452   3.268
68446W        W39975  43.962  19.388  14.852
68447W        W39976  22.016   2.529  10.804
68448W        W39977   4.994   2.903   2.373
68449W        W39978  36.089  34.847   5.116
68450W        W39979  19.718  32.094  11.493
68451W        W39980   4.792  37.032  11.654
68452W        W39981   1.813  15.054   0.169
68453W        W39982  26.741  21.626   3.275
68454W        W39983  38.366  18.335   2.505
68455W        W39984   4.869  21.249   1.222
68456W        W39985   4.585   0.275  11.128
68457W        W39986  42.486   4.763  11.087
68458W        W39987  18.007  36.998  13.895
68459W        W39988  42.273   5.264  12.412
68460W        W39989  25.083  37.501   0.919
68461W        W39990   4.697  41.779   1.023
68462W        W39991   9.821  31.562   3.726
68463W        W39992  22.633  33.108  13.231
68464W        W39993  43.965   3.350   3.115
68465W        W39994   6.846  31.454   4.227
68466W        W39995  33.312  40.233   5.145
68467W        W39996  16.916  20.707  11.046
68468W        W39997  38.360  43.455   3.969
68469W        W39998  30.989  13.072  14.318
68470W        W39999  25.853  16.767  11.567
68471W        W40000  34.152  31.900  13.289
68472W        W40001  35.039  30.609  14.408
68473W        W40002  21.135   2.765  12.525
68474W        W40003  24.800  29.689   3.736
68475W        W40004   4.994  16.060   0.242
68476W        W40005  25.173  35.052  13.918
68477W        W40006   4.913  42.758  14.193
68478W        W40007  23.078  16.787  11.222
68479W        W40008  43.344  34.840  13.422
68480W        W40009  42.421   5.486   1.776
68481W        W40010  30.574   4.511   3.861
68482W        W40011  18.161   8.109   4.151
68483W        W40012   4.422  14.250   1.352
68484W        W40013  42.782  26.523   2.207
68485W        W40014   2.479  43.367   3.387
68486W        W40015   4.936  15.908   4.182
68487W        W40016  26.297  42.802  13.468
68488W        W40017  26.600  20.541  11.705
68489W        W40018   5.469  28.913  13.401
68490W        W40019  44.927   3.808   1.254
68491W        W40020  15.803  21.744  12.829
68492W        W40021  29.794  25.570   2.401
68493W        W40022  39.926  28.593  12.988
68494W        W40023  22.219  38.087  10.972
68495W        W40024  19.009  22.434  11.490
68496W        W40025  31.460   3.682   0.448
68497W        W40026  18.193  14.237   3.784
68498W        W40027  18.582  25.935  11.030
68499W        W40028  27.915  32.614  14.609
68500W        W40029  40.929   1.012   0.650
68501W        W40030  25.288   0.010  10.665
68502W        W40031  43.278  43.362   2.333
68503W        W40032  27.368  33.373  14.512
68504W        W40033   0.942   1.430   4.440
68505W        W40034  13.867  42.938  13.932
68506W        W40035  31.824   6.303   0.631
68507W        W40036  26.688  29.630  11.420
68508W        W40037  33.988  15.114  12.993
68509W        W40038   2.314  19.152  14.942
68510W        W40039  23.667  32.582   2.361
68511W        W40040   8.070   0.767   4.531
68512W        W40041  10.674  35.969  13.669
68513W        W40042  41.393  12.576  13.355
68514W        W40043  28.996   8.585  12.375
68515W        W40044  15.585   8.824  11.951
68516W        W40045  37.484  15.486   0.366
68517W        W40046  36.873  17.578  14.497
68518W        W40047  22.949   8.048   4.171
68519W        W40048   9.545  26.265   0.348
68520W        W40049   7.944  30.949  12.063
68521W        W40050   5.373  42.952  14.071
68522W        W40051  18.883  14.771   4.541
68523W        W40052   4.923  23.227  13.787
68524W        W40053  32.447  20.289   2.773
68525W        W40054   5.442  44.419  13.791
68526W        W40055  27.129  19.597   0.357
68527W        W40056  23.403  24.305  14.011
68528W        W40057   7.753  22.554   2.282
68529W        W40058  24.020  32.180  12.723
68530W        W40059  31.134  27.931   0.264
68531W        W40060  13.934  20.153  12.566
68532W        W40061   5.763  42.796  14.379
68533W        W40062   2.015  39.952  13.909
68534W        W40063  43.353  36.163   4.685
68535W        W40064  33.046  28.659   4.150
68536W        W40065  14.260  27.373   3.657
68537W        W40066  16.662  33.438   1.674
68538W        W40067  44.041   9.726   0.229
68539W        W40068  13.644   2.666   1.786
68540W        W40069  21.999  44.807   3.498
68541W        W40070  35.037  25.219   1.840
68542W        W40071  30.745  13.127   3.723
68543W        W40072  21.712   0.647   0.300
68544W        W40073  31.393  38.357   4.241
68545W        W40074  20.069  20.427   3.940
68546W        W40075  32.835  39.523  14.783
68547W        W40076  33.575  14.628  12.987
68548W        W40077  19.820  30.697  12.439
68549W        W40078   1.434  23.220  13.341
68550W        W40079  12.130  22.170   3.679
68551W        W40080  33.089  17.815  14.371
68552W        W40081  31.557  28.244  11.361
68553W        W40082  10.134   6.703  14.943
68554W        W40083  34.871  28.104  10.827
68555W        W40084  34.877  40.465   1.408
68556W        W40085  18.836   3.464  12.087
68557W        W40086  10.748  40.790  10.723
68558W        W40087  34.991  28.565  11.017
68559W        W40088  35.904   9.413  11.568
68560W        W40089  38.383  16.545   2.108
68561W        W40090  32.106  26.676   1.343
68562W        W40091  20.258  11.383  11.607
68563W        W40092  11.254  15.228   3.680
68564W        W40093   9.553  27.319  14.081
68565W        W40094  13.226   6.809  14.442
68566W        W40095  15.921  24.287  13.933
68567W        W40096  17.739  37.993   2.842
68568W        W40097  21.637  18.882  13.771
68569W        W40098  34.802  14.399  11.680
68570W        W40099  34.938  10.383  11.516
68571W        W40100  33.067  32.473  12.853
68572W        W40101  20.707  39.059   1.908
68573W        W40102  44.810  43.833   1.403
68574W        W40103  25.046   7.648  10.923
68575W        W40104  23.042  36.056   0.975
68576W        W40105  17.135  19.739  11.564
68577W        W40106  21.827  14.766   0.362
68578W        W40107  34.025  33.885  11.596
68579W        W40108  24.683  14.293  14.073
68580W        W40109   1.025   5.970  14.857
68581W        W40110  27.192  32.077  12.667
68582W        W40111  41.484  26.557   0.905
68583W        W40112  20.734  41.068   4.099
68584W        W40113  29.473  37.361   2.731
68585W        W40114  31.589  32.098   4.897
68586W        W40115  28.598  11.563   3.600
68587W        W40116   8.259   8.363  11.818
68588W        W40117  33.348   9.195  13.215
68589W        W40118  29.174  39.564   2.380
68590W        W40119  28.383  28.496   1.439
68591W        W40120  30.000  10.801   2.371
68592W        W40121  41.877  41.633  14.860
68593W        W40122   0.697  44.015  12.096
68594W        W40123  30.423  29.444  12.449
68595W        W40124  36.713   6.410  12.510
68596W        W40125  31.519  24.986   1.269
68597W        W40126  11.674  34.351  12.957
68598W        W40127  10.371  25.154   3.027
68599W        W40128  32.959  14.593   2.122
68600W        W40129  29.637   2.607   3.622
68601W        W40130   5.676   8.619  10.661
68602W        W40131  20.571  38.813  14.737
68603W        W40132  10.793  41.118   1.659
68604W        W40133   3.108  33.678  12.202
68605W        W40134   7.315  24.669   3.804
68606W        W40135  20.144  41.081  12.538
68607W        W40136  16.780   3.995   2.092
68608W        W40137  42.786  24.645  12.461
68609W        W40138   7.223   1.448  14.235
68610W        W40139  10.762  17.528   1.537
68611W        W40140  26.179  41.012  14.834
68612W        W40141  19.654  28.179  12.115
68613W        W40142  36.397   2.587   4.577
68614W        W40143  43.331  19.101  10.929
68615W        W40144  32.572  39.463  10.668
68616W        W40145  40.844  14.029  12.011
68617W        W40146  21.544  14.345   0.759
68618W        W40147  17.560  44.124   4.932
68619W        W40148  34.094  39.891  13.567
68620W        W40149  39.393  15.692  10.117
68621W        W40150  29.064  31.012   3.163
68622W        W40151  22.280  34.942   1.881
68623W        W40152  26.275  32.741   4.089
68624W        W40153   0.375  22.954   0.884
68625W        W40154   4.797   4.295   1.177
68626W        W40155  12.661  37.638   1.877
68627W        W40156  25.415  34.067  11.943
68628W        W40157  26.754  24.101   0.220
68629W        W40158  39.998   6.148  13.511
68630W        W40159  23.137  15.087   2.356
68631W        W40160  16.571  10.180  11.092
68632W        W40161  16.553   6.776   3.174
68633W        W40162  37.449   5.136   3.699
68634W        W40163  32.075  18.837  14.014
68635W        W40164  22.683  27.093   1.333
68636W        W40165  24.726  40.078  10.374
68637W        W40166  35.573  12.827   4.922
68638W        W40167  35.037  29.850   4.179
68639W        W40168   8.263  38.840   2.189
68640W        W40169   5.410   4.409  13.419
68641W        W40170  35.616  33.639  11.588
68642W        W40171  21.906  20.942  13.409
68643W        W40172  42.073  26.074  13.443
68644W        W40173  18.672   8.891   4.254
68645W        W40174  35.108  20.256  10.528
68646W        W40175  22.602   4.213   0.519
68647W        W40176  11.676   3.856  13.978
68648W        W40177   9.060  18.536   3.105
68649W        W40178  13.384  40.789   2.342
68650W        W40179  20.016  42.441   4.016
68651W        W40180  10.687  19.565   0.007
68652W        W40181  17.264  25.133   1.424
68653W        W40182   1.381  17.856  13.972
68654W        W40183  37.027  16.374   1.257
68655W        W40184   3.315  27.832   1.660
68656W        W40185  17.815  35.614  10.911
68657W        W40186  11.110  25.066   1.406
68658W        W40187  14.910  12.274  12.469
68659W        W40188   3.427  21.465   4.359
68660W        W40189  43.017  43.839   3.407
68661W        W40190  11.087  40.236  13.314
68662W        W40191   1.465  22.463   2.743
68663W        W40192  37.244  27.496   2.104
68664W        W40193  36.796  17.952  13.876
68665W        W40194  26.566  17.006   4.811
68666W        W40195  31.031  14.437   0.085
68667W        W40196  36.979  36.535  10.681
68668W        W40197  31.706  21.733  10.840
68669W        W40198  26.269  24.997  10.237
68670W        W40199  19.788  21.553  14.428
68671W        W40200  39.194  10.332  11.040
68672W        W40201   3.382  24.779   3.914
68673W        W40202  14.962  20.205   5.471
68674W        W40203  12.457  31.413  11.640
68675W        W40204   4.513  43.957  11.095
68676W        W40205  31.354  42.903  13.817
68677W        W40206  28.511  13.582   4.540
68678W        W40207  12.842  29.394   4.532
68679W        W40208  44.674  41.404   2.347
68680W        W40209   9.396  35.820  14.372
68681W        W40210  33.412  26.012   2.765
68682W        W40211   3.584  32.572   2.695
68683W        W40212  33.658  29.632   0.517
68684W        W40213  16.140  42.279  11.619
68685W        W40214  21.472   8.728   2.838
68686W        W40215  41.021  38.383  13.000
68687W        W40216  16.220   5.363   4.848
68688W        W40217  30.568  38.010   2.903
68689W        W40218  20.385  30.125  14.609
68690W        W40219   1.334   3.932   2.336
68691W        W40220  43.884  38.654   1.746
68692W        W40221  38.838   0.146   3.809
68693W        W40222  28.591  37.284   3.717
68694W        W40223   1.043  25.025   4.632
68695W        W40224  23.022  25.931  11.590
68696W        W40225  38.298  38.864  13.038
68697W        W40226  13.489  12.218  10.424
68698W        W40227   2.884  11.847   1.441
68699W        W40228  15.385   7.567  14.577
68700W        W40229  44.885   7.100   4.433
68701W        W40230  28.228   5.904  14.806
68702W        W40231  16.281   8.542   4.184
68703W        W40232  20.317  15.043  12.069
68704W        W40233  44.400  23.707   1.675
68705W        W40234   3.666   8.818  12.463
68706W        W40235  34.884  34.192  10.633
68707W        W40236  26.652  14.798   0.451
68708W        W40237   8.739   3.284   2.315
68709W        W40238  34.452  42.137   2.446
68710W        W40239  29.160  20.815   5.089
68711W        W40240  40.882   3.203  14.765
68712W        W40241   7.304  12.670   4.493
68713W        W40242  39.974   7.820  11.616
68714W        W40243  11.091   1.377   2.601
68715W        W40244  26.828   6.439   0.295
68716W        W40245  43.333  28.646  12.938
68717W        W40246   6.176  11.881   4.100
68718W        W40247  40.996  43.757   2.410
68719W        W40248  33.482  36.850   3.884
68720W        W40249  29.691  39.448  14.909
68721W        W40250  21.315  39.115   2.328
68722W        W40251  33.414  21.128   2.358
68723W        W40252   8.297   0.491  12.546
68724W        W40253  19.488  22.693  12.676
68725W        W40254   0.714   8.408   3.577
68726W        W40255  26.185  30.548   3.847
68727W        W40256  32.948  26.788   4.857
68728W        W40257   4.203  26.649  14.933
68729W        W40258  26.939  14.863  12.461
68730W        W40259  40.969  12.794  13.575
68731W        W40260  15.160  20.160   1.833
68732W        W40261  20.000   3.890  14.330
68733W        W40262  37.130  44.319  10.584
68734W        W40263  16.459  36.157  12.064
68735W        W40264   3.187  38.345   2.852
68736W        W40265  33.850  42.881  11.524
68737W        W40266  35.133   1.206   1.877
68738W        W40267  13.060  31.536   4.782
68739W        W40268  29.700  34.995  14.723
68740W        W40269  16.064   2.999  13.009
68741W        W40270  41.971  22.201  12.973
68742W        W40271  30.074  31.127  11.625
68743W        W40272   6.380  15.943   3.690
68744W        W40273  19.740   2.759   2.354
68745W        W40274  18.753  15.644   4.628
68746W        W40275  23.229  22.020   3.230
68747W        W40276  16.070   7.413   0.869
68748W        W40277  26.584  34.873   0.424
68749W        W40278  20.177  33.584  13.979
68750W        W40279  23.610   8.239  13.344
68751W        W40280  35.568  24.113  12.371
68752W        W40281   8.871  36.813  13.494
68753W        W40282  10.682  13.666  14.097
68754W        W40283  12.345   0.321   2.777
68755W        W40284   6.234   4.745  14.957
68756W        W40285  11.860  13.672   2.314
68757W        W40286  26.063  21.579  11.041
68758W        W40287   4.683  37.417   5.075
68759W        W40288  40.601  29.673  13.302
68760W        W40289  10.984  33.975   3.234
68761W        W40290  30.120  43.492   2.829
68762W        W40291   2.581  27.551  11.485
68763W        W40292  14.175  23.259  13.481
68764W        W40293   5.309  16.230  13.042
68765W        W40294  35.215   9.843   4.393
68766W        W40295   4.231  21.227  10.731
68767W        W40296  34.424  20.147  11.922
68768W        W40297   4.388  11.855  13.480
68769W        W40298  32.019  41.835   3.664
68770W        W40299   6.903  20.123   5.350
68771W        W40300  33.073  20.506  11.949
68772W        W40301  24.190  26.437   1.412
68773W        W40302  39.423  22.906   2.829
68774W        W40303  26.402  25.048  12.853
68775W        W40304  31.989   6.270  14.200
68776W        W40305  43.906  33.303   4.928
68777W        W40306  18.304  17.284   0.121
68778W        W40307   0.392  13.818  14.293
68779W        W40308  32.610  16.417  12.414
68780W        W40309  39.914  38.801   3.562
68781W        W40310  35.818  27.167   0.254
68782W        W40311   2.709  25.177   1.829
68783W        W40312   4.580   1.018   5.053
68784W        W40313  20.452   7.861  13.390
68785W        W40314  41.853   4.286   4.413
68786W        W40315  44.915  38.988   2.710
68787W        W40316   2.999  12.722   2.420
68788W        W40317   4.726  31.696  12.601
68789W        W40318   6.364  29.413  12.104
68790W        W40319  30.837  22.491   2.421
68791W        W40320  26.147  28.522   0.769
68792W        W40321  19.497  18.253  14.818
68793W        W40322   1.318   9.936  13.908
68794W        W40323  26.159  40.279   4.683
68795W        W40324   2.831   3.206   0.908
68796W        W40325   6.662   8.522  10.651
68797W        W40326  10.322  19.736  12.077
68798W        W40327  36.002   7.928  12.929
68799W        W40328  11.859  36.879   1.489
68800W        W40329   2.770  20.590  10.769
68801W        W40330  37.418  22.611   3.771
68802W        W40331   1.935  11.296  13.140
68803W        W40332  18.807  15.250  14.786
68804W        W40333   6.497  29.398  11.097
68805W        W40334  10.459   1.351   4.688
68806W        W40335  17.319  41.991  10.684
68807W        W40336  43.097   5.608  14.336
68808W        W40337  19.540  16.741  14.497
68809W        W40338  16.107   1.734  14.555
68810W        W40339  32.561  42.525   3.382
68811W        W40340  24.158  12.669  11.724
68812W        W40341  34.825   7.442   5.006
68813W        W40342  28.519  29.799  14.772
68814W        W40343  23.910  18.978   2.803
68815W        W40344  18.541  20.530   0.744
68816W        W40345  38.055  27.021  12.452
68817W        W40346   0.629  11.635   2.365
68818W        W40347   0.419  39.983   4.616
68819W        W40348  23.902  35.860   0.721
68820W        W40349  24.542  13.777  14.139
68821W        W40350  39.575   4.697  14.386
68822W        W40351  30.084  18.072  12.890
68823W        W40352   3.524  35.660  14.379
68824W        W40353  14.834  18.811  11.918
68825W        W40354  13.804  43.571   4.177
68826W        W40355  16.575  11.320  14.047
68827W        W40356   6.663  10.201  10.498
68828W        W40357  43.624  23.515   1.853
68829W        W40358  42.376  18.142  14.024
68830W        W40359  39.530  31.579  13.417
68831W        W40360   1.810  36.018  11.921
68832W        W40361  37.948  26.597  13.336
68833W        W40362  18.115  31.219   3.319
68834W        W40363   0.689  20.565  13.012
68835W        W40364   8.196  11.242  12.582
68836W        W40365  37.950  31.329  13.373
68837W        W40366  38.473  29.864   4.167
68838W        W40367  37.431  24.638  14.501
68839W        W40368  35.987   4.381  11.687
68840W        W40369   6.116  19.132  11.164
68841W        W40370  28.392   5.140   0.804
68842W        W40371  25.405   7.366  11.150
68843W        W40372   5.593  37.975   0.818
68844W        W40373  13.052   8.740   4.610
68845W        W40374   0.342  38.405   1.600
68846W        W40375  25.210  40.461   3.668
68847W        W40376   7.452   1.929   3.766
68848W        W40377   4.908  19.032  12.549
68849W        W40378   3.256   3.487  14.908
68850W        W40379   5.315  32.357  11.171
68851W        W40380  25.442  15.330  12.151
68852W        W40381   0.885  22.094  11.025
68853W        W40382  28.174   0.810   3.244
68854W        W40383  37.216  20.608   0.674
68855W        W40384  31.137   6.765   1.896
68856W        W40385  37.509  15.825   3.220
68857W        W40386  32.951  10.596   2.251
68858W        W40387  29.566   9.857   0.984
68859W        W40388  11.779  18.581   2.317
68860W        W40389  20.652  38.156   1.900
68861W        W40390  20.505  39.948   2.170
68862W        W40391  41.430   7.247  12.620
68863W        W40392   9.158  30.045   2.298
68864W        W40393  36.362  20.343  13.521
68865W        W40394  12.646  31.879  11.604
68866W        W40395  24.635   7.457  10.683
68867W        W40396  43.284   1.443   0.330
68868W        W40397  41.597  14.789   2.488
68869W        W40398  40.290  29.590  14.090
68870W        W40399  33.383  16.265  13.789
68871W        W40400  31.431  30.191  14.055
68872W        W40401  30.668  10.293   0.286
68873W        W40402  12.993   8.606   4.125
68874W        W40403  12.718  42.802   3.326
68875W        W40404  36.595  14.888  12.339
68876W        W40405  22.136  29.365   1.155
68877W        W40406  33.081   3.322   1.039
68878W        W40407   2.120  29.640  14.551
68879W        W40408   9.476  11.256  11.973
68880W        W40409  39.512  34.830  12.737
68881W        W40410  16.787  22.446  14.776
68882W        W40411   9.744  34.093  14.873
68883W        W40412  15.730  13.913   0.897
68884W        W40413  23.658  26.283   4.601
68885W        W40414  16.292   6.333  12.471
68886W        W40415  29.140  21.332  11.529
68887W        W40416   3.292  16.638  14.537
68888W        W40417  14.800  40.956  12.548
68889W        W40418  24.082  35.404  12.556
68890W        W40419  40.526   1.134  12.978
68891W        W40420  31.267  27.127   3.653
68892W        W40421  17.811  26.438   2.385
68893W        W40422   7.972  27.675  14.378
68894W        W40423  22.006  41.810  12.503
68895W        W40424  41.747  28.143  13.868
68896W        W40425  26.242  19.698  11.921
68897W        W40426   0.229  26.974   1.435
68898W        W40427  11.681  20.460   0.958
68899W        W40428  20.530  23.717  14.869
68900W        W40429  35.050  22.345   3.620
68901W        W40430  26.123  11.865  13.529
68902W        W40431   5.350  24.511  14.021
68903W        W40432  24.133   9.122   1.187
68904W        W40433  11.340  19.609  12.001
68905W        W40434  13.171  20.719  13.013
68906W        W40435  36.863  35.422   4.072
68907W        W40436   2.038  28.733   3.579
68908W        W40437   2.929  31.043   0.506
68909W        W40438  36.517  28.356   0.942
68910W        W40439  10.407  34.484   0.886
68911W        W40440   1.847  15.278   3.402
68912W        W40441  27.884  27.466   4.194
68913W        W40442   6.810  14.837  11.230
68914W        W40443  10.262  34.503   2.750
68915W        W40444  14.077  22.520  11.329
68916W        W40445   7.175   5.438  12.987
68917W        W40446  37.738  31.926   1.799
68918W        W40447  35.789  40.291   5.027
68919W        W40448   7.964  35.813  13.078
68920W        W40449  35.294  15.135  11.660
68921W        W40450   3.056  23.088   0.937
68922W        W40451  22.593  23.003   1.361
68923W        W40452  38.384   7.339  14.777
68924W        W40453  40.343  23.620  13.497
68925W        W40454  38.986   3.492   2.224
68926W        W40455  44.040  10.245   3.121
68927W        W40456  25.625  18.626  12.551
68928W        W40457  41.938  18.568   3.230
68929W        W40458  28.469  37.523   0.778
68930W        W40459  44.487  19.536   0.394
68931W        W40460  34.977  40.610   2.970
68932W        W40461   5.723  13.597  10.610
68933W        W40462  14.181  42.374   4.356
68934W        W40463  24.715  16.886   2.722
68935W        W40464  17.325  39.256  12.749
68936W        W40465  21.771   3.951   1.221
68937W        W40466  20.289   5.413   2.624
68938W        W40467   1.929  37.101  12.063
68939W        W40468  42.804  11.690  12.948
68940W        W40469  37.295   4.217   3.680
68941W        W40470  42.568   4.287   3.667
68942W        W40471  14.785   5.423  14.955
68943W        W40472  36.838  22.467   5.086
68944W        W40473   6.126   1.950   1.409
68945W        W40474  33.629  12.169   0.830
68946W        W40475  41.025  30.231  14.392
68947W        W40476  18.075  32.577  13.553
68948W        W40477  29.178  34.069  12.053
68949W        W40478  44.765  11.371   2.368
68950W        W40479  37.995  27.752  14.442
68951W        W40480  44.478  22.648  11.227
68952W        W40481  14.886  39.335  14.961
68953W        W40482  18.157  34.828  10.758
68954W        W40483  43.566  43.375   1.867
68955W        W40484  42.585   6.358  14.265
68956W        W40485  43.537  39.012   4.631
68957W        W40486  22.147  36.086   4.448
68958W        W40487  44.483  15.335  14.405
68959W        W40488  33.928  44.750   4.324
68960W        W40489  39.134  30.592  13.031
68961W        W40490  39.192   8.000  12.064
68962W        W40491  37.359   6.464   2.648
68963W        W40492  39.040  23.106  13.567
68964W        W40493   8.826  33.077  11.657
68965W        W40494  37.989   8.689  12.213
68966W        W40495  16.185  24.302  10.021
68967W        W40496  11.805  42.202  12.096
68968W        W40497  20.531   8.132   4.843
68969W        W40498   6.520  44.075   0.197
68970W        W40499   7.600  25.113  11.897
68971W        W40500  40.916  26.586  11.524
68972W        W40501  19.087  17.603  14.027
68973W        W40502   1.023  31.586  14.766
68974W        W40503  38.327   7.907  13.380
68975W        W40504   5.812   6.407  10.780
68976W        W40505  16.433  44.413   3.477
68977W        W40506  35.457  31.079   2.822
68978W        W40507   8.418  22.284   1.451
68979W        W40508   4.873  15.402   4.145
68980W        W40509  35.622   9.106   4.471
68981W        W40510  32.650   3.257  11.128
68982W        W40511  19.062  17.691   0.502
68983W        W40512  12.684  41.426  12.451
68984W        W40513  17.190  29.982  14.926
68985W        W40514   3.365   1.081  13.676
68986W        W40515  11.595   7.327   1.306
68987W        W40516  15.987   4.484  14.648
68988W        W40517  44.215  41.020  11.552
68989W        W40518  41.074   2.899   3.652
68990W        W40519   1.127  17.163  11.626
68991W        W40520   0.517  15.155   2.618
68992W        W40521   3.106   6.488  11.174
68993W        W40522  13.755  32.284  11.084
68994W        W40523  18.089   8.654  13.971
68995W        W40524  31.568  15.725  14.961
68996W        W40525  20.032  21.178   3.712
68997W        W40526  26.655  12.405   2.732
68998W        W40527   0.960  42.000  11.178
68999W        W40528  11.379   0.415   2.666
69000W        W40529  34.294  32.911  13.419
69001W        W40530  20.739  10.675  11.118
69002W        W40531   5.284  26.990   2.295
69003W        W40532  20.285  33.672   2.807
69004W        W40533   7.119  33.019   3.311
69005W        W40534  37.406   8.712  10.660
69006W        W40535   5.050  32.563   2.298
69007W        W40536  27.123  28.498   1.803
69008W        W40537   0.727  24.924   3.715
69009W        W40538  15.808   0.900   4.137
69010W        W40539  23.756   6.184  11.556
69011W        W40540  31.882   4.324  14.353
69012W        W40541  44.853   2.437   3.576
69013W        W40542  24.160  19.862  13.485
69014W        W40543  11.498  38.878   0.419
69015W        W40544  28.523  11.184   4.160
69016W        W40545  37.865  10.135  10.951
69017W        W40546   5.194  30.870  13.683
69018W        W40547   6.286   7.035  13.872
69019W        W40548  38.150  43.814  11.155
69020W        W40549  17.265   4.994   5.281
69021W        W40550  41.849  11.200   4.561
69022W        W40551  17.587  17.996   4.111
69023W        W40552  24.577  12.651  12.064
69024W        W40553  26.519   0.064  11.711
69025W        W40554   0.305  21.504   3.759
69026W        W40555  23.322   4.873  12.864
69027W        W40556   4.371  28.179  10.706
69028W        W40557  30.574   2.684   1.214
69029W        W40558  44.950   5.348  14.334
69030W        W40559  24.550  40.431  14.235
69031W        W40560   8.334  17.152   3.734
69032W        W40561  20.984  42.747   3.620
69033W        W40562  29.594  30.573  11.231
69034W        W40563   4.358   4.903   3.767
69035W        W40564  34.516  15.648   2.636
69036W        W40565   5.362  37.865  14.835
69037W        W40566   5.002  24.662   4.613
69038W        W40567  17.193  27.053   4.263
69039W        W40568  10.257  37.388   1.890
69040W        W40569  17.117  18.835  10.675
69041W        W40570  44.601  43.869   0.035
69042W        W40571  34.515  18.969   0.510
69043W        W40572  31.569  21.118  12.476
69044W        W40573  20.726  15.335   4.494
69045W        W40574  31.050   2.357  11.024
69046W        W40575  16.468   1.977  10.941
69047W        W40576  12.735  39.217   0.744
69048W        W40577   5.570  34.526  12.432
69049W        W40578  43.435  10.735   0.845
69050W        W40579  23.236  17.107   3.615
69051W        W40580   4.677  12.595  12.351
69052W        W40581   7.818  42.951  10.762
69053W        W40582  28.227  43.420   2.258
69054W        W40583  12.373   0.807  14.914
69055W        W40584   7.993  43.403  11.035
69056W        W40585  24.745  32.570   3.074
69057W        W40586  18.536  29.511   3.439
69058W        W40587  43.425   1.631  11.386
69059W        W40588  44.791  39.078  10.744
69060W        W40589   4.874   7.383   3.685
69061W        W40590  25.606  35.366   0.079
69062W        W40591  29.258  30.240   0.742
69063W        W40592  17.866  24.002  14.815
69064W        W40593  21.702  31.427   1.673
69065W        W40594   0.673  12.056  10.498
69066W        W40595  34.710  11.836   2.581
69067W        W40596   4.711   4.661  14.937
69068W        W40597  29.630  12.779   4.827
69069W        W40598   2.840  16.988   4.132
69070W        W40599  43.966  10.609   1.021
69071W        W40600  40.094  11.201   2.847
69072W        W40601   9.360  13.309   3.737
69073W        W40602  17.866  35.158   0.876
69074W        W40603  18.121   1.922  13.670
69075W        W40604   0.379   7.658  11.612
69076W        W40605  41.556  36.339  12.395
69077W        W40606   0.002  18.331   2.801
69078W        W40607   7.056  12.264  11.529
69079W        W40608  27.140  31.281   1.906
69080W        W40609   2.469   3.827   1.389
69081W        W40610  39.928   3.803  10.715
69082W        W40611  28.064  44.298  11.562
69083W        W40612  24.532   7.410   3.728
69084W        W40613  11.234  12.808   1.427
69085W        W40614  40.276  43.914   4.957
69086W        W40615  30.637  36.756   0.483
69087W        W40616   8.391   6.233  14.295
69088W        W40617  24.523   1.762  11.358
69089W        W40618  29.450  30.887  12.934
69090W        W40619  26.631   8.811  12.100
69091W        W40620   8.324   7.755  12.494
69092W        W40621  20.630   2.959  12.504
69093W        W40622  35.315  10.559  10.209
69094W        W40623  30.498  44.715  13.599
69095W        W40624  11.651  14.882   2.662
69096W        W40625  25.764   4.128  14.410
69097W        W40626  40.899  32.521   4.576
69098W        W40627  36.532  37.537  10.166
69099W        W40628  19.601   0.574   0.851
69100W        W40629  20.644  23.082  14.347
69101W        W40630   0.833   5.477  14.741
69102W        W40631  40.937  26.101  11.679
69103W        W40632   4.443  36.222  13.390
69104W        W40633   4.966  23.743  11.973
69105W        W40634  44.432  24.677  14.986
69106W        W40635   4.252   8.589  11.615
69107W        W40636  31.667  41.317  14.980
69108W        W40637   8.136  22.520   3.217
69109W        W40638   6.795  18.284   1.430
69110W        W40639  26.364   2.954  14.796
69111W        W40640  12.125  13.707  11.627
69112W        W40641  17.308  16.853   3.405
69113W        W40642  31.468  16.031   3.339
69114W        W40643   2.734  36.375   1.750
69115W        W40644  38.360  24.160   0.345
69116W        W40645  32.860  16.600   1.222
69117W        W40646  22.814  21.444  10.186
69118W        W40647  17.823  23.492   1.110
69119W        W40648  24.732  44.858  13.378
69120W        W40649  14.231   8.647  14.777
69121W        W40650  34.705  40.529   0.913
69122W        W40651   0.230  44.259   4.162
69123W        W40652  10.870  23.963   0.554
69124W        W40653  21.291  35.521   0.597
69125W        W40654  18.806  44.783  14.507
69126W        W40655  37.301  35.305  11.029
69127W        W40656   4.416   7.137   2.644
69128W        W40657  33.892  22.617  14.784
69129W        W40658  33.095  28.815  14.433
69130W        W40659  28.926  22.295   0.241
69131W        W40660  42.097  43.579  14.792
69132W        W40661  28.834  18.074   1.352
69133W        W40662  41.324  39.834   2.674
69134W        W40663   4.759  24.400  12.799
69135W        W40664  41.410  14.254  14.246
69136W        W40665  15.276  21.179  14.738
69137W        W40666  25.158   5.485   2.579
69138W        W40667  22.240  22.309   2.393
69139W        W40668  22.912   6.256   5.032
69140W        W40669  40.891  23.617   0.653
69141W        W40670   9.071   5.193  11.936
69142W        W40671  10.040  19.840  11.586
69143W        W40672   3.451   9.319   2.279
69144W        W40673  19.045  44.236   2.901
69145W        W40674  19.905   0.647   4.558
69146W        W40675  13.730  30.694   2.165
69147W        W40676  14.254  13.405   2.007
69148W        W40677   9.853  38.788   3.833
69149W        W40678  40.266  44.424  12.529
69150W        W40679  14.149  39.435  14.311
69151W        W40680  15.820  33.055   2.705
69152W        W40681  11.837  22.211  14.887
69153W        W40682  23.686   7.565  11.591
69154W        W40683  16.216  10.017   0.759
69155W        W40684  14.062  29.726   4.163
69156W        W40685  42.291  30.865   4.548
69157W        W40686  13.806   4.884   1.723
69158W        W40687  44.205  23.046  13.291
69159W        W40688   1.407  38.713  10.464
69160W        W40689   4.215  11.864   2.304
69161W        W40690  22.228  25.684  14.852
69162W        W40691   0.298  10.675  14.305
69163W        W40692   0.820  11.797  14.984
69164W        W40693  27.482  38.019   0.856
69165W        W40694  22.554   5.689  12.888
69166W        W40695   7.388  32.967   2.841
69167W        W40696   7.090  38.927  14.252
69168W        W40697  12.700   2.285  14.558
69169W        W40698   0.000  37.980  14.768
69170W        W40699  40.377  34.700  11.546
69171W        W40700  18.562  13.038   2.792
69172W        W40701  40.567  16.599   0.041
69173W        W40702   7.151  42.949  10.217
69174W        W40703  25.668  11.212  11.075
69175W        W40704  19.330   3.373   4.624
69176W        W40705   0.557  28.112  14.420
69177W        W40706   2.338  24.863  11.288
69178W        W40707  31.162  25.113   2.720
69179W        W40708  29.143  18.562  11.725
69180W        W40709  36.732   6.333   0.742
69181W        W40710  33.644  28.238  13.427
69182W        W40711  35.930   7.307   3.170
69183W        W40712  43.282   3.430  12.018
69184W        W40713  24.996  27.212   4.678
69185W        W40714   6.115  30.987   2.465
69186W        W40715  23.529  30.776  11.119
69187W        W40716  31.512   2.088  12.491
69188W        W40717  20.058   4.363   2.650
69189W        W40718  25.964  13.150  12.035
69190W        W40719  26.576  35.595   1.247
69191W        W40720  20.745  36.634   4.775
69192W        W40721   2.850  23.736  10.736
69193W        W40722   6.281   7.701   3.425
69194W        W40723  19.214   8.883  13.327
69195W        W40724  43.329   2.965   2.320
69196W        W40725   3.767  15.418   0.306
69197W        W40726   7.704  19.461   3.458
69198W        W40727  29.071   4.817  12.136
69199W        W40728  38.295  31.488   4.548
69200W        W40729   8.710  17.017   4.487
69201W        W40730  36.857  25.029   3.291
69202W        W40731   8.589   1.702  11.931
69203W        W40732  17.083   3.964  12.031
69204W        W40733  16.560  44.560   1.915
69205W        W40734  33.697  39.496  11.411
69206W        W40735  40.710  13.128   4.112
69207W        W40736   3.774   2.803   0.815
69208W        W40737  35.065  25.781  14.931
69209W        W40738  33.197  24.312   0.814
69210W        W40739  17.642  12.261  14.298
69211W        W40740  38.629  44.829  13.986
69212W        W40741  41.581   6.831  12.916
69213W        W40742  13.744   3.215   2.730
69214W        W40743  40.468   0.255   0.735
69215W        W40744   3.267  25.860  11.116
69216W        W40745   0.512  31.115   3.241
69217W        W40746  20.231  42.490   1.313
69218W        W40747  36.283  16.270  11.545
69219W        W40748  16.752  18.679   4.636
69220W        W40749  23.732  20.273  10.698
69221W        W40750  42.184  27.184  11.276
69222W        W40751  33.845  38.481   3.464
69223W        W40752  17.598   5.044  12.927
69224W        W40753  13.656  33.101  12.965
69225W        W40754  18.304  31.910  14.109
69226W        W40755   6.643  33.490   4.126
69227W        W40756   5.389  10.343   2.123
69228W        W40757  23.905   0.105  14.228
69229W        W40758  26.597  31.453  12.501
69230W        W40759  13.607  24.060   4.642
69231W        W40760  37.361  20.650  11.952
69232W        W40761  30.172   2.997  13.814
69233W        W40762  30.109  15.047   1.365
69234W        W40763  32.749  33.957   3.530
69235W        W40764  42.786  26.924  12.865
69236W        W40765  10.892  38.788  11.478
69237W        W40766  30.977  26.516  14.271
69238W        W40767   0.347  30.595   2.719
69239W        W40768  39.372  36.950  14.733
69240W        W40769  16.559  28.455   3.691
69241W        W40770  35.316  19.014  14.987
69242W        W40771  30.424  29.427   3.738
69243W        W40772  11.386  29.079   2.662
69244W        W40773   4.879   1.772  11.970
69245W        W40774  17.579  37.064   2.777
69246W        W40775  39.393  39.431  10.945
69247W        W40776  32.694   3.661  14.770
69248W        W40777  21.329  42.226   1.948
69249W        W40778  20.748   8.751   3.257
69250W        W40779  38.885   0.465  12.170
69251W        W40780  42.394  32.912   3.961
69252W        W40781   0.433  44.558   1.479
69253W        W40782  34.243  26.006   0.945
69254W        W40783   9.437   4.919  14.852
69255W        W40784  42.508  19.563   3.541
69256W        W40785   7.905  40.084   3.454
69257W        W40786  26.989   1.994  13.078
69258W        W40787   2.781  39.058  11.968
69259W        W40788  10.838  16.998   4.577
69260W        W40789  15.530  13.855   1.932
69261W        W40790  40.831   5.130  11.127
69262W        W40791   8.821  10.371  13.669
69263W        W40792  10.090  11.591   0.792
69264W        W40793  36.844   0.250   3.319
69265W        W40794  27.679  29.926   2.635
69266W        W40795  36.813   0.253  13.358
69267W        W40796  39.012  41.430  12.265
69268W        W40797  13.614  17.205   3.751
69269W        W40798   1.931   4.179   4.969
69270W        W40799  34.019  21.234   4.030
69271W        W40800  29.486  29.582   3.849
69272W        W40801  43.264   1.796   4.184
69273W        W40802   3.973  22.965   2.908
69274W        W40803  19.089  31.560  13.351
69275W        W40804   7.966  10.146   2.835
69276W        W40805   3.292  23.800   1.260
69277W        W40806   0.853  17.114   0.561
69278W        W40807  31.533  23.235  11.677
69279W        W40808  22.301   0.015   4.513
69280W        W40809  43.838  18.317  13.436
69281W        W40810  34.140   4.720  14.895
69282W        W40811  15.513  41.539   1.769
69283W        W40812  29.176   1.845  12.857
69284W        W40813   7.694  32.254  14.931
69285W        W40814   7.866   7.253   2.723
69286W        W40815   1.988  17.631  11.701
69287W        W40816  30.149  29.024  12.376
69288W        W40817  26.774  29.389  14.201
69289W        W40818   8.713   3.224   4.536
69290W        W40819  32.121  26.522   1.849
69291W        W40820  14.689  18.662   3.407
69292W        W40821  33.614  20.809   3.915
69293W        W40822  19.326   3.630  13.861
69294W        W40823  30.241  13.886  12.488
69295W        W40824  30.439  30.555  13.786
69296W        W40825  17.681   5.831  10.716
69297W        W40826  42.826  22.142   3.175
69298W        W40827   0.082  42.076  11.578
69299W        W40828  22.514  30.452  11.467
69300W        W40829   6.923  11.754   1.708
69301W        W40830   4.477  21.598   4.095
69302W        W40831   0.518  20.842   0.362
69303W        W40832  32.937  14.735   3.325
69304W        W40833   8.905  29.722  13.474
69305W        W40834   4.302  32.262   4.639
69306W        W40835  40.555  41.038  13.522
69307W        W40836  44.521   9.888   2.341
69308W        W40837  10.631  13.146   3.323
69309W        W40838   4.403   7.853   3.270
69310W        W40839  18.806  34.293   4.975
69311W        W40840  19.144   8.265   1.861
69312W        W40841  20.075  26.955  13.388
69313W        W40842  16.136   4.080   3.305
69314W        W40843  37.940  17.159  10.540
69315W        W40844  20.107  14.985   5.077
69316W        W40845  23.447  28.164  12.996
69317W        W40846   9.917  44.948  13.079
69318W        W40847   5.654  27.491  12.205
69319W        W40848  38.442  37.540   1.265
69320W        W40849   6.989  28.092   1.427
69321W        W40850  29.094  33.160   1.502
69322W        W40851  17.362  13.130   4.715
69323W        W40852  22.640   4.742   2.900
69324W        W40853   0.918  33.729  14.555
69325W        W40854  26.407  38.395  11.605
69326W        W40855  41.275  28.879  14.424
69327W        W40856  24.152  12.924   3.612
69328W        W40857  27.571   4.953  13.904
69329W        W40858  32.131  11.261   0.891
69330W        W40859  42.106  31.716  10.749
69331W        W40860   5.202  12.713  10.676
69332W        W40861  16.171  13.678  14.542
69333W        W40862  30.294   6.877  12.584
69334W        W40863  44.698  31.089  14.611
69335W        W40864  18.668  37.046   0.042
69336W        W40865  33.664  12.674   4.237
69337W        W40866   0.517  35.179  12.111
69338W        W40867  34.094  33.034   2.471
69339W        W40868  18.521  24.683   1.904
69340W        W40869  18.018  11.805  13.391
69341W        W40870   1.553  25.809   2.431
69342W        W40871  32.968  37.829   1.895
69343W        W40872  37.949  19.685   1.420
69344W        W40873  25.470   7.228   0.817
69345W        W40874  23.514  22.800   1.709
69346W        W40875  28.459  22.582  11.593
69347W        W40876  17.997  34.145   4.547
69348W        W40877   5.736   8.356   3.354
69349W        W40878  39.981  14.345   3.237
69350W        W40879  39.526   9.687   1.521
69351W        W40880   9.338  30.461  12.784
69352W        W40881  30.442  30.777   0.896
69353W        W40882  39.198  21.073  11.068
69354W        W40883  37.424  22.388  12.613
69355W        W40884   2.954   7.133  13.040
69356W        W40885  44.773   3.477   1.642
69357W        W40886   1.908  32.944  12.575
69358W        W40887  34.593  32.025   1.813
69359W        W40888   1.223   1.969   1.914
69360W        W40889  13.221  11.903  12.478
69361W        W40890   2.234  21.073   3.036
69362W        W40891  25.177  43.315   2.242
69363W        W40892  30.019  12.809  13.370
69364W        W40893   8.150  20.186  11.341
69365W        W40894  41.362  22.804  10.688
69366W        W40895   3.791  24.304  11.915
69367W        W40896  42.949  14.642  14.799
69368W        W40897  27.683   7.695  12.172
69369W        W40898  39.097  14.628   0.011
69370W        W40899  17.686  41.355   2.214
69371W        W40900  30.626   8.681  13.869
69372W        W40901   3.880  31.187  10.612
69373W        W40902   8.655   9.807   1.180
69374W        W40903   0.869  43.641  14.831
69375W        W40904  26.755  29.511   2.710
69376W        W40905  37.254  11.395  11.064
69377W        W40906  34.360  28.037   3.067
69378W        W40907  10.662   4.226  14.483
69379W        W40908   1.519   1.063  11.642
69380W        W40909  42.084  42.529   1.187
69381W        W40910   5.609  37.602  14.453
69382W        W40911  35.361  27.604  13.694
69383W        W40912  27.243   9.106  11.119
69384W        W40913  24.135  41.007  14.109
69385W        W40914  23.883  40.649   3.709
69386W        W40915   8.860  34.461   1.681
69387W        W40916  24.936   9.692   0.560
69388W        W40917  35.727  12.851  12.013
69389W        W40918  15.268  22.258   0.243
69390W        W40919  18.854  20.133  12.433
69391W        W40920  41.020  22.743  14.517
69392W        W40921  34.241  22.248   3.957
69393W        W40922  38.612   1.265   2.676
69394W        W40923  22.148  19.076   4.105
69395W        W40924  31.694  37.927   1.386
69396W        W40925   1.035  34.993   4.147
69397W        W40926  20.798   0.212  14.370
69398W        W40927  28.419  31.365  12.365
69399W        W40928  25.930  43.832  11.480
69400W        W40929  35.849  29.582  13.674
69401W        W40930  42.272  28.594   3.040
69402W        W40931   3.836  10.752   0.313
69403W        W40932  11.175  15.118   4.756
69404W        W40933  43.003  16.988  11.630
69405W        W40934  24.489  11.079  14.914
69406W        W40935   6.928  43.325  12.487
69407W        W40936  34.861  40.676  11.178
69408W        W40937  11.631  17.182  10.359
69409W        W40938  44.255  44.374  12.043
69410W        W40939  28.842  37.055   4.948
69411W        W40940  26.721  18.285  13.517
69412W        W40941  32.838  43.824   3.253
69413W        W40942  42.445   2.208   0.311
69414W        W40943   8.688  38.102  11.184
69415W        W40944  11.742  11.600  14.815
69416W        W40945  19.121  41.396  14.299
69417W        W40946   4.507  36.872  10.758
69418W        W40947  40.313  21.943   1.194
69419W        W40948   7.804  31.825   9.980
69420W        W40949  37.458  34.517  11.966
69421W        W40950   0.760  32.901   1.793
69422W        W40951  29.338  40.208   2.906
69423W        W40952  22.241   2.749  12.486
69424W        W40953  16.010  20.036   3.174
69425W        W40954   8.317  35.575  11.883
69426W        W40955  19.308  31.632   3.255
69427W        W40956  25.362  20.646   2.769
69428W        W40957  12.147  43.255   4.605
69429W        W40958  22.570   4.506   1.459
69430W        W40959   5.671  42.197   0.827
69431W        W40960  36.521  31.356   0.927
69432W        W40961  11.889  12.790   4.028
69433W        W40962   0.089  35.025  10.687
69434W        W40963  30.129  28.050  11.536
69435W        W40964  44.717  31.809  11.188
69436W        W40965  22.514  22.499   3.121
69437W        W40966  40.975  12.228   2.643
69438W        W40967  20.585  21.938  12.192
69439W        W40968  26.132  43.293  14.183
69440W        W40969  14.718   8.952   0.958
69441W        W40970  32.138   1.183   1.522
69442W        W40971   3.002  35.163   3.666
69443W        W40972  37.412   9.255  11.170
69444W        W40973   0.849  42.994   4.211
69445W        W40974   0.808  26.674   4.185
69446W        W40975  38.276   7.004  11.901
69447W        W40976  35.378  10.346   4.428
69448W        W40977  24.415  22.957   3.106
69449W        W40978  42.295  14.629   2.871
69450W        W40979   1.770  25.726   1.976
69451W        W40980  40.128   2.916   1.809
69452W        W40981  24.623  16.343  13.880
69453W        W40982   7.414  28.344   3.985
69454W        W40983  22.178  33.077   0.817
69455W        W40984  11.327   6.679   2.363
69456W        W40985  32.730  33.494   0.879
69457W        W40986  37.873  28.631   1.162
69458W        W40987  20.742   6.428  12.606
69459W        W40988   9.866   1.771   3.766
69460W        W40989  22.681  35.769   2.803
69461W        W40990   4.003  27.282  10.993
69462W        W40991  30.513  37.003  14.603
69463W        W40992   6.222  21.446   0.827
69464W        W40993  18.920  15.600   3.236
69465W        W40994  23.671  41.363   4.156
69466W        W40995  43.191  39.851   4.285
69467W        W40996  11.678   4.918  11.172
69468W        W40997  28.027  19.462   2.802
69469W        W40998   2.799  22.394  11.164
69470W        W40999  27.241  22.548   3.307
69471W        W41000  33.448  19.281  14.984
69472W        W41001   8.626  40.813   3.685
69473W        W41002  32.978  34.966   4.924
69474W        W41003  41.087  29.273  11.173
69475W        W41004  41.063  18.324  10.741
69476W        W41005  30.701  35.794  11.964
69477W        W41006  34.451  37.127  11.604
69478W        W41007   4.653  25.624  12.510
69479W        W41008  34.356   9.888  13.338
69480W        W41009  37.837   9.650   3.144
69481W        W41010   6.318  35.004  13.569
69482W        W41011  19.805  16.842  14.931
69483W        W41012  17.622   1.029  11.505
69484W        W41013  17.271  41.916   4.645
69485W        W41014  31.633  21.097  14.787
69486W        W41015  40.231  40.110   5.145
69487W        W41016  20.520  39.836  11.619
69488W        W41017  44.320  25.501  11.196
69489W        W41018   6.481  35.275  12.231
69490W        W41019   7.210  37.357  11.565
69491W        W41020   8.983  16.806  11.930
69492W        W41021   5.418  24.625   2.484
69493W        W41022  18.449  15.558   0.095
69494W        W41023  30.934  12.780  11.973
69495W        W41024  36.345  32.465   1.754
69496W        W41025  41.334  31.071  13.541
69497W        W41026  10.824  26.970   1.180
69498W        W41027  42.744  33.580  14.105
69499W        W41028  18.681  20.610   4.056
69500W        W41029  42.001  37.985   1.824
69501W        W41030  31.992   1.917   0.816
69502W        W41031   2.516  43.379   1.394
69503W        W41032  16.062  35.135   2.711
69504W        W41033  19.682  26.761  14.067
69505W        W41034  10.158  19.123   4.710
69506W        W41035  17.889  42.463   0.837
69507W        W41036  40.285  15.809  13.884
69508W        W41037  32.108  36.818  12.380
69509W        W41038   7.298  43.744  10.697
69510W        W41039  13.319  31.951   2.903
69511W        W41040  43.891  37.977  11.710
69512W        W41041  38.329   7.613  11.127
69513W        W41042   9.836  17.139  13.492
69514W        W41043  28.362  32.301   9.826
69515W        W41044  36.064   8.186   0.615
69516W        W41045   6.933  21.646  12.888
69517W        W41046  10.379   8.329   3.220
69518W        W41047   4.324  31.886  13.416
69519W        W41048   4.537  10.318   0.857
69520W        W41049  32.031  17.156   2.293
69521W        W41050  12.599   2.802  12.357
69522W        W41051  22.036  40.869  14.874
69523W        W41052  34.889  29.679  13.338
69524W        W41053   4.470   5.401  13.298
69525W        W41054  15.707  36.919  11.755
69526W        W41055  32.165  21.642  13.786
69527W        W41056  13.898  38.554   2.886
69528W        W41057  26.560  27.727  12.108
69529W        W41058  43.392  36.339   1.841
69530W        W41059   8.412  25.622   4.707
69531W        W41060  15.252   4.394  14.547
69532W        W41061  43.807  39.088   3.832
69533W        W41062  10.661  44.763   4.085
69534W        W41063  22.031  19.621   0.302
69535W        W41064  17.020  12.905   0.449
69536W        W41065  29.845   7.442  11.231
69537W        W41066   4.620  21.687   1.222
69538W        W41067  39.011  27.601   1.715
69539W        W41068  34.582  15.416  12.511
69540W        W41069  11.933  10.737   0.287
69541W        W41070   3.346  40.631  10.836
69542W        W41071  23.921  41.476   2.793
69543W        W41072  14.224   2.085   3.302
69544W        W41073  12.445  22.702  10.887
69545W        W41074  42.378  13.586  12.660
69546W        W41075  37.256   0.443   4.551
69547W        W41076  19.291  11.182  14.493
69548W        W41077  23.938  34.555  12.921
69549W        W41078  20.516   2.334  10.672
69550W        W41079  21.736  15.689   1.266
69551W        W41080  43.749  30.395  12.947
69552W        W41081  13.277  26.791  12.482
69553W        W41082  33.360  20.634   4.324
69554W        W41083  24.020  23.832   5.028
69555W        W41084  19.121  34.137  13.846
69556W        W41085  31.470   6.177   1.425
69557W        W41086  30.095   4.737  14.235
69558W        W41087  31.609  35.032   2.234
69559W        W41088  34.067  38.247   0.374
69560W        W41089  15.161  32.348  11.996
69561W        W41090  14.350  20.523   0.925
69562W        W41091  17.734  36.094   1.292
69563W        W41092  43.288  35.960  12.804
69564W        W41093  23.726  44.706  15.000
69565W        W41094  19.655  23.501   2.795
69566W        W41095  16.395  37.389  12.400
69567W        W41096  18.340  34.483   2.182
69568W        W41097  13.161  12.998  11.200
69569W        W41098  11.201   6.182   4.107
69570W        W41099   6.354  14.359  13.393
69571W        W41100  40.596  44.348  14.360
69572W        W41101  41.857  39.633   0.677
69573W        W41102  15.382  23.545  14.593
69574W        W41103  35.530  32.874   0.724
69575W        W41104   6.662  25.995  14.457
69576W        W41105  23.974  15.290   3.885
69577W        W41106  21.848  19.610   5.228
69578W        W41107  33.522  30.189   3.271
69579W        W41108  11.106   9.253   1.239
69580W        W41109  33.716  41.076   0.323
69581W        W41110  25.983   6.315   3.462
69582W        W41111  27.970  27.681  13.088
69583W        W41112  25.172  18.194  14.291
69584W        W41113   7.758  43.498   0.799
69585W        W41114  12.573  38.528   4.519
69586W        W41115   7.897  14.761  11.163
69587W        W41116   6.805  29.644   4.610
69588W        W41117   7.259  27.219   0.462
69589W        W41118  25.914  29.661   2.340
69590W        W41119  19.183  20.090  12.836
69591W        W41120  12.380  43.187   1.271
69592W        W41121   6.890  37.993  12.445
69593W        W41122  23.729  39.161   4.614
69594W        W41123  37.349  19.707  14.385
69595W        W41124  20.671  37.520  12.000
69596W        W41125  15.607  22.807   1.719
69597W        W41126  44.067  25.813   4.175
69598W        W41127   2.709  30.151   4.103
69599W        W41128  23.724   6.642  10.715
69600W        W41129  35.323  20.358   2.637
69601W        W41130  28.512  17.606  12.788
69602W        W41131   8.445   2.349  10.342
69603W        W41132  13.350  29.852  14.897
69604W        W41133  42.356   4.670   0.931
69605W        W41134  24.264  16.230  12.918
69606W        W41135  32.602   0.584  12.264
69607W        W41136  33.454  22.071   1.218
69608W        W41137  32.990  44.992  12.822
69609W        W41138  11.598  12.704   3.580
69610W        W41139  42.457  22.030   2.403
69611W        W41140  21.222  43.076  11.730
69612W        W41141  31.185  21.595   0.525
69613W        W41142  19.544   6.448  11.624
69614W        W41143   3.151  36.381  13.731
69615W        W41144   2.979   4.971  10.497
69616W        W41145  26.945  22.327   0.480
69617W        W41146  34.923  40.105   3.163
69618W        W41147  35.045  44.535  10.174
69619W        W41148   0.269  15.290   4.043
69620W        W41149  16.619  38.873  13.311
69621W        W41150  34.738   1.910  12.930
69622W        W41151  28.633  21.419   4.642
69623W        W41152  15.834  10.041   5.011
69624W        W41153  44.235  32.660  11.966
69625W        W41154   3.920  10.218  12.851
69626W        W41155  12.081   9.276  12.106
69627W        W41156  17.723   1.745   4.763
69628W        W41157  24.073  10.044  12.917
69629W        W41158  32.848  39.070  14.512
69630W        W41159  30.059  11.658   2.631
69631W        W41160  23.007  37.446   4.060
69632W        W41161  11.628  18.280  13.466
69633W        W41162  38.840  34.072  10.774
69634W        W41163  30.252  41.047   3.976
69635W        W41164   2.197  31.113  11.047
69636W        W41165  40.393  18.073  14.063
69637W        W41166  12.703  20.653   3.354
69638W        W41167   0.789  30.605   4.276
69639W        W41168  12.045  17.300  10.668
69640W        W41169  30.525  24.110  11.094
69641W        W41170  10.114  16.137   1.303
69642W        W41171   2.319  13.132  13.106
69643W        W41172   6.967  21.691   5.596
69644W        W41173  33.911  12.184   2.305
69645W        W41174   6.318  18.985   0.271
69646W        W41175  18.204  10.483  10.603
69647W        W41176   6.834  35.518   0.308
69648W        W41177  39.499  41.229   0.322
69649W        W41178   9.271  44.893   1.740
69650W        W41179   9.060  35.508  14.861
69651W        W41180   7.259  39.328   4.071
69652W        W41181  39.760  23.950   3.329
69653W        W41182  40.287  35.309   3.662
69654W        W41183  23.031  44.535   1.770
69655W        W41184  28.051  22.438   1.410
69656W        W41185  29.106  25.698  13.923
69657W        W41186  22.286  20.740   4.692
69658W        W41187  42.351   1.183  10.683
69659W        W41188  36.054  33.038  10.436
69660W        W41189  26.184  19.747   1.364
69661W        W41190   5.479  27.079   0.885
69662W        W41191  14.562  12.180  10.680
69663W        W41192  22.840  36.319  12.625
69664W        W41193  33.952   6.787  13.093
69665W        W41194  18.749  43.492  13.027
69666W        W41195  36.090  29.993   3.639
69667W        W41196  28.472  37.947   1.484
69668W        W41197  13.275  17.199   0.393
69669W        W41198  43.418  41.318  12.426
69670W        W41199  36.307  17.987  10.952
69671W        W41200   8.833  25.073  13.779
69672W        W41201  31.881  24.671  13.444
69673W        W41202  40.025  39.928  11.208
69674W        W41203  11.873  35.014  14.507
69675W        W41204   2.759  23.128  13.111
69676W        W41205   1.551  27.528  10.652
69677W        W41206  29.605  40.390   0.312
69678W        W41207   9.604  38.532  13.862
69679W        W41208  14.546   9.273  12.909
69680W        W41209   7.620   8.761   3.170
69681W        W41210  23.452  10.334   2.509
69682W        W41211  16.743  15.353  14.684
69683W        W41212   1.108  11.422  12.510
69684W        W41213  25.236   3.762   0.137
69685W        W41214  20.666   2.758   0.179
69686W        W41215  41.452  12.185   2.845
69687W        W41216  34.067  31.869  11.635
69688W        W41217   8.290  15.783  11.893
69689W        W41218  34.676   5.308   3.861
69690W        W41219   0.907   3.284   1.959
69691W        W41220   8.985  32.910   4.126
69692W        W41221  15.211   2.114   2.189
69693W        W41222  44.396  16.308  12.490
69694W        W41223  20.300  24.846  13.095
69695W        W41224   7.600  14.153  12.909
69696W        W41225  14.612  35.279   1.592
69697W        W41226  32.031   8.303  14.800
69698W        W41227   1.488  25.019   4.930
69699W        W41228  26.237  15.877   1.740
69700W        W41229  13.895  19.236   4.827
69701W        W41230  31.843  28.192   0.894
69702W        W41231   6.676  14.095   3.627
69703W        W41232  41.266   1.210  13.494
69704W        W41233  17.056  18.087   2.173
69705W        W41234  22.607  20.768  10.684
69706W        W41235   8.694  27.121   4.526
69707W        W41236  30.574   5.875   3.922
69708W        W41237  32.557  14.690   2.475
69709W        W41238   7.554   9.884  14.838
69710W        W41239  29.316  21.131  10.293
69711W        W41240  19.986  44.862  14.766
69712W        W41241   5.630  11.184  11.844
69713W        W41242   9.331  29.883  11.143
69714W        W41243  15.200  34.382   1.976
69715W        W41244  18.216  17.847   3.300
69716W        W41245  23.181  24.984  11.774
69717W        W41246  11.039   0.516   3.916
69718W        W41247  19.937  35.282  13.568
69719W        W41248  34.031  10.081   3.666
69720W        W41249  17.190   7.167   2.274
69721W        W41250  38.181  10.799   2.669
69722W        W41251  10.194   3.053   3.816
69723W        W41252   8.395  35.159   4.594
69724W        W41253   4.850  44.055  10.722
69725W        W41254   3.416   5.756  12.981
69726W        W41255  44.513  43.008  13.341
69727W        W41256  19.667  33.193   4.672
69728W        W41257  43.697   8.607  12.556
69729W        W41258  40.560  16.097  11.241
69730W        W41259  11.687   8.366  13.001
69731W        W41260  35.093  36.803  10.547
69732W        W41261  40.103  14.908  13.248
69733W        W41262   0.833  10.304   1.045
69734W        W41263  17.980  16.815  13.651
69735W        W41264  11.207  16.372   4.314
69736W        W41265  32.611  42.053  12.920
69737W        W41266  36.847   6.373  11.744
69738W        W41267  37.065  35.416  13.708
69739W        W41268   6.482   6.477   3.541
69740W        W41269  33.573   1.700   3.857
69741W        W41270  40.492   3.406  13.360
69742W        W41271  34.530  16.930   0.420
69743W        W41272  25.722  29.243  14.892
69744W        W41273  30.091  34.426   2.814
69745W        W41274  25.262   5.026   4.953
69746W        W41275  15.324  41.076  11.677
69747W        W41276  19.365  11.642  12.527
69748W        W41277  33.766  23.115  12.482
69749W        W41278  25.490  29.202  13.058
69750W        W41279  41.251  16.199  13.796
69751W        W41280   5.675  40.262   0.970
69752W        W41281  43.518  22.294   0.102
69753W        W41282  24.964  13.787  13.039
69754W        W41283  18.634  34.374  12.958
69755W        W41284  25.267   5.862   3.306
69756W        W41285   0.389  39.985   0.938
69757W        W41286   0.982  15.896   0.075
69758W        W41287  21.378  24.391   2.885
69759W        W41288  20.027  43.538   1.250
69760W        W41289  21.654  40.273  14.255
69761W        W41290  38.392  24.460   3.049
69762W        W41291  19.120   5.117  14.853
69763W        W41292   7.378  31.952   3.851
69764W        W41293  38.805  41.833   3.311
69765W        W41294  22.730   9.744   1.844
69766W        W41295  16.862  13.360  12.379
69767W        W41296  17.946  28.588   3.060
69768W        W41297  44.464  20.023  13.098
69769W        W41298  19.258   9.160   2.734
69770W        W41299  10.069  31.793   0.947
69771W        W41300  15.888  33.579  14.429
69772W        W41301  27.428  29.903  12.049
69773W        W41302   7.834  16.059  13.931
69774W        W41303  39.392  13.064   4.103
69775W        W41304   3.722  22.226  12.456
69776W        W41305  42.718   3.484  10.791
69777W        W41306  13.094   1.647  11.309
69778W        W41307  18.369  37.421   5.038
69779W        W41308  33.080  12.861   0.369
69780W        W41309   3.644  10.853  11.155
69781W        W41310  26.158  20.986   4.213
69782W        W41311   9.426   6.354   3.783
69783W        W41312   7.996   1.894   3.846
69784W        W41313  30.573  21.010  10.681
69785W        W41314  12.836  34.353  12.537
69786W        W41315   8.820   0.348   4.328
69787W        W41316  38.735  33.942  14.564
69788W        W41317  33.332   1.294   4.088
69789W        W41318  41.552  42.156  12.904
69790W        W41319   6.107  36.584  14.259
69791W        W41320  26.050   1.528   4.445
69792W        W41321   5.211  43.395   2.886
69793W        W41322  30.058  38.381  11.928
69794W        W41323  20.537  24.406   4.298
69795W        W41324  11.940   0.606   2.842
69796W        W41325  28.827   0.523  14.999
69797W        W41326  23.401  16.126   4.495
69798W        W41327  16.769  20.126   0.922
69799W        W41328   5.039   2.694  13.266
69800W        W41329   1.727  32.485   4.584
69801W        W41330   8.802  12.837  14.484
69802W        W41331   4.835  43.285   1.747
69803W        W41332  22.475  41.613  12.572
69804W        W41333  33.532  28.105   0.475
69805W        W41334  26.358  16.743   2.150
69806W        W41335  22.322   7.452   2.733
69807W        W41336  22.762  22.087  10.069
69808W        W41337  26.049  11.826   1.028
69809W        W41338  37.878  31.455   1.423
69810W        W41339  10.871   1.935   1.848
69811W        W41340  10.145   4.988  13.671
69812W        W41341  19.369  14.760   4.247
69813W        W41342  11.798  11.929  12.508
69814W        W41343   5.739  20.143  14.467
69815W        W41344  32.558   9.584   2.262
69816W        W41345  33.634  34.107   4.693
69817W        W41346   6.406  14.188   0.698
69818W        W41347  39.862  10.915   2.019
69819W        W41348   8.619  35.859  11.551
69820W        W41349  27.778   2.258   2.341
69821W        W41350  26.938   4.343  12.501
69822W        W41351  31.584   5.465   0.836
69823W        W41352  38.393  23.726   4.550
69824W        W41353  29.512  32.337   0.651
69825W        W41354  37.430  30.283  11.749
69826W        W41355  25.628  35.525   2.114
69827W        W41356  44.788  31.178  14.101
69828W        W41357  21.640   9.437   1.583
69829W        W41358  20.563  32.389   3.799
69830W        W41359  19.622  28.590   1.508
69831W        W41360  39.962   9.218   3.767
69832W        W41361  43.024   1.270   4.284
69833W        W41362  27.767   4.128   2.681
69834W        W41363   9.698  22.612  12.510
69835W        W41364  25.170  18.743   2.446
69836W        W41365  19.553  11.588  13.014
69837W        W41366  30.530  20.628  14.739
69838W        W41367   6.908  11.672   2.220
69839W        W41368   8.452  33.608  12.930
69840W        W41369  21.295  35.967  13.482
69841W        W41370   6.655  36.365  14.906
69842W        W41371  40.956  13.868   0.835
69843W        W41372  22.720  21.083  13.835
69844W        W41373  21.815   2.251   3.387
69845W        W41374  36.061  11.798   1.797
69846W        W41375   2.726  18.303  14.535
69847W        W41376  10.247   3.447  11.000
69848W        W41377  12.701  28.635  12.612
69849W        W41378  35.554  16.627   2.652
69850W        W41379  43.939   3.826  10.647
69851W        W41380  15.636  40.877  12.100
69852W        W41381  21.574  27.680   3.661
69853W        W41382   0.686  33.980   0.539
69854W        W41383  20.390  40.631  11.133
69855W        W41384  31.723  40.404  12.158
69856W        W41385  44.523   7.383   2.159
69857W        W41386   0.450  16.057   4.476
69858W        W41387   8.307  33.869   2.345
69859W        W41388  23.260  42.200  13.898
69860W        W41389   9.184   4.765  11.649
69861W        W41390  20.129  43.933   0.298
69862W        W41391  27.543  36.048   4.552
69863W        W41392  30.120  26.662   1.367
69864W        W41393  26.464  29.962   0.741
69865W        W41394  21.172  22.164   3.075
69866W        W41395  10.554   5.327  11.651
69867W        W41396   6.422  23.071   3.758
69868W        W41397  31.633  41.502  10.659
69869W        W41398  17.727  19.910   9.908
69870W        W41399   5.405  25.207   0.817
69871W        W41400  27.860  10.747   0.537
69872W        W41401  21.055  38.321   4.991
69873W        W41402   6.386  21.959  12.522
69874W        W41403   4.318  13.724   3.684
69875W        W41404  42.844  13.111  13.885
69876W        W41405  32.507  18.185   3.878
69877W        W41406  31.631   0.336  11.171
69878W        W41407  28.608  29.892   4.519
69879W        W41408  37.708  35.724   1.788
69880W        W41409  33.617  28.714   0.725
69881W        W41410  11.331  39.829  11.953
69882W        W41411  20.559   5.490  13.843
69883W        W41412  31.881  19.803  14.939
69884W        W41413  44.778  39.584   3.926
69885W        W41414  36.063   4.517  13.595
69886W        W41415  37.734   4.440  13.284
69887W        W41416  33.074  32.549   1.769
69888W        W41417   2.233  37.026   2.958
69889W        W41418  38.421  22.564   2.775
69890W        W41419  32.848  41.294  13.075
69891W        W41420  29.873  30.590   0.032
69892W        W41421  37.783   8.352  11.286
69893W        W41422  27.550   2.544   0.288
69894W        W41423  21.201  13.359  13.208
69895W        W41424  28.055   7.179  10.576
69896W        W41425  22.309  24.503   2.102
69897W        W41426  21.268  44.837   9.876
69898W        W41427  23.942  15.758  12.952
69899W        W41428   9.920  38.015   0.031
69900W        W41429   9.256   0.111  13.370
69901W        W41430  11.602   9.197   4.581
69902W        W41431  43.460  37.377   3.310
69903W        W41432   5.664  35.410   3.539
69904W        W41433  27.508  19.305  13.357
69905W        W41434   7.131  41.531  10.686
69906W        W41435  11.162  28.018   3.843
69907W        W41436   3.905   3.760  13.561
69908W        W41437  44.687  38.028   2.683
69909W        W41438   0.255   8.295  12.519
69910W        W41439  43.394   0.316   0.711
69911W        W41440  25.907  24.227  10.720
69912W        W41441  18.205  22.668  11.065
69913W        W41442  16.889   4.199   1.209
69914W        W41443  41.937  25.328   3.574
69915W        W41444  17.108  19.505   4.882
69916W        W41445  20.617   2.104   3.493
69917W        W41446  14.809  44.328   2.259
69918W        W41447   0.009  10.445   3.879
69919W        W41448  39.967   2.370  11.608
69920W        W41449  37.325  22.896  12.509
69921W        W41450  36.485  32.773  11.779
69922W        W41451  22.575   9.736  10.397
69923W        W41452  10.837  34.927  13.600
69924W        W41453  14.778   0.642  12.886
69925W        W41454  22.515   1.304  10.137
69926W        W41455  39.535   0.972   3.093
69927W        W41456  22.571  22.714  12.990
69928W        W41457  31.472  37.124  10.714
69929W        W41458  16.492  34.369   2.419
69930W        W41459   0.186  30.877   2.300
69931W        W41460  15.577   8.288  11.494
69932W        W41461  23.399  12.681  14.871
69933W        W41462  19.498  19.763  14.025
69934W        W41463  11.802  28.383   5.004
69935W        W41464  14.596  29.856  13.419
69936W        W41465  44.087  32.971   4.496
69937W        W41466   3.382  31.184   0.328
69938W        W41467   5.297   4.984   2.860
69939W        W41468  37.480   7.359   0.297
69940W        W41469  24.047  27.638   2.460
69941W        W41470   7.180  44.433  11.202
69942W        W41471  31.283  34.844  12.861
69943W        W41472  24.123  25.034  11.566
69944W        W41473  25.628  26.947  10.717
69945W        W41474  41.861  24.762   3.909
69946W        W41475   6.859  26.923  12.582
69947W        W41476  40.559  30.159   0.279
69948W        W41477   3.252   7.196   0.201
69949W        W41478  38.305  20.465  12.333
69950W        W41479   9.629  43.919  11.878
69951W        W41480  21.808   7.382  13.993
69952W        W41481  32.056  30.988   4.180
69953W        W41482  33.742  35.796   0.485
69954W        W41483  11.628   6.408   3.160
69955W        W41484  29.423  11.164  13.412
69956W        W41485   7.037  30.972   4.757
69957W        W41486   4.714  24.065  12.410
69958W        W41487  41.150   2.817  12.003
69959W        W41488  13.078  33.980  11.045
69960W        W41489  23.919   3.036   3.305
69961W        W41490  23.008   0.519  11.180
69962W        W41491  20.085  25.060  10.955
69963W        W41492  33.189  40.184  11.137
69964W        W41493   1.919   8.121   1.858
69965W        W41494  19.886  33.847  11.463
69966W        W41495   2.747  33.549   3.598
69967W        W41496  35.470  21.331  13.012
69968W        W41497  28.198  38.414  13.980
69969W        W41498  42.608  33.097  13.378
69970W        W41499  25.160  14.510   1.632
69971W        W41500  36.093  40.782  12.444
69972W        W41501  17.216  34.655   3.076
69973W        W41502  42.074  25.604  12.507
69974W        W41503  35.083  11.690   3.935
69975W        W41504  38.048   4.203   4.702
69976W        W41505  19.496  38.967  12.128
69977W        W41506  22.945  25.110  14.746
69978W        W41507  14.157   2.141  11.916
69979W        W41508  32.371  22.127  13.780
69980W        W41509  27.979  44.736   0.241
69981W        W41510  14.295   7.392   2.412
69982W        W41511  39.997  23.922  11.574
69983W        W41512   2.055  20.689  12.002
69984W        W41513  14.853  33.451   0.226
69985W        W41514  34.645  33.007   4.800
69986W        W41515  24.057   3.766   1.006
69987W        W41516   6.421  29.599   3.240
69988W        W41517   8.736  25.241   3.437
69989W        W41518  40.082  29.006  13.305
69990W        W41519  24.851   3.737   1.406
69991W        W41520  44.499  42.501  13.467
69992W        W41521  18.710  35.311   2.164
69993W        W41522  40.263   7.171  14.488
69994W        W41523  27.986  22.329  12.706
69995W        W41524  36.466  16.593   2.895
69996W        W41525  18.768   0.764   1.323
69997W        W41526  21.618  29.917   1.762
69998W        W41527  22.369  22.583  13.961
69999W        W41528  17.986   3.011   1.932
70000W        W41529  39.405  30.520   2.355
70001W        W41530   7.602  28.209   3.522
70002W        W41531  39.905  29.601   1.763
70003W        W41532  27.657  36.450  12.110
70004W        W41533  32.373  29.653   4.106
70005W        W41534  36.087  25.724  14.930
70006W        W41535  44.502  11.881  14.593
70007W        W41536  44.609   4.889   0.431
70008W        W41537  36.376  36.930   2.345
70009W        W41538   8.294   3.843   3.170
70010W        W41539   4.878  24.470  11.032
70011W        W41540  43.039   2.295   2.824
70012W        W41541   6.650  22.786  14.272
70013W        W41542  11.622  24.551   4.455
70014W        W41543   2.936  33.343   1.825
70015W        W41544  20.795  23.672   1.802
70016W        W41545   4.220  38.815   0.428
70017W        W41546   4.294  14.209  13.994
70018W        W41547  22.337  27.894   2.659
70019W        W41548  40.212  39.198  12.916
70020W        W41549  41.832  22.490   2.346
70021W        W41550  15.599   9.554   0.309
70022W        W41551   9.920  36.049   4.207
70023W        W41552  27.512  31.894  13.664
70024W        W41553   2.601  28.713  13.618
70025W        W41554  12.331  29.237   4.524
70026W        W41555  13.706   6.618  14.520
70027W        W41556   9.724  40.603   4.198
70028W        W41557  39.862  12.584  12.205
70029W        W41558   0.747  24.750  12.977
70030W        W41559  39.838  30.080   3.046
70031W        W41560  39.038  29.879   2.712
70032W        W41561  12.299  27.575  11.687
70033W        W41562  42.327   3.376   0.926
70034W        W41563   2.334  35.422  11.139
70035W        W41564  41.883  32.926   1.317
70036W        W41565   7.733  44.993   1.132
70037W        W41566  35.286  23.152   1.342
70038W        W41567  43.014  41.319  13.537
70039W        W41568   5.017  20.344  12.933
70040W        W41569  14.792  41.750  12.979
70041W        W41570   8.658  15.719   3.263
70042W        W41571  17.016  19.803   1.677
70043W        W41572   5.660  20.148  11.546
70044W        W41573   0.018  44.107   2.399
70045W        W41574  22.671  17.859  13.555
70046W        W41575  32.602   4.141   2.757
70047W        W41576  23.997  10.809   0.002
70048W        W41577  42.726  13.182   2.404
70049W        W41578  13.666   8.303   3.146
70050W        W41579  21.201  10.413   3.676
70051W        W41580  28.502  44.452   3.866
70052W        W41581  12.683  37.089  10.577
70053W        W41582  41.914  24.048   1.331
70054W        W41583  22.677  10.608   2.733
70055W        W41584  43.744  10.174   1.249
70056W        W41585  29.546  32.688   2.247
70057W        W41586  17.068  16.179   4.365
70058W        W41587  14.121  34.310  11.821
70059W        W41588  12.563  32.979  13.578
70060W        W41589  29.887  11.063   4.118
70061W        W41590  16.839  14.230   1.550
70062W        W41591   8.383   0.863   3.707
70063W        W41592  26.931  38.504  12.836
70064W        W41593   7.393  29.131   3.004
70065W        W41594   1.516   3.834   3.673
70066W        W41595  28.130  37.993  11.601
70067W        W41596  23.214   4.131  13.931
70068W        W41597  30.538  44.975   4.512
70069W        W41598  37.530  33.945  11.573
70070W        W41599  13.695  17.278   0.072
70071W        W41600  15.675  40.938   2.566
70072W        W41601   6.932  13.507   0.364
70073W        W41602  12.846  37.643   5.049
70074W        W41603   1.224   5.000  11.624
70075W        W41604   1.478  18.019   1.430
70076W        W41605   8.731  31.360   1.758
70077W        W41606  38.813  16.538  10.130
70078W        W41607   6.251   8.833  14.468
70079W        W41608   5.154  43.184   0.041
70080W        W41609  32.614  12.922   1.495
70081W        W41610  15.729  28.419   1.448
70082W        W41611  23.087  25.029  13.090
70083W        W41612  35.987  15.811  11.110
70084W        W41613  15.657  10.802  10.002
70085W        W41614   4.278  30.282  12.942
70086W        W41615  41.249   6.802  14.218
70087W        W41616  37.109  22.042   2.751
70088W        W41617  41.470   3.038   2.011
70089W        W41618   1.210  24.241  12.405
70090W        W41619  26.041  26.187   2.794
70091W        W41620  12.734   0.487  12.473
70092W        W41621  26.481  41.582   3.511
70093W        W41622  36.104  12.643   2.361
70094W        W41623  37.979  12.429  12.023
70095W        W41624  21.438  14.430  13.912
70096W        W41625   3.787  31.145  12.667
70097W        W41626  20.456  23.237   2.946
70098W        W41627  20.715   4.244  10.858
70099W        W41628  25.449  19.294  13.332
70100W        W41629   5.988  30.901  11.120
70101W        W41630  13.451  19.954  12.504
70102W        W41631  21.122  30.886   2.839
70103W        W41632  41.060  40.917  10.974
70104W        W41633  24.728  43.032   2.262
70105W        W41634   9.337  24.510   3.886
70106W        W41635  41.284  43.399   2.181
70107W        W41636   8.774  11.338   0.368
70108W        W41637  14.913  24.612  12.399
70109W        W41638  26.755  11.761   0.378
70110W        W41639  14.486  34.952  13.749
70111W        W41640   7.847   3.753  12.550
70112W        W41641   7.108  28.392  14.982
70113W        W41642  17.944  44.423   3.152
70114W        W41643  43.434  22.792   0.328
70115W        W41644  22.093  38.573   4.025
70116W        W41645  18.116  22.678  12.543
70117W        W41646   1.810  26.938  11.439
70118W        W41647  28.504   7.819   1.755
70119W        W41648  44.271   8.010  11.122
70120W        W41649  33.586   9.375  10.777
70121W        W41650   3.626  27.939   0.396
70122W        W41651  27.128  36.607  12.966
70123W        W41652  15.706  15.279   4.574
70124W        W41653  24.109  41.753   4.827
70125W        W41654  18.556  41.273  13.274
70126W        W41655  10.231  29.216  10.839
70127W        W41656  31.045  14.673   1.454
70128W        W41657  31.353  24.411   4.958
70129W        W41658  12.783  28.973  10.816
70130W        W41659   1.299  10.784  13.607
70131W        W41660  10.361  32.818   0.885
70132W        W41661   0.701  25.940  14.093
70133W        W41662   5.000  30.100  12.416
70134W        W41663  15.498  13.116   2.302
70135W        W41664  39.982  39.086  11.706
70136W        W41665  21.593  24.983   5.078
70137W        W41666  44.308   5.816   2.733
70138W        W41667  34.721  38.104  13.111
70139W        W41668  30.239  20.125  12.067
70140W        W41669  26.161  25.512  11.042
70141W        W41670   4.397   0.243  12.142
70142W        W41671  32.876  40.737  13.064
70143W        W41672   9.221  32.206  13.865
70144W        W41673  42.872  30.562   0.202
70145W        W41674  22.008  17.771  14.261
70146W        W41675   5.291  27.561  10.439
70147W        W41676   2.012  24.654  13.429
70148W        W41677   7.614  22.512   1.766
70149W        W41678  42.483  16.558  14.978
70150W        W41679  10.425  34.986   2.862
70151W        W41680   4.266  41.785   2.303
70152W        W41681  23.187   3.524  12.083
70153W        W41682   7.702  14.030   1.332
70154W        W41683  34.493   9.828   3.699
70155W        W41684  16.988  29.445   3.671
70156W        W41685  25.151   5.362   3.115
70157W        W41686  15.271  13.687   1.083
70158W        W41687  30.491   3.416  10.717
70159W        W41688  14.718  25.308  11.700
70160W        W41689  27.225  10.981  11.170
70161W        W41690  36.071  18.322  14.468
70162W        W41691  43.299  14.002  11.135
70163W        W41692   3.417  15.089   3.160
70164W        W41693  21.518  17.633  13.150
70165W        W41694   8.950  41.801  10.769
70166W        W41695  28.969   6.008   3.177
70167W        W41696   6.160  41.625  11.699
70168W        W41697  29.174  10.688  13.371
70169W        W41698  39.774  24.709   2.821
70170W        W41699  26.668  42.343   3.180
70171W        W41700  40.784  36.545  11.991
70172W        W41701  29.291  18.146  11.514
70173W        W41702  19.487  22.231   4.774
70174W        W41703   4.994  40.818  11.519
70175W        W41704  19.440  19.224   2.857
70176W        W41705  33.928  11.674  12.624
70177W        W41706  39.448  12.048   3.088
70178W        W41707  26.567  26.436  14.390
70179W        W41708  11.777  18.644   0.728
70180W        W41709  30.391   3.647   3.304
70181W        W41710  44.213  40.040   4.110
70182W        W41711  22.712  17.243   4.049
70183W        W41712  38.626  43.678   4.534
70184W        W41713  39.564  22.105  12.486
70185W        W41714   6.666   7.939   3.168
70186W        W41715  32.403  44.402   4.552
70187W        W41716  27.588  18.490  10.773
70188W        W41717  21.987  23.224   2.654
70189W        W41718   3.858  39.750  12.628
70190W        W41719  32.422  32.692  14.758
70191W        W41720  31.057   4.005  11.749
70192W        W41721   4.454  16.064   1.735
70193W        W41722  11.597  44.515   4.032
70194W        W41723  21.396  18.919   0.436
70195W        W41724  36.387  18.664  13.597
70196W        W41725   4.380   9.141  14.479
70197W        W41726  21.793  35.300  12.399
70198W        W41727  14.723   4.587  13.318
70199W        W41728   1.870   7.123   3.995
70200W        W41729  39.607   5.881   2.751
70201W        W41730  27.204  41.949   2.712
70202W        W41731  29.607  36.541   0.677
70203W        W41732   6.855  18.477  10.796
70204W        W41733  28.346  13.586  11.949
70205W        W41734  35.288  22.497  12.028
70206W        W41735  41.548  26.093  13.326
70207W        W41736  33.479  44.496   4.610
70208W        W41737  24.081  40.307  14.427
70209W        W41738  25.311  23.331  11.103
70210W        W41739   4.312  38.572   0.920
70211W        W41740  30.872  23.132   2.890
70212W        W41741  29.922  32.701  13.962
70213W        W41742  17.360  35.491  10.720
70214W        W41743  39.637  16.133  11.118
70215W        W41744  36.587   2.679   3.214
70216W        W41745  23.760   9.131   2.167
70217W        W41746  28.890   5.519  11.608
70218W        W41747   5.147  37.078   3.556
70219W        W41748  21.846  26.549  12.816
70220W        W41749  33.930  25.633  12.146
70221W        W41750  38.160  18.629   4.193
70222W        W41751  21.437  16.545   2.348
70223W        W41752   2.240  20.540  12.501
70224W        W41753  13.688  15.794   4.544
70225W        W41754  42.391   3.943  11.694
70226W        W41755  43.079   4.264   2.278
70227W        W41756  40.535  35.843   5.058
70228W        W41757  16.663  38.627  14.333
70229W        W41758   9.916  39.327  14.902
70230W        W41759  14.062   9.251   0.917
70231W        W41760  38.096  32.027   0.333
70232W        W41761   4.422  34.067  10.920
70233W        W41762  32.423   2.763  14.486
70234W        W41763  23.149  40.044   3.232
70235W        W41764  14.859  25.646   4.537
70236W        W41765  31.572   1.149  12.785
70237W        W41766   2.619  36.006   2.664
70238W        W41767   8.778  13.223  13.562
70239W        W41768   3.849  35.261  13.056
70240W        W41769  24.289  12.121  13.074
70241W        W41770  26.651  44.751   2.032
70242W        W41771  44.489   3.042   1.249
70243W        W41772   2.245  18.330   3.317
70244W        W41773  33.043  21.049   3.167
70245W        W41774  10.120  10.885   0.001
70246W        W41775  39.844  32.602  13.993
70247W        W41776  27.555   7.862   3.684
70248W        W41777  10.554  29.483   3.303
70249W        W41778  19.679  34.799  13.429
70250W        W41779   5.923  24.499   2.395
70251W        W41780   2.712   2.762  11.684
70252W        W41781  12.714  11.196   3.163
70253W        W41782  18.687   5.389  11.065
70254W        W41783  24.514  34.287   4.100
70255W        W41784  17.544   5.236  14.321
70256W        W41785  34.224  13.926   0.385
70257W        W41786  41.023   8.886   4.672
70258W        W41787  31.375  11.873  14.710
70259W        W41788  39.046  20.699   3.100
70260W        W41789   0.290  41.728   1.928
70261W        W41790  12.759   1.849   4.865
70262W        W41791   7.435   6.660  11.982
70263W        W41792  12.767  27.681  11.539
70264W        W41793  35.018  34.157  12.471
70265W        W41794  36.105  11.118   0.420
70266W        W41795  36.946  14.743   3.291
70267W        W41796  10.440   4.298   0.117
70268W        W41797   5.144   0.580   1.740
70269W        W41798  18.131  19.678   1.771
70270W        W41799  33.822  30.575   4.619
70271W        W41800  27.713   8.727   2.253
70272W        W41801   1.459  24.215   1.524
70273W        W41802  24.674  24.717   1.829
70274W        W41803   7.391  39.387  10.625
70275W        W41804   6.421  17.412   1.413
70276W        W41805  21.512  32.707  12.535
70277W        W41806   3.734  40.883   0.464
70278W        W41807  15.869  14.290   4.118
70279W        W41808  17.383   7.697   5.001
70280W        W41809   3.483  41.567  10.428
70281W        W41810  11.727  31.083  12.074
70282W        W41811  30.097  20.657   1.899
70283W        W41812  40.617  17.240   2.185
70284W        W41813  38.327  22.113  14.276
70285W        W41814   5.517  32.426   2.145
70286W        W41815  38.830  43.117   4.611
70287W        W41816  21.392  40.696   1.143
70288W        W41817  20.512  14.895   1.225
70289W        W41818  32.682  20.754  13.536
70290W        W41819  44.018  19.500   3.487
70291W        W41820  22.114  12.060  12.992
70292W        W41821  10.177  14.221  12.903
70293W        W41822   9.642  19.114  14.339
70294W        W41823  36.097   7.172   2.224
70295W        W41824  15.499  43.847   0.310
70296W        W41825   1.345  15.501   3.682
70297W        W41826  19.401  38.649  13.916
70298W        W41827  26.932  26.068  14.303
70299W        W41828   9.840  19.034  13.862
70300W        W41829  38.080  43.139  14.966
70301W        W41830  16.257  15.392   1.745
70302W        W41831   2.033  34.252  12.203
70303W        W41832  29.520  15.484  11.007
70304W        W41833  19.556  41.046  14.819
70305W        W41834  26.220  26.063   1.626
70306W        W41835  17.632   3.472   4.249
70307W        W41836  10.316  35.923   3.341
70308W        W41837   7.630   3.188  12.476
70309W        W41838   2.911  43.761  13.402
70310W        W41839  26.577  18.616  11.666
70311W        W41840  22.865  26.504   5.319
70312W        W41841  11.817   2.488  14.078
70313W        W41842  11.619  37.555   3.163
70314W        W41843  13.890   3.904  12.627
70315W        W41844   8.265  23.339  12.310
70316W        W41845  26.138  13.970   2.238
70317W        W41846   4.548   3.027   1.385
70318W        W41847  20.974  34.883  12.899
70319W        W41848   7.249  17.286  13.599
70320W        W41849  27.045  26.914  10.542
70321W        W41850  36.060   4.425   4.534
70322W        W41851  22.872  36.057  10.568
70323W        W41852   2.790  21.920   1.375
70324W        W41853  42.552   2.462   2.735
70325W        W41854  32.948  32.731  14.867
70326W        W41855  21.990  37.964   4.585
70327W        W41856  30.139  19.337  13.438
70328W        W41857  40.834   0.518   1.361
70329W        W41858  14.158   4.368   0.372
70330W        W41859   7.781  11.921   3.310
70331W        W41860  14.623  35.599   4.240
70332W        W41861  14.529  36.452  11.170
70333W        W41862  25.205  38.097  13.331
70334W        W41863  44.288  21.992  11.862
70335W        W41864  18.611   3.295  12.517
70336W        W41865  13.839  19.707   5.042
70337W        W41866   8.750  17.535   0.240
70338W        W41867  26.325  15.430  11.450
70339W        W41868   5.670  40.841   4.726
70340W        W41869  44.043  40.560  14.947
70341W        W41870  15.838  13.025   4.761
70342W        W41871   4.247   7.766   4.085
70343W        W41872   8.928  36.059  14.904
70344W        W41873  40.331  31.431   2.331
70345W        W41874  36.088  44.715  13.404
70346W        W41875  12.141   4.638  14.528
70347W        W41876  18.612  42.431  14.369
70348W        W41877  31.809  29.083   3.283
70349W        W41878  21.662   2.753   3.271
70350W        W41879   0.753   6.746   2.125
70351W        W41880  24.260  21.200  11.585
70352W        W41881  19.701  17.350   1.818
70353W        W41882  21.182  30.725  12.576
70354W        W41883   9.664  28.716  11.994
70355W        W41884   1.758  20.026   3.630
70356W        W41885  36.636  18.900  14.822
70357W        W41886   4.254  19.556  12.957
70358W        W41887   2.459   7.322  13.023
70359W        W41888  44.760  30.746  12.866
70360W        W41889  37.948  17.514  10.909
70361W        W41890  26.232  44.182  13.942
70362W        W41891  14.328   5.674  12.440
70363W        W41892   3.853  42.605   2.685
70364W        W41893  26.931  43.821  10.457
70365W        W41894  13.525  25.004   2.317
70366W        W41895  16.572  12.700  12.864
70367W        W41896  40.361   6.235   4.954
70368W        W41897  28.279  36.414  13.713
70369W        W41898   3.934  26.332   1.227
70370W        W41899  43.926  13.390  11.643
70371W        W41900  42.683  38.687   3.301
70372W        W41901   3.952  35.473   2.839
70373W        W41902  35.441  10.244  13.864
70374W        W41903  28.887  16.581   4.642
70375W        W41904  32.589  37.044   2.857
70376W        W41905  44.780  27.089  13.997
70377W        W41906  39.155  13.547  11.732
70378W        W41907  37.382  10.746  14.539
70379W        W41908  25.701  38.527  14.243
70380W        W41909  44.733  19.249  11.171
70381W        W41910   2.369   4.886   3.356
70382W        W41911   9.280  30.088  13.616
70383W        W41912  31.832  39.439   0.026
70384W        W41913  22.006   7.157   1.823
70385W        W41914   8.816  32.871  14.292
70386W        W41915   4.952  41.064  12.990
70387W        W41916  10.445  36.120  12.443
70388W        W41917  12.862  44.907  14.823
70389W        W41918  14.193  35.324   1.304
70390W        W41919  43.176  15.346   1.182
70391W        W41920   2.785  17.205   3.635
70392W        W41921  27.950   1.918  10.957
70393W        W41922  41.020  19.518  13.536
70394W        W41923  10.921  31.607  11.057
70395W        W41924  25.199  19.147  10.637
70396W        W41925  10.191   6.785  10.714
70397W        W41926   6.620  18.541   0.894
70398W        W41927  21.089   7.982   0.852
70399W        W41928   9.647  15.262   2.680
70400W        W41929  34.164   4.821   0.927
70401W        W41930   4.321  39.776   3.004
70402W        W41931  41.887  14.773  12.653
70403W        W41932  37.417   6.628   4.026
70404W        W41933  31.512  38.872   1.179
70405W        W41934   4.399  29.539   0.827
70406W        W41935  44.743  28.062   1.278
70407W        W41936  32.678  40.294  11.860
70408W        W41937  35.247  30.050  13.296
70409W        W41938   9.114  24.735  14.535
70410W        W41939   5.898  34.452  12.048
70411W        W41940  41.272  17.836  11.988
70412W        W41941  41.771  19.174   1.890
70413W        W41942  26.136  39.466   1.412
70414W        W41943  25.966  10.786   0.680
70415W        W41944   5.427   2.925   4.737
70416W        W41945  24.089   1.490  13.388
70417W        W41946  35.516   3.718   4.941
70418W        W41947  44.109   0.171  14.000
70419W        W41948   2.680  12.987   3.372
70420W        W41949  32.083  24.613   4.288
70421W        W41950  29.368  14.654   3.728
70422W        W41951   3.846  40.479  11.981
70423W        W41952   4.463   0.197   4.050
70424W        W41953  12.591  14.778  12.898
70425W        W41954  16.443   3.975   4.148
70426W        W41955   1.462  11.735  13.106
70427W        W41956  22.267  28.436   0.418
70428W        W41957  14.108  13.549  12.034
70429W        W41958  16.235  27.498  11.210
70430W        W41959  16.157  32.211  11.291
70431W        W41960  39.600  17.202  11.061
70432W        W41961  18.278  19.144   0.275
70433W        W41962  40.603   7.414  14.172
70434W        W41963   8.727   2.453  13.561
70435W        W41964  15.640  39.462   4.847
70436W        W41965  15.310  11.200   3.704
70437W        W41966   0.333   3.755  14.282
70438W        W41967  38.025  25.543   1.696
70439W        W41968  18.133   8.363   1.338
70440W        W41969   3.363  39.890   2.457
70441W        W41970   6.338   0.737  14.890
70442W        W41971   4.490  12.698  14.050
70443W        W41972  32.425  38.248  10.391
70444W        W41973   4.395  18.706   1.951
70445W        W41974  28.861  44.347  14.021
70446W        W41975  24.254  31.428  12.898
70447W        W41976  31.055  19.797   0.919
70448W        W41977  20.688   6.469  13.120
70449W        W41978  34.739  20.571   0.373
70450W        W41979   3.766  21.666   0.184
70451W        W41980  11.223   8.831   0.942
70452W        W41981  38.908  12.425   3.936
70453W        W41982  39.789  11.278  11.073
70454W        W41983  25.929   1.635  12.981
70455W        W41984  41.277  12.134   1.635
70456W        W41985   9.604  22.666   4.543
70457W        W41986  24.532   8.649   0.292
70458W        W41987  26.777  38.352   2.883
70459W        W41988  29.959  21.620  12.130
70460W        W41989  40.764  31.142   2.345
70461W        W41990  31.592  44.605   0.410
70462W        W41991  28.937  10.394  11.542
70463W        W41992  11.639  42.491  12.544
70464W        W41993  16.809  14.740  12.965
70465W        W41994  22.554   3.769   2.343
70466W        W41995  21.617   3.680   1.902
70467W        W41996  33.964  18.317  10.412
70468W        W41997   6.892   3.504  13.390
70469W        W41998  13.281   2.468   2.078
70470W        W41999   1.739   0.153   1.845
70471W        W42000  16.171   0.772  12.740
70472W        W42001  33.880  22.174   2.901
70473W        W42002  29.451  32.305  13.963
70474W        W42003  12.550  28.959  13.129
70475W        W42004  12.211   7.552   2.855
70476W        W42005  33.817   5.399  14.801
70477W        W42006   4.704  26.767  14.878
70478W        W42007   3.780   5.123  12.445
70479W        W42008  17.053  13.267   1.849
70480W        W42009  31.160  10.361   4.050
70481W        W42010  37.077  12.820   2.733
70482W        W42011  40.358   2.918  12.447
70483W        W42012  17.099  37.777   4.173
70484W        W42013   3.417  37.768  11.146
70485W        W42014  19.733  10.648   3.109
70486W        W42015  34.193  10.244   0.010
70487W        W42016  26.467   4.255   3.330
70488W        W42017  44.327  32.481   2.320
70489W        W42018   1.475  16.255   0.776
70490W        W42019  27.990  10.535   4.909
70491W        W42020  39.351  18.358  12.592
70492W        W42021  20.703  44.013   2.973
70493W        W42022  11.479  17.757  12.442
70494W        W42023  32.092  12.623   3.810
70495W        W42024   0.098  24.758  14.091
70496W        W42025  44.486  26.103  12.038
70497W        W42026  23.463  39.050  11.535
70498W        W42027   6.663   9.961   1.444
70499W        W42028  25.765  39.889  13.465
70500W        W42029   8.642  25.525  12.483
70501W        W42030  24.632   9.176  12.910
70502W        W42031  23.181  33.460  13.421
70503W        W42032   9.772  24.211  11.388
70504W        W42033   5.854  19.073  13.563
70505W        W42034  13.841   1.839  14.942
70506W        W42035  21.219  41.522  11.586
70507W        W42036  23.160  35.297   0.650
70508W        W42037  27.697  23.096  11.457
70509W        W42038  10.186  31.169  13.899
70510W        W42039  16.099   1.122  13.090
70511W        W42040   0.406  22.257  11.127
70512W        W42041  43.724  15.873   4.274
70513W        W42042  12.996  23.144  11.592
70514W        W42043  42.915  18.772   2.302
70515W        W42044  36.931  35.369   2.268
70516W        W42045   6.997  26.543  13.368
70517W        W42046  24.242   5.686  12.159
70518W        W42047  10.540  38.480   2.173
70519W        W42048  15.712   4.440   2.716
70520W        W42049  35.842  28.790   4.162
70521W        W42050  17.013   1.492  12.638
70522W        W42051  25.048   0.566   3.717
70523W        W42052   8.627  32.612  11.724
70524W        W42053   7.651   1.908   4.246
70525W        W42054  11.840  44.533  12.386
70526W        W42055  16.738  11.626  13.027
70527W        W42056  43.437  22.207  14.553
70528W        W42057  24.152  36.275   1.001
70529W        W42058  35.507  14.383  11.109
70530W        W42059  32.640  19.596  11.057
70531W        W42060  16.242  16.303  10.571
70532W        W42061   0.437   2.199   2.290
70533W        W42062   6.194  15.707  14.253
70534W        W42063  21.419  40.585   3.691
70535W        W42064  17.587  13.492   0.088
70536W        W42065   5.649   1.028   3.303
70537W        W42066  11.606   1.359   2.713
70538W        W42067  32.971  29.001   4.917
70539W        W42068  44.687   1.377   0.403
70540W        W42069   2.513  44.912   0.458
70541W        W42070  23.013  43.742  13.929
70542W        W42071  23.480  20.370  14.865
70543W        W42072  40.594  21.694  14.383
70544W        W42073  24.873  27.001  14.953
70545W        W42074  40.101  35.046   0.794
70546W        W42075  41.327  12.560   2.440
70547W        W42076  37.416  42.000   1.806
70548W        W42077  14.867  42.427  12.556
70549W        W42078  44.981  36.705   2.375
70550W        W42079  43.933  25.804  10.620
70551W        W42080  13.769  12.690   3.090
70552W        W42081  36.979  19.329  14.341
70553W        W42082   6.109  23.576   4.597
70554W        W42083   3.853   0.233  13.972
70555W        W42084   8.871  31.335   3.707
70556W        W42085  28.891  12.749   0.938
70557W        W42086  13.579  10.289   4.931
70558W        W42087  34.027  20.504  12.962
70559W        W42088  20.736  19.582   4.106
70560W        W42089  15.377  31.598  11.049
70561W        W42090   7.268  14.826   1.315
70562W        W42091  11.590  15.928  13.461
70563W        W42092  43.609  23.272   1.261
70564W        W42093  21.746   8.386   4.786
70565W        W42094   6.112  33.836  10.872
70566W        W42095  35.569  38.737   3.340
70567W        W42096  40.116  34.291  12.514
70568W        W42097  21.066  21.498  14.742
70569W        W42098   6.981  31.738  11.528
70570W        W42099  14.157  36.567   4.455
70571W        W42100  22.803  29.507  13.378
70572W        W42101  25.150  10.969  13.080
70573W        W42102  10.234  26.685   4.509
70574W        W42103   3.747  19.062  13.989
70575W        W42104  26.298  11.354   3.223
70576W        W42105  28.372   6.726  13.060
70577W        W42106  40.417   7.567  11.560
70578W        W42107  39.605   3.873  11.937
70579W        W42108  43.220  11.807   3.577
70580W        W42109  29.548  11.883  13.566
70581W        W42110  38.746   0.584  11.686
70582W        W42111  15.722   6.064  13.422
70583W        W42112  32.103  38.255   1.537
70584W        W42113  22.755   4.752   3.820
70585W        W42114  40.947  37.888  12.864
70586W        W42115  17.099   3.347   0.990
70587W        W42116   3.857  10.811  12.131
70588W        W42117  35.832  18.361   2.247
70589W        W42118  15.428  43.297   1.900
70590W        W42119  16.818  17.115  14.342
70591W        W42120  11.242  40.905   0.440
70592W        W42121  43.847  36.102   1.897
70593W        W42122  32.496   5.222  14.457
70594W        W42123  24.467   7.588   3.257
70595W        W42124  22.219  43.856  12.027
70596W        W42125   7.446  34.389  12.064
70597W        W42126   1.467  14.139  10.653
70598W        W42127   4.152  24.638   4.319
70599W        W42128  15.377  36.590   0.354
70600W        W42129  34.481   0.815   1.014
70601W        W42130  12.863  20.494  13.701
70602W        W42131  26.958  41.517   0.742
70603W        W42132  21.701  36.473  13.803
70604W        W42133  14.084  10.752   1.436
70605W        W42134   1.079  27.198  12.981
70606W        W42135  40.297   9.843  10.738
70607W        W42136  36.677  37.661   1.849
70608W        W42137  42.429  21.994  13.828
70609W        W42138   4.555  38.110   0.801
70610W        W42139  43.026  38.799  12.517
70611W        W42140  15.531  12.151  14.064
70612W        W42141   7.038   0.090  13.030
70613W        W42142  11.141  15.108   1.897
70614W        W42143   9.167   0.273   0.065
70615W        W42144  18.154  36.844   4.128
70616W        W42145   8.636  23.460   4.060
70617W        W42146  43.877  44.308   3.773
70618W        W42147  39.332   5.113   1.805
70619W        W42148  26.175  18.752   4.820
70620W        W42149  21.507   0.365   4.732
70621W        W42150  35.001  30.105  10.710
70622W        W42151  30.517  36.242   0.285
70623W        W42152  31.371   1.464   3.243
70624W        W42153   7.436  10.381   4.864
70625W        W42154  14.468  33.995  14.014
70626W        W42155  24.556   4.800   1.808
70627W        W42156   2.259   1.993   4.622
70628W        W42157  16.627  43.446  10.627
70629W        W42158   5.966  12.757  13.743
70630W        W42159  21.472  37.408  10.224
70631W        W42160  20.730   7.655  14.320
70632W        W42161  23.704  26.646   1.446
70633W        W42162  42.785  44.488   0.312
70634W        W42163   3.238  23.160  11.070
70635W        W42164   2.779  35.442   4.893
70636W        W42165  11.926   1.805  14.829
70637W        W42166  18.389  21.155  11.577
70638W        W42167  23.633  43.845   1.594
70639W        W42168  14.292  19.633   3.199
70640W        W42169   1.393  39.462  14.399
70641W        W42170  19.514  10.621  14.397
70642W        W42171  25.024  17.118  11.959
70643W        W42172  22.477  17.048   0.705
70644W        W42173  11.396  33.479   1.174
70645W        W42174  28.563  19.010   2.205
70646W        W42175   6.343  41.143  13.867
70647W        W42176  24.279  19.765   3.246
70648W        W42177  21.226  21.469  12.817
70649W        W42178  17.305  29.015   3.739
70650W        W42179  23.606  22.578  12.048
70651W        W42180  14.565   5.126  12.036
70652W        W42181  27.356   0.988  11.308
70653W        W42182  28.126  35.022  14.113
70654W        W42183  34.191  41.973  12.433
70655W        W42184  15.361  13.199  12.485
70656W        W42185  30.166  14.253   3.514
70657W        W42186  32.753  28.269   5.064
70658W        W42187  38.760  31.834  10.382
70659W        W42188  33.695  28.011   4.504
70660W        W42189  37.499  26.069  14.358
70661W        W42190   3.893  14.280   3.117
70662W        W42191  32.077   5.087   2.678
70663W        W42192  37.008  25.951   5.080
70664W        W42193  15.343   4.216   2.372
70665W        W42194   8.391  10.202   2.539
70666W        W42195  14.140  32.044  11.526
70667W        W42196   2.246  42.457  14.192
70668W        W42197  28.883  41.826   1.253
70669W        W42198   7.303   7.337  13.909
70670W        W42199  20.562   0.467   4.227
70671W        W42200  20.087  31.039  14.473
70672W        W42201   7.925  31.514   2.213
70673W        W42202  40.532   9.417   4.246
70674W        W42203  23.995  10.915  10.687
70675W        W42204   7.692  28.520  14.094
70676W        W42205  26.167  39.841   0.692
70677W        W42206  14.578   3.077   2.126
70678W        W42207  22.635  10.586  14.419
70679W        W42208  36.515  41.593  12.287
70680W        W42209  26.572  11.279   4.598
70681W        W42210  37.432   9.077   2.374
70682W        W42211  34.758  10.072   5.092
70683W        W42212   8.927  38.209   0.920
70684W        W42213   4.239   5.697   4.234
70685W        W42214  11.176  40.388  12.444
70686W        W42215  24.867  25.319  11.098
70687W        W42216  25.443  18.337  12.965
70688W        W42217   3.777  25.077   1.958
70689W        W42218  30.512  27.335  12.748
70690W        W42219   0.691  37.577  12.168
70691W        W42220   5.340  42.451  12.130
70692W        W42221  12.353  16.010  13.552
70693W        W42222  38.802  28.356   2.806
70694W        W42223  29.203  42.404  14.423
70695W        W42224  40.329  15.071  14.693
70696W        W42225  25.069  18.552   4.222
70697W        W42226  39.367  28.939  12.118
70698W        W42227  33.624   4.253  14.242
70699W        W42228  29.416   6.790  14.055
70700W        W42229  19.674  13.077   4.640
70701W        W42230  31.614  26.284   3.108
70702W        W42231  19.601   4.880   0.521
70703W        W42232  25.554   1.705   2.767
70704W        W42233  19.150  39.686  12.468
70705W        W42234  14.067   0.087   2.234
70706W        W42235  28.114  29.361   4.661
70707W        W42236  38.213  10.525  11.736
70708W        W42237   1.174   7.134   2.782
70709W        W42238  14.301  44.028  12.392
70710W        W42239   3.349  31.209   1.360
70711W        W42240   6.593   7.849  13.018
70712W        W42241  27.367  23.007  11.842
70713W        W42242  40.953  13.200  12.674
70714W        W42243  22.287  41.510   0.490
70715W        W42244  21.661  16.135   4.317
70716W        W42245  26.488  27.945  14.331
70717W        W42246  39.023  21.540  13.123
70718W        W42247  11.662  23.492   3.547
70719W        W42248  17.759  21.086   1.501
70720W        W42249   0.846  32.275   4.529
70721W        W42250   9.611  35.873  10.465
70722W        W42251  37.802  30.850  13.064
70723W        W42252   3.554  44.456  11.914
70724W        W42253  11.328  34.336  14.372
70725W        W42254   3.100  27.570  12.971
70726W        W42255  22.658  44.929   3.174
70727W        W42256  32.553  29.732  10.498
70728W        W42257  37.922  26.046   3.935
70729W        W42258  42.507   6.142   4.247
70730W        W42259  28.429  39.792   2.413
70731W        W42260   7.256  15.277   3.066
70732W        W42261   1.532   0.728   3.047
70733W        W42262   9.744  32.838  14.121
70734W        W42263   3.670  16.116  13.034
70735W        W42264  32.111  19.064   0.486
70736W        W42265  22.176   2.645  13.321
70737W        W42266   6.708  31.482   1.339
70738W        W42267   9.322  31.671  11.104
70739W        W42268  39.384  17.317   2.621
70740W        W42269  10.478  37.436  12.668
70741W        W42270  33.516   6.450   4.406
70742W        W42271  40.495   7.746   1.871
70743W        W42272  16.652  24.870   4.546
70744W        W42273  25.529  20.055  14.292
70745W        W42274  25.347   5.801  11.138
70746W        W42275   5.402  21.735  12.951
70747W        W42276  25.530  33.860   3.585
70748W        W42277   9.951   2.973   3.202
70749W        W42278   3.316   0.231   3.237
70750W        W42279  28.368  12.277   4.244
70751W        W42280  15.652  10.313  12.969
70752W        W42281  33.061  37.064  12.392
70753W        W42282  42.025  28.534   1.024
70754W        W42283   5.331   2.623   4.082
70755W        W42284   5.143  40.011   1.778
70756W        W42285  14.173   9.926   2.704
70757W        W42286  19.199  44.467  14.804
70758W        W42287  33.403  39.938   1.433
70759W        W42288  36.625  33.590  14.106
70760W        W42289   1.176  10.622   4.109
70761W        W42290   1.031  21.170   1.318
70762W        W42291   2.006  43.466   3.122
70763W        W42292  31.006  36.900  10.610
70764W        W42293  16.600  17.051   1.840
70765W        W42294  15.606  20.213  12.021
70766W        W42295  19.211  10.726  13.972
70767W        W42296  38.499  43.487  14.023
70768W        W42297  17.798  34.243  11.893
70769W        W42298  14.083   1.811   0.921
70770W        W42299  38.026   9.678   1.311
70771W        W42300  40.824   6.030   1.375
70772W        W42301  33.405  28.448   3.235
70773W        W42302   1.953  26.110  11.708
70774W        W42303  26.134  16.548  11.106
70775W        W42304   6.391  10.467  12.447
70776W        W42305   8.306  37.809  13.857
70777W        W42306  17.762  19.863   2.261
70778W        W42307  19.025  43.342   1.276
70779W        W42308  38.305  33.914  14.292
70780W        W42309  23.380  34.492   1.223
70781W        W42310  35.316  43.018   1.795
70782W        W42311   5.730   5.903  10.647
70783W        W42312   6.242  31.875   2.732
70784W        W42313   6.975  31.490   0.727
70785W        W42314  22.062  44.797   2.565
70786W        W42315   2.816   4.779  13.961
70787W        W42316  24.051  19.547  13.906
70788W        W42317  24.768  10.296   1.979
70789W        W42318  23.664  42.284  11.605
70790W        W42319  18.344  20.000   4.996
70791W        W42320  30.179  26.723   0.175
70792W        W42321   1.437  41.610   0.504
70793W        W42322  32.871   5.586  10.779
70794W        W42323  32.300   5.459   3.150
70795W        W42324  37.011  17.766   2.808
70796W        W42325   3.972  34.024  11.857
70797W        W42326  12.620   1.709  11.062
70798W        W42327   8.309  28.979   3.642
70799W        W42328  15.167  21.259  13.882
70800W        W42329  18.831   3.416  12.973
70801W        W42330  28.730  41.007  10.764
70802W        W42331  38.030  33.508  12.187
70803W        W42332  30.028   2.288   0.663
70804W        W42333  16.775  33.920   4.361
70805W        W42334  14.229  29.571  14.768
70806W        W42335  33.492  41.750   2.411
70807W        W42336  43.975  16.868   0.932
70808W        W42337  24.243  33.501   3.215
70809W        W42338  27.179  19.132   0.632
70810W        W42339  32.458   2.676  13.967
70811W        W42340   1.614  20.070   2.180
70812W        W42341  14.852  10.361   0.622
70813W        W42342  42.789  18.183   0.910
70814W        W42343  13.785  13.663   1.864
70815W        W42344  27.877   2.825   4.334
70816W        W42345   5.802  40.384   1.450
70817W        W42346  12.226  18.830  12.166
70818W        W42347  36.529   5.441   4.206
70819W        W42348  31.069   5.989   0.753
70820W        W42349  22.131  14.467  11.631
70821W        W42350  32.027  11.103  14.936
70822W        W42351  34.903  24.709  13.348
70823W        W42352  44.273  22.703   4.056
70824W        W42353  19.049  23.217   1.146
70825W        W42354  33.588  26.414  11.366
70826W        W42355  14.559  38.924  12.101
70827W        W42356  26.479  20.625  11.204
70828W        W42357   9.559  34.579  14.844
70829W        W42358   0.889  20.993  12.782
70830W        W42359   5.653  33.623  10.706
70831W        W42360  10.370  29.587  14.562
70832W        W42361  17.649  34.748   3.425
70833W        W42362  30.820   5.743  13.871
70834W        W42363   5.229  19.583   3.575
70835W        W42364  38.466   7.820  12.500
70836W        W42365  25.657   8.717  10.300
70837W        W42366  34.791  32.665  11.927
70838W        W42367  34.499  16.218   4.469
70839W        W42368  37.526   7.384  13.821
70840W        W42369   5.293   1.960   1.997
70841W        W42370  26.230  17.065   1.185
70842W        W42371  25.674  25.196  11.510
70843W        W42372  19.273  21.205   1.258
70844W        W42373  35.130   9.801  12.929
70845W        W42374  11.252  25.685   4.439
70846W        W42375  10.101  21.437  12.962
70847W        W42376   3.487  43.045   1.805
70848W        W42377  21.317  33.186  10.797
70849W        W42378  20.226   5.898   1.831
70850W        W42379   0.289  32.587  13.464
70851W        W42380   1.603  29.944   0.854
70852W        W42381  14.386  41.098   3.638
70853W        W42382  32.939   4.225   3.152
70854W        W42383  28.607  30.120  14.366
70855W        W42384  43.280   8.449   4.085
70856W        W42385  40.886  21.680  13.284
70857W        W42386  16.244  32.480   3.390
70858W        W42387  19.278   7.401   4.077
70859W        W42388  26.464  15.548   4.648
70860W        W42389  12.887   2.369  10.576
70861W        W42390  20.047  17.749  12.378
70862W        W42391  23.347  38.814   4.413
70863W        W42392  44.781  37.030   3.195
70864W        W42393   1.937  37.861   2.672
70865W        W42394   7.792  26.089   0.092
70866W        W42395   3.297  30.113  14.421
70867W        W42396  22.123  29.738  11.995
70868W        W42397  42.518  10.315   3.183
70869W        W42398   0.007  16.118  13.393
70870W        W42399  30.782   3.427  14.541
70871W        W42400  26.525  27.512  13.413
70872W        W42401  14.236   4.413   3.653
70873W        W42402   5.310  26.985   1.383
70874W        W42403  35.015  26.426  10.683
70875W        W42404  35.595  40.774  14.979
70876W        W42405  17.292  12.713   3.092
70877W        W42406   1.902  12.712  11.742
70878W        W42407  18.984  21.044  13.491
70879W        W42408  34.320  38.447  11.981
70880W        W42409  16.378  27.948  11.424
70881W        W42410  17.897  43.808  13.730
70882W        W42411  39.233   7.045  14.071
70883W        W42412  13.314  12.364  12.685
70884W        W42413  40.262   4.167  13.685
70885W        W42414  38.280  20.158   2.556
70886W        W42415  15.778   1.247  10.740
70887W        W42416  41.333  33.836   4.181
70888W        W42417  43.124  15.048  12.877
70889W        W42418  36.930  44.979   2.783
70890W        W42419   4.479   1.550   1.434
70891W        W42420   7.324  16.011  12.193
70892W        W42421  34.912  22.967  14.736
70893W        W42422  20.730   8.648   2.179
70894W        W42423  14.423  34.951  11.173
70895W        W42424  16.065   6.301  12.011
70896W        W42425   8.317  40.967  13.851
70897W        W42426  34.502  28.531   3.161
70898W        W42427  17.818  36.856  13.426
70899W        W42428  11.705  37.271  10.552
70900W        W42429  34.085  27.468   1.916
70901W        W42430  40.540  23.973   4.159
70902W        W42431  14.250   9.215   3.610
70903W        W42432   2.321  44.928  14.466
70904W        W42433  10.791  31.466  12.752
70905W        W42434  40.220  20.524  13.043
70906W        W42435  40.607  14.692   2.475
70907W        W42436  10.085  10.775   2.299
70908W        W42437  14.246  40.871  10.819
70909W        W42438   5.370  11.546  13.288
70910W        W42439  18.347  11.513  13.669
70911W        W42440  42.900  26.323  12.446
70912W        W42441  36.596  28.530  11.199
70913W        W42442  16.661   5.982   2.307
70914W        W42443  24.781  21.160  11.743
70915W        W42444  38.872   5.424  14.893
70916W        W42445  18.785   5.261  11.548
70917W        W42446  43.546  19.020   4.628
70918W        W42447  32.956  23.217   1.387
70919W        W42448  15.195  43.331   4.766
70920W        W42449   0.231  12.322   2.734
70921W        W42450  23.101  32.932  12.797
70922W        W42451  40.765   9.824   3.731
70923W        W42452  40.330   4.523  10.460
70924W        W42453  39.768  10.772   2.839
70925W        W42454  43.428  27.800   3.212
70926W        W42455  35.568  36.887   0.155
70927W        W42456  20.152  31.111  13.830
70928W        W42457  31.463  42.050   4.324
70929W        W42458  18.190  24.708   2.356
70930W        W42459   6.469  44.309  14.753
70931W        W42460  41.903   8.642   1.397
70932W        W42461   8.155   1.387  11.893
70933W        W42462  11.277  30.027  11.739
70934W        W42463  30.981  23.090  10.661
70935W        W42464  33.077  23.731  13.002
70936W        W42465  44.254  21.880  13.867
70937W        W42466  40.540  12.850   4.536
70938W        W42467   9.551  15.210   1.377
70939W        W42468  18.706  30.869  11.372
70940W        W42469  18.101  30.402  12.951
70941W        W42470  22.023   0.394   1.957
70942W        W42471  38.334  26.662  11.518
70943W        W42472   3.100  35.156   4.541
70944W        W42473  41.564  41.994  11.643
70945W        W42474   5.665  14.816   4.128
70946W        W42475  21.152   0.220  10.710
70947W        W42476   6.332   2.060  13.353
70948W        W42477  40.007  19.951   4.487
70949W        W42478  39.607  14.814  13.353
70950W        W42479   5.286  22.559   3.222
70951W        W42480  44.446  13.414   2.593
70952W        W42481  44.022  43.578  11.038
70953W        W42482  24.461  21.219  14.450
70954W        W42483  37.928  44.314   2.882
70955W        W42484  18.957  10.222  12.121
70956W        W42485  31.467  17.150   3.443
70957W        W42486   4.219   9.115   2.771
70958W        W42487  34.529  34.376   3.311
70959W        W42488  12.077  22.552   0.363
70960W        W42489  27.467  28.555   1.391
70961W        W42490  15.538   7.355   2.687
70962W        W42491  14.216  13.222  12.450
70963W        W42492  16.053  35.137   3.762
70964W        W42493  37.403   1.090  12.900
70965W        W42494  10.183  20.078  13.337
70966W        W42495   0.288  24.605   2.308
70967W        W42496  42.092  33.321   9.949
70968W        W42497  27.974  17.340   5.096
70969W        W42498  30.507   6.454  13.306
70970W        W42499  31.978  30.474  13.136
70971W        W42500   8.606  17.728  13.541
70972W        W42501  30.093  27.654  12.570
70973W        W42502  27.123  29.964  10.652
70974W        W42503  43.737  25.183  13.104
70975W        W42504  44.807  43.348   0.642
70976W        W42505  36.290  13.827   0.711
70977W        W42506  34.927  21.300   0.973
70978W        W42507  29.407  15.261  13.624
70979W        W42508  23.064  38.216  13.822
70980W        W42509  30.665  36.298  12.017
70981W        W42510  41.807  12.412   2.414
70982W        W42511  37.700  29.792   2.343
70983W        W42512   2.386  21.713  14.080
70984W        W42513  32.450  29.366   4.565
70985W        W42514  24.470  30.113   3.653
70986W        W42515  17.754   3.936   4.005
70987W        W42516  26.651  27.496  12.556
70988W        W42517  12.215   2.858  10.388
70989W        W42518   2.377  29.669   0.573
70990W        W42519   2.241   0.337  11.424
70991W        W42520  36.887  38.330   3.159
70992W        W42521   4.840  33.910   4.663
70993W        W42522  29.565  44.821  13.481
70994W        W42523  26.240  34.121   0.432
70995W        W42524  12.783  35.904  11.673
70996W        W42525   1.380  19.822  11.697
70997W        W42526  15.079  32.470   2.686
70998W        W42527  26.682   5.223  11.053
70999W        W42528  13.611  37.280  12.059
71000W        W42529   6.325   5.774  12.483
71001W        W42530  25.014  16.048  10.557
71002W        W42531  36.905   4.789  14.443
71003W        W42532  11.291  21.639   1.416
71004W        W42533  34.846   5.451  11.640
71005W        W42534   3.565   8.386   0.823
71006W        W42535  24.858  22.549  11.241
71007W        W42536  24.976  18.101  12.959
71008W        W42537  21.787  36.866  11.593
71009W        W42538  39.807  17.928  14.473
71010W        W42539  36.048  29.964  12.952
71011W        W42540  33.832  32.702   1.142
71012W        W42541   1.367  41.335   0.066
71013W        W42542  24.707  11.420  14.228
71014W        W42543  19.582  38.364   2.113
71015W        W42544  31.106  35.906   2.367
71016W        W42545  12.371   6.402   0.738
71017W        W42546  31.124  20.544  14.745
71018W        W42547  36.947  41.448   2.835
71019W        W42548  23.311  27.930   4.975
71020W        W42549  21.040  44.372  13.216
71021W        W42550   1.017  28.691  14.056
71022W        W42551   2.145   5.773  11.047
71023W        W42552  43.035  11.695  11.049
71024W        W42553  19.782  41.043   4.987
71025W        W42554  34.919   7.987  12.824
71026W        W42555  32.318  20.325   2.248
71027W        W42556  19.300  21.853  12.238
71028W        W42557  11.320  11.776   1.541
71029W        W42558  28.738  38.882  10.663
71030W        W42559   9.537  41.310   2.018
71031W        W42560   8.330  40.014  10.750
71032W        W42561  37.816  38.328   4.391
71033W        W42562  15.835  22.635   4.060
71034W        W42563  28.482   9.288  13.129
71035W        W42564  32.018  43.769   2.167
71036W        W42565  44.249   2.285   1.888
71037W        W42566  14.124   3.833  11.872
71038W        W42567  32.281  31.358  14.045
71039W        W42568  35.017   0.642  10.419
71040W        W42569  13.791  33.638   1.435
71041W        W42570   4.423  28.759  14.090
71042W        W42571  27.514  25.515   4.526
71043W        W42572  19.725  24.254  10.740
71044W        W42573  39.362  31.063  11.160
71045W        W42574   6.344  19.957  13.370
71046W        W42575  25.580  14.162   3.166
71047W        W42576   8.323  22.755  12.453
71048W        W42577  31.745   0.319   1.460
71049W        W42578  42.771  10.380   0.273
71050W        W42579  31.848  15.395   4.970
71051W        W42580   0.032  18.193  11.923
71052W        W42581  35.955  30.253   4.126
71053W        W42582  35.097  24.991  12.585
71054W        W42583  18.151  10.709   1.966
71055W        W42584  37.973  37.712   1.870
71056W        W42585  34.284  25.613   0.376
71057W        W42586  20.686  29.176   3.283
71058W        W42587  32.525   0.011   1.390
71059W        W42588   4.948  21.224   2.649
71060W        W42589  21.014  44.489   2.433
71061W        W42590  25.013  40.567  11.233
71062W        W42591  29.546  38.866  12.416
71063W        W42592  35.681   6.342   0.791
71064W        W42593  31.537  43.830   4.681
71065W        W42594  42.843  40.519   4.623
71066W        W42595  38.875  31.013  11.584
71067W        W42596  38.746   4.252  13.443
71068W        W42597  22.485  29.951   3.754
71069W        W42598  32.335   7.409   1.225
71070W        W42599  42.813  43.691   1.458
71071W        W42600   2.952  32.669   1.317
71072W        W42601   3.591  16.184   2.224
71073W        W42602  18.695  38.553   4.244
71074W        W42603  40.962   0.891   4.884
71075W        W42604  40.703  26.717  11.955
71076W        W42605  18.252  29.969  14.803
71077W        W42606   0.064  17.967   1.509
71078W        W42607   4.843  12.055   4.373
71079W        W42608   2.272  22.978   3.196
71080W        W42609  41.886  41.148   0.014
71081W        W42610  36.753  13.075   0.525
71082W        W42611   5.941  18.090   1.517
71083W        W42612  25.526  23.832   1.788
71084W        W42613  33.539  13.820  14.982
71085W        W42614  23.205  24.755   1.530
71086W        W42615  14.895  20.757  13.837
71087W        W42616  44.233  35.120   0.511
71088W        W42617  19.271  16.717   2.696
71089W        W42618   1.391  18.895   2.972
71090W        W42619  24.107   6.848   2.144
71091W        W42620   8.175   0.450   5.147
71092W        W42621  17.730   4.144   3.304
71093W        W42622   8.818  30.915  12.080
71094W        W42623  20.568  14.310   2.361
71095W        W42624   6.187   4.684  13.552
71096W        W42625  41.929  35.062   3.157
71097W        W42626   6.385  23.452   1.415
71098W        W42627  25.905  30.488   2.781
71099W        W42628   7.143  33.564  13.228
71100W        W42629  10.809  40.884   3.249
71101W        W42630   8.834   2.954   3.863
71102W        W42631  30.316  14.156  13.470
71103W        W42632  32.123   5.987   3.197
71104W        W42633  35.329  18.796   1.394
71105W        W42634  33.894  16.402  13.432
71106W        W42635   6.542  31.127   0.526
71107W        W42636  18.746  26.042   3.794
71108W        W42637   6.453  22.641   1.487
71109W        W42638  12.600  18.353   2.208
71110W        W42639  16.304   3.702  12.444
71111W        W42640  23.757   0.268  13.561
71112W        W42641  42.180  10.866  13.005
71113W        W42642  12.427  25.954  14.793
71114W        W42643  11.611  44.892   3.197
71115W        W42644  44.338  36.234   4.359
71116W        W42645   9.124  16.134  14.024
71117W        W42646  18.360   0.496   2.755
71118W        W42647  30.648  40.509   3.092
71119W        W42648  15.065  15.828  11.179
71120W        W42649  23.303  14.234   1.054
71121W        W42650  17.708  33.827  11.549
71122W        W42651  26.435  20.071   4.226
71123W        W42652   9.857  25.713  12.617
71124W        W42653  22.613  21.281  10.664
71125W        W42654   1.536  12.738  14.454
71126W        W42655  19.818  15.078  12.027
71127W        W42656  37.387  30.362  12.244
71128W        W42657  20.655  13.888   1.299
71129W        W42658  31.991   1.006  14.951
71130W        W42659  25.009  27.023  12.969
71131W        W42660   9.684  26.637   3.836
71132W        W42661  40.837  33.988   2.405
71133W        W42662   4.967  42.389   0.461
71134W        W42663  17.081   9.276   2.223
71135W        W42664  35.250  20.000  12.297
71136W        W42665   2.255  13.230   2.217
71137W        W42666  35.665  18.759  11.118
71138W        W42667  40.832  13.918   2.805
71139W        W42668  41.266  27.975  13.910
71140W        W42669  11.212   3.034  10.213
71141W        W42670  40.914  31.961  14.593
71142W        W42671  10.996  43.342   9.786
71143W        W42672  12.850  13.404  12.671
71144W        W42673  36.750  28.010   3.163
71145W        W42674  26.181  40.226  13.439
71146W        W42675  34.729  35.695  14.554
71147W        W42676  44.670   1.985   1.913
71148W        W42677  40.309  15.295   0.197
71149W        W42678  11.659   3.860   0.815
71150W        W42679  24.038  33.910  12.433
71151W        W42680  14.635  25.234   3.858
71152W        W42681  29.402  38.370   1.825
71153W        W42682   1.322  30.142  10.767
71154W        W42683  14.859  24.174  13.039
71155W        W42684  32.638  39.286   2.916
71156W        W42685  20.737   9.911   2.782
71157W        W42686  12.696  33.744  10.619
71158W        W42687  18.669  19.715   2.959
71159W        W42688  25.040  32.139   1.143
71160W        W42689  11.714   1.786  12.036
71161W        W42690  17.683  40.418   4.703
71162W        W42691  18.546   8.585  13.601
71163W        W42692  11.238  18.159   0.829
71164W        W42693  13.066  12.947  14.686
71165W        W42694   1.313  18.578   4.578
71166W        W42695  30.594  39.018   4.330
71167W        W42696  13.028  36.187   2.583
71168W        W42697  33.738  22.133   3.799
71169W        W42698   8.258  43.449   2.580
71170W        W42699   4.411   7.264  14.861
71171W        W42700  12.205  44.263  11.882
71172W        W42701  19.257  11.490  12.049
71173W        W42702   1.845  35.415  13.148
71174W        W42703  13.680  30.159   2.267
71175W        W42704  29.037  39.950   4.134
71176W        W42705  17.564  35.988   2.741
71177W        W42706  28.430  42.460   3.540
71178W        W42707  37.663   9.376   4.715
71179W        W42708  11.845  16.260  14.409
71180W        W42709  16.500   6.287   1.338
71181W        W42710  43.075  24.593  14.362
71182W        W42711  16.674  43.788  14.152
71183W        W42712  20.849  29.006  10.592
71184W        W42713  24.751  15.167  11.458
71185W        W42714   3.499   7.850   1.018
71186W        W42715   9.102  40.569  10.476
71187W        W42716  29.512   7.804  11.130
71188W        W42717  20.175  32.447  10.691
71189W        W42718  17.133   4.965  14.159
71190W        W42719  24.185   7.836  12.284
71191W        W42720  30.490   2.230   0.890
71192W        W42721  41.392  43.863  13.879
71193W        W42722  12.157  24.959  12.415
71194W        W42723  18.734  22.680   1.826
71195W        W42724  33.444  12.320  11.923
71196W        W42725  44.362  34.947  13.236
71197W        W42726  12.382  20.452   1.665
71198W        W42727  16.100  26.119  14.441
71199W        W42728   0.707  16.732   3.267
71200W        W42729  37.417  14.528   9.933
71201W        W42730  23.024   5.786  14.257
71202W        W42731  33.407   7.707   4.550
71203W        W42732   1.847  25.974  12.699
71204W        W42733  44.827  20.803  11.624
71205W        W42734   0.331  11.619  10.650
71206W        W42735  41.103  40.793   2.850
71207W        W42736   0.938  31.784   4.489
71208W        W42737  29.939  22.117   2.705
71209W        W42738   3.288  29.375   2.672
71210W        W42739  14.525  10.521   1.335
71211W        W42740   5.666  34.889  14.896
71212W        W42741  15.111  28.490   2.806
71213W        W42742  28.563  31.308  14.099
71214W        W42743  28.040   0.301   1.878
71215W        W42744  42.047  15.088  11.880
71216W        W42745   9.955   3.753  10.595
71217W        W42746   1.092   7.115   0.566
71218W        W42747  14.429  28.479   1.902
71219W        W42748  22.982  42.665  12.508
71220W        W42749  37.036  42.792   1.728
71221W        W42750  44.503  38.539  12.094
71222W        W42751  26.958  13.126  14.822
71223W        W42752  41.244  13.209   3.036
71224W        W42753   8.658  28.818  10.714
71225W        W42754  37.515   0.288  10.798
71226W        W42755  24.202   9.535  12.796
71227W        W42756  41.795  23.470   2.355
71228W        W42757  23.475  43.363   2.380
71229W        W42758  39.369  32.595   1.792
71230W        W42759  33.956  36.695  14.294
71231W        W42760  24.162  24.107   3.539
71232W        W42761  34.401  16.155  14.643
71233W        W42762  33.057  32.132  14.042
71234W        W42763  22.988   5.408  11.712
71235W        W42764  31.400  18.513   2.224
71236W        W42765  16.611  30.157  14.709
71237W        W42766   2.858  33.102   4.034
71238W        W42767  39.510   9.300  14.878
71239W        W42768  25.195  24.468  12.840
71240W        W42769  21.130  23.534  13.420
71241W        W42770  11.375   8.706   1.418
71242W        W42771   6.808   1.883  14.520
71243W        W42772  10.768  31.026   1.932
71244W        W42773  26.208  18.244  13.477
71245W        W42774  30.487   9.870   3.672
71246W        W42775  23.161  26.497  13.127
71247W        W42776  15.549  44.955   3.771
71248W        W42777  16.117   9.046   3.080
71249W        W42778   5.336  42.180  14.817
71250W        W42779  13.600  23.568  13.062
71251W        W42780  18.037  36.142  11.920
71252W        W42781  37.354  38.230   0.774
71253W        W42782  38.365  33.063  12.915
71254W        W42783  44.765   8.136   2.306
71255W        W42784  24.095  24.613  11.232
71256W        W42785   3.844   1.429   4.848
71257W        W42786   7.837  40.764  13.934
71258W        W42787  31.687  12.632  11.200
71259W        W42788   4.021  26.131  14.808
71260W        W42789  27.246  15.891  11.730
71261W        W42790  28.186  38.679   5.015
71262W        W42791   9.237  44.421  14.808
71263W        W42792  22.663  11.535   1.376
71264W        W42793  33.936   7.136  10.473
71265W        W42794  34.675  32.801   0.727
71266W        W42795  39.968  21.147   9.847
71267W        W42796  24.025  10.292  11.964
71268W        W42797  21.565  26.140  11.850
71269W        W42798  19.149  44.330  10.687
71270W        W42799  40.432  35.540   4.101
71271W        W42800  26.506  14.079   3.633
71272W        W42801  23.195  14.288   4.890
71273W        W42802  24.627  17.828  11.621
71274W        W42803  12.912  27.946   2.576
71275W        W42804  30.511   5.457  11.722
71276W        W42805  40.625  40.810   2.700
71277W        W42806  27.429   9.325   3.633
71278W        W42807  30.721  36.619  12.420
71279W        W42808  33.526  35.675   2.369
71280W        W42809  13.451  13.832  14.767
71281W        W42810  32.559  32.682   3.723
71282W        W42811  40.501  40.511  14.077
71283W        W42812  30.090   9.774   1.735
71284W        W42813  15.746  42.399  14.738
71285W        W42814   3.289   4.354  12.926
71286W        W42815  42.439  38.531  12.921
71287W        W42816  27.157   1.015   0.727
71288W        W42817  30.362  19.714   3.845
71289W        W42818   7.280   3.788   1.419
71290W        W42819   6.334  33.087  12.974
71291W        W42820  13.265  27.687  10.788
71292W        W42821  30.887   2.500  11.511
71293W        W42822  41.338  30.037   5.001
71294W        W42823  44.403  16.645   1.247
71295W        W42824  16.143  16.835  10.742
71296W        W42825  25.047  44.456  14.874
71297W        W42826  19.460  20.699   1.533
71298W        W42827  22.990  14.801  13.913
71299W        W42828   1.592  34.225  12.524
71300W        W42829  25.597  39.416  14.359
71301W        W42830  34.330  18.539   1.499
71302W        W42831   4.462  15.777  12.874
71303W        W42832  40.455  10.606  10.368
71304W        W42833  20.067   6.300   4.578
71305W        W42834  33.400  16.648   1.177
71306W        W42835   5.438  35.842  11.246
71307W        W42836  25.172  34.592   2.279
71308W        W42837   0.719  36.461   0.003
71309W        W42838  16.707   9.563  12.875
71310W        W42839  31.802   7.201  13.837
71311W        W42840  31.567  34.670  10.407
71312W        W42841  44.043  34.955   4.084
71313W        W42842   4.760  21.063  14.060
71314W        W42843  28.619  14.638  12.405
71315W        W42844  44.801  20.802   0.988
71316W        W42845   0.612  35.090   5.155
71317W        W42846  16.418  37.902  12.338
71318W        W42847  39.362  16.665   1.336
71319W        W42848   4.326  23.391   2.837
71320W        W42849  22.722  24.388  12.498
71321W        W42850  14.803  11.354   2.437
71322W        W42851   7.936  43.104   1.771
71323W        W42852  37.518   6.312  13.033
71324W        W42853  18.358  28.189  12.372
71325W        W42854   2.769  16.517   3.227
71326W        W42855  44.397   8.908   3.167
71327W        W42856  35.844  30.917   2.461
71328W        W42857  37.618  26.776   2.002
71329W        W42858   4.246  31.049  14.936
71330W        W42859  20.115  30.151   1.387
71331W        W42860  32.343   1.859  11.123
71332W        W42861   9.248   7.268   2.235
71333W        W42862  15.871   8.401  11.971
71334W        W42863  26.110  37.064  12.969
71335W        W42864  41.996  39.737   0.179
71336W        W42865  21.243  20.229   0.689
71337W        W42866   7.387   7.798   2.184
71338W        W42867  40.911  23.028  14.947
71339W        W42868  37.742   0.839  10.206
71340W        W42869  38.513   4.524  13.015
71341W        W42870  34.084  38.172  14.475
71342W        W42871  28.578  24.020  12.112
71343W        W42872   3.877  22.955  14.423
71344W        W42873  31.157   3.346  12.107
71345W        W42874  31.238  29.079  10.376
71346W        W42875   9.348  12.698   3.226
71347W        W42876  29.820  29.822  13.441
71348W        W42877  21.150   6.350   2.109
71349W        W42878  38.332  30.365   4.185
71350W        W42879   6.817  24.488  12.219
71351W        W42880   7.829  44.246  12.515
71352W        W42881   4.868  29.694   1.122
71353W        W42882  32.334  26.598   4.561
71354W        W42883  10.178  40.699   4.473
71355W        W42884   5.653  27.569   3.674
71356W        W42885  40.999   0.039  10.972
71357W        W42886  22.473  24.735  10.708
71358W        W42887  32.028  10.349   1.841
71359W        W42888  11.849  19.099  11.605
71360W        W42889   7.887  30.000  11.127
71361W        W42890  10.584  32.270  13.764
71362W        W42891  12.252  41.468   0.989
71363W        W42892  31.529  41.094   4.233
71364W        W42893  29.480  10.765   1.435
71365W        W42894  15.288  39.140  10.922
71366W        W42895  33.723  21.661   4.102
71367W        W42896  41.647  34.965   2.025
71368W        W42897  43.330  20.746  10.589
71369W        W42898  22.243  15.054  14.130
71370W        W42899   8.924  22.448   1.473
71371W        W42900   8.608  29.165  11.502
71372W        W42901  29.941  30.881  10.557
71373W        W42902  14.721  13.625   1.760
71374W        W42903  38.118  35.527  10.626
71375W        W42904  15.593  32.851  14.012
71376W        W42905   7.276  28.669   0.382
71377W        W42906  32.656   2.336  14.320
71378W        W42907  16.115  14.329  13.640
71379W        W42908   3.745  39.495  11.087
71380W        W42909  18.215  35.467  12.528
71381W        W42910  20.733  33.345  14.862
71382W        W42911  21.327   0.695  14.930
71383W        W42912   3.035  39.857   3.144
71384W        W42913  14.679  44.530  13.982
71385W        W42914  17.209  22.335  13.026
71386W        W42915  43.045  10.124   4.810
71387W        W42916  30.814  10.684  13.118
71388W        W42917  22.109  13.200   0.478
71389W        W42918   4.031  16.229   1.455
71390W        W42919  12.190  26.240  13.428
71391W        W42920  16.109   1.863  13.549
71392W        W42921  24.558  37.533   0.173
71393W        W42922  42.856   8.431  10.690
71394W        W42923  13.729  25.530   3.455
71395W        W42924   4.541   7.300   4.104
71396W        W42925  14.931   2.434  10.708
71397W        W42926  10.675  15.206   4.143
71398W        W42927  27.031  30.642   0.789
71399W        W42928   3.027  23.625   1.688
71400W        W42929  25.190  24.067   3.094
71401W        W42930  16.262  42.817   0.837
71402W        W42931  36.858  36.296   2.105
71403W        W42932  25.653  33.322  12.594
71404W        W42933   3.838  26.720  12.006
71405W        W42934  31.150  27.506  13.748
71406W        W42935  23.188  31.371   1.730
71407W        W42936  12.276  38.548  10.562
71408W        W42937   7.154  17.793  12.517
71409W        W42938  10.568  43.248   3.352
71410W        W42939  41.535  27.384  12.792
71411W        W42940  35.509  17.541  13.351
71412W        W42941  21.704  27.382   3.261
71413W        W42942  39.820  14.188   4.586
71414W        W42943  36.360  19.074   0.845
71415W        W42944   3.628   0.915  13.070
71416W        W42945   1.116  43.650   2.869
71417W        W42946  16.268  35.383  11.592
71418W        W42947  14.430   2.443  10.557
71419W        W42948   7.610  40.959  14.346
71420W        W42949  36.414   6.377  11.442
71421W        W42950  29.001   4.328   0.650
71422W        W42951  16.443  18.141   1.274
71423W        W42952  25.567  23.542  13.406
71424W        W42953  24.450  34.006  13.390
71425W        W42954  41.967   7.895  10.699
71426W        W42955  39.526   1.427   1.025
71427W        W42956   6.825   8.257   3.741
71428W        W42957   1.690  29.459   1.521
71429W        W42958  19.003   0.373  12.332
71430W        W42959  24.600  30.960  14.040
71431W        W42960  21.851   0.963  11.667
71432W        W42961  33.991   4.369   1.696
71433W        W42962  37.761   0.675   2.933
71434W        W42963  11.550   8.103  12.555
71435W        W42964  16.388  24.849   4.115
71436W        W42965  26.337  18.620  14.713
71437W        W42966  22.137  37.310  12.033
71438W        W42967  35.497   9.813   3.705
71439W        W42968  34.055  30.837  12.471
71440W        W42969   5.804  21.034  13.029
71441W        W42970  34.665  41.645  11.188
71442W        W42971   8.621   3.320   1.805
71443W        W42972  29.184   3.930   0.995
71444W        W42973   5.212   7.863   2.574
71445W        W42974  36.448  24.923   0.320
71446W        W42975   4.832  44.967  11.513
71447W        W42976  25.681  25.153  10.685
71448W        W42977   7.148  25.946   2.817
71449W        W42978  19.178  24.413   0.336
71450W        W42979   3.413  40.253   2.854
71451W        W42980  39.968  24.971  13.455
71452W        W42981  14.031  43.759   3.746
71453W        W42982  16.145  38.092   0.297
71454W        W42983  26.851  29.992  11.090
71455W        W42984  13.979   5.403  11.147
71456W        W42985  35.630  23.723  11.158
71457W        W42986  12.312   4.012   3.881
71458W        W42987  14.379  40.854   1.877
71459W        W42988  17.337  39.523   2.801
71460W        W42989   9.680  32.605   1.768
71461W        W42990  18.776  33.593  12.353
71462W        W42991  11.425  14.297  12.438
71463W        W42992  11.221  18.676  10.994
71464W        W42993  13.760  21.689  14.760
71465W        W42994  34.089  41.808   4.586
71466W        W42995  19.303  14.632   3.227
71467W        W42996  12.738  11.415   1.162
71468W        W42997  14.755  20.717  14.742
71469W        W42998  40.800  12.781  13.088
71470W        W42999  41.336   1.342  10.689
71471ION    NA+43000  11.006  21.832  11.047
71472ION    NA+43001   7.516  22.574  11.194
71473ION    NA+43002  39.726  15.836   2.114
71474ION    NA+43003  14.808  24.144   1.315
71475ION    NA+43004   5.664  31.751  10.231
71476ION    NA+43005  24.852  36.844   1.484
71477ION    NA+43006  36.526  29.377   1.845
71478ION    NA+43007  21.273  29.835   0.888
71479ION    NA+43008  33.776  37.878   9.761
71480ION    NA+43009  33.379  43.160   2.172
71481ION    NA+43010  33.624  24.167   3.674
71482ION    NA+43011  30.380   9.836  12.644
71483ION    NA+43012   9.314   5.106   4.715
71484ION    NA+43013  19.535  12.373  11.388
71485ION    NA+43014  28.565  31.341  12.863
71486ION    NA+43015  36.276  22.255   3.291
71487ION    NA+43016   4.420  20.280  12.482
71488ION    NA+43017   0.760  43.195   0.795
71489ION    NA+43018  33.488  14.038   1.830
71490ION    NA+43019  41.956  40.682   0.255
71491ION    NA+43020  38.754  11.420   0.939
71492ION    NA+43021  19.156  36.859   2.726
71493ION    NA+43022  38.840  16.873  12.847
71494ION    NA+43023  13.162  42.900   0.661
71495ION    NA+43024   3.279  44.910  12.071
71496ION    NA+43025   1.303  20.853  12.465
71497ION    NA+43026   9.540  17.748   2.006
71498ION    NA+43027   5.734  26.067   1.217
71499ION    NA+43028  12.924  14.675  10.731
71500ION    NA+43029  12.551  15.114   0.047
71501ION    NA+43030   3.036  18.464  11.225
71502ION    NA+43031  31.641   3.568   3.584
71503ION    NA+43032   7.223   2.976  14.032
71504ION    NA+43033  34.863  40.662  13.339
71505ION    NA+43034  40.633  25.024   3.332
71506ION    NA+43035  36.826  29.429   3.540
71507ION    NA+43036  14.741  19.541   0.225
71508ION    NA+43037  28.641  24.659   3.454
71509ION    NA+43038  15.969  19.296   0.695
71510ION    NA+43039  41.589  30.992   0.427
71511ION    NA+43040  15.297   6.004   1.808
71512ION    NA+43041  22.773  34.438   3.976
71513ION    NA+43042  13.364  34.483  10.714
71514ION    NA+43043  15.323  31.241   1.468
71515ION    NA+43044   8.341  32.578  10.940
71516ION    NA+43045  10.330  14.758  14.803
71517ION    NA+43046  43.147  15.732  12.612
71518ION    NA+43047  22.995  36.596   0.201
71519ION    NA+43048  15.251   5.521  12.544
71520ION    NA+43049   2.475  43.870   2.825
71521ION    NA+43050  38.313  32.987  12.028
71522ION    NA+43051   9.815  18.289  13.035
71523ION    NA+43052   3.674  35.369  10.634
71524ION    NA+43053  33.940   3.131  11.956
71525ION    NA+43054  32.144   3.301  11.881
71526ION    NA+43055  38.537   5.253   4.504
71527ION    NA+43056   0.500  28.036   4.542
71528ION    NA+43057   1.931   0.776  12.420
71529ION    NA+43058  36.104   0.425   0.280
71530ION    NA+43059  43.313  34.061  10.933
71531ION    NA+43060  27.877  35.698  10.670
71532ION    NA+43061   5.624  35.633  12.563
71533ION    NA+43062  43.068  19.562   0.287
71534ION    NA+43063  27.512   2.332  14.359
71535ION    NA+43064  36.760  18.124   0.758
71536ION    NA+43065  21.522  21.890  11.483
71537ION    NA+43066  34.853  19.342  10.826
71538ION    NA+43067   1.144   7.625   5.047
71539ION    NA+43068  14.837  28.693  11.261
71540ION    NA+43069   4.256  28.456   1.334
71541ION    NA+43070  19.647  21.502   3.701
71542ION    NA+43071  24.602   0.679   2.793
71543ION    NA+43072   7.392  24.731   1.284
71544ION    NA+43073   0.573  23.211   4.631
71545ION    NA+43074   0.650  17.783   0.868
71546ION    NA+43075   5.694  38.392   0.479
71547ION    NA+43076  37.947  25.093  12.608
71548ION    NA+43077  31.514  33.635  10.171
71549ION    NA+43078  43.623   6.764   3.569
71550ION    NA+43079  17.374  37.991   2.001
71551ION    NA+43080   6.847  12.724  11.596
71552ION    NA+43081   6.512   0.778  11.164
71553ION    NA+43082  12.001  14.576   2.924
71554ION    NA+43083  40.483  42.844   1.612
71555ION    NA+43084   9.694  44.746   0.925
71556ION    NA+43085  38.428  38.838   5.091
71557ION    NA+43086   2.217  22.674  11.056
71558ION    NA+43087   8.621  28.225   3.594
71559ION    NA+43088  35.924  25.131   1.461
71560ION    NA+43089  33.857  20.687  12.494
71561ION    NA+43090   8.143   6.876   0.099
71562ION    NA+43091   0.924  37.937   3.222
71563ION    NA+43092  39.898  42.783   4.808
71564ION    NA+43093  39.324  21.169  12.905
71565ION    NA+43094  18.757  13.636   0.481
71566ION    NA+43095  35.047  15.100  13.978
71567ION    NA+43096   1.738  12.680  11.265
71568ION    NA+43097   3.766   2.060  12.457
71569ION    NA+43098  10.871  42.326  13.648
71570ION    NA+43099  35.381  13.586  11.448
71571ION    NA+43100  32.679  18.070  10.030
71572ION    NA+43101   8.917   5.384  12.405
71573ION    NA+43102  13.567  35.570  11.206
71574ION    NA+43103  21.659  15.818  13.313
71575ION    NA+43104  32.977  42.512  10.649
71576ION    NA+43105   5.270  19.144   3.274
71577ION    NA+43106  32.099   6.924   0.416
71578ION    NA+43107  33.573  25.077   2.462
71579ION    NA+43108  20.233  23.683   1.819
71580ION    NA+43109   0.591  32.762  14.428
71581ION    NA+43110   8.380   4.499  10.809
71582ION    NA+43111   8.180  21.485   4.131
71583ION    NA+43112  43.007   0.195  11.195
71584ION    NA+43113  29.373  32.868   3.660
71585ION    NA+43114   4.754  25.588  10.032
71586ION    NA+43115  42.486  23.635   0.984
71587ION    NA+43116  41.022  31.443  14.738
71588ION    NA+43117  37.540  30.894  10.348
71589ION    NA+43118  31.191  27.032   4.160
71590ION    NA+43119   3.503  25.102  11.977
71591ION    NA+43120   9.754  36.228  14.445
71592ION    NA+43121  31.905  27.629  12.465
71593ION    NA+43122  14.650  16.812  13.631
71594ION    NA+43123  34.920   0.015   0.896
71595ION    NA+43124  44.623   6.984  12.282
71596ION    NA+43125  16.056   7.370   3.659
71597ION    NA+43126  29.113   8.232  11.941
71598ION    NA+43127   9.330  35.863  11.653
71599ION    NA+43128  19.014  13.239  12.520
71600ION    NA+43129   2.153   0.404   1.746
71601ION    NA+43130  32.292  12.237   0.553
71602ION    NA+43131  25.502  10.426   0.388
71603ION    NA+43132   7.801  30.446  12.029
71604ION    NA+43133   7.768   0.928   1.005
71605ION    NA+43134   5.825  16.067  14.003
71606ION    NA+43135  30.465   0.369   1.513
71607ION    NA+43136   5.999  29.821  14.095
71608ION    NA+43137  39.900  17.526  12.284
71609ION    NA+43138  26.004  33.082   1.249
71610ION    NA+43139  24.175  11.108   2.102
71611ION    NA+43140   5.295  12.220   3.993
71612ION    NA+43141  42.607  39.603  13.054
71613ION    NA+43142   0.498  37.219   3.013
71614ION    NA+43143   8.775  42.205   2.536
71615ION    NA+43144  24.982  12.707   1.770
71616ION    NA+43145  36.378   8.593   5.005
71617ION    NA+43146   6.933  44.878  11.275
71618ION    NA+43147  42.916   9.444  10.649
71619ION    NA+43148   3.771  10.651  13.120
71620ION    NA+43149  16.994  17.628   4.728
71621ION    NA+43150  23.334   1.450   4.059
71622ION    NA+43151   1.875   4.921  14.960
71623ION    NA+43152  11.739  11.419  12.503
71624ION    NA+43153   2.656  34.340   1.833
71625ION    NA+43154  44.834  25.721  14.285
71626ION    NA+43155   8.135  24.312   2.869
71627ION    NA+43156  24.242  33.880  14.821
71628ION    NA+43157  43.776  31.099   1.163
71629ION    NA+43158  22.363   8.729  14.520
71630ION    NA+43159  22.536  27.577   3.045
71631ION    NA+43160  25.482  39.390   1.913
71632ION    NA+43161   0.273  18.320  13.765
71633ION    NA+43162  22.930   9.345  13.884
71634ION    NA+43163  36.362  39.310   2.385
71635ION    NA+43164  31.881  32.469  10.865
71636ION    NA+43165  17.342   2.568   0.360
71637ION    NA+43166  44.707  32.914  12.978
71638ION    NA+43167  23.516   8.641   0.504
71639ION    NA+43168  14.061   5.703  10.716
71640ION    NA+43169  23.553  27.647   0.005
71641ION    NA+43170  27.531   3.948   4.346
71642ION    NA+43171  37.445  36.818  12.979
71643ION    NA+43172  38.475  12.637  11.983
71644ION    NA+43173   2.658  10.677  13.769
71645ION    NA+43174  29.051  26.757   1.152
71646ION    NA+43175  38.080  13.354   5.077
71647ION    NA+43176   3.229   1.352  14.994
71648ION    NA+43177   3.207  15.558   3.215
71649ION    NA+43178  31.400  28.498   0.958
71650ION    NA+43179  19.985  29.943   3.657
71651ION    NA+43180  40.139  16.531   0.857
71652ION    NA+43181  24.216  26.642  10.261
71653ION    NA+43182   4.695  16.313  12.959
71654ION    NA+43183   2.292  29.125  13.810
71655ION    NA+43184  34.589  13.713   3.250
71656ION    NA+43185  28.364  30.144  11.255
71657ION    NA+43186   8.762  34.942   3.786
71658ION    NA+43187  23.233   3.540   0.047
71659ION    NA+43188   5.702  21.465  13.275
71660ION    NA+43189  25.556  23.200  12.988
71661ION    NA+43190  26.420   1.685   0.581
71662ION    NA+43191  10.009  25.373   1.909
71663ION    NA+43192   6.261   0.974   4.483
71664ION    NA+43193  11.948  17.614   0.268
71665ION    NA+43194  39.856  19.566   3.074
71666ION    NA+43195   8.131   2.353  12.345
71667ION    NA+43196   2.761  40.808   4.363
71668ION    NA+43197  43.396  39.850   3.799
71669ION    NA+43198  38.923   3.394   1.723
71670ION    NA+43199  42.829  13.755  11.197
71671ION    NA+43200  16.580  26.963   1.110
71672ION    NA+43201  39.119  31.405   2.894
71673ION    NA+43202   5.907   8.685  11.112
71674ION    NA+43203  31.422   2.689   1.311
71675ION    NA+43204  40.654  28.589  11.073
71676ION    NA+43205  28.455  23.498   4.078
71677ION    NA+43206   7.403  34.814   4.353
71678ION    NA+43207   1.385  21.952   2.917
71679ION    NA+43208  27.463  29.852   4.657
71680ION    NA+43209   7.020   5.099   1.610
71681ION    NA+43210  29.733   7.786  10.670
71682ION    NA+43211  44.605   7.648  11.036
71683ION    NA+43212  17.114  38.985   5.408
71684ION    NA+43213   1.448  13.267   0.368
71685ION    NA+43214  27.353   1.667   4.697
71686ION    NA+43215  21.248  40.950  14.337
71687ION    NA+43216  10.577  38.077  10.970
71688ION    NA+43217  24.397  28.225  13.064
71689ION    NA+43218  42.413  14.653   1.450
71690ION    NA+43219   7.883  40.552  11.066
71691ION    NA+43220   6.462  39.349   1.875
71692ION    NA+43221  29.633  12.703  11.201
71693ION    NA+43222  18.549   5.110   2.255
71694ION    NA+43223  38.470  16.264  13.548
71695ION    NA+43224  30.305   7.374  12.770
71696ION    NA+43225  33.685  16.251  11.097
71697ION    NA+43226  38.893  12.558   3.443
71698ION    NA+43227  21.101  42.945   1.574
71699ION    NA+43228  11.355   7.326   0.848
71700ION    NA+43229   9.691   7.393  11.417
71701ION    NA+43230   6.199  11.383  12.497
71702ION    NA+43231  33.534  33.173  11.262
71703ION    NA+43232   6.263   6.443   0.832
71704ION    NA+43233  10.864  38.401  12.408
71705ION    NA+43234  24.676  31.643  13.770
71706ION    NA+43235  37.598  21.802  13.570
71707ION    NA+43236  35.736   1.499  11.108
71708ION    NA+43237   4.221  28.702  14.938
71709ION    NA+43238  40.216  14.948   2.266
71710ION    NA+43239  21.567  36.868  11.141
71711ION    NA+43240  10.316  18.964  13.606
71712ION    NA+43241  25.029  33.428  13.244
71713ION    NA+43242  43.479   2.607  10.655
71714ION    NA+43243  16.308  22.475   2.779
71715ION    NA+43244  39.563  39.072  13.703
71716ION    NA+43245  14.994   0.841   2.854
71717ION    NA+43246  22.311  18.022  14.825
71718ION    NA+43247  41.335  34.270   3.367
71719ION    NA+43248   1.015  11.673  12.010
71720ION    NA+43249  27.894  42.291   0.291
71721ION    NA+43250  42.375   4.397  12.456
71722ION    NA+43251  20.038  29.745   2.258
71723ION    NA+43252   9.975   3.005  13.308
71724ION    NA+43253  41.013  15.693   4.355
71725ION    NA+43254   6.404  33.478   4.731
71726ION    NA+43255   7.676  25.944   1.452
71727ION    NA+43256  34.718  13.054  13.523
71728ION    NA+43257  23.165  25.230   4.476
71729ION    NA+43258  27.648  13.804  14.789
71730ION    NA+43259   1.041  16.586  11.902
71731ION    NA+43260  27.740  33.029  14.316
71732ION    NA+43261  20.433   3.155   2.041
71733ION    NA+43262   2.773  25.545   3.216
71734ION    NA+43263   9.175  16.626   3.315
71735ION    NA+43264   4.310  26.972   2.213
71736ION    NA+43265  15.287  18.897   1.369
71737ION    NA+43266  20.483  10.481   0.681
71738ION    NA+43267   2.903   5.327   4.757
71739ION    NA+43268  37.579  19.763  10.737
71740ION    NA+43269  37.387  14.730  11.942
71741ION    NA+43270  43.040  37.481   0.837
71742ION    NA+43271  44.764   6.724   1.994
71743ION    NA+43272   2.840   9.799   0.404
71744ION    NA+43273  24.105  38.161   1.697
71745ION    NA+43274  18.527  36.320   0.806
71746ION    NA+43275   1.737  34.218   4.122
71747ION    NA+43276  36.306  34.572   2.507
71748ION    NA+43277  18.497  24.340   2.676
71749ION    NA+43278  20.906  10.896   1.857
71750ION    NA+43279  42.377  33.898  13.939
71751ION    NA+43280  15.025   7.927   2.945
71752ION    NA+43281   5.811  32.928   1.181
71753ION    NA+43282  20.737  43.261  11.141
71754ION    NA+43283   8.505  38.482   0.939
71755ION    NA+43284  42.989  37.121   3.234
71756ION    NA+43285  34.286  43.499   4.123
71757ION    NA+43286   9.373   2.839   1.627
71758ION    NA+43287  18.085   9.467  12.261
71759ION    NA+43288  20.212  26.280  10.398
71760ION    NA+43289  43.516  26.137  14.494
71761ION    NA+43290  20.538  11.412  14.884
71762ION    NA+43291  32.722  27.753  11.459
71763ION    NA+43292  25.008   6.420   4.561
71764ION    NA+43293  24.459  38.213  11.344
71765ION    NA+43294  17.403  23.253  12.932
71766ION    NA+43295  11.647   0.210  13.637
71767ION    NA+43296   9.740  21.992   3.116
71768ION    NA+43297  16.517  15.131   3.076
71769ION    NA+43298  24.710  18.511   2.550
71770ION    NA+43299   9.733   0.699   2.056
71771ION    NA+43300   7.043  23.657  14.341
71772ION    NA+43301  22.768  44.796  12.587
71773ION    NA+43302  14.398  12.522  14.384
71774ION    NA+43303  42.779  33.661   3.015
71775ION    NA+43304  10.341  19.347   3.320
71776ION    NA+43305  36.967  18.176  12.191
71777ION    NA+43306  43.001   2.192  14.397
71778ION    NA+43307   8.180  26.851   1.158
71779ION    NA+43308   4.262  29.815  12.732
71780ION    NA+43309  18.746  14.587  13.338
71781ION    NA+43310  34.673   9.191  14.944
71782ION    NA+43311   7.208  10.440   1.959
71783ION    NA+43312   9.265  12.366   1.287
71784ION    NA+43313  41.229  29.166   0.856
71785ION    NA+43314  33.673  40.024  12.717
71786ION    NA+43315  41.906  37.339  14.131
71787ION    NA+43316  10.860  22.629  13.513
71788ION    NA+43317  40.617  36.988   1.024
71789ION    NA+43318  40.990   3.564  13.368
71790ION    NA+43319  40.183   7.637   0.535
71791ION    NA+43320  20.384  34.412   4.636
71792ION    NA+43321  36.023  35.903   4.965
71793ION    NA+43322   9.889  38.495  14.871
71794ION    NA+43323  31.209  10.796   3.749
71795ION    NA+43324  43.704   9.845  11.205
71796ION    NA+43325   9.039   9.140  13.041
71797ION    NA+43326  32.161  24.034   3.743
71798ION    NA+43327  20.941   1.757  11.214
71799ION    NA+43328  41.609   8.673  14.406
71800ION    NA+43329   0.834  34.559  12.498
71801ION    NA+43330   3.153  16.656  14.032
71802ION    NA+43331  26.976  31.215  14.927
71803ION    NA+43332  24.783  38.169  14.553
71804ION    NA+43333  38.464  17.909   2.147
71805ION    NA+43334  36.827  34.364  13.757
71806ION    NA+43335  26.025  35.201   2.196
71807ION    NA+43336  17.169   4.681   4.064
71808ION    NA+43337  42.183  38.291  12.526
71809ION    NA+43338   0.093  34.223  11.749
71810ION    NA+43339  15.251  12.597  13.790
71811ION    NA+43340  33.550   4.441   3.868
71812ION    NA+43341  44.201   1.751   1.828
71813ION    NA+43342  21.913   6.921   0.547
71814ION    NA+43343  38.879  26.006   3.731
71815ION    NA+43344  41.385  35.778   3.008
71816ION    NA+43345  30.959  41.968   0.374
71817ION    NA+43346  26.048  11.100   2.847
71818ION    NA+43347  35.167  19.090  11.742
71819ION    NA+43348  35.887   3.433  11.521
71820ION    NA+43349   8.264  13.222  13.703
71821ION    NA+43350  30.123  22.600  14.102
71822ION    NA+43351  14.078  23.479   1.470
71823ION    NA+43352   3.854  40.579  12.941
71824ION    NA+43353   0.060   9.605   0.270
71825ION    NA+43354  34.013  43.434   0.759
71826ION    NA+43355  17.845   6.493  12.584
71827ION    NA+43356  32.117  37.584   2.893
71828ION    NA+43357  23.426  15.118   4.968
71829ION    NA+43358   1.164  26.158  13.952
71830ION    NA+43359  29.591   8.484  13.863
71831ION    NA+43360  40.058   3.262  13.124
71832ION    NA+43361  10.626   4.756   0.269
71833ION    NA+43362   3.689   3.195  10.887
71834ION    NA+43363  41.824  43.630  11.369
71835ION    NA+43364  23.490  16.969  10.560
71836ION    NA+43365  15.706  39.490   4.294
71837ION    NA+43366   0.770  21.019  10.354
71838ION    NA+43367  34.452  34.185   0.680
71839ION    NA+43368  33.818  15.745   3.603
71840ION    NA+43369  27.005  27.612   3.254
71841ION    NA+43370  24.916  35.519  12.189
71842ION    NA+43371  33.647   8.725  11.170
71843ION    NA+43372  17.951   9.812   0.428
71844ION    NA+43373  25.971   7.556  11.570
71845ION    NA+43374  14.755  38.582  11.441
71846ION    NA+43375  11.815  43.508  12.543
71847ION    NA+43376  23.450  16.224  12.468
71848ION    NA+43377   7.932   6.012   0.266
71849ION    NA+43378  24.502  20.736  11.600
71850ION    NA+43379  14.665  43.524  13.838
71851ION    NA+43380  15.403  10.131   1.215
71852ION    NA+43381  22.633  14.531   2.725
71853ION    NA+43382   8.652  20.914   9.941
71854ION    NA+43383  29.106  32.176   5.201
71855ION    NA+43384   3.507  35.842  13.457
71856ION    NA+43385   3.733  37.026  11.657
71857ION    NA+43386   5.243  20.097   3.717
71858ION    NA+43387  44.849  13.390   2.265
71859ION    NA+43388  37.069  25.764   1.205
71860ION    NA+43389  28.895  32.014   4.004
71861ION    NA+43390   8.899  24.848   3.142
71862ION    NA+43391  31.290   1.869  12.068
71863ION    NA+43392  23.281  37.539   0.418
71864ION    NA+43393   9.846  32.083  14.738
71865ION    NA+43394  22.850  31.253  10.705
71866ION    NA+43395  22.510  42.653  12.272
71867ION    NA+43396   5.497  29.457  14.880
71868ION    NA+43397  15.504   0.940  12.466
71869ION    NA+43398  44.543  38.247  14.722
71870ION    NA+43399   8.088   5.762  11.455
71871ION    NA+43400  12.095  15.082  12.500
71872ION    NA+43401   3.180  13.634  11.233
71873ION    NA+43402  14.560  35.106   0.945
71874ION    NA+43403  37.190  40.089   2.766
71875ION    NA+43404  30.637  12.702  12.529
71876ION    NA+43405  23.300   6.726   3.612
71877ION    NA+43406  32.216  17.027   3.861
71878ION    NA+43407  36.652  11.785  14.358
71879ION    NA+43408  19.167  18.297  11.378
71880ION    NA+43409  34.048  19.336   4.400
71881ION    NA+43410  19.678  15.686   4.590
71882ION    NA+43411  23.080  28.044   1.331
71883ION    NA+43412  10.458  44.099  13.966
71884ION    NA+43413  37.215  14.479  10.482
71885ION    NA+43414   8.608  24.110   3.531
71886ION    NA+43415   2.075  36.230   5.401
71887ION    NA+43416  27.715  14.218   3.175
71888ION    NA+43417  18.718  18.063   1.443
71889ION    NA+43418  41.387  13.121   3.526
71890ION    NA+43419  44.144  31.102   3.103
71891ION    NA+43420   9.144  29.063   4.672
71892ION    NA+43421  23.673   2.834   4.644
71893ION    NA+43422   9.713  20.987  11.908
71894ION    NA+43423   3.271  14.075   3.927
71895ION    NA+43424   5.780  43.854   1.762
71896ION    NA+43425  29.237  28.222   0.918
71897ION    NA+43426  33.179  37.585   4.085
71898ION    NA+43427  40.537   8.193   1.116
71899ION    NA+43428  10.669  31.544  14.558
71900ION    NA+43429  35.595  34.743   0.072
71901ION    NA+43430   4.686  10.745   1.091
71902ION    NA+43431  41.409  33.104  12.988
71903ION    NA+43432  33.795  26.717   5.022
71904ION    NA+43433  32.134  16.898  13.878
71905ION    NA+43434  36.855   1.071   4.137
71906ION    NA+43435   0.803  43.369  11.336
71907ION    NA+43436  19.866  40.684  11.182
71908ION    NA+43437  28.188   7.898  12.152
71909ION    NA+43438  21.519  17.341  14.872
71910ION    NA+43439  40.636  25.821   5.063
71911ION    NA+43440  15.885  21.684   2.698
71912ION    NA+43441  13.257  43.891   2.380
71913ION    NA+43442  27.174   9.238  12.600
71914ION    NA+43443  18.114  18.931   2.244
71915ION    NA+43444  16.539  29.755   1.427
71916ION    NA+43445  44.152  12.637  14.044
71917ION    NA+43446   0.703   3.406  13.431
71918ION    NA+43447  12.428  16.736   0.250
71919ION    NA+43448  14.073  14.821   1.712
71920ION    NA+43449  23.736  41.577   0.926
71921ION    NA+43450  21.799  42.732   3.343
71922ION    NA+43451  11.854   4.631   2.827
71923ION    NA+43452  40.802  27.083   3.994
71924ION    NA+43453  38.120  33.500  13.972
71925ION    NA+43454  43.960  41.287  13.424
71926ION    NA+43455  31.145  31.099  12.049
71927ION    NA+43456  43.966  10.706  14.614
71928ION    NA+43457   1.027  12.738  14.347
71929ION    NA+43458  42.658  25.308  14.428
71930ION    NA+43459  29.822   8.748  10.409
71931ION    NA+43460  26.336  35.826   3.956
71932ION    NA+43461  19.264  31.212  12.992
71933ION    NA+43462  26.090  34.108   5.180
71934ION    NA+43463  41.704  25.054   3.055
71935ION    NA+43464  33.247  11.975  11.451
71936ION    NA+43465  29.718  20.687  12.577
71937ION    NA+43466  13.701  31.507   0.892
71938ION    NA+43467  30.928   6.176   4.137
71939ION    NA+43468   0.793  42.434  10.979
71940ION    NA+43469  24.029  14.896  11.646
71941ION    NA+43470  33.002  18.173   3.277
71942ION    NA+43471  12.229   3.313   0.226
71943ION    NA+43472  34.511  23.040   3.757
71944ION    NA+43473  33.297  39.123  14.101
71945ION    NA+43474  17.647  23.821   0.242
71946ION    NA+43475  35.249  17.645  10.725
71947ION    NA+43476   9.289   1.549  11.048
71948ION    NA+43477  41.334   2.352  14.269
71949ION    NA+43478  35.173  38.591   3.657
71950ION    NA+43479  37.614  29.268  13.943
71951ION    NA+43480  25.770  38.581  14.768
71952ION    NA+43481  42.426  14.117  12.572
71953ION    NA+43482   8.325  41.421  10.845
71954ION    NA+43483  29.239  37.524   2.279
71955ION    NA+43484  23.473   5.654  10.691
71956ION    NA+43485  14.466  28.950   1.708
71957ION    NA+43486  26.875   8.401   2.373
71958ION    NA+43487  13.091  35.094  13.214
71959ION    NA+43488  36.786   6.883  10.687
71960ION    NA+43489  39.079  17.704  11.567
71961ION    NA+43490  21.068   6.978  14.450
71962ION    NA+43491  42.396  20.230  10.708
71963ION    NA+43492  38.122  32.620  11.118
71964ION    NA+43493   7.284  43.745   2.857
71965ION    NA+43494   8.131  20.861  12.928
71966ION    NA+43495  31.229  29.624   0.729
71967ION    NA+43496   4.609  40.831   1.252
71968ION    NA+43497  11.162   4.988   4.200
71969ION    NA+43498  32.966   5.016   2.564
71970ION    NA+43499  32.589   2.598  13.193
71971ION    NA+43500  32.046  33.285   5.314
71972ION    NA+43501  13.314  24.717   1.809
71973ION    NA+43502  22.283   0.407  14.809
71974ION    NA+43503   4.731  17.717  10.074
71975ION    NA+43504  30.871  19.069  12.337
71976ION    NA+43505  30.900  44.606   0.764
71977ION    NA+43506  41.954   5.517   0.090
71978ION    NA+43507  36.921  37.813   4.077
71979ION    NA+43508  32.717  39.941  13.627
71980ION    NA+43509  41.522   9.375  11.340
71981ION    NA+43510  27.167  12.267   3.506
71982ION    NA+43511  38.300  25.787   0.380
71983ION    NA+43512  36.441  36.476  14.958
71984ION    NA+43513  31.877  25.497   0.271
71985ION    NA+43514  27.954   3.791   1.428
71986ION    NA+43515  33.803  24.352  14.608
71987ION    NA+43516   3.102  32.676  13.244
71988ION    NA+43517  32.975  11.657   1.937
71989ION    NA+43518  17.011  13.678  10.621
71990ION    NA+43519  15.521   2.316  11.558
71991ION    NA+43520  36.869  17.504   3.992
71992ION    NA+43521   6.831  20.176  10.567
71993ION    NA+43522  43.684   5.803  13.203
71994ION    NA+43523   2.717  21.766   4.888
71995ION    NA+43524   9.183  33.865  10.504
71996ION    NA+43525  35.853  39.203   3.253
71997ION    NA+43526   7.899  41.020  12.577
71998ION    NA+43527  35.502  26.781  13.639
71999ION    NA+43528  31.911  22.724   4.182
72000ION    NA+43529  16.679  17.006  13.840
72001ION    NA+43530   8.274  35.972  13.477
72002ION    NA+43531  32.596   6.385  10.762
72003ION    NA+43532  10.701   6.238  10.162
72004ION    NA+43533  12.839  19.412   3.470
72005ION    NA+43534  18.745   1.248  13.796
72006ION    NA+43535  24.466  20.074  11.010
72007ION    NA+43536  31.742  31.350   0.766
72008ION    NA+43537  33.846  42.035  12.073
72009ION    NA+43538   7.412   8.771  12.003
72010ION    NA+43539   2.931   0.793  12.385
72011ION    NA+43540  16.332  44.403  14.415
72012ION    NA+43541  13.342  16.970   4.630
72013ION    NA+43542   5.946  24.002  11.855
72014ION    NA+43543  15.090  26.808  11.659
72015ION    NA+43544   9.256  15.807  10.596
72016ION    NA+43545  36.533  24.027   4.308
72017ION    NA+43546  12.755  39.803   2.238
72018ION    NA+43547   4.327   5.108  11.975
72019ION    NA+43548  25.471  16.925  13.843
72020ION    NA+43549  33.481  18.053  13.615
72021ION    NA+43550  19.638  11.510   2.700
72022ION    NA+43551  43.175  27.127   2.711
72023ION    NA+43552  28.065  39.873   0.743
72024ION    NA+43553  34.524  34.527   4.667
72025ION    NA+43554  29.588   1.009  13.917
72026ION    NA+43555   0.716  22.237   3.703
72027ION    NA+43556  20.406   0.725  12.063
72028ION    NA+43557  41.556  42.824   2.778
72029ION    NA+43558  16.295  33.477  12.547
72030ION    NA+43559  18.598  31.014  11.846
72031ION    NA+43560   2.057  16.574   4.778
72032ION    NA+43561  41.303  42.856  14.486
72033ION    NA+43562  35.408  22.789  14.845
72034ION    NA+43563   3.807   2.224   0.310
72035ION    NA+43564  37.961  40.383  10.371
72036ION    NA+43565  39.384  13.578   4.199
72037ION    NA+43566  34.508  32.610   4.499
72038ION    NA+43567  34.072  11.663  11.664
72039ION    NA+43568  31.380  23.054   5.326
72040ION    NA+43569  26.866   4.342  13.331
72041ION    NA+43570  30.159  26.877   0.890
72042ION    NA+43571  10.563   6.153   4.611
72043ION    NA+43572  35.064  18.058   0.435
72044ION    NA+43573  42.517  18.876   2.614
72045ION    NA+43574  36.893  28.900  12.339
72046ION    NA+43575  16.269   7.195  12.405
72047ION    NA+43576   3.189  20.924   4.627
72048ION    NA+43577   7.134   1.819   4.292
72049ION    NA+43578  30.616  18.760  13.848
72050ION    NA+43579  17.517  18.844  14.359
72051ION    NA+43580  20.413  35.428  13.391
72052ION    NA+43581  33.568   7.839  14.978
72053ION    NA+43582  21.156  30.824   0.979
72054ION    NA+43583  38.850   8.225   1.123
72055ION    NA+43584  18.535  40.335   0.647
72056ION    NA+43585   1.162   1.874  12.176
72057ION    NA+43586  23.906   0.614  14.392
72058ION    NA+43587  15.891  18.604   5.333
72059ION    NA+43588  13.221  33.041   2.589
72060ION    NA+43589   8.360  10.459   4.901
72061ION    NA+43590  39.410   1.679   5.003
72062ION    NA+43591  12.647  42.278  14.485
72063ION    NA+43592   0.499   1.470   1.798
72064ION    NA+43593  14.967  25.213   4.253
72065ION    NA+43594  10.717   2.148   4.723
72066ION    NA+43595  38.382  34.569   3.361
72067ION    NA+43596  17.245  14.069   4.272
72068ION    NA+43597  39.399  29.385  14.787
72069ION    NA+43598  15.146  30.494   3.135
72070ION    NA+43599  13.942  27.848   0.640
72071ION    NA+43600  35.013  32.996   2.880
72072ION    NA+43601   0.681  41.644  12.256
72073ION    NA+43602  42.910  12.298  10.307
72074ION    NA+43603  41.416  11.138  12.036
72075ION    NA+43604  30.744  39.481  14.937
72076ION    NA+43605  17.050  21.216  11.136
72077ION    NA+43606  17.090   4.548  12.673
72078ION    NA+43607  17.473  32.978   4.633
72079ION    NA+43608  37.407  16.863   0.836
72080ION    NA+43609  25.765  29.460   0.360
72081ION    NA+43610   4.954  31.424  11.339
72082ION    NA+43611   0.923  29.049  14.438
72083ION    NA+43612  42.879  35.422  13.999
72084ION    NA+43613   6.147  33.202  10.739
72085ION    NA+43614  12.370   0.848   1.769
72086ION    NA+43615  42.091   4.923   4.026
72087ION    NA+43616   0.410  43.870  10.705
72088ION    NA+43617  28.619  35.017   2.180
72089ION    NA+43618   4.005  38.466   1.955
72090ION    NA+43619  39.887  15.719   3.894
72091ION    NA+43620  44.641  30.265   0.516
72092ION    NA+43621   4.931   3.382   2.175
72093ION    NA+43622  35.967  13.536  12.712
72094ION    NA+43623  23.067  34.922   0.280
72095ION    NA+43624   2.869  29.664   4.277
72096ION    NA+43625  35.100  29.441  11.081
72097ION    NA+43626  16.851  38.647  12.638
72098ION    NA+43627   9.421  27.848  12.160
72099ION    NA+43628  22.045   5.737  11.097
72100ION    NA+43629  14.003  23.212  14.790
72101ION    NA+43630   0.255   7.319  12.792
72102ION    NA+43631  39.979  23.262  10.991
72103ION    NA+43632  36.458   1.296  13.064
72104ION    NA+43633   1.160  32.780  11.243
72105ION    NA+43634  38.943   8.867   3.203
72106ION    NA+43635   2.354  11.562   2.212
72107ION    NA+43636   8.393   4.642  11.986
72108ION    NA+43637   3.669  30.902   1.666
72109ION    NA+43638  32.709  36.649   0.879
72110ION    NA+43639  44.021   4.045   0.883
72111ION    NA+43640  43.732   6.094  11.831
72112ION    NA+43641  21.258  15.287  10.322
72113ION    NA+43642  28.232   1.284  12.803
72114ION    NA+43643  19.362   8.773   1.720
72115ION    NA+43644  41.762  38.791   0.327
72116ION    NA+43645  44.151  30.062  12.865
72117ION    NA+43646  15.829  26.278  12.098
72118ION    NA+43647  40.804  43.973   2.882
72119ION    NA+43648  38.435  14.804   1.992
72120ION    NA+43649  16.838  34.599   2.732
72121ION    NA+43650  21.393  18.984  14.235
72122ION    NA+43651  42.413  20.517   2.755
72123ION    NA+43652   3.697  38.422  11.115
72124ION    NA+43653  41.842  16.297  11.530
72125ION    NA+43654  27.970   1.687  11.437
72126ION    NA+43655  19.971  26.431  13.468
72127ION    NA+43656  28.897  37.883  11.083
72128ION    NA+43657  27.638   8.763  13.348
72129ION    NA+43658  11.162  21.173  11.783
72130ION    NA+43659   2.790  33.401  12.737
72131ION    NA+43660   7.962  42.504  11.048
72132ION    NA+43661   2.683  19.297  11.297
72133ION    NA+43662  34.082  29.102  11.922
72134ION    NA+43663  26.890   5.230   0.807
72135ION    NA+43664  30.309   2.870   2.941
72136ION    NA+43665  24.927  21.468  12.913
72137ION    NA+43666   8.282  26.765  11.536
72138ION    NA+43667  16.734  39.126   4.158
72139ION    NA+43668  29.936   8.206   4.322
72140ION    NA+43669  13.443  32.122  11.933
72141ION    NA+43670   2.544  21.188   3.902
72142ION    NA+43671  36.026  36.360  10.468
72143ION    NA+43672  38.001  19.105  14.735
72144ION    NA+43673   0.603   6.899   4.034
72145ION    NA+43674  12.261  24.559   3.730
72146ION    NA+43675  28.888  31.550   2.054
72147ION    NA+43676  27.645  39.630  12.376
72148ION    NA+43677  28.430   6.283  12.804
72149ION    NA+43678  42.691   6.357   3.762
72150ION    NA+43679  19.729  23.063   1.218
72151ION    NA+43680  10.395  40.288  14.848
72152ION    NA+43681  39.386  28.320  14.303
72153ION    NA+43682  24.976  20.224   4.600
72154ION    NA+43683  20.447  14.734   4.774
72155ION    NA+43684  36.048  20.739  13.321
72156ION    NA+43685  29.654  24.848  13.008
72157ION    NA+43686  40.996  28.075   1.922
72158ION    NA+43687   7.576   7.132   3.184
72159ION    NA+43688  18.439  17.183   0.594
72160ION    NA+43689  11.482   1.084  14.596
72161ION    NA+43690  34.977  16.826  10.613
72162ION    NA+43691  22.944   1.818  11.471
72163ION    NA+43692  16.174  11.712   2.718
72164ION    NA+43693  25.139  34.623  14.787
72165ION    NA+43694  10.178  37.066   4.155
72166ION    NA+43695  16.361  37.025   3.355
72167ION    NA+43696   0.267  20.731   4.062
72168ION    NA+43697  21.075  19.692  11.153
72169ION    NA+43698  18.365  42.081  12.370
72170ION    NA+43699  32.348  24.327   5.217
72171ION    NA+43700  42.498  40.782   3.407
72172ION    NA+43701  43.058  31.507  14.106
72173ION    NA+43702  12.561  38.723  11.288
72174ION    NA+43703  44.273  36.606   4.710
72175ION    NA+43704  20.095  23.261  10.932
72176ION    NA+43705  10.166  26.194  14.364
72177ION    NA+43706  38.954  10.049   1.209
72178ION    NA+43707   2.020  39.289   0.205
72179ION    NA+43708  40.473  43.034   9.883
72180ION    NA+43709   5.309   5.184   2.384
72181ION    NA+43710  32.768   1.220   1.662
72182ION    NA+43711  18.779   9.143   3.816
72183ION    NA+43712   3.139  26.859  11.213
72184ION    NA+43713  36.466  14.793   3.030
72185ION    NA+43714  39.319  29.684  10.896
72186ION    NA+43715  26.881   2.341  12.140
72187ION    NA+43716  21.506  22.881  11.613
72188ION    NA+43717  23.399  28.613   0.233
72189ION    NA+43718  41.547  33.379  11.966
72190ION    NA+43719  17.864  27.449  13.484
72191ION    NA+43720  17.817  14.084   2.495
72192ION    NA+43721   0.764  22.232   4.703
72193ION    NA+43722   3.446  42.486   3.860
72194ION    NA+43723  15.296   1.499   1.510
72195ION    NA+43724  35.885   5.862   2.722
72196ION    NA+43725  42.819  26.158  11.282
72197ION    NA+43726  30.332   4.610   4.681
72198ION    NA+43727  44.749  38.878  13.418
72199ION    NA+43728  41.970  23.655   5.407
72200ION    NA+43729  27.802   4.123  13.605
72201ION    NA+43730  35.954  33.327  12.804
72202ION    NA+43731   5.654  39.793  11.127
72203ION    NA+43732   3.871  43.904  12.199
72204ION    NA+43733   0.100  37.967  12.402
72205ION    NA+43734  13.686  28.923   2.334
72206ION    NA+43735  12.598  16.210   4.085
72207ION    NA+43736  35.418   6.887  14.029
72208ION    NA+43737  16.183  30.646   3.128
72209ION    NA+43738  44.284   8.009   1.744
72210ION    NA+43739  26.991  39.030  14.963
72211ION    NA+43740   2.356   9.498  12.422
72212ION    NA+43741  30.172   1.850   2.318
72213ION    NA+43742  35.628  39.277   4.225
72214ION    NA+43743  43.771  11.284   1.260
72215ION    NA+43744   4.547  44.388   3.512
72216ION    NA+43745  14.261  13.007   3.858
72217ION    NA+43746  16.737  28.176   2.882
72218ION    NA+43747  18.618   5.446   0.987
72219ION    NA+43748  26.796  23.392   1.220
72220ION    NA+43749  32.257  25.386  11.631
72221ION    NA+43750  34.584  17.141   2.859
72222ION    NA+43751  17.527  27.539  11.525
72223ION    NA+43752  40.936  14.205  13.010
72224ION    NA+43753  20.258  37.163  10.616
72225ION    NA+43754  33.933   6.827  12.582
72226ION    NA+43755   4.327   3.277   4.620
72227ION    NA+43756  18.840  31.378  14.639
72228ION    NA+43757  11.834  12.300   0.233
72229ION    NA+43758   8.522  41.649   5.150
72230ION    NA+43759  11.704   9.869   2.734
72231ION    NA+43760  25.379  33.550  13.979
72232ION    NA+43761  43.892  32.656   0.380
72233ION    NA+43762  13.955   6.512   1.268
72234ION    NA+43763  17.176  23.492   4.638
72235ION    NA+43764  24.097  13.931  11.223
72236ION    NA+43765  21.759  27.031   1.829
72237ION    NA+43766  13.697  25.135  10.711
72238ION    NA+43767  18.201  17.783  14.559
72239ION    NA+43768   9.741  20.802   0.735
72240ION    NA+43769  32.658  17.369   1.033
72241ION    NA+43770  19.558  43.411  11.020
72242ION    NA+43771  22.104  14.497  13.490
72243ION    NA+43772   6.606  32.012  11.703
72244ION    NA+43773  21.056   5.337  13.917
72245ION    NA+43774  29.733   8.212  14.815
72246ION    NA+43775   5.448  29.354   3.500
72247ION    NA+43776  37.213   4.211  11.129
72248ION    NA+43777  12.973  31.000   4.850
72249ION    NA+43778  37.428  41.689   2.724
72250ION    NA+43779   4.355  26.010  12.166
72251ION    NA+43780  15.305   8.472  11.086
72252ION    NA+43781  41.245  38.719   1.067
72253ION    NA+43782  43.049  29.303  11.036
72254ION    NA+43783  18.683  16.201   1.400
72255ION    NA+43784  16.189  31.561   3.554
72256ION    NA+43785   9.926  35.248  14.349
72257ION    NA+43786  10.503   0.610   1.582
72258ION    NA+43787  34.046   7.723  13.849
72259ION    NA+43788  29.359  13.567   0.603
72260ION    NA+43789  12.927   5.061  11.318
72261ION    NA+43790  20.749   1.077   1.541
72262ION    NA+43791   8.274   8.399   2.045
72263ION    NA+43792  15.682  33.521   1.728
72264ION    NA+43793  31.139  38.495   1.291
72265ION    NA+43794   1.607  10.632   2.332
72266ION    NA+43795   9.814  25.967  11.598
72267ION    NA+43796  19.134  20.301   1.489
72268ION    NA+43797  25.662  30.517   3.628
72269ION    NA+43798  14.814  12.044   1.372
72270ION    NA+43799  18.033   3.748  13.939
72271ION    NA+43800  35.603  18.081   1.821
72272ION    NA+43801  14.316  41.608   0.130
72273ION    NA+43802   1.362  17.579  14.409
72274ION    NA+43803  22.950  10.817  12.233
72275ION    NA+43804  23.752   6.807  11.195
72276ION    NA+43805  43.988  22.335   4.626
72277ION    NA+43806  35.815  41.155  13.362
72278ION    NA+43807   6.329  18.168   3.049
72279ION    NA+43808  14.482  15.405  14.332
72280ION    NA+43809  17.861  30.478  12.467
72281ION    NA+43810  36.433  22.253  11.165
72282ION    NA+43811   0.354  21.958   2.548
72283ION    NA+43812   4.841   3.920  14.460
72284ION    NA+43813   8.701  29.884   1.250
72285ION    NA+43814  43.011  24.741  13.168
72286ION    NA+43815  17.081  16.425   3.273
72287ION    NA+43816  44.862   4.701  11.754
72288ION    NA+43817   7.845   9.929   1.574
72289ION    NA+43818  40.243  37.712   0.308
72290ION    NA+43819  26.148  35.493  12.314
72291ION    NA+43820   3.969  41.549  12.136
72292ION    NA+43821  21.800  18.579   0.479
72293ION    NA+43822  44.875   5.506   0.825
72294ION    NA+43823  15.750  28.133  13.182
72295ION    NA+43824   2.344   6.300  11.764
72296ION    NA+43825   0.565  11.810  14.314
72297ION    NA+43826  20.742   5.684  11.948
72298ION    NA+43827   8.012  30.686   4.086
72299ION    NA+43828  42.524  30.452   4.765
72300ION    NA+43829  43.032  40.463  14.791
72301ION    NA+43830  12.077  39.555  11.654
72302ION    NA+43831  35.871  37.541  13.880
72303ION    NA+43832  40.522   7.300  13.682
72304ION    NA+43833  37.927  36.719   1.481
72305ION    NA+43834  30.470  21.989  13.041
72306ION    NA+43835  11.546  11.345   0.809
72307ION    NA+43836   4.341  37.596   9.893
72308ION    NA+43837  15.563  17.300  11.809
72309ION    NA+43838  25.440  38.389  11.124
72310ION    NA+43839   8.163   3.409   1.558
72311ION    NA+43840  10.913  33.269   3.998
72312ION    NA+43841  21.135   2.759  13.078
72313ION    NA+43842  33.576  32.143   1.992
72314ION    NA+43843  19.696  24.203   3.188
72315ION    NA+43844  15.640   0.407   2.226
72316ION    NA+43845  39.719  42.301   3.694
72317ION    NA+43846  36.940  11.283  10.649
72318ION    NA+43847   9.378  40.983   4.170
72319ION    NA+43848  43.203   5.082  12.908
72320ION    NA+43849  42.948   8.670  11.662
72321ION    NA+43850  18.296  19.397   3.110
72322ION    NA+43851  22.784   1.938   2.676
72323ION    NA+43852  18.529  12.922  13.370
72324ION    NA+43853  32.212  32.870   4.118
72325ION    NA+43854  13.407  15.946  14.871
72326ION    NA+43855   2.805  39.467  13.143
72327ION    NA+43856  35.714  36.830  13.501
72328ION    NA+43857  25.446   2.782   2.154
72329ION    NA+43858  14.271  33.431   1.432
72330ION    NA+43859   6.272  43.231   0.397
72331ION    NA+43860  13.632  22.504   0.214
72332ION    NA+43861  30.919  32.177   0.846
72333ION    NA+43862   8.894  33.260  12.862
72334ION    NA+43863   7.938  36.691  13.058
72335ION    NA+43864   8.153   2.359   2.139
72336ION    NA+43865  29.829  39.539  11.692
72337ION    NA+43866  31.675  23.422  14.419
72338ION    NA+43867  24.759  44.489   1.598
72339ION    NA+43868  10.167  17.579   2.627
72340ION    NA+43869  24.458  13.355  12.803
72341ION    NA+43870  41.438  33.699  14.331
72342ION    NA+43871  38.036  11.171   1.419
72343ION    NA+43872   1.328  31.430  10.728
72344ION    NA+43873  23.977  41.465  13.896
72345ION    NA+43874   7.858  11.963   2.372
72346ION    NA+43875  30.925  32.391  11.531
72347ION    NA+43876  29.693  40.178   9.698
72348ION    NA+43877  26.155  41.925  14.907
72349ION    NA+43878  30.454  42.051  14.625
72350ION    NA+43879  12.064  42.023   2.327
72351ION    NA+43880  20.916  20.067  13.090
72352ION    NA+43881   9.120  41.165   1.707
72353ION    NA+43882  41.114  35.657   4.668
72354ION    NA+43883  42.753  29.133  11.977
72355ION    NA+43884  38.084   4.040   2.330
72356ION    NA+43885  44.463  35.210  12.201
72357ION    NA+43886   5.328  43.560  14.712
72358ION    NA+43887  11.252  12.248   4.615
72359ION    NA+43888  32.373  41.426  12.564
72360ION    NA+43889  20.353  37.582  14.481
72361ION    NA+43890  20.959  33.982  13.640
72362ION    NA+43891  41.739  38.225  10.850
72363ION    NA+43892   7.555   2.805   2.805
72364ION    NA+43893  43.535  11.734  12.150
72365ION    NA+43894  23.844  30.798  14.605
72366ION    NA+43895   8.785  35.276   0.244
72367ION    NA+43896  25.652  15.102   4.166
72368ION    NA+43897  42.780  19.221  13.597
72369ION    NA+43898  19.237  19.973   2.429
72370ION    NA+43899  43.400  15.645   5.059
72371ION    NA+43900   9.106  27.747  11.023
72372ION    NA+43901  13.314  12.321  12.178
72373ION    NA+43902   7.807  38.067  12.401
72374ION    NA+43903  16.076   4.992   0.205
72375ION    NA+43904  10.073  37.005  11.518
72376ION    NA+43905  35.841  30.075   2.806
72377ION    NA+43906  38.036  36.169   3.777
72378ION    NA+43907  22.742   5.718  12.033
72379ION    NA+43908   5.419   8.469   0.849
72380ION    NA+43909  12.240  15.405  10.726
72381ION    NA+43910  23.230  26.611   3.556
72382ION    NA+43911  11.111  44.075  12.117
72383ION    NA+43912  28.600  11.130   3.214
72384ION    NA+43913  23.358  42.653  11.346
72385ION    NA+43914   1.439  34.365  14.587
72386ION    NA+43915  31.083  21.075  10.641
72387ION    NA+43916  11.197  13.819   0.053
72388ION    NA+43917  21.391  44.759   4.161
72389ION    NA+43918  27.023  42.262   4.267
72390ION    NA+43919  30.003   4.778  13.319
72391ION    NA+43920  11.362  26.760  11.844
72392ION    NA+43921  40.908  35.717   0.558
72393ION    NA+43922  37.132  32.502   1.330
72394ION    NA+43923  18.800  21.779  12.598
72395ION    NA+43924  26.553  13.554   0.961
72396ION    NA+43925   3.837   7.100   3.380
72397ION    NA+43926   2.146   9.291  14.893
72398ION    NA+43927  17.766  40.315   2.952
72399ION    NA+43928  27.163  16.700  13.285
72400ION    NA+43929   8.489  14.359   1.702
72401ION    NA+43930  31.675  21.110   1.013
72402ION    NA+43931  43.663  17.156   3.792
72403ION    NA+43932  22.676  41.275  14.278
72404ION    NA+43933  19.637  35.811  13.142
72405ION    NA+43934  37.113  24.595   3.715
72406ION    NA+43935  10.822  23.591  10.506
72407ION    NA+43936  17.558  10.357  11.957
72408ION    NA+43937  42.638  26.432  13.991
72409ION    NA+43938  20.209   2.643  13.946
72410ION    NA+43939   3.959   4.050  10.786
72411ION    NA+43940  38.275  19.322   2.841
72412ION    NA+43941  42.844  27.311   1.785
72413ION    NA+43942  14.587   9.250   2.298
72414ION    NA+43943   8.200  14.113   0.777
72415ION    NA+43944   9.955  16.636  13.591
72416ION    NA+43945  16.820  21.418  13.834
72417ION    NA+43946  10.983  17.931  12.556
72418ION    NA+43947  26.169  41.247   1.766
72419ION    NA+43948  31.282  25.602  11.581
72420ION    NA+43949  29.122   3.328  14.714
72421ION    NA+43950   5.719   3.421   0.818
72422ION    NA+43951   3.383  14.689   0.015
72423ION    NA+43952  10.697   2.727  14.308
72424ION    NA+43953  40.571  17.749   1.975
72425ION    NA+43954  15.556  37.585   2.228
72426ION    NA+43955  23.522  27.947  10.734
72427ION    NA+43956  10.531   6.920  11.914
72428ION    NA+43957   5.581   1.355  12.142
72429ION    NA+43958  23.743   2.403  11.612
72430ION    NA+43959  26.220   1.207  13.034
72431ION    NA+43960  28.421  29.996  13.396
72432ION    NA+43961   3.323  29.651   0.384
72433ION    NA+43962  38.905  24.417  11.216
72434ION    NA+43963   7.986  17.997   1.382
72435ION    NA+43964   0.762  35.916  10.725
72436ION    NA+43965  16.060  16.565   3.409
72437ION    NA+43966  24.731  26.315   1.326
72438ION    NA+43967  24.712  17.335   3.938
72439ION    NA+43968   0.688  30.478   0.342
72440ION    NA+43969   1.400  35.113  10.749
72441ION    NA+43970  29.473  41.445  14.038
72442ION    NA+43971  22.361  22.152  12.489
72443ION    NA+43972   9.398  24.813   2.467
72444ION    NA+43973  10.591  41.577   1.592
72445ION    NA+43974  19.239   3.146   0.363
72446ION    NA+43975  12.213  25.527   3.982
72447ION    NA+43976  11.923  19.335  11.145
72448ION    NA+43977  24.017  44.225   0.741
72449ION    NA+43978  43.273  43.605  12.546
72450ION    NA+43979  18.405  32.901  12.953
72451ION    NA+43980  44.037   1.794  10.485
72452ION    NA+43981  12.087  32.909   0.291
72453ION    NA+43982  19.672  23.780   5.143
72454ION    NA+43983  20.006  14.715   3.590
72455ION    NA+43984  27.475  21.949  11.903
72456ION    NA+43985  14.551  30.761  13.973
72457ION    NA+43986  15.184  21.454  11.912
72458ION    NA+43987  24.604  14.393   2.327
72459ION    NA+43988  19.663  25.604  10.545
72460ION    NA+43989  33.506  31.361   4.131
72461ION    NA+43990  28.267  38.567  14.974
72462ION    NA+43991  38.769  14.345  13.738
72463ION    NA+43992  22.633   1.293  10.648
72464ION    NA+43993  43.942  15.764   2.866
72465ION    NA+43994   8.942  15.571  11.589
72466ION    NA+43995   9.841  34.586   1.707
72467ION    NA+43996  11.790  33.668  12.902
72468ION    NA+43997  10.186  21.160   3.834
72469ION    NA+43998  23.865  18.822   0.346
72470ION    NA+43999  23.799  14.793  14.390
72471ION    NA+44000  38.557   6.278   2.125
72472ION    NA+44001   2.223  33.464   2.498
72473ION    NA+44002  15.885  26.765  12.970
72474ION    NA+44003  30.497  29.014   1.031
72475ION    NA+44004  34.318  39.772   1.195
72476ION    NA+44005  18.752  30.695   0.247
72477ION    NA+44006   0.499   0.747   3.165
72478ION    NA+44007  29.980  25.422  13.625
72479ION    NA+44008   9.223  25.143   1.335
72480ION    NA+44009  18.093   9.060  14.784
72481ION    NA+44010  22.248  32.981   4.112
72482ION    NA+44011   7.392  43.970  11.139
72483ION    NA+44012  40.686  41.984   4.157
72484ION    NA+44013  12.959  27.408   1.754
72485ION    NA+44014  18.257   6.434  13.749
72486ION    NA+44015  18.062  17.249  13.295
72487ION    NA+44016  25.930  36.995  13.461
72488ION    NA+44017  40.588  14.314   1.729
72489ION    NA+44018  43.500  23.331   3.314
72490ION    NA+44019  25.186  27.492   3.672
72491ION    NA+44020  12.194  18.198   1.908
72492ION    NA+44021  43.707  42.736   0.434
72493ION    NA+44022   9.213   6.123  11.191
72494ION    NA+44023  20.025  11.887  10.788
72495ION    NA+44024  15.389  42.556  12.436
72496ION    NA+44025   1.387  13.134  10.624
72497ION    NA+44026   2.567  33.967   1.015
72498ION    NA+44027  27.289  22.479   4.117
72499ION    NA+44028   2.172   2.376  14.068
72500ION    NA+44029  11.108   9.865  11.598
72501ION    NA+44030  40.001  26.570   3.014
72502ION    NA+44031  28.955  35.484  13.869
72503ION    NA+44032  35.202   5.625   3.461
72504ION    NA+44033  13.042  26.115   2.072
72505ION    NA+44034  31.029   3.531   2.728
72506ION    NA+44035  35.005  31.075   3.269
72507ION    NA+44036  17.615  20.073   4.137
72508ION    NA+44037   9.942  14.060  10.660
72509ION    NA+44038  12.504  14.225   3.595
72510ION    NA+44039  39.912  35.051   4.131
72511ION    NA+44040  44.785   5.934   3.002
72512ION    NA+44041  39.074  38.749   1.481
72513ION    NA+44042  37.051  20.348  13.826
72514ION    NA+44043  12.276  19.805  11.834
72515ION    NA+44044   1.829  25.827   2.850
72516ION    NA+44045  17.548  13.636   3.348
72517ION    NA+44046  16.204  30.844  14.359
72518ION    NA+44047  31.518  20.060   2.415
72519ION    NA+44048  31.556  40.117   4.038
72520ION    NA+44049   7.293  44.489   4.531
72521ION    NA+44050  33.575  23.762  13.149
72522ION    NA+44051  17.885   3.261  13.208
72523ION    NA+44052  38.944  16.723   0.987
72524ION    NA+44053   9.664  12.219   3.180
72525ION    NA+44054  18.441  20.188  14.640
72526ION    NA+44055   2.889  20.886   1.133
72527ION    NA+44056  37.126  33.578  14.158
72528ION    NA+44057  20.618  17.197  11.150
72529ION    NA+44058  12.142  11.622  14.494
72530ION    NA+44059  13.177  10.981  12.197
72531ION    NA+44060  18.512   9.543  14.597
72532ION    NA+44061  16.049   0.644   9.858
72533ION    NA+44062  25.065  24.839  11.079
72534ION    NA+44063  25.549   5.858  13.615
72535ION    NA+44064  22.443  28.669   0.856
72536ION    NA+44065  20.382   7.068  11.801
72537ION    NA+44066   3.439  21.139   2.548
72538ION    NA+44067  17.792  16.196  14.835
72539ION    NA+44068  15.729  26.465  14.350
72540ION    NA+44069  40.736  10.471   1.890
72541ION    NA+44070  26.866  30.452   4.035
72542ION    NA+44071  38.835  37.841   4.230
72543ION    NA+44072  14.552  40.533  12.639
72544ION    NA+44073  43.384   8.167   3.202
72545ION    NA+44074  18.820   9.416  12.733
72546ION    NA+44075  29.920   1.819  12.178
72547ION    NA+44076  18.705   5.145   4.309
72548ION    NA+44077  43.169   2.018   3.702
72549ION    NA+44078  20.270  19.735  11.777
72550ION    NA+44079  41.836  40.539   5.038
72551ION    NA+44080   3.460   5.008   3.495
72552ION    NA+44081   1.330   3.578  11.376
72553ION    NA+44082  23.648  38.505   2.809
72554ION    NA+44083  38.790  28.658   3.743
72555ION    NA+44084   0.041  15.070   2.898
72556ION    NA+44085  31.767  15.199  12.480
72557ION    NA+44086  16.366  13.037   4.744
72558ION    NA+44087  27.814  22.230  14.007
72559ION    NA+44088   4.426  31.554   1.631
72560ION    NA+44089   2.069   1.010  11.122
72561ION    NA+44090  10.300  27.466   2.657
72562ION    NA+44091  31.856  25.070  10.959
72563ION    NA+44092  29.361  37.949   3.768
72564ION    NA+44093  20.786  27.186   0.362
72565ION    NA+44094  14.275  30.550   3.022
72566ION    NA+44095  30.265  17.255  10.386
72567ION    NA+44096  21.067   2.423  10.479
72568ION    NA+44097  33.117   7.153  13.517
72569ION    NA+44098  25.658   5.053   4.316
72570ION    NA+44099  22.071  18.373  12.106
72571ION    NA+44100  32.876  40.461   0.970
72572ION    NA+44101  36.981  29.731  11.075
72573ION    NA+44102   3.809  15.299  14.347
72574ION    NA+44103   8.325  19.585  14.406
72575ION    NA+44104  25.980  41.789   3.548
72576ION    NA+44105  27.929   5.541  12.358
72577ION    NA+44106   4.013  40.573   4.953
72578ION    NA+44107  33.207   1.391   3.587
72579ION    NA+44108  16.782  15.656  14.266
72580ION    NA+44109  18.824   1.570  11.121
72581ION    NA+44110  41.438  19.754  10.723
72582ION    NA+44111   7.266  31.584   1.664
72583ION    NA+44112  24.112  33.386  11.403
72584ION    NA+44113  21.542  35.937  14.650
72585ION    NA+44114  16.107  30.407  11.901
72586ION    NA+44115  28.710   2.058  12.749
72587ION    NA+44116  31.272  11.279   2.501
72588ION    NA+44117  13.047  19.295  12.217
72589ION    NA+44118  30.857  37.864   4.784
72590ION    NA+44119  42.614   2.480   1.366
72591ION    NA+44120  42.584   1.319  12.030
72592ION    NA+44121  12.107   5.137  13.026
72593ION    NA+44122  37.599  40.264  11.209
72594ION    NA+44123  14.195  21.181   3.337
72595ION    NA+44124  23.117  22.739  11.867
72596ION    NA+44125  32.210  12.301  14.634
72597ION    NA+44126  43.767  13.505   3.207
72598ION    NA+44127   9.923  16.592  11.128
72599ION    NA+44128  16.017   4.239   4.272
72600ION    NA+44129  41.964  39.200  10.830
72601ION    NA+44130  24.722  16.698  12.507
72602ION    NA+44131  16.458  25.292   2.118
72603ION    NA+44132   1.938  24.259   2.349
72604ION    NA+44133  38.805   0.851  13.501
72605ION    NA+44134  19.681  32.473   0.817
72606ION    NA+44135  20.662   6.446   1.407
72607ION    NA+44136  34.918  33.556  14.892
72608ION    NA+44137  25.143  37.196   2.408
72609ION    NA+44138  44.337  20.748  11.473
72610ION    NA+44139  26.116  36.427  11.960
72611ION    NA+44140  31.058  39.207   4.666
72612ION    NA+44141  25.211  22.763   1.196
72613ION    NA+44142  10.419  33.956   2.226
72614ION    NA+44143   9.994  12.386   1.953
72615ION    NA+44144  17.849  14.379  10.588
72616ION    NA+44145  30.126  23.586  12.083
72617ION    NA+44146   0.429  36.715  14.171
72618ION    NA+44147  30.572  22.030   3.931
72619ION    NA+44148  15.481   1.790  12.993
72620ION    NA+44149  21.223  25.517   0.805
72621ION    NA+44150  24.365  16.752   4.615
72622ION    NA+44151  14.713  21.056   1.850
72623ION    NA+44152  25.616  10.822  12.474
72624ION    NA+44153  14.156  15.382   0.879
72625ION    NA+44154  19.580  33.850   1.300
72626ION    NA+44155   3.432  36.708   1.931
72627ION    NA+44156   0.749  18.385  12.503
72628ION    NA+44157  24.696   0.984  12.726
72629ION    NA+44158  15.807   6.336   4.581
72630ION    NA+44159  30.858  39.475  11.247
72631ION    NA+44160  20.833  34.843  14.747
72632ION    NA+44161  12.445  40.263   3.910
72633ION    NA+44162  44.506  43.446  12.868
72634ION    NA+44163  19.258  37.458  12.700
72635ION    NA+44164  32.667  41.408   1.217
72636ION    NA+44165   7.174  40.913  13.507
72637ION    NA+44166  31.069  33.186   0.702
72638ION    NA+44167  39.815  44.521   0.362
72639ION    NA+44168  25.934  35.272  11.362
72640ION    NA+44169  36.094  25.980   2.900
72641ION    NA+44170  12.842   5.758  12.608
72642ION    NA+44171  12.336  32.928   3.674
72643ION    NA+44172  28.123   3.366  14.693
72644ION    NA+44173  25.588   6.295   1.492
72645ION    NA+44174  36.850  20.814  14.828
72646ION    NA+44175  11.469  20.424  12.470
72647ION    NA+44176  31.021  10.867   0.891
72648ION    NA+44177  19.242  29.173   2.458
72649ION    NA+44178  24.571  14.228  12.215
72650ION    NA+44179  10.991   6.406  12.639
72651ION    NA+44180  16.354   0.891  12.228
72652ION    NA+44181   4.081  39.341   1.303
72653ION    NA+44182  19.532  12.459  12.168
72654ION    NA+44183  31.155   8.958   3.494
72655ION    NA+44184  20.685   5.999  12.895
72656ION    NA+44185  33.883  23.978   0.371
72657ION    NA+44186  14.209  27.618   3.205
72658ION    NA+44187  11.282  34.178   4.195
72659ION    NA+44188  14.041   6.516   3.229
72660ION    NA+44189  19.767  38.543   4.277
72661ION    NA+44190   0.767  44.097   1.310
72662ION    NA+44191  29.809  28.538  14.256
72663ION    NA+44192  29.280  13.349   1.487
72664ION    NA+44193  12.144  13.805   4.691
72665ION    NA+44194  24.027  43.978   4.615
72666ION    NA+44195  32.048  24.262   9.757
72667ION    NA+44196  10.643  24.268  11.220
72668ION    NA+44197  22.583  38.359   1.169
72669ION    NA+44198   9.221   4.879   2.634
72670ION    NA+44199  25.258  28.476   2.751
72671ION    NA+44200   4.446  12.846   4.110
72672ION    NA+44201  37.575  34.383  13.771
72673ION    NA+44202  27.408   3.014   0.503
72674ION    NA+44203  44.213  26.608   4.674
72675ION    NA+44204  42.718  14.630   3.238
72676ION    NA+44205   2.774  18.063  12.423
72677ION    NA+44206   6.557  39.131   4.100
72678ION    NA+44207  39.390   6.807  12.581
72679ION    NA+44208   7.169  37.349  13.542
72680ION    NA+44209  35.948  12.326   1.658
72681ION    NA+44210  14.401  39.951   1.779
72682ION    NA+44211  33.121  36.788  10.765
72683ION    NA+44212  34.771  23.828  13.027
72684ION    NA+44213   2.672  37.554   4.587
72685ION    NA+44214   1.007  37.252   3.666
72686ION    NA+44215  43.297  21.560  14.070
72687ION    NA+44216   6.843   6.598   1.797
72688ION    NA+44217  12.809  43.309   4.231
72689ION    NA+44218  25.877  28.540  12.884
72690ION    NA+44219  36.856   4.013  13.423
72691ION    NA+44220  27.121   9.692  13.565
72692ION    NA+44221  12.779  33.005  11.071
72693ION    NA+44222  20.671  10.603  13.823
72694ION    NA+44223   5.896   7.264   2.766
72695ION    NA+44224   8.673  42.433   1.518
72696ION    NA+44225  19.204  27.941  11.940
72697ION    NA+44226   4.150  18.645  10.547
72698ION    NA+44227   6.414   5.730   1.547
72699ION    NA+44228   6.292  27.855  14.786
72700ION    NA+44229  16.075  18.553   1.662
72701ION    NA+44230  25.170  28.992  12.717
72702ION    NA+44231  30.959  12.531   1.725
72703ION    NA+44232  31.432  17.834  11.790
72704ION    NA+44233  15.770   7.169  10.221
72705ION    NA+44234  11.917  44.856  11.435
72706ION    NA+44235  34.399  36.002  12.170
72707ION    NA+44236  42.198   2.976  13.653
72708ION    NA+44237   5.466  33.541   0.186
72709ION    NA+44238   6.048  40.455   0.681
72710ION    NA+44239  26.000  19.561  13.843
72711ION    NA+44240  29.813  24.313  11.142
72712ION    NA+44241   7.210   3.351   1.974
72713ION    NA+44242  17.325  32.843   2.234
72714ION    NA+44243  41.918  32.207   3.601
72715ION    NA+44244  11.604   4.299  12.623
72716ION    NA+44245  29.894  24.749   1.797
72717ION    NA+44246  40.073  23.479  11.866
72718ION    NA+44247  13.815  14.269  11.610
72719ION    NA+44248  37.612  32.348   3.780
72720ION    NA+44249   2.384  16.654   1.491
72721ION    NA+44250  22.793  42.745  10.062
72722ION    NA+44251  18.652   8.153  12.622
72723ION    NA+44252  26.860  30.347   1.917
72724ION    NA+44253  39.369  20.785   0.725
72725ION    NA+44254   4.539  38.195  10.625
72726ION    NA+44255  14.311   5.553   3.193
72727ION    NA+44256   0.409  41.170  13.421
72728ION    NA+44257   2.400  39.571   4.191
72729ION    NA+44258  13.563  12.888  14.795
72730ION    NA+44259  29.732  31.769   4.520
72731ION    NA+44260  36.297  37.821   0.726
72732ION    NA+44261  17.849  34.094   4.040
72733ION    NA+44262   7.356  26.737   4.702
72734ION    NA+44263   2.206   9.045  10.891
72735ION    NA+44264  39.866  17.026  14.871
72736ION    NA+44265  34.473   1.433   0.225
72737ION    NA+44266  42.950  23.416  12.368
72738ION    NA+44267  24.433  44.477   9.832
72739ION    NA+44268  11.103  25.091   0.480
72740ION    NA+44269   6.212   2.145  12.629
72741ION    NA+44270  16.738  36.768   0.021
72742ION    NA+44271  38.305  14.619  13.006
72743ION    NA+44272   4.021  26.992  14.152
72744ION    NA+44273   7.502   0.564   3.282
72745ION    NA+44274  13.742  41.310   3.015
72746ION    NA+44275  33.468  40.779   3.400
72747ION    NA+44276  32.686  33.274  11.537
72748ION    NA+44277  32.152  37.836   4.892
72749ION    NA+44278  26.897  23.002   3.325
72750ION    NA+44279   8.776  35.266   2.642
72751ION    NA+44280  17.963  30.171  10.849
72752ION    NA+44281  21.677   1.739  14.026
72753ION    NA+44282  17.764   9.856  10.379
72754ION    NA+44283  10.482   1.683   5.392
72755ION    NA+44284  21.865  41.230  13.344
72756ION    NA+44285  36.010  35.895  11.989
72757ION    NA+44286  38.999   1.329   4.075
72758ION    NA+44287  40.934  13.486  11.899
72759ION    NA+44288  37.171   6.244   4.289
72760ION    NA+44289  29.885   9.883  13.976
72761ION    NA+44290  18.803   9.248  11.601
72762ION    NA+44291  24.604   9.992  14.478
72763ION    NA+44292  41.836   9.326   0.238
72764ION    NA+44293  41.009  37.506   4.222
72765ION    NA+44294   5.991   0.243   1.193
72766ION    NA+44295  24.039   8.623  12.511
72767ION    NA+44296  21.870  36.510   0.402
72768ION    NA+44297  26.204  31.913   0.821
72769ION    NA+44298  26.324   4.277   0.050
72770ION    NA+44299  29.627  40.763  14.927
72771ION    NA+44300  17.752   7.856  12.939
72772ION    NA+44301  29.014  44.424  14.918
72773ION    NA+44302  36.154  34.420   3.391
72774ION    NA+44303   2.255  23.543   1.728
72775ION    NA+44304  15.077  19.556   4.151
72776ION    NA+44305   7.398  22.416   5.181
72777ION    NA+44306   8.242  29.420  14.945
72778ION    NA+44307  40.309  10.446  14.022
72779ION    NA+44308   2.905  23.307  12.238
72780ION    NA+44309  27.110   1.512   3.730
72781ION    NA+44310  19.523  12.385   1.296
72782ION    NA+44311  21.285  21.853  13.158
72783ION    NA+44312  29.899  26.021   3.621
72784ION    NA+44313  33.922   1.394   3.041
72785ION    NA+44314  14.507  43.303   0.352
72786ION    NA+44315  24.862  25.328   1.423
72787ION    NA+44316  23.697  32.383  13.991
72788ION    NA+44317  10.338  18.287   2.277
72789ION    NA+44318  20.750   8.340   0.245
72790ION    NA+44319  44.385  32.872   4.069
72791ION    NA+44320   0.991  28.503   1.585
72792ION    NA+44321  41.404  36.418   4.088
72793ION    NA+44322   1.223  16.389  12.756
72794ION    NA+44323  32.675  35.089   2.210
72795ION    NA+44324  24.443  29.587  13.760
72796ION    NA+44325  22.132  17.642  11.426
72797ION    NA+44326  31.907  13.791  12.876
72798ION    NA+44327  10.621   9.835   1.869
72799ION    NA+44328  12.230  25.907   1.522
72800ION    NA+44329  32.637  27.565   0.826
72801ION    NA+44330   9.318   5.170  13.296
72802ION    NA+44331   1.665   0.500   0.487
72803ION    NA+44332  21.739  16.814  13.424
72804ION    NA+44333   7.441   7.384  11.661
72805ION    NA+44334  42.165   6.838  11.601
72806ION    NA+44335  40.493  36.956  11.850
72807ION    NA+44336  33.436  38.394  13.431
72808ION    NA+44337  15.857  14.859   0.531
72809ION    NA+44338  37.327  12.428   2.940
72810ION    NA+44339  25.369   1.909   3.225
72811ION    NA+44340  40.813  12.925   0.756
72812ION    NA+44341  11.185   1.267   1.256
72813ION    NA+44342  24.534  19.159   4.691
72814ION    NA+44343  14.203  31.588   3.152
72815ION    NA+44344  41.447   9.404  13.054
72816ION    NA+44345   5.314  28.426   0.812
72817ION    NA+44346   7.705  29.764   3.847
72818ION    NA+44347   3.328   9.266  12.467
72819ION    NA+44348  35.258  25.845   4.340
72820ION    NA+44349  12.380  12.588  12.568
72821ION    NA+44350  38.308   4.484   0.662
72822ION    NA+44351   8.638   6.584   3.995
72823ION    NA+44352   8.747  44.629  12.620
72824ION    NA+44353  34.537  13.775   0.003
72825ION    NA+44354  20.310  44.339   4.855
72826ION    NA+44355  16.847  39.947  14.692
72827ION    NA+44356  10.873  41.235   4.795
72828ION    NA+44357   9.721  24.417   1.211
72829ION    NA+44358  22.460  34.844  14.110
72830ION    NA+44359  23.817   1.161   3.232
72831ION    NA+44360  29.196   8.380   2.354
72832ION    NA+44361  26.341  32.430   2.351
72833ION    NA+44362  22.615  16.322  13.603
72834ION    NA+44363  14.876  28.172  12.014
72835ION    NA+44364   5.023   5.240   0.335
72836ION    NA+44365  42.206  30.046  11.517
72837ION    NA+44366  19.555   3.185   3.652
72838ION    NA+44367  27.622  26.693   4.720
72839ION    NA+44368  34.789  33.389  11.601
72840ION    NA+44369  25.064  37.212   5.169
72841ION    NA+44370  18.279  24.730   3.830
72842ION    NA+44371  19.541  19.162   3.870
72843ION    NA+44372  19.263  17.416   0.894
72844ION    NA+44373  22.000  19.206   1.857
72845ION    NA+44374  31.569  37.658  14.770
72846ION    NA+44375  38.721  36.291   0.767
72847ION    NA+44376  22.012  39.361  11.545
72848ION    NA+44377  30.064  37.279  13.882
72849ION    NA+44378  26.179  35.181   0.445
72850ION    NA+44379   2.299   7.403   1.482
72851ION    NA+44380   6.389   5.719  10.600
72852ION    NA+44381  32.271   3.576   0.055
72853ION    NA+44382  36.146  23.384  12.780
72854ION    NA+44383  18.790  39.461  14.520
72855ION    NA+44384  42.277  27.641  11.011
72856ION    NA+44385  42.243  16.324  14.539
72857ION    NA+44386  23.855  10.710  12.227
72858ION    NA+44387  22.129   5.649   0.789
72859ION    NA+44388  41.966   5.464  13.082
72860ION    NA+44389  24.689   0.993   0.224
72861ION    NA+44390  11.499  42.854   1.343
72862ION    NA+44391  20.800  37.168   4.773
72863ION    NA+44392   1.527  40.664  14.405
72864ION    NA+44393  16.132  39.751   0.237
72865ION    NA+44394  22.001   2.382   0.703
72866ION    NA+44395  38.451  34.856   4.344
72867ION    NA+44396   3.707   6.792  13.807
72868ION    NA+44397   3.389  40.703  12.060
72869ION    NA+44398  19.659  38.830  10.293
72870ION    NA+44399   3.920  37.597   2.112
72871ION    NA+44400   8.704  35.295  13.065
72872ION    NA+44401   3.984  21.529   4.668
72873ION    NA+44402   4.982  36.512   0.911
72874ION    NA+44403  20.288  42.966   3.219
72875ION    NA+44404  27.038  29.501   0.553
72876ION    NA+44405  39.072  33.779   0.152
72877ION    NA+44406  24.953  24.200   0.729
72878ION    NA+44407  38.484   2.070  10.999
72879ION    NA+44408   9.863  19.905   0.749
72880ION    NA+44409  33.069  43.133  13.223
72881ION    NA+44410  27.782  28.870   3.851
72882ION    NA+44411  39.704  44.203  13.472
72883ION    NA+44412  15.172   3.919  14.277
72884ION    NA+44413  35.751  29.381  12.849
72885ION    NA+44414  43.197  28.401   2.902
72886ION    NA+44415  17.750   7.202   2.373
72887ION    NA+44416   5.447  20.961   5.546
72888ION    NA+44417  41.538  16.786   0.089
72889ION    NA+44418  22.468  37.359  10.885
72890ION    NA+44419  18.213  35.344  10.727
72891ION    NA+44420   3.942  11.572  14.902
72892ION    NA+44421  11.358  35.275  12.739
72893ION    NA+44422  34.392  30.224  10.723
72894ION    NA+44423  17.089   2.498  13.495
72895ION    NA+44424  22.756  21.426  12.064
72896ION    NA+44425   0.803  16.865  13.529
72897ION    NA+44426  15.600  12.274   1.946
72898ION    NA+44427  38.498  25.141  13.442
72899ION    NA+44428  32.696  15.048   5.122
72900ION    NA+44429  27.663  25.832  14.215
72901ION    NA+44430   2.875  37.662   0.957
72902ION    NA+44431  24.695  31.444   2.318
72903ION    NA+44432   4.382  40.178  11.145
72904ION    NA+44433   5.743  39.586  12.437
72905ION    NA+44434  29.980  10.358  14.852
72906ION    NA+44435  35.792  26.560  12.264
72907ION    NA+44436  11.595  38.100   4.316
72908ION    NA+44437  17.165  22.651  10.842
72909ION    NA+44438  43.407  22.265   2.149
72910ION    NA+44439  13.623   1.187  14.999
72911ION    NA+44440  14.205  21.480  12.115
72912ION    NA+44441  11.176  36.195  12.391
72913ION    NA+44442   1.535  31.820   2.958
72914ION    NA+44443  32.602   3.282   2.376
72915ION    NA+44444  13.582  11.924   0.061
72916ION    NA+44445  42.972  32.942  14.700
72917ION    NA+44446   2.235   8.169  10.688
72918ION    NA+44447   1.524  17.153   1.385
72919ION    NA+44448  22.689  39.923  13.410
72920ION    NA+44449  44.913  29.307   3.735
72921ION    NA+44450  41.031  40.324   3.756
72922ION    NA+44451  19.541  36.097   4.977
72923ION    NA+44452  22.837  11.641   2.727
72924ION    NA+44453  40.271   8.651   2.678
72925ION    NA+44454  35.265  35.277  12.241
72926ION    NA+44455  24.976   3.739   3.732
72927ION    NA+44456  33.563  42.579   0.502
72928ION    NA+44457  31.496  18.985  13.429
72929ION    NA+44458  34.563  17.115  12.040
72930ION    NA+44459  25.755  34.258   0.516
72931ION    NA+44460  36.177   2.102  11.987
72932ION    NA+44461  40.116  43.754  10.985
72933ION    NA+44462  31.610  13.638   4.417
72934ION    NA+44463  16.324  27.499  13.175
72935ION    NA+44464  42.604  11.387   4.246
72936ION    NA+44465  29.976  40.045   0.530
72937ION    NA+44466  38.605  27.424   3.224
72938ION    NA+44467  28.146  15.865   2.630
72939ION    NA+44468   5.564  41.176   0.903
72940ION    NA+44469  17.402  27.730  14.926
72941ION    NA+44470  12.740  22.955  13.537
72942ION    NA+44471  40.914  37.645   2.917
72943ION    NA+44472   1.045  24.247   1.898
72944ION    NA+44473  15.029  33.536   0.707
72945ION    NA+44474  19.694  30.954   1.736
72946ION    NA+44475  29.068  14.398   4.129
72947ION    NA+44476  43.760  23.849  10.650
72948ION    NA+44477  32.622  31.788  13.169
72949ION    NA+44478  26.443  23.254   4.257
72950ION    NA+44479  31.155  32.064  13.634
72951ION    NA+44480  13.187  38.096  14.961
72952ION    NA+44481  42.557  32.566  12.684
72953ION    NA+44482  37.294  31.895  11.560
72954ION    NA+44483  35.147  40.322  11.518
72955ION    NA+44484  34.787   6.615  12.896
72956ION    NA+44485  44.635  35.487   1.905
72957ION    NA+44486  38.581  22.498  10.988
72958ION    NA+44487  44.068  43.574  14.871
72959ION    NA+44488  43.299  25.570   4.764
72960ION    NA+44489  23.654  29.720  11.124
72961ION    NA+44490   8.937   7.182   0.361
72962ION    NA+44491  27.419  25.615   1.317
72963ION    NA+44492   8.760  43.654  12.396
72964ION    NA+44493  10.144  21.167   2.715
72965ION    NA+44494   4.845  38.974  12.166
72966ION    NA+44495   0.930  36.340  12.541
72967ION    NA+44496   6.242   1.739  14.995
72968ION    NA+44497  17.938   5.600  11.163
72969ION    NA+44498  34.442  42.841  14.274
72970ION    NA+44499  28.329  31.367  11.142
72971ION    NA+44500  12.841   6.423  11.862
72972ION    NA+44501  33.112  15.048   3.728
72973ION    NA+44502   4.709  29.631   4.138
72974ION    NA+44503  23.107  22.781   4.712
72975ION    NA+44504  20.863  18.916   0.385
72976ION    NA+44505  23.712  24.653   1.495
72977ION    NA+44506   6.960  25.479   0.759
72978ION    NA+44507  36.121  12.963  11.701
72979ION    NA+44508  15.615  17.330   1.976
72980ION    NA+44509  36.963  20.939   1.020
72981ION    NA+44510  25.729  12.083  11.127
72982ION    NA+44511  12.228  34.597   2.454
72983ION    NA+44512  30.211  29.057   0.011
72984ION    NA+44513  19.048  40.112  11.121
72985ION    NA+44514   3.285   2.972  14.901
72986ION    NA+44515  20.661  22.761   3.661
72987ION    NA+44516  43.043   0.303   9.813
72988ION    NA+44517  20.964   3.663   1.505
72989ION    NA+44518  42.377   2.869  12.634
72990ION    NA+44519  33.382  21.566  12.451
72991ION    NA+44520  26.415  37.445   2.368
72992ION    NA+44521  38.814  14.614   3.874
72993ION    NA+44522  37.305  30.066   4.165
72994ION    NA+44523  29.772  25.582  11.325
72995ION    NA+44524  44.877   0.952   2.385
72996ION    NA+44525  36.544   7.408   2.107
72997ION    NA+44526  31.119   0.157   2.105
72998ION    NA+44527   0.850   0.475   0.917
72999ION    NA+44528  32.523  11.601   3.297
73000ION    NA+44529   0.506   5.226   3.035
73001ION    NA+44530  10.254  38.883  14.242
73002ION    NA+44531   7.151  16.616   2.230
73003ION    NA+44532  43.203  31.771   0.358
73004ION    NA+44533  21.961   6.073   1.571
73005ION    NA+44534   8.284   4.413  14.506
73006ION    NA+44535  24.143  15.105   3.411
73007ION    NA+44536  27.251   7.162  14.957
73008ION    NA+44537   1.780  19.462   0.873
73009ION    NA+44538   9.537  22.792  14.416
73010ION    NA+44539  29.393  39.258   0.328
73011ION    NA+44540   6.220  33.760   0.806
73012ION    NA+44541  42.869   9.943   2.749
73013ION    NA+44542   2.542  15.531  13.460
73014ION    NA+44543  44.744  15.658  13.376
73015ION    NA+44544  25.606  11.823   0.077
73016ION    NA+44545  38.403  37.202   2.511
73017ION    NA+44546  33.857  10.244   3.173
73018ION    NA+44547   3.204  24.650   4.866
73019ION    NA+44548  31.435  36.977  11.999
73020ION    NA+44549  20.960  22.742  12.439
73021ION    NA+44550   6.170  27.742   1.148
73022ION    NA+44551  10.322  23.133   2.477
73023ION    NA+44552   6.336   2.330   3.301
73024ION    NA+44553   4.537  17.198  14.914
73025ION    NA+44554   7.147  29.685  12.183
73026ION    NA+44555  42.554  23.853  13.229
73027ION    NA+44556   0.983  26.165  12.171
73028ION    NA+44557  10.373  16.985  14.317
73029ION    NA+44558  20.948   8.674   2.665
73030ION    NA+44559  32.495  16.823   3.021
73031ION    NA+44560  43.109  32.035   1.199
73032ION    NA+44561  12.849  25.702  12.122
73033ION    NA+44562  16.309  28.916  10.704
73034ION    NA+44563  39.961  43.947   4.105
73035ION    NA+44564  24.061  39.460  13.430
73036ION    NA+44565  28.152  41.038  12.683
73037ION    NA+44566   1.778  26.637   2.089
73038ION    NA+44567  24.065  25.381  10.739
73039ION    NA+44568  26.438  23.537   9.490
73040ION    NA+44569  30.407   2.633  11.322
73041ION    NA+44570  30.958  12.264  13.679
73042ION    NA+44571  21.507  29.257   2.232
73043ION    NA+44572  44.210   4.273  13.530
73044ION    NA+44573  40.371  35.176  12.460
73045ION    NA+44574   0.975  41.426  14.742
73046ION    NA+44575  23.873  38.494  11.796
73047ION    NA+44576  27.243  12.039  14.922
73048ION    NA+44577  30.494  39.384   3.216
73049ION    NA+44578  27.515  21.536  13.353
73050ION    NA+44579  44.042  21.494  10.746
73051ION    NA+44580   8.447  22.626  14.589
73052ION    NA+44581  41.723  31.377   3.300
73053ION    NA+44582  20.200  11.843   0.721
73054ION    NA+44583  20.568  17.179  12.533
73055ION    NA+44584  33.926   1.174   4.247
73056ION    NA+44585  32.795   0.236   1.836
73057ION    NA+44586   9.626  31.929  13.727
73058ION    NA+44587  10.738   7.888   0.266
73059ION    NA+44588  16.470   0.391  14.486
73060ION    NA+44589  14.770  15.874   1.335
73061ION    NA+44590  32.428  26.501   2.321
73062ION    NA+44591  26.623  12.690  10.857
73063ION    NA+44592  36.308  32.701  13.991
73064ION    NA+44593  36.110  38.268   3.518
73065ION    NA+44594   3.519   4.217   3.034
73066ION    NA+44595  11.449  31.224  14.019
73067ION    NA+44596  42.084  34.399   2.577
73068ION    NA+44597  14.323  37.714   3.059
73069ION    NA+44598   9.921   1.237   3.660
73070ION    NA+44599  29.037   5.234   4.124
73071ION    NA+44600  31.676  38.481   2.921
73072ION    NA+44601  20.648  15.618   4.943
73073ION    NA+44602  42.424  32.514  11.323
73074ION    NA+44603   7.087  25.109  14.406
73075ION    NA+44604  17.489  19.199   3.667
73076ION    NA+44605   2.471   3.207   3.900
73077ION    NA+44606   3.362   4.458   4.575
73078ION    NA+44607  21.762   4.707   1.867
73079ION    NA+44608  37.430   3.719   1.393
73080ION    NA+44609  29.244  19.569   2.161
73081ION    NA+44610  25.745  21.836  13.049
73082ION    NA+44611  11.302  13.088  11.545
73083ION    NA+44612  20.082   3.158  12.599
73084ION    NA+44613  11.758  41.256   5.165
73085ION    NA+44614  40.999  25.619  12.568
73086ION    NA+44615  28.478   0.551  13.606
73087ION    NA+44616  42.599  20.093  12.996
73088ION    NA+44617   2.972   7.075  11.847
73089ION    NA+44618   9.418  20.092  14.604
73090ION    NA+44619   5.653  28.713  12.021
73091ION    NA+44620  20.622  17.872  14.837
73092ION    NA+44621   0.597  32.045   2.096
73093ION    NA+44622  23.977   1.290  10.326
73094ION    NA+44623   5.326   3.850   4.473
73095ION    NA+44624  27.629   9.520   1.223
73096ION    NA+44625  23.083  40.591   4.132
73097ION    NA+44626  13.494   3.454  11.475
73098ION    NA+44627  21.254  14.476   3.206
73099ION    NA+44628  19.310  14.380  14.263
73100ION    NA+44629  18.518  43.251   0.517
73101ION    NA+44630  26.101   0.481   4.610
73102ION    NA+44631  16.844  29.822   3.268
73103ION    NA+44632  24.406   7.698  13.635
73104ION    NA+44633  13.338  31.434  12.651
73105ION    NA+44634  11.436  24.829   1.726
73106ION    NA+44635   4.695  29.875   1.620
73107ION    NA+44636   3.331  13.030   0.324
73108ION    NA+44637  10.646  26.198  12.804
73109ION    NA+44638   8.876  19.060  13.427
73110ION    NA+44639   3.610  20.987  11.353
73111ION    NA+44640  32.096  35.396  10.730
73112ION    NA+44641  42.873  29.753   2.433
73113ION    NA+44642  25.673   9.004   4.279
73114ION    NA+44643  15.275  34.472  12.543
73115ION    NA+44644  11.569   2.620  10.659
73116ION    NA+44645  24.667  27.874  14.731
73117ION    NA+44646  13.591   0.051  12.893
73118ION    NA+44647   7.400  15.694   2.750
73119ION    NA+44648   0.561  34.122  14.640
73120ION    NA+44649  27.101   8.068  11.115
73121ION    NA+44650  34.541  31.628  14.895
73122ION    NA+44651  24.234  22.308  13.072
73123ION    NA+44652  22.799  28.961   4.505
73124ION    NA+44653  16.552  41.503   4.910
73125ION    NA+44654  15.797   3.911  11.081
73126ION    NA+44655  39.502  13.793   2.281
73127ION    NA+44656  12.056  17.165   4.107
73128ION    NA+44657   4.306   3.329  13.530
73129ION    NA+44658  29.343  18.255   3.192
73130ION    NA+44659  13.757  39.990  10.775
73131ION    NA+44660  13.941  16.641   0.110
73132ION    NA+44661   3.204  17.912  13.314
73133ION    NA+44662   9.518  39.180  14.620
73134ION    NA+44663   8.412  25.791   3.008
73135ION    NA+44664   3.564  14.522   9.823
73136ION    NA+44665  22.915  36.392   2.628
73137ION    NA+44666   9.179  40.260  12.736
73138ION    NA+44667  33.746  41.327   2.611
73139ION    NA+44668  16.467  43.681   1.994
73140ION    NA+44669  21.554  39.434   0.309
73141ION    NA+44670  36.251  37.363  13.165
73142ION    NA+44671   1.563  31.557   0.576
73143ION    NA+44672  10.864  27.991  10.481
73144ION    NA+44673  28.675  22.727  13.895
73145ION    NA+44674   2.030  23.812   4.385
73146ION    NA+44675   0.857  17.583  10.804
73147ION    NA+44676  24.995  35.463  10.784
73148ION    NA+44677   1.153  42.670  12.149
73149ION    NA+44678  18.096   8.785  10.974
73150ION    NA+44679  40.075  44.899  13.905
73151ION    NA+44680  29.134  38.163  13.308
73152ION    NA+44681   2.718  14.169   3.203
73153ION    NA+44682  18.497  41.144   1.052
73154ION    NA+44683  17.705   2.132  11.200
73155ION    NA+44684   8.877  24.642   4.576
73156ION    NA+44685  19.302  31.776  10.520
73157ION    NA+44686   5.415   5.935   1.732
73158ION    NA+44687   4.079  26.800   1.379
73159ION    NA+44688  33.036  26.158   3.705
73160ION    NA+44689  32.570   0.224  10.879
73161ION    NA+44690  39.778  11.789   2.159
73162ION    NA+44691  44.373   6.718  11.322
73163ION    NA+44692   1.747  30.787   0.994
73164ION    NA+44693  31.140  38.944  10.448
73165ION    NA+44694   1.644  30.882   0.210
73166ION    NA+44695  28.480   0.391   3.371
73167ION    NA+44696  30.058   3.092   0.034
73168ION    NA+44697  38.887   5.788  12.300
73169ION    NA+44698  18.201  43.335   4.569
73170ION    NA+44699  29.794  19.235  11.914
73171ION    NA+44700  17.021  24.480   4.644
73172ION    NA+44701   6.871  21.153   3.469
73173ION    NA+44702  22.798  22.965   3.190
73174ION    NA+44703  24.048  24.931   4.115
73175ION    NA+44704   5.287  37.274  10.954
73176ION    NA+44705  31.130  22.605  14.125
73177ION    NA+44706   7.436  21.916   0.502
73178ION    NA+44707   9.797  23.359   1.361
73179ION    NA+44708  20.015  33.883   3.216
73180ION    NA+44709  36.273  12.792   3.192
73181ION    NA+44710  24.643  44.875  11.817
73182ION    NA+44711  29.174  37.465  12.771
73183ION    NA+44712   3.986   9.984   3.840
73184ION    NA+44713  15.452  22.473   2.262
73185ION    NA+44714  32.087  26.065  14.129
73186ION    NA+44715  22.522   5.351  13.618
73187ION    NA+44716  27.818  19.020   1.865
73188ION    NA+44717  38.468  12.030   1.142
73189ION    NA+44718  40.652  37.832   1.917
73190ION    NA+44719   1.422   5.105  12.853
73191ION    NA+44720  34.304  28.172  14.444
73192ION    NA+44721  11.472   6.581  11.913
73193ION    NA+44722  30.064  17.931  13.936
73194ION    NA+44723  27.900   6.973  11.904
73195ION    NA+44724   7.371  18.865   3.503
73196ION    NA+44725   8.408  36.075  11.980
73197ION    NA+44726   9.633  27.979   0.284
73198ION    NA+44727  42.972   2.366   0.439
73199ION    NA+44728  24.702   0.234   0.726
73200ION    NA+44729   3.537  43.281  11.492
73201ION    NA+44730  12.639   8.205   2.334
73202ION    NA+44731  38.368  24.889   2.727
73203ION    NA+44732  11.928  37.690   0.912
73204ION    NA+44733   7.902  27.337   4.118
73205ION    NA+44734  38.743  27.631   2.148
73206ION    NA+44735  36.206  23.553  14.886
73207ION    NA+44736  27.614  15.371   4.840
73208ION    NA+44737  44.861  23.485  12.774
73209ION    NA+44738  22.772  15.495  12.554
73210ION    NA+44739  23.160  15.052   3.235
73211ION    NA+44740  25.295   0.984  14.424
73212ION    NA+44741  36.543  17.128  11.046
73213ION    NA+44742  44.806  35.013   5.083
73214ION    NA+44743  30.171   7.074   1.832
73215ION    NA+44744  42.044  13.214  13.545
73216ION    NA+44745  28.956  29.526  10.738
73217ION    NA+44746  18.297  37.484   0.621
73218ION    NA+44747  21.514  30.351  11.876
73219ION    NA+44748   8.871  10.365   2.361
73220ION    NA+44749  44.949  31.631   1.002
73221ION    NA+44750  41.906  19.020  12.178
73222ION    NA+44751  24.908   4.683  14.768
73223ION    NA+44752  10.332  24.632  14.006
73224ION    NA+44753  33.828  38.922   0.760
73225ION    NA+44754  32.341  40.325   0.008
73226ION    NA+44755  36.475  26.934  14.927
73227ION    NA+44756   3.061   9.370  10.486
73228ION    NA+44757  12.771   8.758  14.169
73229ION    NA+44758  37.672   2.411  11.212
73230ION    NA+44759   7.282  11.772  11.519
73231ION    NA+44760  32.792  14.016  14.450
73232ION    NA+44761  20.008  41.921   0.070
73233ION    NA+44762  44.093   6.042   2.288
73234ION    NA+44763  30.525   2.048  14.014
73235ION    NA+44764  21.476  13.166  10.877
73236ION    NA+44765  17.202  24.681  13.751
73237ION    NA+44766  25.147  14.588  10.414
73238ION    NA+44767   2.384  22.166  14.327
73239ION    NA+44768  40.354  37.978  11.061
73240ION    NA+44769  40.140  20.181  12.611
73241ION    NA+44770  21.999   6.575  13.391
73242ION    NA+44771  26.760  23.742  12.830
73243ION    NA+44772  18.863  12.709  11.686
73244ION    NA+44773  32.795  28.525  12.920
73245ION    NA+44774   3.535   4.018  13.280
73246ION    NA+44775  25.204  43.249   0.217
73247ION    NA+44776  16.988  15.808  11.575
73248ION    NA+44777  42.573  15.579  14.938
73249ION    NA+44778  16.327   4.967   2.831
73250ION    NA+44779  43.216  32.839   2.129
73251ION    NA+44780  40.853  22.243   0.398
73252ION    NA+44781  34.343  44.009   1.508
73253ION    NA+44782  31.149  44.699   4.481
73254ION    NA+44783  26.788  10.917  12.719
73255ION    NA+44784  44.296  31.387  14.859
73256ION    NA+44785  15.885  27.766  12.442
73257ION    NA+44786  15.686   2.338   2.215
73258ION    NA+44787  33.507  16.609   0.661
73259ION    NA+44788   0.728   5.341  13.343
73260ION    NA+44789  11.674  40.311   3.107
73261ION    NA+44790  17.146  26.888  14.451
73262ION    NA+44791  30.603  29.872   3.525
73263ION    NA+44792  16.740  22.710   3.792
73264ION    NA+44793  36.036  42.920   4.196
73265ION    NA+44794   4.676  30.825   1.140
73266ION    NA+44795  15.102  13.418   0.373
73267ION    NA+44796  12.166  42.755   3.701
73268ION    NA+44797  37.873  21.177   3.596
73269ION    NA+44798   7.149  44.809  14.927
73270ION    NA+44799  25.518  44.857  11.796
73271ION    NA+44800  16.971  33.500   4.107
73272ION    NA+44801  24.092  13.208   3.160
73273ION    NA+44802  38.007  35.383  14.218
73274ION    NA+44803   0.180  27.891  11.090
73275ION    NA+44804  13.542  39.424  11.884
73276ION    NA+44805  27.027  30.692  12.180
73277ION    NA+44806  18.520  15.219   1.487
73278ION    NA+44807  28.135   0.572   1.043
73279ION    NA+44808  14.988   8.358   0.397
73280ION    NA+44809  33.027  31.448   0.000
73281ION    NA+44810  17.307  39.416   3.332
73282ION    NA+44811  37.537  41.998  10.652
73283ION    NA+44812  12.260  42.341   0.564
73284ION    NA+44813  18.370  16.813  11.934
73285ION    NA+44814  12.386  20.421  13.878
73286ION    NA+44815  24.099  40.962   2.569
73287ION    NA+44816  10.917  25.556  14.535
73288ION    NA+44817  32.203  17.279  12.256
73289ION    NA+44818  37.345  25.179  14.867
73290ION    NA+44819  40.605  33.475   1.197
73291ION    CL-44820  35.067  34.753   2.259
73292ION    CL-44821   0.903  37.330   4.101
73293ION    CL-44822   5.507  30.951  14.494
73294ION    CL-44823  39.731   9.002   5.045
73295ION    CL-44824  19.741  43.668  10.708
73296ION    CL-44825  41.026  35.319   0.725
73297ION    CL-44826  32.247   2.790   5.092
73298ION    CL-44827  34.244  42.483  14.476
73299ION    CL-44828  13.728   9.033   1.263
73300ION    CL-44829  16.404  43.750   1.550
73301ION    CL-44830  28.651  16.205  12.616
73302ION    CL-44831  15.128   1.867  10.392
73303ION    CL-44832  33.930  18.592  14.792
73304ION    CL-44833  16.477  35.685   1.821
73305ION    CL-44834  18.747   4.311  14.920
73306ION    CL-44835  44.408  20.224   4.882
73307ION    CL-44836   4.799  32.661   1.006
73308ION    CL-44837   9.320  11.698  12.208
73309ION    CL-44838  40.059  23.433  11.403
73310ION    CL-44839  40.696  37.338   4.505
73311ION    CL-44840  19.860  44.630   1.861
73312ION    CL-44841  21.670  39.012  13.879
73313ION    CL-44842  16.578  31.671  11.974
73314ION    CL-44843  12.949  19.081  12.596
73315ION    CL-44844   7.661   6.738   3.377
73316ION    CL-44845  39.729  12.788   4.931
73317ION    CL-44846  36.887  41.933  12.247
73318ION    CL-44847  38.946  36.026   1.076
73319ION    CL-44848  35.535  36.490   3.261
73320ION    CL-44849   8.902   1.854   0.934
73321ION    CL-44850   7.862  22.398  11.416
73322ION    CL-44851   5.359  22.426  14.675
73323ION    CL-44852  17.386  23.804  14.883
73324ION    CL-44853  41.159   9.058  13.006
73325ION    CL-44854  32.250  12.297   0.088
73326ION    CL-44855   3.996  24.398  14.856
73327ION    CL-44856  10.027  13.700  10.407
73328ION    CL-44857   4.119  26.777   1.847
73329ION    CL-44858   2.746  27.785   3.827
73330ION    CL-44859  40.253   7.961   0.846
73331ION    CL-44860  19.740  35.872  10.614
73332ION    CL-44861   6.260  25.916   5.002
73333ION    CL-44862  14.380  27.834   0.546
73334ION    CL-44863  40.918   0.724  11.708
73335ION    CL-44864   4.211  27.120  13.767
73336ION    CL-44865  31.137   8.951   3.048
73337ION    CL-44866   9.820  17.564   2.321
73338ION    CL-44867  28.677   2.453   0.232
73339ION    CL-44868  11.023  17.491  12.484
73340ION    CL-44869  38.766  14.237  14.181
73341ION    CL-44870  13.140  22.653  11.720
73342ION    CL-44871  22.075   7.317  10.633
73343ION    CL-44872  38.161  35.157   4.504
73344ION    CL-44873  29.558  23.240   2.149
73345ION    CL-44874  39.160  40.196  12.028
73346ION    CL-44875   7.453  24.242  13.323
73347ION    CL-44876  24.346  28.095  13.488
73348ION    CL-44877  21.651  41.625  13.330
73349ION    CL-44878  15.066  15.252  10.657
73350ION    CL-44879   6.281  44.145  12.515
73351ION    CL-44880  12.326  27.068  11.540
73352ION    CL-44881   7.982  20.076   0.780
73353ION    CL-44882  29.681  11.841   2.165
73354ION    CL-44883  33.421  16.532  14.350
73355ION    CL-44884  18.735  21.341  12.714
73356ION    CL-44885  12.432  25.667  12.277
73357ION    CL-44886  17.776  17.998   0.897
73358ION    CL-44887  40.010  16.966   4.163
73359ION    CL-44888   3.411  32.157  11.872
73360ION    CL-44889   0.320  31.293  12.448
73361ION    CL-44890  28.885  18.108  14.477
73362ION    CL-44891  12.719   1.946   2.244
73363ION    CL-44892  32.371  16.993   3.423
73364ION    CL-44893   1.243  32.209  13.432
73365ION    CL-44894  28.147   2.757  12.027
73366ION    CL-44895  40.967  40.801  11.465
73367ION    CL-44896  14.384  12.572   3.900
73368ION    CL-44897   5.652  26.232   0.809
73369ION    CL-44898   0.712   0.770   5.038
73370ION    CL-44899  33.279  14.434   1.728
73371ION    CL-44900   9.688   9.437   1.757
73372ION    CL-44901  25.634  30.891   0.334
73373ION    CL-44902  32.762  13.830  11.369
73374ION    CL-44903  17.311  38.053   2.449
73375ION    CL-44904  11.029  24.165  11.419
73376ION    CL-44905  36.944   8.624   0.834
73377ION    CL-44906   2.557  34.156   1.429
73378ION    CL-44907  42.693   3.862   3.993
73379ION    CL-44908  44.017  20.498   3.249
73380ION    CL-44909   0.745  41.225  13.724
73381ION    CL-44910  30.149  43.304   1.818
73382ION    CL-44911  12.858  20.622   1.766
73383ION    CL-44912  22.466  25.994  13.142
73384ION    CL-44913  38.455  37.511  12.379
73385ION    CL-44914   2.248  16.616   4.369
73386ION    CL-44915  29.874  25.117   2.052
73387ION    CL-44916  29.122  37.045  14.362
73388ION    CL-44917  41.790  12.912  13.756
73389ION    CL-44918   5.193   2.312  11.085
73390ION    CL-44919  19.812  10.211   3.719
73391ION    CL-44920  13.820   5.238  13.983
73392ION    CL-44921   5.789  40.763   0.897
73393ION    CL-44922   3.825  29.855  12.849
73394ION    CL-44923  10.538  42.074  13.806
73395ION    CL-44924   7.151  40.497  14.838
73396ION    CL-44925   9.414  34.451   1.709
73397ION    CL-44926  34.579   9.921  10.721
73398ION    CL-44927  39.896  34.506   0.889
73399ION    CL-44928  30.815  23.762   2.255
73400ION    CL-44929  31.074  17.314   1.001
73401ION    CL-44930  34.343  21.979   2.978
73402ION    CL-44931  12.202  22.714  11.379
73403ION    CL-44932   8.830  36.463   5.084
73404ION    CL-44933   7.072   8.994  11.817
73405ION    CL-44934  28.504  38.772   0.292
73406ION    CL-44935  20.710   3.350   1.716
73407ION    CL-44936  20.256   1.987   2.229
73408ION    CL-44937  27.701  18.712   1.563
73409ION    CL-44938   7.498  33.542  10.477
73410ION    CL-44939  34.750  26.265  14.773
73411ION    CL-44940  18.916   8.706   1.683
73412ION    CL-44941   9.283  24.892   2.897
73413ION    CL-44942  10.583  15.326  13.959
73414ION    CL-44943  32.054  41.364  13.943
73415ION    CL-44944  12.010  37.898   4.352
73416ION    CL-44945  41.842  24.153  11.223
73417ION    CL-44946  33.428  36.906   3.382
73418ION    CL-44947  19.589  41.795   0.162
73419ION    CL-44948   7.367  30.104  11.141
73420ION    CL-44949  12.400  18.182  12.202
73421ION    CL-44950  42.798  16.263   0.888
73422ION    CL-44951   9.364  17.056   0.861
73423ION    CL-44952   2.913  33.182  13.123
73424ION    CL-44953  19.266  25.557  10.313
73425ION    CL-44954  40.831  39.063  13.356
73426ION    CL-44955  18.195  27.315  13.757
73427ION    CL-44956  25.714   5.282   3.936
73428ION    CL-44957  18.952   2.405  13.545
73429ION    CL-44958   5.956   4.311  13.918
73430ION    CL-44959  24.505  19.628   2.781
73431ION    CL-44960   9.047   6.458   4.122
73432ION    CL-44961  25.364  33.601  13.520
73433ION    CL-44962   6.509  34.773   3.423
73434ION    CL-44963  20.579  41.974  13.561
73435ION    CL-44964  17.440   2.481  11.317
73436ION    CL-44965   9.156  35.291  13.014
73437ION    CL-44966   0.471  34.928   0.871
73438ION    CL-44967   0.302  20.987   3.687
73439ION    CL-44968  16.029  36.983  12.780
73440ION    CL-44969  25.081  44.985  11.749
73441ION    CL-44970  26.132  25.108  11.744
73442ION    CL-44971   3.663  21.499   2.376
73443ION    CL-44972  41.335  22.244   3.805
73444ION    CL-44973  14.910  28.917   1.753
73445ION    CL-44974  34.517  43.187  13.990
73446ION    CL-44975  14.421  37.265  14.418
73447ION    CL-44976  32.276  40.011  13.662
73448ION    CL-44977  36.690  12.661   3.072
73449ION    CL-44978   5.228  31.716   0.329
73450ION    CL-44979  13.794  22.840  14.951
73451ION    CL-44980  17.286  33.584  13.972
73452ION    CL-44981  19.643  13.158  14.603
73453ION    CL-44982  40.400  14.645   1.983
73454ION    CL-44983  29.139  36.441   3.679
73455ION    CL-44984  25.180  41.175  12.625
73456ION    CL-44985  19.423  10.209   2.798
73457ION    CL-44986  16.349  13.311  12.361
73458ION    CL-44987  42.810  33.219   3.086
73459ION    CL-44988  30.979  24.804   3.231
73460ION    CL-44989  28.039  15.482   4.716
73461ION    CL-44990   4.783  21.140   9.690
73462ION    CL-44991   9.644  18.111  10.684
73463ION    CL-44992  11.886  11.012   4.970
73464ION    CL-44993   4.921  37.172  10.718
73465ION    CL-44994   6.361  29.890  14.349
73466ION    CL-44995  43.947   0.849  13.654
73467ION    CL-44996   5.373  28.127   2.824
73468ION    CL-44997  25.958  32.518  14.976
73469ION    CL-44998   7.436  29.352   1.299
73470ION    CL-44999   4.305   9.612  14.713
73471ION    CL-45000  15.463  14.827   0.762
73472ION    CL-45001  22.804  15.306   0.757
73473ION    CL-45002  19.942  20.142  14.053
73474ION    CL-45003  20.462  24.043   1.684
73475ION    CL-45004  43.531  18.108  11.939
73476ION    CL-45005  31.977  43.765  13.965
73477ION    CL-45006  18.020  27.267   1.289
73478ION    CL-45007  21.943  42.462   3.668
73479ION    CL-45008   6.889  44.835  11.716
73480ION    CL-45009  29.312  24.716  12.737
73481ION    CL-45010  37.498  13.406   0.030
73482ION    CL-45011  25.182  34.191   3.811
73483ION    CL-45012   7.714  13.388   4.016
73484ION    CL-45013  44.625  16.996   0.305
73485ION    CL-45014  40.464  16.261   1.006
73486ION    CL-45015   2.257  27.862   0.745
73487ION    CL-45016  11.290  42.552   1.087
73488ION    CL-45017  41.432  26.893   0.417
73489ION    CL-45018   1.959  38.354  12.516
73490ION    CL-45019   1.345  34.256   4.338
73491ION    CL-45020  32.325  12.189   1.005
73492ION    CL-45021  31.348  38.554  13.690
73493ION    CL-45022  23.180  26.762  13.565
73494ION    CL-45023   4.837  38.720  13.392
73495ION    CL-45024  23.195  43.896  12.373
73496ION    CL-45025  19.312  12.568  11.764
73497ION    CL-45026  23.195  31.180  10.980
73498ION    CL-45027  20.676   2.112  11.152
73499ION    CL-45028  20.185  16.797   5.087
73500ION    CL-45029  23.781   8.504   0.839
73501ION    CL-45030  27.629  21.093   3.650
73502ION    CL-45031  10.353  41.771   0.017
73503ION    CL-45032  29.976  27.776   1.877
73504ION    CL-45033  21.207  23.009   0.879
73505ION    CL-45034  43.669  41.562  11.150
73506ION    CL-45035  42.555  41.335   1.156
73507ION    CL-45036   3.028  29.804   3.883
73508ION    CL-45037  20.695  19.597   4.621
73509ION    CL-45038  39.184  21.496   4.443
73510ION    CL-45039   6.757   5.441   1.470
73511ION    CL-45040  37.975  32.256  10.906
73512ION    CL-45041  40.196  10.012  14.022
73513ION    CL-45042  41.756   1.375  13.375
73514ION    CL-45043  42.967   4.935  10.875
73515ION    CL-45044   3.146   4.061  13.496
73516ION    CL-45045  43.794  20.311  14.441
73517ION    CL-45046  17.699   9.516   0.654
73518ION    CL-45047  27.331  21.640  11.614
73519ION    CL-45048  22.142  29.653  12.904
73520ION    CL-45049  39.354  42.029   3.663
73521ION    CL-45050  21.199  16.161  11.952
73522ION    CL-45051  40.592   4.863  10.753
73523ION    CL-45052  36.084  12.714  11.332
73524ION    CL-45053   2.595  40.716   2.935
73525ION    CL-45054  22.419   0.915   5.219
73526ION    CL-45055  24.015  38.677   2.996
73527ION    CL-45056   4.365  37.967  10.266
73528ION    CL-45057  21.702  37.363   4.288
73529ION    CL-45058  17.919  30.453   0.993
73530ION    CL-45059  31.846  16.927   4.108
73531ION    CL-45060   1.642  31.092   0.634
73532ION    CL-45061  44.172   8.757  12.835
73533ION    CL-45062   3.492   4.591   3.315
73534ION    CL-45063  20.072  15.017  13.132
73535ION    CL-45064  11.244  40.266   4.518
73536ION    CL-45065   3.983  38.060   2.159
73537ION    CL-45066  25.256   6.316   4.939
73538ION    CL-45067  33.935  32.323   2.186
73539ION    CL-45068  39.416  20.176  14.821
73540ION    CL-45069  24.159  39.112   1.133
73541ION    CL-45070   8.211  18.180  11.826
73542ION    CL-45071  26.016   0.879   2.804
73543ION    CL-45072  17.302  33.240   4.284
73544ION    CL-45073  43.817  29.947   3.658
73545ION    CL-45074  16.801  14.091  11.850
73546ION    CL-45075  16.802  21.125   0.013
73547ION    CL-45076  24.503   3.459   1.723
73548ION    CL-45077  30.114  22.009   1.322
73549ION    CL-45078  40.406  29.267   3.293
73550ION    CL-45079  21.197  32.299  10.767
73551ION    CL-45080  12.672   6.822  14.554
73552ION    CL-45081  42.861  18.158  14.296
73553ION    CL-45082  11.648  26.871  14.034
73554ION    CL-45083  12.253  16.018   2.345
73555ION    CL-45084   1.554  11.039   5.242
73556ION    CL-45085  34.623  44.351   5.018
73557ION    CL-45086  28.411  12.879  11.034
73558ION    CL-45087  14.184   3.904   0.883
73559ION    CL-45088  26.255  26.749  13.446
73560ION    CL-45089  41.658   8.405  14.052
73561ION    CL-45090  35.578  26.694  14.073
73562ION    CL-45091  39.589  15.216  11.494
73563ION    CL-45092   4.333  10.786   1.363
73564ION    CL-45093  32.535   0.504   2.083
73565ION    CL-45094  26.534  22.246  14.311
73566ION    CL-45095  43.447  23.923  10.327
73567ION    CL-45096  34.575  12.646  13.407
73568ION    CL-45097  19.998  38.746  12.070
73569ION    CL-45098   6.589  16.169   9.786
73570ION    CL-45099  33.689  38.969  14.255
73571ION    CL-45100   4.205   5.811  13.529
73572ION    CL-45101   4.303  17.740  11.013
73573ION    CL-45102  43.185   8.663   1.361
73574ION    CL-45103   5.689  19.871   4.944
73575ION    CL-45104  10.275  26.666   1.987
73576ION    CL-45105  39.907   5.222   3.298
73577ION    CL-45106  37.090  27.111  13.509
73578ION    CL-45107  31.826   3.615   3.990
73579ION    CL-45108  15.734   8.591  11.091
73580ION    CL-45109  14.581  18.081   0.286
73581ION    CL-45110  44.285   1.676  10.851
73582ION    CL-45111  43.216  26.324  11.140
73583ION    CL-45112   1.515   3.352  14.518
73584ION    CL-45113  21.221  14.566   1.318
73585ION    CL-45114  41.163  44.540  11.392
73586ION    CL-45115  36.432  22.312  13.338
73587ION    CL-45116  13.142   4.753   5.018
73588ION    CL-45117  18.143  15.924  14.795
73589ION    CL-45118  44.894   3.401   3.257
73590ION    CL-45119  33.049   6.352   1.735
73591ION    CL-45120  38.054   2.192  11.094
73592ION    CL-45121   2.061  39.461  11.600
73593ION    CL-45122  28.540  20.115   1.392
73594ION    CL-45123   7.833  18.206   1.747
73595ION    CL-45124  29.438  38.882   4.706
73596ION    CL-45125  29.509  43.923   3.324
73597ION    CL-45126   0.966  26.449   9.682
73598ION    CL-45127  39.014  15.777   0.308
73599ION    CL-45128   1.231   0.483   0.666
73600ION    CL-45129  35.048  37.134  10.955
73601ION    CL-45130  16.306  35.271   4.212
73602ION    CL-45131  35.260  26.427   9.840
73603ION    CL-45132  34.717  23.378  12.969
73604ION    CL-45133   7.019  13.640  12.483
73605ION    CL-45134  25.017   6.530  12.362
73606ION    CL-45135   0.484  31.638   1.943
73607ION    CL-45136  36.465  10.256   0.715
73608ION    CL-45137  33.707  37.379  12.316
73609ION    CL-45138  10.676  38.235  10.553
73610ION    CL-45139  19.734  44.109   0.983
73611ION    CL-45140  43.844  19.460  13.886
73612ION    CL-45141   0.724   1.972   3.743
73613ION    CL-45142   7.286  31.805   4.802
73614ION    CL-45143   9.985  18.476   2.055
73615ION    CL-45144  24.906  41.921  11.886
73616ION    CL-45145  26.340  42.023   5.424
73617ION    CL-45146  21.667  19.322   4.071
73618ION    CL-45147  35.445  43.281  10.951
73619ION    CL-45148  26.245  27.166  11.568
73620ION    CL-45149  22.170   3.893  11.784
73621ION    CL-45150  15.726  19.703   3.514
73622ION    CL-45151  21.341  41.508   9.568
73623ION    CL-45152  22.117  20.516  10.803
73624ION    CL-45153   1.478  19.530  12.155
73625ION    CL-45154  33.130   7.703   4.081
73626ION    CL-45155   8.766  12.114  13.505
73627ION    CL-45156  42.215  28.293  14.761
73628ION    CL-45157   8.869  41.751  13.820
73629ION    CL-45158   4.944  43.692  14.900
73630ION    CL-45159  28.389  35.311   2.424
73631ION    CL-45160  15.281   1.266  11.177
73632ION    CL-45161  41.276   3.423   0.045
73633ION    CL-45162  32.063  40.203  14.676
73634ION    CL-45163  10.606   6.274   3.223
73635ION    CL-45164  21.112  32.972   1.420
73636ION    CL-45165  35.601  26.266  11.974
73637ION    CL-45166  34.321  13.877  14.617
73638ION    CL-45167  44.451  35.411   1.496
73639ION    CL-45168  13.519   6.579   0.059
73640ION    CL-45169  29.513  36.402   4.855
73641ION    CL-45170  34.034  22.200   0.055
73642ION    CL-45171  34.708  43.963   2.900
73643ION    CL-45172  25.184   1.745   1.296
73644ION    CL-45173   3.614  26.002  13.076
73645ION    CL-45174   0.824   2.792   2.686
73646ION    CL-45175  13.592  24.145  13.484
73647ION    CL-45176  42.608  32.107  11.418
73648ION    CL-45177  22.893  42.535   2.213
73649ION    CL-45178  11.618  40.849  11.904
73650ION    CL-45179  42.923  44.200   1.393
73651ION    CL-45180  29.601  40.983  12.521
73652ION    CL-45181  37.445   0.239  13.050
73653ION    CL-45182  36.447  33.087   4.129
73654ION    CL-45183  33.449  23.091   1.171
73655ION    CL-45184  40.149   0.746  14.524
73656ION    CL-45185  30.477   2.938  11.004
73657ION    CL-45186  38.647  36.736   0.639
73658ION    CL-45187  17.901   8.323   5.027
73659ION    CL-45188  12.261  15.946   3.957
73660ION    CL-45189   0.592  18.193   5.092
73661ION    CL-45190   3.158   3.134   0.298
73662ION    CL-45191  43.601  21.693  14.372
73663ION    CL-45192   8.922   9.414  11.470
73664ION    CL-45193  38.708  38.827   1.728
73665ION    CL-45194  22.722  17.102   0.251
73666ION    CL-45195   2.319  32.415  14.236
73667ION    CL-45196   6.976  31.388  11.886
73668ION    CL-45197  22.622  43.076  12.371
73669ION    CL-45198  20.078  32.517   0.602
73670ION    CL-45199  10.446   3.984  10.535
73671ION    CL-45200  25.432  22.424   4.939
73672ION    CL-45201  18.096  24.906  10.413
73673ION    CL-45202  17.940  32.435  11.076
73674ION    CL-45203   3.502  36.356   2.236
73675ION    CL-45204  19.332   3.033   3.298
73676ION    CL-45205  24.777  18.222  11.174
73677ION    CL-45206  16.355  26.856   0.742
73678ION    CL-45207  26.357  23.332   1.291
73679ION    CL-45208   1.777   0.654   1.778
73680ION    CL-45209   9.596  42.436  13.769
73681ION    CL-45210  36.319  35.980  11.679
73682ION    CL-45211   0.510  38.114  12.317
73683ION    CL-45212  23.701  24.228  11.171
73684ION    CL-45213  39.344   9.885   2.860
73685ION    CL-45214  14.433  29.356  13.487
73686ION    CL-45215  37.740  40.273  10.771
73687ION    CL-45216  21.923  20.597   3.628
73688ION    CL-45217  38.899  29.534   0.933
73689ION    CL-45218  42.101  32.708  11.064
73690ION    CL-45219  42.462  14.265   3.211
73691ION    CL-45220   0.397  42.956   4.488
73692ION    CL-45221  26.991  30.754   1.782
73693ION    CL-45222   3.033  15.745   2.848
73694ION    CL-45223  21.335  14.041   3.159
73695ION    CL-45224  23.287  40.600   4.537
73696ION    CL-45225   6.189  24.251   0.252
73697ION    CL-45226  22.586  28.596   2.614
73698ION    CL-45227   2.194   6.370   2.212
73699ION    CL-45228  20.932   9.060   2.440
73700ION    CL-45229  30.960  32.836  11.535
73701ION    CL-45230  22.264  18.211  13.365
73702ION    CL-45231   0.606  43.563  10.975
73703ION    CL-45232  43.489  11.895   2.790
73704ION    CL-45233  11.307  34.306   4.629
73705ION    CL-45234  23.779  33.145  11.227
73706ION    CL-45235  39.947   6.976   2.357
73707ION    CL-45236  40.836  26.672   3.823
73708ION    CL-45237  38.611   8.231  11.945
73709ION    CL-45238  35.976  31.653  13.644
73710ION    CL-45239   3.721  34.754  14.277
73711ION    CL-45240  37.130  14.174   0.934
73712ION    CL-45241   2.631  24.173  14.979
73713ION    CL-45242  16.603  43.678   2.430
73714ION    CL-45243  22.891   4.787  11.125
73715ION    CL-45244   7.744  12.951   1.387
73716ION    CL-45245  10.175  20.484  11.090
73717ION    CL-45246  25.059  39.576  12.345
73718ION    CL-45247  22.672  15.401  12.978
73719ION    CL-45248   3.502   2.140  12.095
73720ION    CL-45249  34.331   9.176   4.187
73721ION    CL-45250  18.629   1.510   3.793
73722ION    CL-45251   7.808   7.637  11.672
73723ION    CL-45252   1.032  35.189   0.086
73724ION    CL-45253   8.475  17.840  12.728
73725ION    CL-45254  32.616  28.412   4.239
73726ION    CL-45255  20.503  20.167  13.225
73727ION    CL-45256   3.867   7.023   1.688
73728ION    CL-45257  39.947  13.679   2.267
73729ION    CL-45258  21.112  38.387   2.042
73730ION    CL-45259  15.109  37.452   3.891
73731ION    CL-45260  24.846  26.734  12.089
73732ION    CL-45261  44.888  39.926  12.206
73733ION    CL-45262  37.881   7.889  11.135
73734ION    CL-45263  12.144  15.190  14.058
73735ION    CL-45264  30.084  30.889  14.008
73736ION    CL-45265  25.332  21.663  12.975
73737ION    CL-45266  32.568  43.442   3.464
73738ION    CL-45267  14.084  13.402   3.726
73739ION    CL-45268  35.595   7.135  11.929
73740ION    CL-45269  38.878  20.624  14.107
73741ION    CL-45270  20.239  33.521  14.889
73742ION    CL-45271  32.456  38.588   0.837
73743ION    CL-45272  26.513  41.363  10.651
73744ION    CL-45273  38.732  17.736  11.285
73745ION    CL-45274  38.333  11.939  13.690
73746ION    CL-45275  17.715  22.050   0.948
73747ION    CL-45276  28.122   0.664   0.604
73748ION    CL-45277  40.964  41.868   4.501
73749ION    CL-45278  42.912  30.176   2.577
73750ION    CL-45279  23.075  36.418  13.486
73751ION    CL-45280  16.598   7.588   0.868
73752ION    CL-45281   3.469  18.756  14.897
73753ION    CL-45282  11.968   0.505  13.541
73754ION    CL-45283  42.485  25.853  11.261
73755ION    CL-45284  22.801   8.037   5.027
73756ION    CL-45285  38.164  22.873   1.385
73757ION    CL-45286  22.303  14.216  13.792
73758ION    CL-45287  15.613  15.211   3.596
73759ION    CL-45288  27.189  14.537  11.883
73760ION    CL-45289   7.249  10.676   3.130
73761ION    CL-45290   9.460  28.427  13.306
73762ION    CL-45291   0.515   9.666  10.331
73763ION    CL-45292  44.996   0.432  11.581
73764ION    CL-45293  39.523  27.398  11.134
73765ION    CL-45294  10.150  16.799  13.967
73766ION    CL-45295  19.840  40.090   1.690
73767ION    CL-45296  26.954  34.040  13.050
73768ION    CL-45297  33.750  39.578  12.701
73769ION    CL-45298  32.449   8.730  12.110
73770ION    CL-45299  28.078   8.464   0.901
73771ION    CL-45300  36.385  43.459  10.484
73772ION    CL-45301  21.802  10.179  12.550
73773ION    CL-45302  22.948  21.030  11.939
73774ION    CL-45303   8.265  10.246  11.680
73775ION    CL-45304   2.435  17.473   0.814
73776ION    CL-45305  31.860   8.182   0.289
73777ION    CL-45306  20.193  39.877   3.688
73778ION    CL-45307  42.606  35.775  14.015
73779ION    CL-45308  44.874   7.132  12.628
73780ION    CL-45309  20.618  12.710  14.941
73781ION    CL-45310  16.690  32.024  10.638
73782ION    CL-45311  36.541   9.964  13.450
73783ION    CL-45312  23.545  42.287   3.209
73784ION    CL-45313  22.098  35.304  12.824
73785ION    CL-45314  42.294  21.189   4.980
73786ION    CL-45315  33.503   0.535  14.457
73787ION    CL-45316  25.122   4.740   0.167
73788ION    CL-45317  12.191  14.340   3.273
73789ION    CL-45318   0.746  39.131  13.151
73790ION    CL-45319  15.277  42.522  14.452
73791ION    CL-45320   3.732  33.881   0.803
73792ION    CL-45321   3.653  22.781   0.308
73793ION    CL-45322  40.438  30.233  11.623
73794ION    CL-45323  16.993  22.341   3.780
73795ION    CL-45324   1.349  30.885   5.022
73796ION    CL-45325  20.219   8.001   3.777
73797ION    CL-45326  22.425  19.592  14.046
73798ION    CL-45327  32.609  14.420  14.379
73799ION    CL-45328   3.663  35.215   1.744
73800ION    CL-45329  38.680  34.399  12.878
73801ION    CL-45330  34.923   1.439  13.066
73802ION    CL-45331   0.051  38.876   2.202
73803ION    CL-45332  14.383  12.001   1.489
73804ION    CL-45333  40.843  13.414   2.694
73805ION    CL-45334  27.034  29.146  11.985
73806ION    CL-45335  31.563  20.654  12.708
73807ION    CL-45336  41.822  31.772   3.506
73808ION    CL-45337  30.961  30.094   3.671
73809ION    CL-45338  43.025  31.727   1.523
73810ION    CL-45339  37.238  12.593  13.867
73811ION    CL-45340  43.269   7.880   0.703
73812ION    CL-45341  30.268  35.942   4.910
73813ION    CL-45342  15.622   3.427   1.406
73814ION    CL-45343  22.834  25.646  12.280
73815ION    CL-45344  13.136  41.149  11.732
73816ION    CL-45345  27.431  16.527  12.972
73817ION    CL-45346  35.457   1.916   3.094
73818ION    CL-45347   8.748   5.245   3.693
73819ION    CL-45348   8.881  14.477   1.519
73820ION    CL-45349  36.788  24.213   1.330
73821ION    CL-45350   9.345  30.942  13.021
73822ION    CL-45351  21.101  33.006   4.961
73823ION    CL-45352  27.670  37.707   4.180
73824ION    CL-45353  42.702  44.465   4.956
73825ION    CL-45354  28.657  28.475  12.000
73826ION    CL-45355  23.207  25.016   0.191
73827ION    CL-45356   1.670  24.375  11.722
73828ION    CL-45357   4.530  33.914  13.607
73829ION    CL-45358   2.487  37.565   0.756
73830ION    CL-45359  35.670  40.837   2.811
73831ION    CL-45360  42.846  16.768  12.977
73832ION    CL-45361   3.575  40.751   2.739
73833ION    CL-45362  29.103  23.092  14.949
73834ION    CL-45363   6.358  35.718   3.051
73835ION    CL-45364  25.189  28.670  11.467
73836ION    CL-45365  37.808  44.730   0.389
73837ION    CL-45366  24.343  22.675  11.273
73838ION    CL-45367  41.514  38.727   0.703
73839ION    CL-45368   7.946   6.463   0.209
73840ION    CL-45369  12.869  23.154   0.898
73841ION    CL-45370  32.188  40.788   4.580
73842ION    CL-45371  36.309  19.937   9.852
73843ION    CL-45372  34.496  25.128  10.441
73844ION    CL-45373  44.220  32.829  10.076
73845ION    CL-45374  13.603  33.801  13.932
73846ION    CL-45375  11.222  38.364   4.271
73847ION    CL-45376  21.543  26.555   9.972
73848ION    CL-45377  40.225  31.205  11.521
73849ION    CL-45378  28.958   9.913  12.894
73850ION    CL-45379  39.956  15.029  12.405
73851ION    CL-45380   8.564  29.700  12.826
73852ION    CL-45381  10.321  43.150   4.385
73853ION    CL-45382  34.903  16.405  10.424
73854ION    CL-45383  32.722  44.601  14.029
73855ION    CL-45384  34.321  35.834   0.442
73856ION    CL-45385  37.487  12.135   3.262
73857ION    CL-45386  38.037  41.742  12.515
73858ION    CL-45387  30.266  30.929   2.251
73859ION    CL-45388  22.346  39.666  13.539
73860ION    CL-45389  41.555   5.618   0.287
73861ION    CL-45390  23.631   5.239   3.694
73862ION    CL-45391  19.371  11.207   2.912
73863ION    CL-45392   0.298  28.298  10.950
73864ION    CL-45393  18.181  26.459   4.338
73865ION    CL-45394  33.432  24.193   1.291
73866ION    CL-45395   3.787  39.262  12.720
73867ION    CL-45396   7.082  20.551  10.507
73868ION    CL-45397  18.206  22.157  14.902
73869ION    CL-45398  43.954  17.642  12.906
73870ION    CL-45399  38.836  11.874   0.927
73871ION    CL-45400  32.285  36.553   0.995
73872ION    CL-45401  17.987  34.517   1.805
73873ION    CL-45402  15.356  41.866   4.915
73874ION    CL-45403   3.319  12.656  14.249
73875ION    CL-45404   3.515   3.801   2.845
73876ION    CL-45405  17.007  36.121  11.244
73877ION    CL-45406  39.818  44.590  13.687
73878ION    CL-45407   2.698  26.332  12.851
73879ION    CL-45408  25.527  39.122   4.227
73880ION    CL-45409  18.784   1.000  14.164
73881ION    CL-45410  21.188  13.079   4.548
73882ION    CL-45411   3.947  31.804   4.019
73883ION    CL-45412  21.395  38.442  10.300
73884ION    CL-45413  35.610  25.871   0.098
73885ION    CL-45414   4.142  26.814   0.926
73886ION    CL-45415  17.858  22.116  12.113
73887ION    CL-45416  34.150  11.177  12.800
73888ION    CL-45417   2.224   4.858  14.690
73889ION    CL-45418  14.935  28.432  11.633
73890ION    CL-45419   5.675  43.496  11.982
73891ION    CL-45420  35.060  19.680  12.925
73892ION    CL-45421  30.364   7.402  13.219
73893ION    CL-45422   0.044  41.180  13.150
73894ION    CL-45423  13.140  27.300   1.359
73895ION    CL-45424  10.765  22.595   0.243
73896ION    CL-45425   8.624   8.122   1.949
73897ION    CL-45426   3.184  20.811   2.734
73898ION    CL-45427  32.465   0.067  11.289
73899ION    CL-45428  12.873  14.153   3.848
73900ION    CL-45429  40.300  11.278  11.153
73901ION    CL-45430  27.120   5.185   4.055
73902ION    CL-45431  28.688  10.449  14.452
73903ION    CL-45432  29.882  21.715   0.021
73904ION    CL-45433   9.674  12.594   1.716
73905ION    CL-45434  24.351   1.991   0.683
73906ION    CL-45435  26.030  41.454   3.258
73907ION    CL-45436  32.342   4.010  14.977
73908ION    CL-45437  43.631  19.581   1.546
73909ION    CL-45438  23.104   6.705  14.287
73910ION    CL-45439  19.994  18.110   5.042
73911ION    CL-45440  37.085  40.392  13.487
73912ION    CL-45441  18.380  41.575   0.967
73913ION    CL-45442  19.994  12.180  13.613
73914ION    CL-45443  26.221  10.523  10.025
73915ION    CL-45444  19.875  34.173   1.199
73916ION    CL-45445  41.333  25.905   0.291
73917ION    CL-45446  28.097  26.083  11.959
73918ION    CL-45447   7.426  26.428  14.361
73919ION    CL-45448   4.552  28.437   4.994
73920ION    CL-45449  14.649  23.989  11.639
73921ION    CL-45450  23.992  12.320   1.110
73922ION    CL-45451   5.252   0.455  14.310
73923ION    CL-45452  33.635  20.850   1.715
73924ION    CL-45453  23.962   2.565  14.509
73925ION    CL-45454   6.810  21.297   1.551
73926ION    CL-45455   1.916  36.112   4.130
73927ION    CL-45456   7.353  25.472   0.545
73928ION    CL-45457  42.129  14.740   5.098
73929ION    CL-45458  42.527  25.033  10.690
73930ION    CL-45459  37.337  13.552   2.527
73931ION    CL-45460  33.090  30.159   0.238
73932ION    CL-45461  32.871  36.527  12.088
73933ION    CL-45462  38.818  42.494  14.309
73934ION    CL-45463  35.208  17.237  10.490
73935ION    CL-45464   5.600  41.630   0.869
73936ION    CL-45465   4.525  37.091   3.847
73937ION    CL-45466  13.243  33.302   2.227
73938ION    CL-45467  16.248  32.718   4.964
73939ION    CL-45468   5.739  24.993  14.680
73940ION    CL-45469  30.985  38.801   1.009
73941ION    CL-45470   6.733  39.108   2.137
73942ION    CL-45471  43.903   3.437   3.651
73943ION    CL-45472   8.517   9.366   2.955
73944ION    CL-45473  24.134  43.475  12.534
73945ION    CL-45474  24.716  31.229  13.606
73946ION    CL-45475  41.632   9.431  11.769
73947ION    CL-45476  17.196  22.870  13.032
73948ION    CL-45477  41.687  42.671  14.624
73949ION    CL-45478  17.532   1.492   0.316
73950ION    CL-45479  10.491   4.760  12.739
73951ION    CL-45480  19.532   7.364  10.770
73952ION    CL-45481   0.263  12.679   0.301
73953ION    CL-45482  21.980  28.384   3.380
73954ION    CL-45483  33.477  38.150  11.592
73955ION    CL-45484  23.422  28.414  14.831
73956ION    CL-45485   7.267  37.151  11.092
73957ION    CL-45486  33.111  33.109  11.420
73958ION    CL-45487  42.197  26.382  13.926
73959ION    CL-45488   8.906  40.381  13.110
73960ION    CL-45489  16.995  21.909  12.577
73961ION    CL-45490  37.686   6.223   0.993
73962ION    CL-45491   9.344   9.017   4.553
73963ION    CL-45492  35.861  22.102   3.239
73964ION    CL-45493  19.863  11.898   2.634
73965ION    CL-45494  21.537  12.011   3.294
73966ION    CL-45495  17.088  22.750  12.045
73967ION    CL-45496  35.566  35.844   4.866
73968ION    CL-45497   4.802  31.959  14.375
73969ION    CL-45498   1.095   5.114  13.169
73970ION    CL-45499  23.889  33.928  14.551
73971ION    CL-45500   3.692  40.541   0.872
73972ION    CL-45501  18.463  34.009  10.363
73973ION    CL-45502  33.321  10.347  13.020
73974ION    CL-45503   3.701   5.852  11.192
73975ION    CL-45504   5.078  20.817   1.396
73976ION    CL-45505   5.996  31.444   0.908
73977ION    CL-45506  37.644   8.618  14.392
73978ION    CL-45507  13.777   6.839   3.389
73979ION    CL-45508  44.934   7.966  13.808
73980ION    CL-45509  44.006  16.371   0.779
73981ION    CL-45510  26.233   3.937  14.777
73982ION    CL-45511  20.864  21.780  13.020
73983ION    CL-45512  40.061  35.173   2.674
73984ION    CL-45513  22.576   9.320   0.716
73985ION    CL-45514  32.477  39.127   3.847
73986ION    CL-45515  23.907  33.059   2.368
73987ION    CL-45516  14.823  21.518  14.294
73988ION    CL-45517  12.160   2.020  11.899
73989ION    CL-45518  34.299  22.889   3.392
73990ION    CL-45519  27.738  37.586   3.154
73991ION    CL-45520  10.125  41.110  13.997
73992ION    CL-45521  17.676   7.134  14.921
73993ION    CL-45522   0.691   6.244   2.205
73994ION    CL-45523  17.888  25.207  12.858
73995ION    CL-45524  12.070  33.335  12.741
73996ION    CL-45525  38.632  16.402   0.989
73997ION    CL-45526  32.278  21.126   1.865
73998ION    CL-45527  18.750   6.278   3.537
73999ION    CL-45528   7.415  19.192   3.803
74000ION    CL-45529  22.340   1.910   2.679
74001ION    CL-45530   9.043  34.092  10.128
74002ION    CL-45531  12.866  29.509  12.087
74003ION    CL-45532  21.132  18.853   3.368
74004ION    CL-45533  19.342  36.066  13.385
74005ION    CL-45534  20.554  17.787   1.789
74006ION    CL-45535  12.892  18.493   0.791
74007ION    CL-45536  41.546  35.596  14.474
74008ION    CL-45537  43.651  17.586  14.524
74009ION    CL-45538  23.473  18.607   0.374
74010ION    CL-45539   0.339  28.130   2.922
74011ION    CL-45540   9.145  24.208  12.981
74012ION    CL-45541   2.860   1.597  14.925
74013ION    CL-45542  22.190  25.738   2.435
74014ION    CL-45543  36.902  20.500   1.081
74015ION    CL-45544  39.605  12.745   1.203
74016ION    CL-45545  11.358   2.487  10.289
74017ION    CL-45546   8.374  35.386   2.452
74018ION    CL-45547   8.343  10.661  14.756
74019ION    CL-45548  21.922  21.642   3.358
74020ION    CL-45549   5.387   5.012   0.456
74021ION    CL-45550  16.132  27.902  13.298
74022ION    CL-45551  19.826  26.010  13.450
74023ION    CL-45552   2.678  30.563   3.257
74024ION    CL-45553  34.349   6.713  12.742
74025ION    CL-45554   8.582  10.832  13.801
74026ION    CL-45555   2.366  12.326   0.942
74027ION    CL-45556  41.540  43.979   0.244
74028ION    CL-45557   7.381   1.496   4.105
74029ION    CL-45558   5.774  17.530  12.410
74030ION    CL-45559  43.408   5.467  13.057
74031ION    CL-45560  43.489   6.498   0.765
74032ION    CL-45561  28.247  22.047  10.641
74033ION    CL-45562  33.856  24.319   0.059
74034ION    CL-45563   7.147  44.175   4.843
74035ION    CL-45564  18.733  28.538  13.645
74036ION    CL-45565   5.522  35.202  12.492
74037ION    CL-45566  42.322   3.238   0.411
74038ION    CL-45567  20.247  34.830   4.758
74039ION    CL-45568   5.325   8.980  12.395
74040ION    CL-45569  12.688  38.745   1.552
74041ION    CL-45570  27.088  21.136   4.489
74042ION    CL-45571  12.169  13.476  11.179
74043ION    CL-45572  16.746   1.234  10.713
74044ION    CL-45573  22.455  41.310   2.244
74045ION    CL-45574  14.895  13.798   3.294
74046ION    CL-45575  20.041  35.581  13.172
74047ION    CL-45576  14.616  28.729  10.868
74048ION    CL-45577  24.358  39.589  13.122
74049ION    CL-45578  27.578  18.794  13.403
74050ION    CL-45579  43.978   2.084   4.926
74051ION    CL-45580   7.567  10.186   1.831
74052ION    CL-45581  38.230  18.273   1.998
74053ION    CL-45582  35.301  15.658   3.574
74054ION    CL-45583  21.090   6.548  14.582
74055ION    CL-45584  29.426  31.084   0.795
74056ION    CL-45585  32.282  38.325  13.964
74057ION    CL-45586  18.351  31.619   5.435
74058ION    CL-45587  27.664  35.310  10.589
74059ION    CL-45588   4.256   8.424  10.849
74060ION    CL-45589  32.191   8.698  13.262
74061ION    CL-45590  14.789   0.200  13.137
74062ION    CL-45591  16.493   6.819  12.481
74063ION    CL-45592  30.077  22.494  11.220
74064ION    CL-45593  36.068  25.096  12.454
74065ION    CL-45594  28.721  43.702   2.749
74066ION    CL-45595  21.351  41.378  10.752
74067ION    CL-45596  43.680   5.757  11.540
74068ION    CL-45597   1.821  29.088   0.235
74069ION    CL-45598  37.776   7.082  11.725
74070ION    CL-45599  16.241  25.451   1.763
74071ION    CL-45600  19.499  32.382   1.224
74072ION    CL-45601  10.610  35.430   2.683
74073ION    CL-45602  30.397  10.516  14.882
74074ION    CL-45603  10.363   1.500  12.001
74075ION    CL-45604  18.513   5.435   0.553
74076ION    CL-45605  11.646   5.495   0.051
74077ION    CL-45606  13.775  20.686  11.173
74078ION    CL-45607  23.424   2.690  13.676
74079ION    CL-45608  19.766  12.113  11.085
74080ION    CL-45609  32.161   0.842  14.459
74081ION    CL-45610  30.519  18.838  12.164
74082ION    CL-45611  21.316  31.893   3.826
74083ION    CL-45612   9.639  40.130  12.784
74084ION    CL-45613  42.440  15.956  14.720
74085ION    CL-45614  32.000  38.762   3.048
74086ION    CL-45615  33.142  25.060  13.271
74087ION    CL-45616   1.849  39.114  10.026
74088ION    CL-45617  20.479  10.232  11.143
74089ION    CL-45618  19.084  26.776   1.216
74090ION    CL-45619  11.088  40.260   1.821
74091ION    CL-45620   8.246  12.074   2.565
74092ION    CL-45621  20.182   3.024   2.398
74093ION    CL-45622  43.704   2.332  10.374
74094ION    CL-45623  32.950  27.905  11.808
74095ION    CL-45624  37.909  28.017   0.974
74096ION    CL-45625  39.050   3.828  14.543
74097ION    CL-45626  32.404  41.999   4.234
74098ION    CL-45627  23.283  11.645   2.724
74099ION    CL-45628   4.715  29.800  12.723
74100ION    CL-45629  24.666  10.401   3.723
74101ION    CL-45630  18.524  40.691   0.931
74102ION    CL-45631  10.145  16.333  11.413
74103ION    CL-45632  10.930   7.906   5.187
74104ION    CL-45633  19.094  15.879  11.131
74105ION    CL-45634  31.904  25.310  11.348
74106ION    CL-45635  43.564  41.287   1.771
74107ION    CL-45636  38.650  12.198   3.563
74108ION    CL-45637  31.205  22.404  14.516
74109ION    CL-45638  12.677  34.180  13.907
74110ION    CL-45639  33.781  37.987  14.905
74111ION    CL-45640   2.998  14.116   3.561
74112ION    CL-45641   0.619  21.513  11.691
74113ION    CL-45642  14.767  16.321   3.643
74114ION    CL-45643  23.725  31.219  14.709
74115ION    CL-45644  27.130  13.272  11.564
74116ION    CL-45645   0.117  20.560   4.484
74117ION    CL-45646  44.211  12.755  11.135
74118ION    CL-45647  24.289  38.279  11.790
74119ION    CL-45648  27.922  29.846   4.661
74120ION    CL-45649  44.035  37.558  13.013
74121ION    CL-45650  21.381  18.561  14.088
74122ION    CL-45651  27.756  25.398  14.163
74123ION    CL-45652  38.672   6.102  12.067
74124ION    CL-45653  13.955  39.055   2.803
74125ION    CL-45654  35.226   6.516  12.989
74126ION    CL-45655  35.236  19.679   4.563
74127ION    CL-45656   5.693  33.105   1.572
74128ION    CL-45657  29.839  19.112  11.484
74129ION    CL-45658  16.054  10.577  14.928
74130ION    CL-45659  21.571   2.310   1.996
74131ION    CL-45660  39.398  33.651   0.731
74132ION    CL-45661  18.332  14.606  13.165
74133ION    CL-45662  33.539  25.132  12.057
74134ION    CL-45663  32.945   5.841   4.595
74135ION    CL-45664  29.599  23.919  11.173
74136ION    CL-45665  22.922  17.071   2.631
74137ION    CL-45666  20.585   4.700  14.844
74138ION    CL-45667  12.256  30.411  12.838
74139ION    CL-45668   6.901  22.655  12.734
74140ION    CL-45669  29.964  13.315  13.478
74141ION    CL-45670   1.250  23.534  12.063
74142ION    CL-45671  40.290  24.417   4.157
74143ION    CL-45672  32.083   8.915   1.225
74144ION    CL-45673   1.677   0.340   2.722
74145ION    CL-45674   1.553  29.623  11.993
74146ION    CL-45675  14.148   2.566   4.163
74147ION    CL-45676  13.679  16.297  14.970
74148ION    CL-45677  11.756  37.977   2.893
74149ION    CL-45678  43.326  38.769  12.078
74150ION    CL-45679  43.971   0.419   3.662
74151ION    CL-45680  27.551  44.419  11.541
74152ION    CL-45681  18.162  25.644  11.155
74153ION    CL-45682  30.811   0.227   1.777
74154ION    CL-45683  17.332  12.167  14.996
74155ION    CL-45684  32.200   2.455  13.360
74156ION    CL-45685  22.976  30.492  11.671
74157ION    CL-45686  17.936  35.819   4.181
74158ION    CL-45687  28.823   8.610   3.994
74159ION    CL-45688   0.830  32.863  14.065
74160ION    CL-45689  44.652  37.514   4.272
74161ION    CL-45690  23.710  21.418   0.491
74162ION    CL-45691  21.807  32.079   1.775
74163ION    CL-45692  18.750  31.702  14.329
74164ION    CL-45693  24.904  13.574   4.212
74165ION    CL-45694  22.043  15.469   4.912
74166ION    CL-45695   1.028   6.285  11.102
74167ION    CL-45696  32.781   1.341   3.742
74168ION    CL-45697   4.252  31.851  10.622
74169ION    CL-45698  42.668  24.877  14.552
74170ION    CL-45699  43.492  13.784   1.434
74171ION    CL-45700  36.015  31.607  11.168
74172ION    CL-45701  16.037  22.105   2.783
74173ION    CL-45702  18.164   9.322  14.402
74174ION    CL-45703  27.670   1.980   4.606
74175ION    CL-45704   4.920  38.585  12.371
74176ION    CL-45705   5.341   9.463   4.933
74177ION    CL-45706   3.487  21.409  11.438
74178ION    CL-45707  28.476   1.669  12.790
74179ION    CL-45708  15.240  17.609  11.818
74180ION    CL-45709  43.397  31.041  11.709
74181ION    CL-45710   4.367  42.983   4.895
74182ION    CL-45711  28.452  16.107  13.669
74183ION    CL-45712  34.035  43.984  14.557
74184ION    CL-45713  32.304  35.336   2.247
74185ION    CL-45714   9.883  38.880  14.602
74186ION    CL-45715  24.063   7.755   2.360
74187ION    CL-45716  21.000  37.291  12.433
74188ION    CL-45717  42.373   4.985   1.887
74189ION    CL-45718   5.996  27.330   2.760
74190ION    CL-45719  39.561   6.185   4.254
74191ION    CL-45720   3.873  37.173   1.945
74192ION    CL-45721  15.715  17.478   2.389
74193ION    CL-45722  31.679  15.951   4.248
74194ION    CL-45723  13.424   0.822  14.833
74195ION    CL-45724  22.778  34.274  11.457
74196ION    CL-45725  43.315   1.497   4.954
74197ION    CL-45726  33.146  12.206   4.323
74198ION    CL-45727  33.656   3.332  11.675
74199ION    CL-45728   6.422  27.411   0.978
74200ION    CL-45729  16.478  39.823  14.927
74201ION    CL-45730  15.494  35.459   3.125
74202ION    CL-45731  15.941   7.648   2.396
74203ION    CL-45732  21.834   4.222  12.667
74204ION    CL-45733  41.376   9.893  14.067
74205ION    CL-45734  12.729   7.872   4.534
74206ION    CL-45735  21.828  18.449   4.900
74207ION    CL-45736  42.174  40.848  12.559
74208ION    CL-45737  22.228  30.559   1.792
74209ION    CL-45738   8.790  28.798   4.809
74210ION    CL-45739  37.864  21.135   2.185
74211ION    CL-45740   7.780  21.070  10.631
74212ION    CL-45741  26.063  29.795   0.363
74213ION    CL-45742  24.381  20.412  11.302
74214ION    CL-45743   2.696  20.482   1.124
74215ION    CL-45744  38.349  11.390   1.168
74216ION    CL-45745  19.363  22.626   5.097
74217ION    CL-45746   9.128  21.018   1.857
74218ION    CL-45747   0.894  26.122  12.607
74219ION    CL-45748  27.218   3.744   4.601
74220ION    CL-45749   1.071  17.969   0.842
74221ION    CL-45750   8.993  34.649   4.029
74222ION    CL-45751   9.640  18.823   1.183
74223ION    CL-45752   7.827  37.811  14.872
74224ION    CL-45753  26.239   5.823  14.456
74225ION    CL-45754  31.780  20.095  11.907
74226ION    CL-45755  21.546  13.350  12.409
74227ION    CL-45756   7.378  28.695   2.708
74228ION    CL-45757  29.982  19.551   4.690
74229ION    CL-45758   1.072  16.423  12.326
74230ION    CL-45759   2.182   8.590  10.856
74231ION    CL-45760  25.832  11.163   3.242
74232ION    CL-45761  37.622  13.098   1.683
74233ION    CL-45762  23.876  16.848  10.749
74234ION    CL-45763  27.122  28.143  11.624
74235ION    CL-45764  35.982  20.009   3.404
74236ION    CL-45765   1.624  13.027  10.995
74237ION    CL-45766   3.976   2.079  12.857
74238ION    CL-45767  33.722  13.647   1.841
74239ION    CL-45768  38.017  36.322   1.297
74240ION    CL-45769  24.047   8.719   2.007
74241ION    CL-45770  40.637  32.152   3.651
74242ION    CL-45771  38.483  37.590   2.720
74243ION    CL-45772  16.057  34.281  11.473
74244ION    CL-45773  39.231  28.405  11.249
74245ION    CL-45774  22.333  43.574   4.199
74246ION    CL-45775  34.881  20.708  14.879
74247ION    CL-45776  15.641  27.992  12.756
74248ION    CL-45777  27.570  34.199   2.615
74249ION    CL-45778  37.786   3.960   5.112
74250ION    CL-45779   0.491  20.026  13.885
74251ION    CL-45780  22.930   6.194   2.166
74252ION    CL-45781  19.745  21.587  12.088
74253ION    CL-45782  42.625  42.940   3.575
74254ION    CL-45783  36.994  28.470   0.770
74255ION    CL-45784  19.702   8.011  12.347
74256ION    CL-45785  19.228  15.871  14.380
74257ION    CL-45786   6.973  11.461  11.441
74258ION    CL-45787  15.229   3.901  14.719
74259ION    CL-45788   0.744  20.099   3.804
74260ION    CL-45789   4.474  30.053   1.968
74261ION    CL-45790  28.840  19.414   2.039
74262ION    CL-45791  12.324  18.218  14.510
74263ION    CL-45792  11.126   6.522  12.211
74264ION    CL-45793   4.424   9.692  10.900
74265ION    CL-45794   8.287  42.767  10.886
74266ION    CL-45795  44.544  27.914  12.169
74267ION    CL-45796   2.110   0.506   0.394
74268ION    CL-45797   8.695  41.480  11.092
74269ION    CL-45798  16.003  44.406   4.470
74270ION    CL-45799  34.622  22.526  13.927
74271ION    CL-45800  18.719  14.169   3.697
74272ION    CL-45801   0.829  37.464   3.239
74273ION    CL-45802  37.283   4.082  13.533
74274ION    CL-45803  26.066  38.534   0.968
74275ION    CL-45804  33.451  29.619  13.535
74276ION    CL-45805  36.134  30.157   3.133
74277ION    CL-45806  38.240  44.833  10.356
74278ION    CL-45807  23.665   3.537   0.164
74279ION    CL-45808  39.065  33.632  10.631
74280ION    CL-45809  17.069   3.325   1.498
74281ION    CL-45810  16.660  26.631   2.308
74282ION    CL-45811  31.673   9.897  13.599
74283ION    CL-45812   8.810  44.773   5.055
74284ION    CL-45813  27.875   7.160  11.100
74285ION    CL-45814  22.437  34.583   2.260
74286ION    CL-45815  16.554  11.571   5.017
74287ION    CL-45816  37.097   9.427   2.690
74288ION    CL-45817  24.056  37.571   3.112
74289ION    CL-45818  18.829   4.932  12.992
74290ION    CL-45819  22.500   5.504   0.567
74291ION    CL-45820   8.124  36.400  13.357
74292ION    CL-45821  10.861   9.752  11.244
74293ION    CL-45822  29.065  13.628  12.557
74294ION    CL-45823  41.980  40.655   0.702
74295ION    CL-45824   5.495  28.950  11.678
74296ION    CL-45825  44.095   4.448   2.374
74297ION    CL-45826  26.381  10.332   4.869
74298ION    CL-45827  23.666  38.575  11.405
74299ION    CL-45828   8.229  22.986  14.429
74300ION    CL-45829  44.034  15.869   2.443
74301ION    CL-45830  25.106  38.608  11.323
74302ION    CL-45831   0.799   5.575  10.436
74303ION    CL-45832  28.247  36.894   3.700
74304ION    CL-45833  24.281  11.870  13.862
74305ION    CL-45834  43.331  19.307   0.032
74306ION    CL-45835  22.681  36.724   2.813
74307ION    CL-45836  32.411  33.609  11.690
74308ION    CL-45837  30.510  23.722  14.148
74309ION    CL-45838  23.377  13.186  11.914
74310ION    CL-45839  16.214   1.353   0.741
74311ION    CL-45840  24.117  14.225   0.441
74312ION    CL-45841  24.234  43.836   2.768
74313ION    CL-45842  11.073   3.849   3.588
74314ION    CL-45843  44.413   6.916  14.797
74315ION    CL-45844   6.141  21.397  13.196
74316ION    CL-45845  38.294  42.991   3.762
74317ION    CL-45846  10.413  18.844  11.621
74318ION    CL-45847  25.999  36.295  11.550
74319ION    CL-45848  27.764  15.268   1.290
74320ION    CL-45849  25.207  39.157   2.174
74321ION    CL-45850  38.874   2.846  14.337
74322ION    CL-45851  32.833   4.659   2.820
74323ION    CL-45852  28.011  18.943   3.106
74324ION    CL-45853  36.580  44.378  12.002
74325ION    CL-45854  40.010  23.491  12.317
74326ION    CL-45855  14.991  40.475  12.572
74327ION    CL-45856  38.265  43.386  11.947
74328ION    CL-45857  38.707  17.558   2.310
74329ION    CL-45858  21.653  25.835   4.845
74330ION    CL-45859  21.968  43.376  14.508
74331ION    CL-45860  31.926   2.439   4.105
74332ION    CL-45861  43.001  43.673   0.054
74333ION    CL-45862  38.364  11.334  14.486
74334ION    CL-45863  18.023   3.439  13.604
74335ION    CL-45864  38.787  30.692  10.533
74336ION    CL-45865   0.932  37.788   0.272
74337ION    CL-45866  14.595  19.351  14.848
74338ION    CL-45867  35.944  22.574   1.964
74339ION    CL-45868   9.973  19.226   3.084
74340ION    CL-45869  10.655  12.101   0.453
74341ION    CL-45870  19.273  44.310  13.864
74342ION    CL-45871   2.334  20.147  13.386
74343ION    CL-45872  13.551  43.634   2.160
74344ION    CL-45873  21.680  33.537   2.506
74345ION    CL-45874   5.817  18.710  13.118
74346ION    CL-45875   5.103  24.950   0.451
74347ION    CL-45876  25.476  12.041   2.729
74348ION    CL-45877  21.226  24.853  12.571
74349ION    CL-45878  35.771  40.417  12.557
74350ION    CL-45879  30.087   5.644  11.048
74351ION    CL-45880  37.182  40.427   2.477
74352ION    CL-45881  19.687  31.623  10.687
74353ION    CL-45882   7.548  29.447  10.274
74354ION    CL-45883  25.426  28.632  12.821
74355ION    CL-45884   2.241  17.127   2.861
74356ION    CL-45885   7.762  33.622  14.146
74357ION    CL-45886  15.830  31.678   2.259
74358ION    CL-45887  30.452  41.832  12.321
74359ION    CL-45888  39.779  36.889   3.156
74360ION    CL-45889  30.852  18.595   2.956
74361ION    CL-45890  35.799  19.191  14.994
74362ION    CL-45891  33.192  33.869  13.101
74363ION    CL-45892  43.419  21.941   0.901
74364ION    CL-45893  20.685   0.502   3.229
74365ION    CL-45894  17.561  13.147   1.766
74366ION    CL-45895  11.799  11.386  14.333
74367ION    CL-45896   2.810  18.828   0.864
74368ION    CL-45897  33.209  21.245   4.847
74369ION    CL-45898  21.209  39.626   3.658
74370ION    CL-45899   5.543  12.483   3.727
74371ION    CL-45900  36.104  26.736  12.553
74372ION    CL-45901  36.324  37.992   0.311
74373ION    CL-45902   3.879   6.034   9.842
74374ION    CL-45903   4.992  18.728  14.735
74375ION    CL-45904  18.623   4.817   4.020
74376ION    CL-45905  11.560  39.740  14.323
74377ION    CL-45906  24.730   0.633   0.502
74378ION    CL-45907  19.074  13.193   4.095
74379ION    CL-45908   3.654  40.741  13.306
74380ION    CL-45909  13.610  12.322  10.904
74381ION    CL-45910  10.098   0.641   1.788
74382ION    CL-45911  41.848  25.483   4.883
74383ION    CL-45912  42.743  37.389  11.146
74384ION    CL-45913  42.788  20.114  12.593
74385ION    CL-45914  39.168  20.972   0.372
74386ION    CL-45915   8.784  42.193   2.982
74387ION    CL-45916   7.939  12.400  13.008
74388ION    CL-45917   8.892  22.889   2.302
74389ION    CL-45918   0.532  31.662  11.543
74390ION    CL-45919   3.010  27.270  11.327
74391ION    CL-45920  29.149  22.064   4.224
74392ION    CL-45921  31.050  29.596   5.068
74393ION    CL-45922  29.928  19.242   0.748
74394ION    CL-45923   2.323  41.708   1.497
74395ION    CL-45924  14.966   1.261   1.690
74396ION    CL-45925  22.162   9.992   3.935
74397ION    CL-45926  17.818  13.692  14.251
74398ION    CL-45927   7.994  30.379   3.756
74399ION    CL-45928  29.777   4.690  14.985
74400ION    CL-45929   5.173   1.424  14.550
74401ION    CL-45930   9.012  19.227   3.361
74402ION    CL-45931   2.306  43.075  13.852
74403ION    CL-45932  18.923   1.138  11.057
74404ION    CL-45933  14.022  42.712  12.480
74405ION    CL-45934  19.236  39.757  11.317
74406ION    CL-45935   0.659   9.795   4.264
74407ION    CL-45936  25.961   1.793   1.975
74408ION    CL-45937  32.028  24.415   1.833
74409ION    CL-45938  31.937  42.699   3.241
74410ION    CL-45939   4.594  22.426   2.632
74411ION    CL-45940  40.517  37.654   3.125
74412ION    CL-45941  26.315  28.660  12.896
74413ION    CL-45942  26.841   3.161   1.328
74414ION    CL-45943  24.318  41.749  13.840
74415ION    CL-45944  10.427  22.574   1.197
74416ION    CL-45945  13.538  12.120   2.531
74417ION    CL-45946  19.094  36.097   4.804
74418ION    CL-45947  11.603  29.558   2.716
74419ION    CL-45948   0.881   4.044  14.862
74420ION    CL-45949  19.972  25.941  10.607
74421ION    CL-45950  15.684   9.236  12.233
74422ION    CL-45951  22.933  29.549   3.290
74423ION    CL-45952   8.526   7.140   0.173
74424ION    CL-45953  34.861  42.196   5.075
74425ION    CL-45954  32.114   0.989  11.458
74426ION    CL-45955  23.661   1.774  13.351
74427ION    CL-45956  30.046   5.600  14.670
74428ION    CL-45957  16.136  27.142  12.934
74429ION    CL-45958   8.299  31.417  11.501
74430ION    CL-45959  30.249  41.134  11.170
74431ION    CL-45960   0.947  11.413  11.326
74432ION    CL-45961  26.789  41.980   4.532
74433ION    CL-45962  17.251   2.983   0.220
74434ION    CL-45963  40.829  43.860  12.073
74435ION    CL-45964  19.613   0.607   1.907
74436ION    CL-45965  38.803  36.483   4.876
74437ION    CL-45966   2.145  23.416   4.209
74438ION    CL-45967  32.840  34.106   3.012
74439ION    CL-45968  40.509   8.380  13.351
74440ION    CL-45969  43.672  25.749   4.959
74441ION    CL-45970  34.552   8.948  12.901
74442ION    CL-45971  38.621  22.737  13.543
74443ION    CL-45972   5.976   0.193   1.634
74444ION    CL-45973   1.023  33.131  11.482
74445ION    CL-45974  29.291   7.860  10.662
74446ION    CL-45975   1.366  40.832  10.801
74447ION    CL-45976  10.714  14.354   5.166
74448ION    CL-45977  35.620  29.695  13.141
74449ION    CL-45978  21.323  15.295  10.773
74450ION    CL-45979  30.598   7.426   0.918
74451ION    CL-45980  32.143  35.894  12.879
74452ION    CL-45981  15.146  16.728   0.764
74453ION    CL-45982  37.236  41.885  13.223
74454ION    CL-45983  41.647  20.561   4.174
74455ION    CL-45984  13.711   3.642  11.101
74456ION    CL-45985  17.541   1.713   3.274
74457ION    CL-45986  32.246  41.257   1.181
74458ION    CL-45987  15.310  28.190   2.418
74459ION    CL-45988  20.521  37.043   2.234
74460ION    CL-45989  17.093  11.312  11.065
74461ION    CL-45990  15.904  33.903   1.659
74462ION    CL-45991  19.252   3.792  13.352
74463ION    CL-45992  35.203  33.342  11.438
74464ION    CL-45993  24.676   4.666  14.374
74465ION    CL-45994  29.763   2.006   2.217
74466ION    CL-45995  16.253  14.900   0.305
74467ION    CL-45996   3.249  14.079  13.478
74468ION    CL-45997  34.879  38.998   2.637
74469ION    CL-45998  37.499  15.078   0.718
74470ION    CL-45999  22.019  35.793   3.097
74471ION    CL-46000  36.967  42.272   1.779
74472ION    CL-46001  10.185  33.226   3.257
74473ION    CL-46002  28.559  15.862   3.593
74474ION    CL-46003   0.215  17.645   0.869
74475ION    CL-46004  42.234   4.794   3.625
74476ION    CL-46005  35.302  44.014  13.487
74477ION    CL-46006  26.155  35.759   3.549
74478ION    CL-46007   5.274  21.531  13.398
74479ION    CL-46008  44.719  24.245   3.852
74480ION    CL-46009  37.647  25.487   3.208
74481ION    CL-46010  22.664   7.680  13.022
74482ION    CL-46011  19.787   8.925   1.775
74483ION    CL-46012  43.657  16.862   3.457
74484ION    CL-46013  44.453  12.721  14.363
74485ION    CL-46014   9.532  24.831   1.214
74486ION    CL-46015   4.536  32.508  12.898
74487ION    CL-46016   1.949  30.451   3.937
74488ION    CL-46017  41.315   0.254   4.548
74489ION    CL-46018  11.952  13.430   4.534
74490ION    CL-46019  15.853   3.947  12.414
74491ION    CL-46020  27.105  15.362  12.443
74492ION    CL-46021  33.634  33.066  13.855
74493ION    CL-46022  33.186  10.603   4.931
74494ION    CL-46023  25.521  23.490   3.400
74495ION    CL-46024  35.875  34.454   0.268
74496ION    CL-46025  43.592   1.924   3.816
74497ION    CL-46026   2.623  41.746  13.947
74498ION    CL-46027  42.365   5.504  14.890
74499ION    CL-46028  41.172  16.092   4.482
74500ION    CL-46029  34.931  24.233  13.151
74501ION    CL-46030   0.476   2.084  13.523
74502ION    CL-46031  44.518  31.490  13.014
74503ION    CL-46032   1.204  13.149  14.359
74504ION    CL-46033  18.739  41.922  12.554
74505ION    CL-46034  11.229  13.613   2.751
74506ION    CL-46035   8.078  21.304  12.852
74507ION    CL-46036  23.875  38.484   1.931
74508ION    CL-46037  28.054   9.171   4.382
74509ION    CL-46038  29.069  18.549   2.994
74510ION    CL-46039  13.160  34.508   2.002
74511ION    CL-46040  13.076   3.660  11.609
74512ION    CL-46041  28.447  21.635   0.988
74513ION    CL-46042  43.400  17.050   5.006
74514ION    CL-46043   7.968  36.023  12.041
74515ION    CL-46044  29.774  25.636  11.769
74516ION    CL-46045  29.073  30.708   4.898
74517ION    CL-46046  16.212  19.771   2.643
74518ION    CL-46047  37.943  22.969  12.105
74519ION    CL-46048  40.331  39.077   2.569
74520ION    CL-46049  40.974   3.864   4.298
74521ION    CL-46050  26.317  23.846   2.753
74522ION    CL-46051  32.092   6.197  12.828
74523ION    CL-46052   5.324  23.241   2.705
74524ION    CL-46053  16.871  22.888  11.078
74525ION    CL-46054  12.244  25.821   1.084
74526ION    CL-46055   7.978  40.445   1.694
74527ION    CL-46056  37.649  14.391  10.414
74528ION    CL-46057  33.078  43.237   2.507
74529ION    CL-46058  18.872  17.257   0.724
74530ION    CL-46059   4.720   8.216  11.713
74531ION    CL-46060  29.912  25.100  13.310
74532ION    CL-46061   9.965   8.755   2.435
74533ION    CL-46062  18.511  38.946   1.745
74534ION    CL-46063  43.239  37.543  13.862
74535ION    CL-46064  18.124  12.105   1.474
74536ION    CL-46065   3.651   8.083  11.691
74537ION    CL-46066   0.764   9.947  13.543
74538ION    CL-46067  18.822  18.541  11.232
74539ION    CL-46068   0.965  10.961   0.280
74540ION    CL-46069  27.644  29.149   2.160
74541ION    CL-46070  23.294  27.795  11.086
74542ION    CL-46071  37.555   4.839  12.940
74543ION    CL-46072  42.635  25.334   3.449
74544ION    CL-46073   8.724  17.206   5.068
74545ION    CL-46074  10.185  11.059   1.823
74546ION    CL-46075   3.044  36.836   1.708
74547ION    CL-46076  33.464  42.785   0.116
74548ION    CL-46077  29.339  17.123  12.629
74549ION    CL-46078   7.328  20.219  13.357
74550ION    CL-46079  25.196  33.192  14.181
74551ION    CL-46080  38.506  14.415  13.358
74552ION    CL-46081  24.751  29.815  13.984
74553ION    CL-46082   8.787  22.700  11.081
74554ION    CL-46083  14.141  14.021  14.476
74555ION    CL-46084  14.655  15.246  14.714
74556ION    CL-46085  13.182  13.813   2.456
74557ION    CL-46086  26.378  24.214   3.682
74558ION    CL-46087   0.408  43.054   0.557
74559ION    CL-46088  26.345  10.915   2.553
74560ION    CL-46089  40.541   5.340  14.314
74561ION    CL-46090  17.768  28.727  13.923
74562ION    CL-46091  27.322  29.219   0.749
74563ION    CL-46092   2.921  25.314  12.863
74564ION    CL-46093   9.138  20.083  11.469
74565ION    CL-46094   6.603  17.914   2.806
74566ION    CL-46095  25.991  31.854  13.197
74567ION    CL-46096  30.991  37.412   4.885
74568ION    CL-46097  37.208   5.913   4.603
74569ION    CL-46098   1.670  16.456  11.390
74570ION    CL-46099  13.067  11.116   2.765
74571ION    CL-46100   4.991  36.163   3.650
74572ION    CL-46101  41.505  10.787   2.890
74573ION    CL-46102  34.494  21.671  13.425
74574ION    CL-46103  44.958  35.667   2.169
74575ION    CL-46104   8.466  24.394   3.189
74576ION    CL-46105  29.495  24.408   0.864
74577ION    CL-46106   4.586  31.209   1.374
74578ION    CL-46107  15.310  12.780  10.164
74579ION    CL-46108   8.938  31.387   2.276
74580ION    CL-46109  24.341  10.880   1.754
74581ION    CL-46110  27.554   9.876   0.960
74582ION    CL-46111  32.821  20.220   2.297
74583ION    CL-46112   9.342   6.773   1.267
74584ION    CL-46113   4.767  23.769   0.829
74585ION    CL-46114  28.785  25.377  12.127
74586ION    CL-46115  15.329  32.371  12.493
74587ION    CL-46116  14.318  41.172   9.756
74588ION    CL-46117  21.140  25.499   0.364
74589ION    CL-46118   8.935   1.461  10.790
74590ION    CL-46119   0.973  10.424  11.185
74591ION    CL-46120  37.121  17.738   3.708
74592ION    CL-46121  17.892  27.045  10.229
74593ION    CL-46122  30.636  20.094  11.101
74594ION    CL-46123   6.830  27.994  11.791
74595ION    CL-46124  20.049  25.788   3.627
74596ION    CL-46125   2.967   2.804   2.168
74597ION    CL-46126  10.399  11.119   2.798
74598ION    CL-46127  21.072   6.309   3.597
74599ION    CL-46128  20.299  31.525  14.657
74600ION    CL-46129  29.426  38.633   2.263
74601ION    CL-46130  14.970  30.919  14.007
74602ION    CL-46131  29.311  13.472   1.047
74603ION    CL-46132  26.604  11.710   0.904
74604ION    CL-46133  31.671  21.435   0.694
74605ION    CL-46134  23.902  10.901   4.129
74606ION    CL-46135  36.775  35.353  11.044
74607ION    CL-46136  30.563  44.348   0.902
74608ION    CL-46137   5.113  16.562  11.062
74609ION    CL-46138  22.159  10.733   0.266
74610ION    CL-46139  31.037  41.353   4.253
74611ION    CL-46140  36.777   9.747  11.472
74612ION    CL-46141  24.913  20.131   4.160
74613ION    CL-46142  41.505  27.167   2.765
74614ION    CL-46143  36.425  19.518  11.830
74615ION    CL-46144  23.405  10.794  12.248
74616ION    CL-46145  12.559  19.653   3.204
74617ION    CL-46146  12.866   4.990  11.764
74618ION    CL-46147  18.535   9.431  12.355
74619ION    CL-46148  39.645  15.644   1.083
74620ION    CL-46149  16.282  10.941   1.688
74621ION    CL-46150  22.325  36.205   3.969
74622ION    CL-46151  44.494  15.754  11.584
74623ION    CL-46152  36.291  15.824   4.998
74624ION    CL-46153  29.158  27.096   0.879
74625ION    CL-46154  16.194  35.887   4.992
74626ION    CL-46155   2.510  19.123  14.269
74627ION    CL-46156  37.300  28.832  12.161
74628ION    CL-46157  31.457  20.888   1.345
74629ION    CL-46158   6.204  22.265  10.574
74630ION    CL-46159  22.448  12.988   3.934
74631ION    CL-46160  29.373  16.041   1.792
74632ION    CL-46161  11.606   1.392  14.893
74633ION    CL-46162   6.307  15.642  12.904
74634ION    CL-46163  12.423  39.525  14.832
74635ION    CL-46164  15.582  36.126   1.762
74636ION    CL-46165  12.096  19.567  11.494
74637ION    CL-46166   0.416   5.624  13.516
74638ION    CL-46167  20.225  35.105   1.403
74639ION    CL-46168  22.576  21.811  12.278
74640ION    CL-46169  31.443  28.135   1.219
74641ION    CL-46170  25.644  27.311   2.475
74642ION    CL-46171  24.567  37.970  14.218
74643ION    CL-46172  18.805  37.586  10.424
74644ION    CL-46173   8.930  35.217  10.868
74645ION    CL-46174  21.260  20.097  11.118
74646ION    CL-46175  38.872  35.917   0.112
74647ION    CL-46176  11.578  41.500  14.891
74648ION    CL-46177   4.925  42.942  12.964
74649ION    CL-46178   6.212   8.653   2.338
74650ION    CL-46179  18.531  28.993  14.512
74651ION    CL-46180   9.898  23.004   2.407
74652ION    CL-46181  20.050  38.261   4.075
74653ION    CL-46182  11.510  18.586   3.682
74654ION    CL-46183   3.390  11.210   1.715
74655ION    CL-46184  17.146   8.085   4.033
74656ION    CL-46185  24.290  31.533  12.045
74657ION    CL-46186  30.194   7.396  12.331
74658ION    CL-46187  37.207  34.540  13.559
74659ION    CL-46188  10.041  31.419   2.300
74660ION    CL-46189  28.591  19.692  13.572
74661ION    CL-46190  22.957  12.640  11.188
74662ION    CL-46191  17.493   5.654  11.164
74663ION    CL-46192  36.022  33.136  12.406
74664ION    CL-46193  14.220  12.841  11.504
74665ION    CL-46194  15.229   0.370  11.618
74666ION    CL-46195  35.655  44.584   4.187
74667ION    CL-46196  13.651  26.540  14.346
74668ION    CL-46197  35.826  36.169  10.829
74669ION    CL-46198  15.625  32.564  14.490
74670ION    CL-46199  11.577  30.341  12.055
74671ION    CL-46200  41.864  22.057   5.098
74672ION    CL-46201  18.161   3.769  11.186
74673ION    CL-46202  33.666  43.079   1.824
74674ION    CL-46203  10.720   1.130   2.885
74675ION    CL-46204  16.602  20.691   2.873
74676ION    CL-46205  24.441  23.572  12.580
74677ION    CL-46206  10.404   1.043  13.928
74678ION    CL-46207  18.934   9.543   3.939
74679ION    CL-46208  24.401  25.308  12.303
74680ION    CL-46209  43.364  29.141  10.766
74681ION    CL-46210  29.867   8.622   0.943
74682ION    CL-46211  37.211  21.659  13.392
74683ION    CL-46212   3.414  18.316   3.859
74684ION    CL-46213   5.467  25.956   3.895
74685ION    CL-46214  21.584  34.647   0.904
74686ION    CL-46215  34.602  36.782  14.917
74687ION    CL-46216  44.295   2.975  12.923
74688ION    CL-46217  20.090  15.306   0.543
74689ION    CL-46218   3.556  32.600  13.151
74690ION    CL-46219  28.011  28.979  14.193
74691ION    CL-46220  12.823  23.651  11.632
74692ION    CL-46221   9.069  24.584   4.992
74693ION    CL-46222  30.624  19.304   1.847
74694ION    CL-46223  33.638   1.411   3.401
74695ION    CL-46224   4.490  36.517  12.442
74696ION    CL-46225  28.713  39.364   2.242
74697ION    CL-46226  14.720  30.445   2.975
74698ION    CL-46227   0.912  44.742   3.677
74699ION    CL-46228   5.220  31.593  12.553
74700ION    CL-46229  27.459  11.086  13.576
74701ION    CL-46230  39.508  31.277   3.071
74702ION    CL-46231  11.482  33.939  12.698
74703ION    CL-46232   8.925  30.482   4.920
74704ION    CL-46233  29.582  28.624  13.881
74705ION    CL-46234  43.142  32.011   0.738
74706ION    CL-46235  43.788  11.896  12.484
74707ION    CL-46236  12.057  14.617   2.477
74708ION    CL-46237  21.903  14.814  13.229
74709ION    CL-46238   5.144  41.909  13.840
74710ION    CL-46239   4.542  35.068  12.350
74711ION    CL-46240  30.170  26.437   0.812
74712ION    CL-46241  37.576  10.415  13.218
74713ION    CL-46242  31.215  42.075  13.010
74714ION    CL-46243   3.061  30.484  11.306
74715ION    CL-46244  28.868   7.150  11.224
74716ION    CL-46245  44.800  11.339   4.389
74717ION    CL-46246  41.991  37.895  12.611
74718ION    CL-46247  36.238  34.512   2.953
74719ION    CL-46248   9.715  20.176   2.637
74720ION    CL-46249   7.562  17.447  12.477
74721ION    CL-46250   8.213  20.415  12.934
74722ION    CL-46251  15.874  23.283   3.748
74723ION    CL-46252  13.849  13.161   1.743
74724ION    CL-46253  41.672  39.394  11.103
74725ION    CL-46254   3.023   7.007  12.289
74726ION    CL-46255  14.548   9.442   0.863
74727ION    CL-46256  28.216  39.504   0.947
74728ION    CL-46257   5.421   0.955   1.966
74729ION    CL-46258  14.314  18.153  14.325
74730ION    CL-46259   1.777   7.158  13.359
74731ION    CL-46260  37.735  22.037   1.727
74732ION    CL-46261  31.867  36.687  13.482
74733ION    CL-46262  30.885   6.289  12.074
74734ION    CL-46263  44.046  11.102  14.803
74735ION    CL-46264  35.969  37.224  13.516
74736ION    CL-46265   3.797  36.055  13.722
74737ION    CL-46266  21.415   9.660  11.089
74738ION    CL-46267   1.956  38.515  11.156
74739ION    CL-46268  12.646  20.636  14.173
74740ION    CL-46269  37.985  10.638  10.995
74741ION    CL-46270   4.176  25.997   0.348
74742ION    CL-46271   4.341  20.178   5.247
74743ION    CL-46272  32.969  21.704  12.355
74744ION    CL-46273   8.696  31.436  12.418
74745ION    CL-46274   1.701  27.204   4.092
74746ION    CL-46275  40.047  42.897   1.517
74747ION    CL-46276  31.674  30.746   3.927
74748ION    CL-46277  19.540  28.280   0.080
74749ION    CL-46278   2.598   6.394  10.446
74750ION    CL-46279  34.891  16.499   1.726
74751ION    CL-46280  14.733  27.895  12.341
74752ION    CL-46281  27.907  34.570  13.970
74753ION    CL-46282  24.685   7.386  13.784
74754ION    CL-46283   9.374  21.044  11.618
74755ION    CL-46284   8.722  15.715   5.121
74756ION    CL-46285  40.059  42.501   3.465
74757ION    CL-46286   4.715  13.061  11.507
74758ION    CL-46287  42.502  27.296   3.663
74759ION    CL-46288  11.322   9.947   0.759
74760ION    CL-46289  30.548  44.007  14.945
74761ION    CL-46290  30.673   1.081  12.901
74762ION    CL-46291  25.951  26.484   4.153
74763ION    CL-46292  15.550  26.189   0.908
74764ION    CL-46293  24.925  10.293  14.409
74765ION    CL-46294  25.132  20.105  12.997
74766ION    CL-46295  18.313  20.050  14.234
74767ION    CL-46296   6.423  11.739   3.121
74768ION    CL-46297  22.743   5.430  13.997
74769ION    CL-46298  13.280  23.746  12.562
74770ION    CL-46299  43.488  29.947   0.015
74771ION    CL-46300  18.309  15.103   1.108
74772ION    CL-46301  23.935  12.467  11.012
74773ION    CL-46302  11.598  25.206  12.884
74774ION    CL-46303  32.078  14.382   2.695
74775ION    CL-46304  16.025  23.532  10.514
74776ION    CL-46305  31.121  19.433  12.430
74777ION    CL-46306  22.984   6.555   3.348
74778ION    CL-46307  36.830  44.401   3.848
74779ION    CL-46308  42.495   6.660   2.456
74780ION    CL-46309   0.246  14.735   2.690
74781ION    CL-46310  13.139   5.043  10.921
74782ION    CL-46311  22.943  14.745   2.978
74783ION    CL-46312  21.964   5.819   1.195
74784ION    CL-46313  20.356   1.437   4.080
74785ION    CL-46314  40.435  19.170   1.019
74786ION    CL-46315  24.515   5.490  10.829
74787ION    CL-46316  13.162  23.085  13.469
74788ION    CL-46317  28.109  27.628   1.433
74789ION    CL-46318  16.162  30.425  12.345
74790ION    CL-46319  23.244  42.921   4.992
74791ION    CL-46320   8.157  17.128   2.385
74792ION    CL-46321  10.462  17.935   2.556
74793ION    CL-46322  29.106   9.645   0.869
74794ION    CL-46323   6.897  17.045  10.894
74795ION    CL-46324  40.358  23.128  14.336
74796ION    CL-46325  19.219  18.680  12.971
74797ION    CL-46326  26.259  35.444  14.331
74798ION    CL-46327  23.549  43.045  11.248
74799ION    CL-46328  25.524  17.627   1.273
74800ION    CL-46329  16.315  19.177   0.436
74801ION    CL-46330   8.247  33.415  14.996
74802ION    CL-46331   5.853  33.178   3.772
74803ION    CL-46332   7.605   9.373   3.365
74804ION    CL-46333  21.790  24.437   2.111
74805ION    CL-46334   8.879  29.047  13.876
74806ION    CL-46335   8.801  18.743  13.119
74807ION    CL-46336   9.185  35.174   2.823
74808ION    CL-46337  12.407   9.789  13.500
74809ION    CL-46338   2.400   2.986   3.518
74810ION    CL-46339  31.541   5.970   0.953
74811ION    CL-46340   7.364  19.081  11.378
74812ION    CL-46341  19.578  41.886   1.327
74813ION    CL-46342  11.683  24.972   1.383
74814ION    CL-46343  28.366  15.320  10.195
74815ION    CL-46344  10.669  19.342   3.633
74816ION    CL-46345  44.595   4.497  13.478
74817ION    CL-46346  23.644  39.818   3.127
74818ION    CL-46347   3.077  28.234   1.906
74819ION    CL-46348   2.917  11.612  14.962
74820ION    CL-46349  15.402   6.283   4.777
74821ION    CL-46350  10.499  38.790  13.870
74822ION    CL-46351   4.275   3.374   1.080
74823ION    CL-46352  26.256  20.032  12.980
74824ION    CL-46353   2.723   3.365   1.376
74825ION    CL-46354  41.147  40.913  12.603
74826ION    CL-46355  22.629  40.988  12.085
74827ION    CL-46356  37.514  17.299   0.823
74828ION    CL-46357  17.147  15.438  14.127
74829ION    CL-46358  38.734   3.698  13.603
74830ION    CL-46359  10.799  30.168   3.237
74831ION    CL-46360  22.529  20.388   0.378
74832ION    CL-46361  18.682  21.564   0.916
74833ION    CL-46362  22.679   0.220  14.713
74834ION    CL-46363  26.367  25.044   1.652
74835ION    CL-46364  44.186   8.436   1.656
74836ION    CL-46365  41.878  25.249   2.693
74837ION    CL-46366  21.539  34.869  13.559
74838ION    CL-46367  17.425  35.712   9.951
74839ION    CL-46368  43.961  24.190   3.046
74840ION    CL-46369  18.418   9.318  14.988
74841ION    CL-46370  15.903  13.283  11.466
74842ION    CL-46371   8.584  26.027   2.667
74843ION    CL-46372   2.696  21.756  11.943
74844ION    CL-46373  13.318  28.297  13.356
74845ION    CL-46374  36.464  20.603  14.746
74846ION    CL-46375  37.402  44.924  10.072
74847ION    CL-46376   5.018  17.501  10.357
74848ION    CL-46377  15.909   0.825  12.299
74849ION    CL-46378  15.679  18.692   1.484
74850ION    CL-46379  16.151  20.057  11.116
74851ION    CL-46380  36.967  33.976  13.984
74852ION    CL-46381  33.855   2.630   4.290
74853ION    CL-46382  17.384  18.991  14.759
74854ION    CL-46383  32.871  32.159  13.223
74855ION    CL-46384  24.373  38.064  10.916
74856ION    CL-46385  29.167  37.725  13.145
74857ION    CL-46386  31.592  22.557  11.123
74858ION    CL-46387  28.120   1.979   1.361
74859ION    CL-46388  44.696  35.510  11.964
74860ION    CL-46389  33.722  24.578   3.827
74861ION    CL-46390  37.539  30.606   2.830
74862ION    CL-46391  25.397  27.694  11.526
74863ION    CL-46392  17.487  30.670   0.118
74864ION    CL-46393  28.079  41.330  10.534
74865ION    CL-46394  30.460  10.848  11.607
74866ION    CL-46395  33.736  20.256  12.494
74867ION    CL-46396   5.918  11.266  12.826
74868ION    CL-46397   1.975  27.056   0.224
74869ION    CL-46398  14.940  38.870  14.203
74870ION    CL-46399  39.385  34.880  14.143
74871ION    CL-46400  35.331  18.085  10.585
74872ION    CL-46401  19.124  12.540   1.430
74873ION    CL-46402  15.921  39.644   0.626
74874ION    CL-46403  16.084  28.531  10.718
74875ION    CL-46404  18.998  22.181  12.529
74876ION    CL-46405   0.461  26.498   2.817
74877ION    CL-46406   1.148  33.090  12.969
74878ION    CL-46407  15.614  39.779  13.483
74879ION    CL-46408   8.983  40.331  12.323
74880ION    CL-46409  22.916  11.027   4.016
74881ION    CL-46410  36.442  36.604   3.834
74882ION    CL-46411  41.298  32.855   0.447
74883ION    CL-46412   8.763   9.549  10.446
74884ION    CL-46413  33.352  37.875   3.791
74885ION    CL-46414  31.783  15.549  12.200
74886ION    CL-46415  10.264   8.025  12.537
74887ION    CL-46416  16.883  12.812  11.658
74888ION    CL-46417   0.408  21.612   2.827
74889ION    CL-46418  41.956  12.898  14.743
74890ION    CL-46419  25.037  18.372   2.824
74891ION    CL-46420   0.004  34.115  11.326
74892ION    CL-46421   5.793  40.632  13.317
74893ION    CL-46422  35.688  37.909  14.070
74894ION    CL-46423  33.940  18.216   1.375
74895ION    CL-46424  39.655   4.012  11.095
74896ION    CL-46425  15.630  10.366  13.935
74897ION    CL-46426   8.265  26.108  10.747
74898ION    CL-46427  29.971  41.111   1.283
74899ION    CL-46428  11.869   9.665  12.666
74900ION    CL-46429  17.009  34.177  11.975
74901ION    CL-46430  20.408  10.047   0.751
74902ION    CL-46431  11.902  27.147   4.139
74903ION    CL-46432   6.827  29.528  11.912
74904ION    CL-46433  10.112  37.145   2.345
74905ION    CL-46434  29.266  16.675  13.546
74906ION    CL-46435  12.101  37.601   1.313
74907ION    CL-46436  43.088  22.422   1.876
74908ION    CL-46437  34.685   0.047   2.268
74909ION    CL-46438  42.656  29.595  14.451
74910ION    CL-46439   7.218  35.792  10.349
74911ION    CL-46440   3.162  30.720  13.406
74912ION    CL-46441  36.263  43.419   0.458
74913ION    CL-46442  24.255  15.620  13.484
74914ION    CL-46443  42.655  31.069   3.667
74915ION    CL-46444  29.078  17.134   2.613
74916ION    CL-46445  30.694  41.934   0.000
74917ION    CL-46446   8.997  27.966  10.642
74918ION    CL-46447  32.452  32.229   1.169
74919ION    CL-46448  16.009  36.126  11.183
74920ION    CL-46449   9.768  43.890   3.646
74921ION    CL-46450  13.691   3.072  11.673
74922ION    CL-46451  41.271  39.091  12.002
74923ION    CL-46452   7.881  17.549  13.969
74924ION    CL-46453  13.196  30.099   0.803
74925ION    CL-46454  21.983   4.019  14.959
74926ION    CL-46455  30.329   1.872  12.356
74927ION    CL-46456  25.045  43.487  14.874
74928ION    CL-46457  27.458  13.656   2.092
74929ION    CL-46458  35.588  10.298   0.231
74930ION    CL-46459  39.830   2.852   3.286
74931ION    CL-46460  29.641   3.880   4.101
74932ION    CL-46461  40.514  14.068  13.072
74933ION    CL-46462  22.841   8.269   2.817
74934ION    CL-46463  40.805   5.306   2.865
74935ION    CL-46464   6.797   8.305   0.327
74936ION    CL-46465  17.969  30.103  11.290
74937ION    CL-46466  26.387  12.360  13.914
74938ION    CL-46467  32.443  17.581  12.482
74939ION    CL-46468  43.550  15.561   4.625
74940ION    CL-46469  42.526   0.946  14.497
74941ION    CL-46470  41.099  12.991   0.418
74942ION    CL-46471  27.910   0.969  10.563
74943ION    CL-46472  13.163  19.236   3.741
74944ION    CL-46473  25.849  30.250   2.224
74945ION    CL-46474  36.608  14.715  14.759
74946ION    CL-46475  10.271   5.469  10.931
74947ION    CL-46476  10.342  41.847   1.847
74948ION    CL-46477  34.223  34.533   0.520
74949ION    CL-46478  43.127   0.144   4.976
74950ION    CL-46479   7.146  22.082   4.916
74951ION    CL-46480  41.912  13.519   5.198
74952ION    CL-46481  22.146  32.051  13.243
74953ION    CL-46482   7.707  22.529  13.373
74954ION    CL-46483  24.735  25.389   3.256
74955ION    CL-46484  39.073  34.432   2.231
74956ION    CL-46485   0.763  16.093   1.252
74957ION    CL-46486  25.891  20.681   1.265
74958ION    CL-46487   2.202  25.035   0.388
74959ION    CL-46488  38.353   5.166   3.235
74960ION    CL-46489  16.274  19.263  14.003
74961ION    CL-46490   9.064  33.563   0.553
74962ION    CL-46491  22.704  14.165   0.456
74963ION    CL-46492  15.658  11.467   9.665
74964ION    CL-46493  31.584   8.226  10.650
74965ION    CL-46494   5.949  24.022  11.408
74966ION    CL-46495  39.113  13.707   2.059
74967ION    CL-46496  35.430  28.952   0.853
74968ION    CL-46497  24.337  37.817   1.510
74969ION    CL-46498  20.930  39.007   4.623
74970ION    CL-46499  28.558  31.762  12.711
74971ION    CL-46500  42.719   6.286   1.512
74972ION    CL-46501  26.418   2.048   0.845
74973ION    CL-46502  27.906  27.092  12.096
74974ION    CL-46503  26.429  25.950  14.294
74975ION    CL-46504   4.554  31.520  11.516
74976ION    CL-46505   0.402  17.954  13.543
74977ION    CL-46506  20.074  22.818  10.871
74978ION    CL-46507  34.809   2.844  10.995
74979ION    CL-46508  43.262   1.450   3.000
74980ION    CL-46509  34.769  13.684   0.383
74981ION    CL-46510   7.970   8.719   2.160
74982ION    CL-46511  27.493  12.807  12.753
74983ION    CL-46512  41.820  26.471   5.040
74984ION    CL-46513  27.507  24.212  13.826
74985ION    CL-46514  31.513  17.847   2.658
74986ION    CL-46515  26.548  10.574   1.181
74987ION    CL-46516  20.569  26.545  10.195
74988ION    CL-46517  25.522  40.326   0.927
74989ION    CL-46518   5.745   4.423   3.179
74990ION    CL-46519   1.269  37.988  14.351
74991ION    CL-46520  15.066  44.047   3.716
74992ION    CL-46521  38.094  17.850  12.984
74993ION    CL-46522  11.435  35.178  12.308
74994ION    CL-46523  18.975   9.353  13.158
74995ION    CL-46524  34.964  15.529  14.072
74996ION    CL-46525  44.098  37.519  11.695
74997ION    CL-46526  34.687  39.926  12.977
74998ION    CL-46527  22.612  43.880   1.452
74999ION    CL-46528   5.260  27.399   0.238
75000ION    CL-46529  27.080  32.382  11.120
75001ION    CL-46530  37.489  12.543   2.525
75002ION    CL-46531  11.915  17.666  11.495
75003ION    CL-46532   6.191  27.010   4.020
75004ION    CL-46533  38.906  41.801   2.799
75005ION    CL-46534  26.499  35.384  12.569
75006ION    CL-46535   2.377   5.980  12.076
75007ION    CL-46536  29.884  13.161  10.099
75008ION    CL-46537  14.482  15.639   1.070
75009ION    CL-46538  37.814  37.067  13.005
75010ION    CL-46539  24.941  19.638   0.467
75011ION    CL-46540  33.200  34.934   3.913
75012ION    CL-46541  24.126  42.877   4.399
75013ION    CL-46542  17.623  23.518  11.536
75014ION    CL-46543  33.651  11.791  11.553
75015ION    CL-46544   2.228  14.400  11.810
75016ION    CL-46545  42.169  44.930  13.530
75017ION    CL-46546   5.137   1.315  12.113
75018ION    CL-46547  42.073  18.768  14.773
75019ION    CL-46548   9.816  20.355   0.722
75020ION    CL-46549  11.453  32.566  14.015
75021ION    CL-46550  22.164  27.658  14.948
75022ION    CL-46551   2.831  32.322  13.382
75023ION    CL-46552  28.919  31.492   2.494
75024ION    CL-46553   0.013  35.416  14.239
75025ION    CL-46554  29.531  44.454  11.366
75026ION    CL-46555  26.744  12.120   3.467
75027ION    CL-46556  40.983   6.054  11.230
75028ION    CL-46557   8.323  42.325   1.266
75029ION    CL-46558   8.588   4.734  14.439
75030ION    CL-46559   4.651  44.406   3.077
75031ION    CL-46560  17.463   7.937   5.576
75032ION    CL-46561  21.108  33.390  11.236
75033ION    CL-46562  16.991  42.247  13.501
75034ION    CL-46563  35.339   8.693  13.462
75035ION    CL-46564  36.547  12.534  13.091
75036ION    CL-46565  17.786  43.390   4.412
75037ION    CL-46566  26.631  27.449  14.318
75038ION    CL-46567  36.690  44.019   2.190
75039ION    CL-46568  28.910   4.871   1.307
75040ION    CL-46569   3.875   3.605  10.824
75041ION    CL-46570  44.519  23.382  12.505
75042ION    CL-46571  42.340  24.951  11.669
75043ION    CL-46572  36.588  44.755  13.223
75044ION    CL-46573   0.870  25.484   1.358
75045ION    CL-46574   0.046  39.336   4.896
75046ION    CL-46575  19.805  33.965   4.996
75047ION    CL-46576  37.569  30.208   1.469
75048ION    CL-46577  43.737  23.140  13.531
75049ION    CL-46578  34.437  20.303  13.719
75050ION    CL-46579  40.604  35.557  12.426
75051ION    CL-46580   6.061   2.627   3.108
75052ION    CL-46581  41.613   9.826  13.058
75053ION    CL-46582  28.735  18.605  13.055
75054ION    CL-46583   0.037  36.862  14.011
75055ION    CL-46584  16.088  38.811  13.362
75056ION    CL-46585   0.666   3.077  14.999
75057ION    CL-46586  10.989  27.484   0.004
75058ION    CL-46587  23.127   8.182  11.058
75059ION    CL-46588  13.638  43.526  11.217
75060ION    CL-46589  29.051  38.593  13.431
75061ION    CL-46590  14.316   9.730  13.072
75062ION    CL-46591  42.556  43.345   1.760
75063ION    CL-46592  20.054  13.765   2.408
75064ION    CL-46593   4.813  15.761   1.292
75065ION    CL-46594   3.788  24.800  12.140
75066ION    CL-46595  24.041  26.158  11.920
75067ION    CL-46596   1.002  34.239  14.632
75068ION    CL-46597  36.351  25.150   4.999
75069ION    CL-46598   8.033   3.373   1.132
75070ION    CL-46599  35.955  12.913   3.495
75071ION    CL-46600  18.836  30.997  14.916
75072ION    CL-46601  42.519  17.210  12.088
75073ION    CL-46602  36.348  11.756  11.441
75074ION    CL-46603   8.624  13.519   5.190
75075ION    CL-46604  17.206  12.221   4.269
75076ION    CL-46605   4.831   8.111  13.215
75077ION    CL-46606  25.447  21.312  11.104
75078ION    CL-46607   9.108   3.398  10.115
75079ION    CL-46608  37.455  25.762   0.976
75080ION    CL-46609   4.089  16.783   2.812
75081ION    CL-46610  11.432  28.516   3.385
75082ION    CL-46611  19.107  44.207   2.395
75083ION    CL-46612  42.008  28.240  12.537
75084ION    CL-46613  11.539  31.092  13.598
75085ION    CL-46614  13.286   2.354   2.961
75086ION    CL-46615  34.377   7.942   1.315
75087ION    CL-46616  13.884  15.122   1.985
75088ION    CL-46617  37.966   0.560   0.924
75089ION    CL-46618  31.154  11.531   2.852
75090ION    CL-46619  24.669  33.309  12.990
75091ION    CL-46620  42.061  26.236   2.850
75092ION    CL-46621   2.889  18.888  11.279
75093ION    CL-46622   8.771  34.450  11.489
75094ION    CL-46623   7.932  11.427  10.409
75095ION    CL-46624  41.252  28.790  12.894
75096ION    CL-46625  32.901   5.307   2.218
75097ION    CL-46626  17.183  21.403  13.570
75098ION    CL-46627  30.466  21.603  13.264
75099ION    CL-46628  14.452  27.340  14.679
75100ION    CL-46629  39.628  22.563   0.485
75101ION    CL-46630  34.263  40.147   0.956
75102ION    CL-46631  36.097  21.736   0.315
75103ION    CL-46632  20.878  24.507   2.915
75104ION    CL-46633  42.409   7.023  11.279
75105ION    CL-46634  27.592  21.818   2.951
75106ION    CL-46635  32.306  34.913  12.979
75107ION    CL-46636  22.266   4.268   0.910
75108ION    CL-46637  36.829   2.266   0.718
75109ION    CL-46638   8.403  35.551  13.318
75110ION    CL-46639  27.495  40.937  11.521
  45.00000  45.00000  15.00000
